Protein in INSANE! Membrane UpperLeaflet>POPC=1.0 LowerLeaflet>POPC=1.0
248776
    1AU     AUC    1   7.480  36.223   7.518
    1AU     AUC    2   7.743  36.223   7.361
    1AU     AUC    3   7.717  36.227   7.697
    1AU     AUC    4   7.213  36.209   7.351
    1AU     AUC    5   7.223  36.263   7.677
    1AU     AUC    6   7.317  36.480   7.473
    1AU     AUC    7   7.657  36.491   7.491
    1AU     AUC    8   7.310  35.962   7.538
    1AU     AUC    9   7.644  35.954   7.546
    1AU     AUC   10   7.468  36.079   7.796
    1AU     AUC   11   7.477  36.423   7.758
    1AU     AUC   12   7.490  36.034   7.270
    1AU     AUC   13   7.499  36.345   7.243
    1AU     AUC   14   8.061  36.220   7.215
    1AU     AUC   15   8.043  36.212   7.560
    1AU     AUC   16   7.993  36.217   7.910
    1AU     AUC   17   6.915  36.164   7.202
    1AU     AUC   18   6.906  36.248   7.527
    1AU     AUC   19   6.922  36.314   7.846
    1AU     AUC   20   7.153  36.778   7.402
    1AU     AUC   21   7.511  36.772   7.401
    1AU     AUC   22   7.845  36.765   7.454
    1AU     AUC   23   7.124  35.677   7.555
    1AU     AUC   24   7.474  35.660   7.545
    1AU     AUC   25   7.827  35.660   7.566
    1AU     AUC   26   7.436  35.923   8.097
    1AU     AUC   27   7.448  36.279   8.079
    1AU     AUC   28   7.497  36.638   8.033
    1AU     AUC   29   7.536  35.847   6.997
    1AU     AUC   30   7.490  36.169   6.941
    1AU     AUC   31   7.472  36.484   6.926
    1AU     AUC   32   7.703  36.050   8.015
    1AU     AUC   33   7.750  36.411   7.985
    1AU     AUC   34   7.808  36.059   7.068
    1AU     AUC   35   7.765  36.362   7.068
    1AU     AUC   36   7.174  36.141   7.989
    1AU     AUC   37   7.206  36.496   7.933
    1AU     AUC   38   7.213  35.988   7.092
    1AU     AUC   39   7.173  36.296   7.042
    1AU     AUC   40   7.969  36.494   7.351
    1AU     AUC   41   7.914  36.494   7.691
    1AU     AUC   42   7.017  36.481   7.326
    1AU     AUC   43   7.050  36.576   7.651
    1AU     AUC   44   7.955  35.948   7.411
    1AU     AUC   45   7.892  35.916   7.751
    1AU     AUC   46   7.018  35.905   7.385
    1AU     AUC   47   7.035  35.989   7.717
    1AU     AUC   48   7.356  36.730   7.726
    1AU     AUC   49   7.677  36.703   7.757
    1AU     AUC   50   7.289  35.797   7.827
    1AU     AUC   51   7.598  35.750   7.821
    1AU     AUC   52   7.297  36.628   7.158
    1AU     AUC   53   7.657  36.657   7.182
    1AU     AUC   54   7.334  35.745   7.263
    1AU     AUC   55   7.711  35.789   7.275
    1AU    AUSL   56   7.945  36.161   8.306
    1AU    AUSL   57   7.710  35.769   8.224
    1AU     AUL   58   8.005  35.808   8.420
    1AU    AUSL   59   7.532  36.101   8.422
    1AU    AUSL   60   7.290  36.489   8.395
    1AU     AUL   61   7.512  36.408   8.686
    1AU    AUSL   62   7.643  36.458   8.180
    1AU    AUSL   63   8.087  36.514   8.115
    1AU     AUL   64   7.917  36.477   8.451
    1AU    AUSL   65   7.960  36.249   6.833
    1AU    AUSL   66   7.799  36.635   6.938
    1AU     AUL   67   8.089  36.558   6.695
    1AU    AUSL   68   7.763  35.936   6.618
    1AU    AUSL   69   8.250  36.008   7.020
    1AU     AUL   70   8.131  36.051   6.653
    1AU    AUSL   71   7.577  36.366   6.691
    1AU    AUSL   72   7.392  35.980   6.807
    1AU     AUL   73   7.504  36.032   6.473
    1AU    AUSL   74   6.910  36.433   8.179
    1AU    AUSL   75   7.246  36.754   8.071
    1AU     AUL   76   7.066  36.732   8.389
    1AU    AUSL   77   7.206  36.132   8.165
    1AU    AUSL   78   6.802  36.001   8.117
    1AU     AUL   79   6.707  36.224   8.248
    1AU    AUSL   80   6.967  35.973   6.790
    1AU    AUSL   81   7.194  35.652   6.977
    1AU     AUL   82   7.259  35.671   6.652
    1AU    AUSL   83   7.158  36.322   6.634
    1AU    AUSL   84   6.846  36.335   6.987
    1AU     AUL   85   6.743  36.172   6.724
    1AU    AUSL   86   8.263  36.708   7.504
    1AU    AUSL   87   8.143  36.468   7.143
    1AU     AUL   88   8.446  36.643   7.107
    1AU    AUSL   89   8.435  36.315   7.411
    1AU    AUSL   90   8.376  36.024   7.793
    1AU     AUL   91   8.678  36.112   7.626
    1AU    AUSL   92   8.145  36.362   7.730
    1AU    AUSL   93   7.952  36.761   7.779
    1AU     AUL   94   8.314  36.584   7.879
    1AU    AUSL   95   6.897  36.839   7.438
    1AU    AUSL   96   6.923  36.635   7.813
    1AU     AUL   97   6.608  36.867   7.623
    1AU    AUSL   98   6.733  36.440   7.374
    1AU    AUSL   99   6.872  36.756   7.032
    1AU     AUL  100   6.612  36.668   7.174
    1AU    AUSL  101   6.565  36.437   7.780
    1AU    AUSL  102   6.559  36.060   7.370
    1AU     AUL  103   6.370  36.396   7.473
    1AU    AUSL  104   8.163  35.674   7.644
    1AU    AUSL  105   7.987  35.954   7.945
    1AU     AUL  106   8.291  35.873   8.041
    1AU    AUSL  107   8.134  36.030   7.418
    1AU    AUSL  108   8.146  35.627   7.219
    1AU     AUL  109   8.398  35.851   7.321
    1AU    AUSL  110   6.742  35.706   7.574
    1AU    AUSL  111   6.901  35.898   7.193
    1AU     AUL  112   6.532  35.761   7.268
    1AU    AUSL  113   6.809  36.107   7.714
    1AU    AUSL  114   7.040  35.744   7.873
    1AU     AUL  115   6.717  35.729   7.909
    1AU    AUSL  116   7.528  37.014   7.890
    1AU    AUSL  117   7.087  37.032   7.771
    1AU     AUL  118   7.282  37.095   8.145
    1AU    AUSL  119   7.378  36.915   7.502
    1AU    AUSL  120   7.627  37.026   7.162
    1AU     AUL  121   7.352  37.269   7.428
    1AU    AUSL  122   7.790  37.072   7.551
    1AU    AUSL  123   7.794  36.845   8.165
    1AU     AUL  124   7.901  37.094   7.899
    1AU    AUSL  125   7.422  35.567   7.983
    1AU    AUSL  126   7.844  35.550   7.883
    1AU     AUL  127   7.592  35.465   8.252
    1AU    AUSL  128   7.137  35.375   7.705
    1AU    AUSL  129   7.193  35.741   8.286
    1AU     AUL  130   7.095  35.437   8.056
    1AU    AUSL  131   7.573  35.304   7.679
    1AU    AUSL  132   7.360  35.515   7.368
    1AU     AUL  133   7.257  35.158   7.476
    1AU    AUSL  134   7.472  36.846   6.784
    1AU    AUSL  135   8.007  36.871   7.220
    1AU     AUL  136   7.795  36.943   6.842
    1AU    AUSL  137   7.213  36.973   7.120
    1AU    AUSL  138   7.237  36.552   6.965
    1AU     AUL  139   7.154  36.825   6.756
    1AU    AUSL  140   7.585  35.492   6.996
    1AU    AUSL  141   6.954  35.476   7.290
    1AU     AUL  142   7.252  35.323   7.044
    1AU    AUSL  143   7.784  35.524   7.390
    1AU    AUSL  144   7.831  35.836   7.015
    1AU     AUL  145   7.919  35.499   6.981
    1AU       S  146   8.042  35.360   8.280
    1AU     LIG  147   8.277  34.971   8.299
    1AU     LIG  148   8.235  34.610   8.527
    1AU     LIG  149   8.216  34.190   8.674
    1AU       S  150   7.874  36.100   8.754
    1AU     LIG  151   8.291  36.109   8.729
    1AU     LIG  152   8.456  36.181   9.153
    1AU     LIG  153   8.324  36.111   9.609
    1AU       S  154   7.533  35.933   8.634
    1AU     LIG  155   7.522  35.954   9.085
    1AU     LIG  156   7.890  35.892   9.382
    1AU     LIG  157   8.113  35.639   9.727
    1AU       S  158   7.073  36.287   8.611
    1AU     LIG  159   7.144  36.320   9.056
    1AU     LIG  160   6.813  36.328   9.364
    1AU     LIG  161   6.667  36.417   9.804
    1AU       S  162   7.532  36.863   8.535
    1AU     LIG  163   7.819  37.173   8.705
    1AU     LIG  164   8.226  36.995   8.821
    1AU     LIG  165   8.402  36.600   8.780
    1AU       S  166   8.257  36.776   8.305
    1AU     LIG  167   8.656  36.700   8.343
    1AU     LIG  168   8.769  36.996   8.673
    1AU     LIG  169   9.047  37.275   8.925
    1AU       S  170   7.890  36.351   6.337
    1AU     LIG  171   8.334  36.356   6.289
    1AU     LIG  172   8.413  35.914   6.246
    1AU     LIG  173   8.265  35.519   6.061
    1AU       S  174   8.223  37.084   6.858
    1AU     LIG  175   8.202  37.242   6.438
    1AU     LIG  176   8.432  37.450   6.122
    1AU     LIG  177   8.709  37.718   5.908
    1AU       S  178   8.489  35.813   6.863
    1AU     LIG  179   8.756  35.694   6.559
    1AU     LIG  180   8.608  35.279   6.424
    1AU     LIG  181   8.745  34.837   6.489
    1AU       S  182   7.887  36.161   6.263
    1AU     LIG  183   7.802  35.756   6.143
    1AU     LIG  184   7.760  35.605   5.719
    1AU     LIG  185   7.780  35.798   5.293
    1AU       S  186   7.077  35.971   6.321
    1AU     LIG  187   7.303  35.844   5.979
    1AU     LIG  188   7.313  35.793   5.522
    1AU     LIG  189   6.993  35.826   5.196
    1AU       S  190   7.664  36.479   6.456
    1AU     LIG  191   7.441  36.340   6.068
    1AU     LIG  192   7.674  36.120   5.755
    1AU     LIG  193   8.118  35.991   5.808
    1AU       S  194   6.863  36.395   8.645
    1AU     LIG  195   6.588  36.104   8.760
    1AU     LIG  196   6.570  35.895   9.156
    1AU     LIG  197   6.588  35.934   9.614
    1AU       S  198   6.807  37.030   8.130
    1AU     LIG  199   6.746  37.108   8.533
    1AU     LIG  200   6.481  36.986   8.858
    1AU     LIG  201   6.254  37.301   9.079
    1AU       S  202   6.726  35.778   8.401
    1AU     LIG  203   6.307  35.779   8.232
    1AU     LIG  204   6.057  35.439   8.043
    1AU     LIG  205   5.797  35.081   8.261
    1AU       S  206   7.060  36.114   8.548
    1AU     LIG  207   7.032  35.855   8.906
    1AU     LIG  208   7.059  35.868   9.354
    1AU     LIG  209   7.072  36.088   9.756
    1AU       S  210   6.912  35.874   6.423
    1AU     LIG  211   6.695  35.724   6.093
    1AU     LIG  212   6.819  35.874   5.693
    1AU     LIG  213   6.649  36.165   5.372
    1AU       S  214   6.859  35.484   6.818
    1AU     LIG  215   6.662  35.260   6.481
    1AU     LIG  216   6.562  35.220   6.030
    1AU     LIG  217   6.154  35.083   5.852
    1AU       S  218   6.560  36.591   6.691
    1AU     LIG  219   6.262  36.884   6.831
    1AU     LIG  220   6.123  37.266   6.606
    1AU     LIG  221   6.220  37.427   6.184
    1AU       S  222   7.087  36.259   6.407
    1AU     LIG  223   6.688  36.292   6.227
    1AU     LIG  224   6.770  36.384   5.818
    1AU     LIG  225   7.146  36.272   5.578
    1AU       S  226   8.277  36.952   6.835
    1AU     LIG  227   8.536  36.797   6.530
    1AU     LIG  228   8.747  37.041   6.194
    1AU     LIG  229   9.049  37.337   5.982
    1AU       S  230   8.498  36.846   7.536
    1AU     LIG  231   8.858  37.076   7.624
    1AU     LIG  232   9.288  37.030   7.504
    1AU     LIG  233   9.694  36.954   7.300
    1AU       S  234   8.715  36.557   7.477
    1AU     LIG  235   9.008  36.684   7.208
    1AU     LIG  236   9.440  36.504   7.130
    1AU     LIG  237   9.905  36.508   7.164
    1AU       S  238   8.629  35.668   7.804
    1AU     LIG  239   8.988  35.503   7.993
    1AU     LIG  240   9.423  35.411   7.958
    1AU     LIG  241   9.617  35.347   7.564
    1AU       S  242   8.299  36.986   8.097
    1AU     LIG  243   8.709  37.183   8.179
    1AU     LIG  244   8.891  37.498   8.484
    1AU     LIG  245   8.908  37.771   8.885
    1AU       S  246   8.713  36.598   7.682
    1AU     LIG  247   9.110  36.631   7.813
    1AU     LIG  248   9.506  36.584   7.642
    1AU     LIG  249   9.928  36.667   7.671
    1AU       S  250   6.735  36.844   8.064
    1AU     LIG  251   6.492  36.684   8.406
    1AU     LIG  252   6.070  36.851   8.544
    1AU     LIG  253   5.755  37.219   8.542
    1AU       S  254   6.843  37.170   7.339
    1AU     LIG  255   6.572  37.484   7.315
    1AU     LIG  256   6.242  37.459   7.063
    1AU     LIG  257   5.958  37.098   7.178
    1AU       S  258   6.367  36.284   7.012
    1AU     LIG  259   5.992  36.435   7.094
    1AU     LIG  260   5.813  36.506   7.460
    1AU     LIG  261   5.574  36.872   7.433
    1AU       S  262   6.745  37.009   6.872
    1AU     LIG  263   6.699  37.434   6.806
    1AU     LIG  264   6.422  37.708   6.571
    1AU     LIG  265   6.147  37.944   6.244
    1AU       S  266   6.344  35.966   7.656
    1AU     LIG  267   6.050  35.974   7.322
    1AU     LIG  268   5.605  36.038   7.259
    1AU     LIG  269   5.264  36.140   6.942
    1AU       S  270   6.425  36.489   7.947
    1AU     LIG  271   6.052  36.443   8.182
    1AU     LIG  272   5.666  36.730   8.202
    1AU     LIG  273   5.621  37.163   8.011
    1AU       S  274   8.330  35.533   7.671
    1AU     LIG  275   8.418  35.227   7.405
    1AU     LIG  276   8.820  35.097   7.431
    1AU     LIG  277   9.150  35.054   7.713
    1AU       S  278   8.220  35.440   8.139
    1AU     LIG  279   8.577  35.182   7.939
    1AU     LIG  280   8.923  35.026   8.176
    1AU     LIG  281   9.033  34.836   8.582
    1AU       S  282   8.625  35.617   7.629
    1AU     LIG  283   8.834  35.594   7.263
    1AU     LIG  284   9.225  35.358   7.224
    1AU     LIG  285   9.653  35.256   7.054
    1AU       S  286   8.401  35.524   6.979
    1AU     LIG  287   8.351  35.109   6.902
    1AU     LIG  288   8.434  34.682   6.865
    1AU     LIG  289   8.595  34.352   6.551
    1AU       S  290   6.715  35.599   6.884
    1AU     LIG  291   6.445  35.719   6.574
    1AU     LIG  292   6.185  35.416   6.318
    1AU     LIG  293   5.848  35.086   6.297
    1AU       S  294   6.309  35.751   7.697
    1AU     LIG  295   6.305  35.353   7.534
    1AU     LIG  296   5.948  35.217   7.263
    1AU     LIG  297   5.518  35.379   7.338
    1AU       S  298   6.747  35.568   8.342
    1AU     LIG  299   6.622  35.256   8.016
    1AU     LIG  300   6.305  34.956   8.027
    1AU     LIG  301   6.178  34.700   8.403
    1AU       S  302   6.369  36.017   7.815
    1AU     LIG  303   5.900  36.103   7.794
    1AU     LIG  304   5.726  35.704   7.677
    1AU     LIG  305   5.520  35.401   7.960
    1AU       S  306   6.962  37.211   7.810
    1AU     LIG  307   6.522  37.318   7.818
    1AU     LIG  308   6.297  37.120   8.160
    1AU     LIG  309   6.260  37.341   8.549
    1AU       S  310   7.529  37.352   7.843
    1AU     LIG  311   7.676  37.448   8.237
    1AU     LIG  312   7.618  37.930   8.268
    1AU     LIG  313   7.451  38.362   8.422
    1AU       S  314   7.623  37.551   7.739
    1AU     LIG  315   7.211  37.651   8.028
    1AU     LIG  316   7.122  38.059   8.153
    1AU     LIG  317   7.333  38.374   7.908
    1AU       S  318   7.565  37.317   7.012
    1AU     LIG  319   7.529  37.716   7.244
    1AU     LIG  320   7.581  38.166   7.334
    1AU     LIG  321   7.830  38.460   7.114
    1AU       S  322   8.033  36.949   8.330
    1AU     LIG  323   8.277  37.333   8.449
    1AU     LIG  324   8.517  37.420   8.829
    1AU     LIG  325   8.612  37.143   9.183
    1AU       S  326   7.810  37.362   7.518
    1AU     LIG  327   7.961  37.831   7.507
    1AU     LIG  328   7.793  38.149   7.802
    1AU     LIG  329   7.792  38.531   8.059
    1AU       S  330   7.415  35.078   8.064
    1AU     LIG  331   7.795  34.825   8.154
    1AU     LIG  332   7.791  34.446   8.385
    1AU     LIG  333   7.697  34.047   8.599
    1AU       S  334   7.981  35.400   7.994
    1AU     LIG  335   8.108  35.076   7.791
    1AU     LIG  336   8.244  34.656   7.901
    1AU     LIG  337   8.249  34.236   8.133
    1AU       S  338   7.224  35.009   7.911
    1AU     LIG  339   7.329  34.602   7.764
    1AU     LIG  340   7.329  34.381   8.120
    1AU     LIG  341   6.972  34.256   8.356
    1AU       S  342   7.021  35.644   8.467
    1AU     LIG  343   6.955  35.155   8.476
    1AU     LIG  344   6.527  35.018   8.648
    1AU     LIG  345   6.261  34.737   8.922
    1AU       S  346   7.655  35.091   7.262
    1AU     LIG  347   7.410  34.727   7.212
    1AU     LIG  348   7.592  34.431   6.899
    1AU     LIG  349   7.799  34.035   6.960
    1AU       S  350   7.577  35.123   7.829
    1AU     LIG  351   7.761  34.766   7.631
    1AU     LIG  352   7.815  34.386   7.848
    1AU     LIG  353   7.730  34.057   8.090
    1AU       S  354   7.418  37.226   6.733
    1AU     LIG  355   7.345  37.700   6.753
    1AU     LIG  356   7.598  38.084   6.820
    1AU     LIG  357   7.818  38.448   6.602
    1AU       S  358   8.162  37.056   7.165
    1AU     LIG  359   8.646  37.116   7.120
    1AU     LIG  360   8.691  37.292   6.670
    1AU     LIG  361   8.781  37.698   6.421
    1AU       S  362   7.207  37.247   6.975
    1AU     LIG  363   7.036  37.636   7.155
    1AU     LIG  364   7.133  38.105   7.078
    1AU     LIG  365   7.349  38.529   6.930
    1AU       S  366   6.777  36.642   6.592
    1AU     LIG  367   6.573  37.029   6.412
    1AU     LIG  368   6.735  37.421   6.281
    1AU     LIG  369   6.606  37.703   5.964
    1AU       S  370   6.787  35.388   7.124
    1AU     LIG  371   6.396  35.233   7.019
    1AU     LIG  372   6.208  35.034   6.678
    1AU     LIG  373   6.319  34.847   6.284
    1AU       S  374   7.682  35.123   7.092
    1AU     LIG  375   7.895  34.868   6.810
    1AU     LIG  376   7.760  34.620   6.446
    1AU     LIG  377   7.708  34.150   6.432
    1AU       S  378   7.898  35.214   7.355
    1AU     LIG  379   8.101  34.851   7.282
    1AU     LIG  380   8.059  34.454   7.138
    1AU     LIG  381   8.094  34.352   6.703
    1AU       S  382   8.278  35.619   6.729
    1AU     LIG  383   8.076  35.299   6.515
    1AU     LIG  384   8.229  34.865   6.414
    1AU     LIG  385   8.199  34.446   6.202
    2AU     AUC  386   9.422   7.343   7.520
    2AU     AUC  387   9.681   7.345   7.356
    2AU     AUC  388   9.662   7.339   7.693
    2AU     AUC  389   9.156   7.339   7.360
    2AU     AUC  390   9.168   7.384   7.685
    2AU     AUC  391   9.263   7.605   7.483
    2AU     AUC  392   9.602   7.611   7.495
    2AU     AUC  393   9.250   7.085   7.538
    2AU     AUC  394   9.583   7.071   7.539
    2AU     AUC  395   9.413   7.194   7.795
    2AU     AUC  396   9.425   7.538   7.764
    2AU     AUC  397   9.425   7.158   7.267
    2AU     AUC  398   9.438   7.472   7.248
    2AU     AUC  399   9.998   7.348   7.203
    2AU     AUC  400   9.984   7.326   7.544
    2AU     AUC  401   9.938   7.318   7.900
    2AU     AUC  402   8.859   7.302   7.214
    2AU     AUC  403   8.851   7.380   7.540
    2AU     AUC  404   8.872   7.436   7.860
    2AU     AUC  405   9.102   7.909   7.423
    2AU     AUC  406   9.460   7.895   7.415
    2AU     AUC  407   9.794   7.885   7.457
    2AU     AUC  408   9.060   6.799   7.556
    2AU     AUC  409   9.408   6.779   7.542
    2AU     AUC  410   9.759   6.778   7.552
    2AU     AUC  411   9.383   7.035   8.096
    2AU     AUC  412   9.400   7.387   8.084
    2AU     AUC  413   9.453   7.745   8.046
    2AU     AUC  414   9.464   6.968   6.988
    2AU     AUC  415   9.413   7.299   6.944
    2AU     AUC  416   9.404   7.618   6.935
    2AU     AUC  417   9.653   7.155   8.009
    2AU     AUC  418   9.699   7.512   7.989
    2AU     AUC  419   9.733   7.177   7.062
    2AU     AUC  420   9.701   7.493   7.074
    2AU     AUC  421   9.121   7.257   7.993
    2AU     AUC  422   9.159   7.613   7.946
    2AU     AUC  423   9.149   7.118   7.094
    2AU     AUC  424   9.110   7.430   7.052
    2AU     AUC  425   9.919   7.617   7.344
    2AU     AUC  426   9.857   7.604   7.691
    2AU     AUC  427   8.963   7.616   7.343
    2AU     AUC  428   9.003   7.702   7.671
    2AU     AUC  429   9.887   7.063   7.384
    2AU     AUC  430   9.837   7.030   7.732
    2AU     AUC  431   8.959   7.035   7.388
    2AU     AUC  432   8.976   7.114   7.720
    2AU     AUC  433   9.311   7.848   7.742
    2AU     AUC  434   9.629   7.813   7.769
    2AU     AUC  435   9.229   6.915   7.826
    2AU     AUC  436   9.542   6.866   7.816
    2AU     AUC  437   9.240   7.761   7.173
    2AU     AUC  438   9.602   7.790   7.190
    2AU     AUC  439   9.271   6.867   7.262
    2AU     AUC  440   9.641   6.904   7.263
    2AU    AUSL  441   9.898   7.256   8.301
    2AU    AUSL  442   9.668   6.876   8.215
    2AU     AUL  443   9.981   6.912   8.401
    2AU    AUSL  444   9.487   7.198   8.424
    2AU    AUSL  445   9.250   7.594   8.410
    2AU     AUL  446   9.475   7.495   8.698
    2AU    AUSL  447   9.596   7.557   8.184
    2AU    AUSL  448  10.039   7.610   8.117
    2AU     AUL  449   9.871   7.565   8.453
    2AU    AUSL  450   9.862   7.372   6.875
    2AU    AUSL  451   9.718   7.763   6.964
    2AU     AUL  452   9.919   7.698   6.677
    2AU    AUSL  453   9.692   7.092   6.607
    2AU    AUSL  454  10.170   7.115   6.987
    2AU     AUL  455  10.068   7.241   6.644
    2AU    AUSL  456   9.499   7.506   6.692
    2AU    AUSL  457   9.319   7.113   6.799
    2AU     AUL  458   9.423   7.160   6.477
    2AU    AUSL  459   8.869   7.549   8.194
    2AU    AUSL  460   9.208   7.865   8.089
    2AU     AUL  461   9.029   7.839   8.411
    2AU    AUSL  462   9.162   7.245   8.169
    2AU    AUSL  463   8.753   7.122   8.121
    2AU     AUL  464   8.677   7.336   8.274
    2AU    AUSL  465   8.892   7.109   6.800
    2AU    AUSL  466   9.130   6.784   6.977
    2AU     AUL  467   9.178   6.800   6.644
    2AU    AUSL  468   9.078   7.462   6.654
    2AU    AUSL  469   8.783   7.472   7.010
    2AU     AUL  470   8.658   7.306   6.758
    2AU    AUSL  471  10.179   7.820   7.499
    2AU    AUSL  472  10.126   7.622   7.088
    2AU     AUL  473  10.457   7.834   7.195
    2AU    AUSL  474  10.365   7.438   7.391
    2AU    AUSL  475  10.324   7.129   7.752
    2AU     AUL  476  10.629   7.206   7.544
    2AU    AUSL  477  10.087   7.469   7.725
    2AU    AUSL  478   9.895   7.865   7.799
    2AU     AUL  479  10.260   7.663   7.888
    2AU    AUSL  480   8.848   7.979   7.464
    2AU    AUSL  481   8.878   7.761   7.832
    2AU     AUL  482   8.561   7.996   7.653
    2AU    AUSL  483   8.677   7.584   7.399
    2AU    AUSL  484   8.816   7.895   7.058
    2AU     AUL  485   8.562   7.814   7.199
    2AU    AUSL  486   8.518   7.563   7.813
    2AU    AUSL  487   8.506   7.206   7.364
    2AU     AUL  488   8.329   7.540   7.507
    2AU    AUSL  489  10.093   6.789   7.614
    2AU    AUSL  490   9.943   7.062   7.932
    2AU     AUL  491  10.251   6.973   8.002
    2AU    AUSL  492  10.071   7.145   7.389
    2AU    AUSL  493  10.063   6.738   7.192
    2AU     AUL  494  10.324   6.958   7.273
    2AU    AUSL  495   8.675   6.838   7.570
    2AU    AUSL  496   8.851   7.033   7.204
    2AU     AUL  497   8.478   6.933   7.235
    2AU    AUSL  498   8.749   7.232   7.719
    2AU    AUSL  499   8.980   6.865   7.867
    2AU     AUL  500   8.665   6.847   7.915
    2AU    AUSL  501   9.493   8.124   7.907
    2AU    AUSL  502   9.050   8.154   7.801
    2AU     AUL  503   9.254   8.199   8.174
    2AU    AUSL  504   9.332   8.039   7.522
    2AU    AUSL  505   9.575   8.155   7.181
    2AU     AUL  506   9.321   8.392   7.459
    2AU    AUSL  507   9.755   8.178   7.563
    2AU    AUSL  508   9.747   7.944   8.188
    2AU     AUL  509   9.866   8.196   7.912
    2AU    AUSL  510   9.365   6.690   7.979
    2AU    AUSL  511   9.786   6.663   7.867
    2AU     AUL  512   9.542   6.586   8.244
    2AU    AUSL  513   9.070   6.492   7.708
    2AU    AUSL  514   9.132   6.853   8.283
    2AU     AUL  515   9.037   6.552   8.055
    2AU    AUSL  516   9.502   6.420   7.679
    2AU    AUSL  517   9.289   6.641   7.374
    2AU     AUL  518   9.186   6.280   7.479
    2AU    AUSL  519   9.412   7.990   6.798
    2AU    AUSL  520   9.966   8.015   7.199
    2AU     AUL  521   9.743   8.107   6.863
    2AU    AUSL  522   9.159   8.110   7.145
    2AU    AUSL  523   9.179   7.693   6.978
    2AU     AUL  524   9.090   7.965   6.776
    2AU    AUSL  525   9.505   6.588   7.002
    2AU    AUSL  526   8.886   6.606   7.288
    2AU     AUL  527   9.169   6.451   7.046
    2AU    AUSL  528   9.714   6.637   7.390
    2AU    AUSL  529   9.741   6.937   6.992
    2AU     AUL  530   9.827   6.559   7.014
    2AU       S  531   9.984   6.458   8.261
    2AU     LIG  532  10.222   6.070   8.345
    2AU     LIG  533  10.389   5.641   8.410
    2AU     LIG  534  10.773   5.415   8.529
    2AU       S  535   9.838   7.183   8.746
    2AU     LIG  536  10.251   7.157   8.814
    2AU     LIG  537  10.436   7.271   9.223
    2AU     LIG  538  10.582   7.181   9.672
    2AU       S  539   9.493   7.021   8.633
    2AU     LIG  540   9.509   7.037   9.092
    2AU     LIG  541   9.919   7.020   9.361
    2AU     LIG  542  10.159   6.879   9.763
    2AU       S  543   9.034   7.392   8.623
    2AU     LIG  544   9.116   7.402   9.074
    2AU     LIG  545   8.778   7.276   9.368
    2AU     LIG  546   8.525   7.363   9.768
    2AU       S  547   9.498   7.956   8.566
    2AU     LIG  548   9.785   8.278   8.731
    2AU     LIG  549  10.198   8.113   8.813
    2AU     LIG  550  10.246   7.667   8.807
    2AU       S  551  10.215   7.861   8.314
    2AU     LIG  552  10.590   7.875   8.483
    2AU     LIG  553  10.708   8.213   8.735
    2AU     LIG  554  10.914   8.571   8.946
    2AU       S  555   9.782   7.477   6.308
    2AU     LIG  556  10.251   7.477   6.220
    2AU     LIG  557  10.376   7.148   5.913
    2AU     LIG  558  10.239   6.746   5.706
    2AU       S  559  10.196   8.050   6.797
    2AU     LIG  560  10.105   8.330   6.486
    2AU     LIG  561  10.325   8.506   6.107
    2AU     LIG  562  10.578   8.836   5.890
    2AU       S  563  10.337   6.880   6.792
    2AU     LIG  564  10.351   6.847   6.319
    2AU     LIG  565  10.142   6.477   6.155
    2AU     LIG  566  10.253   6.022   6.183
    2AU       S  567   9.793   7.311   6.263
    2AU     LIG  568   9.852   6.914   6.152
    2AU     LIG  569   9.723   6.721   5.772
    2AU     LIG  570   9.719   6.843   5.326
    2AU       S  571   8.996   7.128   6.324
    2AU     LIG  572   9.278   6.926   6.040
    2AU     LIG  573   9.258   6.933   5.573
    2AU     LIG  574   8.954   7.075   5.249
    2AU       S  575   9.521   7.619   6.426
    2AU     LIG  576   9.331   7.443   6.050
    2AU     LIG  577   9.622   7.232   5.773
    2AU     LIG  578  10.020   7.199   5.540
    2AU       S  579   8.830   7.505   8.674
    2AU     LIG  580   8.548   7.203   8.763
    2AU     LIG  581   8.488   6.904   9.068
    2AU     LIG  582   8.396   6.935   9.508
    2AU       S  583   8.775   8.142   8.161
    2AU     LIG  584   8.715   8.248   8.556
    2AU     LIG  585   8.425   8.199   8.885
    2AU     LIG  586   8.006   8.283   9.062
    2AU       S  587   8.671   6.885   8.407
    2AU     LIG  588   8.271   6.961   8.250
    2AU     LIG  589   7.915   6.689   8.189
    2AU     LIG  590   7.842   6.412   8.546
    2AU       S  591   9.024   7.218   8.571
    2AU     LIG  592   8.994   6.941   8.929
    2AU     LIG  593   8.903   6.779   9.358
    2AU     LIG  594   8.832   6.936   9.799
    2AU       S  595   8.846   7.050   6.433
    2AU     LIG  596   8.786   6.677   6.220
    2AU     LIG  597   8.789   6.876   5.795
    2AU     LIG  598   8.682   7.298   5.618
    2AU       S  599   8.786   6.623   6.820
    2AU     LIG  600   8.798   6.241   6.688
    2AU     LIG  601   8.745   6.134   6.282
    2AU     LIG  602   8.344   6.142   6.106
    2AU       S  603   8.515   7.735   6.713
    2AU     LIG  604   8.225   8.030   6.749
    2AU     LIG  605   8.277   8.446   6.602
    2AU     LIG  606   8.291   8.559   6.150
    2AU       S  607   9.019   7.417   6.448
    2AU     LIG  608   8.775   7.568   6.153
    2AU     LIG  609   8.949   7.704   5.769
    2AU     LIG  610   9.217   7.455   5.501
    2AU       S  611  10.315   7.904   6.773
    2AU     LIG  612  10.463   7.989   6.346
    2AU     LIG  613  10.746   8.213   6.053
    2AU     LIG  614  11.008   8.582   6.010
    2AU       S  615  10.329   8.031   7.604
    2AU     LIG  616  10.656   8.258   7.410
    2AU     LIG  617  11.063   8.089   7.524
    2AU     LIG  618  11.507   8.127   7.602
    2AU       S  619  10.624   7.669   7.596
    2AU     LIG  620  10.924   7.596   7.328
    2AU     LIG  621  11.356   7.691   7.347
    2AU     LIG  622  11.673   7.958   7.152
    2AU       S  623  10.563   6.769   7.731
    2AU     LIG  624  10.965   6.693   7.846
    2AU     LIG  625  11.402   6.610   7.924
    2AU     LIG  626  11.622   6.207   8.005
    2AU       S  627  10.249   8.062   8.122
    2AU     LIG  628  10.619   8.288   8.189
    2AU     LIG  629  10.750   8.649   8.446
    2AU     LIG  630  10.759   9.016   8.735
    2AU       S  631  10.609   7.848   7.679
    2AU     LIG  632  10.890   7.859   8.000
    2AU     LIG  633  11.346   7.800   7.959
    2AU     LIG  634  11.739   8.036   8.045
    2AU       S  635   8.692   7.962   8.091
    2AU     LIG  636   8.469   7.808   8.448
    2AU     LIG  637   8.049   7.956   8.631
    2AU     LIG  638   7.651   8.222   8.684
    2AU       S  639   8.792   8.314   7.376
    2AU     LIG  640   8.608   8.743   7.408
    2AU     LIG  641   8.317   8.714   7.091
    2AU     LIG  642   8.292   8.259   7.198
    2AU       S  643   8.279   7.464   7.045
    2AU     LIG  644   7.806   7.448   7.186
    2AU     LIG  645   7.344   7.641   7.160
    2AU     LIG  646   7.243   8.109   7.076
    2AU       S  647   8.685   8.159   6.897
    2AU     LIG  648   8.737   8.598   6.805
    2AU     LIG  649   8.462   8.928   6.587
    2AU     LIG  650   8.066   8.982   6.316
    2AU       S  651   8.264   7.093   7.630
    2AU     LIG  652   7.839   7.005   7.465
    2AU     LIG  653   7.388   7.135   7.356
    2AU     LIG  654   7.064   7.089   7.007
    2AU       S  655   8.386   7.592   7.987
    2AU     LIG  656   8.030   7.738   8.168
    2AU     LIG  657   7.753   8.111   8.187
    2AU     LIG  658   7.514   8.339   7.847
    2AU       S  659  10.260   6.617   7.628
    2AU     LIG  660  10.410   6.189   7.487
    2AU     LIG  661  10.769   5.964   7.678
    2AU     LIG  662  11.099   6.189   7.917
    2AU       S  663  10.162   6.548   8.119
    2AU     LIG  664  10.532   6.323   7.983
    2AU     LIG  665  10.729   5.997   8.226
    2AU     LIG  666  10.709   5.923   8.686
    2AU       S  667  10.533   6.675   7.551
    2AU     LIG  668  10.837   6.804   7.289
    2AU     LIG  669  11.260   6.713   7.411
    2AU     LIG  670  11.497   6.332   7.500
    2AU       S  671  10.281   6.630   6.916
    2AU     LIG  672  10.119   6.276   6.664
    2AU     LIG  673  10.107   5.824   6.638
    2AU     LIG  674  10.350   5.485   6.418
    2AU       S  675   8.657   6.718   6.876
    2AU     LIG  676   8.393   6.820   6.574
    2AU     LIG  677   8.127   6.473   6.451
    2AU     LIG  678   7.881   6.082   6.339
    2AU       S  679   8.282   6.868   7.665
    2AU     LIG  680   8.076   6.536   7.735
    2AU     LIG  681   7.657   6.533   7.661
    2AU     LIG  682   7.287   6.623   7.401
    2AU       S  683   8.691   6.678   8.342
    2AU     LIG  684   8.423   6.454   8.102
    2AU     LIG  685   8.099   6.153   8.160
    2AU     LIG  686   7.818   5.760   8.204
    2AU       S  687   8.325   7.133   7.799
    2AU     LIG  688   7.910   7.213   7.953
    2AU     LIG  689   7.520   6.991   7.867
    2AU     LIG  690   7.329   6.642   8.055
    2AU       S  691   8.935   8.327   7.842
    2AU     LIG  692   8.508   8.439   7.864
    2AU     LIG  693   8.264   8.240   8.213
    2AU     LIG  694   8.094   8.464   8.571
    2AU       S  695   9.495   8.469   7.880
    2AU     LIG  696   9.684   8.518   8.272
    2AU     LIG  697   9.687   8.977   8.405
    2AU     LIG  698   9.409   9.371   8.398
    2AU       S  699   9.629   8.633   7.768
    2AU     LIG  700   9.204   8.834   7.719
    2AU     LIG  701   9.148   9.227   7.942
    2AU     LIG  702   9.380   9.619   7.933
    2AU       S  703   9.483   8.468   7.024
    2AU     LIG  704   9.546   8.907   7.135
    2AU     LIG  705   9.840   9.278   7.081
    2AU     LIG  706  10.176   9.505   6.835
    2AU       S  707   9.980   8.040   8.346
    2AU     LIG  708  10.186   8.453   8.432
    2AU     LIG  709  10.384   8.610   8.811
    2AU     LIG  710  10.489   8.380   9.196
    2AU       S  711   9.782   8.482   7.536
    2AU     LIG  712   9.841   8.995   7.538
    2AU     LIG  713   9.680   9.189   7.918
    2AU     LIG  714   9.870   9.465   8.227
    2AU       S  715   9.367   6.196   8.072
    2AU     LIG  716   9.748   5.930   8.181
    2AU     LIG  717   9.898   5.509   8.372
    2AU     LIG  718   9.865   5.040   8.421
    2AU       S  719   9.923   6.508   7.970
    2AU     LIG  720  10.074   6.140   7.847
    2AU     LIG  721  10.353   5.797   7.929
    2AU     LIG  722  10.744   5.516   8.011
    2AU       S  723   9.187   6.126   7.920
    2AU     LIG  724   9.362   5.687   7.941
    2AU     LIG  725   9.508   5.271   8.091
    2AU     LIG  726   9.470   4.808   8.146
    2AU       S  727   8.960   6.760   8.472
    2AU     LIG  728   8.719   6.518   8.799
    2AU     LIG  729   8.353   6.293   8.611
    2AU     LIG  730   8.029   5.942   8.636
    2AU       S  731   9.601   6.187   7.291
    2AU     LIG  732   9.418   5.751   7.276
    2AU     LIG  733   9.371   5.418   6.946
    2AU     LIG  734   9.546   4.975   6.846
    2AU       S  735   9.520   6.231   7.828
    2AU     LIG  736   9.729   5.863   7.649
    2AU     LIG  737   9.904   5.517   7.872
    2AU     LIG  738   9.944   5.025   7.910
    2AU       S  739   9.348   8.366   6.753
    2AU     LIG  740   9.222   8.816   6.728
    2AU     LIG  741   9.453   9.227   6.726
    2AU     LIG  742   9.806   9.412   6.479
    2AU       S  743  10.157   8.175   7.082
    2AU     LIG  744  10.566   8.350   6.898
    2AU     LIG  745  10.693   8.523   6.479
    2AU     LIG  746  10.832   8.946   6.325
    2AU       S  747   9.152   8.375   7.013
    2AU     LIG  748   9.067   8.761   7.212
    2AU     LIG  749   9.058   9.199   7.063
    2AU     LIG  750   9.062   9.585   6.773
    2AU       S  751   8.708   7.785   6.620
    2AU     LIG  752   8.703   8.200   6.405
    2AU     LIG  753   8.772   8.654   6.281
    2AU     LIG  754   8.531   9.026   6.065
    2AU       S  755   8.708   6.545   7.117
    2AU     LIG  756   8.374   6.300   6.969
    2AU     LIG  757   8.334   6.017   6.611
    2AU     LIG  758   8.498   5.675   6.338
    2AU       S  759   9.561   6.219   7.162
    2AU     LIG  760   9.670   6.068   6.798
    2AU     LIG  761   9.491   5.759   6.550
    2AU     LIG  762   9.327   5.355   6.421
    2AU       S  763   9.869   6.315   7.411
    2AU     LIG  764  10.053   6.041   7.134
    2AU     LIG  765   9.860   5.634   7.041
    2AU     LIG  766   9.813   5.382   6.657
    2AU       S  767  10.044   6.771   6.679
    2AU     LIG  768   9.695   6.552   6.515
    2AU     LIG  769   9.751   6.130   6.295
    2AU     LIG  770   9.871   5.662   6.212
    3AU     AUC  771  22.886   9.672   7.515
    3AU     AUC  772  23.142   9.678   7.347
    3AU     AUC  773  23.131   9.677   7.683
    3AU     AUC  774  22.613   9.656   7.360
    3AU     AUC  775  22.636   9.708   7.685
    3AU     AUC  776  22.718   9.927   7.481
    3AU     AUC  777  23.059   9.944   7.486
    3AU     AUC  778  22.720   9.409   7.540
    3AU     AUC  779  23.054   9.403   7.534
    3AU     AUC  780  22.888   9.526   7.792
    3AU     AUC  781  22.890   9.870   7.758
    3AU     AUC  782  22.888   9.485   7.265
    3AU     AUC  783  22.894   9.798   7.243
    3AU     AUC  784  23.457   9.684   7.187
    3AU     AUC  785  23.450   9.665   7.526
    3AU     AUC  786  23.415   9.664   7.882
    3AU     AUC  787  22.312   9.610   7.223
    3AU     AUC  788  22.312   9.691   7.548
    3AU     AUC  789  22.342   9.752   7.866
    3AU     AUC  790  22.545  10.224   7.422
    3AU     AUC  791  22.905  10.226   7.410
    3AU     AUC  792  23.241  10.222   7.449
    3AU     AUC  793  22.537   9.120   7.563
    3AU     AUC  794  22.886   9.107   7.542
    3AU     AUC  795  23.236   9.111   7.545
    3AU     AUC  796  22.869   9.369   8.097
    3AU     AUC  797  22.877   9.723   8.079
    3AU     AUC  798  22.918  10.083   8.036
    3AU     AUC  799  22.927   9.297   6.988
    3AU     AUC  800  22.871   9.624   6.939
    3AU     AUC  801  22.851   9.941   6.932
    3AU     AUC  802  23.134   9.498   8.001
    3AU     AUC  803  23.174   9.861   7.971
    3AU     AUC  804  23.193   9.511   7.053
    3AU     AUC  805  23.155   9.827   7.062
    3AU     AUC  806  22.600   9.582   7.998
    3AU     AUC  807  22.625   9.936   7.945
    3AU     AUC  808  22.608   9.438   7.099
    3AU     AUC  809  22.562   9.744   7.053
    3AU     AUC  810  23.372   9.951   7.327
    3AU     AUC  811  23.327   9.947   7.672
    3AU     AUC  812  22.412   9.927   7.345
    3AU     AUC  813  22.455  10.018   7.670
    3AU     AUC  814  23.355   9.398   7.375
    3AU     AUC  815  23.312   9.368   7.724
    3AU     AUC  816  22.423   9.350   7.398
    3AU     AUC  817  22.452   9.433   7.729
    3AU     AUC  818  22.762  10.175   7.738
    3AU     AUC  819  23.087  10.153   7.756
    3AU     AUC  820  22.711   9.242   7.829
    3AU     AUC  821  23.024   9.201   7.813
    3AU     AUC  822  22.684  10.079   7.171
    3AU     AUC  823  23.043  10.115   7.184
    3AU     AUC  824  22.736   9.192   7.266
    3AU     AUC  825  23.108   9.236   7.258
    3AU    AUSL  826  23.385   9.613   8.280
    3AU    AUSL  827  23.162   9.218   8.213
    3AU     AUL  828  23.480   9.277   8.389
    3AU    AUSL  829  22.979   9.542   8.417
    3AU    AUSL  830  22.728   9.925   8.405
    3AU     AUL  831  22.967   9.849   8.684
    3AU    AUSL  832  23.072   9.903   8.173
    3AU    AUSL  833  23.514   9.966   8.084
    3AU     AUL  834  23.361   9.928   8.429
    3AU    AUSL  835  23.320   9.710   6.858
    3AU    AUSL  836  23.171  10.102   6.941
    3AU     AUL  837  23.397  10.039   6.660
    3AU    AUSL  838  23.149   9.422   6.599
    3AU    AUSL  839  23.631   9.456   6.972
    3AU     AUL  840  23.526   9.580   6.630
    3AU    AUSL  841  22.948   9.832   6.689
    3AU    AUSL  842  22.779   9.432   6.798
    3AU     AUL  843  22.875   9.485   6.467
    3AU    AUSL  844  22.344   9.866   8.200
    3AU    AUSL  845  22.663  10.190   8.084
    3AU     AUL  846  22.496  10.161   8.412
    3AU    AUSL  847  22.644   9.570   8.171
    3AU    AUSL  848  22.236   9.436   8.138
    3AU     AUL  849  22.157   9.656   8.277
    3AU    AUSL  850  22.353   9.421   6.808
    3AU    AUSL  851  22.593   9.107   6.990
    3AU     AUL  852  22.634   9.124   6.655
    3AU    AUSL  853  22.529   9.773   6.649
    3AU    AUSL  854  22.230   9.779   7.013
    3AU     AUL  855  22.116   9.603   6.759
    3AU    AUSL  856  23.666  10.159   7.475
    3AU    AUSL  857  23.571   9.964   7.079
    3AU     AUL  858  23.910  10.141   7.116
    3AU    AUSL  859  23.829   9.770   7.360
    3AU    AUSL  860  23.798   9.474   7.732
    3AU     AUL  861  24.098   9.543   7.525
    3AU    AUSL  862  23.556   9.810   7.698
    3AU    AUSL  863  23.366  10.215   7.759
    3AU     AUL  864  23.744  10.004   7.842
    3AU    AUSL  865  22.288  10.284   7.465
    3AU    AUSL  866  22.333  10.072   7.835
    3AU     AUL  867  22.005  10.306   7.667
    3AU    AUSL  868  22.130   9.884   7.404
    3AU    AUSL  869  22.253  10.201   7.059
    3AU     AUL  870  22.001  10.114   7.208
    3AU    AUSL  871  21.977   9.869   7.817
    3AU    AUSL  872  21.961   9.503   7.400
    3AU     AUL  873  21.776   9.838   7.519
    3AU    AUSL  874  23.573   9.126   7.600
    3AU    AUSL  875  23.421   9.406   7.917
    3AU     AUL  876  23.730   9.314   7.980
    3AU    AUSL  877  23.534   9.480   7.375
    3AU    AUSL  878  23.533   9.076   7.178
    3AU     AUL  879  23.793   9.292   7.256
    3AU    AUSL  880  22.153   9.147   7.594
    3AU    AUSL  881  22.300   9.344   7.213
    3AU     AUL  882  21.929   9.215   7.286
    3AU    AUSL  883  22.225   9.546   7.736
    3AU    AUSL  884  22.466   9.187   7.878
    3AU     AUL  885  22.154   9.163   7.931
    3AU    AUSL  886  22.930  10.464   7.905
    3AU    AUSL  887  22.488  10.472   7.796
    3AU     AUL  888  22.689  10.528   8.169
    3AU    AUSL  889  22.774  10.361   7.520
    3AU    AUSL  890  23.006  10.492   7.174
    3AU     AUL  891  22.740  10.713   7.453
    3AU    AUSL  892  23.180  10.537   7.561
    3AU    AUSL  893  23.220  10.290   8.153
    3AU     AUL  894  23.301  10.546   7.904
    3AU    AUSL  895  22.856   9.026   7.983
    3AU    AUSL  896  23.272   9.003   7.862
    3AU     AUL  897  23.035   8.921   8.242
    3AU    AUSL  898  22.561   8.815   7.721
    3AU    AUSL  899  22.620   9.179   8.291
    3AU     AUL  900  22.540   8.876   8.068
    3AU    AUSL  901  22.992   8.751   7.681
    3AU    AUSL  902  22.766   8.961   7.377
    3AU     AUL  903  22.672   8.600   7.486
    3AU    AUSL  904  22.839  10.308   6.797
    3AU    AUSL  905  23.384  10.331   7.223
    3AU     AUL  906  23.157  10.425   6.855
    3AU    AUSL  907  22.593  10.419   7.145
    3AU    AUSL  908  22.618  10.003   6.977
    3AU     AUL  909  22.518  10.270   6.774
    3AU    AUSL  910  22.974   8.923   6.998
    3AU    AUSL  911  22.360   8.921   7.305
    3AU     AUL  912  22.641   8.769   7.054
    3AU    AUSL  913  23.190   8.970   7.382
    3AU    AUSL  914  23.206   9.275   6.985
    3AU     AUL  915  23.296   8.907   6.991
    3AU       S  916  23.486   8.825   8.260
    3AU     LIG  917  23.610   8.406   8.329
    3AU     LIG  918  23.688   8.005   8.546
    3AU     LIG  919  24.123   7.880   8.689
    3AU       S  920  23.338   9.549   8.734
    3AU     LIG  921  23.728   9.743   8.751
    3AU     LIG  922  23.931   9.667   9.168
    3AU     LIG  923  23.841   9.478   9.600
    3AU       S  924  23.002   9.375   8.633
    3AU     LIG  925  23.022   9.389   9.107
    3AU     LIG  926  23.344   9.274   9.462
    3AU     LIG  927  23.636   9.023   9.762
    3AU       S  928  22.528   9.716   8.626
    3AU     LIG  929  22.591   9.713   9.080
    3AU     LIG  930  22.213   9.642   9.325
    3AU     LIG  931  21.895   9.615   9.667
    3AU       S  932  22.967  10.303   8.529
    3AU     LIG  933  23.226  10.629   8.654
    3AU     LIG  934  23.611  10.437   8.806
    3AU     LIG  935  23.910  10.168   9.018
    3AU       S  936  23.688  10.233   8.243
    3AU     LIG  937  23.945  10.176   8.499
    3AU     LIG  938  24.106  10.527   8.673
    3AU     LIG  939  24.473  10.700   8.858
    3AU       S  940  23.221   9.821   6.304
    3AU     LIG  941  23.665   9.894   6.237
    3AU     LIG  942  23.750   9.471   6.142
    3AU     LIG  943  23.653   9.112   5.849
    3AU       S  944  23.599  10.492   6.824
    3AU     LIG  945  23.578  10.867   6.591
    3AU     LIG  946  23.776  10.860   6.189
    3AU     LIG  947  24.091  10.883   5.873
    3AU       S  948  23.799   9.216   6.771
    3AU     LIG  949  23.879   9.020   6.340
    3AU     LIG  950  23.800   8.645   6.106
    3AU     LIG  951  23.867   8.182   6.176
    3AU       S  952  23.244   9.645   6.256
    3AU     LIG  953  23.206   9.257   6.092
    3AU     LIG  954  23.176   9.162   5.629
    3AU     LIG  955  23.483   9.268   5.287
    3AU       S  956  22.444   9.426   6.333
    3AU     LIG  957  22.486   9.453   5.911
    3AU     LIG  958  22.641   9.316   5.517
    3AU     LIG  959  22.531   9.403   5.091
    3AU       S  960  22.982   9.946   6.443
    3AU     LIG  961  22.762   9.845   6.079
    3AU     LIG  962  22.976   9.624   5.779
    3AU     LIG  963  23.435   9.595   5.747
    3AU       S  964  22.318   9.819   8.676
    3AU     LIG  965  21.969   9.620   8.726
    3AU     LIG  966  22.042   9.299   8.959
    3AU     LIG  967  21.987   9.167   9.377
    3AU       S  968  22.220  10.453   8.163
    3AU     LIG  969  22.224  10.577   8.556
    3AU     LIG  970  21.877  10.601   8.837
    3AU     LIG  971  21.626  10.875   9.128
    3AU       S  972  22.155   9.212   8.431
    3AU     LIG  973  21.757   9.315   8.322
    3AU     LIG  974  21.396   9.056   8.295
    3AU     LIG  975  21.204   8.672   8.497
    3AU       S  976  22.512   9.544   8.572
    3AU     LIG  977  22.562   9.249   8.902
    3AU     LIG  978  22.501   9.213   9.333
    3AU     LIG  979  22.342   9.358   9.751
    3AU       S  980  22.290   9.351   6.423
    3AU     LIG  981  22.056   9.171   6.080
    3AU     LIG  982  22.137   9.196   5.623
    3AU     LIG  983  22.157   9.576   5.383
    3AU       S  984  22.249   8.941   6.844
    3AU     LIG  985  22.244   8.842   6.436
    3AU     LIG  986  21.865   8.680   6.276
    3AU     LIG  987  21.479   8.457   6.176
    3AU       S  988  21.937  10.023   6.726
    3AU     LIG  989  21.637  10.333   6.735
    3AU     LIG  990  21.671  10.736   6.519
    3AU     LIG  991  21.640  10.822   6.064
    3AU       S  992  22.460   9.721   6.444
    3AU     LIG  993  22.214   9.854   6.148
    3AU     LIG  994  22.347   9.920   5.723
    3AU     LIG  995  22.650   9.821   5.397
    3AU       S  996  23.656  10.373   6.829
    3AU     LIG  997  23.930  10.208   6.559
    3AU     LIG  998  24.089  10.426   6.187
    3AU     LIG  999  24.453  10.519   5.906
    3AU       S 1000  23.846  10.349   7.539
    3AU     LIG 1001  24.166  10.639   7.613
    3AU     LIG 1002  24.573  10.495   7.493
    3AU     LIG 1003  24.993  10.642   7.497
    3AU       S 1004  24.115  10.006   7.512
    3AU     LIG 1005  24.565   9.951   7.510
    3AU     LIG 1006  24.941  10.122   7.339
    3AU     LIG 1007  25.096  10.429   7.037
    3AU       S 1008  24.047   9.104   7.720
    3AU     LIG 1009  24.355   9.017   7.999
    3AU     LIG 1010  24.779   8.942   7.876
    3AU     LIG 1011  24.909   8.793   7.466
    3AU       S 1012  23.727  10.430   8.030
    3AU     LIG 1013  24.100  10.695   8.155
    3AU     LIG 1014  24.170  11.008   8.522
    3AU     LIG 1015  24.224  11.113   9.007
    3AU       S 1016  24.108  10.141   7.620
    3AU     LIG 1017  24.394  10.263   7.919
    3AU     LIG 1018  24.860  10.305   7.884
    3AU     LIG 1019  25.187  10.646   7.963
    3AU       S 1020  22.154  10.275   8.100
    3AU     LIG 1021  21.959  10.120   8.453
    3AU     LIG 1022  21.553  10.298   8.526
    3AU     LIG 1023  21.367  10.690   8.673
    3AU       S 1024  22.212  10.607   7.361
    3AU     LIG 1025  22.039  10.987   7.430
    3AU     LIG 1026  21.756  11.148   7.192
    3AU     LIG 1027  21.678  10.741   7.033
    3AU       S 1028  21.747   9.732   7.061
    3AU     LIG 1029  21.318   9.739   6.989
    3AU     LIG 1030  21.007  10.042   7.074
    3AU     LIG 1031  21.177  10.458   7.191
    3AU       S 1032  22.104  10.450   6.884
    3AU     LIG 1033  22.136  10.882   6.842
    3AU     LIG 1034  21.861  11.190   6.693
    3AU     LIG 1035  21.810  11.276   6.262
    3AU       S 1036  21.751   9.404   7.690
    3AU     LIG 1037  21.419   9.409   7.389
    3AU     LIG 1038  20.955   9.485   7.245
    3AU     LIG 1039  20.498   9.372   7.078
    3AU       S 1040  21.859   9.907   7.992
    3AU     LIG 1041  21.565   9.826   8.267
    3AU     LIG 1042  21.220  10.071   8.112
    3AU     LIG 1043  21.248  10.357   7.726
    3AU       S 1044  23.741   8.955   7.610
    3AU     LIG 1045  23.844   8.517   7.475
    3AU     LIG 1046  24.186   8.309   7.673
    3AU     LIG 1047  24.423   8.674   7.623
    3AU       S 1048  23.647   8.892   8.111
    3AU     LIG 1049  23.965   8.653   7.960
    3AU     LIG 1050  24.349   8.489   8.138
    3AU     LIG 1051  24.231   8.389   8.587
    3AU       S 1052  24.021   9.039   7.554
    3AU     LIG 1053  24.145   8.860   7.207
    3AU     LIG 1054  24.569   8.816   7.073
    3AU     LIG 1055  24.918   8.564   6.966
    3AU       S 1056  23.750   8.977   6.896
    3AU     LIG 1057  23.744   8.630   6.664
    3AU     LIG 1058  23.783   8.225   6.740
    3AU     LIG 1059  23.565   7.937   6.549
    3AU       S 1060  22.111   9.042   6.904
    3AU     LIG 1061  21.826   9.115   6.590
    3AU     LIG 1062  21.423   8.910   6.460
    3AU     LIG 1063  21.068   8.585   6.524
    3AU       S 1064  21.744   9.188   7.730
    3AU     LIG 1065  21.400   8.999   7.727
    3AU     LIG 1066  21.287   8.903   7.302
    3AU     LIG 1067  21.125   8.572   7.038
    3AU       S 1068  22.176   8.980   8.346
    3AU     LIG 1069  21.816   8.833   8.093
    3AU     LIG 1070  21.438   8.569   8.040
    3AU     LIG 1071  21.187   8.215   8.223
    3AU       S 1072  21.794   9.438   7.850
    3AU     LIG 1073  21.343   9.477   7.965
    3AU     LIG 1074  20.926   9.332   7.968
    3AU     LIG 1075  20.675   9.311   7.620
    3AU       S 1076  22.376  10.624   7.823
    3AU     LIG 1077  21.983  10.799   7.901
    3AU     LIG 1078  21.805  10.760   8.319
    3AU     LIG 1079  21.740  11.059   8.654
    3AU       S 1080  22.915  10.812   7.883
    3AU     LIG 1081  23.190  10.993   8.205
    3AU     LIG 1082  23.051  11.393   8.446
    3AU     LIG 1083  22.608  11.612   8.446
    3AU       S 1084  22.896  11.008   7.793
    3AU     LIG 1085  22.790  11.318   8.027
    3AU     LIG 1086  22.609  11.684   7.941
    3AU     LIG 1087  22.542  12.120   8.019
    3AU       S 1088  22.906  10.779   7.019
    3AU     LIG 1089  22.986  11.110   7.237
    3AU     LIG 1090  23.094  11.498   7.238
    3AU     LIG 1091  23.077  11.604   6.831
    3AU       S 1092  23.481  10.393   8.309
    3AU     LIG 1093  23.664  10.781   8.415
    3AU     LIG 1094  23.776  10.917   8.832
    3AU     LIG 1095  23.996  10.671   9.158
    3AU       S 1096  23.144  10.883   7.632
    3AU     LIG 1097  23.255  11.318   7.684
    3AU     LIG 1098  23.221  11.620   8.000
    3AU     LIG 1099  22.989  11.930   8.206
    3AU       S 1100  22.873   8.518   8.078
    3AU     LIG 1101  23.202   8.139   8.113
    3AU     LIG 1102  23.323   7.692   8.280
    3AU     LIG 1103  23.200   7.228   8.358
    3AU       S 1104  23.415   8.853   7.965
    3AU     LIG 1105  23.477   8.473   7.821
    3AU     LIG 1106  23.737   8.149   7.917
    3AU     LIG 1107  24.052   8.085   8.213
    3AU       S 1108  22.670   8.448   7.925
    3AU     LIG 1109  22.700   8.007   8.041
    3AU     LIG 1110  22.822   7.591   8.197
    3AU     LIG 1111  22.650   7.193   8.335
    3AU       S 1112  22.425   9.086   8.472
    3AU     LIG 1113  22.193   8.848   8.810
    3AU     LIG 1114  21.766   8.737   8.625
    3AU     LIG 1115  21.549   8.315   8.599
    3AU       S 1116  23.075   8.524   7.277
    3AU     LIG 1117  22.784   8.140   7.164
    3AU     LIG 1118  22.730   7.767   6.895
    3AU     LIG 1119  22.887   7.313   6.899
    3AU       S 1120  22.997   8.573   7.846
    3AU     LIG 1121  23.022   8.184   7.634
    3AU     LIG 1122  23.000   7.733   7.727
    3AU     LIG 1123  23.185   7.338   7.862
    3AU       S 1124  22.757  10.679   6.753
    3AU     LIG 1125  22.740  11.112   6.701
    3AU     LIG 1126  23.105  11.225   6.502
    3AU     LIG 1127  23.147  11.610   6.314
    3AU       S 1128  23.547  10.480   7.130
    3AU     LIG 1129  23.973  10.640   7.109
    3AU     LIG 1130  24.068  10.711   6.665
    3AU     LIG 1131  24.330  10.866   6.326
    3AU       S 1132  22.572  10.684   7.008
    3AU     LIG 1133  22.481  11.081   7.175
    3AU     LIG 1134  22.592  11.504   6.999
    3AU     LIG 1135  22.655  11.626   6.537
    3AU       S 1136  22.141  10.074   6.624
    3AU     LIG 1137  22.060  10.420   6.376
    3AU     LIG 1138  22.123  10.865   6.308
    3AU     LIG 1139  22.305  11.261   6.450
    3AU       S 1140  22.177   8.850   7.130
    3AU     LIG 1141  21.739   8.746   7.041
    3AU     LIG 1142  21.564   8.487   6.707
    3AU     LIG 1143  21.358   8.106   6.538
    3AU       S 1144  23.051   8.551   7.138
    3AU     LIG 1145  23.218   8.413   6.759
    3AU     LIG 1146  23.061   8.041   6.479
    3AU     LIG 1147  22.903   7.595   6.444
    3AU       S 1148  23.336   8.647   7.379
    3AU     LIG 1149  23.490   8.267   7.173
    3AU     LIG 1150  23.229   7.931   6.939
    3AU     LIG 1151  23.351   7.516   6.738
    3AU       S 1152  23.521   9.112   6.658
    3AU     LIG 1153  23.330   8.819   6.425
    3AU     LIG 1154  23.409   8.375   6.293
    3AU     LIG 1155  23.411   7.956   6.062
    4AU     AUC 1156  13.551  23.210   7.533
    4AU     AUC 1157  13.812  23.211   7.373
    4AU     AUC 1158  13.788  23.208   7.709
    4AU     AUC 1159  13.285  23.202   7.368
    4AU     AUC 1160  13.294  23.250   7.695
    4AU     AUC 1161  13.391  23.468   7.495
    4AU     AUC 1162  13.733  23.478   7.511
    4AU     AUC 1163  13.377  22.950   7.550
    4AU     AUC 1164  13.709  22.938   7.557
    4AU     AUC 1165  13.538  23.063   7.810
    4AU     AUC 1166  13.552  23.406   7.778
    4AU     AUC 1167  13.558  23.024   7.281
    4AU     AUC 1168  13.571  23.338   7.261
    4AU     AUC 1169  14.131  23.211   7.223
    4AU     AUC 1170  14.111  23.188   7.562
    4AU     AUC 1171  14.065  23.185   7.918
    4AU     AUC 1172  12.989  23.164   7.219
    4AU     AUC 1173  12.977  23.242   7.544
    4AU     AUC 1174  12.995  23.299   7.867
    4AU     AUC 1175  13.228  23.768   7.434
    4AU     AUC 1176  13.589  23.761   7.433
    4AU     AUC 1177  13.927  23.751   7.478
    4AU     AUC 1178  13.186  22.664   7.564
    4AU     AUC 1179  13.533  22.645   7.557
    4AU     AUC 1180  13.884  22.644   7.575
    4AU     AUC 1181  13.500  22.906   8.113
    4AU     AUC 1182  13.524  23.259   8.097
    4AU     AUC 1183  13.579  23.617   8.057
    4AU     AUC 1184  13.602  22.835   7.005
    4AU     AUC 1185  13.552  23.164   6.956
    4AU     AUC 1186  13.542  23.484   6.947
    4AU     AUC 1187  13.774  23.028   8.027
    4AU     AUC 1188  13.830  23.388   7.999
    4AU     AUC 1189  13.869  23.043   7.082
    4AU     AUC 1190  13.837  23.361   7.088
    4AU     AUC 1191  13.241  23.124   8.003
    4AU     AUC 1192  13.283  23.477   7.956
    4AU     AUC 1193  13.284  22.983   7.104
    4AU     AUC 1194  13.245  23.295   7.060
    4AU     AUC 1195  14.050  23.479   7.356
    4AU     AUC 1196  13.994  23.474   7.705
    4AU     AUC 1197  13.091  23.478   7.348
    4AU     AUC 1198  13.123  23.562   7.677
    4AU     AUC 1199  14.016  22.927   7.410
    4AU     AUC 1200  13.958  22.895   7.758
    4AU     AUC 1201  13.090  22.896   7.392
    4AU     AUC 1202  13.103  22.980   7.726
    4AU     AUC 1203  13.432  23.712   7.755
    4AU     AUC 1204  13.762  23.684   7.783
    4AU     AUC 1205  13.348  22.783   7.837
    4AU     AUC 1206  13.662  22.736   7.834
    4AU     AUC 1207  13.372  23.625   7.185
    4AU     AUC 1208  13.732  23.653   7.208
    4AU     AUC 1209  13.403  22.731   7.274
    4AU     AUC 1210  13.772  22.770   7.283
    4AU    AUSL 1211  14.023  23.131   8.318
    4AU    AUSL 1212  13.784  22.747   8.237
    4AU     AUL 1213  14.092  22.785   8.426
    4AU    AUSL 1214  13.611  23.077   8.440
    4AU    AUSL 1215  13.374  23.465   8.418
    4AU     AUL 1216  13.606  23.389   8.705
    4AU    AUSL 1217  13.725  23.434   8.197
    4AU    AUSL 1218  14.174  23.474   8.122
    4AU     AUL 1219  14.006  23.446   8.462
    4AU    AUSL 1220  14.001  23.237   6.894
    4AU    AUSL 1221  13.860  23.633   6.972
    4AU     AUL 1222  14.074  23.570   6.692
    4AU    AUSL 1223  13.836  22.952   6.627
    4AU    AUSL 1224  14.310  22.984   7.021
    4AU     AUL 1225  14.212  23.108   6.681
    4AU    AUSL 1226  13.643  23.372   6.705
    4AU    AUSL 1227  13.460  22.980   6.812
    4AU     AUL 1228  13.569  23.029   6.484
    4AU    AUSL 1229  12.995  23.418   8.204
    4AU    AUSL 1230  13.322  23.730   8.094
    4AU     AUL 1231  13.150  23.715   8.413
    4AU    AUSL 1232  13.284  23.109   8.184
    4AU    AUSL 1233  12.869  23.000   8.122
    4AU     AUL 1234  12.813  23.211   8.290
    4AU    AUSL 1235  13.032  22.975   6.807
    4AU    AUSL 1236  13.268  22.650   6.987
    4AU     AUL 1237  13.329  22.667   6.659
    4AU    AUSL 1238  13.222  23.326   6.657
    4AU    AUSL 1239  12.918  23.337   7.015
    4AU     AUL 1240  12.806  23.190   6.751
    4AU    AUSL 1241  14.341  23.675   7.509
    4AU    AUSL 1242  14.261  23.491   7.105
    4AU     AUL 1243  14.609  23.655   7.175
    4AU    AUSL 1244  14.495  23.286   7.400
    4AU    AUSL 1245  14.445  22.991   7.787
    4AU     AUL 1246  14.735  23.102   7.603
    4AU    AUSL 1247  14.214  23.332   7.732
    4AU    AUSL 1248  14.050  23.738   7.800
    4AU     AUL 1249  14.422  23.491   7.867
    4AU    AUSL 1250  12.970  23.837   7.468
    4AU    AUSL 1251  12.994  23.619   7.836
    4AU     AUL 1252  12.677  23.854   7.663
    4AU    AUSL 1253  12.799  23.444   7.402
    4AU    AUSL 1254  12.949  23.758   7.060
    4AU     AUL 1255  12.690  23.680   7.203
    4AU    AUSL 1256  12.637  23.417   7.817
    4AU    AUSL 1257  12.633  23.062   7.365
    4AU     AUL 1258  12.451  23.399   7.508
    4AU    AUSL 1259  14.222  22.645   7.645
    4AU    AUSL 1260  14.060  22.930   7.953
    4AU     AUL 1261  14.366  22.822   8.029
    4AU    AUSL 1262  14.196  23.000   7.419
    4AU    AUSL 1263  14.196  22.601   7.220
    4AU     AUL 1264  14.455  22.815   7.314
    4AU    AUSL 1265  12.803  22.698   7.571
    4AU    AUSL 1266  12.982  22.895   7.209
    4AU     AUL 1267  12.614  22.788   7.228
    4AU    AUSL 1268  12.877  23.096   7.716
    4AU    AUSL 1269  13.095  22.732   7.876
    4AU     AUL 1270  12.779  22.736   7.920
    4AU    AUSL 1271  13.609  23.994   7.931
    4AU    AUSL 1272  13.160  24.016   7.807
    4AU     AUL 1273  13.356  24.082   8.164
    4AU    AUSL 1274  13.456  23.898   7.543
    4AU    AUSL 1275  13.703  24.026   7.206
    4AU     AUL 1276  13.434  24.245   7.488
    4AU    AUSL 1277  13.871  24.055   7.593
    4AU    AUSL 1278  13.891  23.815   8.186
    4AU     AUL 1279  13.976  24.078   7.941
    4AU    AUSL 1280  13.480  22.567   7.995
    4AU    AUSL 1281  13.902  22.534   7.889
    4AU     AUL 1282  13.648  22.460   8.263
    4AU    AUSL 1283  13.192  22.361   7.717
    4AU    AUSL 1284  13.230  22.718   8.294
    4AU     AUL 1285  13.156  22.418   8.060
    4AU    AUSL 1286  13.622  22.289   7.699
    4AU    AUSL 1287  13.419  22.504   7.384
    4AU     AUL 1288  13.313  22.141   7.489
    4AU    AUSL 1289  13.547  23.859   6.818
    4AU    AUSL 1290  14.084  23.867   7.245
    4AU     AUL 1291  13.868  23.978   6.897
    4AU    AUSL 1292  13.291  23.968   7.161
    4AU    AUSL 1293  13.313  23.555   6.986
    4AU     AUL 1294  13.230  23.830   6.787
    4AU    AUSL 1295  13.644  22.457   7.018
    4AU    AUSL 1296  13.017  22.467   7.291
    4AU     AUL 1297  13.306  22.311   7.055
    4AU    AUSL 1298  13.843  22.504   7.413
    4AU    AUSL 1299  13.882  22.805   7.015
    4AU     AUL 1300  13.967  22.433   7.033
    4AU       S 1301  14.087  22.328   8.293
    4AU     LIG 1302  14.328  21.949   8.393
    4AU     LIG 1303  14.427  21.502   8.440
    4AU     LIG 1304  14.817  21.288   8.594
    4AU       S 1305  13.963  23.072   8.764
    4AU     LIG 1306  14.374  23.160   8.734
    4AU     LIG 1307  14.584  23.212   9.151
    4AU     LIG 1308  14.661  23.135   9.623
    4AU       S 1309  13.627  22.914   8.652
    4AU     LIG 1310  13.653  22.903   9.112
    4AU     LIG 1311  14.080  22.898   9.347
    4AU     LIG 1312  14.364  22.709   9.690
    4AU       S 1313  13.167  23.267   8.636
    4AU     LIG 1314  13.222  23.224   9.088
    4AU     LIG 1315  12.847  23.160   9.340
    4AU     LIG 1316  12.557  23.168   9.715
    4AU       S 1317  13.614  23.843   8.542
    4AU     LIG 1318  13.843  24.230   8.517
    4AU     LIG 1319  14.203  24.107   8.796
    4AU     LIG 1320  14.363  23.676   8.796
    4AU       S 1321  14.360  23.706   8.275
    4AU     LIG 1322  14.722  23.770   8.435
    4AU     LIG 1323  14.725  24.130   8.678
    4AU     LIG 1324  14.979  24.480   8.823
    4AU       S 1325  13.936  23.334   6.331
    4AU     LIG 1326  14.392  23.414   6.307
    4AU     LIG 1327  14.601  23.148   6.009
    4AU     LIG 1328  14.397  22.767   5.825
    4AU       S 1329  14.315  23.953   6.843
    4AU     LIG 1330  14.158  24.028   6.431
    4AU     LIG 1331  14.437  24.243   6.123
    4AU     LIG 1332  14.755  24.592   6.072
    4AU       S 1333  14.487  22.753   6.832
    4AU     LIG 1334  14.458  22.797   6.345
    4AU     LIG 1335  14.325  22.385   6.187
    4AU     LIG 1336  14.511  21.941   6.182
    4AU       S 1337  13.961  23.155   6.286
    4AU     LIG 1338  13.931  22.758   6.126
    4AU     LIG 1339  13.910  22.658   5.667
    4AU     LIG 1340  14.141  22.842   5.293
    4AU       S 1341  13.139  22.977   6.339
    4AU     LIG 1342  13.397  22.832   6.022
    4AU     LIG 1343  13.374  22.956   5.576
    4AU     LIG 1344  13.168  23.140   5.190
    4AU       S 1345  13.679  23.483   6.444
    4AU     LIG 1346  13.495  23.326   6.063
    4AU     LIG 1347  13.796  23.147   5.794
    4AU     LIG 1348  14.222  23.217   5.654
    4AU       S 1349  12.964  23.385   8.689
    4AU     LIG 1350  12.654  23.128   8.758
    4AU     LIG 1351  12.655  22.799   8.999
    4AU     LIG 1352  12.566  22.718   9.441
    4AU       S 1353  12.875  23.995   8.160
    4AU     LIG 1354  12.770  24.107   8.552
    4AU     LIG 1355  12.416  24.072   8.832
    4AU     LIG 1356  12.254  24.294   9.211
    4AU       S 1357  12.764  22.764   8.415
    4AU     LIG 1358  12.379  22.807   8.240
    4AU     LIG 1359  12.197  22.415   8.312
    4AU     LIG 1360  11.934  22.184   8.593
    4AU       S 1361  13.151  23.085   8.587
    4AU     LIG 1362  13.187  22.769   8.884
    4AU     LIG 1363  13.072  22.690   9.295
    4AU     LIG 1364  12.992  22.834   9.724
    4AU       S 1365  12.971  22.882   6.459
    4AU     LIG 1366  12.756  22.722   6.143
    4AU     LIG 1367  12.914  23.014   5.830
    4AU     LIG 1368  12.721  23.210   5.473
    4AU       S 1369  12.930  22.488   6.821
    4AU     LIG 1370  12.896  22.134   6.596
    4AU     LIG 1371  12.671  22.105   6.214
    4AU     LIG 1372  12.238  22.080   6.055
    4AU       S 1373  12.626  23.612   6.721
    4AU     LIG 1374  12.335  23.947   6.864
    4AU     LIG 1375  12.276  24.352   6.646
    4AU     LIG 1376  12.002  24.486   6.289
    4AU       S 1377  13.153  23.261   6.427
    4AU     LIG 1378  12.757  23.315   6.248
    4AU     LIG 1379  12.793  23.535   5.866
    4AU     LIG 1380  13.164  23.463   5.600
    4AU       S 1381  14.396  23.860   6.842
    4AU     LIG 1382  14.646  23.858   6.461
    4AU     LIG 1383  14.928  24.093   6.182
    4AU     LIG 1384  15.203  24.367   5.946
    4AU       S 1385  14.494  23.872   7.585
    4AU     LIG 1386  14.789  24.089   7.335
    4AU     LIG 1387  15.215  23.966   7.455
    4AU     LIG 1388  15.421  24.139   7.813
    4AU       S 1389  14.807  23.567   7.584
    4AU     LIG 1390  15.130  23.481   7.259
    4AU     LIG 1391  15.581  23.537   7.076
    4AU     LIG 1392  16.005  23.789   7.037
    4AU       S 1393  14.703  22.653   7.761
    4AU     LIG 1394  15.025  22.517   8.031
    4AU     LIG 1395  15.423  22.305   8.032
    4AU     LIG 1396  15.752  22.353   7.743
    4AU       S 1397  14.388  23.915   8.068
    4AU     LIG 1398  14.757  24.187   8.130
    4AU     LIG 1399  14.796  24.621   8.358
    4AU     LIG 1400  14.762  24.939   8.749
    4AU       S 1401  14.747  23.762   7.720
    4AU     LIG 1402  15.116  23.747   7.957
    4AU     LIG 1403  15.573  23.652   7.893
    4AU     LIG 1404  16.015  23.771   7.956
    4AU       S 1405  12.785  23.815   8.108
    4AU     LIG 1406  12.399  23.831   8.331
    4AU     LIG 1407  12.002  23.968   8.538
    4AU     LIG 1408  11.881  24.023   8.984
    4AU       S 1409  12.918  24.156   7.379
    4AU     LIG 1410  12.618  24.351   7.512
    4AU     LIG 1411  12.365  24.371   7.182
    4AU     LIG 1412  11.959  24.419   7.037
    4AU       S 1413  12.424  23.319   7.043
    4AU     LIG 1414  12.101  23.085   6.873
    4AU     LIG 1415  11.677  23.251   6.943
    4AU     LIG 1416  11.506  23.506   7.287
    4AU       S 1417  12.823  24.023   6.897
    4AU     LIG 1418  12.795  24.472   6.887
    4AU     LIG 1419  12.556  24.791   6.655
    4AU     LIG 1420  12.356  24.899   6.262
    4AU       S 1421  12.400  22.948   7.630
    4AU     LIG 1422  12.062  22.976   7.380
    4AU     LIG 1423  11.611  22.953   7.341
    4AU     LIG 1424  11.255  22.826   7.093
    4AU       S 1425  12.502  23.424   7.995
    4AU     LIG 1426  12.097  23.543   8.048
    4AU     LIG 1427  11.995  23.968   8.012
    4AU     LIG 1428  12.194  24.285   7.807
    4AU       S 1429  14.385  22.474   7.662
    4AU     LIG 1430  14.583  22.063   7.571
    4AU     LIG 1431  15.011  22.078   7.735
    4AU     LIG 1432  15.262  22.449   7.567
    4AU       S 1433  14.253  22.405   8.157
    4AU     LIG 1434  14.608  22.227   8.054
    4AU     LIG 1435  14.888  22.148   8.383
    4AU     LIG 1436  14.786  21.815   8.699
    4AU       S 1437  14.676  22.560   7.611
    4AU     LIG 1438  14.875  22.562   7.224
    4AU     LIG 1439  15.295  22.619   7.063
    4AU     LIG 1440  15.685  22.470   7.240
    4AU       S 1441  14.425  22.500   6.951
    4AU     LIG 1442  14.328  22.152   6.692
    4AU     LIG 1443  14.342  21.717   6.626
    4AU     LIG 1444  14.399  21.366   6.311
    4AU       S 1445  12.803  22.578   6.873
    4AU     LIG 1446  12.505  22.756   6.669
    4AU     LIG 1447  12.270  22.428   6.452
    4AU     LIG 1448  11.893  22.142   6.436
    4AU       S 1449  12.410  22.697   7.647
    4AU     LIG 1450  12.078  22.538   7.830
    4AU     LIG 1451  11.729  22.503   7.573
    4AU     LIG 1452  11.655  22.451   7.113
    4AU       S 1453  12.780  22.516   8.317
    4AU     LIG 1454  12.562  22.289   7.954
    4AU     LIG 1455  12.195  22.001   8.009
    4AU     LIG 1456  12.136  21.735   8.396
    4AU       S 1457  12.421  22.987   7.785
    4AU     LIG 1458  12.005  23.050   7.926
    4AU     LIG 1459  11.564  23.106   7.820
    4AU     LIG 1460  11.299  22.749   7.705
    4AU       S 1461  13.003  24.188   7.859
    4AU     LIG 1462  12.649  24.425   8.027
    4AU     LIG 1463  12.315  24.343   8.336
    4AU     LIG 1464  12.081  24.451   8.737
    4AU       S 1465  13.625  24.377   7.898
    4AU     LIG 1466  13.970  24.594   8.104
    4AU     LIG 1467  13.868  24.940   8.378
    4AU     LIG 1468  13.541  25.224   8.548
    4AU       S 1469  13.635  24.608   7.729
    4AU     LIG 1470  13.215  24.654   7.981
    4AU     LIG 1471  13.230  25.101   8.102
    4AU     LIG 1472  13.618  25.250   7.912
    4AU       S 1473  13.615  24.344   7.065
    4AU     LIG 1474  13.625  24.804   7.239
    4AU     LIG 1475  13.723  25.262   7.116
    4AU     LIG 1476  13.993  25.415   6.752
    4AU       S 1477  14.168  23.903   8.339
    4AU     LIG 1478  14.328  24.333   8.353
    4AU     LIG 1479  14.438  24.552   8.716
    4AU     LIG 1480  14.561  24.456   9.137
    4AU       S 1481  13.878  24.380   7.582
    4AU     LIG 1482  14.075  24.807   7.603
    4AU     LIG 1483  14.100  25.084   7.949
    4AU     LIG 1484  14.053  25.423   8.269
    4AU       S 1485  13.478  22.065   8.091
    4AU     LIG 1486  13.849  21.817   8.211
    4AU     LIG 1487  13.902  21.358   8.330
    4AU     LIG 1488  13.877  20.875   8.378
    4AU       S 1489  14.033  22.375   7.996
    4AU     LIG 1490  14.162  22.006   7.855
    4AU     LIG 1491  14.467  21.723   7.962
    4AU     LIG 1492  14.840  21.693   8.204
    4AU       S 1493  13.299  21.985   7.929
    4AU     LIG 1494  13.456  21.533   8.020
    4AU     LIG 1495  13.414  21.121   8.251
    4AU     LIG 1496  13.092  20.805   8.390
    4AU       S 1497  13.018  22.648   8.448
    4AU     LIG 1498  12.838  22.376   8.781
    4AU     LIG 1499  12.456  22.129   8.682
    4AU     LIG 1500  12.165  21.852   8.916
    4AU       S 1501  13.732  22.061   7.302
    4AU     LIG 1502  13.469  21.674   7.223
    4AU     LIG 1503  13.455  21.324   6.931
    4AU     LIG 1504  13.137  21.057   6.691
    4AU       S 1505  13.623  22.115   7.861
    4AU     LIG 1506  13.751  21.768   7.683
    4AU     LIG 1507  14.003  21.470   7.842
    4AU     LIG 1508  13.789  21.076   7.901
    4AU       S 1509  13.480  24.237   6.782
    4AU     LIG 1510  13.336  24.670   6.765
    4AU     LIG 1511  13.508  25.083   6.692
    4AU     LIG 1512  13.510  25.510   6.511
    4AU       S 1513  14.269  24.023   7.156
    4AU     LIG 1514  14.508  24.380   6.987
    4AU     LIG 1515  14.730  24.387   6.575
    4AU     LIG 1516  15.140  24.572   6.430
    4AU       S 1517  13.281  24.234   7.034
    4AU     LIG 1518  13.159  24.590   7.242
    4AU     LIG 1519  13.144  25.026   7.084
    4AU     LIG 1520  13.265  25.437   6.969
    4AU       S 1521  12.851  23.656   6.617
    4AU     LIG 1522  12.640  24.033   6.425
    4AU     LIG 1523  12.616  24.456   6.241
    4AU     LIG 1524  12.749  24.804   5.934
    4AU       S 1525  12.838  22.385   7.114
    4AU     LIG 1526  12.461  22.208   6.914
    4AU     LIG 1527  12.344  21.909   6.582
    4AU     LIG 1528  12.463  21.637   6.231
    4AU       S 1529  13.703  22.091   7.172
    4AU     LIG 1530  13.868  21.951   6.811
    4AU     LIG 1531  13.843  21.559   6.595
    4AU     LIG 1532  13.459  21.367   6.414
    4AU       S 1533  13.986  22.185   7.429
    4AU     LIG 1534  14.226  21.960   7.179
    4AU     LIG 1535  14.076  21.545   7.068
    4AU     LIG 1536  14.269  21.248   6.788
    4AU       S 1537  14.203  22.639   6.710
    4AU     LIG 1538  13.894  22.404   6.526
    4AU     LIG 1539  13.997  21.987   6.313
    4AU     LIG 1540  14.117  21.658   5.996
    5AU     AUC 1541  39.621  43.597   7.527
    5AU     AUC 1542  39.882  43.603   7.365
    5AU     AUC 1543  39.861  43.602   7.701
    5AU     AUC 1544  39.354  43.584   7.364
    5AU     AUC 1545  39.365  43.633   7.690
    5AU     AUC 1546  39.454  43.852   7.488
    5AU     AUC 1547  39.795  43.869   7.501
    5AU     AUC 1548  39.454  43.336   7.547
    5AU     AUC 1549  39.787  43.330   7.550
    5AU     AUC 1550  39.614  43.451   7.804
    5AU     AUC 1551  39.618  43.794   7.769
    5AU     AUC 1552  39.630  43.411   7.277
    5AU     AUC 1553  39.636  43.724   7.254
    5AU     AUC 1554  40.201  43.611   7.213
    5AU     AUC 1555  40.184  43.592   7.552
    5AU     AUC 1556  40.139  43.589   7.907
    5AU     AUC 1557  39.057  43.537   7.216
    5AU     AUC 1558  39.047  43.617   7.542
    5AU     AUC 1559  39.066  43.677   7.865
    5AU     AUC 1560  39.285  44.149   7.424
    5AU     AUC 1561  39.644  44.149   7.420
    5AU     AUC 1562  39.981  44.146   7.467
    5AU     AUC 1563  39.270  43.046   7.565
    5AU     AUC 1564  39.617  43.033   7.554
    5AU     AUC 1565  39.969  43.039   7.566
    5AU     AUC 1566  39.584  43.294   8.107
    5AU     AUC 1567  39.596  43.647   8.091
    5AU     AUC 1568  39.640  44.007   8.049
    5AU     AUC 1569  39.676  43.222   7.001
    5AU     AUC 1570  39.619  43.550   6.951
    5AU     AUC 1571  39.602  43.867   6.940
    5AU     AUC 1572  39.854  43.422   8.018
    5AU     AUC 1573  39.894  43.781   7.992
    5AU     AUC 1574  39.940  43.436   7.073
    5AU     AUC 1575  39.902  43.752   7.081
    5AU     AUC 1576  39.318  43.509   8.001
    5AU     AUC 1577  39.349  43.862   7.950
    5AU     AUC 1578  39.356  43.364   7.101
    5AU     AUC 1579  39.309  43.673   7.056
    5AU     AUC 1580  40.114  43.879   7.351
    5AU     AUC 1581  40.054  43.870   7.696
    5AU     AUC 1582  39.153  43.854   7.343
    5AU     AUC 1583  39.187  43.942   7.671
    5AU     AUC 1584  40.093  43.325   7.398
    5AU     AUC 1585  40.041  43.295   7.745
    5AU     AUC 1586  39.165  43.275   7.393
    5AU     AUC 1587  39.181  43.360   7.726
    5AU     AUC 1588  39.492  44.100   7.745
    5AU     AUC 1589  39.815  44.076   7.772
    5AU     AUC 1590  39.434  43.168   7.836
    5AU     AUC 1591  39.747  43.127   7.828
    5AU     AUC 1592  39.430  44.006   7.176
    5AU     AUC 1593  39.790  44.042   7.198
    5AU     AUC 1594  39.481  43.116   7.272
    5AU     AUC 1595  39.849  43.163   7.277
    5AU    AUSL 1596  40.098  43.532   8.306
    5AU    AUSL 1597  39.871  43.145   8.225
    5AU     AUL 1598  40.177  43.183   8.411
    5AU    AUSL 1599  39.689  43.467   8.434
    5AU    AUSL 1600  39.442  43.853   8.414
    5AU     AUL 1601  39.670  43.767   8.706
    5AU    AUSL 1602  39.789  43.825   8.188
    5AU    AUSL 1603  40.232  43.886   8.117
    5AU     AUL 1604  40.061  43.845   8.454
    5AU    AUSL 1605  40.069  43.633   6.884
    5AU    AUSL 1606  39.917  44.023   6.966
    5AU     AUL 1607  40.135  43.961   6.684
    5AU    AUSL 1608  39.905  43.345   6.619
    5AU    AUSL 1609  40.379  43.380   7.003
    5AU     AUL 1610  40.276  43.502   6.658
    5AU    AUSL 1611  39.705  43.758   6.700
    5AU    AUSL 1612  39.530  43.362   6.809
    5AU     AUL 1613  39.636  43.412   6.482
    5AU    AUSL 1614  39.063  43.797   8.201
    5AU    AUSL 1615  39.385  44.116   8.089
    5AU     AUL 1616  39.213  44.095   8.415
    5AU    AUSL 1617  39.360  43.497   8.180
    5AU    AUSL 1618  38.951  43.372   8.125
    5AU     AUL 1619  38.876  43.587   8.284
    5AU    AUSL 1620  39.103  43.348   6.805
    5AU    AUSL 1621  39.345  43.029   6.987
    5AU     AUL 1622  39.401  43.046   6.659
    5AU    AUSL 1623  39.285  43.702   6.653
    5AU    AUSL 1624  38.980  43.708   7.010
    5AU     AUL 1625  38.869  43.554   6.746
    5AU    AUSL 1626  40.396  44.091   7.512
    5AU    AUSL 1627  40.321  43.892   7.102
    5AU     AUL 1628  40.649  44.101   7.193
    5AU    AUSL 1629  40.566  43.703   7.397
    5AU    AUSL 1630  40.527  43.402   7.768
    5AU     AUL 1631  40.827  43.473   7.555
    5AU    AUSL 1632  40.286  43.737   7.729
    5AU    AUSL 1633  40.088  44.135   7.790
    5AU     AUL 1634  40.457  43.943   7.885
    5AU    AUSL 1635  39.027  44.210   7.462
    5AU    AUSL 1636  39.061  43.996   7.831
    5AU     AUL 1637  38.736  44.226   7.655
    5AU    AUSL 1638  38.866  43.812   7.399
    5AU    AUSL 1639  39.003  44.129   7.055
    5AU     AUL 1640  38.746  44.042   7.199
    5AU    AUSL 1641  38.705  43.791   7.813
    5AU    AUSL 1642  38.704  43.428   7.371
    5AU     AUL 1643  38.519  43.761   7.506
    5AU    AUSL 1644  40.306  43.053   7.631
    5AU    AUSL 1645  40.144  43.331   7.942
    5AU     AUL 1646  40.452  43.246   8.020
    5AU    AUSL 1647  40.275  43.408   7.404
    5AU    AUSL 1648  40.275  43.001   7.208
    5AU     AUL 1649  40.530  43.217   7.286
    5AU    AUSL 1650  38.888  43.071   7.577
    5AU    AUSL 1651  39.054  43.269   7.208
    5AU     AUL 1652  38.689  43.146   7.243
    5AU    AUSL 1653  38.951  43.471   7.720
    5AU    AUSL 1654  39.185  43.115   7.878
    5AU     AUL 1655  38.864  43.103   7.918
    5AU    AUSL 1656  39.661  44.386   7.914
    5AU    AUSL 1657  39.217  44.397   7.798
    5AU     AUL 1658  39.409  44.460   8.161
    5AU    AUSL 1659  39.509  44.287   7.527
    5AU    AUSL 1660  39.753  44.408   7.187
    5AU     AUL 1661  39.481  44.637   7.467
    5AU    AUSL 1662  39.920  44.449   7.573
    5AU    AUSL 1663  39.937  44.214   8.179
    5AU     AUL 1664  40.031  44.469   7.918
    5AU    AUSL 1665  39.571  42.947   7.994
    5AU    AUSL 1666  39.993  42.932   7.879
    5AU     AUL 1667  39.752  42.852   8.258
    5AU    AUSL 1668  39.284  42.743   7.720
    5AU    AUSL 1669  39.329  43.105   8.294
    5AU     AUL 1670  39.243  42.808   8.068
    5AU    AUSL 1671  39.717  42.678   7.694
    5AU    AUSL 1672  39.503  42.891   7.385
    5AU     AUL 1673  39.403  42.529   7.495
    5AU    AUSL 1674  39.599  44.237   6.804
    5AU    AUSL 1675  40.140  44.265   7.233
    5AU     AUL 1676  39.925  44.358   6.873
    5AU    AUSL 1677  39.340  44.350   7.147
    5AU    AUSL 1678  39.371  43.934   6.981
    5AU     AUL 1679  39.280  44.205   6.777
    5AU    AUSL 1680  39.724  42.844   7.015
    5AU    AUSL 1681  39.101  42.843   7.294
    5AU     AUL 1682  39.391  42.692   7.059
    5AU    AUSL 1683  39.927  42.898   7.405
    5AU    AUSL 1684  39.953  43.198   7.006
    5AU     AUL 1685  40.044  42.827   7.028
    5AU       S 1686  40.197  42.732   8.271
    5AU     LIG 1687  40.424  42.348   8.359
    5AU     LIG 1688  40.405  41.939   8.546
    5AU     LIG 1689  40.450  41.798   8.988
    5AU       S 1690  40.048  43.467   8.751
    5AU     LIG 1691  40.407  43.701   8.828
    5AU     LIG 1692  40.629  43.655   9.240
    5AU     LIG 1693  40.790  43.496   9.663
    5AU       S 1694  39.703  43.294   8.645
    5AU     LIG 1695  39.725  43.337   9.105
    5AU     LIG 1696  40.140  43.330   9.372
    5AU     LIG 1697  40.422  43.129   9.722
    5AU       S 1698  39.231  43.647   8.634
    5AU     LIG 1699  39.287  43.646   9.097
    5AU     LIG 1700  38.976  43.644   9.453
    5AU     LIG 1701  38.674  43.896   9.746
    5AU       S 1702  39.683  44.226   8.553
    5AU     LIG 1703  39.977  44.533   8.735
    5AU     LIG 1704  40.409  44.425   8.801
    5AU     LIG 1705  40.709  44.123   8.971
    5AU       S 1706  40.410  44.136   8.313
    5AU     LIG 1707  40.780  44.269   8.474
    5AU     LIG 1708  40.888  44.617   8.731
    5AU     LIG 1709  41.179  44.773   9.062
    5AU       S 1710  39.989  43.731   6.321
    5AU     LIG 1711  40.439  43.786   6.259
    5AU     LIG 1712  40.554  43.418   6.009
    5AU     LIG 1713  40.445  43.079   5.701
    5AU       S 1714  40.377  44.351   6.842
    5AU     LIG 1715  40.325  44.736   6.629
    5AU     LIG 1716  40.525  44.933   6.250
    5AU     LIG 1717  40.796   0.021   5.883
    5AU       S 1718  40.554  43.147   6.806
    5AU     LIG 1719  40.600  43.029   6.341
    5AU     LIG 1720  40.539  42.629   6.140
    5AU     LIG 1721  40.659  42.205   6.293
    5AU       S 1722  40.012  43.541   6.261
    5AU     LIG 1723  40.026  43.156   6.048
    5AU     LIG 1724  39.938  43.062   5.584
    5AU     LIG 1725  40.078  43.326   5.204
    5AU       S 1726  39.208  43.351   6.338
    5AU     LIG 1727  39.188  43.367   5.927
    5AU     LIG 1728  39.345  43.142   5.601
    5AU     LIG 1729  39.576  43.246   5.251
    5AU       S 1730  39.741  43.867   6.438
    5AU     LIG 1731  39.532  43.719   6.069
    5AU     LIG 1732  39.707  43.490   5.755
    5AU     LIG 1733  40.157  43.523   5.693
    5AU       S 1734  39.025  43.756   8.683
    5AU     LIG 1735  38.772  43.425   8.806
    5AU     LIG 1736  38.581  43.308   9.196
    5AU     LIG 1737  38.568  43.392   9.643
    5AU       S 1738  38.935  44.361   8.150
    5AU     LIG 1739  38.903  44.550   8.484
    5AU     LIG 1740  38.609  44.532   8.793
    5AU     LIG 1741  38.521  44.727   9.179
    5AU       S 1742  38.860  43.136   8.408
    5AU     LIG 1743  38.463  43.252   8.269
    5AU     LIG 1744  38.134  42.950   8.259
    5AU     LIG 1745  38.179  42.599   8.582
    5AU       S 1746  39.227  43.471   8.577
    5AU     LIG 1747  39.229  43.182   8.917
    5AU     LIG 1748  39.043  43.131   9.324
    5AU     LIG 1749  39.058  43.221   9.769
    5AU       S 1750  39.052  43.267   6.444
    5AU     LIG 1751  38.771  43.110   6.157
    5AU     LIG 1752  38.752  43.210   5.704
    5AU     LIG 1753  38.762  43.529   5.382
    5AU       S 1754  39.009  42.848   6.816
    5AU     LIG 1755  38.753  42.556   6.596
    5AU     LIG 1756  38.544  42.353   6.258
    5AU     LIG 1757  38.322  42.046   5.996
    5AU       S 1758  38.678  43.973   6.720
    5AU     LIG 1759  38.380  44.320   6.814
    5AU     LIG 1760  38.262  44.606   6.475
    5AU     LIG 1761  38.210  44.650   5.994
    5AU       S 1762  39.222  43.648   6.439
    5AU     LIG 1763  38.880  43.712   6.198
    5AU     LIG 1764  38.973  43.804   5.765
    5AU     LIG 1765  39.275  43.636   5.449
    5AU       S 1766  40.470  44.246   6.808
    5AU     LIG 1767  40.623  44.386   6.391
    5AU     LIG 1768  40.965  44.642   6.198
    5AU     LIG 1769  41.425  44.772   6.156
    5AU       S 1770  40.626  44.295   7.622
    5AU     LIG 1771  41.011  44.452   7.402
    5AU     LIG 1772  41.485  44.505   7.487
    5AU     LIG 1773  41.820  44.795   7.676
    5AU       S 1774  40.849  43.934   7.578
    5AU     LIG 1775  41.293  44.003   7.445
    5AU     LIG 1776  41.678  44.102   7.210
    5AU     LIG 1777  41.851  44.503   7.033
    5AU       S 1778  40.778  43.041   7.769
    5AU     LIG 1779  41.093  42.919   8.047
    5AU     LIG 1780  41.537  42.924   7.970
    5AU     LIG 1781  41.753  42.690   7.686
    5AU       S 1782  40.431  44.348   8.103
    5AU     LIG 1783  40.764  44.654   8.130
    5AU     LIG 1784  40.822   0.016   8.415
    5AU     LIG 1785  40.890   0.151   8.862
    5AU       S 1786  40.839  44.059   7.690
    5AU     LIG 1787  41.180  44.286   7.867
    5AU     LIG 1788  41.636  44.164   7.852
    5AU     LIG 1789  41.980  43.872   7.999
    5AU       S 1790  38.865  44.193   8.093
    5AU     LIG 1791  38.624  44.075   8.437
    5AU     LIG 1792  38.213  44.306   8.545
    5AU     LIG 1793  38.105  44.632   8.879
    5AU       S 1794  38.966  44.529   7.371
    5AU     LIG 1795  38.719  44.840   7.463
    5AU     LIG 1796  38.472  44.789   7.119
    5AU     LIG 1797  38.090  44.817   6.933
    5AU       S 1798  38.486  43.669   7.042
    5AU     LIG 1799  38.124  43.901   7.197
    5AU     LIG 1800  37.705  44.050   7.072
    5AU     LIG 1801  37.353  44.270   6.831
    5AU       S 1802  38.870  44.386   6.891
    5AU     LIG 1803  38.871  44.809   6.784
    5AU     LIG 1804  38.489   0.034   6.655
    5AU     LIG 1805  38.198   0.066   6.287
    5AU       S 1806  38.474  43.314   7.640
    5AU     LIG 1807  38.120  43.398   7.388
    5AU     LIG 1808  37.683  43.309   7.189
    5AU     LIG 1809  37.488  42.894   7.093
    5AU       S 1810  38.573  43.814   7.988
    5AU     LIG 1811  38.202  43.832   8.215
    5AU     LIG 1812  37.805  44.039   8.084
    5AU     LIG 1813  37.680  44.078   7.631
    5AU       S 1814  40.474  42.900   7.649
    5AU     LIG 1815  40.613  42.516   7.499
    5AU     LIG 1816  40.982  42.283   7.707
    5AU     LIG 1817  41.334  42.428   7.981
    5AU       S 1818  40.364  42.818   8.130
    5AU     LIG 1819  40.699  42.593   8.004
    5AU     LIG 1820  40.953  42.459   8.335
    5AU     LIG 1821  40.870  42.122   8.663
    5AU       S 1822  40.759  42.983   7.598
    5AU     LIG 1823  40.880  42.869   7.217
    5AU     LIG 1824  41.246  43.052   7.078
    5AU     LIG 1825  41.640  42.972   7.280
    5AU       S 1826  40.490  42.903   6.912
    5AU     LIG 1827  40.358  42.501   6.764
    5AU     LIG 1828  40.327  42.047   6.646
    5AU     LIG 1829  40.398  41.746   6.286
    5AU       S 1830  38.881  42.952   6.880
    5AU     LIG 1831  38.586  43.114   6.666
    5AU     LIG 1832  38.305  42.822   6.460
    5AU     LIG 1833  38.062  42.516   6.214
    5AU       S 1834  38.480  43.080   7.665
    5AU     LIG 1835  38.150  42.863   7.737
    5AU     LIG 1836  37.792  43.008   7.581
    5AU     LIG 1837  37.348  43.025   7.573
    5AU       S 1838  38.878  42.919   8.337
    5AU     LIG 1839  38.555  42.745   8.069
    5AU     LIG 1840  38.220  42.433   8.106
    5AU     LIG 1841  38.147  42.096   8.399
    5AU       S 1842  38.502  43.359   7.799
    5AU     LIG 1843  38.052  43.351   7.918
    5AU     LIG 1844  37.670  43.119   8.061
    5AU     LIG 1845  37.298  42.852   8.061
    5AU       S 1846  39.064  44.576   7.848
    5AU     LIG 1847  38.631  44.701   7.956
    5AU     LIG 1848  38.413  44.761   8.359
    5AU     LIG 1849  38.403   0.033   8.733
    5AU       S 1850  39.662  44.746   7.881
    5AU     LIG 1851  39.828  44.749   8.286
    5AU     LIG 1852  39.935   0.145   8.515
    5AU     LIG 1853  39.747   0.595   8.567
    5AU       S 1854  39.796  44.920   7.737
    5AU     LIG 1855  39.326   0.059   7.700
    5AU     LIG 1856  39.244   0.434   7.909
    5AU     LIG 1857  39.554   0.757   7.988
    5AU       S 1858  39.669  44.710   7.044
    5AU     LIG 1859  39.636   0.096   7.270
    5AU     LIG 1860  39.754   0.516   7.165
    5AU     LIG 1861  40.019   0.778   6.861
    5AU       S 1862  40.177  44.317   8.341
    5AU     LIG 1863  40.329  44.751   8.396
    5AU     LIG 1864  40.436  44.942   8.772
    5AU     LIG 1865  40.652  44.789   9.160
    5AU       S 1866  39.946  44.722   7.527
    5AU     LIG 1867  40.112   0.134   7.418
    5AU     LIG 1868  39.931   0.453   7.693
    5AU     LIG 1869  40.020   0.547   8.134
    5AU       S 1870  39.579  42.458   8.089
    5AU     LIG 1871  39.893  42.116   8.167
    5AU     LIG 1872  40.031  41.666   8.311
    5AU     LIG 1873  39.877  41.273   8.545
    5AU       S 1874  40.133  42.776   7.983
    5AU     LIG 1875  40.244  42.386   7.858
    5AU     LIG 1876  40.360  41.985   8.018
    5AU     LIG 1877  40.816  42.011   8.156
    5AU       S 1878  39.404  42.390   7.940
    5AU     LIG 1879  39.414  42.014   7.778
    5AU     LIG 1880  39.334  41.610   7.939
    5AU     LIG 1881  39.271  41.189   7.945
    5AU       S 1882  39.122  43.018   8.472
    5AU     LIG 1883  38.907  42.727   8.788
    5AU     LIG 1884  38.599  42.348   8.743
    5AU     LIG 1885  38.197  42.154   8.908
    5AU       S 1886  39.815  42.451   7.301
    5AU     LIG 1887  39.516  42.089   7.270
    5AU     LIG 1888  39.519  41.834   6.942
    5AU     LIG 1889  39.730  41.462   7.007
    5AU       S 1890  39.736  42.494   7.846
    5AU     LIG 1891  39.887  42.110   7.647
    5AU     LIG 1892  39.832  41.702   7.833
    5AU     LIG 1893  39.772  41.283   8.019
    5AU       S 1894  39.527  44.615   6.766
    5AU     LIG 1895  39.431   0.075   6.788
    5AU     LIG 1896  39.766   0.350   6.678
    5AU     LIG 1897  39.753   0.699   6.389
    5AU       S 1898  40.307  44.437   7.147
    5AU     LIG 1899  40.643  44.739   7.045
    5AU     LIG 1900  40.851  44.900   6.646
    5AU     LIG 1901  41.105   0.142   6.301
    5AU       S 1902  39.327  44.618   7.016
    5AU     LIG 1903  39.155  44.972   7.216
    5AU     LIG 1904  39.229   0.435   7.158
    5AU     LIG 1905  39.415   0.692   6.797
    5AU       S 1906  38.904  44.020   6.615
    5AU     LIG 1907  38.725  44.384   6.400
    5AU     LIG 1908  38.699  44.820   6.254
    5AU     LIG 1909  38.907   0.216   6.426
    5AU       S 1910  38.917  42.752   7.109
    5AU     LIG 1911  38.452  42.705   6.989
    5AU     LIG 1912  38.273  42.368   6.709
    5AU     LIG 1913  38.073  42.044   6.441
    5AU       S 1914  39.795  42.474   7.169
    5AU     LIG 1915  39.875  42.332   6.787
    5AU     LIG 1916  39.811  41.971   6.521
    5AU     LIG 1917  39.581  41.554   6.509
    5AU       S 1918  40.082  42.573   7.420
    5AU     LIG 1919  40.238  42.211   7.195
    5AU     LIG 1920  40.021  41.877   7.001
    5AU     LIG 1921  40.079  41.561   6.653
    5AU       S 1922  40.267  43.033   6.693
    5AU     LIG 1923  39.976  42.781   6.523
    5AU     LIG 1924  40.107  42.377   6.311
    5AU     LIG 1925  40.309  42.203   5.920
    6AU     AUC 1926  18.276  31.126   7.520
    6AU     AUC 1927  18.538  31.124   7.360
    6AU     AUC 1928  18.520  31.127   7.696
    6AU     AUC 1929  18.011  31.120   7.355
    6AU     AUC 1930  18.020  31.169   7.682
    6AU     AUC 1931  18.115  31.388   7.479
    6AU     AUC 1932  18.450  31.388   7.494
    6AU     AUC 1933  18.103  30.869   7.539
    6AU     AUC 1934  18.436  30.854   7.545
    6AU     AUC 1935  18.265  30.983   7.797
    6AU     AUC 1936  18.276  31.325   7.761
    6AU     AUC 1937  18.283  30.941   7.269
    6AU     AUC 1938  18.298  31.255   7.245
    6AU     AUC 1939  18.862  31.124   7.212
    6AU     AUC 1940  18.841  31.105   7.549
    6AU     AUC 1941  18.803  31.115   7.902
    6AU     AUC 1942  17.714  31.082   7.204
    6AU     AUC 1943  17.702  31.160   7.531
    6AU     AUC 1944  17.721  31.220   7.853
    6AU     AUC 1945  17.954  31.686   7.416
    6AU     AUC 1946  18.305  31.683   7.415
    6AU     AUC 1947  18.635  31.665   7.472
    6AU     AUC 1948  17.910  30.585   7.554
    6AU     AUC 1949  18.258  30.562   7.547
    6AU     AUC 1950  18.608  30.556   7.565
    6AU     AUC 1951  18.229  30.829   8.102
    6AU     AUC 1952  18.251  31.181   8.082
    6AU     AUC 1953  18.301  31.539   8.040
    6AU     AUC 1954  18.327  30.751   6.995
    6AU     AUC 1955  18.281  31.081   6.943
    6AU     AUC 1956  18.278  31.403   6.932
    6AU     AUC 1957  18.506  30.952   8.013
    6AU     AUC 1958  18.556  31.307   7.985
    6AU     AUC 1959  18.595  30.956   7.071
    6AU     AUC 1960  18.571  31.283   7.071
    6AU     AUC 1961  17.969  31.046   7.992
    6AU     AUC 1962  18.008  31.397   7.942
    6AU     AUC 1963  18.010  30.902   7.092
    6AU     AUC 1964  17.973  31.210   7.044
    6AU     AUC 1965  18.774  31.384   7.346
    6AU     AUC 1966  18.719  31.380   7.689
    6AU     AUC 1967  17.816  31.394   7.334
    6AU     AUC 1968  17.849  31.482   7.662
    6AU     AUC 1969  18.741  30.839   7.396
    6AU     AUC 1970  18.687  30.814   7.743
    6AU     AUC 1971  17.813  30.816   7.382
    6AU     AUC 1972  17.829  30.901   7.716
    6AU     AUC 1973  18.154  31.633   7.738
    6AU     AUC 1974  18.476  31.604   7.765
    6AU     AUC 1975  18.075  30.704   7.827
    6AU     AUC 1976  18.390  30.656   7.824
    6AU     AUC 1977  18.097  31.540   7.169
    6AU     AUC 1978  18.453  31.561   7.185
    6AU     AUC 1979  18.125  30.649   7.265
    6AU     AUC 1980  18.494  30.682   7.273
    6AU    AUSL 1981  18.755  31.065   8.295
    6AU    AUSL 1982  18.514  30.674   8.225
    6AU     AUL 1983  18.822  30.716   8.411
    6AU    AUSL 1984  18.343  31.005   8.425
    6AU    AUSL 1985  18.101  31.387   8.404
    6AU     AUL 1986  18.325  31.312   8.697
    6AU    AUSL 1987  18.449  31.361   8.178
    6AU    AUSL 1988  18.900  31.420   8.107
    6AU     AUL 1989  18.716  31.372   8.445
    6AU    AUSL 1990  18.732  31.152   6.898
    6AU    AUSL 1991  18.637  31.567   6.901
    6AU     AUL 1992  18.865  31.468   6.662
    6AU    AUSL 1993  18.570  30.874   6.619
    6AU    AUSL 1994  19.033  30.881   7.001
    6AU     AUL 1995  18.939  31.006   6.664
    6AU    AUSL 1996  18.378  31.287   6.702
    6AU    AUSL 1997  18.190  30.893   6.797
    6AU     AUL 1998  18.303  30.942   6.473
    6AU    AUSL 1999  17.722  31.339   8.190
    6AU    AUSL 2000  18.045  31.651   8.080
    6AU     AUL 2001  17.866  31.630   8.404
    6AU    AUSL 2002  18.012  31.031   8.172
    6AU    AUSL 2003  17.596  30.921   8.116
    6AU     AUL 2004  17.529  31.147   8.272
    6AU    AUSL 2005  17.764  30.896   6.793
    6AU    AUSL 2006  17.994  30.572   6.982
    6AU     AUL 2007  18.052  30.584   6.650
    6AU    AUSL 2008  17.959  31.242   6.636
    6AU    AUSL 2009  17.639  31.254   6.995
    6AU     AUL 2010  17.537  31.105   6.727
    6AU    AUSL 2011  19.079  31.605   7.510
    6AU    AUSL 2012  19.001  31.408   7.098
    6AU     AUL 2013  19.343  31.585   7.182
    6AU    AUSL 2014  19.224  31.201   7.394
    6AU    AUSL 2015  19.175  30.904   7.760
    6AU     AUL 2016  19.487  30.954   7.532
    6AU    AUSL 2017  18.956  31.258   7.731
    6AU    AUSL 2018  18.731  31.651   7.761
    6AU     AUL 2019  19.045  31.641   7.847
    6AU    AUSL 2020  17.699  31.751   7.450
    6AU    AUSL 2021  17.719  31.540   7.822
    6AU     AUL 2022  17.406  31.776   7.641
    6AU    AUSL 2023  17.529  31.357   7.385
    6AU    AUSL 2024  17.674  31.675   7.043
    6AU     AUL 2025  17.412  31.587   7.186
    6AU    AUSL 2026  17.360  31.340   7.795
    6AU    AUSL 2027  17.354  30.978   7.362
    6AU     AUL 2028  17.175  31.306   7.487
    6AU    AUSL 2029  18.941  30.562   7.629
    6AU    AUSL 2030  18.792  30.848   7.938
    6AU     AUL 2031  19.095  30.758   8.018
    6AU    AUSL 2032  18.923  30.917   7.400
    6AU    AUSL 2033  18.914  30.507   7.207
    6AU     AUL 2034  19.172  30.713   7.285
    6AU    AUSL 2035  17.528  30.619   7.564
    6AU    AUSL 2036  17.702  30.816   7.195
    6AU     AUL 2037  17.332  30.714   7.221
    6AU    AUSL 2038  17.603  31.016   7.709
    6AU    AUSL 2039  17.823  30.657   7.867
    6AU     AUL 2040  17.509  30.650   7.909
    6AU    AUSL 2041  18.328  31.916   7.910
    6AU    AUSL 2042  17.887  31.935   7.788
    6AU     AUL 2043  18.078  31.990   8.161
    6AU    AUSL 2044  18.182  31.824   7.519
    6AU    AUSL 2045  18.433  31.957   7.182
    6AU     AUL 2046  18.156  32.177   7.456
    6AU    AUSL 2047  18.588  32.000   7.576
    6AU    AUSL 2048  18.611  31.743   8.162
    6AU     AUL 2049  18.718  31.990   7.904
    6AU    AUSL 2050  18.208  30.493   7.987
    6AU    AUSL 2051  18.630  30.450   7.884
    6AU     AUL 2052  18.375  30.380   8.254
    6AU    AUSL 2053  17.914  30.282   7.714
    6AU    AUSL 2054  17.958  30.641   8.286
    6AU     AUL 2055  17.872  30.351   8.058
    6AU    AUSL 2056  18.346  30.208   7.697
    6AU    AUSL 2057  18.140  30.418   7.378
    6AU     AUL 2058  18.027  30.060   7.485
    6AU    AUSL 2059  18.279  31.761   6.810
    6AU    AUSL 2060  18.751  31.710   7.278
    6AU     AUL 2061  18.602  31.882   6.881
    6AU    AUSL 2062  18.019  31.883   7.138
    6AU    AUSL 2063  18.033  31.465   6.971
    6AU     AUL 2064  17.959  31.743   6.767
    6AU    AUSL 2065  18.362  30.368   7.010
    6AU    AUSL 2066  17.739  30.389   7.282
    6AU     AUL 2067  18.024  30.229   7.049
    6AU    AUSL 2068  18.563  30.413   7.402
    6AU    AUSL 2069  18.601  30.716   7.003
    6AU     AUL 2070  18.680  30.350   7.012
    6AU       S 2071  18.819  30.255   8.290
    6AU     LIG 2072  19.023  29.819   8.259
    6AU     LIG 2073  19.056  29.379   8.294
    6AU     LIG 2074  19.308  29.356   8.662
    6AU       S 2075  18.691  31.000   8.752
    6AU     LIG 2076  19.096  31.136   8.740
    6AU     LIG 2077  19.351  31.130   9.144
    6AU     LIG 2078  19.506  30.980   9.579
    6AU       S 2079  18.353  30.839   8.640
    6AU     LIG 2080  18.389  30.799   9.100
    6AU     LIG 2081  18.812  30.775   9.335
    6AU     LIG 2082  19.165  30.579   9.598
    6AU       S 2083  17.890  31.179   8.621
    6AU     LIG 2084  17.988  31.161   9.072
    6AU     LIG 2085  17.681  31.179   9.406
    6AU     LIG 2086  17.539  31.170   9.866
    6AU       S 2087  18.341  31.762   8.527
    6AU     LIG 2088  18.585  32.064   8.717
    6AU     LIG 2089  19.015  31.920   8.799
    6AU     LIG 2090  19.309  31.595   8.877
    6AU       S 2091  19.093  31.620   8.318
    6AU     LIG 2092  19.497  31.712   8.424
    6AU     LIG 2093  19.663  32.027   8.694
    6AU     LIG 2094  19.785  32.363   8.988
    6AU       S 2095  18.660  31.256   6.322
    6AU     LIG 2096  19.135  31.263   6.254
    6AU     LIG 2097  19.312  30.912   6.022
    6AU     LIG 2098  19.190  30.532   5.781
    6AU       S 2099  19.049  31.904   6.957
    6AU     LIG 2100  18.990  32.271   6.707
    6AU     LIG 2101  19.216  32.391   6.332
    6AU     LIG 2102  19.454  32.599   5.976
    6AU       S 2103  19.202  30.636   6.805
    6AU     LIG 2104  19.276  30.516   6.349
    6AU     LIG 2105  19.195  30.133   6.133
    6AU     LIG 2106  19.285  29.681   6.229
    6AU       S 2107  18.683  31.088   6.273
    6AU     LIG 2108  18.805  30.692   6.184
    6AU     LIG 2109  18.674  30.517   5.780
    6AU     LIG 2110  18.789  30.660   5.344
    6AU       S 2111  17.874  30.890   6.323
    6AU     LIG 2112  17.898  30.943   5.899
    6AU     LIG 2113  18.035  30.780   5.500
    6AU     LIG 2114  17.948  30.946   5.068
    6AU       S 2115  18.432  31.399   6.453
    6AU     LIG 2116  18.218  31.297   6.073
    6AU     LIG 2117  18.419  31.000   5.817
    6AU     LIG 2118  18.875  30.991   5.761
    6AU       S 2119  17.697  31.287   8.678
    6AU     LIG 2120  17.357  31.071   8.737
    6AU     LIG 2121  17.315  30.794   9.072
    6AU     LIG 2122  17.342  30.816   9.536
    6AU       S 2123  17.603  31.930   8.148
    6AU     LIG 2124  17.390  32.122   8.500
    6AU     LIG 2125  17.226  32.182   8.946
    6AU     LIG 2126  16.826  32.386   9.112
    6AU       S 2127  17.490  30.702   8.401
    6AU     LIG 2128  17.081  30.674   8.547
    6AU     LIG 2129  16.845  30.317   8.427
    6AU     LIG 2130  16.641  29.993   8.174
    6AU       S 2131  17.874  31.008   8.564
    6AU     LIG 2132  17.913  30.707   8.880
    6AU     LIG 2133  17.782  30.666   9.286
    6AU     LIG 2134  17.870  30.796   9.690
    6AU       S 2135  17.709  30.810   6.427
    6AU     LIG 2136  17.513  30.550   6.140
    6AU     LIG 2137  17.537  30.653   5.681
    6AU     LIG 2138  17.605  31.060   5.448
    6AU       S 2139  17.652  30.417   6.815
    6AU     LIG 2140  17.645  30.035   6.682
    6AU     LIG 2141  17.445  30.034   6.295
    6AU     LIG 2142  17.057  29.949   6.108
    6AU       S 2143  17.343  31.523   6.707
    6AU     LIG 2144  17.043  31.873   6.816
    6AU     LIG 2145  16.883  32.139   6.468
    6AU     LIG 2146  16.981  32.064   6.016
    6AU       S 2147  17.895  31.184   6.424
    6AU     LIG 2148  17.624  31.317   6.153
    6AU     LIG 2149  17.777  31.442   5.754
    6AU     LIG 2150  18.097  31.288   5.465
    6AU       S 2151  19.083  31.802   6.884
    6AU     LIG 2152  19.242  31.876   6.463
    6AU     LIG 2153  19.605  32.089   6.239
    6AU     LIG 2154  19.999  32.265   6.342
    6AU       S 2155  19.445  31.648   7.629
    6AU     LIG 2156  19.702  31.993   7.481
    6AU     LIG 2157  20.158  32.016   7.472
    6AU     LIG 2158  20.509  31.865   7.227
    6AU       S 2159  19.505  31.410   7.607
    6AU     LIG 2160  19.954  31.526   7.496
    6AU     LIG 2161  20.381  31.365   7.330
    6AU     LIG 2162  20.841  31.466   7.318
    6AU       S 2163  19.414  30.541   7.768
    6AU     LIG 2164  19.782  30.356   7.911
    6AU     LIG 2165  20.231  30.371   7.845
    6AU     LIG 2166  20.681  30.325   7.897
    6AU       S 2167  19.068  31.900   8.216
    6AU     LIG 2168  19.434  32.196   8.258
    6AU     LIG 2169  19.655  32.539   8.502
    6AU     LIG 2170  19.537  32.818   8.879
    6AU       S 2171  19.382  31.330   7.855
    6AU     LIG 2172  19.754  31.669   7.990
    6AU     LIG 2173  20.180  31.783   7.928
    6AU     LIG 2174  20.555  31.656   7.712
    6AU       S 2175  17.527  31.740   8.082
    6AU     LIG 2176  17.329  31.607   8.454
    6AU     LIG 2177  16.922  31.837   8.602
    6AU     LIG 2178  16.502  32.090   8.701
    6AU       S 2179  17.647  32.068   7.353
    6AU     LIG 2180  17.505  32.374   7.458
    6AU     LIG 2181  17.148  32.403   7.203
    6AU     LIG 2182  16.781  32.330   6.932
    6AU       S 2183  17.150  31.213   7.021
    6AU     LIG 2184  16.689  31.177   6.997
    6AU     LIG 2185  16.506  31.418   7.293
    6AU     LIG 2186  16.631  31.873   7.260
    6AU       S 2187  17.548  31.926   6.880
    6AU     LIG 2188  17.601  32.322   6.749
    6AU     LIG 2189  17.274  32.503   6.560
    6AU     LIG 2190  17.044  32.544   6.170
    6AU       S 2191  17.110  30.858   7.629
    6AU     LIG 2192  16.828  30.795   7.291
    6AU     LIG 2193  16.386  30.717   7.140
    6AU     LIG 2194  16.010  30.532   6.933
    6AU       S 2195  17.225  31.368   7.971
    6AU     LIG 2196  16.948  31.298   8.316
    6AU     LIG 2197  16.550  31.545   8.339
    6AU     LIG 2198  16.482  31.987   8.192
    6AU       S 2199  19.100  30.408   7.655
    6AU     LIG 2200  19.175  30.041   7.456
    6AU     LIG 2201  19.576  29.873   7.558
    6AU     LIG 2202  19.984  29.930   7.720
    6AU       S 2203  19.004  30.333   8.141
    6AU     LIG 2204  19.335  30.073   7.959
    6AU     LIG 2205  19.708  29.893   8.169
    6AU     LIG 2206  19.797  29.849   8.645
    6AU       S 2207  19.387  30.472   7.599
    6AU     LIG 2208  19.555  30.331   7.264
    6AU     LIG 2209  19.993  30.297   7.324
    6AU     LIG 2210  20.303  30.634   7.395
    6AU       S 2211  19.141  30.392   6.932
    6AU     LIG 2212  19.114  30.053   6.667
    6AU     LIG 2213  19.098  29.601   6.698
    6AU     LIG 2214  19.042  29.218   6.444
    6AU       S 2215  17.527  30.510   6.864
    6AU     LIG 2216  17.222  30.636   6.648
    6AU     LIG 2217  16.971  30.292   6.482
    6AU     LIG 2218  16.571  30.124   6.296
    6AU       S 2219  17.143  30.601   7.640
    6AU     LIG 2220  16.924  30.380   7.919
    6AU     LIG 2221  16.623  30.462   7.618
    6AU     LIG 2222  16.651  30.283   7.194
    6AU       S 2223  17.498  30.481   8.329
    6AU     LIG 2224  17.402  30.169   8.000
    6AU     LIG 2225  17.108  29.832   7.975
    6AU     LIG 2226  16.921  29.576   8.276
    6AU       S 2227  17.154  30.907   7.792
    6AU     LIG 2228  16.870  30.840   8.112
    6AU     LIG 2229  16.468  30.978   8.029
    6AU     LIG 2230  16.400  30.959   7.585
    6AU       S 2231  17.756  32.101   7.829
    6AU     LIG 2232  17.519  32.442   7.984
    6AU     LIG 2233  17.093  32.433   8.179
    6AU     LIG 2234  16.930  32.360   8.592
    6AU       S 2235  18.342  32.272   7.901
    6AU     LIG 2236  18.524  32.554   8.208
    6AU     LIG 2237  18.372  32.934   8.441
    6AU     LIG 2238  18.044  33.223   8.603
    6AU       S 2239  18.168  32.419   7.870
    6AU     LIG 2240  18.006  32.733   8.126
    6AU     LIG 2241  18.074  33.166   8.074
    6AU     LIG 2242  18.224  33.274   7.707
    6AU       S 2243  18.350  32.242   7.035
    6AU     LIG 2244  18.375  32.616   7.269
    6AU     LIG 2245  18.329  33.060   7.249
    6AU     LIG 2246  18.479  33.443   7.041
    6AU       S 2247  18.819  31.842   8.345
    6AU     LIG 2248  18.957  32.308   8.459
    6AU     LIG 2249  19.272  32.360   8.794
    6AU     LIG 2250  19.389  32.061   9.140
    6AU       S 2251  18.521  32.362   7.686
    6AU     LIG 2252  18.463  32.819   7.751
    6AU     LIG 2253  18.597  33.152   8.036
    6AU     LIG 2254  18.425  33.467   8.336
    6AU       S 2255  18.179  29.993   8.086
    6AU     LIG 2256  18.527  29.756   8.224
    6AU     LIG 2257  18.577  29.360   8.470
    6AU     LIG 2258  18.400  28.969   8.661
    6AU       S 2259  18.769  30.308   8.002
    6AU     LIG 2260  18.828  29.970   7.824
    6AU     LIG 2261  19.016  29.616   7.769
    6AU     LIG 2262  19.399  29.530   7.953
    6AU       S 2263  18.010  29.919   7.929
    6AU     LIG 2264  17.978  29.465   7.873
    6AU     LIG 2265  17.763  29.171   8.133
    6AU     LIG 2266  17.836  28.819   8.396
    6AU       S 2267  17.744  30.558   8.457
    6AU     LIG 2268  17.705  30.073   8.465
    6AU     LIG 2269  17.245  29.920   8.488
    6AU     LIG 2270  17.030  29.575   8.772
    6AU       S 2271  18.439  29.969   7.299
    6AU     LIG 2272  18.338  29.515   7.229
    6AU     LIG 2273  18.407  29.080   7.110
    6AU     LIG 2274  18.555  28.651   7.029
    6AU       S 2275  18.337  30.044   7.856
    6AU     LIG 2276  18.434  29.674   7.711
    6AU     LIG 2277  18.461  29.316   7.956
    6AU     LIG 2278  18.239  28.973   8.062
    6AU       S 2279  18.218  32.148   6.754
    6AU     LIG 2280  18.254  32.633   6.755
    6AU     LIG 2281  18.526  33.016   6.757
    6AU     LIG 2282  18.547  33.431   6.516
    6AU       S 2283  18.953  31.953   7.206
    6AU     LIG 2284  19.295  32.291   7.134
    6AU     LIG 2285  19.561  32.363   6.759
    6AU     LIG 2286  19.677  32.660   6.440
    6AU       S 2287  18.014  32.155   7.002
    6AU     LIG 2288  17.883  32.545   7.138
    6AU     LIG 2289  17.910  32.963   6.943
    6AU     LIG 2290  18.062  33.274   6.637
    6AU       S 2291  17.578  31.569   6.600
    6AU     LIG 2292  17.372  31.946   6.399
    6AU     LIG 2293  17.489  32.300   6.141
    6AU     LIG 2294  17.651  32.719   6.258
    6AU       S 2295  17.565  30.327   7.103
    6AU     LIG 2296  17.177  30.179   6.970
    6AU     LIG 2297  17.164  29.837   6.677
    6AU     LIG 2298  17.286  29.526   6.355
    6AU       S 2299  18.418  29.999   7.148
    6AU     LIG 2300  18.643  29.859   6.814
    6AU     LIG 2301  18.612  29.452   6.601
    6AU     LIG 2302  18.619  28.979   6.636
    6AU       S 2303  18.673  30.080   7.386
    6AU     LIG 2304  18.870  29.685   7.238
    6AU     LIG 2305  18.880  29.266   7.013
    6AU     LIG 2306  19.117  28.898   6.845
    6AU       S 2307  18.926  30.539   6.685
    6AU     LIG 2308  18.672  30.277   6.495
    6AU     LIG 2309  18.787  29.862   6.313
    6AU     LIG 2310  18.837  29.493   6.046
    7AU     AUC 2311  36.795  24.274   7.544
    7AU     AUC 2312  37.056  24.284   7.381
    7AU     AUC 2313  37.035  24.280   7.716
    7AU     AUC 2314  36.524  24.256   7.385
    7AU     AUC 2315  36.541  24.307   7.710
    7AU     AUC 2316  36.625  24.529   7.507
    7AU     AUC 2317  36.966  24.548   7.518
    7AU     AUC 2318  36.630  24.010   7.566
    7AU     AUC 2319  36.966  24.007   7.565
    7AU     AUC 2320  36.793  24.126   7.820
    7AU     AUC 2321  36.792  24.470   7.787
    7AU     AUC 2322  36.802  24.089   7.295
    7AU     AUC 2323  36.805  24.401   7.272
    7AU     AUC 2324  37.372  24.298   7.226
    7AU     AUC 2325  37.358  24.278   7.566
    7AU     AUC 2326  37.313  24.270   7.922
    7AU     AUC 2327  36.225  24.207   7.242
    7AU     AUC 2328  36.221  24.287   7.569
    7AU     AUC 2329  36.244  24.349   7.888
    7AU     AUC 2330  36.453  24.823   7.445
    7AU     AUC 2331  36.812  24.826   7.437
    7AU     AUC 2332  37.147  24.830   7.480
    7AU     AUC 2333  36.450  23.721   7.586
    7AU     AUC 2334  36.800  23.709   7.568
    7AU     AUC 2335  37.153  23.717   7.576
    7AU     AUC 2336  36.772  23.967   8.122
    7AU     AUC 2337  36.774  24.321   8.108
    7AU     AUC 2338  36.812  24.681   8.067
    7AU     AUC 2339  36.845  23.903   7.018
    7AU     AUC 2340  36.789  24.227   6.969
    7AU     AUC 2341  36.767  24.542   6.958
    7AU     AUC 2342  37.035  24.096   8.032
    7AU     AUC 2343  37.068  24.458   8.009
    7AU     AUC 2344  37.112  24.119   7.089
    7AU     AUC 2345  37.070  24.432   7.097
    7AU     AUC 2346  36.503  24.181   8.023
    7AU     AUC 2347  36.524  24.536   7.970
    7AU     AUC 2348  36.524  24.038   7.123
    7AU     AUC 2349  36.477  24.345   7.076
    7AU     AUC 2350  37.282  24.565   7.366
    7AU     AUC 2351  37.225  24.554   7.713
    7AU     AUC 2352  36.323  24.525   7.366
    7AU     AUC 2353  36.361  24.616   7.693
    7AU     AUC 2354  37.273  24.008   7.415
    7AU     AUC 2355  37.222  23.975   7.757
    7AU     AUC 2356  36.336  23.949   7.420
    7AU     AUC 2357  36.359  24.030   7.752
    7AU     AUC 2358  36.664  24.776   7.763
    7AU     AUC 2359  36.984  24.753   7.789
    7AU     AUC 2360  36.620  23.841   7.854
    7AU     AUC 2361  36.932  23.801   7.840
    7AU     AUC 2362  36.596  24.680   7.195
    7AU     AUC 2363  36.956  24.723   7.213
    7AU     AUC 2364  36.651  23.795   7.292
    7AU     AUC 2365  37.024  23.846   7.293
    7AU    AUSL 2366  37.280  24.207   8.320
    7AU    AUSL 2367  37.060  23.818   8.238
    7AU     AUL 2368  37.363  23.850   8.422
    7AU    AUSL 2369  36.872  24.135   8.448
    7AU    AUSL 2370  36.619  24.524   8.432
    7AU     AUL 2371  36.850  24.433   8.720
    7AU    AUSL 2372  36.964  24.495   8.205
    7AU    AUSL 2373  37.404  24.567   8.135
    7AU     AUL 2374  37.239  24.516   8.469
    7AU    AUSL 2375  37.240  24.318   6.893
    7AU    AUSL 2376  37.078  24.702   6.985
    7AU     AUL 2377  37.292  24.648   6.698
    7AU    AUSL 2378  37.075  24.023   6.637
    7AU    AUSL 2379  37.551  24.068   7.013
    7AU     AUL 2380  37.447  24.189   6.670
    7AU    AUSL 2381  36.869  24.433   6.718
    7AU    AUSL 2382  36.700  24.034   6.827
    7AU     AUL 2383  36.804  24.079   6.505
    7AU    AUSL 2384  36.238  24.463   8.221
    7AU    AUSL 2385  36.561  24.792   8.111
    7AU     AUL 2386  36.386  24.766   8.434
    7AU    AUSL 2387  36.542  24.170   8.196
    7AU    AUSL 2388  36.139  24.030   8.161
    7AU     AUL 2389  36.047  24.247   8.296
    7AU    AUSL 2390  36.273  24.021   6.827
    7AU    AUSL 2391  36.511  23.707   7.013
    7AU     AUL 2392  36.556  23.720   6.683
    7AU    AUSL 2393  36.451  24.374   6.672
    7AU    AUSL 2394  36.146  24.378   7.030
    7AU     AUL 2395  36.038  24.211   6.767
    7AU    AUSL 2396  37.549  24.779   7.522
    7AU    AUSL 2397  37.487  24.579   7.113
    7AU     AUL 2398  37.805  24.796   7.198
    7AU    AUSL 2399  37.736  24.401   7.411
    7AU    AUSL 2400  37.704  24.095   7.782
    7AU     AUL 2401  37.998  24.197   7.584
    7AU    AUSL 2402  37.456  24.425   7.744
    7AU    AUSL 2403  37.256  24.818   7.814
    7AU     AUL 2404  37.638  24.611   7.898
    7AU    AUSL 2405  36.196  24.880   7.485
    7AU    AUSL 2406  36.235  24.670   7.857
    7AU     AUL 2407  35.912  24.898   7.677
    7AU    AUSL 2408  36.042  24.478   7.421
    7AU    AUSL 2409  36.165  24.799   7.079
    7AU     AUL 2410  35.909  24.705   7.227
    7AU    AUSL 2411  35.881  24.463   7.831
    7AU    AUSL 2412  35.874  24.096   7.421
    7AU     AUL 2413  35.686  24.425   7.535
    7AU    AUSL 2414  37.492  23.741   7.640
    7AU    AUSL 2415  37.323  24.012   7.952
    7AU     AUL 2416  37.631  23.930   8.032
    7AU    AUSL 2417  37.454  24.097   7.416
    7AU    AUSL 2418  37.457  23.689   7.218
    7AU     AUL 2419  37.715  23.918   7.298
    7AU    AUSL 2420  36.067  23.742   7.614
    7AU    AUSL 2421  36.214  23.942   7.231
    7AU     AUL 2422  35.846  23.812   7.299
    7AU    AUSL 2423  36.132  24.141   7.759
    7AU    AUSL 2424  36.375  23.784   7.903
    7AU     AUL 2425  36.064  23.756   7.959
    7AU    AUSL 2426  36.831  25.064   7.928
    7AU    AUSL 2427  36.389  25.070   7.818
    7AU     AUL 2428  36.590  25.133   8.188
    7AU    AUSL 2429  36.678  24.965   7.542
    7AU    AUSL 2430  36.915  25.093   7.201
    7AU     AUL 2431  36.641  25.321   7.475
    7AU    AUSL 2432  37.089  25.126   7.586
    7AU    AUSL 2433  37.096  24.888   8.201
    7AU     AUL 2434  37.192  25.148   7.934
    7AU    AUSL 2435  36.763  23.618   8.007
    7AU    AUSL 2436  37.184  23.608   7.889
    7AU     AUL 2437  36.949  23.523   8.271
    7AU    AUSL 2438  36.474  23.415   7.740
    7AU    AUSL 2439  36.534  23.778   8.316
    7AU     AUL 2440  36.437  23.480   8.095
    7AU    AUSL 2441  36.909  23.353   7.703
    7AU    AUSL 2442  36.684  23.564   7.400
    7AU     AUL 2443  36.595  23.200   7.507
    7AU    AUSL 2444  36.759  24.910   6.818
    7AU    AUSL 2445  37.306  24.957   7.235
    7AU     AUL 2446  37.084  25.042   6.890
    7AU    AUSL 2447  36.504  25.019   7.164
    7AU    AUSL 2448  36.534  24.606   7.000
    7AU     AUL 2449  36.438  24.866   6.792
    7AU    AUSL 2450  36.896  23.534   7.021
    7AU    AUSL 2451  36.278  23.519   7.326
    7AU     AUL 2452  36.565  23.373   7.077
    7AU    AUSL 2453  37.108  23.576   7.409
    7AU    AUSL 2454  37.128  23.887   7.026
    7AU     AUL 2455  37.218  23.537   7.019
    7AU       S 2456  37.393  23.393   8.272
    7AU     LIG 2457  37.598  22.940   8.249
    7AU     LIG 2458  37.604  22.510   8.468
    7AU     LIG 2459  37.949  22.314   8.735
    7AU       S 2460  37.231  24.133   8.764
    7AU     LIG 2461  37.600  24.387   8.809
    7AU     LIG 2462  37.815  24.405   9.227
    7AU     LIG 2463  37.815  24.161   9.651
    7AU       S 2464  36.889  23.961   8.656
    7AU     LIG 2465  36.867  24.000   9.104
    7AU     LIG 2466  37.192  23.984   9.458
    7AU     LIG 2467  37.450  23.774   9.801
    7AU       S 2468  36.410  24.317   8.647
    7AU     LIG 2469  36.499  24.358   9.090
    7AU     LIG 2470  36.226  24.276   9.431
    7AU     LIG 2471  36.065  24.496   9.778
    7AU       S 2472  36.853  24.895   8.583
    7AU     LIG 2473  37.088  25.226   8.779
    7AU     LIG 2474  37.472  25.167   8.990
    7AU     LIG 2475  37.808  24.879   8.875
    7AU       S 2476  37.568  24.826   8.317
    7AU     LIG 2477  37.985  24.820   8.392
    7AU     LIG 2478  38.259  25.095   8.639
    7AU     LIG 2479  38.420  25.435   8.907
    7AU       S 2480  37.148  24.412   6.338
    7AU     LIG 2481  37.582  24.506   6.286
    7AU     LIG 2482  37.679  24.098   6.112
    7AU     LIG 2483  37.558  23.668   5.968
    7AU       S 2484  37.535  25.042   6.840
    7AU     LIG 2485  37.388  25.314   6.537
    7AU     LIG 2486  37.626  25.539   6.193
    7AU     LIG 2487  37.963  25.713   5.926
    7AU       S 2488  37.737  23.843   6.821
    7AU     LIG 2489  37.861  23.698   6.402
    7AU     LIG 2490  37.734  23.286   6.313
    7AU     LIG 2491  37.946  22.896   6.449
    7AU       S 2492  37.175  24.219   6.280
    7AU     LIG 2493  37.086  23.813   6.148
    7AU     LIG 2494  37.094  23.629   5.714
    7AU     LIG 2495  37.437  23.595   5.384
    7AU       S 2496  36.379  24.032   6.352
    7AU     LIG 2497  36.571  23.851   6.014
    7AU     LIG 2498  36.597  23.794   5.562
    7AU     LIG 2499  36.339  23.944   5.205
    7AU       S 2500  36.899  24.536   6.451
    7AU     LIG 2501  36.707  24.347   6.074
    7AU     LIG 2502  36.946  24.133   5.765
    7AU     LIG 2503  37.389  24.056   5.650
    7AU       S 2504  36.203  24.416   8.692
    7AU     LIG 2505  35.902  24.135   8.797
    7AU     LIG 2506  35.820  24.005   9.237
    7AU     LIG 2507  35.667  24.154   9.665
    7AU       S 2508  36.113  25.056   8.177
    7AU     LIG 2509  36.147  25.318   8.499
    7AU     LIG 2510  35.947  25.343   8.911
    7AU     LIG 2511  35.579  25.409   9.174
    7AU       S 2512  36.072  23.805   8.454
    7AU     LIG 2513  35.664  23.842   8.316
    7AU     LIG 2514  35.452  23.451   8.220
    7AU     LIG 2515  35.217  23.089   8.386
    7AU       S 2516  36.406  24.139   8.592
    7AU     LIG 2517  36.326  23.898   8.963
    7AU     LIG 2518  36.259  23.764   9.390
    7AU     LIG 2519  36.084  23.905   9.791
    7AU       S 2520  36.233  23.955   6.444
    7AU     LIG 2521  35.996  23.825   6.100
    7AU     LIG 2522  36.112  23.931   5.687
    7AU     LIG 2523  35.949  24.246   5.387
    7AU       S 2524  36.165  23.529   6.862
    7AU     LIG 2525  36.160  23.455   6.441
    7AU     LIG 2526  35.871  23.309   6.136
    7AU     LIG 2527  35.481  23.140   5.974
    7AU       S 2528  35.841  24.626   6.746
    7AU     LIG 2529  35.560  24.973   6.763
    7AU     LIG 2530  35.461  25.338   6.499
    7AU     LIG 2531  35.603  25.690   6.261
    7AU       S 2532  36.393  24.330   6.462
    7AU     LIG 2533  36.011  24.369   6.254
    7AU     LIG 2534  36.125  24.423   5.842
    7AU     LIG 2535  36.474  24.299   5.573
    7AU       S 2536  37.629  24.938   6.810
    7AU     LIG 2537  37.770  25.006   6.372
    7AU     LIG 2538  37.998  25.202   6.017
    7AU     LIG 2539  38.389  25.406   5.833
    7AU       S 2540  37.693  24.987   7.616
    7AU     LIG 2541  37.988  25.248   7.426
    7AU     LIG 2542  38.423  25.186   7.523
    7AU     LIG 2543  38.737  25.186   7.212
    7AU       S 2544  38.011  24.667   7.585
    7AU     LIG 2545  38.450  24.671   7.420
    7AU     LIG 2546  38.879  24.690   7.175
    7AU     LIG 2547  39.272  24.628   6.897
    7AU       S 2548  37.970  23.753   7.776
    7AU     LIG 2549  38.315  23.542   7.986
    7AU     LIG 2550  38.780  23.551   8.015
    7AU     LIG 2551  39.016  23.420   7.683
    7AU       S 2552  37.595  25.024   8.110
    7AU     LIG 2553  37.955  25.304   8.197
    7AU     LIG 2554  38.222  25.601   8.465
    7AU     LIG 2555  38.032  25.795   8.894
    7AU       S 2556  37.976  24.836   7.716
    7AU     LIG 2557  38.184  24.516   8.010
    7AU     LIG 2558  38.639  24.562   7.926
    7AU     LIG 2559  38.839  24.902   7.659
    7AU       S 2560  36.049  24.870   8.115
    7AU     LIG 2561  35.847  24.766   8.496
    7AU     LIG 2562  35.545  25.089   8.715
    7AU     LIG 2563  35.155  25.346   8.855
    7AU       S 2564  36.140  25.212   7.388
    7AU     LIG 2565  35.845  25.375   7.545
    7AU     LIG 2566  35.590  25.185   7.261
    7AU     LIG 2567  35.319  25.376   6.982
    7AU       S 2568  35.667  24.317   7.074
    7AU     LIG 2569  35.292  24.139   6.943
    7AU     LIG 2570  35.024  24.480   6.953
    7AU     LIG 2571  35.165  24.886   7.099
    7AU       S 2572  36.028  25.040   6.918
    7AU     LIG 2573  35.974  25.376   6.739
    7AU     LIG 2574  35.737  25.698   6.776
    7AU     LIG 2575  35.681  26.078   6.586
    7AU       S 2576  35.664  23.992   7.714
    7AU     LIG 2577  35.358  24.015   7.433
    7AU     LIG 2578  34.955  23.911   7.303
    7AU     LIG 2579  34.551  23.880   7.150
    7AU       S 2580  35.756  24.503   8.011
    7AU     LIG 2581  35.369  24.360   8.026
    7AU     LIG 2582  35.029  24.620   8.052
    7AU     LIG 2583  34.819  24.992   7.961
    7AU       S 2584  37.660  23.602   7.656
    7AU     LIG 2585  37.733  23.246   7.429
    7AU     LIG 2586  38.147  23.074   7.516
    7AU     LIG 2587  38.557  23.162   7.705
    7AU       S 2588  37.564  23.495   8.134
    7AU     LIG 2589  37.885  23.261   7.932
    7AU     LIG 2590  38.153  22.932   8.031
    7AU     LIG 2591  38.093  22.729   8.448
    7AU       S 2592  37.951  23.687   7.605
    7AU     LIG 2593  38.092  23.549   7.232
    7AU     LIG 2594  38.453  23.338   7.120
    7AU     LIG 2595  38.820  23.164   7.245
    7AU       S 2596  37.679  23.587   6.938
    7AU     LIG 2597  37.541  23.168   6.950
    7AU     LIG 2598  37.663  22.761   6.853
    7AU     LIG 2599  37.714  22.364   6.649
    7AU       S 2600  36.036  23.641   6.920
    7AU     LIG 2601  35.773  23.770   6.594
    7AU     LIG 2602  35.455  23.576   6.306
    7AU     LIG 2603  35.131  23.214   6.347
    7AU       S 2604  35.668  23.755   7.736
    7AU     LIG 2605  35.423  23.443   7.693
    7AU     LIG 2606  35.219  23.477   7.316
    7AU     LIG 2607  34.831  23.438   7.075
    7AU       S 2608  36.094  23.603   8.391
    7AU     LIG 2609  35.928  23.289   8.102
    7AU     LIG 2610  35.567  22.977   8.017
    7AU     LIG 2611  35.259  22.626   8.139
    7AU       S 2612  35.704  24.027   7.866
    7AU     LIG 2613  35.258  23.858   7.984
    7AU     LIG 2614  34.939  23.650   7.753
    7AU     LIG 2615  34.571  23.886   7.701
    7AU       S 2616  36.266  25.229   7.855
    7AU     LIG 2617  36.089  25.568   8.036
    7AU     LIG 2618  35.738  25.660   8.296
    7AU     LIG 2619  35.552  25.660   8.713
    7AU       S 2620  36.816  25.428   7.894
    7AU     LIG 2621  37.003  25.412   8.308
    7AU     LIG 2622  36.951  25.720   8.623
    7AU     LIG 2623  37.072  26.165   8.613
    7AU       S 2624  36.985  25.584   7.797
    7AU     LIG 2625  36.983  25.896   8.137
    7AU     LIG 2626  36.747  26.312   8.169
    7AU     LIG 2627  36.427  26.473   7.858
    7AU       S 2628  36.794  25.387   7.034
    7AU     LIG 2629  37.175  25.550   7.056
    7AU     LIG 2630  37.044  25.973   6.934
    7AU     LIG 2631  37.123  26.238   6.595
    7AU       S 2632  37.312  24.988   8.364
    7AU     LIG 2633  37.499  25.329   8.482
    7AU     LIG 2634  37.836  25.378   8.708
    7AU     LIG 2635  37.973  25.325   9.140
    7AU       S 2636  37.090  25.418   7.557
    7AU     LIG 2637  37.121  25.893   7.449
    7AU     LIG 2638  37.063  26.233   7.770
    7AU     LIG 2639  37.337  26.277   8.175
    7AU       S 2640  36.767  23.134   8.098
    7AU     LIG 2641  37.090  22.844   8.215
    7AU     LIG 2642  37.033  22.423   8.400
    7AU     LIG 2643  36.848  21.970   8.388
    7AU       S 2644  37.328  23.461   7.994
    7AU     LIG 2645  37.407  23.108   7.805
    7AU     LIG 2646  37.710  22.809   7.754
    7AU     LIG 2647  37.868  22.505   8.043
    7AU       S 2648  36.589  23.060   7.951
    7AU     LIG 2649  36.485  22.713   7.690
    7AU     LIG 2650  36.368  22.320   7.870
    7AU     LIG 2651  36.623  21.947   7.922
    7AU       S 2652  36.353  23.657   8.526
    7AU     LIG 2653  36.147  23.178   8.600
    7AU     LIG 2654  35.719  22.948   8.520
    7AU     LIG 2655  35.340  22.665   8.653
    7AU       S 2656  36.993  23.132   7.290
    7AU     LIG 2657  36.827  22.689   7.257
    7AU     LIG 2658  36.919  22.289   7.032
    7AU     LIG 2659  36.731  21.872   7.005
    7AU       S 2660  36.918  23.183   7.867
    7AU     LIG 2661  36.991  22.818   7.717
    7AU     LIG 2662  36.864  22.421   7.915
    7AU     LIG 2663  37.115  22.027   7.876
    7AU       S 2664  36.686  25.268   6.764
    7AU     LIG 2665  36.503  25.626   6.644
    7AU     LIG 2666  36.652  26.020   6.511
    7AU     LIG 2667  36.778  26.380   6.240
    7AU       S 2668  37.466  25.132   7.159
    7AU     LIG 2669  37.707  25.473   7.026
    7AU     LIG 2670  37.898  25.453   6.624
    7AU     LIG 2671  38.257  25.535   6.328
    7AU       S 2672  36.482  25.278   7.025
    7AU     LIG 2673  36.241  25.627   7.083
    7AU     LIG 2674  36.270  26.046   6.902
    7AU     LIG 2675  36.610  26.360   6.882
    7AU       S 2676  36.056  24.680   6.645
    7AU     LIG 2677  35.935  25.011   6.382
    7AU     LIG 2678  36.078  25.433   6.249
    7AU     LIG 2679  36.109  25.855   6.427
    7AU       S 2680  36.096  23.433   7.163
    7AU     LIG 2681  35.647  23.376   7.019
    7AU     LIG 2682  35.610  23.193   6.598
    7AU     LIG 2683  35.541  22.789   6.369
    7AU       S 2684  36.984  23.153   7.110
    7AU     LIG 2685  37.156  22.814   6.883
    7AU     LIG 2686  37.189  22.443   6.615
    7AU     LIG 2687  36.948  22.016   6.553
    7AU       S 2688  37.226  23.243   7.376
    7AU     LIG 2689  37.403  22.816   7.336
    7AU     LIG 2690  37.429  22.396   7.096
    7AU     LIG 2691  37.351  22.015   6.859
    7AU       S 2692  37.465  23.720   6.688
    7AU     LIG 2693  37.266  23.347   6.553
    7AU     LIG 2694  37.400  22.915   6.443
    7AU     LIG 2695  37.605  22.593   6.182
    8AU     AUC 2696  28.073  31.625   7.531
    8AU     AUC 2697  28.335  31.617   7.373
    8AU     AUC 2698  28.311  31.628   7.708
    8AU     AUC 2699  27.807  31.615   7.366
    8AU     AUC 2700  27.817  31.671   7.691
    8AU     AUC 2701  27.914  31.884   7.485
    8AU     AUC 2702  28.255  31.891   7.502
    8AU     AUC 2703  27.898  31.368   7.554
    8AU     AUC 2704  28.232  31.353   7.561
    8AU     AUC 2705  28.060  31.486   7.810
    8AU     AUC 2706  28.075  31.829   7.769
    8AU     AUC 2707  28.079  31.433   7.284
    8AU     AUC 2708  28.094  31.745   7.255
    8AU     AUC 2709  28.649  31.604   7.225
    8AU     AUC 2710  28.635  31.601   7.569
    8AU     AUC 2711  28.589  31.613   7.920
    8AU     AUC 2712  27.510  31.573   7.216
    8AU     AUC 2713  27.500  31.659   7.541
    8AU     AUC 2714  27.518  31.727   7.861
    8AU     AUC 2715  27.752  32.185   7.414
    8AU     AUC 2716  28.112  32.174   7.412
    8AU     AUC 2717  28.448  32.161   7.463
    8AU     AUC 2718  27.708  31.085   7.574
    8AU     AUC 2719  28.055  31.063   7.566
    8AU     AUC 2720  28.406  31.056   7.585
    8AU     AUC 2721  28.024  31.335   8.115
    8AU     AUC 2722  28.047  31.690   8.092
    8AU     AUC 2723  28.102  32.047   8.042
    8AU     AUC 2724  28.123  31.237   7.011
    8AU     AUC 2725  28.079  31.566   6.955
    8AU     AUC 2726  28.066  31.884   6.939
    8AU     AUC 2727  28.295  31.454   8.029
    8AU     AUC 2728  28.353  31.816   7.992
    8AU     AUC 2729  28.394  31.447   7.080
    8AU     AUC 2730  28.355  31.757   7.079
    8AU     AUC 2731  27.766  31.556   8.003
    8AU     AUC 2732  27.807  31.907   7.945
    8AU     AUC 2733  27.805  31.390   7.106
    8AU     AUC 2734  27.766  31.700   7.056
    8AU     AUC 2735  28.565  31.885   7.357
    8AU     AUC 2736  28.519  31.892   7.699
    8AU     AUC 2737  27.612  31.889   7.340
    8AU     AUC 2738  27.648  31.984   7.664
    8AU     AUC 2739  28.540  31.336   7.418
    8AU     AUC 2740  28.478  31.312   7.764
    8AU     AUC 2741  27.611  31.311   7.398
    8AU     AUC 2742  27.624  31.402   7.731
    8AU     AUC 2743  27.957  32.136   7.737
    8AU     AUC 2744  28.282  32.105   7.766
    8AU     AUC 2745  27.872  31.209   7.845
    8AU     AUC 2746  28.180  31.154   7.841
    8AU     AUC 2747  27.895  32.031   7.171
    8AU     AUC 2748  28.255  32.054   7.192
    8AU     AUC 2749  27.923  31.144   7.281
    8AU     AUC 2750  28.295  31.181   7.291
    8AU    AUSL 2751  28.547  31.565   8.316
    8AU    AUSL 2752  28.301  31.171   8.246
    8AU     AUL 2753  28.600  31.211   8.438
    8AU    AUSL 2754  28.133  31.513   8.435
    8AU    AUSL 2755  27.898  31.905   8.407
    8AU     AUL 2756  28.129  31.832   8.691
    8AU    AUSL 2757  28.249  31.865   8.188
    8AU    AUSL 2758  28.695  31.911   8.117
    8AU     AUL 2759  28.533  31.885   8.453
    8AU    AUSL 2760  28.541  31.638   6.851
    8AU    AUSL 2761  28.397  32.033   6.944
    8AU     AUL 2762  28.680  31.955   6.706
    8AU    AUSL 2763  28.352  31.330   6.629
    8AU    AUSL 2764  28.827  31.387   7.028
    8AU     AUL 2765  28.734  31.474   6.664
    8AU    AUSL 2766  28.165  31.767   6.702
    8AU    AUSL 2767  27.981  31.381   6.818
    8AU     AUL 2768  28.094  31.433   6.490
    8AU    AUSL 2769  27.517  31.857   8.196
    8AU    AUSL 2770  27.848  32.164   8.077
    8AU     AUL 2771  27.674  32.152   8.399
    8AU    AUSL 2772  27.804  31.546   8.182
    8AU    AUSL 2773  27.391  31.435   8.129
    8AU     AUL 2774  27.327  31.655   8.284
    8AU    AUSL 2775  27.554  31.377   6.806
    8AU    AUSL 2776  27.785  31.053   6.992
    8AU     AUL 2777  27.847  31.071   6.664
    8AU    AUSL 2778  27.745  31.725   6.651
    8AU    AUSL 2779  27.436  31.741   7.006
    8AU     AUL 2780  27.326  31.584   6.742
    8AU    AUSL 2781  28.870  32.092   7.503
    8AU    AUSL 2782  28.731  31.852   7.156
    8AU     AUL 2783  29.022  32.008   7.091
    8AU    AUSL 2784  29.031  31.693   7.415
    8AU    AUSL 2785  28.960  31.409   7.808
    8AU     AUL 2786  29.246  31.535   7.702
    8AU    AUSL 2787  28.742  31.753   7.733
    8AU    AUSL 2788  28.569  32.161   7.782
    8AU     AUL 2789  28.940  31.947   7.876
    8AU    AUSL 2790  27.495  32.251   7.448
    8AU    AUSL 2791  27.522  32.046   7.823
    8AU     AUL 2792  27.207  32.274   7.637
    8AU    AUSL 2793  27.324  31.855   7.393
    8AU    AUSL 2794  27.473  32.164   7.042
    8AU     AUL 2795  27.214  32.085   7.184
    8AU    AUSL 2796  27.163  31.846   7.807
    8AU    AUSL 2797  27.155  31.474   7.368
    8AU     AUL 2798  26.977  31.817   7.496
    8AU    AUSL 2799  28.746  31.061   7.660
    8AU    AUSL 2800  28.570  31.351   7.958
    8AU     AUL 2801  28.875  31.250   8.049
    8AU    AUSL 2802  28.724  31.415   7.430
    8AU    AUSL 2803  28.719  31.010   7.236
    8AU     AUL 2804  28.983  31.228   7.327
    8AU    AUSL 2805  27.331  31.116   7.586
    8AU    AUSL 2806  27.502  31.304   7.211
    8AU     AUL 2807  27.139  31.179   7.255
    8AU    AUSL 2808  27.399  31.517   7.719
    8AU    AUSL 2809  27.619  31.162   7.893
    8AU     AUL 2810  27.301  31.158   7.936
    8AU    AUSL 2811  28.132  32.424   7.900
    8AU    AUSL 2812  27.688  32.442   7.779
    8AU     AUL 2813  27.885  32.510   8.143
    8AU    AUSL 2814  27.981  32.317   7.516
    8AU    AUSL 2815  28.230  32.424   7.173
    8AU     AUL 2816  27.970  32.670   7.446
    8AU    AUSL 2817  28.394  32.471   7.561
    8AU    AUSL 2818  28.406  32.249   8.164
    8AU     AUL 2819  28.497  32.503   7.898
    8AU    AUSL 2820  28.000  30.986   8.005
    8AU    AUSL 2821  28.422  30.951   7.901
    8AU     AUL 2822  28.170  30.876   8.268
    8AU    AUSL 2823  27.709  30.791   7.730
    8AU    AUSL 2824  27.770  31.158   8.307
    8AU     AUL 2825  27.662  30.861   8.076
    8AU    AUSL 2826  28.140  30.706   7.713
    8AU    AUSL 2827  27.938  30.923   7.395
    8AU     AUL 2828  27.838  30.572   7.501
    8AU    AUSL 2829  28.069  32.246   6.797
    8AU    AUSL 2830  28.606  32.261   7.231
    8AU     AUL 2831  28.393  32.343   6.854
    8AU    AUSL 2832  27.814  32.379   7.135
    8AU    AUSL 2833  27.834  31.954   6.979
    8AU     AUL 2834  27.753  32.226   6.767
    8AU    AUSL 2835  28.164  30.865   7.030
    8AU    AUSL 2836  27.535  30.879   7.301
    8AU     AUL 2837  27.821  30.727   7.066
    8AU    AUSL 2838  28.363  30.913   7.424
    8AU    AUSL 2839  28.405  31.212   7.025
    8AU     AUL 2840  28.486  30.837   7.050
    8AU       S 2841  28.612  30.752   8.307
    8AU     LIG 2842  28.814  30.318   8.358
    8AU     LIG 2843  29.054  29.914   8.418
    8AU     LIG 2844  29.379  29.681   8.696
    8AU       S 2845  28.479  31.515   8.763
    8AU     LIG 2846  28.883  31.594   8.769
    8AU     LIG 2847  29.000  31.621   9.221
    8AU     LIG 2848  28.775  31.651   9.651
    8AU       S 2849  28.136  31.354   8.654
    8AU     LIG 2850  28.166  31.329   9.109
    8AU     LIG 2851  28.582  31.268   9.359
    8AU     LIG 2852  28.899  31.142   9.716
    8AU       S 2853  27.689  31.712   8.628
    8AU     LIG 2854  27.784  31.716   9.069
    8AU     LIG 2855  27.411  31.643   9.323
    8AU     LIG 2856  27.176  31.782   9.697
    8AU       S 2857  28.140  32.284   8.529
    8AU     LIG 2858  28.451  32.542   8.716
    8AU     LIG 2859  28.873  32.369   8.778
    8AU     LIG 2860  29.162  32.034   8.827
    8AU       S 2861  28.875  32.176   8.284
    8AU     LIG 2862  29.293  32.115   8.324
    8AU     LIG 2863  29.512  32.395   8.627
    8AU     LIG 2864  29.680  32.788   8.849
    8AU       S 2865  28.477  31.745   6.350
    8AU     LIG 2866  28.903  31.778   6.221
    8AU     LIG 2867  29.047  31.445   5.952
    8AU     LIG 2868  28.924  31.030   5.793
    8AU       S 2869  28.824  32.471   6.874
    8AU     LIG 2870  28.750  32.777   6.582
    8AU     LIG 2871  29.049  32.803   6.252
    8AU     LIG 2872  29.286  32.808   5.869
    8AU       S 2873  29.036  31.167   6.858
    8AU     LIG 2874  29.067  31.202   6.402
    8AU     LIG 2875  28.922  30.791   6.265
    8AU     LIG 2876  29.085  30.338   6.304
    8AU       S 2877  28.476  31.552   6.276
    8AU     LIG 2878  28.511  31.157   6.127
    8AU     LIG 2879  28.408  31.034   5.686
    8AU     LIG 2880  28.312  31.276   5.273
    8AU       S 2881  27.668  31.376   6.336
    8AU     LIG 2882  27.956  31.233   6.041
    8AU     LIG 2883  27.921  31.186   5.600
    8AU     LIG 2884  27.721  31.312   5.225
    8AU       S 2885  28.254  31.878   6.468
    8AU     LIG 2886  28.035  31.743   6.083
    8AU     LIG 2887  28.288  31.528   5.769
    8AU     LIG 2888  28.703  31.448   5.568
    8AU       S 2889  27.486  31.828   8.681
    8AU     LIG 2890  27.180  31.565   8.763
    8AU     LIG 2891  27.126  31.263   9.064
    8AU     LIG 2892  27.031  31.304   9.506
    8AU       S 2893  27.409  32.440   8.139
    8AU     LIG 2894  27.358  32.529   8.553
    8AU     LIG 2895  27.135  32.350   8.902
    8AU     LIG 2896  26.721  32.463   9.089
    8AU       S 2897  27.309  31.212   8.431
    8AU     LIG 2898  26.915  31.313   8.267
    8AU     LIG 2899  26.696  30.943   8.156
    8AU     LIG 2900  26.702  30.672   8.545
    8AU       S 2901  27.670  31.532   8.581
    8AU     LIG 2902  27.632  31.262   8.937
    8AU     LIG 2903  27.535  31.153   9.379
    8AU     LIG 2904  27.452  31.342   9.801
    8AU       S 2905  27.498  31.288   6.440
    8AU     LIG 2906  27.264  31.248   6.066
    8AU     LIG 2907  27.427  31.377   5.665
    8AU     LIG 2908  27.361  31.688   5.321
    8AU       S 2909  27.446  30.889   6.825
    8AU     LIG 2910  27.456  30.481   6.682
    8AU     LIG 2911  27.238  30.229   6.377
    8AU     LIG 2912  26.895  30.308   6.064
    8AU       S 2913  27.148  32.006   6.705
    8AU     LIG 2914  26.867  32.320   6.874
    8AU     LIG 2915  26.922  32.772   6.801
    8AU     LIG 2916  26.893  33.062   6.454
    8AU       S 2917  27.682  31.665   6.431
    8AU     LIG 2918  27.335  31.748   6.207
    8AU     LIG 2919  27.468  31.868   5.809
    8AU     LIG 2920  27.830  31.701   5.579
    8AU       S 2921  28.879  32.347   6.839
    8AU     LIG 2922  29.285  32.252   6.692
    8AU     LIG 2923  29.509  32.492   6.371
    8AU     LIG 2924  29.768  32.651   6.018
    8AU       S 2925  29.078  32.214   7.515
    8AU     LIG 2926  29.290  32.533   7.649
    8AU     LIG 2927  29.668  32.505   7.430
    8AU     LIG 2928  29.992  32.258   7.540
    8AU       S 2929  29.318  31.915   7.440
    8AU     LIG 2930  29.529  32.054   7.120
    8AU     LIG 2931  29.931  31.987   7.040
    8AU     LIG 2932  30.264  32.175   7.115
    8AU       S 2933  29.221  31.053   7.819
    8AU     LIG 2934  29.560  30.775   7.988
    8AU     LIG 2935  29.998  30.880   8.012
    8AU     LIG 2936  30.188  31.185   7.758
    8AU       S 2937  28.912  32.373   8.050
    8AU     LIG 2938  29.322  32.598   8.167
    8AU     LIG 2939  29.525  32.953   8.370
    8AU     LIG 2940  29.440  33.236   8.728
    8AU       S 2941  29.316  32.023   7.635
    8AU     LIG 2942  29.605  31.904   7.905
    8AU     LIG 2943  29.969  32.141   8.053
    8AU     LIG 2944  30.308  32.224   8.357
    8AU       S 2945  27.326  32.259   8.080
    8AU     LIG 2946  27.114  32.096   8.436
    8AU     LIG 2947  26.708  32.223   8.624
    8AU     LIG 2948  26.368  32.554   8.676
    8AU       S 2949  27.432  32.577   7.341
    8AU     LIG 2950  27.207  32.961   7.342
    8AU     LIG 2951  26.834  33.120   7.173
    8AU     LIG 2952  26.470  32.862   7.093
    8AU       S 2953  26.940  31.721   7.036
    8AU     LIG 2954  26.468  31.789   7.039
    8AU     LIG 2955  26.047  31.972   7.182
    8AU     LIG 2956  25.990  32.377   7.375
    8AU       S 2957  27.348  32.423   6.870
    8AU     LIG 2958  27.428  32.859   6.787
    8AU     LIG 2959  27.267  33.263   6.912
    8AU     LIG 2960  26.977  33.527   6.659
    8AU       S 2961  26.929  31.374   7.641
    8AU     LIG 2962  26.602  31.426   7.376
    8AU     LIG 2963  26.128  31.477   7.336
    8AU     LIG 2964  25.781  31.164   7.370
    8AU       S 2965  27.034  31.877   7.974
    8AU     LIG 2966  26.681  32.012   8.159
    8AU     LIG 2967  26.380  32.363   8.180
    8AU     LIG 2968  26.061  32.540   7.871
    8AU       S 2969  28.916  30.907   7.684
    8AU     LIG 2970  29.029  30.497   7.546
    8AU     LIG 2971  29.433  30.340   7.691
    8AU     LIG 2972  29.880  30.470   7.705
    8AU       S 2973  28.777  30.828   8.170
    8AU     LIG 2974  29.095  30.593   8.033
    8AU     LIG 2975  29.348  30.309   8.237
    8AU     LIG 2976  29.382  30.208   8.691
    8AU       S 2977  29.214  31.021   7.650
    8AU     LIG 2978  29.308  30.822   7.288
    8AU     LIG 2979  29.634  30.531   7.232
    8AU     LIG 2980  30.069  30.639   7.249
    8AU       S 2981  28.942  30.912   6.961
    8AU     LIG 2982  28.903  30.532   6.762
    8AU     LIG 2983  28.882  30.092   6.741
    8AU     LIG 2984  28.948  29.642   6.661
    8AU       S 2985  27.311  30.988   6.881
    8AU     LIG 2986  27.044  31.045   6.547
    8AU     LIG 2987  26.762  30.713   6.379
    8AU     LIG 2988  26.344  30.487   6.413
    8AU       S 2989  26.925  31.140   7.678
    8AU     LIG 2990  26.613  30.940   7.628
    8AU     LIG 2991  26.275  31.003   7.406
    8AU     LIG 2992  26.033  30.821   7.064
    8AU       S 2993  27.317  31.001   8.367
    8AU     LIG 2994  27.150  30.685   8.071
    8AU     LIG 2995  26.769  30.419   8.117
    8AU     LIG 2996  26.493  30.172   8.419
    8AU       S 2997  26.950  31.420   7.796
    8AU     LIG 2998  26.506  31.363   7.909
    8AU     LIG 2999  26.164  31.057   7.907
    8AU     LIG 3000  25.694  31.113   7.876
    8AU       S 3001  27.555  32.617   7.814
    8AU     LIG 3002  27.114  32.719   7.843
    8AU     LIG 3003  26.892  32.526   8.214
    8AU     LIG 3004  26.867  32.709   8.638
    8AU       S 3005  28.136  32.792   7.858
    8AU     LIG 3006  28.323  32.812   8.252
    8AU     LIG 3007  28.310  33.278   8.240
    8AU     LIG 3008  28.010  33.621   8.089
    8AU       S 3009  28.293  32.952   7.730
    8AU     LIG 3010  27.973  33.278   7.622
    8AU     LIG 3011  27.870  33.733   7.603
    8AU     LIG 3012  27.717  34.044   7.938
    8AU       S 3013  28.162  32.719   7.019
    8AU     LIG 3014  28.197  33.128   7.194
    8AU     LIG 3015  28.261  33.597   7.272
    8AU     LIG 3016  28.414  33.989   7.039
    8AU       S 3017  28.646  32.348   8.314
    8AU     LIG 3018  28.854  32.729   8.403
    8AU     LIG 3019  29.174  32.780   8.719
    8AU     LIG 3020  29.296  32.505   9.083
    8AU       S 3021  28.433  32.770   7.510
    8AU     LIG 3022  28.600  33.245   7.487
    8AU     LIG 3023  28.413  33.538   7.776
    8AU     LIG 3024  28.444  33.921   8.031
    8AU       S 3025  27.964  30.494   8.102
    8AU     LIG 3026  28.315  30.224   8.236
    8AU     LIG 3027  28.338  29.778   8.373
    8AU     LIG 3028  28.021  29.486   8.616
    8AU       S 3029  28.556  30.784   8.004
    8AU     LIG 3030  28.651  30.388   7.873
    8AU     LIG 3031  28.995  30.078   7.917
    8AU     LIG 3032  29.393  29.831   8.020
    8AU       S 3033  27.786  30.430   7.939
    8AU     LIG 3034  27.601  30.039   7.979
    8AU     LIG 3035  27.722  29.703   8.236
    8AU     LIG 3036  28.056  29.460   8.102
    8AU       S 3037  27.585  31.066   8.490
    8AU     LIG 3038  27.519  30.561   8.445
    8AU     LIG 3039  27.104  30.313   8.498
    8AU     LIG 3040  26.764  30.264   8.849
    8AU       S 3041  28.258  30.462   7.331
    8AU     LIG 3042  28.222  30.011   7.233
    8AU     LIG 3043  27.991  29.840   6.935
    8AU     LIG 3044  27.800  29.500   6.753
    8AU       S 3045  28.134  30.531   7.879
    8AU     LIG 3046  28.229  30.144   7.733
    8AU     LIG 3047  28.545  29.817   7.776
    8AU     LIG 3048  28.703  29.440   8.008
    8AU       S 3049  28.015  32.627   6.745
    8AU     LIG 3050  27.921  33.089   6.747
    8AU     LIG 3051  28.187  33.479   6.778
    8AU     LIG 3052  28.333  33.856   6.552
    8AU       S 3053  28.764  32.443   7.171
    8AU     LIG 3054  29.236  32.523   7.136
    8AU     LIG 3055  29.243  32.788   6.747
    8AU     LIG 3056  29.130  33.220   6.563
    8AU       S 3057  27.818  32.640   6.998
    8AU     LIG 3058  27.694  33.023   7.205
    8AU     LIG 3059  27.782  33.456   7.107
    8AU     LIG 3060  27.893  33.874   6.984
    8AU       S 3061  27.371  32.050   6.606
    8AU     LIG 3062  27.183  32.428   6.406
    8AU     LIG 3063  27.327  32.834   6.273
    8AU     LIG 3064  27.380  33.268   6.410
    8AU       S 3065  27.344  30.768   7.111
    8AU     LIG 3066  26.974  30.583   6.842
    8AU     LIG 3067  26.751  30.215   6.568
    8AU     LIG 3068  26.466  30.035   6.188
    8AU       S 3069  28.210  30.498   7.185
    8AU     LIG 3070  28.432  30.336   6.856
    8AU     LIG 3071  28.281  30.041   6.548
    8AU     LIG 3072  27.982  29.750   6.352
    8AU       S 3073  28.503  30.582   7.441
    8AU     LIG 3074  28.708  30.193   7.278
    8AU     LIG 3075  28.634  29.777   7.060
    8AU     LIG 3076  28.406  29.576   6.690
    8AU       S 3077  28.746  31.018   6.726
    8AU     LIG 3078  28.439  30.795   6.549
    8AU     LIG 3079  28.575  30.404   6.356
    8AU     LIG 3080  28.715  29.953   6.280
    9AU     AUC 3081  31.521  17.460   7.522
    9AU     AUC 3082  31.781  17.458   7.359
    9AU     AUC 3083  31.759  17.458   7.695
    9AU     AUC 3084  31.254  17.454   7.363
    9AU     AUC 3085  31.268  17.503   7.688
    9AU     AUC 3086  31.362  17.720   7.483
    9AU     AUC 3087  31.703  17.727   7.495
    9AU     AUC 3088  31.347  17.202   7.545
    9AU     AUC 3089  31.681  17.187   7.545
    9AU     AUC 3090  31.512  17.314   7.800
    9AU     AUC 3091  31.525  17.657   7.765
    9AU     AUC 3092  31.523  17.272   7.272
    9AU     AUC 3093  31.537  17.584   7.249
    9AU     AUC 3094  32.097  17.457   7.205
    9AU     AUC 3095  32.082  17.440   7.546
    9AU     AUC 3096  32.036  17.437   7.902
    9AU     AUC 3097  30.955  17.415   7.219
    9AU     AUC 3098  30.949  17.497   7.544
    9AU     AUC 3099  30.971  17.558   7.863
    9AU     AUC 3100  31.200  18.022   7.419
    9AU     AUC 3101  31.559  18.009   7.411
    9AU     AUC 3102  31.895  17.998   7.454
    9AU     AUC 3103  31.156  16.918   7.565
    9AU     AUC 3104  31.505  16.896   7.547
    9AU     AUC 3105  31.857  16.891   7.561
    9AU     AUC 3106  31.481  17.158   8.103
    9AU     AUC 3107  31.500  17.510   8.086
    9AU     AUC 3108  31.554  17.869   8.043
    9AU     AUC 3109  31.560  17.080   6.995
    9AU     AUC 3110  31.513  17.408   6.945
    9AU     AUC 3111  31.502  17.724   6.935
    9AU     AUC 3112  31.751  17.276   8.014
    9AU     AUC 3113  31.801  17.637   7.987
    9AU     AUC 3114  31.832  17.289   7.067
    9AU     AUC 3115  31.801  17.602   7.072
    9AU     AUC 3116  31.220  17.379   7.998
    9AU     AUC 3117  31.260  17.733   7.947
    9AU     AUC 3118  31.246  17.230   7.100
    9AU     AUC 3119  31.207  17.540   7.053
    9AU     AUC 3120  32.017  17.728   7.340
    9AU     AUC 3121  31.961  17.724   7.690
    9AU     AUC 3122  31.061  17.729   7.342
    9AU     AUC 3123  31.101  17.819   7.669
    9AU     AUC 3124  31.987  17.175   7.395
    9AU     AUC 3125  31.933  17.145   7.741
    9AU     AUC 3126  31.056  17.151   7.396
    9AU     AUC 3127  31.076  17.234   7.726
    9AU     AUC 3128  31.410  17.967   7.739
    9AU     AUC 3129  31.731  17.933   7.765
    9AU     AUC 3130  31.325  17.037   7.832
    9AU     AUC 3131  31.638  16.985   7.822
    9AU     AUC 3132  31.338  17.872   7.170
    9AU     AUC 3133  31.699  17.899   7.187
    9AU     AUC 3134  31.367  16.982   7.270
    9AU     AUC 3135  31.737  17.020   7.272
    9AU    AUSL 3136  32.000  17.381   8.302
    9AU    AUSL 3137  31.767  16.996   8.225
    9AU     AUL 3138  32.073  17.033   8.411
    9AU    AUSL 3139  31.589  17.325   8.427
    9AU    AUSL 3140  31.353  17.720   8.408
    9AU     AUL 3141  31.586  17.634   8.692
    9AU    AUSL 3142  31.700  17.681   8.183
    9AU    AUSL 3143  32.144  17.730   8.111
    9AU     AUL 3144  31.985  17.696   8.448
    9AU    AUSL 3145  31.965  17.480   6.866
    9AU    AUSL 3146  31.818  17.870   6.958
    9AU     AUL 3147  32.029  17.803   6.672
    9AU    AUSL 3148  31.788  17.190   6.613
    9AU    AUSL 3149  32.271  17.227   6.998
    9AU     AUL 3150  32.171  17.346   6.646
    9AU    AUSL 3151  31.598  17.609   6.692
    9AU    AUSL 3152  31.415  17.219   6.805
    9AU     AUL 3153  31.515  17.261   6.474
    9AU    AUSL 3154  30.972  17.676   8.197
    9AU    AUSL 3155  31.307  17.989   8.085
    9AU     AUL 3156  31.133  17.968   8.408
    9AU    AUSL 3157  31.260  17.367   8.175
    9AU    AUSL 3158  30.848  17.252   8.129
    9AU     AUL 3159  30.777  17.475   8.280
    9AU    AUSL 3160  30.986  17.217   6.807
    9AU    AUSL 3161  31.221  16.895   6.987
    9AU     AUL 3162  31.258  16.915   6.659
    9AU    AUSL 3163  31.177  17.565   6.653
    9AU    AUSL 3164  30.879  17.583   7.011
    9AU     AUL 3165  30.759  17.412   6.755
    9AU    AUSL 3166  32.290  17.929   7.491
    9AU    AUSL 3167  32.223  17.729   7.088
    9AU     AUL 3168  32.557  17.925   7.167
    9AU    AUSL 3169  32.466  17.543   7.389
    9AU    AUSL 3170  32.419  17.246   7.766
    9AU     AUL 3171  32.719  17.317   7.568
    9AU    AUSL 3172  32.184  17.585   7.721
    9AU    AUSL 3173  32.010  17.989   7.793
    9AU     AUL 3174  32.378  17.757   7.868
    9AU    AUSL 3175  30.946  18.092   7.459
    9AU    AUSL 3176  30.977  17.880   7.830
    9AU     AUL 3177  30.660  18.114   7.654
    9AU    AUSL 3178  30.775  17.697   7.400
    9AU    AUSL 3179  30.913  18.004   7.053
    9AU     AUL 3180  30.658  17.927   7.198
    9AU    AUSL 3181  30.616  17.683   7.814
    9AU    AUSL 3182  30.601  17.320   7.377
    9AU     AUL 3183  30.427  17.655   7.509
    9AU    AUSL 3184  32.196  16.899   7.626
    9AU    AUSL 3185  32.035  17.181   7.936
    9AU     AUL 3186  32.340  17.088   8.016
    9AU    AUSL 3187  32.169  17.254   7.399
    9AU    AUSL 3188  32.163  16.849   7.203
    9AU     AUL 3189  32.425  17.063   7.285
    9AU    AUSL 3190  30.771  16.957   7.581
    9AU    AUSL 3191  30.946  17.149   7.213
    9AU     AUL 3192  30.585  17.053   7.242
    9AU    AUSL 3193  30.850  17.353   7.725
    9AU    AUSL 3194  31.072  16.986   7.880
    9AU     AUL 3195  30.756  16.986   7.924
    9AU    AUSL 3196  31.590  18.247   7.901
    9AU    AUSL 3197  31.146  18.273   7.792
    9AU     AUL 3198  31.351  18.329   8.158
    9AU    AUSL 3199  31.430  18.152   7.517
    9AU    AUSL 3200  31.672  18.266   7.174
    9AU     AUL 3201  31.420  18.503   7.449
    9AU    AUSL 3202  31.851  18.294   7.557
    9AU    AUSL 3203  31.850  18.067   8.177
    9AU     AUL 3204  31.951  18.325   7.916
    9AU    AUSL 3205  31.461  16.820   7.985
    9AU    AUSL 3206  31.882  16.782   7.875
    9AU     AUL 3207  31.634  16.704   8.249
    9AU    AUSL 3208  31.166  16.615   7.718
    9AU    AUSL 3209  31.225  16.976   8.293
    9AU     AUL 3210  31.142  16.675   8.066
    9AU    AUSL 3211  31.596  16.540   7.689
    9AU    AUSL 3212  31.385  16.754   7.379
    9AU     AUL 3213  31.276  16.397   7.487
    9AU    AUSL 3214  31.509  18.094   6.793
    9AU    AUSL 3215  32.060  18.119   7.201
    9AU     AUL 3216  31.838  18.211   6.857
    9AU    AUSL 3217  31.257  18.216   7.139
    9AU    AUSL 3218  31.275  17.798   6.976
    9AU     AUL 3219  31.185  18.065   6.769
    9AU    AUSL 3220  31.601  16.711   7.005
    9AU    AUSL 3221  30.978  16.722   7.301
    9AU     AUL 3222  31.259  16.565   7.055
    9AU    AUSL 3223  31.810  16.752   7.396
    9AU    AUSL 3224  31.844  17.055   7.004
    9AU     AUL 3225  31.929  16.694   7.008
    9AU       S 3226  32.080  16.583   8.268
    9AU     LIG 3227  32.228  16.231   8.499
    9AU     LIG 3228  32.284  15.852   8.796
    9AU     LIG 3229  32.644  15.607   8.939
    9AU       S 3230  31.946  17.321   8.748
    9AU     LIG 3231  32.372  17.389   8.668
    9AU     LIG 3232  32.563  17.422   9.087
    9AU     LIG 3233  32.486  17.358   9.551
    9AU       S 3234  31.598  17.159   8.637
    9AU     LIG 3235  31.618  17.160   9.088
    9AU     LIG 3236  32.017  17.151   9.353
    9AU     LIG 3237  32.253  16.914   9.690
    9AU       S 3238  31.143  17.524   8.626
    9AU     LIG 3239  31.223  17.505   9.073
    9AU     LIG 3240  30.877  17.347   9.357
    9AU     LIG 3241  30.557  17.417   9.696
    9AU       S 3242  31.595  18.093   8.550
    9AU     LIG 3243  31.869  18.423   8.685
    9AU     LIG 3244  32.213  18.212   8.870
    9AU     LIG 3245  32.176  17.763   8.948
    9AU       S 3246  32.318  17.991   8.267
    9AU     LIG 3247  32.523  17.909   8.586
    9AU     LIG 3248  32.734  18.223   8.814
    9AU     LIG 3249  33.018  18.526   9.014
    9AU       S 3250  31.876  17.578   6.310
    9AU     LIG 3251  32.315  17.644   6.201
    9AU     LIG 3252  32.503  17.297   5.966
    9AU     LIG 3253  32.363  16.944   5.697
    9AU       S 3254  32.290  18.172   6.803
    9AU     LIG 3255  32.179  18.459   6.495
    9AU     LIG 3256  32.413  18.591   6.102
    9AU     LIG 3257  32.796  18.803   5.921
    9AU       S 3258  32.446  16.992   6.805
    9AU     LIG 3259  32.518  16.921   6.335
    9AU     LIG 3260  32.537  16.508   6.144
    9AU     LIG 3261  32.621  16.089   6.293
    9AU       S 3262  31.893  17.404   6.268
    9AU     LIG 3263  31.850  17.050   6.045
    9AU     LIG 3264  31.857  16.979   5.590
    9AU     LIG 3265  32.099  17.086   5.207
    9AU       S 3266  31.081  17.227   6.334
    9AU     LIG 3267  31.310  17.138   5.973
    9AU     LIG 3268  31.357  17.135   5.513
    9AU     LIG 3269  31.153  17.276   5.114
    9AU       S 3270  31.626  17.718   6.439
    9AU     LIG 3271  31.425  17.619   6.072
    9AU     LIG 3272  31.683  17.451   5.761
    9AU     LIG 3273  32.124  17.418   5.639
    9AU       S 3274  30.938  17.638   8.679
    9AU     LIG 3275  30.632  17.358   8.758
    9AU     LIG 3276  30.518  17.068   9.050
    9AU     LIG 3277  30.442  16.966   9.469
    9AU       S 3278  30.874  18.265   8.157
    9AU     LIG 3279  30.821  18.368   8.561
    9AU     LIG 3280  30.452  18.387   8.824
    9AU     LIG 3281  30.024  18.452   9.025
    9AU       S 3282  30.756  17.023   8.409
    9AU     LIG 3283  30.347  16.938   8.539
    9AU     LIG 3284  30.062  16.610   8.385
    9AU     LIG 3285  29.835  16.322   8.665
    9AU       S 3286  31.124  17.344   8.575
    9AU     LIG 3287  31.035  17.063   8.929
    9AU     LIG 3288  30.917  16.838   9.324
    9AU     LIG 3289  30.847  16.975   9.783
    9AU       S 3290  30.908  17.129   6.426
    9AU     LIG 3291  30.818  16.926   6.015
    9AU     LIG 3292  30.852  17.148   5.604
    9AU     LIG 3293  30.792  17.556   5.386
    9AU       S 3294  30.868  16.713   6.827
    9AU     LIG 3295  30.585  16.465   6.564
    9AU     LIG 3296  30.530  16.411   6.115
    9AU     LIG 3297  30.169  16.401   5.855
    9AU       S 3298  30.603  17.840   6.713
    9AU     LIG 3299  30.314  18.158   6.690
    9AU     LIG 3300  30.299  18.570   6.466
    9AU     LIG 3301  30.446  18.660   6.034
    9AU       S 3302  31.107  17.506   6.438
    9AU     LIG 3303  30.881  17.675   6.148
    9AU     LIG 3304  31.039  17.804   5.757
    9AU     LIG 3305  31.321  17.655   5.430
    9AU       S 3306  32.392  18.066   6.774
    9AU     LIG 3307  32.529  18.112   6.333
    9AU     LIG 3308  32.845  18.300   6.037
    9AU     LIG 3309  33.244  18.502   5.862
    9AU       S 3310  32.446  18.126   7.578
    9AU     LIG 3311  32.765  18.353   7.354
    9AU     LIG 3312  33.182  18.381   7.566
    9AU     LIG 3313  33.495  18.576   7.834
    9AU       S 3314  32.744  17.784   7.566
    9AU     LIG 3315  33.088  17.926   7.323
    9AU     LIG 3316  33.518  18.073   7.337
    9AU     LIG 3317  33.914  18.072   7.084
    9AU       S 3318  32.669  16.869   7.779
    9AU     LIG 3319  33.010  16.592   7.945
    9AU     LIG 3320  33.466  16.628   7.960
    9AU     LIG 3321  33.651  16.766   7.567
    9AU       S 3322  32.356  18.177   8.072
    9AU     LIG 3323  32.758  18.270   8.260
    9AU     LIG 3324  32.877  18.640   8.525
    9AU     LIG 3325  32.877  18.995   8.847
    9AU       S 3326  32.715  17.978   7.675
    9AU     LIG 3327  33.090  17.962   7.887
    9AU     LIG 3328  33.506  18.055   7.903
    9AU     LIG 3329  33.806  18.309   8.180
    9AU       S 3330  30.788  18.088   8.095
    9AU     LIG 3331  30.529  17.959   8.440
    9AU     LIG 3332  30.085  18.131   8.574
    9AU     LIG 3333  29.673  18.392   8.599
    9AU       S 3334  30.878  18.416   7.359
    9AU     LIG 3335  30.662  18.832   7.428
    9AU     LIG 3336  30.287  18.904   7.211
    9AU     LIG 3337  30.171  18.559   6.961
    9AU       S 3338  30.388  17.564   7.046
    9AU     LIG 3339  29.989  17.620   6.872
    9AU     LIG 3340  29.615  17.871   6.933
    9AU     LIG 3341  29.599  18.344   6.986
    9AU       S 3342  30.778  18.261   6.883
    9AU     LIG 3343  30.687  18.684   6.924
    9AU     LIG 3344  30.427  19.004   6.727
    9AU     LIG 3345  30.320  19.083   6.290
    9AU       S 3346  30.362  17.211   7.645
    9AU     LIG 3347  30.093  17.203   7.293
    9AU     LIG 3348  29.685  17.299   7.131
    9AU     LIG 3349  29.358  17.057   6.959
    9AU       S 3350  30.480  17.724   7.988
    9AU     LIG 3351  30.095  17.734   8.222
    9AU     LIG 3352  29.685  17.993   8.247
    9AU     LIG 3353  29.473  18.389   8.083
    9AU       S 3354  32.361  16.745   7.648
    9AU     LIG 3355  32.451  16.408   7.396
    9AU     LIG 3356  32.832  16.245   7.554
    9AU     LIG 3357  33.276  16.377   7.557
    9AU       S 3358  32.256  16.659   8.128
    9AU     LIG 3359  32.582  16.342   8.039
    9AU     LIG 3360  32.934  16.174   8.300
    9AU     LIG 3361  32.906  15.988   8.729
    9AU       S 3362  32.651  16.824   7.591
    9AU     LIG 3363  32.874  16.675   7.243
    9AU     LIG 3364  33.341  16.703   7.148
    9AU     LIG 3365  33.815  16.820   7.084
    9AU       S 3366  32.394  16.740   6.931
    9AU     LIG 3367  32.341  16.317   6.890
    9AU     LIG 3368  32.371  15.898   6.716
    9AU     LIG 3369  32.500  15.610   6.371
    9AU       S 3370  30.751  16.826   6.886
    9AU     LIG 3371  30.423  16.949   6.637
    9AU     LIG 3372  30.152  16.705   6.320
    9AU     LIG 3373  29.776  16.445   6.170
    9AU       S 3374  30.378  16.980   7.664
    9AU     LIG 3375  30.225  16.625   7.620
    9AU     LIG 3376  29.813  16.658   7.488
    9AU     LIG 3377  29.470  16.501   7.741
    9AU       S 3378  30.778  16.784   8.331
    9AU     LIG 3379  30.645  16.517   7.970
    9AU     LIG 3380  30.286  16.263   8.038
    9AU     LIG 3381  30.117  16.012   8.368
    9AU       S 3382  30.409  17.260   7.817
    9AU     LIG 3383  30.128  17.066   8.091
    9AU     LIG 3384  29.717  16.990   7.924
    9AU     LIG 3385  29.483  17.056   7.544
    9AU       S 3386  31.022  18.443   7.829
    9AU     LIG 3387  30.588  18.559   7.880
    9AU     LIG 3388  30.370  18.452   8.277
    9AU     LIG 3389  30.093  18.700   8.574
    9AU       S 3390  31.589  18.606   7.862
    9AU     LIG 3391  31.698  18.726   8.267
    9AU     LIG 3392  31.575  19.172   8.441
    9AU     LIG 3393  31.334  19.607   8.495
    9AU       S 3394  31.748  18.761   7.738
    9AU     LIG 3395  31.512  19.097   7.927
    9AU     LIG 3396  31.338  19.488   7.990
    9AU     LIG 3397  31.385  19.930   8.075
    9AU       S 3398  31.571  18.570   7.004
    9AU     LIG 3399  31.606  18.924   7.247
    9AU     LIG 3400  31.685  19.329   7.173
    9AU     LIG 3401  31.980  19.567   6.905
    9AU       S 3402  32.098  18.161   8.336
    9AU     LIG 3403  32.350  18.504   8.471
    9AU     LIG 3404  32.478  18.664   8.871
    9AU     LIG 3405  32.572  18.475   9.275
    9AU       S 3406  31.886  18.587   7.522
    9AU     LIG 3407  32.019  19.090   7.509
    9AU     LIG 3408  31.923  19.402   7.844
    9AU     LIG 3409  31.782  19.603   8.229
    9AU       S 3410  31.454  16.313   8.077
    9AU     LIG 3411  31.851  16.116   8.179
    9AU     LIG 3412  32.012  15.741   8.367
    9AU     LIG 3413  31.865  15.384   8.633
    9AU       S 3414  32.018  16.627   7.980
    9AU     LIG 3415  32.151  16.286   7.792
    9AU     LIG 3416  32.287  15.912   7.976
    9AU     LIG 3417  32.539  15.867   8.360
    9AU       S 3418  31.269  16.238   7.923
    9AU     LIG 3419  31.325  15.773   7.773
    9AU     LIG 3420  31.410  15.322   7.915
    9AU     LIG 3421  31.361  14.944   8.195
    9AU       S 3422  31.014  16.889   8.472
    9AU     LIG 3423  30.713  16.669   8.802
    9AU     LIG 3424  30.377  16.345   8.720
    9AU     LIG 3425  30.437  15.876   8.749
    9AU       S 3426  31.679  16.313   7.284
    9AU     LIG 3427  31.596  15.866   7.217
    9AU     LIG 3428  31.570  15.533   6.924
    9AU     LIG 3429  31.458  15.096   6.893
    9AU       S 3430  31.602  16.369   7.838
    9AU     LIG 3431  31.759  16.006   7.679
    9AU     LIG 3432  31.860  15.619   7.866
    9AU     LIG 3433  32.004  15.270   8.143
    9AU       S 3434  31.443  18.463   6.739
    9AU     LIG 3435  31.229  18.874   6.701
    9AU     LIG 3436  31.366  19.305   6.748
    9AU     LIG 3437  31.635  19.605   6.509
    9AU       S 3438  32.233  18.272   7.113
    9AU     LIG 3439  32.493  18.592   6.947
    9AU     LIG 3440  32.697  18.561   6.541
    9AU     LIG 3441  33.088  18.666   6.330
    9AU       S 3442  31.244  18.471   7.006
    9AU     LIG 3443  31.115  18.830   7.198
    9AU     LIG 3444  30.904  19.146   7.008
    9AU     LIG 3445  30.856  19.240   6.582
    9AU       S 3446  30.803  17.884   6.615
    9AU     LIG 3447  30.742  18.283   6.391
    9AU     LIG 3448  30.787  18.748   6.419
    9AU     LIG 3449  30.805  19.077   6.089
    9AU       S 3450  30.793  16.638   7.140
    9AU     LIG 3451  30.327  16.657   7.095
    9AU     LIG 3452  30.084  16.464   6.774
    9AU     LIG 3453  30.157  16.184   6.411
    9AU       S 3454  31.664  16.343   7.131
    9AU     LIG 3455  31.874  16.120   6.824
    9AU     LIG 3456  31.901  15.753   6.568
    9AU     LIG 3457  31.751  15.341   6.473
    9AU       S 3458  31.927  16.426   7.384
    9AU     LIG 3459  32.100  16.050   7.279
    9AU     LIG 3460  32.066  15.680   7.067
    9AU     LIG 3461  32.221  15.391   6.741
    9AU       S 3462  32.178  16.880   6.682
    9AU     LIG 3463  31.986  16.548   6.533
    9AU     LIG 3464  32.122  16.173   6.357
    9AU     LIG 3465  32.230  15.892   6.007
   10AU     AUC 3466  17.282   0.711   7.543
   10AU     AUC 3467  17.545   0.700   7.383
   10AU     AUC 3468  17.516   0.711   7.721
   10AU     AUC 3469  17.016   0.704   7.380
   10AU     AUC 3470  17.026   0.759   7.704
   10AU     AUC 3471  17.128   0.972   7.501
   10AU     AUC 3472  17.466   0.973   7.517
   10AU     AUC 3473  17.105   0.456   7.566
   10AU     AUC 3474  17.440   0.436   7.574
   10AU     AUC 3475  17.266   0.569   7.824
   10AU     AUC 3476  17.286   0.912   7.785
   10AU     AUC 3477  17.288   0.519   7.299
   10AU     AUC 3478  17.303   0.831   7.264
   10AU     AUC 3479  17.860   0.681   7.232
   10AU     AUC 3480  17.841   0.692   7.581
   10AU     AUC 3481  17.792   0.699   7.933
   10AU     AUC 3482  16.717   0.669   7.226
   10AU     AUC 3483  16.710   0.754   7.553
   10AU     AUC 3484  16.726   0.818   7.873
   10AU     AUC 3485  16.971   1.275   7.434
   10AU     AUC 3486  17.319   1.260   7.437
   10AU     AUC 3487  17.656   1.247   7.488
   10AU     AUC 3488  16.909   0.173   7.587
   10AU     AUC 3489  17.257   0.147   7.577
   10AU     AUC 3490  17.616   0.141   7.595
   10AU     AUC 3491  17.226   0.413   8.127
   10AU     AUC 3492  17.252   0.766   8.107
   10AU     AUC 3493  17.314   1.123   8.063
   10AU     AUC 3494  17.322   0.316   7.031
   10AU     AUC 3495  17.286   0.642   6.972
   10AU     AUC 3496  17.300   0.963   6.951
   10AU     AUC 3497  17.500   0.529   8.043
   10AU     AUC 3498  17.562   0.898   8.009
   10AU     AUC 3499  17.601   0.519   7.096
   10AU     AUC 3500  17.577   0.834   7.073
   10AU     AUC 3501  16.971   0.641   8.015
   10AU     AUC 3502  17.017   0.992   7.962
   10AU     AUC 3503  17.006   0.477   7.121
   10AU     AUC 3504  16.974   0.790   7.069
   10AU     AUC 3505  17.758   0.959   7.351
   10AU     AUC 3506  17.725   0.987   7.715
   10AU     AUC 3507  16.827   0.984   7.353
   10AU     AUC 3508  16.863   1.076   7.680
   10AU     AUC 3509  17.753   0.418   7.442
   10AU     AUC 3510  17.690   0.406   7.776
   10AU     AUC 3511  16.815   0.404   7.411
   10AU     AUC 3512  16.829   0.493   7.742
   10AU     AUC 3513  17.175   1.220   7.759
   10AU     AUC 3514  17.509   1.185   7.792
   10AU     AUC 3515  17.077   0.294   7.855
   10AU     AUC 3516  17.386   0.240   7.850
   10AU     AUC 3517  17.113   1.113   7.194
   10AU     AUC 3518  17.471   1.132   7.191
   10AU     AUC 3519  17.125   0.232   7.296
   10AU     AUC 3520  17.501   0.262   7.310
   10AU    AUSL 3521  17.741   0.631   8.347
   10AU    AUSL 3522  17.507   0.248   8.252
   10AU     AUL 3523  17.796   0.279   8.460
   10AU    AUSL 3524  17.326   0.578   8.452
   10AU    AUSL 3525  17.100   0.980   8.426
   10AU     AUL 3526  17.317   0.888   8.717
   10AU    AUSL 3527  17.449   0.931   8.208
   10AU    AUSL 3528  17.902   0.959   8.136
   10AU     AUL 3529  17.719   0.943   8.478
   10AU    AUSL 3530  17.757   0.680   6.851
   10AU    AUSL 3531  17.710   1.108   6.820
   10AU     AUL 3532  18.039   0.871   6.690
   10AU    AUSL 3533  17.534   0.375   6.654
   10AU    AUSL 3534  18.044   0.445   7.043
   10AU     AUL 3535  17.897   0.406   6.680
   10AU    AUSL 3536  17.378   0.838   6.747
   10AU    AUSL 3537  17.174   0.460   6.843
   10AU     AUL 3538  17.301   0.503   6.504
   10AU    AUSL 3539  16.721   0.940   8.209
   10AU    AUSL 3540  17.065   1.245   8.100
   10AU     AUL 3541  16.881   1.228   8.423
   10AU    AUSL 3542  17.005   0.628   8.192
   10AU    AUSL 3543  16.592   0.518   8.136
   10AU     AUL 3544  16.525   0.740   8.290
   10AU    AUSL 3545  16.747   0.468   6.822
   10AU    AUSL 3546  16.974   0.132   7.005
   10AU     AUL 3547  17.037   0.151   6.690
   10AU    AUSL 3548  16.965   0.800   6.652
   10AU    AUSL 3549  16.640   0.841   7.013
   10AU     AUL 3550  16.549   0.705   6.733
   10AU    AUSL 3551  18.031   1.190   7.474
   10AU    AUSL 3552  17.945   0.918   7.142
   10AU     AUL 3553  18.258   1.078   7.085
   10AU    AUSL 3554  18.235   0.799   7.431
   10AU    AUSL 3555  18.167   0.525   7.827
   10AU     AUL 3556  18.475   0.607   7.658
   10AU    AUSL 3557  17.935   0.858   7.732
   10AU    AUSL 3558  17.854   1.273   7.846
   10AU     AUL 3559  18.156   1.019   7.874
   10AU    AUSL 3560  16.716   1.348   7.467
   10AU    AUSL 3561  16.737   1.138   7.840
   10AU     AUL 3562  16.427   1.380   7.658
   10AU    AUSL 3563  16.543   0.954   7.403
   10AU    AUSL 3564  16.693   1.263   7.060
   10AU     AUL 3565  16.430   1.191   7.200
   10AU    AUSL 3566  16.374   0.948   7.812
   10AU    AUSL 3567  16.361   0.578   7.380
   10AU     AUL 3568  16.189   0.918   7.503
   10AU    AUSL 3569  17.968   0.164   7.689
   10AU    AUSL 3570  17.780   0.443   7.976
   10AU     AUL 3571  18.087   0.358   8.085
   10AU    AUSL 3572  17.939   0.506   7.441
   10AU    AUSL 3573  17.931   0.088   7.272
   10AU     AUL 3574  18.199   0.332   7.348
   10AU    AUSL 3575  16.526   0.217   7.594
   10AU    AUSL 3576  16.708   0.399   7.227
   10AU     AUL 3577  16.346   0.299   7.250
   10AU    AUSL 3578  16.605   0.615   7.731
   10AU    AUSL 3579  16.823   0.251   7.896
   10AU     AUL 3580  16.501   0.239   7.925
   10AU    AUSL 3581  17.359   1.501   7.927
   10AU    AUSL 3582  16.913   1.529   7.804
   10AU     AUL 3583  17.111   1.584   8.178
   10AU    AUSL 3584  17.206   1.404   7.540
   10AU    AUSL 3585  17.445   1.586   7.217
   10AU     AUL 3586  17.171   1.770   7.472
   10AU    AUSL 3587  17.629   1.509   7.588
   10AU    AUSL 3588  17.618   1.308   8.196
   10AU     AUL 3589  17.730   1.574   7.968
   10AU    AUSL 3590  17.201   0.066   8.017
   10AU    AUSL 3591  17.619   0.051   7.891
   10AU     AUL 3592  17.379  44.959   8.277
   10AU    AUSL 3593  16.910  44.873   7.744
   10AU    AUSL 3594  16.967   0.240   8.315
   10AU     AUL 3595  16.860  44.961   8.093
   10AU    AUSL 3596  17.344  44.787   7.723
   10AU    AUSL 3597  17.138   0.009   7.409
   10AU     AUL 3598  17.046  44.649   7.528
   10AU    AUSL 3599  17.340   1.302   6.891
   10AU    AUSL 3600  17.710   1.268   7.213
   10AU     AUL 3601  17.579   1.474   6.879
   10AU    AUSL 3602  17.043   1.460   7.159
   10AU    AUSL 3603  17.036   1.034   6.980
   10AU     AUL 3604  17.013   1.318   6.785
   10AU    AUSL 3605  17.359  44.959   7.034
   10AU    AUSL 3606  16.733  44.970   7.323
   10AU     AUL 3607  17.026  44.817   7.104
   10AU    AUSL 3608  17.562  44.991   7.425
   10AU    AUSL 3609  17.619   0.291   7.054
   10AU     AUL 3610  17.699  44.959   7.021
   10AU       S 3611  17.826  44.851   8.270
   10AU     LIG 3612  17.744  44.496   8.435
   10AU     LIG 3613  18.160  44.433   8.635
   10AU     LIG 3614  18.163  44.235   9.049
   10AU       S 3615  17.677   0.580   8.787
   10AU     LIG 3616  18.102   0.597   8.730
   10AU     LIG 3617  18.290   0.683   9.143
   10AU     LIG 3618  18.224   0.685   9.614
   10AU       S 3619  17.337   0.414   8.666
   10AU     LIG 3620  17.364   0.423   9.131
   10AU     LIG 3621  17.788   0.436   9.359
   10AU     LIG 3622  18.019   0.224   9.717
   10AU       S 3623  16.875   0.784   8.644
   10AU     LIG 3624  16.969   0.785   9.098
   10AU     LIG 3625  16.742   0.699   9.500
   10AU     LIG 3626  16.480   0.756   9.896
   10AU       S 3627  17.355   1.342   8.563
   10AU     LIG 3628  17.614   1.679   8.668
   10AU     LIG 3629  17.988   1.517   8.862
   10AU     LIG 3630  18.044   1.079   8.867
   10AU       S 3631  18.091   1.180   8.311
   10AU     LIG 3632  18.413   1.248   8.562
   10AU     LIG 3633  18.506   1.579   8.837
   10AU     LIG 3634  18.700   1.929   9.079
   10AU       S 3635  17.681   0.863   6.394
   10AU     LIG 3636  18.082   0.899   6.166
   10AU     LIG 3637  18.264   0.535   5.997
   10AU     LIG 3638  18.214   0.137   5.794
   10AU       S 3639  17.999   1.336   6.762
   10AU     LIG 3640  18.018   1.774   6.560
   10AU     LIG 3641  18.216   2.071   6.235
   10AU     LIG 3642  18.554   2.215   5.938
   10AU       S 3643  18.282   0.219   6.894
   10AU     LIG 3644  18.260   0.207   6.401
   10AU     LIG 3645  18.229  44.804   6.199
   10AU     LIG 3646  18.359  44.391   6.044
   10AU       S 3647  17.689   0.677   6.350
   10AU     LIG 3648  17.796   0.323   6.146
   10AU     LIG 3649  17.715   0.179   5.723
   10AU     LIG 3650  17.779   0.196   5.263
   10AU       S 3651  16.865   0.432   6.357
   10AU     LIG 3652  17.019   0.447   5.975
   10AU     LIG 3653  17.027   0.493   5.533
   10AU     LIG 3654  16.929   0.444   5.081
   10AU       S 3655  17.423   0.961   6.473
   10AU     LIG 3656  17.246   0.878   6.099
   10AU     LIG 3657  17.485   0.641   5.811
   10AU     LIG 3658  17.916   0.633   5.626
   10AU       S 3659  16.676   0.899   8.694
   10AU     LIG 3660  16.423   0.545   8.805
   10AU     LIG 3661  16.256   0.292   9.104
   10AU     LIG 3662  16.302   0.402   9.559
   10AU       S 3663  16.636   1.533   8.166
   10AU     LIG 3664  16.542   1.636   8.576
   10AU     LIG 3665  16.195   1.591   8.883
   10AU     LIG 3666  15.858   1.780   9.166
   10AU       S 3667  16.493   0.286   8.399
   10AU     LIG 3668  16.111   0.462   8.399
   10AU     LIG 3669  15.805   0.279   8.713
   10AU     LIG 3670  15.357   0.331   8.858
   10AU       S 3671  16.866   0.613   8.588
   10AU     LIG 3672  16.896   0.324   8.922
   10AU     LIG 3673  16.733   0.216   9.313
   10AU     LIG 3674  16.743   0.253   9.786
   10AU       S 3675  16.677   0.348   6.474
   10AU     LIG 3676  16.381   0.448   6.203
   10AU     LIG 3677  16.540   0.505   5.780
   10AU     LIG 3678  16.550   0.693   5.353
   10AU       S 3679  16.649  44.911   6.825
   10AU     LIG 3680  16.471  44.505   6.621
   10AU     LIG 3681  16.339  44.380   6.229
   10AU     LIG 3682  16.269  44.688   5.930
   10AU       S 3683  16.363   1.125   6.718
   10AU     LIG 3684  16.111   1.508   6.801
   10AU     LIG 3685  16.006   1.883   6.540
   10AU     LIG 3686  15.861   2.047   6.117
   10AU       S 3687  16.890   0.712   6.414
   10AU     LIG 3688  16.679   0.880   6.133
   10AU     LIG 3689  16.840   0.937   5.725
   10AU     LIG 3690  17.222   0.971   5.472
   10AU       S 3691  18.056   1.453   6.951
   10AU     LIG 3692  18.452   1.552   6.720
   10AU     LIG 3693  18.605   1.747   6.318
   10AU     LIG 3694  18.960   1.906   6.063
   10AU       S 3695  18.219   1.323   7.506
   10AU     LIG 3696  18.517   1.504   7.232
   10AU     LIG 3697  18.943   1.513   7.438
   10AU     LIG 3698  19.222   1.856   7.628
   10AU       S 3699  18.479   1.045   7.495
   10AU     LIG 3700  18.796   1.043   7.245
   10AU     LIG 3701  19.244   1.031   7.272
   10AU     LIG 3702  19.644   1.054   7.009
   10AU       S 3703  18.434   0.161   7.851
   10AU     LIG 3704  18.771  44.870   7.955
   10AU     LIG 3705  19.143  44.853   7.822
   10AU     LIG 3706  19.400   0.174   7.861
   10AU       S 3707  18.138   1.413   8.128
   10AU     LIG 3708  18.505   1.650   8.265
   10AU     LIG 3709  18.610   2.003   8.553
   10AU     LIG 3710  18.584   2.391   8.830
   10AU       S 3711  18.477   1.214   7.633
   10AU     LIG 3712  18.780   0.988   7.885
   10AU     LIG 3713  19.231   1.060   7.872
   10AU     LIG 3714  19.446   1.445   7.845
   10AU       S 3715  16.551   1.355   8.099
   10AU     LIG 3716  16.316   1.202   8.436
   10AU     LIG 3717  15.886   1.331   8.559
   10AU     LIG 3718  15.579   1.504   8.839
   10AU       S 3719  16.658   1.674   7.366
   10AU     LIG 3720  16.387   2.084   7.397
   10AU     LIG 3721  16.025   2.170   7.110
   10AU     LIG 3722  15.722   1.839   6.961
   10AU       S 3723  16.163   0.822   7.039
   10AU     LIG 3724  15.797   0.584   6.934
   10AU     LIG 3725  15.365   0.757   7.004
   10AU     LIG 3726  15.109   1.167   7.009
   10AU       S 3727  16.599   1.513   6.880
   10AU     LIG 3728  16.504   1.938   6.737
   10AU     LIG 3729  16.248   2.323   6.654
   10AU     LIG 3730  15.792   2.392   6.518
   10AU       S 3731  16.119   0.475   7.643
   10AU     LIG 3732  15.738   0.414   7.412
   10AU     LIG 3733  15.302   0.484   7.435
   10AU     LIG 3734  14.923   0.547   7.202
   10AU       S 3735  16.249   0.987   7.980
   10AU     LIG 3736  15.924   0.920   8.239
   10AU     LIG 3737  15.683   1.246   8.091
   10AU     LIG 3738  15.746   1.233   7.637
   10AU       S 3739  18.141   0.036   7.718
   10AU     LIG 3740  18.135  44.703   7.547
   10AU     LIG 3741  18.420  44.552   7.789
   10AU     LIG 3742  18.816  44.388   7.764
   10AU       S 3743  17.975  44.923   8.159
   10AU     LIG 3744  18.371  44.805   8.253
   10AU     LIG 3745  18.692  44.680   8.578
   10AU     LIG 3746  18.582  44.510   8.997
   10AU       S 3747  18.431   0.100   7.650
   10AU     LIG 3748  18.866   0.141   7.485
   10AU     LIG 3749  19.193   0.030   7.142
   10AU     LIG 3750  19.318  44.836   6.728
   10AU       S 3751  18.183  44.933   7.099
   10AU     LIG 3752  18.366  44.560   6.892
   10AU     LIG 3753  18.120  44.377   6.545
   10AU     LIG 3754  18.169  43.992   6.293
   10AU       S 3755  16.515   0.062   6.895
   10AU     LIG 3756  16.220   0.328   6.741
   10AU     LIG 3757  15.879   0.232   6.439
   10AU     LIG 3758  15.578   0.106   6.077
   10AU       S 3759  16.123   0.238   7.667
   10AU     LIG 3760  15.799  44.953   7.654
   10AU     LIG 3761  15.469  44.952   7.373
   10AU     LIG 3762  15.431   0.207   7.001
   10AU       S 3763  16.503   0.091   8.362
   10AU     LIG 3764  16.557  44.672   8.374
   10AU     LIG 3765  16.271  44.358   8.437
   10AU     LIG 3766  15.967  44.175   8.236
   10AU       S 3767  16.157   0.523   7.824
   10AU     LIG 3768  15.777   0.323   8.018
   10AU     LIG 3769  15.365   0.184   7.847
   10AU     LIG 3770  14.928   0.254   7.713
   10AU       S 3771  16.797   1.707   7.839
   10AU     LIG 3772  16.384   1.856   7.886
   10AU     LIG 3773  16.123   1.689   8.245
   10AU     LIG 3774  15.856   1.863   8.593
   10AU       S 3775  17.369   1.836   7.880
   10AU     LIG 3776  17.500   2.002   8.254
   10AU     LIG 3777  17.361   2.460   8.268
   10AU     LIG 3778  17.001   2.726   8.459
   10AU       S 3779  17.509   1.998   7.752
   10AU     LIG 3780  17.061   2.196   7.751
   10AU     LIG 3781  16.979   2.591   7.945
   10AU     LIG 3782  17.093   3.024   8.043
   10AU       S 3783  17.356   1.864   7.053
   10AU     LIG 3784  17.228   2.315   7.256
   10AU     LIG 3785  17.512   2.701   7.232
   10AU     LIG 3786  17.556   3.054   6.965
   10AU       S 3787  17.893   1.389   8.374
   10AU     LIG 3788  18.063   1.814   8.455
   10AU     LIG 3789  18.200   1.994   8.867
   10AU     LIG 3790  18.248   1.759   9.272
   10AU       S 3791  17.659   1.807   7.571
   10AU     LIG 3792  17.697   2.204   7.354
   10AU     LIG 3793  17.473   2.502   7.687
   10AU     LIG 3794  17.558   2.870   7.923
   10AU       S 3795  17.153  44.590   8.112
   10AU     LIG 3796  17.199  44.487   8.521
   10AU     LIG 3797  17.372  44.089   8.704
   10AU     LIG 3798  17.534  43.656   8.598
   10AU       S 3799  17.751  44.873   7.994
   10AU     LIG 3800  17.817  44.500   7.873
   10AU     LIG 3801  18.122  44.368   8.129
   10AU     LIG 3802  18.603  44.332   8.232
   10AU       S 3803  16.965  44.535   7.970
   10AU     LIG 3804  16.948  44.224   7.833
   10AU     LIG 3805  17.224  44.088   8.206
   10AU     LIG 3806  17.071  43.727   8.467
   10AU       S 3807  16.737   0.169   8.494
   10AU     LIG 3808  16.546  44.951   8.840
   10AU     LIG 3809  16.497  44.504   8.868
   10AU     LIG 3810  16.388  44.152   9.100
   10AU       S 3811  17.432  44.554   7.301
   10AU     LIG 3812  17.184  44.177   7.259
   10AU     LIG 3813  17.162  43.740   7.036
   10AU     LIG 3814  17.033  43.512   6.632
   10AU       S 3815  17.330  44.594   7.914
   10AU     LIG 3816  17.429  44.164   7.757
   10AU     LIG 3817  17.374  43.702   7.968
   10AU     LIG 3818  17.314  43.299   8.191
   10AU       S 3819  17.208   1.750   6.785
   10AU     LIG 3820  17.185   2.227   6.753
   10AU     LIG 3821  17.543   2.545   6.750
   10AU     LIG 3822  17.798   2.882   6.541
   10AU       S 3823  17.951   1.522   7.147
   10AU     LIG 3824  18.200   1.914   7.048
   10AU     LIG 3825  18.459   2.083   6.700
   10AU     LIG 3826  18.771   2.250   6.405
   10AU       S 3827  17.028   1.734   7.017
   10AU     LIG 3828  16.812   2.075   7.115
   10AU     LIG 3829  16.740   2.470   6.950
   10AU     LIG 3830  17.096   2.733   6.927
   10AU       S 3831  16.625   1.163   6.608
   10AU     LIG 3832  16.438   1.540   6.393
   10AU     LIG 3833  16.394   1.981   6.220
   10AU     LIG 3834  16.232   2.410   6.121
   10AU       S 3835  16.557  44.891   7.131
   10AU     LIG 3836  16.315  44.573   7.081
   10AU     LIG 3837  16.317  44.173   6.989
   10AU     LIG 3838  16.234  43.994   6.582
   10AU       S 3839  17.434  44.585   7.101
   10AU     LIG 3840  17.615  44.503   6.707
   10AU     LIG 3841  17.664  44.122   6.438
   10AU     LIG 3842  17.271  43.870   6.231
   10AU       S 3843  17.653  44.672   7.394
   10AU     LIG 3844  17.930  44.491   7.123
   10AU     LIG 3845  18.134  44.113   7.004
   10AU     LIG 3846  18.006  43.835   6.732
   10AU       S 3847  18.110   0.008   6.831
   10AU     LIG 3848  17.815  44.930   6.509
   10AU     LIG 3849  17.750  44.583   6.204
   10AU     LIG 3850  17.859  44.203   5.955
   11POPC   NC3 3851  43.338  27.583   9.511
   11POPC   PO4 3852  42.818  27.958   9.258
   11POPC   GL1 3853  43.041  27.699   8.995
   11POPC   GL2 3854  43.226  27.427   9.045
   11POPC   C1A 3855  43.116  27.590   8.568
   11POPC   D2A 3856  42.824  27.469   8.263
   11POPC   C3A 3857  42.836  27.646   7.917
   11POPC   C4A 3858  43.015  27.507   7.582
   11POPC   C1B 3859  43.364  27.147   8.713
   11POPC   C2B 3860  43.472  27.310   8.317
   11POPC   C3B 3861  43.376  27.379   7.900
   11POPC   C4B 3862  43.364  27.135   7.467
   12POPC   NC3 3863  18.519  10.964   9.567
   12POPC   PO4 3864  18.224  11.616   9.579
   12POPC   GL1 3865  18.208  11.522   9.171
   12POPC   GL2 3866  18.429  11.266   9.167
   12POPC   C1A 3867  18.092  11.245   8.789
   12POPC   D2A 3868  18.003  11.366   8.380
   12POPC   C3A 3869  18.150  11.145   8.035
   12POPC   C4A 3870  18.167  10.838   7.719
   12POPC   C1B 3871  18.533  11.510   8.793
   12POPC   C2B 3872  18.522  11.300   8.391
   12POPC   C3B 3873  18.623  11.398   7.986
   12POPC   C4B 3874  18.353  11.400   7.632
   13POPC   NC3 3875   0.334  25.129   9.464
   13POPC   PO4 3876   0.795  25.600   9.488
   13POPC   GL1 3877   0.554  25.460   9.147
   13POPC   GL2 3878   0.290  25.712   9.126
   13POPC   C1A 3879   0.486  25.113   8.808
   13POPC   D2A 3880   0.384  25.207   8.327
   13POPC   C3A 3881   0.407  25.007   7.917
   13POPC   C4A 3882   0.672  24.787   7.651
   13POPC   C1B 3883   0.344  25.571   8.694
   13POPC   C2B 3884   0.591  25.667   8.351
   13POPC   C3B 3885   0.546  25.652   7.930
   13POPC   C4B 3886   0.187  25.533   7.748
   14POPC   NC3 3887  43.063   2.255   9.516
   14POPC   PO4 3888  42.978   1.519   9.407
   14POPC   GL1 3889  42.935   1.858   9.170
   14POPC   GL2 3890  43.272   1.983   9.141
   14POPC   C1A 3891  42.829   1.999   8.780
   14POPC   D2A 3892  42.735   2.271   8.441
   14POPC   C3A 3893  42.854   2.084   8.042
   14POPC   C4A 3894  43.235   1.927   7.874
   14POPC   C1B 3895  43.244   2.324   8.836
   14POPC   C2B 3896  43.240   2.222   8.396
   14POPC   C3B 3897  43.277   2.423   8.022
   14POPC   C4B 3898  43.596   2.491   7.718
   15POPC   NC3 3899  41.026   6.547   9.416
   15POPC   PO4 3900  40.663   6.983   9.739
   15POPC   GL1 3901  40.668   6.877   9.252
   15POPC   GL2 3902  40.976   7.029   9.180
   15POPC   C1A 3903  40.482   6.790   8.812
   15POPC   D2A 3904  40.499   6.421   8.491
   15POPC   C3A 3905  40.632   6.424   8.062
   15POPC   C4A 3906  41.019   6.552   7.814
   15POPC   C1B 3907  41.098   6.987   8.791
   15POPC   C2B 3908  40.848   6.856   8.465
   15POPC   C3B 3909  40.814   7.011   8.102
   15POPC   C4B 3910  41.183   7.032   7.873
   16POPC   NC3 3911   2.619  31.066   9.441
   16POPC   PO4 3912   2.527  31.669   9.493
   16POPC   GL1 3913   2.606  31.479   9.117
   16POPC   GL2 3914   2.939  31.508   8.956
   16POPC   C1A 3915   2.521  31.440   8.695
   16POPC   D2A 3916   2.812  31.393   8.400
   16POPC   C3A 3917   2.855  31.653   8.085
   16POPC   C4A 3918   2.664  31.578   7.683
   16POPC   C1B 3919   3.180  31.256   8.680
   16POPC   C2B 3920   3.308  31.362   8.234
   16POPC   C3B 3921   3.250  31.499   7.800
   16POPC   C4B 3922   3.057  31.296   7.449
   17POPC   NC3 3923  41.453  20.140   9.445
   17POPC   PO4 3924  41.855  19.686   9.690
   17POPC   GL1 3925  41.799  19.832   9.225
   17POPC   GL2 3926  41.402  19.742   9.124
   17POPC   C1A 3927  41.769  19.808   8.742
   17POPC   D2A 3928  41.695  19.520   8.376
   17POPC   C3A 3929  41.634  19.707   7.967
   17POPC   C4A 3930  41.685  19.829   7.516
   17POPC   C1B 3931  41.268  19.709   8.700
   17POPC   C2B 3932  41.386  19.983   8.351
   17POPC   C3B 3933  41.275  20.073   7.930
   17POPC   C4B 3934  41.135  19.787   7.642
   18POPC   NC3 3935  40.487  41.586   9.624
   18POPC   PO4 3936  40.949  41.186   9.473
   18POPC   GL1 3937  40.845  41.411   9.111
   18POPC   GL2 3938  40.534  41.290   9.088
   18POPC   C1A 3939  40.786  41.588   8.677
   18POPC   D2A 3940  40.613  41.566   8.258
   18POPC   C3A 3941  40.684  41.686   7.801
   18POPC   C4A 3942  40.556  42.022   7.548
   18POPC   C1B 3943  40.445  41.195   8.675
   18POPC   C2B 3944  40.298  41.196   8.273
   18POPC   C3B 3945  40.260  41.444   7.911
   18POPC   C4B 3946  40.434  41.302   7.556
   19POPC   NC3 3947  29.469   1.050   9.565
   19POPC   PO4 3948  29.017   1.567   9.482
   19POPC   GL1 3949  29.129   1.351   9.148
   19POPC   GL2 3950  29.480   1.360   9.149
   19POPC   C1A 3951  28.878   1.240   8.804
   19POPC   D2A 3952  28.910   1.040   8.417
   19POPC   C3A 3953  28.851   1.269   8.057
   19POPC   C4A 3954  28.917   1.337   7.604
   19POPC   C1B 3955  29.407   0.995   8.874
   19POPC   C2B 3956  29.439   0.973   8.432
   19POPC   C3B 3957  29.254   0.940   8.029
   19POPC   C4B 3958  29.369   1.068   7.618
   20POPC   NC3 3959  11.882  33.591  10.143
   20POPC   PO4 3960  12.401  33.543   9.619
   20POPC   GL1 3961  12.126  33.706   9.224
   20POPC   GL2 3962  11.794  33.580   9.190
   20POPC   C1A 3963  12.249  33.938   8.848
   20POPC   D2A 3964  12.250  33.971   8.396
   20POPC   C3A 3965  12.419  34.175   8.012
   20POPC   C4A 3966  12.499  33.941   7.644
   20POPC   C1B 3967  11.727  33.956   8.878
   20POPC   C2B 3968  11.735  34.059   8.400
   20POPC   C3B 3969  11.935  33.839   8.004
   20POPC   C4B 3970  11.832  33.452   7.773
   21POPC   NC3 3971  38.451  27.182   9.506
   21POPC   PO4 3972  38.281  26.492   9.573
   21POPC   GL1 3973  38.326  26.643   9.175
   21POPC   GL2 3974  38.679  26.560   9.168
   21POPC   C1A 3975  38.378  26.854   8.780
   21POPC   D2A 3976  38.211  26.851   8.360
   21POPC   C3A 3977  38.296  27.176   8.049
   21POPC   C4A 3978  38.495  27.149   7.641
   21POPC   C1B 3979  38.648  26.426   8.740
   21POPC   C2B 3980  38.695  26.643   8.356
   21POPC   C3B 3981  38.659  26.758   7.943
   21POPC   C4B 3982  38.888  26.525   7.638
   22POPC   NC3 3983  37.727  35.706   9.401
   22POPC   PO4 3984  37.621  35.076   9.492
   22POPC   GL1 3985  37.703  35.264   9.125
   22POPC   GL2 3986  37.375  35.374   9.094
   22POPC   C1A 3987  37.905  35.285   8.741
   22POPC   D2A 3988  38.105  35.322   8.347
   22POPC   C3A 3989  37.839  35.480   8.004
   22POPC   C4A 3990  37.714  35.479   7.559
   22POPC   C1B 3991  37.445  35.576   8.701
   22POPC   C2B 3992  37.411  35.425   8.288
   22POPC   C3B 3993  37.339  35.282   7.872
   22POPC   C4B 3994  37.223  35.510   7.498
   23POPC   NC3 3995   9.442  14.915   9.282
   23POPC   PO4 3996   9.851  15.386   9.602
   23POPC   GL1 3997   9.802  15.250   9.158
   23POPC   GL2 3998  10.068  15.472   9.121
   23POPC   C1A 3999   9.513  15.185   8.711
   23POPC   D2A 4000   9.256  15.134   8.299
   23POPC   C3A 4001   9.540  15.265   7.936
   23POPC   C4A 4002   9.816  15.143   7.574
   23POPC   C1B 4003   9.902  15.497   8.740
   23POPC   C2B 4004  10.027  15.351   8.415
   23POPC   C3B 4005  10.233  15.667   8.209
   23POPC   C4B 4006  10.016  15.451   7.900
   24POPC   NC3 4007   1.350  15.038   9.520
   24POPC   PO4 4008   0.742  15.273   9.353
   24POPC   GL1 4009   1.033  15.194   9.092
   24POPC   GL2 4010   1.270  15.407   9.142
   24POPC   C1A 4011   1.067  15.283   8.665
   24POPC   D2A 4012   1.280  15.532   8.371
   24POPC   C3A 4013   1.300  15.316   8.006
   24POPC   C4A 4014   0.936  15.285   7.758
   24POPC   C1B 4015   1.499  15.133   8.851
   24POPC   C2B 4016   1.436  14.996   8.425
   24POPC   C3B 4017   1.665  14.943   8.047
   24POPC   C4B 4018   1.578  14.948   7.631
   25POPC   NC3 4019   2.322  16.753   9.390
   25POPC   PO4 4020   1.748  16.433   9.509
   25POPC   GL1 4021   1.841  16.761   9.177
   25POPC   GL2 4022   1.574  17.023   9.204
   25POPC   C1A 4023   2.094  16.874   8.764
   25POPC   D2A 4024   1.960  16.978   8.322
   25POPC   C3A 4025   2.135  16.915   7.940
   25POPC   C4A 4026   2.223  16.525   7.839
   25POPC   C1B 4027   1.582  16.883   8.758
   25POPC   C2B 4028   1.465  17.017   8.362
   25POPC   C3B 4029   1.642  16.822   7.968
   25POPC   C4B 4030   1.785  16.633   7.566
   26POPC   NC3 4031  41.329  16.891   9.405
   26POPC   PO4 4032  41.884  16.678   9.742
   26POPC   GL1 4033  41.863  16.765   9.224
   26POPC   GL2 4034  41.550  16.766   8.993
   26POPC   C1A 4035  41.939  16.657   8.738
   26POPC   D2A 4036  41.647  16.691   8.387
   26POPC   C3A 4037  41.876  16.720   8.019
   26POPC   C4A 4038  42.041  16.764   7.572
   26POPC   C1B 4039  41.527  16.362   8.783
   26POPC   C2B 4040  41.383  16.212   8.417
   26POPC   C3B 4041  41.365  16.399   8.015
   26POPC   C4B 4042  41.213  16.754   7.844
   27POPC   NC3 4043  32.436  36.142   9.795
   27POPC   PO4 4044  31.981  35.964   9.264
   27POPC   GL1 4045  32.225  35.951   8.922
   27POPC   GL2 4046  32.451  35.790   9.110
   27POPC   C1A 4047  32.535  36.173   8.677
   27POPC   D2A 4048  32.163  36.271   8.441
   27POPC   C3A 4049  32.142  36.060   8.055
   27POPC   C4A 4050  32.389  36.382   7.848
   27POPC   C1B 4051  32.583  35.664   8.726
   27POPC   C2B 4052  32.544  35.807   8.298
   27POPC   C3B 4053  32.626  35.884   7.868
   27POPC   C4B 4054  32.576  35.713   7.452
   28POPC   NC3 4055   4.398  21.982   9.501
   28POPC   PO4 4056   4.542  22.594   9.359
   28POPC   GL1 4057   4.321  22.273   9.081
   28POPC   GL2 4058   4.260  21.871   9.049
   28POPC   C1A 4059   4.099  22.234   8.715
   28POPC   D2A 4060   4.258  22.519   8.420
   28POPC   C3A 4061   4.274  22.404   8.001
   28POPC   C4A 4062   4.623  22.471   7.827
   28POPC   C1B 4063   4.539  21.964   8.741
   28POPC   C2B 4064   4.375  22.024   8.331
   28POPC   C3B 4065   4.528  21.967   7.912
   28POPC   C4B 4066   4.763  21.647   7.757
   29POPC   NC3 4067  41.393  34.730   9.408
   29POPC   PO4 4068  41.273  35.475   9.607
   29POPC   GL1 4069  41.415  35.416   9.193
   29POPC   GL2 4070  41.216  35.112   9.083
   29POPC   C1A 4071  41.381  35.465   8.746
   29POPC   D2A 4072  41.382  35.295   8.343
   29POPC   C3A 4073  41.222  35.309   7.927
   29POPC   C4A 4074  41.415  35.545   7.574
   29POPC   C1B 4075  41.661  35.077   8.895
   29POPC   C2B 4076  41.838  35.096   8.496
   29POPC   C3B 4077  41.715  34.960   8.092
   29POPC   C4B 4078  41.592  35.067   7.684
   30POPC   NC3 4079  23.227  41.845   9.489
   30POPC   PO4 4080  22.525  41.466   9.499
   30POPC   GL1 4081  22.798  41.670   9.226
   30POPC   GL2 4082  22.966  41.355   9.217
   30POPC   C1A 4083  23.081  41.699   8.866
   30POPC   D2A 4084  23.138  41.484   8.508
   30POPC   C3A 4085  22.880  41.667   8.208
   30POPC   C4A 4086  22.929  41.773   7.779
   30POPC   C1B 4087  22.807  41.157   8.846
   30POPC   C2B 4088  22.860  41.080   8.405
   30POPC   C3B 4089  23.054  41.210   8.029
   30POPC   C4B 4090  22.963  41.289   7.619
   31POPC   NC3 4091   1.436   5.826   9.447
   31POPC   PO4 4092   0.765   6.029   9.341
   31POPC   GL1 4093   1.096   5.787   9.083
   31POPC   GL2 4094   1.440   5.552   9.041
   31POPC   C1A 4095   1.053   5.639   8.700
   31POPC   D2A 4096   0.864   5.869   8.378
   31POPC   C3A 4097   1.041   5.902   8.011
   31POPC   C4A 4098   0.991   5.619   7.712
   31POPC   C1B 4099   1.621   5.851   8.769
   31POPC   C2B 4100   1.448   5.827   8.389
   31POPC   C3B 4101   1.468   5.640   8.026
   31POPC   C4B 4102   1.437   5.904   7.671
   32POPC   NC3 4103  43.844   9.533   9.921
   32POPC   PO4 4104  43.981   8.874   9.766
   32POPC   GL1 4105  43.995   8.835   9.266
   32POPC   GL2 4106  43.799   9.092   9.078
   32POPC   C1A 4107  44.188   8.902   8.839
   32POPC   D2A 4108  43.994   9.101   8.461
   32POPC   C3A 4109  44.155   8.997   8.060
   32POPC   C4A 4110  44.028   8.625   7.848
   32POPC   C1B 4111  43.671   8.737   8.829
   32POPC   C2B 4112  43.666   8.609   8.401
   32POPC   C3B 4113  43.645   8.886   8.071
   32POPC   C4B 4114  43.738   9.047   7.675
   33POPC   NC3 4115   8.708  13.278   9.424
   33POPC   PO4 4116   8.070  13.633   9.654
   33POPC   GL1 4117   8.293  13.560   9.299
   33POPC   GL2 4118   8.188  13.219   9.295
   33POPC   C1A 4119   8.359  13.571   8.863
   33POPC   D2A 4120   8.341  13.860   8.501
   33POPC   C3A 4121   8.297  13.644   8.105
   33POPC   C4A 4122   8.497  13.427   7.705
   33POPC   C1B 4123   7.879  13.398   8.997
   33POPC   C2B 4124   7.942  13.501   8.548
   33POPC   C3B 4125   7.813  13.426   8.109
   33POPC   C4B 4126   7.998  13.535   7.720
   34POPC   NC3 4127  40.374   9.562   9.569
   34POPC   PO4 4128  40.163  10.195   9.437
   34POPC   GL1 4129  40.057   9.814   9.202
   34POPC   GL2 4130  40.331   9.593   9.073
   34POPC   C1A 4131  39.792   9.823   8.806
   34POPC   D2A 4132  39.643   9.984   8.377
   34POPC   C3A 4133  39.667   9.762   7.952
   34POPC   C4A 4134  40.014   9.574   7.644
   34POPC   C1B 4135  40.305   9.935   8.803
   34POPC   C2B 4136  40.410   9.851   8.424
   34POPC   C3B 4137  40.130   9.761   8.145
   34POPC   C4B 4138  40.043  10.064   7.825
   35POPC   NC3 4139  42.442  27.885   9.511
   35POPC   PO4 4140  42.570  27.236   9.520
   35POPC   GL1 4141  42.513  27.520   9.135
   35POPC   GL2 4142  42.263  27.807   9.040
   35POPC   C1A 4143  42.606  27.624   8.704
   35POPC   D2A 4144  42.313  27.794   8.412
   35POPC   C3A 4145  42.339  27.579   8.038
   35POPC   C4A 4146  42.513  27.191   7.874
   35POPC   C1B 4147  42.116  27.479   8.759
   35POPC   C2B 4148  41.900  27.344   8.400
   35POPC   C3B 4149  41.964  27.228   7.987
   35POPC   C4B 4150  42.086  27.281   7.592
   36POPC   NC3 4151  25.029  23.209   9.368
   36POPC   PO4 4152  25.009  22.615   9.705
   36POPC   GL1 4153  25.201  22.642   9.258
   36POPC   GL2 4154  25.434  22.920   9.177
   36POPC   C1A 4155  25.107  22.637   8.804
   36POPC   D2A 4156  25.220  22.533   8.391
   36POPC   C3A 4157  24.976  22.773   8.100
   36POPC   C4A 4158  25.075  22.936   7.707
   36POPC   C1B 4159  25.583  22.789   8.748
   36POPC   C2B 4160  25.541  22.919   8.293
   36POPC   C3B 4161  25.648  23.076   7.860
   36POPC   C4B 4162  25.513  23.112   7.400
   37POPC   NC3 4163  11.848  40.281   9.555
   37POPC   PO4 4164  12.250  39.714   9.515
   37POPC   GL1 4165  12.331  39.996   9.201
   37POPC   GL2 4166  12.519  39.713   9.061
   37POPC   C1A 4167  12.463  40.229   8.845
   37POPC   D2A 4168  12.252  40.198   8.431
   37POPC   C3A 4169  12.277  40.232   7.978
   37POPC   C4A 4170  11.848  40.177   7.869
   37POPC   C1B 4171  12.115  39.810   8.798
   37POPC   C2B 4172  11.898  39.809   8.411
   37POPC   C3B 4173  12.052  39.749   8.002
   37POPC   C4B 4174  11.747  39.691   7.739
   38POPC   NC3 4175  10.875  22.867   9.513
   38POPC   PO4 4176  10.125  23.132   9.464
   38POPC   GL1 4177  10.252  22.884   9.064
   38POPC   GL2 4178  10.607  22.753   9.087
   38POPC   C1A 4179  10.352  22.853   8.617
   38POPC   D2A 4180  10.485  23.135   8.270
   38POPC   C3A 4181  10.330  23.027   7.876
   38POPC   C4A 4182  10.502  23.030   7.456
   38POPC   C1B 4183  10.803  22.611   8.698
   38POPC   C2B 4184  10.668  22.644   8.242
   38POPC   C3B 4185  10.814  22.850   7.847
   38POPC   C4B 4186  10.873  22.706   7.417
   39POPC   NC3 4187  27.431  27.335   9.364
   39POPC   PO4 4188  27.893  27.832   9.438
   39POPC   GL1 4189  27.686  27.672   9.057
   39POPC   GL2 4190  27.767  27.333   8.960
   39POPC   C1A 4191  27.543  27.848   8.685
   39POPC   D2A 4192  27.632  27.678   8.286
   39POPC   C3A 4193  27.473  27.834   7.926
   39POPC   C4A 4194  27.590  27.601   7.558
   39POPC   C1B 4195  27.415  27.361   8.655
   39POPC   C2B 4196  27.264  27.272   8.214
   39POPC   C3B 4197  27.327  27.182   7.760
   39POPC   C4B 4198  27.289  27.311   7.259
   40POPC   NC3 4199  32.510  33.140   9.583
   40POPC   PO4 4200  31.855  33.251   9.675
   40POPC   GL1 4201  32.011  33.177   9.217
   40POPC   GL2 4202  32.361  33.002   9.121
   40POPC   C1A 4203  32.077  33.256   8.792
   40POPC   D2A 4204  32.275  33.307   8.418
   40POPC   C3A 4205  32.004  33.248   8.109
   40POPC   C4A 4206  32.068  33.150   7.696
   40POPC   C1B 4207  32.235  32.781   8.747
   40POPC   C2B 4208  32.193  32.785   8.325
   40POPC   C3B 4209  32.416  32.934   8.007
   40POPC   C4B 4210  32.369  32.721   7.618
   41POPC   NC3 4211  24.766  26.261   9.512
   41POPC   PO4 4212  24.407  25.767   9.744
   41POPC   GL1 4213  24.491  25.848   9.291
   41POPC   GL2 4214  24.148  25.788   9.128
   41POPC   C1A 4215  24.645  25.964   8.875
   41POPC   D2A 4216  24.558  25.833   8.443
   41POPC   C3A 4217  24.657  26.137   8.116
   41POPC   C4A 4218  24.790  25.911   7.787
   41POPC   C1B 4219  24.140  26.031   8.702
   41POPC   C2B 4220  24.143  26.171   8.234
   41POPC   C3B 4221  24.252  26.018   7.803
   41POPC   C4B 4222  24.058  25.816   7.436
   42POPC   NC3 4223  12.129  41.026   9.530
   42POPC   PO4 4224  12.298  40.362   9.608
   42POPC   GL1 4225  12.163  40.511   9.205
   42POPC   GL2 4226  12.247  40.849   9.064
   42POPC   C1A 4227  11.975  40.416   8.819
   42POPC   D2A 4228  11.997  40.705   8.493
   42POPC   C3A 4229  11.957  40.638   8.058
   42POPC   C4A 4230  11.908  40.933   7.723
   42POPC   C1B 4231  12.490  40.720   8.704
   42POPC   C2B 4232  12.458  40.630   8.263
   42POPC   C3B 4233  12.417  40.776   7.841
   42POPC   C4B 4234  12.324  40.870   7.396
   43POPC   NC3 4235   8.442   4.573   9.638
   43POPC   PO4 4236   8.283   5.124   9.565
   43POPC   GL1 4237   8.278   4.904   9.163
   43POPC   GL2 4238   8.013   4.697   9.269
   43POPC   C1A 4239   8.403   5.036   8.697
   43POPC   D2A 4240   8.401   5.073   8.181
   43POPC   C3A 4241   8.168   5.416   7.920
   43POPC   C4A 4242   7.747   5.529   7.750
   43POPC   C1B 4243   7.843   4.807   8.862
   43POPC   C2B 4244   8.016   4.847   8.448
   43POPC   C3B 4245   7.896   5.007   8.051
   43POPC   C4B 4246   8.167   4.929   7.713
   44POPC   NC3 4247   9.678  16.494   9.894
   44POPC   PO4 4248   9.108  16.783   9.609
   44POPC   GL1 4249   9.115  16.825   9.201
   44POPC   GL2 4250   8.954  16.556   9.141
   44POPC   C1A 4251   9.276  16.699   8.782
   44POPC   D2A 4252   9.489  16.718   8.393
   44POPC   C3A 4253   9.243  16.694   8.006
   44POPC   C4A 4254   9.229  17.069   7.744
   44POPC   C1B 4255   8.777  16.825   8.826
   44POPC   C2B 4256   8.811  16.693   8.407
   44POPC   C3B 4257   8.616  16.780   8.020
   44POPC   C4B 4258   8.760  16.640   7.618
   45POPC   NC3 4259   8.144  27.916   9.761
   45POPC   PO4 4260   8.569  27.568   9.316
   45POPC   GL1 4261   8.144  27.634   9.213
   45POPC   GL2 4262   8.075  27.932   9.050
   45POPC   C1A 4263   8.050  27.495   8.788
   45POPC   D2A 4264   8.336  27.463   8.432
   45POPC   C3A 4265   8.137  27.489   8.043
   45POPC   C4A 4266   8.262  27.764   7.760
   45POPC   C1B 4267   8.386  27.914   8.696
   45POPC   C2B 4268   8.343  27.934   8.246
   45POPC   C3B 4269   8.014  28.099   8.069
   45POPC   C4B 4270   7.806  27.978   7.743
   46POPC   NC3 4271  27.110  36.322   9.556
   46POPC   PO4 4272  27.589  35.802   9.463
   46POPC   GL1 4273  27.570  36.058   9.115
   46POPC   GL2 4274  27.221  36.102   9.104
   46POPC   C1A 4275  27.823  36.322   8.833
   46POPC   D2A 4276  27.821  36.396   8.386
   46POPC   C3A 4277  27.499  36.094   8.177
   46POPC   C4A 4278  27.533  35.988   7.729
   46POPC   C1B 4279  27.257  36.366   8.727
   46POPC   C2B 4280  27.353  36.584   8.331
   46POPC   C3B 4281  27.352  36.493   7.891
   46POPC   C4B 4282  27.353  36.711   7.526
   47POPC   NC3 4283  21.705  36.885   9.502
   47POPC   PO4 4284  22.148  37.281   9.337
   47POPC   GL1 4285  21.971  36.985   9.044
   47POPC   GL2 4286  21.808  36.668   9.059
   47POPC   C1A 4287  22.027  36.913   8.603
   47POPC   D2A 4288  22.417  37.054   8.454
   47POPC   C3A 4289  22.418  37.166   8.017
   47POPC   C4A 4290  21.980  37.259   7.839
   47POPC   C1B 4291  22.261  36.572   8.938
   47POPC   C2B 4292  22.329  36.512   8.498
   47POPC   C3B 4293  22.044  36.559   8.154
   47POPC   C4B 4294  22.298  36.726   7.818
   48POPC   NC3 4295  42.113  41.632   9.454
   48POPC   PO4 4296  41.746  41.118   9.670
   48POPC   GL1 4297  41.673  41.067   9.162
   48POPC   GL2 4298  41.343  41.218   9.091
   48POPC   C1A 4299  41.767  41.263   8.738
   48POPC   D2A 4300  41.742  41.627   8.481
   48POPC   C3A 4301  41.640  41.540   8.068
   48POPC   C4A 4302  41.765  41.197   7.866
   48POPC   C1B 4303  41.289  41.499   8.739
   48POPC   C2B 4304  41.124  41.563   8.304
   48POPC   C3B 4305  41.177  41.670   7.891
   48POPC   C4B 4306  41.480  41.736   7.581
   49POPC   NC3 4307   2.252  34.152   9.425
   49POPC   PO4 4308   1.972  34.645   9.830
   49POPC   GL1 4309   1.977  34.631   9.345
   49POPC   GL2 4310   2.122  34.903   9.157
   49POPC   C1A 4311   1.926  34.493   8.896
   49POPC   D2A 4312   1.945  34.390   8.424
   49POPC   C3A 4313   1.998  34.635   8.020
   49POPC   C4A 4314   1.895  34.577   7.579
   49POPC   C1B 4315   2.286  34.832   8.760
   49POPC   C2B 4316   2.399  34.820   8.348
   49POPC   C3B 4317   2.278  35.080   8.049
   49POPC   C4B 4318   2.246  34.959   7.633
   50POPC   NC3 4319  11.307  37.052   9.769
   50POPC   PO4 4320  11.410  37.269   9.167
   50POPC   GL1 4321  11.303  36.904   8.948
   50POPC   GL2 4322  11.605  36.748   8.899
   50POPC   C1A 4323  11.114  36.774   8.534
   50POPC   D2A 4324  11.218  36.615   8.122
   50POPC   C3A 4325  11.465  36.859   7.880
   50POPC   C4A 4326  11.683  36.760   7.536
   50POPC   C1B 4327  11.571  37.015   8.508
   50POPC   C2B 4328  11.235  37.176   8.223
   50POPC   C3B 4329  11.342  37.383   7.856
   50POPC   C4B 4330  11.689  37.260   7.622
   51POPC   NC3 4331  34.899  18.567   9.442
   51POPC   PO4 4332  35.560  18.568   9.581
   51POPC   GL1 4333  35.343  18.394   9.237
   51POPC   GL2 4334  35.614  18.544   9.064
   51POPC   C1A 4335  35.170  18.447   8.823
   51POPC   D2A 4336  35.429  18.445   8.459
   51POPC   C3A 4337  35.273  18.612   8.092
   51POPC   C4A 4338  35.130  18.289   7.820
   51POPC   C1B 4339  35.880  18.548   8.708
   51POPC   C2B 4340  35.926  18.431   8.288
   51POPC   C3B 4341  35.826  18.639   7.948
   51POPC   C4B 4342  35.543  18.533   7.666
   52POPC   NC3 4343  14.083  28.852   9.449
   52POPC   PO4 4344  13.536  29.191   9.589
   52POPC   GL1 4345  13.629  29.195   9.131
   52POPC   GL2 4346  13.972  29.245   9.089
   52POPC   C1A 4347  13.653  29.004   8.699
   52POPC   D2A 4348  13.929  29.076   8.318
   52POPC   C3A 4349  13.875  28.803   8.018
   52POPC   C4A 4350  13.590  28.914   7.744
   52POPC   C1B 4351  13.918  29.444   8.689
   52POPC   C2B 4352  13.643  29.511   8.306
   52POPC   C3B 4353  13.482  29.438   7.875
   52POPC   C4B 4354  13.479  29.660   7.478
   53POPC   NC3 4355   2.365  20.893   9.572
   53POPC   PO4 4356   2.019  20.336   9.445
   53POPC   GL1 4357   2.017  20.642   9.119
   53POPC   GL2 4358   1.686  20.805   9.010
   53POPC   C1A 4359   1.975  20.513   8.705
   53POPC   D2A 4360   2.184  20.471   8.346
   53POPC   C3A 4361   1.920  20.608   8.037
   53POPC   C4A 4362   2.178  20.627   7.753
   53POPC   C1B 4363   1.906  21.024   8.737
   53POPC   C2B 4364   2.087  20.976   8.371
   53POPC   C3B 4365   1.817  21.104   8.085
   53POPC   C4B 4366   1.735  20.977   7.703
   54POPC   NC3 4367  43.217  10.189   9.719
   54POPC   PO4 4368  43.122  10.823   9.535
   54POPC   GL1 4369  43.166  10.536   9.206
   54POPC   GL2 4370  43.428  10.271   9.246
   54POPC   C1A 4371  43.153  10.702   8.775
   54POPC   D2A 4372  43.063  10.904   8.403
   54POPC   C3A 4373  43.223  10.724   8.075
   54POPC   C4A 4374  43.174  10.536   7.726
   54POPC   C1B 4375  43.214  10.184   8.845
   54POPC   C2B 4376  43.167  10.328   8.429
   54POPC   C3B 4377  43.088  10.155   8.059
   54POPC   C4B 4378  43.378  10.060   7.740
   55POPC   NC3 4379  43.934  38.886   9.408
   55POPC   PO4 4380  44.051  39.580   9.605
   55POPC   GL1 4381  43.825  39.431   9.188
   55POPC   GL2 4382  43.643  39.091   9.079
   55POPC   C1A 4383  43.788  39.384   8.719
   55POPC   D2A 4384  43.969  39.503   8.410
   55POPC   C3A 4385  43.741  39.506   8.081
   55POPC   C4A 4386  43.615  39.508   7.669
   55POPC   C1B 4387  43.940  38.913   8.751
   55POPC   C2B 4388  43.854  39.003   8.312
   55POPC   C3B 4389  43.836  39.041   7.875
   55POPC   C4B 4390  44.210  38.957   7.633
   56POPC   NC3 4391  33.083  40.129   9.316
   56POPC   PO4 4392  32.506  39.986   9.658
   56POPC   GL1 4393  32.687  39.798   9.213
   56POPC   GL2 4394  33.019  39.655   9.063
   56POPC   C1A 4395  32.738  39.950   8.752
   56POPC   D2A 4396  32.956  40.227   8.472
   56POPC   C3A 4397  32.918  40.058   8.052
   56POPC   C4A 4398  33.172  40.011   7.678
   56POPC   C1B 4399  33.237  39.872   8.725
   56POPC   C2B 4400  33.174  39.708   8.326
   56POPC   C3B 4401  33.309  39.545   7.908
   56POPC   C4B 4402  33.219  39.539   7.438
   57POPC   NC3 4403  41.914  18.549   9.361
   57POPC   PO4 4404  42.065  17.902   9.312
   57POPC   GL1 4405  42.228  18.271   9.072
   57POPC   GL2 4406  42.438  18.596   8.992
   57POPC   C1A 4407  42.209  18.313   8.645
   57POPC   D2A 4408  42.328  18.049   8.346
   57POPC   C3A 4409  42.194  18.153   7.958
   57POPC   C4A 4410  42.340  18.056   7.577
   57POPC   C1B 4411  42.725  18.316   8.849
   57POPC   C2B 4412  42.778  18.280   8.432
   57POPC   C3B 4413  42.595  18.445   8.082
   57POPC   C4B 4414  42.744  18.317   7.716
   58POPC   NC3 4415   8.013  16.398   9.334
   58POPC   PO4 4416   7.523  15.904   9.502
   58POPC   GL1 4417   7.489  16.016   9.105
   58POPC   GL2 4418   7.835  16.000   9.050
   58POPC   C1A 4419   7.286  16.022   8.710
   58POPC   D2A 4420   7.372  16.312   8.387
   58POPC   C3A 4421   7.175  16.276   8.006
   58POPC   C4A 4422   7.274  15.881   7.835
   58POPC   C1B 4423   7.758  16.300   8.731
   58POPC   C2B 4424   7.886  16.255   8.318
   58POPC   C3B 4425   7.688  16.181   7.965
   58POPC   C4B 4426   7.521  16.350   7.622
   59POPC   NC3 4427  28.688   2.961   9.574
   59POPC   PO4 4428  27.984   2.810   9.497
   59POPC   GL1 4429  28.351   2.725   9.231
   59POPC   GL2 4430  28.518   3.011   9.092
   59POPC   C1A 4431  28.350   2.626   8.793
   59POPC   D2A 4432  28.523   2.543   8.394
   59POPC   C3A 4433  28.196   2.568   8.090
   59POPC   C4A 4434  28.162   2.857   7.715
   59POPC   C1B 4435  28.417   3.125   8.677
   59POPC   C2B 4436  28.330   3.019   8.263
   59POPC   C3B 4437  28.608   2.840   7.958
   59POPC   C4B 4438  28.978   3.068   7.856
   60POPC   NC3 4439   1.790  19.926   9.518
   60POPC   PO4 4440   2.424  19.813   9.339
   60POPC   GL1 4441   2.044  19.822   9.078
   60POPC   GL2 4442   1.743  19.599   9.116
   60POPC   C1A 4443   1.977  19.972   8.667
   60POPC   D2A 4444   2.281  19.972   8.322
   60POPC   C3A 4445   2.090  20.133   7.952
   60POPC   C4A 4446   2.160  20.178   7.491
   60POPC   C1B 4447   1.819  19.475   8.702
   60POPC   C2B 4448   1.984  19.574   8.332
   60POPC   C3B 4449   1.895  19.629   7.935
   60POPC   C4B 4450   1.670  19.380   7.628
   61POPC   NC3 4451   8.624   2.901   9.500
   61POPC   PO4 4452   7.893   2.743   9.622
   61POPC   GL1 4453   8.156   2.732   9.270
   61POPC   GL2 4454   8.210   3.067   9.271
   61POPC   C1A 4455   8.278   2.635   8.834
   61POPC   D2A 4456   8.416   2.554   8.414
   61POPC   C3A 4457   8.180   2.529   8.027
   61POPC   C4A 4458   8.303   2.771   7.672
   61POPC   C1B 4459   8.047   3.081   8.867
   61POPC   C2B 4460   8.040   3.228   8.435
   61POPC   C3B 4461   8.277   3.088   8.081
   61POPC   C4B 4462   8.033   3.201   7.707
   62POPC   NC3 4463   5.026  42.256   9.640
   62POPC   PO4 4464   5.189  41.635   9.611
   62POPC   GL1 4465   5.203  42.052   9.227
   62POPC   GL2 4466   4.952  42.386   9.167
   62POPC   C1A 4467   5.239  42.230   8.794
   62POPC   D2A 4468   5.151  42.033   8.407
   62POPC   C3A 4469   5.255  42.224   8.024
   62POPC   C4A 4470   5.030  42.289   7.666
   62POPC   C1B 4471   4.947  42.661   8.791
   62POPC   C2B 4472   5.123  42.577   8.388
   62POPC   C3B 4473   4.924  42.622   8.007
   62POPC   C4B 4474   4.786  42.939   7.736
   63POPC   NC3 4475  37.801   6.042   9.477
   63POPC   PO4 4476  38.112   5.520   9.310
   63POPC   GL1 4477  37.889   5.779   9.053
   63POPC   GL2 4478  37.587   5.656   9.108
   63POPC   C1A 4479  37.789   5.965   8.639
   63POPC   D2A 4480  37.796   5.889   8.192
   63POPC   C3A 4481  37.852   6.176   7.847
   63POPC   C4A 4482  37.934   6.056   7.398
   63POPC   C1B 4483  37.329   5.774   8.761
   63POPC   C2B 4484  37.289   5.901   8.344
   63POPC   C3B 4485  37.379   5.969   7.921
   63POPC   C4B 4486  37.271   5.768   7.573
   64POPC   NC3 4487  30.256  31.156   9.501
   64POPC   PO4 4488  30.817  31.619   9.561
   64POPC   GL1 4489  30.829  31.559   9.154
   64POPC   GL2 4490  30.629  31.271   9.156
   64POPC   C1A 4491  31.014  31.341   8.823
   64POPC   D2A 4492  30.882  31.198   8.407
   64POPC   C3A 4493  31.003  31.322   8.004
   64POPC   C4A 4494  30.834  31.211   7.581
   64POPC   C1B 4495  30.531  31.437   8.732
   64POPC   C2B 4496  30.497  31.517   8.284
   64POPC   C3B 4497  30.572  31.605   7.866
   64POPC   C4B 4498  30.369  31.928   7.572
   65POPC   NC3 4499  29.634  26.548   9.509
   65POPC   PO4 4500  29.759  27.259   9.449
   65POPC   GL1 4501  29.650  27.087   9.071
   65POPC   GL2 4502  29.849  26.809   9.125
   65POPC   C1A 4503  29.807  26.943   8.644
   65POPC   D2A 4504  30.000  26.587   8.395
   65POPC   C3A 4505  29.994  26.637   7.957
   65POPC   C4A 4506  29.840  27.010   7.769
   65POPC   C1B 4507  29.785  26.475   8.844
   65POPC   C2B 4508  29.509  26.425   8.469
   65POPC   C3B 4509  29.474  26.421   8.004
   65POPC   C4B 4510  29.605  26.591   7.574
   66POPC   NC3 4511  42.188   9.698   9.616
   66POPC   PO4 4512  42.782  10.050   9.613
   66POPC   GL1 4513  42.712   9.863   9.194
   66POPC   GL2 4514  42.456   9.595   9.184
   66POPC   C1A 4515  42.711   9.875   8.759
   66POPC   D2A 4516  42.767   9.768   8.345
   66POPC   C3A 4517  42.609   9.904   8.005
   66POPC   C4A 4518  42.488   9.547   7.762
   66POPC   C1B 4519  42.193   9.820   8.868
   66POPC   C2B 4520  42.257   9.925   8.424
   66POPC   C3B 4521  42.116   9.831   8.008
   66POPC   C4B 4522  42.103   9.892   7.584
   67POPC   NC3 4523  38.000  27.951   9.495
   67POPC   PO4 4524  37.480  28.518   9.430
   67POPC   GL1 4525  37.778  28.316   9.180
   67POPC   GL2 4526  37.949  28.595   9.131
   67POPC   C1A 4527  37.736  28.155   8.757
   67POPC   D2A 4528  37.418  28.219   8.424
   67POPC   C3A 4529  37.629  28.168   8.039
   67POPC   C4A 4530  38.004  28.203   7.763
   67POPC   C1B 4531  37.595  28.635   8.795
   67POPC   C2B 4532  37.711  28.634   8.371
   67POPC   C3B 4533  37.546  28.675   7.963
   67POPC   C4B 4534  37.697  28.633   7.539
   68POPC   NC3 4535  13.375   8.565   9.537
   68POPC   PO4 4536  14.029   8.674   9.418
   68POPC   GL1 4537  13.743   8.863   9.142
   68POPC   GL2 4538  13.398   8.743   9.065
   68POPC   C1A 4539  13.683   9.067   8.753
   68POPC   D2A 4540  13.579   9.245   8.373
   68POPC   C3A 4541  13.740   9.097   8.050
   68POPC   C4A 4542  13.519   8.947   7.733
   68POPC   C1B 4543  13.280   8.799   8.634
   68POPC   C2B 4544  13.343   8.782   8.209
   68POPC   C3B 4545  13.071   8.763   7.878
   68POPC   C4B 4546  13.174   8.710   7.439
   69POPC   NC3 4547  42.836  41.089   9.378
   69POPC   PO4 4548  42.146  41.213   9.254
   69POPC   GL1 4549  42.501  41.397   9.109
   69POPC   GL2 4550  42.455  41.755   9.099
   69POPC   C1A 4551  42.725  41.354   8.734
   69POPC   D2A 4552  42.955  41.235   8.378
   69POPC   C3A 4553  42.644  41.255   8.054
   69POPC   C4A 4554  42.634  41.564   7.753
   69POPC   C1B 4555  42.270  41.635   8.693
   69POPC   C2B 4556  42.195  41.398   8.298
   69POPC   C3B 4557  42.127  41.557   7.873
   69POPC   C4B 4558  41.928  41.926   7.717
   70POPC   NC3 4559  33.733  29.294   9.592
   70POPC   PO4 4560  33.489  28.665   9.558
   70POPC   GL1 4561  33.719  28.952   9.196
   70POPC   GL2 4562  33.877  29.339   9.117
   70POPC   C1A 4563  33.859  28.988   8.754
   70POPC   D2A 4564  33.641  29.008   8.374
   70POPC   C3A 4565  33.836  29.109   8.001
   70POPC   C4A 4566  33.540  28.970   7.666
   70POPC   C1B 4567  33.679  29.613   8.792
   70POPC   C2B 4568  33.751  29.517   8.348
   70POPC   C3B 4569  33.777  29.606   7.928
   70POPC   C4B 4570  34.170  29.498   7.770
   71POPC   NC3 4571  18.488  37.328   9.431
   71POPC   PO4 4572  18.550  36.649   9.553
   71POPC   GL1 4573  18.291  36.844   9.268
   71POPC   GL2 4574  18.563  36.940   9.116
   71POPC   C1A 4575  18.102  37.014   8.875
   71POPC   D2A 4576  17.930  36.779   8.528
   71POPC   C3A 4577  17.972  36.954   8.128
   71POPC   C4A 4578  18.023  36.773   7.731
   71POPC   C1B 4579  18.650  37.117   8.770
   71POPC   C2B 4580  18.423  37.019   8.412
   71POPC   C3B 4581  18.456  36.988   7.980
   71POPC   C4B 4582  18.362  37.187   7.652
   72POPC   NC3 4583  13.163  41.755   9.425
   72POPC   PO4 4584  13.839  41.737   9.610
   72POPC   GL1 4585  13.673  41.755   9.195
   72POPC   GL2 4586  13.523  41.448   9.082
   72POPC   C1A 4587  13.484  41.852   8.782
   72POPC   D2A 4588  13.694  41.671   8.424
   72POPC   C3A 4589  13.539  41.681   8.014
   72POPC   C4A 4590  13.612  41.503   7.613
   72POPC   C1B 4591  13.494  41.236   8.703
   72POPC   C2B 4592  13.297  41.269   8.321
   72POPC   C3B 4593  13.375  41.177   7.913
   72POPC   C4B 4594  13.116  41.388   7.580
   73POPC   NC3 4595   7.398  38.841   9.548
   73POPC   PO4 4596   7.210  39.518   9.568
   73POPC   GL1 4597   7.338  39.272   9.211
   73POPC   GL2 4598   7.156  38.973   9.115
   73POPC   C1A 4599   7.482  39.283   8.777
   73POPC   D2A 4600   7.368  39.465   8.369
   73POPC   C3A 4601   7.511  39.321   7.961
   73POPC   C4A 4602   7.413  39.360   7.534
   73POPC   C1B 4603   7.262  38.812   8.688
   73POPC   C2B 4604   7.421  38.887   8.253
   73POPC   C3B 4605   7.200  38.852   7.852
   73POPC   C4B 4606   7.305  38.611   7.441
   74POPC   NC3 4607   4.842  12.693   9.488
   74POPC   PO4 4608   5.484  12.679   9.762
   74POPC   GL1 4609   5.372  12.952   9.312
   74POPC   GL2 4610   5.027  12.848   9.057
   74POPC   C1A 4611   5.382  13.123   8.846
   74POPC   D2A 4612   5.110  12.901   8.531
   74POPC   C3A 4613   5.039  12.907   8.054
   74POPC   C4A 4614   5.220  12.737   7.668
   74POPC   C1B 4615   4.680  12.630   8.777
   74POPC   C2B 4616   4.573  12.462   8.323
   74POPC   C3B 4617   4.797  12.478   7.871
   74POPC   C4B 4618   4.871  12.559   7.366
   75POPC   NC3 4619  30.920  35.696   9.512
   75POPC   PO4 4620  30.545  35.180   9.525
   75POPC   GL1 4621  30.415  35.211   9.125
   75POPC   GL2 4622  30.577  35.537   9.118
   75POPC   C1A 4623  30.422  35.150   8.698
   75POPC   D2A 4624  30.737  35.166   8.390
   75POPC   C3A 4625  30.645  35.208   7.954
   75POPC   C4A 4626  31.036  35.338   7.761
   75POPC   C1B 4627  30.401  35.687   8.733
   75POPC   C2B 4628  30.387  35.543   8.297
   75POPC   C3B 4629  30.543  35.693   7.869
   75POPC   C4B 4630  30.369  35.521   7.470
   76POPC   NC3 4631  11.728  37.007   9.384
   76POPC   PO4 4632  12.366  37.161   9.487
   76POPC   GL1 4633  12.201  36.944   9.160
   76POPC   GL2 4634  12.497  36.973   9.018
   76POPC   C1A 4635  12.045  37.049   8.746
   76POPC   D2A 4636  12.046  37.229   8.328
   76POPC   C3A 4637  11.998  36.990   7.915
   76POPC   C4A 4638  12.130  37.070   7.454
   76POPC   C1B 4639  12.445  36.736   8.681
   76POPC   C2B 4640  12.279  36.774   8.301
   76POPC   C3B 4641  12.475  36.802   7.931
   76POPC   C4B 4642  12.488  36.715   7.522
   77POPC   NC3 4643  15.735  19.382   9.300
   77POPC   PO4 4644  16.231  19.024   9.596
   77POPC   GL1 4645  16.126  19.052   9.192
   77POPC   GL2 4646  16.205  19.392   9.110
   77POPC   C1A 4647  15.943  18.807   8.857
   77POPC   D2A 4648  15.789  18.887   8.432
   77POPC   C3A 4649  16.101  18.885   8.095
   77POPC   C4A 4650  15.978  18.853   7.681
   77POPC   C1B 4651  16.181  19.231   8.682
   77POPC   C2B 4652  15.980  19.360   8.284
   77POPC   C3B 4653  16.020  19.359   7.835
   77POPC   C4B 4654  16.348  19.334   7.472
   78POPC   NC3 4655  22.049  41.157   9.492
   78POPC   PO4 4656  21.872  41.838   9.546
   78POPC   GL1 4657  22.023  41.568   9.211
   78POPC   GL2 4658  22.317  41.578   9.055
   78POPC   C1A 4659  21.885  41.454   8.805
   78POPC   D2A 4660  22.030  41.628   8.449
   78POPC   C3A 4661  21.884  41.472   8.044
   78POPC   C4A 4662  21.963  41.392   7.619
   78POPC   C1B 4663  22.579  41.581   8.723
   78POPC   C2B 4664  22.468  41.387   8.337
   78POPC   C3B 4665  22.567  41.357   7.939
   78POPC   C4B 4666  22.484  41.580   7.583
   79POPC   NC3 4667   1.255  23.481   9.469
   79POPC   PO4 4668   1.489  24.188   9.446
   79POPC   GL1 4669   1.270  23.962   9.122
   79POPC   GL2 4670   0.946  24.091   8.991
   79POPC   C1A 4671   1.407  23.723   8.778
   79POPC   D2A 4672   1.618  23.826   8.396
   79POPC   C3A 4673   1.492  23.623   8.060
   79POPC   C4A 4674   1.370  23.774   7.688
   79POPC   C1B 4675   0.899  23.771   8.732
   79POPC   C2B 4676   1.082  23.689   8.367
   79POPC   C3B 4677   0.919  23.676   7.962
   79POPC   C4B 4678   0.951  23.449   7.609
   80POPC   NC3 4679  18.998  36.514   9.513
   80POPC   PO4 4680  18.946  37.225   9.370
   80POPC   GL1 4681  19.084  36.964   9.088
   80POPC   GL2 4682  18.961  36.652   9.025
   80POPC   C1A 4683  19.219  36.988   8.710
   80POPC   D2A 4684  19.425  37.165   8.378
   80POPC   C3A 4685  19.271  37.031   7.956
   80POPC   C4A 4686  19.323  37.059   7.489
   80POPC   C1B 4687  18.809  36.677   8.598
   80POPC   C2B 4688  18.849  36.751   8.158
   80POPC   C3B 4689  18.889  36.546   7.783
   80POPC   C4B 4690  18.928  36.581   7.292
   81POPC   NC3 4691   0.999  39.126   9.615
   81POPC   PO4 4692   1.640  39.072   9.475
   81POPC   GL1 4693   1.456  38.847   9.094
   81POPC   GL2 4694   1.071  38.820   9.149
   81POPC   C1A 4695   1.484  38.899   8.615
   81POPC   D2A 4696   1.242  39.083   8.266
   81POPC   C3A 4697   1.406  39.497   8.102
   81POPC   C4A 4698   1.522  39.470   7.661
   81POPC   C1B 4699   1.117  39.186   8.874
   81POPC   C2B 4700   1.080  39.485   8.545
   81POPC   C3B 4701   0.893  39.462   8.172
   81POPC   C4B 4702   1.061  39.278   7.808
   82POPC   NC3 4703  30.497  41.636   9.823
   82POPC   PO4 4704  29.828  41.494   9.713
   82POPC   GL1 4705  29.841  41.532   9.241
   82POPC   GL2 4706  30.128  41.700   9.157
   82POPC   C1A 4707  29.730  41.354   8.858
   82POPC   D2A 4708  29.746  41.373   8.417
   82POPC   C3A 4709  29.962  41.605   8.126
   82POPC   C4A 4710  29.871  41.493   7.703
   82POPC   C1B 4711  30.199  41.565   8.745
   82POPC   C2B 4712  30.271  41.890   8.466
   82POPC   C3B 4713  30.428  41.837   8.082
   82POPC   C4B 4714  30.245  41.823   7.723
   83POPC   NC3 4715  41.558  38.164   9.388
   83POPC   PO4 4716  41.578  37.465   9.607
   83POPC   GL1 4717  41.510  37.675   9.211
   83POPC   GL2 4718  41.386  37.459   8.935
   83POPC   C1A 4719  41.693  37.847   8.811
   83POPC   D2A 4720  41.590  37.771   8.378
   83POPC   C3A 4721  41.742  37.940   7.969
   83POPC   C4A 4722  41.396  37.755   7.747
   83POPC   C1B 4723  41.795  37.367   8.715
   83POPC   C2B 4724  41.997  37.308   8.335
   83POPC   C3B 4725  41.702  37.429   8.017
   83POPC   C4B 4726  41.638  37.307   7.608
   84POPC   NC3 4727  33.250   0.531   9.642
   84POPC   PO4 4728  32.731   0.166   9.553
   84POPC   GL1 4729  32.827   0.379   9.165
   84POPC   GL2 4730  33.194   0.458   9.129
   84POPC   C1A 4731  32.777   0.396   8.720
   84POPC   D2A 4732  33.125   0.414   8.463
   84POPC   C3A 4733  33.218   0.213   8.104
   84POPC   C4A 4734  33.137   0.395   7.731
   84POPC   C1B 4735  33.471   0.613   8.772
   84POPC   C2B 4736  33.442   0.823   8.390
   84POPC   C3B 4737  33.536   0.656   7.975
   84POPC   C4B 4738  33.433   0.804   7.575
   85POPC   NC3 4739  20.131  25.986   9.610
   85POPC   PO4 4740  20.845  25.853   9.530
   85POPC   GL1 4741  20.630  26.018   9.169
   85POPC   GL2 4742  20.413  25.763   9.198
   85POPC   C1A 4743  20.803  26.049   8.719
   85POPC   D2A 4744  20.892  26.301   8.345
   85POPC   C3A 4745  20.809  26.067   7.972
   85POPC   C4A 4746  20.701  26.233   7.595
   85POPC   C1B 4747  20.323  25.748   8.763
   85POPC   C2B 4748  20.275  25.572   8.375
   85POPC   C3B 4749  20.215  25.710   7.964
   85POPC   C4B 4750  20.468  25.789   7.634
   86POPC   NC3 4751   8.419  44.962   9.398
   86POPC   PO4 4752   8.754   0.572   9.565
   86POPC   GL1 4753   8.960   0.748   9.200
   86POPC   GL2 4754   9.139   0.462   9.074
   86POPC   C1A 4755   9.136   0.896   8.814
   86POPC   D2A 4756   9.158   0.603   8.478
   86POPC   C3A 4757   9.048   0.643   8.058
   86POPC   C4A 4758   9.146   0.325   7.757
   86POPC   C1B 4759   8.821   0.340   8.790
   86POPC   C2B 4760   8.851   0.163   8.381
   86POPC   C3B 4761   8.692   0.220   7.995
   86POPC   C4B 4762   8.680  44.977   7.631
   87POPC   NC3 4763  13.099  40.789   9.488
   87POPC   PO4 4764  12.555  41.192   9.409
   87POPC   GL1 4765  12.763  40.930   9.111
   87POPC   GL2 4766  12.683  40.580   9.196
   87POPC   C1A 4767  12.964  41.007   8.709
   87POPC   D2A 4768  12.940  40.804   8.340
   87POPC   C3A 4769  12.865  41.105   8.020
   87POPC   C4A 4770  12.679  41.154   7.616
   87POPC   C1B 4771  12.935  40.486   8.815
   87POPC   C2B 4772  12.819  40.285   8.428
   87POPC   C3B 4773  12.803  40.384   7.985
   87POPC   C4B 4774  13.038  40.324   7.614
   88POPC   NC3 4775   4.322   8.611   9.773
   88POPC   PO4 4776   4.028   9.087   9.413
   88POPC   GL1 4777   4.187   9.154   9.013
   88POPC   GL2 4778   3.993   8.938   8.927
   88POPC   C1A 4779   4.440   8.987   8.647
   88POPC   D2A 4780   4.756   9.123   8.338
   88POPC   C3A 4781   4.635   9.043   7.907
   88POPC   C4A 4782   4.578   8.653   7.700
   88POPC   C1B 4783   3.899   9.098   8.571
   88POPC   C2B 4784   3.988   8.804   8.307
   88POPC   C3B 4785   4.152   8.847   7.922
   88POPC   C4B 4786   4.164   8.932   7.510
   89POPC   NC3 4787  23.664   3.896   9.721
   89POPC   PO4 4788  23.925   3.257   9.566
   89POPC   GL1 4789  23.718   3.366   9.233
   89POPC   GL2 4790  23.796   3.714   9.254
   89POPC   C1A 4791  23.465   3.534   8.885
   89POPC   D2A 4792  23.511   3.813   8.517
   89POPC   C3A 4793  23.471   3.597   8.095
   89POPC   C4A 4794  23.630   3.501   7.688
   89POPC   C1B 4795  23.983   3.589   8.855
   89POPC   C2B 4796  24.042   3.818   8.458
   89POPC   C3B 4797  23.969   3.774   8.012
   89POPC   C4B 4798  24.131   3.494   7.697
   90POPC   NC3 4799  35.321  21.075   9.789
   90POPC   PO4 4800  35.123  21.656   9.720
   90POPC   GL1 4801  35.157  21.632   9.225
   90POPC   GL2 4802  35.439  21.450   9.112
   90POPC   C1A 4803  35.144  21.726   8.778
   90POPC   D2A 4804  35.484  21.642   8.482
   90POPC   C3A 4805  35.508  21.343   8.112
   90POPC   C4A 4806  35.421  21.479   7.654
   90POPC   C1B 4807  35.295  21.252   8.732
   90POPC   C2B 4808  35.047  21.404   8.349
   90POPC   C3B 4809  35.033  21.204   7.916
   90POPC   C4B 4810  35.390  20.986   7.734
   91POPC   NC3 4811  23.811  42.646   9.356
   91POPC   PO4 4812  23.581  42.121   9.672
   91POPC   GL1 4813  23.573  42.136   9.222
   91POPC   GL2 4814  23.846  42.024   9.020
   91POPC   C1A 4815  23.338  42.160   8.828
   91POPC   D2A 4816  23.373  42.434   8.472
   91POPC   C3A 4817  23.505  42.246   8.099
   91POPC   C4A 4818  23.515  42.457   7.707
   91POPC   C1B 4819  23.798  42.388   8.770
   91POPC   C2B 4820  23.931  42.690   8.494
   91POPC   C3B 4821  23.965  42.472   8.144
   91POPC   C4B 4822  24.028  42.400   7.720
   92POPC   NC3 4823  18.527  11.980   9.535
   92POPC   PO4 4824  19.246  11.906   9.441
   92POPC   GL1 4825  18.954  12.052   9.155
   92POPC   GL2 4826  19.225  12.087   8.932
   92POPC   C1A 4827  18.775  11.962   8.748
   92POPC   D2A 4828  18.837  11.698   8.410
   92POPC   C3A 4829  18.861  11.850   8.020
   92POPC   C4A 4830  18.950  12.128   7.734
   92POPC   C1B 4831  19.243  12.292   8.559
   92POPC   C2B 4832  19.253  12.224   8.134
   92POPC   C3B 4833  19.308  12.478   7.752
   92POPC   C4B 4834  19.251  12.473   7.298
   93POPC   NC3 4835   6.741   1.681   9.537
   93POPC   PO4 4836   6.218   2.226   9.620
   93POPC   GL1 4837   6.504   2.300   9.183
   93POPC   GL2 4838   6.817   2.123   9.172
   93POPC   C1A 4839   6.411   2.264   8.776
   93POPC   D2A 4840   6.250   2.196   8.378
   93POPC   C3A 4841   6.361   1.848   8.142
   93POPC   C4A 4842   6.429   1.811   7.706
   93POPC   C1B 4843   6.747   1.863   8.785
   93POPC   C2B 4844   6.818   1.695   8.385
   93POPC   C3B 4845   6.876   1.799   7.967
   93POPC   C4B 4846   6.889   1.767   7.531
   94POPC   NC3 4847  34.010  35.997   9.605
   94POPC   PO4 4848  33.702  36.635   9.475
   94POPC   GL1 4849  33.801  36.355   9.104
   94POPC   GL2 4850  34.033  36.051   9.105
   94POPC   C1A 4851  33.569  36.019   8.867
   94POPC   D2A 4852  33.546  35.902   8.435
   94POPC   C3A 4853  33.843  36.140   8.190
   94POPC   C4A 4854  33.793  36.299   7.779
   94POPC   C1B 4855  34.063  35.806   8.744
   94POPC   C2B 4856  34.001  35.656   8.303
   94POPC   C3B 4857  34.068  35.839   7.843
   94POPC   C4B 4858  34.189  35.832   7.358
   95POPC   NC3 4859  18.263   3.734   9.377
   95POPC   PO4 4860  17.951   3.156   9.514
   95POPC   GL1 4861  18.151   3.349   9.082
   95POPC   GL2 4862  18.480   3.630   8.959
   95POPC   C1A 4863  18.070   3.561   8.692
   95POPC   D2A 4864  18.342   3.547   8.333
   95POPC   C3A 4865  18.085   3.520   7.990
   95POPC   C4A 4866  18.157   3.432   7.551
   95POPC   C1B 4867  18.501   3.961   8.630
   95POPC   C2B 4868  18.657   3.942   8.203
   95POPC   C3B 4869  18.568   3.672   7.830
   95POPC   C4B 4870  18.571   3.663   7.358
   96POPC   NC3 4871  12.037  13.852   9.372
   96POPC   PO4 4872  12.453  13.273   9.490
   96POPC   GL1 4873  12.306  13.459   9.135
   96POPC   GL2 4874  12.464  13.796   9.127
   96POPC   C1A 4875  11.981  13.412   8.796
   96POPC   D2A 4876  11.644  13.577   8.520
   96POPC   C3A 4877  11.778  13.519   8.076
   96POPC   C4A 4878  11.617  13.760   7.764
   96POPC   C1B 4879  12.466  13.658   8.703
   96POPC   C2B 4880  12.163  13.680   8.395
   96POPC   C3B 4881  12.242  13.734   7.993
   96POPC   C4B 4882  12.625  13.566   7.891
   97POPC   NC3 4883  20.822   6.437   9.476
   97POPC   PO4 4884  20.245   6.795   9.711
   97POPC   GL1 4885  20.407   6.739   9.275
   97POPC   GL2 4886  20.531   7.049   9.090
   97POPC   C1A 4887  20.460   6.576   8.847
   97POPC   D2A 4888  20.527   6.275   8.505
   97POPC   C3A 4889  20.683   6.407   8.104
   97POPC   C4A 4890  20.715   6.602   7.730
   97POPC   C1B 4891  20.857   6.879   8.803
   97POPC   C2B 4892  20.819   6.759   8.425
   97POPC   C3B 4893  20.678   6.956   8.090
   97POPC   C4B 4894  20.903   7.082   7.745
   98POPC   NC3 4895  36.667   3.516   9.244
   98POPC   PO4 4896  37.257   3.897   9.220
   98POPC   GL1 4897  37.025   3.704   8.931
   98POPC   GL2 4898  37.190   3.395   9.066
   98POPC   C1A 4899  36.730   3.567   8.593
   98POPC   D2A 4900  36.627   3.313   8.235
   98POPC   C3A 4901  36.700   3.654   7.985
   98POPC   C4A 4902  37.120   3.895   7.958
   98POPC   C1B 4903  37.203   3.356   8.612
   98POPC   C2B 4904  37.271   3.451   8.199
   98POPC   C3B 4905  37.047   3.334   7.855
   98POPC   C4B 4906  36.646   3.195   7.684
   99POPC   NC3 4907  32.596  24.838   9.534
   99POPC   PO4 4908  32.470  24.162   9.593
   99POPC   GL1 4909  32.482  24.301   9.146
   99POPC   GL2 4910  32.428  24.655   9.094
   99POPC   C1A 4911  32.354  24.279   8.689
   99POPC   D2A 4912  32.091  24.301   8.296
   99POPC   C3A 4913  32.301  24.408   7.908
   99POPC   C4A 4914  32.191  24.338   7.480
   99POPC   C1B 4915  32.372  24.844   8.704
   99POPC   C2B 4916  32.474  24.712   8.285
   99POPC   C3B 4917  32.350  24.913   7.870
   99POPC   C4B 4918  32.372  24.886   7.399
  100POPC   NC3 4919  38.053   3.008   9.541
  100POPC   PO4 4920  38.786   2.814   9.623
  100POPC   GL1 4921  38.716   2.809   9.182
  100POPC   GL2 4922  38.354   2.780   9.173
  100POPC   C1A 4923  38.647   3.002   8.769
  100POPC   D2A 4924  38.683   3.277   8.394
  100POPC   C3A 4925  38.599   3.015   8.048
  100POPC   C4A 4926  38.610   2.671   7.787
  100POPC   C1B 4927  38.352   2.518   8.810
  100POPC   C2B 4928  38.498   2.610   8.412
  100POPC   C3B 4929  38.263   2.518   8.091
  100POPC   C4B 4930  38.145   2.420   7.730
  101POPC   NC3 4931   1.930  30.443   9.666
  101POPC   PO4 4932   2.160  31.043   9.601
  101POPC   GL1 4933   2.231  30.723   9.266
  101POPC   GL2 4934   1.884  30.772   9.168
  101POPC   C1A 4935   2.182  30.546   8.807
  101POPC   D2A 4936   1.981  30.780   8.438
  101POPC   C3A 4937   2.197  30.854   8.044
  101POPC   C4A 4938   2.361  30.638   7.683
  101POPC   C1B 4939   1.740  31.055   8.813
  101POPC   C2B 4940   1.620  31.205   8.389
  101POPC   C3B 4941   1.698  31.235   7.919
  101POPC   C4B 4942   1.895  30.915   7.635
  102POPC   NC3 4943  20.345  19.326   9.480
  102POPC   PO4 4944  19.692  19.023   9.503
  102POPC   GL1 4945  19.793  18.928   9.122
  102POPC   GL2 4946  20.143  18.983   9.155
  102POPC   C1A 4947  19.650  18.831   8.711
  102POPC   D2A 4948  19.683  19.099   8.354
  102POPC   C3A 4949  19.820  18.949   7.959
  102POPC   C4A 4950  19.732  18.650   7.688
  102POPC   C1B 4951  19.970  19.267   8.804
  102POPC   C2B 4952  19.862  19.554   8.471
  102POPC   C3B 4953  19.848  19.460   8.022
  102POPC   C4B 4954  20.024  19.296   7.647
  103POPC   NC3 4955   0.410  11.753   9.515
  103POPC   PO4 4956   0.258  12.461   9.466
  103POPC   GL1 4957   0.292  12.112   9.175
  103POPC   GL2 4958   0.086  12.244   9.010
  103POPC   C1A 4959   0.498  11.830   8.864
  103POPC   D2A 4960   0.691  11.955   8.474
  103POPC   C3A 4961   0.761  11.744   8.093
  103POPC   C4A 4962   0.550  11.740   7.711
  103POPC   C1B 4963   0.488  12.335   8.762
  103POPC   C2B 4964   0.390  12.410   8.344
  103POPC   C3B 4965   0.552  12.334   7.976
  103POPC   C4B 4966   0.395  12.206   7.627
  104POPC   NC3 4967   1.025   6.001   9.719
  104POPC   PO4 4968   0.326   6.066   9.638
  104POPC   GL1 4969   0.290   5.981   9.162
  104POPC   GL2 4970   0.141   6.262   8.990
  104POPC   C1A 4971   0.538   5.784   8.773
  104POPC   D2A 4972   0.347   5.900   8.343
  104POPC   C3A 4973   0.530   5.838   7.964
  104POPC   C4A 4974   0.692   6.203   7.746
  104POPC   C1B 4975   0.051   5.828   8.747
  104POPC   C2B 4976   0.105   5.476   8.424
  104POPC   C3B 4977   0.046   5.610   7.988
  104POPC   C4B 4978   0.051   6.043   7.842
  105POPC   NC3 4979  16.343  22.803   9.707
  105POPC   PO4 4980  16.984  23.034   9.623
  105POPC   GL1 4981  16.746  23.039   9.301
  105POPC   GL2 4982  16.767  22.697   9.169
  105POPC   C1A 4983  16.703  23.151   8.882
  105POPC   D2A 4984  16.640  22.937   8.512
  105POPC   C3A 4985  16.715  23.053   8.079
  105POPC   C4A 4986  16.632  22.855   7.684
  105POPC   C1B 4987  17.019  22.749   8.793
  105POPC   C2B 4988  17.090  22.786   8.334
  105POPC   C3B 4989  16.961  22.529   7.966
  105POPC   C4B 4990  16.986  22.552   7.481
  106POPC   NC3 4991  27.694  16.951   9.700
  106POPC   PO4 4992  27.780  16.361   9.408
  106POPC   GL1 4993  27.508  16.675   9.251
  106POPC   GL2 4994  27.284  16.976   9.332
  106POPC   C1A 4995  27.365  16.641   8.853
  106POPC   D2A 4996  27.526  16.809   8.493
  106POPC   C3A 4997  27.469  16.615   8.081
  106POPC   C4A 4998  27.693  16.734   7.698
  106POPC   C1B 4999  27.278  17.135   8.879
  106POPC   C2B 5000  27.307  17.273   8.427
  106POPC   C3B 5001  27.483  17.120   8.043
  106POPC   C4B 5002  27.181  16.904   7.757
  107POPC   NC3 5003  42.034  16.288   9.511
  107POPC   PO4 5004  42.433  15.792   9.679
  107POPC   GL1 5005  42.462  15.819   9.206
  107POPC   GL2 5006  42.354  15.468   9.112
  107POPC   C1A 5007  42.580  16.016   8.784
  107POPC   D2A 5008  42.585  16.200   8.369
  107POPC   C3A 5009  42.697  15.989   8.013
  107POPC   C4A 5010  42.510  15.834   7.627
  107POPC   C1B 5011  42.205  15.701   8.764
  107POPC   C2B 5012  42.336  15.717   8.360
  107POPC   C3B 5013  42.195  15.908   8.025
  107POPC   C4B 5014  41.929  15.834   7.724
  108POPC   NC3 5015  38.107  12.609   9.418
  108POPC   PO4 5016  38.482  13.098   9.583
  108POPC   GL1 5017  38.385  12.967   9.176
  108POPC   GL2 5018  38.719  12.834   9.170
  108POPC   C1A 5019  38.366  12.785   8.759
  108POPC   D2A 5020  38.557  12.588   8.405
  108POPC   C3A 5021  38.355  12.787   8.067
  108POPC   C4A 5022  38.313  13.063   7.717
  108POPC   C1B 5023  38.866  12.905   8.748
  108POPC   C2B 5024  38.780  13.025   8.307
  108POPC   C3B 5025  38.801  12.990   7.871
  108POPC   C4B 5026  38.674  12.615   7.689
  109POPC   NC3 5027   5.623  34.681   9.396
  109POPC   PO4 5028   6.163  34.322   9.495
  109POPC   GL1 5029   5.934  34.356   9.116
  109POPC   GL2 5030   5.705  34.107   9.078
  109POPC   C1A 5031   5.777  34.609   8.747
  109POPC   D2A 5032   5.595  34.578   8.337
  109POPC   C3A 5033   5.892  34.672   7.987
  109POPC   C4A 5034   5.851  35.078   7.739
  109POPC   C1B 5035   5.806  34.119   8.672
  109POPC   C2B 5036   5.960  34.238   8.304
  109POPC   C3B 5037   5.720  34.195   7.981
  109POPC   C4B 5038   5.634  34.459   7.626
  110POPC   NC3 5039  25.681  20.714   9.493
  110POPC   PO4 5040  24.929  20.647   9.533
  110POPC   GL1 5041  25.035  20.776   9.114
  110POPC   GL2 5042  25.357  20.769   9.087
  110POPC   C1A 5043  25.032  20.712   8.662
  110POPC   D2A 5044  25.233  20.902   8.288
  110POPC   C3A 5045  25.160  20.665   7.921
  110POPC   C4A 5046  25.500  20.417   7.737
  110POPC   C1B 5047  25.555  20.727   8.665
  110POPC   C2B 5048  25.757  20.943   8.327
  110POPC   C3B 5049  25.610  20.901   7.889
  110POPC   C4B 5050  25.648  20.860   7.413
  111POPC   NC3 5051   9.213  20.343   9.405
  111POPC   PO4 5052   8.699  19.976   9.766
  111POPC   GL1 5053   8.758  19.790   9.310
  111POPC   GL2 5054   9.110  19.883   9.208
  111POPC   C1A 5055   8.847  19.665   8.814
  111POPC   D2A 5056   8.746  19.461   8.388
  111POPC   C3A 5057   8.785  19.693   8.003
  111POPC   C4A 5058   9.080  19.865   7.692
  111POPC   C1B 5059   9.165  20.086   8.790
  111POPC   C2B 5060   9.313  19.897   8.401
  111POPC   C3B 5061   9.422  20.083   8.014
  111POPC   C4B 5062   9.246  20.453   7.829
  112POPC   NC3 5063  29.613  23.372   9.428
  112POPC   PO4 5064  30.262  23.611   9.533
  112POPC   GL1 5065  30.137  23.437   9.136
  112POPC   GL2 5066  29.832  23.668   9.060
  112POPC   C1A 5067  30.116  23.550   8.691
  112POPC   D2A 5068  29.736  23.616   8.489
  112POPC   C3A 5069  29.874  23.492   8.148
  112POPC   C4A 5070  29.806  23.488   7.759
  112POPC   C1B 5071  29.664  24.017   8.784
  112POPC   C2B 5072  29.580  24.099   8.359
  112POPC   C3B 5073  29.728  23.961   7.948
  112POPC   C4B 5074  29.751  24.181   7.566
  113POPC   NC3 5075  10.094  21.696   9.379
  113POPC   PO4 5076  10.733  21.764   9.522
  113POPC   GL1 5077  10.517  21.462   9.219
  113POPC   GL2 5078  10.204  21.216   9.227
  113POPC   C1A 5079  10.412  21.519   8.800
  113POPC   D2A 5080  10.697  21.597   8.490
  113POPC   C3A 5081  10.575  21.597   8.065
  113POPC   C4A 5082  10.714  21.740   7.671
  113POPC   C1B 5083  10.444  21.007   8.877
  113POPC   C2B 5084  10.439  21.136   8.447
  113POPC   C3B 5085  10.609  21.079   8.055
  113POPC   C4B 5086  10.514  21.209   7.646
  114POPC   NC3 5087   9.369   4.238   9.466
  114POPC   PO4 5088   8.739   4.229   9.552
  114POPC   GL1 5089   8.802   4.046   9.164
  114POPC   GL2 5090   9.107   3.858   9.171
  114POPC   C1A 5091   8.761   4.270   8.745
  114POPC   D2A 5092   9.105   4.340   8.404
  114POPC   C3A 5093   8.982   4.368   7.976
  114POPC   C4A 5094   9.060   4.764   7.778
  114POPC   C1B 5095   9.223   4.020   8.790
  114POPC   C2B 5096   9.374   3.881   8.409
  114POPC   C3B 5097   9.196   3.892   8.021
  114POPC   C4B 5098   9.090   4.030   7.590
  115POPC   NC3 5099   2.899  29.494   9.631
  115POPC   PO4 5100   2.586  28.938   9.573
  115POPC   GL1 5101   2.752  29.033   9.182
  115POPC   GL2 5102   2.461  28.861   9.073
  115POPC   C1A 5103   2.936  29.218   8.792
  115POPC   D2A 5104   2.977  29.453   8.373
  115POPC   C3A 5105   2.882  29.271   7.943
  115POPC   C4A 5106   2.587  29.459   7.653
  115POPC   C1B 5107   2.503  28.924   8.679
  115POPC   C2B 5108   2.608  29.062   8.314
  115POPC   C3B 5109   2.386  29.099   7.943
  115POPC   C4B 5110   2.600  28.861   7.704
  116POPC   NC3 5111  44.497  19.644   9.405
  116POPC   PO4 5112  44.318  20.283   9.389
  116POPC   GL1 5113  44.463  20.033   9.039
  116POPC   GL2 5114  44.790  19.858   9.067
  116POPC   C1A 5115  44.498  19.872   8.617
  116POPC   D2A 5116  44.805  19.943   8.337
  116POPC   C3A 5117  44.666  20.043   7.900
  116POPC   C4A 5118  44.502  20.056   7.434
  116POPC   C1B 5119  44.771  19.477   8.795
  116POPC   C2B 5120  44.881  19.424   8.381
  116POPC   C3B 5121  44.642  19.556   8.029
  116POPC   C4B 5122  44.706  19.626   7.605
  117POPC   NC3 5123  32.583  22.106   9.471
  117POPC   PO4 5124  32.051  22.361   9.735
  117POPC   GL1 5125  32.047  22.411   9.230
  117POPC   GL2 5126  32.217  22.116   9.111
  117POPC   C1A 5127  32.115  22.395   8.709
  117POPC   D2A 5128  32.101  22.147   8.297
  117POPC   C3A 5129  32.387  22.183   7.925
  117POPC   C4A 5130  32.401  22.475   7.561
  117POPC   C1B 5131  32.318  21.905   8.697
  117POPC   C2B 5132  32.600  21.797   8.328
  117POPC   C3B 5133  32.670  21.754   7.869
  117POPC   C4B 5134  32.657  21.940   7.463
  118POPC   NC3 5135  42.080  25.272   9.507
  118POPC   PO4 5136  42.738  25.585   9.541
  118POPC   GL1 5137  42.451  25.464   9.198
  118POPC   GL2 5138  42.537  25.094   9.141
  118POPC   C1A 5139  42.477  25.507   8.744
  118POPC   D2A 5140  42.492  25.206   8.409
  118POPC   C3A 5141  42.365  25.364   8.035
  118POPC   C4A 5142  42.521  25.606   7.709
  118POPC   C1B 5143  42.220  25.052   8.812
  118POPC   C2B 5144  42.030  24.988   8.368
  118POPC   C3B 5145  42.070  24.964   7.871
  118POPC   C4B 5146  41.901  25.008   7.425
  119POPC   NC3 5147  15.140  40.049   9.876
  119POPC   PO4 5148  14.659  40.293   9.491
  119POPC   GL1 5149  15.090  40.092   9.308
  119POPC   GL2 5150  15.384  39.836   9.326
  119POPC   C1A 5151  15.290  40.137   8.880
  119POPC   D2A 5152  15.015  40.203   8.530
  119POPC   C3A 5153  15.083  40.272   8.105
  119POPC   C4A 5154  15.015  40.123   7.745
  119POPC   C1B 5155  15.344  39.596   8.937
  119POPC   C2B 5156  15.370  39.485   8.509
  119POPC   C3B 5157  15.342  39.815   8.205
  119POPC   C4B 5158  14.990  39.663   7.955
  120POPC   NC3 5159  18.808  41.926   9.438
  120POPC   PO4 5160  18.892  41.210   9.494
  120POPC   GL1 5161  19.088  41.466   9.186
  120POPC   GL2 5162  19.329  41.681   9.363
  120POPC   C1A 5163  18.973  41.624   8.764
  120POPC   D2A 5164  18.864  41.846   8.366
  120POPC   C3A 5165  18.757  41.665   7.937
  120POPC   C4A 5166  18.914  41.501   7.498
  120POPC   C1B 5167  19.421  41.787   8.931
  120POPC   C2B 5168  19.415  41.710   8.507
  120POPC   C3B 5169  19.254  41.609   8.138
  120POPC   C4B 5170  19.371  41.641   7.723
  121POPC   NC3 5171  21.239   4.053   9.586
  121POPC   PO4 5172  21.607   4.643   9.390
  121POPC   GL1 5173  21.272   4.425   9.180
  121POPC   GL2 5174  21.460   4.134   9.140
  121POPC   C1A 5175  21.126   4.234   8.772
  121POPC   D2A 5176  21.285   4.349   8.362
  121POPC   C3A 5177  21.047   4.195   8.033
  121POPC   C4A 5178  21.072   4.059   7.594
  121POPC   C1B 5179  21.647   4.287   8.755
  121POPC   C2B 5180  21.745   4.624   8.467
  121POPC   C3B 5181  21.671   4.597   8.029
  121POPC   C4B 5182  21.827   4.366   7.662
  122POPC   NC3 5183  34.828  24.782   9.527
  122POPC   PO4 5184  34.645  25.449   9.567
  122POPC   GL1 5185  34.433  25.396   9.202
  122POPC   GL2 5186  34.554  25.072   9.189
  122POPC   C1A 5187  34.432  25.505   8.778
  122POPC   D2A 5188  34.444  25.709   8.372
  122POPC   C3A 5189  34.745  25.532   8.060
  122POPC   C4A 5190  34.651  25.329   7.644
  122POPC   C1B 5191  34.365  24.983   8.817
  122POPC   C2B 5192  34.267  25.153   8.441
  122POPC   C3B 5193  34.347  25.219   8.038
  122POPC   C4B 5194  34.284  24.930   7.733
  123POPC   NC3 5195  37.966  44.688   9.593
  123POPC   PO4 5196  37.466  44.394   9.473
  123POPC   GL1 5197  37.558  44.568   9.076
  123POPC   GL2 5198  37.501  44.913   9.011
  123POPC   C1A 5199  37.674  44.524   8.653
  123POPC   D2A 5200  37.889  44.697   8.317
  123POPC   C3A 5201  37.858  44.528   7.912
  123POPC   C4A 5202  37.576  44.587   7.589
  123POPC   C1B 5203  37.209  44.736   8.721
  123POPC   C2B 5204  37.335  44.731   8.330
  123POPC   C3B 5205  37.472  44.882   7.992
  123POPC   C4B 5206  37.419   0.208   7.738
  124POPC   NC3 5207  33.518  27.289   9.491
  124POPC   PO4 5208  33.101  27.774   9.672
  124POPC   GL1 5209  33.100  27.611   9.263
  124POPC   GL2 5210  33.135  27.970   9.170
  124POPC   C1A 5211  33.022  27.300   8.895
  124POPC   D2A 5212  33.199  27.283   8.468
  124POPC   C3A 5213  32.931  27.381   8.113
  124POPC   C4A 5214  32.978  27.598   7.711
  124POPC   C1B 5215  33.245  27.756   8.797
  124POPC   C2B 5216  33.093  27.818   8.402
  124POPC   C3B 5217  33.286  27.832   8.041
  124POPC   C4B 5218  33.454  28.020   7.685
  125POPC   NC3 5219  26.482   3.345   9.456
  125POPC   PO4 5220  26.975   3.771   9.457
  125POPC   GL1 5221  26.702   3.696   9.135
  125POPC   GL2 5222  26.796   3.337   9.056
  125POPC   C1A 5223  26.793   3.713   8.718
  125POPC   D2A 5224  26.685   3.585   8.332
  125POPC   C3A 5225  26.994   3.570   8.026
  125POPC   C4A 5226  26.920   3.621   7.622
  125POPC   C1B 5227  26.472   3.237   8.704
  125POPC   C2B 5228  26.437   3.165   8.218
  125POPC   C3B 5229  26.494   3.440   7.873
  125POPC   C4B 5230  26.485   3.381   7.455
  126POPC   NC3 5231  33.610   7.075   9.500
  126POPC   PO4 5232  33.908   7.635   9.801
  126POPC   GL1 5233  33.863   7.506   9.333
  126POPC   GL2 5234  34.048   7.199   9.236
  126POPC   C1A 5235  33.889   7.509   8.857
  126POPC   D2A 5236  33.775   7.708   8.486
  126POPC   C3A 5237  33.531   7.515   8.150
  126POPC   C4A 5238  33.690   7.308   7.784
  126POPC   C1B 5239  34.310   7.219   8.863
  126POPC   C2B 5240  34.157   7.190   8.428
  126POPC   C3B 5241  34.052   7.512   8.112
  126POPC   C4B 5242  34.090   7.642   7.673
  127POPC   NC3 5243   1.414  30.702   9.408
  127POPC   PO4 5244   0.807  30.401   9.657
  127POPC   GL1 5245   0.971  30.573   9.213
  127POPC   GL2 5246   1.085  30.955   9.132
  127POPC   C1A 5247   1.216  30.543   8.822
  127POPC   D2A 5248   1.441  30.655   8.446
  127POPC   C3A 5249   1.213  30.402   8.136
  127POPC   C4A 5250   1.109  30.524   7.731
  127POPC   C1B 5251   1.212  31.079   8.704
  127POPC   C2B 5252   1.156  31.149   8.224
  127POPC   C3B 5253   1.166  31.127   7.779
  127POPC   C4B 5254   1.458  31.128   7.439
  128POPC   NC3 5255  32.941  31.690   9.965
  128POPC   PO4 5256  33.191  31.261   9.476
  128POPC   GL1 5257  33.007  31.373   9.117
  128POPC   GL2 5258  33.004  31.700   9.184
  128POPC   C1A 5259  32.824  31.556   8.740
  128POPC   D2A 5260  32.981  31.737   8.366
  128POPC   C3A 5261  32.972  31.505   8.002
  128POPC   C4A 5262  32.623  31.403   7.747
  128POPC   C1B 5263  33.263  31.870   8.803
  128POPC   C2B 5264  33.383  32.021   8.369
  128POPC   C3B 5265  33.314  31.916   7.943
  128POPC   C4B 5266  33.000  31.920   7.664
  129POPC   NC3 5267  19.348  19.408   9.484
  129POPC   PO4 5268  18.743  19.256   9.266
  129POPC   GL1 5269  18.985  19.178   8.969
  129POPC   GL2 5270  19.289  19.044   9.107
  129POPC   C1A 5271  18.811  19.255   8.587
  129POPC   D2A 5272  18.846  19.282   8.174
  129POPC   C3A 5273  18.920  18.911   7.981
  129POPC   C4A 5274  18.917  18.852   7.545
  129POPC   C1B 5275  19.447  19.306   8.780
  129POPC   C2B 5276  19.301  19.476   8.413
  129POPC   C3B 5277  19.333  19.374   8.022
  129POPC   C4B 5278  19.362  19.044   7.744
  130POPC   NC3 5279  14.466   6.255   9.435
  130POPC   PO4 5280  14.576   6.929   9.438
  130POPC   GL1 5281  14.364   6.653   9.119
  130POPC   GL2 5282  14.622   6.461   8.983
  130POPC   C1A 5283  14.305   6.721   8.656
  130POPC   D2A 5284  14.482   6.700   8.248
  130POPC   C3A 5285  14.157   6.739   7.976
  130POPC   C4A 5286  14.047   6.677   7.554
  130POPC   C1B 5287  14.332   6.224   8.733
  130POPC   C2B 5288  14.161   6.285   8.301
  130POPC   C3B 5289  14.330   6.260   7.889
  130POPC   C4B 5290  14.653   6.553   7.691
  131POPC   NC3 5291  13.972  36.105   9.620
  131POPC   PO4 5292  13.371  36.386   9.759
  131POPC   GL1 5293  13.562  36.116   9.354
  131POPC   GL2 5294  13.317  35.970   9.082
  131POPC   C1A 5295  13.790  36.038   8.958
  131POPC   D2A 5296  13.727  35.877   8.544
  131POPC   C3A 5297  13.810  36.179   8.253
  131POPC   C4A 5298  13.836  36.059   7.856
  131POPC   C1B 5299  13.355  36.200   8.685
  131POPC   C2B 5300  13.253  36.302   8.282
  131POPC   C3B 5301  13.395  36.331   7.866
  131POPC   C4B 5302  13.183  36.393   7.481
  132POPC   NC3 5303  16.379  42.364   9.840
  132POPC   PO4 5304  16.721  42.304   9.296
  132POPC   GL1 5305  16.670  42.380   8.950
  132POPC   GL2 5306  16.354  42.298   8.865
  132POPC   C1A 5307  16.900  42.466   8.635
  132POPC   D2A 5308  16.593  42.574   8.396
  132POPC   C3A 5309  16.677  42.458   7.995
  132POPC   C4A 5310  16.755  42.642   7.606
  132POPC   C1B 5311  16.396  41.955   8.660
  132POPC   C2B 5312  16.649  42.073   8.359
  132POPC   C3B 5313  16.461  42.001   8.025
  132POPC   C4B 5314  16.403  42.144   7.660
  133POPC   NC3 5315  31.788   3.777   9.264
  133POPC   PO4 5316  31.399   3.389   9.708
  133POPC   GL1 5317  31.524   3.306   9.274
  133POPC   GL2 5318  31.233   3.251   9.060
  133POPC   C1A 5319  31.686   3.241   8.854
  133POPC   D2A 5320  31.735   3.464   8.504
  133POPC   C3A 5321  31.525   3.324   8.155
  133POPC   C4A 5322  31.520   3.525   7.787
  133POPC   C1B 5323  31.214   3.324   8.616
  133POPC   C2B 5324  31.193   3.705   8.385
  133POPC   C3B 5325  31.189   3.946   7.988
  133POPC   C4B 5326  31.215   3.868   7.580
  134POPC   NC3 5327  39.794  35.113   9.605
  134POPC   PO4 5328  39.710  35.786   9.486
  134POPC   GL1 5329  39.789  35.437   9.191
  134POPC   GL2 5330  40.102  35.254   9.226
  134POPC   C1A 5331  39.847  35.293   8.765
  134POPC   D2A 5332  39.664  35.438   8.397
  134POPC   C3A 5333  39.895  35.283   8.060
  134POPC   C4A 5334  39.874  35.216   7.648
  134POPC   C1B 5335  40.293  35.497   8.875
  134POPC   C2B 5336  40.304  35.363   8.447
  134POPC   C3B 5337  40.317  35.538   8.038
  134POPC   C4B 5338  40.357  35.364   7.635
  135POPC   NC3 5339  14.961  38.262   9.453
  135POPC   PO4 5340  15.382  38.828   9.506
  135POPC   GL1 5341  15.308  38.560   9.119
  135POPC   GL2 5342  15.115  38.247   8.984
  135POPC   C1A 5343  15.371  38.537   8.669
  135POPC   D2A 5344  15.071  38.493   8.338
  135POPC   C3A 5345  15.140  38.643   7.911
  135POPC   C4A 5346  15.474  38.522   7.622
  135POPC   C1B 5347  15.445  38.015   8.730
  135POPC   C2B 5348  15.573  38.040   8.277
  135POPC   C3B 5349  15.304  38.145   7.946
  135POPC   C4B 5350  14.865  38.198   7.974
  136POPC   NC3 5351  25.576  41.828   9.582
  136POPC   PO4 5352  25.030  42.046   9.251
  136POPC   GL1 5353  25.264  41.806   9.018
  136POPC   GL2 5354  25.116  41.541   9.101
  136POPC   C1A 5355  25.154  41.596   8.592
  136POPC   D2A 5356  24.867  41.581   8.261
  136POPC   C3A 5357  25.125  41.707   7.917
  136POPC   C4A 5358  24.985  41.890   7.510
  136POPC   C1B 5359  24.973  41.181   8.844
  136POPC   C2B 5360  25.028  40.990   8.445
  136POPC   C3B 5361  25.165  41.218   8.108
  136POPC   C4B 5362  24.912  41.311   7.718
  137POPC   NC3 5363  11.498  43.955   9.390
  137POPC   PO4 5364  11.097  43.538   9.601
  137POPC   GL1 5365  11.151  43.669   9.165
  137POPC   GL2 5366  11.056  44.031   9.144
  137POPC   C1A 5367  11.318  43.854   8.738
  137POPC   D2A 5368  11.613  43.735   8.419
  137POPC   C3A 5369  11.666  43.991   8.066
  137POPC   C4A 5370  11.504  43.934   7.648
  137POPC   C1B 5371  10.910  44.184   8.742
  137POPC   C2B 5372  10.930  43.937   8.390
  137POPC   C3B 5373  11.173  43.930   8.092
  137POPC   C4B 5374  11.146  44.261   7.807
  138POPC   NC3 5375  24.199  30.438   9.562
  138POPC   PO4 5376  24.645  30.809   9.284
  138POPC   GL1 5377  24.399  30.481   9.080
  138POPC   GL2 5378  24.054  30.619   9.096
  138POPC   C1A 5379  24.338  30.552   8.654
  138POPC   D2A 5380  24.516  30.516   8.273
  138POPC   C3A 5381  24.767  30.803   8.050
  138POPC   C4A 5382  24.869  30.989   7.671
  138POPC   C1B 5383  23.853  30.671   8.687
  138POPC   C2B 5384  23.947  30.602   8.227
  138POPC   C3B 5385  24.234  30.672   7.860
  138POPC   C4B 5386  24.562  30.391   7.781
  139POPC   NC3 5387  15.256  32.233   9.546
  139POPC   PO4 5388  14.929  32.813   9.391
  139POPC   GL1 5389  15.002  32.391   9.127
  139POPC   GL2 5390  15.318  32.142   9.060
  139POPC   C1A 5391  15.052  32.376   8.687
  139POPC   D2A 5392  15.227  32.671   8.419
  139POPC   C3A 5393  15.094  32.565   8.050
  139POPC   C4A 5394  15.146  32.339   7.693
  139POPC   C1B 5395  15.537  32.274   8.678
  139POPC   C2B 5396  15.427  32.196   8.228
  139POPC   C3B 5397  15.573  32.093   7.789
  139POPC   C4B 5398  15.436  32.104   7.337
  140POPC   NC3 5399  38.722  37.920   9.454
  140POPC   PO4 5400  38.136  37.547   9.540
  140POPC   GL1 5401  38.338  37.696   9.189
  140POPC   GL2 5402  38.225  38.025   9.311
  140POPC   C1A 5403  38.537  37.591   8.777
  140POPC   D2A 5404  38.324  37.419   8.390
  140POPC   C3A 5405  38.506  37.493   8.005
  140POPC   C4A 5406  38.750  37.575   7.627
  140POPC   C1B 5407  38.108  38.032   8.881
  140POPC   C2B 5408  38.272  37.926   8.500
  140POPC   C3B 5409  38.211  37.950   8.084
  140POPC   C4B 5410  38.298  37.837   7.687
  141POPC   NC3 5411  15.205  19.889   9.487
  141POPC   PO4 5412  15.457  19.339   9.680
  141POPC   GL1 5413  15.181  19.485   9.204
  141POPC   GL2 5414  15.035  19.812   9.020
  141POPC   C1A 5415  15.286  19.487   8.727
  141POPC   D2A 5416  15.088  19.614   8.342
  141POPC   C3A 5417  15.250  19.978   8.171
  141POPC   C4A 5418  15.313  20.038   7.739
  141POPC   C1B 5419  14.804  19.906   8.665
  141POPC   C2B 5420  14.711  19.996   8.239
  141POPC   C3B 5421  14.835  19.921   7.834
  141POPC   C4B 5422  15.122  19.562   7.755
  142POPC   NC3 5423  26.607  10.558   9.638
  142POPC   PO4 5424  27.323  10.510   9.643
  142POPC   GL1 5425  27.016  10.565   9.241
  142POPC   GL2 5426  26.663  10.705   9.162
  142POPC   C1A 5427  26.860  10.383   8.827
  142POPC   D2A 5428  27.023  10.181   8.449
  142POPC   C3A 5429  26.961  10.437   8.123
  142POPC   C4A 5430  26.848  10.375   7.726
  142POPC   C1B 5431  26.825  10.919   8.823
  142POPC   C2B 5432  26.742  10.786   8.413
  142POPC   C3B 5433  26.698  10.874   7.988
  142POPC   C4B 5434  26.548  10.762   7.613
  143POPC   NC3 5435  35.608  43.808   9.523
  143POPC   PO4 5436  35.120  44.285   9.493
  143POPC   GL1 5437  35.464  44.137   9.157
  143POPC   GL2 5438  35.493  43.777   9.037
  143POPC   C1A 5439  35.485  44.161   8.705
  143POPC   D2A 5440  35.098  44.235   8.506
  143POPC   C3A 5441  35.082  44.106   8.120
  143POPC   C4A 5442  35.397  44.162   7.837
  143POPC   C1B 5443  35.591  43.640   8.624
  143POPC   C2B 5444  35.511  43.833   8.227
  143POPC   C3B 5445  35.423  43.651   7.789
  143POPC   C4B 5446  35.593  43.576   7.329
  144POPC   NC3 5447   6.334  22.802   9.471
  144POPC   PO4 5448   5.713  22.840   9.570
  144POPC   GL1 5449   5.831  22.944   9.180
  144POPC   GL2 5450   5.910  23.289   9.143
  144POPC   C1A 5451   5.657  22.970   8.793
  144POPC   D2A 5452   5.714  22.786   8.397
  144POPC   C3A 5453   5.831  23.093   8.106
  144POPC   C4A 5454   5.945  22.995   7.714
  144POPC   C1B 5455   5.953  23.431   8.701
  144POPC   C2B 5456   6.201  23.433   8.292
  144POPC   C3B 5457   6.213  23.397   7.835
  144POPC   C4B 5458   6.096  23.348   7.373
  145POPC   NC3 5459  22.039  21.219   9.365
  145POPC   PO4 5460  22.222  21.844   9.703
  145POPC   GL1 5461  22.267  21.661   9.247
  145POPC   GL2 5462  21.933  21.602   9.062
  145POPC   C1A 5463  22.359  21.509   8.789
  145POPC   D2A 5464  22.200  21.485   8.360
  145POPC   C3A 5465  22.254  21.151   8.062
  145POPC   C4A 5466  22.318  21.444   7.742
  145POPC   C1B 5467  21.737  21.877   8.769
  145POPC   C2B 5468  21.704  21.658   8.390
  145POPC   C3B 5469  21.866  21.676   7.960
  145POPC   C4B 5470  21.692  21.818   7.571
  146POPC   NC3 5471  42.862  12.656   9.738
  146POPC   PO4 5472  43.074  13.195   9.481
  146POPC   GL1 5473  43.037  13.074   9.105
  146POPC   GL2 5474  42.931  12.747   9.229
  146POPC   C1A 5475  43.028  13.177   8.690
  146POPC   D2A 5476  42.925  13.190   8.298
  146POPC   C3A 5477  43.193  13.191   7.986
  146POPC   C4A 5478  43.050  13.287   7.594
  146POPC   C1B 5479  42.975  12.671   8.791
  146POPC   C2B 5480  42.770  12.663   8.386
  146POPC   C3B 5481  42.914  12.739   7.975
  146POPC   C4B 5482  43.248  12.765   7.705
  147POPC   NC3 5483  21.296  44.317   9.362
  147POPC   PO4 5484  21.550  44.945   9.456
  147POPC   GL1 5485  21.403  44.746   9.077
  147POPC   GL2 5486  21.047  44.711   9.168
  147POPC   C1A 5487  21.365  44.418   8.735
  147POPC   D2A 5488  21.435  44.204   8.350
  147POPC   C3A 5489  21.500  44.522   8.035
  147POPC   C4A 5490  21.604  44.453   7.622
  147POPC   C1B 5491  20.881  44.614   8.782
  147POPC   C2B 5492  21.065  44.657   8.374
  147POPC   C3B 5493  20.993  44.425   8.021
  147POPC   C4B 5494  21.102  44.639   7.681
  148POPC   NC3 5495  37.694  36.370   9.455
  148POPC   PO4 5496  37.281  35.789   9.353
  148POPC   GL1 5497  37.540  36.052   9.067
  148POPC   GL2 5498  37.879  36.083   9.069
  148POPC   C1A 5499  37.613  36.176   8.626
  148POPC   D2A 5500  37.519  35.932   8.278
  148POPC   C3A 5501  37.446  36.193   7.915
  148POPC   C4A 5502  37.568  36.354   7.496
  148POPC   C1B 5503  37.907  35.791   8.753
  148POPC   C2B 5504  38.049  35.861   8.371
  148POPC   C3B 5505  37.943  36.160   8.076
  148POPC   C4B 5506  37.843  35.942   7.722
  149POPC   NC3 5507   7.382  17.012   9.589
  149POPC   PO4 5508   8.002  16.771   9.635
  149POPC   GL1 5509   7.757  16.836   9.227
  149POPC   GL2 5510   7.521  16.558   9.140
  149POPC   C1A 5511   7.765  16.832   8.752
  149POPC   D2A 5512   7.539  16.987   8.375
  149POPC   C3A 5513   7.531  16.688   8.044
  149POPC   C4A 5514   7.759  16.774   7.702
  149POPC   C1B 5515   7.232  16.663   8.765
  149POPC   C2B 5516   7.098  16.722   8.319
  149POPC   C3B 5517   7.039  16.769   7.887
  149POPC   C4B 5518   7.325  17.060   7.706
  150POPC   NC3 5519  36.089  28.319   9.603
  150POPC   PO4 5520  35.512  28.214   9.383
  150POPC   GL1 5521  35.887  28.385   9.100
  150POPC   GL2 5522  36.216  28.511   9.119
  150POPC   C1A 5523  36.194  28.304   8.680
  150POPC   D2A 5524  35.987  28.159   8.322
  150POPC   C3A 5525  36.134  28.105   7.916
  150POPC   C4A 5526  36.009  28.251   7.514
  150POPC   C1B 5527  36.045  28.780   8.761
  150POPC   C2B 5528  36.100  28.693   8.280
  150POPC   C3B 5529  36.154  28.666   7.794
  150POPC   C4B 5530  36.329  28.626   7.361
  151POPC   NC3 5531  11.469  34.237   9.502
  151POPC   PO4 5532  11.436  34.861   9.426
  151POPC   GL1 5533  11.403  34.531   9.112
  151POPC   GL2 5534  11.109  34.330   9.119
  151POPC   C1A 5535  11.448  34.416   8.711
  151POPC   D2A 5536  11.695  34.740   8.555
  151POPC   C3A 5537  11.614  34.686   8.173
  151POPC   C4A 5538  11.443  34.333   7.878
  151POPC   C1B 5539  11.024  34.741   8.861
  151POPC   C2B 5540  11.196  34.839   8.453
  151POPC   C3B 5541  11.144  34.717   8.003
  151POPC   C4B 5542  10.878  34.541   7.745
  152POPC   NC3 5543   2.012  15.182   9.932
  152POPC   PO4 5544   1.481  15.520   9.590
  152POPC   GL1 5545   1.763  15.246   9.284
  152POPC   GL2 5546   2.116  15.296   9.246
  152POPC   C1A 5547   1.958  14.958   8.919
  152POPC   D2A 5548   1.943  14.877   8.473
  152POPC   C3A 5549   2.163  15.084   8.126
  152POPC   C4A 5550   2.090  14.980   7.696
  152POPC   C1B 5551   1.908  15.465   8.825
  152POPC   C2B 5552   1.778  15.386   8.359
  152POPC   C3B 5553   1.807  15.404   7.875
  152POPC   C4B 5554   2.149  15.474   7.590
  153POPC   NC3 5555  28.569  15.356   9.647
  153POPC   PO4 5556  28.193  14.824   9.559
  153POPC   GL1 5557  28.422  15.062   9.248
  153POPC   GL2 5558  28.116  15.115   9.132
  153POPC   C1A 5559  28.563  14.982   8.795
  153POPC   D2A 5560  28.583  15.299   8.478
  153POPC   C3A 5561  28.583  15.153   8.063
  153POPC   C4A 5562  28.768  15.392   7.757
  153POPC   C1B 5563  28.178  15.327   8.785
  153POPC   C2B 5564  28.067  15.485   8.392
  153POPC   C3B 5565  28.022  15.295   8.033
  153POPC   C4B 5566  28.254  15.383   7.725
  154POPC   NC3 5567  39.593  15.136   9.548
  154POPC   PO4 5568  40.244  15.351   9.610
  154POPC   GL1 5569  40.015  15.242   9.227
  154POPC   GL2 5570  39.894  14.890   9.185
  154POPC   C1A 5571  39.963  15.191   8.778
  154POPC   D2A 5572  40.139  15.153   8.376
  154POPC   C3A 5573  39.977  15.233   7.967
  154POPC   C4A 5574  40.286  15.430   7.729
  154POPC   C1B 5575  39.614  14.819   8.808
  154POPC   C2B 5576  39.697  14.874   8.368
  154POPC   C3B 5577  39.872  14.720   7.989
  154POPC   C4B 5578  40.183  14.848   7.703
  155POPC   NC3 5579  11.107  23.756   9.644
  155POPC   PO4 5580  11.723  23.846   9.613
  155POPC   GL1 5581  11.411  23.962   9.264
  155POPC   GL2 5582  11.285  23.647   9.134
  155POPC   C1A 5583  11.125  24.062   8.901
  155POPC   D2A 5584  10.990  23.740   8.574
  155POPC   C3A 5585  11.143  23.708   8.147
  155POPC   C4A 5586  11.229  24.072   7.870
  155POPC   C1B 5587  11.506  23.799   8.715
  155POPC   C2B 5588  11.556  23.946   8.276
  155POPC   C3B 5589  11.609  23.640   7.902
  155POPC   C4B 5590  11.917  23.430   7.583
  156POPC   NC3 5591   3.757  36.501   9.251
  156POPC   PO4 5592   3.753  35.856   9.530
  156POPC   GL1 5593   3.419  36.102   9.245
  156POPC   GL2 5594   3.615  36.003   9.013
  156POPC   C1A 5595   3.265  36.326   8.833
  156POPC   D2A 5596   3.449  36.427   8.385
  156POPC   C3A 5597   3.257  36.240   8.000
  156POPC   C4A 5598   3.245  36.038   7.574
  156POPC   C1B 5599   3.563  35.970   8.588
  156POPC   C2B 5600   3.833  35.871   8.264
  156POPC   C3B 5601   3.663  35.924   7.873
  156POPC   C4B 5602   3.644  36.362   7.704
  157POPC   NC3 5603  21.814  31.380   9.299
  157POPC   PO4 5604  21.382  31.573   9.774
  157POPC   GL1 5605  21.298  31.478   9.299
  157POPC   GL2 5606  21.474  31.727   9.117
  157POPC   C1A 5607  21.307  31.300   8.804
  157POPC   D2A 5608  21.134  31.040   8.423
  157POPC   C3A 5609  21.057  31.200   7.989
  157POPC   C4A 5610  21.066  31.591   7.767
  157POPC   C1B 5611  21.417  31.775   8.665
  157POPC   C2B 5612  21.302  31.552   8.281
  157POPC   C3B 5613  21.536  31.437   7.900
  157POPC   C4B 5614  21.531  31.654   7.516
  158POPC   NC3 5615  38.117  14.861   9.473
  158POPC   PO4 5616  38.725  15.304   9.464
  158POPC   GL1 5617  38.650  15.292   9.030
  158POPC   GL2 5618  38.264  15.271   9.028
  158POPC   C1A 5619  38.740  15.293   8.568
  158POPC   D2A 5620  38.391  15.224   8.276
  158POPC   C3A 5621  38.432  15.002   7.896
  158POPC   C4A 5622  38.360  15.148   7.494
  158POPC   C1B 5623  38.079  15.068   8.660
  158POPC   C2B 5624  38.149  14.727   8.367
  158POPC   C3B 5625  37.972  14.751   7.955
  158POPC   C4B 5626  37.975  14.803   7.516
  159POPC   NC3 5627  39.562  27.487   9.497
  159POPC   PO4 5628  38.955  27.164   9.545
  159POPC   GL1 5629  39.122  27.400   9.172
  159POPC   GL2 5630  39.391  27.648   9.060
  159POPC   C1A 5631  39.146  27.341   8.738
  159POPC   D2A 5632  39.427  27.396   8.423
  159POPC   C3A 5633  39.219  27.340   8.031
  159POPC   C4A 5634  39.313  27.484   7.629
  159POPC   C1B 5635  39.278  27.834   8.727
  159POPC   C2B 5636  39.051  27.775   8.367
  159POPC   C3B 5637  39.191  27.855   7.964
  159POPC   C4B 5638  39.415  27.971   7.606
  160POPC   NC3 5639  26.994  28.735   9.740
  160POPC   PO4 5640  26.608  28.323   9.405
  160POPC   GL1 5641  26.964  28.177   9.197
  160POPC   GL2 5642  27.057  28.490   9.155
  160POPC   C1A 5643  27.058  28.092   8.754
  160POPC   D2A 5644  26.896  28.263   8.360
  160POPC   C3A 5645  27.058  28.161   7.955
  160POPC   C4A 5646  26.794  27.980   7.671
  160POPC   C1B 5647  27.023  28.608   8.730
  160POPC   C2B 5648  27.225  28.685   8.345
  160POPC   C3B 5649  27.043  28.681   7.925
  160POPC   C4B 5650  26.675  28.728   7.628
  161POPC   NC3 5651  23.411  31.872   9.449
  161POPC   PO4 5652  23.601  32.528   9.467
  161POPC   GL1 5653  23.673  32.357   9.093
  161POPC   GL2 5654  23.880  32.102   9.210
  161POPC   C1A 5655  23.710  32.499   8.672
  161POPC   D2A 5656  23.566  32.518   8.260
  161POPC   C3A 5657  23.469  32.115   7.995
  161POPC   C4A 5658  23.431  32.324   7.564
  161POPC   C1B 5659  23.975  32.051   8.760
  161POPC   C2B 5660  23.895  32.137   8.296
  161POPC   C3B 5661  23.894  32.301   7.838
  161POPC   C4B 5662  23.892  32.129   7.436
  162POPC   NC3 5663  41.370  40.060   9.476
  162POPC   PO4 5664  41.990  39.714   9.377
  162POPC   GL1 5665  41.710  39.903   9.126
  162POPC   GL2 5666  41.444  39.686   9.175
  162POPC   C1A 5667  41.683  39.957   8.713
  162POPC   D2A 5668  41.842  39.967   8.282
  162POPC   C3A 5669  41.610  40.277   8.059
  162POPC   C4A 5670  41.203  40.360   7.833
  162POPC   C1B 5671  41.261  39.666   8.803
  162POPC   C2B 5672  41.407  39.651   8.410
  162POPC   C3B 5673  41.291  39.876   8.072
  162POPC   C4B 5674  41.477  39.924   7.691
  163POPC   NC3 5675   4.297  15.068   9.553
  163POPC   PO4 5676   4.713  15.535   9.572
  163POPC   GL1 5677   4.522  15.334   9.149
  163POPC   GL2 5678   4.217  15.144   9.070
  163POPC   C1A 5679   4.647  15.121   8.752
  163POPC   D2A 5680   4.673  14.922   8.340
  163POPC   C3A 5681   4.567  15.219   8.021
  163POPC   C4A 5682   4.290  15.090   7.711
  163POPC   C1B 5683   4.054  15.111   8.673
  163POPC   C2B 5684   4.144  15.052   8.262
  163POPC   C3B 5685   3.920  14.856   7.965
  163POPC   C4B 5686   3.801  14.993   7.586
  164POPC   NC3 5687   7.752  10.615   9.473
  164POPC   PO4 5688   8.387  10.298   9.594
  164POPC   GL1 5689   8.148  10.378   9.200
  164POPC   GL2 5690   8.154  10.736   9.144
  164POPC   C1A 5691   8.109  10.446   8.727
  164POPC   D2A 5692   8.081  10.365   8.285
  164POPC   C3A 5693   8.375  10.448   7.915
  164POPC   C4A 5694   8.338  10.251   7.480
  164POPC   C1B 5695   7.914  10.915   8.763
  164POPC   C2B 5696   7.742  10.753   8.375
  164POPC   C3B 5697   7.947  10.767   7.985
  164POPC   C4B 5698   8.012  10.614   7.555
  165POPC   NC3 5699   2.170  44.882   9.624
  165POPC   PO4 5700   2.446  44.483   9.174
  165POPC   GL1 5701   2.057  44.723   9.134
  165POPC   GL2 5702   2.192   0.049   9.142
  165POPC   C1A 5703   1.873  44.618   8.745
  165POPC   D2A 5704   2.176  44.571   8.425
  165POPC   C3A 5705   2.118  44.738   8.038
  165POPC   C4A 5706   2.242  44.655   7.637
  165POPC   C1B 5707   2.065   0.106   8.711
  165POPC   C2B 5708   1.727   0.002   8.450
  165POPC   C3B 5709   1.700   0.021   8.025
  165POPC   C4B 5710   1.763  44.831   7.618
  166POPC   NC3 5711  40.904  10.715   9.496
  166POPC   PO4 5712  41.148  10.025   9.406
  166POPC   GL1 5713  41.029  10.338   9.119
  166POPC   GL2 5714  41.231  10.239   8.825
  166POPC   C1A 5715  40.992  10.715   8.844
  166POPC   D2A 5716  41.177  10.956   8.472
  166POPC   C3A 5717  40.984  10.832   8.096
  166POPC   C4A 5718  40.585  10.759   7.872
  166POPC   C1B 5719  41.093  10.447   8.432
  166POPC   C2B 5720  40.644  10.481   8.317
  166POPC   C3B 5721  40.505  10.200   8.022
  166POPC   C4B 5722  40.868  10.111   7.810
  167POPC   NC3 5723  35.201  26.521   9.567
  167POPC   PO4 5724  35.574  27.156   9.477
  167POPC   GL1 5725  35.338  26.883   9.228
  167POPC   GL2 5726  35.565  26.578   9.192
  167POPC   C1A 5727  35.111  26.807   8.859
  167POPC   D2A 5728  35.163  26.566   8.476
  167POPC   C3A 5729  35.119  26.730   8.030
  167POPC   C4A 5730  34.976  27.011   7.685
  167POPC   C1B 5731  35.600  26.697   8.746
  167POPC   C2B 5732  35.619  26.765   8.291
  167POPC   C3B 5733  35.590  26.547   7.890
  167POPC   C4B 5734  35.480  26.546   7.465
  168POPC   NC3 5735  10.707  19.977   9.310
  168POPC   PO4 5736  11.287  19.914   9.764
  168POPC   GL1 5737  11.197  19.783   9.316
  168POPC   GL2 5738  11.405  20.069   9.197
  168POPC   C1A 5739  11.300  19.559   8.914
  168POPC   D2A 5740  11.428  19.719   8.510
  168POPC   C3A 5741  11.443  19.453   8.158
  168POPC   C4A 5742  11.417  19.598   7.753
  168POPC   C1B 5743  11.149  20.038   8.827
  168POPC   C2B 5744  10.991  20.058   8.414
  168POPC   C3B 5745  11.240  19.968   8.058
  168POPC   C4B 5746  11.185  20.138   7.650
  169POPC   NC3 5747  37.987   0.551   9.523
  169POPC   PO4 5748  37.344   0.272   9.547
  169POPC   GL1 5749  37.530   0.416   9.163
  169POPC   GL2 5750  37.865   0.267   9.114
  169POPC   C1A 5751  37.632   0.505   8.720
  169POPC   D2A 5752  37.579   0.253   8.345
  169POPC   C3A 5753  37.585   0.563   8.064
  169POPC   C4A 5754  37.667   0.695   7.697
  169POPC   C1B 5755  37.896   0.065   8.700
  169POPC   C2B 5756  38.085   0.161   8.276
  169POPC   C3B 5757  37.931   0.041   7.832
  169POPC   C4B 5758  38.077  44.788   7.465
  170POPC   NC3 5759  33.548  39.174   9.593
  170POPC   PO4 5760  34.195  39.444   9.577
  170POPC   GL1 5761  33.927  39.546   9.182
  170POPC   GL2 5762  33.559  39.430   9.146
  170POPC   C1A 5763  33.941  39.357   8.743
  170POPC   D2A 5764  34.055  39.547   8.350
  170POPC   C3A 5765  33.988  39.374   7.928
  170POPC   C4A 5766  34.061  39.554   7.482
  170POPC   C1B 5767  33.439  39.420   8.714
  170POPC   C2B 5768  33.575  39.322   8.318
  170POPC   C3B 5769  33.589  39.070   7.966
  170POPC   C4B 5770  33.603  39.248   7.587
  171POPC   NC3 5771  42.865  15.733   9.528
  171POPC   PO4 5772  43.342  16.169   9.507
  171POPC   GL1 5773  43.081  16.110   9.139
  171POPC   GL2 5774  42.812  16.355   9.051
  171POPC   C1A 5775  43.036  15.766   8.842
  171POPC   D2A 5776  42.836  15.717   8.451
  171POPC   C3A 5777  43.017  15.541   8.094
  171POPC   C4A 5778  43.060  15.763   7.716
  171POPC   C1B 5779  42.923  16.501   8.667
  171POPC   C2B 5780  43.090  16.293   8.343
  171POPC   C3B 5781  43.130  16.257   7.919
  171POPC   C4B 5782  42.860  16.222   7.574
  172POPC   NC3 5783   7.197   9.893   9.562
  172POPC   PO4 5784   7.269   9.336   9.850
  172POPC   GL1 5785   7.363   9.480   9.316
  172POPC   GL2 5786   7.154   9.749   9.068
  172POPC   C1A 5787   7.580   9.605   8.872
  172POPC   D2A 5788   7.442   9.727   8.458
  172POPC   C3A 5789   7.694   9.826   8.100
  172POPC   C4A 5790   7.600   9.615   7.744
  172POPC   C1B 5791   7.163  10.077   8.707
  172POPC   C2B 5792   7.069  10.161   8.242
  172POPC   C3B 5793   7.220   9.972   7.822
  172POPC   C4B 5794   7.141   9.641   7.496
  173POPC   NC3 5795  30.917  27.920   9.436
  173POPC   PO4 5796  30.473  27.419   9.410
  173POPC   GL1 5797  30.588  27.459   9.000
  173POPC   GL2 5798  30.571  27.828   9.009
  173POPC   C1A 5799  30.894  27.232   8.730
  173POPC   D2A 5800  30.962  27.012   8.330
  173POPC   C3A 5801  30.833  27.248   7.953
  173POPC   C4A 5802  31.124  27.359   7.622
  173POPC   C1B 5803  30.954  27.748   8.738
  173POPC   C2B 5804  30.995  27.552   8.328
  173POPC   C3B 5805  30.957  27.754   7.914
  173POPC   C4B 5806  30.909  27.775   7.450
  174POPC   NC3 5807  16.687  19.138   9.550
  174POPC   PO4 5808  17.063  18.639   9.198
  174POPC   GL1 5809  16.731  18.819   8.976
  174POPC   GL2 5810  16.640  19.142   9.049
  174POPC   C1A 5811  16.650  18.961   8.553
  174POPC   D2A 5812  16.913  19.193   8.274
  174POPC   C3A 5813  16.865  18.903   7.947
  174POPC   C4A 5814  16.482  18.895   7.690
  174POPC   C1B 5815  16.657  19.436   8.721
  174POPC   C2B 5816  16.442  19.560   8.366
  174POPC   C3B 5817  16.475  19.306   8.027
  174POPC   C4B 5818  16.777  19.348   7.738
  175POPC   NC3 5819   0.980  44.933   9.591
  175POPC   PO4 5820   1.680  44.849   9.544
  175POPC   GL1 5821   1.319  44.691   9.271
  175POPC   GL2 5822   1.053  44.910   9.108
  175POPC   C1A 5823   1.388  44.480   8.885
  175POPC   D2A 5824   1.536  44.255   8.523
  175POPC   C3A 5825   1.624  44.547   8.208
  175POPC   C4A 5826   1.337  44.713   7.873
  175POPC   C1B 5827   1.008  44.774   8.728
  175POPC   C2B 5828   1.220  44.844   8.368
  175POPC   C3B 5829   0.951  44.964   8.056
  175POPC   C4B 5830   0.873  44.888   7.614
  176POPC   NC3 5831  43.442  17.932   9.476
  176POPC   PO4 5832  43.296  18.597   9.403
  176POPC   GL1 5833  43.184  18.505   9.035
  176POPC   GL2 5834  43.209  18.161   9.070
  176POPC   C1A 5835  43.243  18.399   8.626
  176POPC   D2A 5836  43.298  18.139   8.277
  176POPC   C3A 5837  43.285  18.407   7.912
  176POPC   C4A 5838  43.331  18.674   7.530
  176POPC   C1B 5839  43.025  17.916   8.724
  176POPC   C2B 5840  42.756  17.763   8.379
  176POPC   C3B 5841  42.658  17.880   7.975
  176POPC   C4B 5842  42.895  17.806   7.613
  177POPC   NC3 5843  42.907  40.343   9.484
  177POPC   PO4 5844  43.273  40.928   9.498
  177POPC   GL1 5845  43.096  40.720   9.166
  177POPC   GL2 5846  43.317  40.469   9.205
  177POPC   C1A 5847  42.976  40.879   8.770
  177POPC   D2A 5848  42.842  40.680   8.424
  177POPC   C3A 5849  42.983  40.855   8.042
  177POPC   C4A 5850  43.056  40.707   7.591
  177POPC   C1B 5851  43.469  40.690   8.816
  177POPC   C2B 5852  43.355  40.819   8.410
  177POPC   C3B 5853  43.474  40.668   8.008
  177POPC   C4B 5854  43.547  40.857   7.638
  178POPC   NC3 5855  13.551  16.978   9.660
  178POPC   PO4 5856  13.954  17.445   9.591
  178POPC   GL1 5857  13.595  17.459   9.287
  178POPC   GL2 5858  13.533  17.173   9.133
  178POPC   C1A 5859  13.556  17.606   8.844
  178POPC   D2A 5860  13.750  17.596   8.418
  178POPC   C3A 5861  13.575  17.793   8.056
  178POPC   C4A 5862  13.535  17.524   7.721
  178POPC   C1B 5863  13.891  17.226   8.859
  178POPC   C2B 5864  13.960  17.098   8.439
  178POPC   C3B 5865  14.056  17.271   8.053
  178POPC   C4B 5866  13.972  17.293   7.631
  179POPC   NC3 5867  29.376   5.757   9.543
  179POPC   PO4 5868  28.824   5.598   9.467
  179POPC   GL1 5869  29.042   5.836   9.170
  179POPC   GL2 5870  29.035   6.174   9.300
  179POPC   C1A 5871  29.334   5.851   8.817
  179POPC   D2A 5872  29.177   5.933   8.380
  179POPC   C3A 5873  29.319   5.736   7.994
  179POPC   C4A 5874  29.295   5.629   7.535
  179POPC   C1B 5875  29.186   6.329   8.905
  179POPC   C2B 5876  29.010   6.402   8.479
  179POPC   C3B 5877  28.918   6.311   8.059
  179POPC   C4B 5878  29.067   6.087   7.701
  180POPC   NC3 5879  42.923  34.385   9.508
  180POPC   PO4 5880  43.539  34.419   9.701
  180POPC   GL1 5881  43.388  34.487   9.272
  180POPC   GL2 5882  43.212  34.176   9.127
  180POPC   C1A 5883  43.244  34.786   8.901
  180POPC   D2A 5884  43.044  34.982   8.503
  180POPC   C3A 5885  43.093  34.742   8.099
  180POPC   C4A 5886  42.896  34.592   7.710
  180POPC   C1B 5887  43.476  34.347   8.803
  180POPC   C2B 5888  43.263  34.370   8.432
  180POPC   C3B 5889  43.282  34.205   8.044
  180POPC   C4B 5890  43.356  34.374   7.679
  181POPC   NC3 5891   6.956  39.176   9.748
  181POPC   PO4 5892   6.566  39.665   9.447
  181POPC   GL1 5893   6.525  39.497   9.080
  181POPC   GL2 5894   6.696  39.193   9.168
  181POPC   C1A 5895   6.416  39.384   8.679
  181POPC   D2A 5896   6.269  39.532   8.291
  181POPC   C3A 5897   6.472  39.328   7.966
  181POPC   C4A 5898   6.927  39.294   7.879
  181POPC   C1B 5899   6.713  38.955   8.763
  181POPC   C2B 5900   6.533  38.747   8.371
  181POPC   C3B 5901   6.663  38.851   7.946
  181POPC   C4B 5902   6.550  39.019   7.547
  182POPC   NC3 5903  17.868   3.734   9.704
  182POPC   PO4 5904  18.470   4.119   9.501
  182POPC   GL1 5905  18.363   4.174   9.085
  182POPC   GL2 5906  18.096   4.004   8.984
  182POPC   C1A 5907  18.311   4.451   8.731
  182POPC   D2A 5908  18.076   4.505   8.322
  182POPC   C3A 5909  18.311   4.675   8.003
  182POPC   C4A 5910  18.255   4.644   7.596
  182POPC   C1B 5911  18.000   4.088   8.592
  182POPC   C2B 5912  18.112   3.996   8.212
  182POPC   C3B 5913  18.315   4.174   7.928
  182POPC   C4B 5914  18.381   4.087   7.552
  183POPC   NC3 5915  14.836   9.568   9.733
  183POPC   PO4 5916  15.233  10.117   9.566
  183POPC   GL1 5917  15.197   9.681   9.331
  183POPC   GL2 5918  14.863   9.570   9.207
  183POPC   C1A 5919  15.250   9.632   8.873
  183POPC   D2A 5920  15.454   9.867   8.545
  183POPC   C3A 5921  15.404   9.720   8.131
  183POPC   C4A 5922  15.385   9.973   7.777
  183POPC   C1B 5923  14.765   9.610   8.752
  183POPC   C2B 5924  14.910   9.712   8.319
  183POPC   C3B 5925  14.875   9.676   7.844
  183POPC   C4B 5926  14.767   9.473   7.428
  184POPC   NC3 5927  19.339  20.221   9.510
  184POPC   PO4 5928  19.004  19.667   9.677
  184POPC   GL1 5929  19.032  19.897   9.243
  184POPC   GL2 5930  19.169  19.648   9.053
  184POPC   C1A 5931  18.940  20.199   8.857
  184POPC   D2A 5932  18.859  20.194   8.363
  184POPC   C3A 5933  19.042  19.850   8.050
  184POPC   C4A 5934  19.271  19.948   7.656
  184POPC   C1B 5935  18.933  19.738   8.665
  184POPC   C2B 5936  18.629  19.739   8.313
  184POPC   C3B 5937  18.625  19.618   7.871
  184POPC   C4B 5938  19.010  19.505   7.645
  185POPC   NC3 5939  28.381  25.404   9.537
  185POPC   PO4 5940  27.725  25.233   9.450
  185POPC   GL1 5941  28.135  25.148   9.156
  185POPC   GL2 5942  28.512  25.251   9.087
  185POPC   C1A 5943  28.154  25.382   8.748
  185POPC   D2A 5944  28.066  25.331   8.305
  185POPC   C3A 5945  28.359  25.490   7.995
  185POPC   C4A 5946  28.434  25.165   7.734
  185POPC   C1B 5947  28.629  25.573   8.798
  185POPC   C2B 5948  28.660  25.396   8.395
  185POPC   C3B 5949  28.851  25.292   7.992
  185POPC   C4B 5950  28.861  25.436   7.559
  186POPC   NC3 5951  32.529  20.534   9.416
  186POPC   PO4 5952  31.916  20.256   9.560
  186POPC   GL1 5953  32.015  20.564   9.223
  186POPC   GL2 5954  32.226  20.307   9.091
  186POPC   C1A 5955  32.092  20.711   8.773
  186POPC   D2A 5956  31.905  20.626   8.367
  186POPC   C3A 5957  32.173  20.767   7.990
  186POPC   C4A 5958  32.138  20.967   7.587
  186POPC   C1B 5959  32.511  20.405   8.773
  186POPC   C2B 5960  32.408  20.521   8.375
  186POPC   C3B 5961  32.312  20.267   7.996
  186POPC   C4B 5962  32.359  20.449   7.602
  187POPC   NC3 5963   2.394  12.587   9.448
  187POPC   PO4 5964   2.822  13.134   9.387
  187POPC   GL1 5965   2.697  12.838   9.114
  187POPC   GL2 5966   2.801  12.485   9.115
  187POPC   C1A 5967   2.774  12.833   8.709
  187POPC   D2A 5968   2.887  13.030   8.370
  187POPC   C3A 5969   2.707  12.893   8.024
  187POPC   C4A 5970   2.821  12.976   7.632
  187POPC   C1B 5971   2.429  12.479   8.814
  187POPC   C2B 5972   2.394  12.656   8.396
  187POPC   C3B 5973   2.427  12.459   8.005
  187POPC   C4B 5974   2.556  12.531   7.590
  188POPC   NC3 5975  34.554  34.782   9.486
  188POPC   PO4 5976  34.451  34.103   9.524
  188POPC   GL1 5977  34.539  34.391   9.156
  188POPC   GL2 5978  34.840  34.645   9.082
  188POPC   C1A 5979  34.543  34.421   8.725
  188POPC   D2A 5980  34.275  34.312   8.432
  188POPC   C3A 5981  34.438  34.360   8.046
  188POPC   C4A 5982  34.431  34.574   7.660
  188POPC   C1B 5983  35.045  34.462   8.713
  188POPC   C2B 5984  34.926  34.404   8.291
  188POPC   C3B 5985  34.873  34.612   7.925
  188POPC   C4B 5986  34.989  34.922   7.652
  189POPC   NC3 5987   6.752   3.855   9.404
  189POPC   PO4 5988   6.240   3.733   9.725
  189POPC   GL1 5989   6.297   3.764   9.207
  189POPC   GL2 5990   6.500   3.477   9.065
  189POPC   C1A 5991   6.512   3.900   8.776
  189POPC   D2A 5992   6.827   3.722   8.446
  189POPC   C3A 5993   6.707   3.735   7.997
  189POPC   C4A 5994   6.428   3.634   7.650
  189POPC   C1B 5995   6.853   3.255   8.812
  189POPC   C2B 5996   6.911   3.015   8.414
  189POPC   C3B 5997   6.830   3.208   7.998
  189POPC   C4B 5998   6.946   3.451   7.658
  190POPC   NC3 5999  28.103  39.436   9.518
  190POPC   PO4 6000  28.591  38.934   9.766
  190POPC   GL1 6001  28.517  39.141   9.307
  190POPC   GL2 6002  28.512  39.480   9.188
  190POPC   C1A 6003  28.412  39.084   8.828
  190POPC   D2A 6004  28.146  39.151   8.426
  190POPC   C3A 6005  28.267  38.993   7.981
  190POPC   C4A 6006  28.616  39.073   7.639
  190POPC   C1B 6007  28.303  39.587   8.804
  190POPC   C2B 6008  28.437  39.573   8.396
  190POPC   C3B 6009  28.512  39.412   8.011
  190POPC   C4B 6010  28.435  39.535   7.552
  191POPC   NC3 6011  14.986  33.991   9.570
  191POPC   PO4 6012  15.487  33.504   9.531
  191POPC   GL1 6013  15.306  33.754   9.233
  191POPC   GL2 6014  15.178  34.069   9.118
  191POPC   C1A 6015  15.262  33.673   8.808
  191POPC   D2A 6016  15.422  33.699   8.421
  191POPC   C3A 6017  15.195  33.855   8.074
  191POPC   C4A 6018  15.313  33.711   7.670
  191POPC   C1B 6019  14.859  34.035   8.781
  191POPC   C2B 6020  14.843  34.217   8.371
  191POPC   C3B 6021  14.716  34.096   7.954
  191POPC   C4B 6022  14.890  33.938   7.584
  192POPC   NC3 6023   9.490  37.778   9.600
  192POPC   PO4 6024  10.167  37.845   9.580
  192POPC   GL1 6025   9.967  37.725   9.176
  192POPC   GL2 6026   9.585  37.782   9.096
  192POPC   C1A 6027   9.978  37.568   8.745
  192POPC   D2A 6028   9.757  37.659   8.365
  192POPC   C3A 6029   9.863  37.621   7.942
  192POPC   C4A 6030   9.421  37.707   7.829
  192POPC   C1B 6031   9.373  37.628   8.693
  192POPC   C2B 6032   9.342  37.400   8.251
  192POPC   C3B 6033   9.597  37.181   7.895
  192POPC   C4B 6034  10.007  37.170   7.651
  193POPC   NC3 6035  41.786  13.818   9.438
  193POPC   PO4 6036  41.046  13.687   9.487
  193POPC   GL1 6037  41.388  13.533   9.183
  193POPC   GL2 6038  41.705  13.367   9.213
  193POPC   C1A 6039  41.403  13.349   8.782
  193POPC   D2A 6040  41.475  13.579   8.463
  193POPC   C3A 6041  41.288  13.478   8.149
  193POPC   C4A 6042  41.416  13.527   7.774
  193POPC   C1B 6043  41.860  13.564   8.824
  193POPC   C2B 6044  41.954  13.347   8.475
  193POPC   C3B 6045  41.828  13.465   8.088
  193POPC   C4B 6046  41.883  13.745   7.731
  194POPC   NC3 6047  39.373  14.043   9.385
  194POPC   PO4 6048  38.873  13.602   9.544
  194POPC   GL1 6049  39.115  13.602   9.166
  194POPC   GL2 6050  39.490  13.548   9.246
  194POPC   C1A 6051  39.038  13.736   8.733
  194POPC   D2A 6052  39.032  13.897   8.323
  194POPC   C3A 6053  39.030  13.648   7.955
  194POPC   C4A 6054  38.869  13.950   7.668
  194POPC   C1B 6055  39.535  13.744   8.860
  194POPC   C2B 6056  39.525  13.653   8.491
  194POPC   C3B 6057  39.531  13.602   8.092
  194POPC   C4B 6058  39.504  13.666   7.695
  195POPC   NC3 6059   0.106   3.028   9.499
  195POPC   PO4 6060   0.484   2.468   9.633
  195POPC   GL1 6061   0.296   2.562   9.240
  195POPC   GL2 6062   0.466   2.853   9.097
  195POPC   C1A 6063   0.351   2.445   8.802
  195POPC   D2A 6064   0.418   2.697   8.418
  195POPC   C3A 6065   0.364   2.488   8.008
  195POPC   C4A 6066   0.562   2.509   7.602
  195POPC   C1B 6067   0.123   2.966   8.817
  195POPC   C2B 6068  44.946   2.969   8.404
  195POPC   C3B 6069   0.119   2.924   8.042
  195POPC   C4B 6070   0.070   3.136   7.697
  196POPC   NC3 6071  25.199  31.713   9.582
  196POPC   PO4 6072  25.537  31.219   9.467
  196POPC   GL1 6073  25.217  31.332   9.161
  196POPC   GL2 6074  25.232  31.676   9.066
  196POPC   C1A 6075  25.169  31.036   8.820
  196POPC   D2A 6076  25.341  30.930   8.416
  196POPC   C3A 6077  25.208  31.090   8.048
  196POPC   C4A 6078  25.182  31.399   7.761
  196POPC   C1B 6079  25.283  31.530   8.632
  196POPC   C2B 6080  25.088  31.692   8.243
  196POPC   C3B 6081  25.309  31.865   7.895
  196POPC   C4B 6082  25.629  31.609   7.601
  197POPC   NC3 6083   8.435   3.883   9.523
  197POPC   PO4 6084   8.028   4.361   9.658
  197POPC   GL1 6085   8.108   4.160   9.264
  197POPC   GL2 6086   8.386   4.349   9.180
  197POPC   C1A 6087   8.260   4.021   8.822
  197POPC   D2A 6088   8.310   4.150   8.389
  197POPC   C3A 6089   8.244   4.097   7.938
  197POPC   C4A 6090   8.175   4.424   7.583
  197POPC   C1B 6091   8.288   4.533   8.783
  197POPC   C2B 6092   8.511   4.615   8.397
  197POPC   C3B 6093   8.498   4.583   7.947
  197POPC   C4B 6094   8.692   4.515   7.524
  198POPC   NC3 6095  27.082  42.396   9.378
  198POPC   PO4 6096  27.678  42.483   9.704
  198POPC   GL1 6097  27.615  42.283   9.255
  198POPC   GL2 6098  27.907  42.034   9.183
  198POPC   C1A 6099  27.461  42.430   8.792
  198POPC   D2A 6100  27.327  42.711   8.411
  198POPC   C3A 6101  27.343  42.530   7.984
  198POPC   C4A 6102  27.121  42.378   7.605
  198POPC   C1B 6103  27.881  42.120   8.712
  198POPC   C2B 6104  27.702  42.277   8.292
  198POPC   C3B 6105  27.744  42.210   7.830
  198POPC   C4B 6106  28.014  42.156   7.438
  199POPC   NC3 6107   5.005   6.298   9.659
  199POPC   PO4 6108   5.301   6.785   9.410
  199POPC   GL1 6109   4.990   6.538   9.186
  199POPC   GL2 6110   4.807   6.792   9.060
  199POPC   C1A 6111   4.811   6.393   8.774
  199POPC   D2A 6112   5.035   6.523   8.397
  199POPC   C3A 6113   5.056   6.286   8.035
  199POPC   C4A 6114   4.853   6.573   7.796
  199POPC   C1B 6115   5.130   6.866   8.775
  199POPC   C2B 6116   5.324   6.983   8.418
  199POPC   C3B 6117   5.145   6.936   8.039
  199POPC   C4B 6118   5.345   6.657   7.809
  200POPC   NC3 6119  10.365   1.843   9.458
  200POPC   PO4 6120   9.577   2.119   9.507
  200POPC   GL1 6121   9.720   2.013   9.149
  200POPC   GL2 6122  10.041   2.176   9.187
  200POPC   C1A 6123   9.554   1.936   8.728
  200POPC   D2A 6124   9.556   1.667   8.346
  200POPC   C3A 6125   9.628   1.859   7.974
  200POPC   C4A 6126   9.594   1.797   7.560
  200POPC   C1B 6127  10.094   1.961   8.811
  200POPC   C2B 6128   9.987   1.921   8.405
  200POPC   C3B 6129   9.956   2.226   8.100
  200POPC   C4B 6130   9.945   2.183   7.669
  201POPC   NC3 6131  31.843  37.060   9.594
  201POPC   PO4 6132  31.182  36.764   9.432
  201POPC   GL1 6133  31.353  36.977   9.118
  201POPC   GL2 6134  31.675  36.989   9.129
  201POPC   C1A 6135  31.385  36.798   8.724
  201POPC   D2A 6136  31.380  36.892   8.311
  201POPC   C3A 6137  31.328  36.613   7.970
  201POPC   C4A 6138  31.369  36.762   7.546
  201POPC   C1B 6139  31.879  36.856   8.743
  201POPC   C2B 6140  31.909  36.942   8.303
  201POPC   C3B 6141  31.699  36.961   7.892
  201POPC   C4B 6142  31.840  36.966   7.431
  202POPC   NC3 6143  37.650   7.029   9.434
  202POPC   PO4 6144  37.526   6.347   9.275
  202POPC   GL1 6145  37.619   6.727   9.018
  202POPC   GL2 6146  37.964   6.850   9.066
  202POPC   C1A 6147  37.697   6.663   8.595
  202POPC   D2A 6148  37.555   6.347   8.295
  202POPC   C3A 6149  37.422   6.484   7.893
  202POPC   C4A 6150  37.473   6.254   7.494
  202POPC   C1B 6151  37.999   7.086   8.677
  202POPC   C2B 6152  37.809   7.045   8.261
  202POPC   C3B 6153  37.876   6.766   7.882
  202POPC   C4B 6154  37.641   6.749   7.461
  203POPC   NC3 6155  41.809  29.315   9.547
  203POPC   PO4 6156  41.438  29.851   9.540
  203POPC   GL1 6157  41.481  29.924   9.139
  203POPC   GL2 6158  41.227  30.212   9.108
  203POPC   C1A 6159  41.880  29.903   8.877
  203POPC   D2A 6160  42.064  29.920   8.465
  203POPC   C3A 6161  41.901  29.946   8.059
  203POPC   C4A 6162  41.843  29.566   7.892
  203POPC   C1B 6163  41.480  30.193   8.727
  203POPC   C2B 6164  41.551  29.833   8.433
  203POPC   C3B 6165  41.406  29.903   8.013
  203POPC   C4B 6166  41.381  30.360   7.907
  204POPC   NC3 6167  32.882   7.928   9.264
  204POPC   PO4 6168  32.888   8.574   9.317
  204POPC   GL1 6169  33.242   8.457   9.029
  204POPC   GL2 6170  33.440   8.215   9.228
  204POPC   C1A 6171  33.225   8.315   8.591
  204POPC   D2A 6172  32.894   8.217   8.274
  204POPC   C3A 6173  32.988   8.312   7.828
  204POPC   C4A 6174  32.876   8.109   7.413
  204POPC   C1B 6175  33.487   7.892   8.889
  204POPC   C2B 6176  33.259   7.798   8.498
  204POPC   C3B 6177  33.275   7.956   8.081
  204POPC   C4B 6178  33.317   7.953   7.625
  205POPC   NC3 6179   2.489  30.258   9.413
  205POPC   PO4 6180   3.079  29.942   9.587
  205POPC   GL1 6181   2.993  29.951   9.166
  205POPC   GL2 6182   2.664  29.774   9.210
  205POPC   C1A 6183   3.023  29.913   8.707
  205POPC   D2A 6184   2.736  29.912   8.353
  205POPC   C3A 6185   2.845  29.843   7.929
  205POPC   C4A 6186   2.714  30.240   7.775
  205POPC   C1B 6187   2.480  29.918   8.818
  205POPC   C2B 6188   2.242  30.005   8.442
  205POPC   C3B 6189   2.255  30.197   8.020
  205POPC   C4B 6190   2.309  29.953   7.677
  206POPC   NC3 6191  24.942   2.902   9.486
  206POPC   PO4 6192  25.600   2.704   9.731
  206POPC   GL1 6193  25.407   2.786   9.300
  206POPC   GL2 6194  25.279   2.500   9.098
  206POPC   C1A 6195  25.234   2.942   8.892
  206POPC   D2A 6196  25.240   2.995   8.460
  206POPC   C3A 6197  25.212   2.726   8.136
  206POPC   C4A 6198  25.311   2.783   7.711
  206POPC   C1B 6199  25.132   2.495   8.648
  206POPC   C2B 6200  24.907   2.337   8.251
  206POPC   C3B 6201  24.955   2.326   7.777
  206POPC   C4B 6202  25.150   2.430   7.366
  207POPC   NC3 6203  21.566   3.395   9.605
  207POPC   PO4 6204  20.950   3.686   9.584
  207POPC   GL1 6205  21.104   3.435   9.254
  207POPC   GL2 6206  21.370   3.626   9.186
  207POPC   C1A 6207  21.191   3.308   8.822
  207POPC   D2A 6208  21.473   3.382   8.417
  207POPC   C3A 6209  21.377   3.592   8.026
  207POPC   C4A 6210  21.208   3.509   7.619
  207POPC   C1B 6211  21.396   3.780   8.767
  207POPC   C2B 6212  21.546   3.918   8.382
  207POPC   C3B 6213  21.528   4.076   7.950
  207POPC   C4B 6214  21.625   3.856   7.550
  208POPC   NC3 6215  41.736  11.777   9.575
  208POPC   PO4 6216  41.195  11.976   9.460
  208POPC   GL1 6217  41.397  12.044   9.076
  208POPC   GL2 6218  41.760  12.091   9.139
  208POPC   C1A 6219  41.283  12.158   8.645
  208POPC   D2A 6220  41.290  11.890   8.292
  208POPC   C3A 6221  41.151  12.046   7.939
  208POPC   C4A 6222  41.363  12.367   7.744
  208POPC   C1B 6223  41.750  11.973   8.701
  208POPC   C2B 6224  41.800  11.958   8.255
  208POPC   C3B 6225  41.863  12.193   7.856
  208POPC   C4B 6226  41.890  12.487   7.480
  209POPC   NC3 6227  35.441  34.886   9.480
  209POPC   PO4 6228  34.925  34.440   9.539
  209POPC   GL1 6229  35.254  34.343   9.197
  209POPC   GL2 6230  35.376  34.666   9.041
  209POPC   C1A 6231  35.570  34.242   8.850
  209POPC   D2A 6232  35.737  34.305   8.418
  209POPC   C3A 6233  35.401  34.445   8.127
  209POPC   C4A 6234  35.244  34.324   7.736
  209POPC   C1B 6235  35.264  34.911   8.657
  209POPC   C2B 6236  35.214  34.926   8.187
  209POPC   C3B 6237  35.480  34.860   7.815
  209POPC   C4B 6238  35.812  34.802   7.499
  210POPC   NC3 6239   8.399  40.961   9.594
  210POPC   PO4 6240   7.705  40.972   9.658
  210POPC   GL1 6241   7.997  40.971   9.231
  210POPC   GL2 6242   8.385  40.892   9.097
  210POPC   C1A 6243   8.044  41.047   8.770
  210POPC   D2A 6244   8.370  41.047   8.483
  210POPC   C3A 6245   8.197  40.879   8.110
  210POPC   C4A 6246   8.232  40.501   7.918
  210POPC   C1B 6247   8.333  40.595   8.717
  210POPC   C2B 6248   8.581  40.603   8.296
  210POPC   C3B 6249   8.640  40.809   7.868
  210POPC   C4B 6250   8.659  40.908   7.417
  211POPC   NC3 6251  27.954  28.939   9.547
  211POPC   PO4 6252  27.348  29.288   9.518
  211POPC   GL1 6253  27.627  29.113   9.203
  211POPC   GL2 6254  27.896  29.329   9.120
  211POPC   C1A 6255  27.700  28.999   8.768
  211POPC   D2A 6256  27.675  29.190   8.350
  211POPC   C3A 6257  27.508  28.960   8.012
  211POPC   C4A 6258  27.548  28.989   7.578
  211POPC   C1B 6259  27.532  29.475   8.823
  211POPC   C2B 6260  27.245  29.519   8.445
  211POPC   C3B 6261  27.267  29.615   8.009
  211POPC   C4B 6262  27.621  29.439   7.801
  212POPC   NC3 6263  21.329  19.436   9.616
  212POPC   PO4 6264  21.845  19.073   9.477
  212POPC   GL1 6265  21.466  19.049   9.233
  212POPC   GL2 6266  21.365  18.706   9.170
  212POPC   C1A 6267  21.438  19.160   8.809
  212POPC   D2A 6268  21.572  19.363   8.439
  212POPC   C3A 6269  21.267  19.362   8.115
  212POPC   C4A 6270  21.284  19.253   7.695
  212POPC   C1B 6271  21.226  18.698   8.738
  212POPC   C2B 6272  21.309  18.901   8.364
  212POPC   C3B 6273  21.157  18.838   7.957
  212POPC   C4B 6274  21.095  18.823   7.507
  213POPC   NC3 6275  30.676  11.596   9.469
  213POPC   PO4 6276  30.689  12.295   9.456
  213POPC   GL1 6277  30.691  12.009   9.133
  213POPC   GL2 6278  30.406  11.814   9.110
  213POPC   C1A 6279  30.855  11.938   8.730
  213POPC   D2A 6280  30.737  12.077   8.310
  213POPC   C3A 6281  30.909  11.841   7.977
  213POPC   C4A 6282  30.959  11.453   7.769
  213POPC   C1B 6283  30.363  12.026   8.723
  213POPC   C2B 6284  30.265  11.866   8.325
  213POPC   C3B 6285  30.361  12.002   7.917
  213POPC   C4B 6286  30.287  12.138   7.499
  214POPC   NC3 6287  42.120  35.850   9.684
  214POPC   PO4 6288  42.589  36.218   9.403
  214POPC   GL1 6289  42.251  36.117   9.153
  214POPC   GL2 6290  42.040  35.837   9.189
  214POPC   C1A 6291  42.383  36.083   8.734
  214POPC   D2A 6292  42.464  36.411   8.443
  214POPC   C3A 6293  42.457  36.218   8.062
  214POPC   C4A 6294  42.421  35.990   7.678
  214POPC   C1B 6295  41.875  36.008   8.798
  214POPC   C2B 6296  42.025  36.118   8.379
  214POPC   C3B 6297  42.077  35.859   8.029
  214POPC   C4B 6298  41.914  35.760   7.628
  215POPC   NC3 6299  39.508  31.852   9.400
  215POPC   PO4 6300  38.818  31.977   9.341
  215POPC   GL1 6301  39.191  32.152   9.131
  215POPC   GL2 6302  39.440  32.451   9.150
  215POPC   C1A 6303  39.435  32.095   8.770
  215POPC   D2A 6304  39.578  31.985   8.390
  215POPC   C3A 6305  39.295  32.041   8.101
  215POPC   C4A 6306  39.306  32.370   7.867
  215POPC   C1B 6307  39.715  32.505   8.766
  215POPC   C2B 6308  39.573  32.536   8.317
  215POPC   C3B 6309  39.651  32.736   7.900
  215POPC   C4B 6310  39.478  32.656   7.474
  216POPC   NC3 6311  38.585  29.422   9.525
  216POPC   PO4 6312  38.382  28.723   9.536
  216POPC   GL1 6313  38.583  29.001   9.197
  216POPC   GL2 6314  38.530  29.350   9.041
  216POPC   C1A 6315  38.468  28.964   8.746
  216POPC   D2A 6316  38.527  29.253   8.422
  216POPC   C3A 6317  38.485  29.048   8.052
  216POPC   C4A 6318  38.555  29.011   7.636
  216POPC   C1B 6319  38.184  29.432   8.744
  216POPC   C2B 6320  38.184  29.597   8.291
  216POPC   C3B 6321  38.147  29.419   7.875
  216POPC   C4B 6322  37.879  29.569   7.510
  217POPC   NC3 6323  39.912  38.997   9.644
  217POPC   PO4 6324  40.071  39.689   9.569
  217POPC   GL1 6325  40.079  39.367   9.236
  217POPC   GL2 6326  39.746  39.180   9.208
  217POPC   C1A 6327  39.997  39.306   8.782
  217POPC   D2A 6328  40.082  38.960   8.505
  217POPC   C3A 6329  40.220  39.096   8.109
  217POPC   C4A 6330  40.143  39.045   7.675
  217POPC   C1B 6331  39.639  38.961   8.842
  217POPC   C2B 6332  39.574  39.147   8.423
  217POPC   C3B 6333  39.717  39.153   7.990
  217POPC   C4B 6334  39.647  38.906   7.618
  218POPC   NC3 6335  15.266  31.170   9.582
  218POPC   PO4 6336  15.085  31.800   9.449
  218POPC   GL1 6337  15.076  31.484   9.161
  218POPC   GL2 6338  14.769  31.525   9.024
  218POPC   C1A 6339  15.143  31.363   8.713
  218POPC   D2A 6340  15.258  31.546   8.294
  218POPC   C3A 6341  15.306  31.251   7.953
  218POPC   C4A 6342  15.045  31.062   7.640
  218POPC   C1B 6343  14.980  31.858   8.768
  218POPC   C2B 6344  14.951  32.005   8.338
  218POPC   C3B 6345  15.075  31.897   7.926
  218POPC   C4B 6346  15.273  31.673   7.620
  219POPC   NC3 6347  21.374  22.078   9.656
  219POPC   PO4 6348  21.808  22.636   9.740
  219POPC   GL1 6349  21.544  22.439   9.340
  219POPC   GL2 6350  21.459  22.073   9.171
  219POPC   C1A 6351  21.342  22.467   8.891
  219POPC   D2A 6352  21.456  22.584   8.473
  219POPC   C3A 6353  21.473  22.284   8.137
  219POPC   C4A 6354  21.414  22.420   7.723
  219POPC   C1B 6355  21.122  21.994   8.897
  219POPC   C2B 6356  21.232  21.914   8.476
  219POPC   C3B 6357  21.068  21.938   8.086
  219POPC   C4B 6358  21.233  21.950   7.714
  220POPC   NC3 6359  38.339  41.024   9.677
  220POPC   PO4 6360  38.802  40.539   9.668
  220POPC   GL1 6361  38.563  40.715   9.283
  220POPC   GL2 6362  38.304  40.999   9.184
  220POPC   C1A 6363  38.464  40.679   8.824
  220POPC   D2A 6364  38.607  40.833   8.416
  220POPC   C3A 6365  38.554  40.587   8.059
  220POPC   C4A 6366  38.398  40.691   7.666
  220POPC   C1B 6367  38.337  41.174   8.758
  220POPC   C2B 6368  38.261  41.259   8.338
  220POPC   C3B 6369  38.452  41.138   7.968
  220POPC   C4B 6370  38.817  40.982   7.884
  221POPC   NC3 6371   8.249  31.292   9.450
  221POPC   PO4 6372   8.696  31.787   9.395
  221POPC   GL1 6373   8.411  31.792   9.023
  221POPC   GL2 6374   8.205  31.482   8.992
  221POPC   C1A 6375   8.289  31.712   8.572
  221POPC   D2A 6376   8.162  31.298   8.447
  221POPC   C3A 6377   8.349  31.307   8.076
  221POPC   C4A 6378   8.448  31.747   8.023
  221POPC   C1B 6379   7.828  31.679   8.801
  221POPC   C2B 6380   7.641  31.789   8.422
  221POPC   C3B 6381   7.938  31.635   8.158
  221POPC   C4B 6382   8.053  31.527   7.731
  222POPC   NC3 6383  31.239   6.002   9.836
  222POPC   PO4 6384  30.761   5.899   9.336
  222POPC   GL1 6385  30.584   6.092   8.969
  222POPC   GL2 6386  30.324   5.819   9.001
  222POPC   C1A 6387  30.774   6.089   8.540
  222POPC   D2A 6388  30.917   5.683   8.365
  222POPC   C3A 6389  30.993   5.729   7.927
  222POPC   C4A 6390  30.800   6.128   7.790
  222POPC   C1B 6391  30.397   5.730   8.568
  222POPC   C2B 6392  30.490   5.866   8.141
  222POPC   C3B 6393  30.522   5.701   7.722
  222POPC   C4B 6394  30.245   5.640   7.412
  223POPC   NC3 6395   6.732  24.512   9.597
  223POPC   PO4 6396   6.261  24.284   9.213
  223POPC   GL1 6397   6.663  24.353   9.028
  223POPC   GL2 6398   6.958  24.558   9.144
  223POPC   C1A 6399   6.655  24.379   8.595
  223POPC   D2A 6400   6.728  24.212   8.196
  223POPC   C3A 6401   6.440  24.287   7.846
  223POPC   C4A 6402   6.546  24.375   7.405
  223POPC   C1B 6403   6.826  24.841   8.791
  223POPC   C2B 6404   6.594  24.851   8.381
  223POPC   C3B 6405   6.729  24.690   7.977
  223POPC   C4B 6406   6.965  24.626   7.586
  224POPC   NC3 6407  22.476  12.367   9.632
  224POPC   PO4 6408  22.174  12.981   9.570
  224POPC   GL1 6409  22.135  12.939   9.196
  224POPC   GL2 6410  22.224  13.249   9.108
  224POPC   C1A 6411  22.006  12.855   8.811
  224POPC   D2A 6412  22.211  12.891   8.426
  224POPC   C3A 6413  21.912  12.943   8.116
  224POPC   C4A 6414  21.988  12.700   7.779
  224POPC   C1B 6415  22.507  13.313   8.747
  224POPC   C2B 6416  22.469  13.325   8.287
  224POPC   C3B 6417  22.392  13.074   7.951
  224POPC   C4B 6418  22.118  13.206   7.669
  225POPC   NC3 6419  15.827  37.774   9.567
  225POPC   PO4 6420  16.465  37.684   9.922
  225POPC   GL1 6421  16.318  37.689   9.376
  225POPC   GL2 6422  16.073  37.417   9.273
  225POPC   C1A 6423  16.178  37.781   8.929
  225POPC   D2A 6424  15.890  37.748   8.555
  225POPC   C3A 6425  16.055  37.810   8.153
  225POPC   C4A 6426  16.204  37.829   7.755
  225POPC   C1B 6427  15.938  37.329   8.813
  225POPC   C2B 6428  15.891  37.204   8.381
  225POPC   C3B 6429  15.899  37.354   7.942
  225POPC   C4B 6430  15.942  37.353   7.450
  226POPC   NC3 6431  10.734   3.512   9.333
  226POPC   PO4 6432  11.403   3.577   9.631
  226POPC   GL1 6433  11.206   3.680   9.237
  226POPC   GL2 6434  11.360   3.396   9.114
  226POPC   C1A 6435  11.041   3.596   8.787
  226POPC   D2A 6436  11.195   3.723   8.425
  226POPC   C3A 6437  11.003   3.586   8.063
  226POPC   C4A 6438  11.241   3.535   7.727
  226POPC   C1B 6439  11.588   3.644   8.774
  226POPC   C2B 6440  11.727   3.716   8.320
  226POPC   C3B 6441  11.712   3.688   7.840
  226POPC   C4B 6442  11.669   3.408   7.455
  227POPC   NC3 6443   4.807  10.216   9.698
  227POPC   PO4 6444   4.810  10.860   9.564
  227POPC   GL1 6445   4.952  10.521   9.282
  227POPC   GL2 6446   4.891  10.136   9.203
  227POPC   C1A 6447   5.047  10.493   8.851
  227POPC   D2A 6448   4.834  10.464   8.483
  227POPC   C3A 6449   5.027  10.662   8.152
  227POPC   C4A 6450   5.123  10.391   7.857
  227POPC   C1B 6451   4.746  10.020   8.773
  227POPC   C2B 6452   4.607  10.000   8.334
  227POPC   C3B 6453   4.614  10.339   8.032
  227POPC   C4B 6454   4.635  10.736   7.814
  228POPC   NC3 6455  13.663   5.661   9.494
  228POPC   PO4 6456  13.253   6.219   9.470
  228POPC   GL1 6457  13.393   5.961   9.138
  228POPC   GL2 6458  13.743   5.920   9.082
  228POPC   C1A 6459  13.385   5.712   8.759
  228POPC   D2A 6460  13.561   5.497   8.412
  228POPC   C3A 6461  13.480   5.742   8.089
  228POPC   C4A 6462  13.367   5.772   7.678
  228POPC   C1B 6463  13.843   6.058   8.703
  228POPC   C2B 6464  13.955   5.829   8.363
  228POPC   C3B 6465  13.971   5.874   7.955
  228POPC   C4B 6466  13.822   5.556   7.702
  229POPC   NC3 6467  22.465  20.798   9.632
  229POPC   PO4 6468  22.025  20.362   9.424
  229POPC   GL1 6469  22.113  20.493   9.073
  229POPC   GL2 6470  22.262  20.791   9.153
  229POPC   C1A 6471  21.859  20.606   8.735
  229POPC   D2A 6472  21.809  20.469   8.339
  229POPC   C3A 6473  21.857  20.735   7.999
  229POPC   C4A 6474  21.973  20.705   7.584
  229POPC   C1B 6475  22.339  20.735   8.703
  229POPC   C2B 6476  22.273  20.673   8.271
  229POPC   C3B 6477  22.393  20.500   7.837
  229POPC   C4B 6478  22.520  20.607   7.389
  230POPC   NC3 6479  36.504   8.870   9.686
  230POPC   PO4 6480  36.431   9.355   9.263
  230POPC   GL1 6481  36.758   9.090   9.048
  230POPC   GL2 6482  36.896   8.751   9.116
  230POPC   C1A 6483  36.838   8.868   8.627
  230POPC   D2A 6484  36.692   8.574   8.293
  230POPC   C3A 6485  36.636   8.842   7.952
  230POPC   C4A 6486  36.943   9.162   7.806
  230POPC   C1B 6487  37.296   8.596   8.891
  230POPC   C2B 6488  37.488   8.638   8.475
  230POPC   C3B 6489  37.230   8.774   8.125
  230POPC   C4B 6490  37.414   8.975   7.763
  231POPC   NC3 6491  26.527   7.322   9.344
  231POPC   PO4 6492  27.187   7.462   9.504
  231POPC   GL1 6493  27.011   7.512   9.175
  231POPC   GL2 6494  26.783   7.787   9.244
  231POPC   C1A 6495  26.921   7.561   8.790
  231POPC   D2A 6496  26.706   7.458   8.442
  231POPC   C3A 6497  26.873   7.488   8.042
  231POPC   C4A 6498  27.055   7.407   7.632
  231POPC   C1B 6499  26.483   7.791   8.880
  231POPC   C2B 6500  26.467   7.902   8.443
  231POPC   C3B 6501  26.376   7.736   8.001
  231POPC   C4B 6502  26.566   7.553   7.603
  232POPC   NC3 6503   0.260  23.570   9.488
  232POPC   PO4 6504   0.871  23.769   9.422
  232POPC   GL1 6505   0.500  23.899   9.133
  232POPC   GL2 6506   0.218  23.684   9.004
  232POPC   C1A 6507   0.480  24.091   8.701
  232POPC   D2A 6508   0.567  23.886   8.286
  232POPC   C3A 6509   0.435  23.941   7.864
  232POPC   C4A 6510   0.044  23.772   7.682
  232POPC   C1B 6511   0.441  23.565   8.682
  232POPC   C2B 6512   0.667  23.391   8.351
  232POPC   C3B 6513   0.446  23.429   7.978
  232POPC   C4B 6514   0.562  23.135   7.685
  233POPC   NC3 6515   6.608   0.120   9.367
  233POPC   PO4 6516   6.188   0.601   9.431
  233POPC   GL1 6517   6.382   0.540   9.027
  233POPC   GL2 6518   6.714   0.513   9.038
  233POPC   C1A 6519   6.470   0.487   8.583
  233POPC   D2A 6520   6.433   0.762   8.242
  233POPC   C3A 6521   6.481   0.527   7.868
  233POPC   C4A 6522   6.521   0.272   7.491
  233POPC   C1B 6523   6.951   0.288   8.707
  233POPC   C2B 6524   6.924   0.258   8.259
  233POPC   C3B 6525   6.803   0.051   7.882
  233POPC   C4B 6526   6.893  44.923   7.438
  234POPC   NC3 6527  31.609  29.636   9.496
  234POPC   PO4 6528  31.084  30.002   9.442
  234POPC   GL1 6529  31.306  29.823   9.082
  234POPC   GL2 6530  31.695  29.876   9.080
  234POPC   C1A 6531  31.203  29.737   8.631
  234POPC   D2A 6532  31.488  29.568   8.321
  234POPC   C3A 6533  31.607  29.732   7.943
  234POPC   C4A 6534  31.249  29.938   7.881
  234POPC   C1B 6535  31.684  29.894   8.677
  234POPC   C2B 6536  31.729  30.072   8.290
  234POPC   C3B 6537  31.718  30.215   7.869
  234POPC   C4B 6538  31.573  30.073   7.479
  235POPC   NC3 6539   2.090  26.270   9.542
  235POPC   PO4 6540   1.950  26.947   9.464
  235POPC   GL1 6541   1.913  26.796   9.079
  235POPC   GL2 6542   1.738  26.490   9.193
  235POPC   C1A 6543   2.027  26.504   8.762
  235POPC   D2A 6544   1.889  26.356   8.375
  235POPC   C3A 6545   2.058  26.584   8.036
  235POPC   C4A 6546   1.898  26.906   7.752
  235POPC   C1B 6547   1.529  26.625   8.801
  235POPC   C2B 6548   1.738  26.851   8.467
  235POPC   C3B 6549   1.564  26.732   8.084
  235POPC   C4B 6550   1.388  26.763   7.666
  236POPC   NC3 6551  38.701  40.092   9.641
  236POPC   PO4 6552  38.342  39.643   9.475
  236POPC   GL1 6553  38.678  39.797   9.163
  236POPC   GL2 6554  38.700  40.186   9.127
  236POPC   C1A 6555  38.745  39.684   8.698
  236POPC   D2A 6556  38.867  39.927   8.316
  236POPC   C3A 6557  38.568  39.992   7.979
  236POPC   C4A 6558  38.505  39.671   7.680
  236POPC   C1B 6559  38.569  40.201   8.666
  236POPC   C2B 6560  38.236  40.322   8.354
  236POPC   C3B 6561  38.152  40.316   7.905
  236POPC   C4B 6562  38.378  40.232   7.473
  237POPC   NC3 6563  32.755  41.296   9.498
  237POPC   PO4 6564  32.829  41.963   9.596
  237POPC   GL1 6565  32.881  41.722   9.209
  237POPC   GL2 6566  33.046  41.387   9.083
  237POPC   C1A 6567  32.728  41.684   8.803
  237POPC   D2A 6568  32.925  41.551   8.426
  237POPC   C3A 6569  32.882  41.810   8.051
  237POPC   C4A 6570  32.713  41.696   7.655
  237POPC   C1B 6571  33.343  41.491   8.750
  237POPC   C2B 6572  33.418  41.415   8.285
  237POPC   C3B 6573  33.164  41.415   7.909
  237POPC   C4B 6574  33.212  41.599   7.511
  238POPC   NC3 6575  40.235  35.908   9.516
  238POPC   PO4 6576  39.924  36.455   9.559
  238POPC   GL1 6577  39.920  36.150   9.192
  238POPC   GL2 6578  40.048  36.361   9.060
  238POPC   C1A 6579  39.874  35.840   8.830
  238POPC   D2A 6580  40.030  35.800   8.389
  238POPC   C3A 6581  39.855  35.797   7.944
  238POPC   C4A 6582  39.989  35.695   7.490
  238POPC   C1B 6583  40.101  36.457   8.707
  238POPC   C2B 6584  40.046  36.306   8.346
  238POPC   C3B 6585  40.052  36.441   7.967
  238POPC   C4B 6586  40.036  36.190   7.640
  239POPC   NC3 6587  25.329  29.017   9.490
  239POPC   PO4 6588  24.672  29.138   9.630
  239POPC   GL1 6589  24.928  29.148   9.219
  239POPC   GL2 6590  24.913  28.817   9.087
  239POPC   C1A 6591  25.224  29.324   8.838
  239POPC   D2A 6592  25.369  29.520   8.414
  239POPC   C3A 6593  25.270  29.274   8.006
  239POPC   C4A 6594  25.053  29.521   7.651
  239POPC   C1B 6595  25.144  28.738   8.688
  239POPC   C2B 6596  25.208  28.730   8.219
  239POPC   C3B 6597  24.983  28.700   7.854
  239POPC   C4B 6598  25.016  29.040   7.597
  240POPC   NC3 6599   9.985  22.675   9.442
  240POPC   PO4 6600   9.393  22.929   9.425
  240POPC   GL1 6601   9.700  22.963   9.101
  240POPC   GL2 6602   9.895  23.290   9.047
  240POPC   C1A 6603   9.565  22.780   8.714
  240POPC   D2A 6604   9.404  22.973   8.351
  240POPC   C3A 6605   9.474  22.745   7.974
  240POPC   C4A 6606   9.566  22.706   7.553
  240POPC   C1B 6607   9.925  23.118   8.655
  240POPC   C2B 6608   9.919  22.973   8.242
  240POPC   C3B 6609   9.820  23.108   7.832
  240POPC   C4B 6610  10.082  23.313   7.512
  241POPC   NC3 6611  33.230  22.506   9.466
  241POPC   PO4 6612  32.956  21.831   9.495
  241POPC   GL1 6613  33.225  22.031   9.200
  241POPC   GL2 6614  33.034  22.275   9.050
  241POPC   C1A 6615  33.405  22.067   8.774
  241POPC   D2A 6616  33.079  22.246   8.484
  241POPC   C3A 6617  33.008  22.061   8.100
  241POPC   C4A 6618  33.283  22.069   7.764
  241POPC   C1B 6619  32.658  22.257   8.831
  241POPC   C2B 6620  32.570  22.306   8.425
  241POPC   C3B 6621  32.758  22.525   8.105
  241POPC   C4B 6622  32.860  22.360   7.717
  242POPC   NC3 6623   0.143  12.916   9.456
  242POPC   PO4 6624   0.856  13.056   9.339
  242POPC   GL1 6625   0.509  13.030   9.088
  242POPC   GL2 6626   0.352  12.719   9.042
  242POPC   C1A 6627   0.363  13.100   8.669
  242POPC   D2A 6628   0.454  13.315   8.255
  242POPC   C3A 6629   0.339  13.077   7.870
  242POPC   C4A 6630   0.495  12.715   7.607
  242POPC   C1B 6631   0.075  12.640   8.712
  242POPC   C2B 6632   0.081  12.833   8.322
  242POPC   C3B 6633   0.093  12.636   7.930
  242POPC   C4B 6634   0.018  12.573   7.478
  243POPC   NC3 6635   4.663   9.542   9.527
  243POPC   PO4 6636   5.169   9.930   9.644
  243POPC   GL1 6637   5.199   9.705   9.236
  243POPC   GL2 6638   4.895   9.607   9.093
  243POPC   C1A 6639   5.317   9.726   8.797
  243POPC   D2A 6640   5.231  10.079   8.551
  243POPC   C3A 6641   5.244   9.984   8.138
  243POPC   C4A 6642   4.914   9.931   7.872
  243POPC   C1B 6643   4.962   9.372   8.750
  243POPC   C2B 6644   4.970   9.604   8.385
  243POPC   C3B 6645   4.945   9.444   7.990
  243POPC   C4B 6646   4.721   9.499   7.647
  244POPC   NC3 6647   7.681   1.432   9.772
  244POPC   PO4 6648   8.033   0.919   9.520
  244POPC   GL1 6649   8.263   1.037   9.141
  244POPC   GL2 6650   8.412   1.398   9.125
  244POPC   C1A 6651   8.168   0.970   8.704
  244POPC   D2A 6652   8.365   1.091   8.303
  244POPC   C3A 6653   8.132   1.055   7.908
  244POPC   C4A 6654   7.991   1.048   7.472
  244POPC   C1B 6655   8.451   1.700   8.767
  244POPC   C2B 6656   8.590   1.564   8.343
  244POPC   C3B 6657   8.422   1.491   7.915
  244POPC   C4B 6658   8.321   1.467   7.473
  245POPC   NC3 6659  31.531  34.507   9.569
  245POPC   PO4 6660  31.851  34.950   9.230
  245POPC   GL1 6661  31.611  34.505   9.077
  245POPC   GL2 6662  31.376  34.200   9.183
  245POPC   C1A 6663  31.397  34.365   8.719
  245POPC   D2A 6664  31.150  34.570   8.458
  245POPC   C3A 6665  31.404  34.517   8.118
  245POPC   C4A 6666  31.563  34.734   7.774
  245POPC   C1B 6667  30.989  34.134   8.909
  245POPC   C2B 6668  30.859  34.160   8.483
  245POPC   C3B 6669  30.895  34.299   8.088
  245POPC   C4B 6670  31.106  34.434   7.721
  246POPC   NC3 6671  43.097  25.424   9.795
  246POPC   PO4 6672  43.093  24.967   9.264
  246POPC   GL1 6673  43.277  25.143   8.908
  246POPC   GL2 6674  43.419  24.781   8.953
  246POPC   C1A 6675  43.148  25.511   8.610
  246POPC   D2A 6676  42.823  25.577   8.322
  246POPC   C3A 6677  42.931  25.381   7.936
  246POPC   C4A 6678  43.375  25.412   7.892
  246POPC   C1B 6679  43.136  24.782   8.605
  246POPC   C2B 6680  43.163  25.093   8.336
  246POPC   C3B 6681  43.204  24.931   7.977
  246POPC   C4B 6682  43.036  24.973   7.598
  247POPC   NC3 6683  18.598  43.373   9.346
  247POPC   PO4 6684  18.013  43.388   9.661
  247POPC   GL1 6685  18.116  43.241   9.249
  247POPC   GL2 6686  18.255  42.904   9.230
  247POPC   C1A 6687  18.136  43.134   8.790
  247POPC   D2A 6688  18.340  43.167   8.400
  247POPC   C3A 6689  18.130  43.090   8.034
  247POPC   C4A 6690  17.985  42.744   7.800
  247POPC   C1B 6691  18.417  42.715   8.840
  247POPC   C2B 6692  18.568  42.713   8.442
  247POPC   C3B 6693  18.428  42.658   8.060
  247POPC   C4B 6694  18.476  42.741   7.669
  248POPC   NC3 6695  43.648  33.098   9.562
  248POPC   PO4 6696  44.287  33.002   9.335
  248POPC   GL1 6697  43.898  32.973   9.104
  248POPC   GL2 6698  43.698  33.269   9.087
  248POPC   C1A 6699  43.756  32.988   8.661
  248POPC   D2A 6700  43.892  33.265   8.328
  248POPC   C3A 6701  43.932  33.192   7.872
  248POPC   C4A 6702  44.368  33.278   7.714
  248POPC   C1B 6703  43.425  33.362   8.730
  248POPC   C2B 6704  43.404  33.372   8.290
  248POPC   C3B 6705  43.393  33.317   7.859
  248POPC   C4B 6706  43.596  33.421   7.529
  249POPC   NC3 6707  41.442  32.556   9.469
  249POPC   PO4 6708  41.505  33.190   9.509
  249POPC   GL1 6709  41.615  32.973   9.141
  249POPC   GL2 6710  41.834  32.676   9.161
  249POPC   C1A 6711  41.443  32.854   8.742
  249POPC   D2A 6712  41.648  32.894   8.342
  249POPC   C3A 6713  41.428  32.920   7.994
  249POPC   C4A 6714  41.468  33.108   7.608
  249POPC   C1B 6715  41.952  32.834   8.747
  249POPC   C2B 6716  42.150  32.791   8.325
  249POPC   C3B 6717  41.959  32.861   7.890
  249POPC   C4B 6718  41.907  32.846   7.413
  250POPC   NC3 6719  25.330  22.298   9.621
  250POPC   PO4 6720  24.776  21.944   9.593
  250POPC   GL1 6721  24.988  22.156   9.257
  250POPC   GL2 6722  25.287  22.010   9.178
  250POPC   C1A 6723  24.922  22.168   8.825
  250POPC   D2A 6724  25.087  22.048   8.445
  250POPC   C3A 6725  24.992  22.189   8.063
  250POPC   C4A 6726  24.968  22.430   7.717
  250POPC   C1B 6727  25.464  22.129   8.788
  250POPC   C2B 6728  25.566  21.913   8.379
  250POPC   C3B 6729  25.489  22.124   7.992
  250POPC   C4B 6730  25.437  22.576   7.876
  251POPC   NC3 6731  19.176  10.491   9.612
  251POPC   PO4 6732  18.549  10.208   9.724
  251POPC   GL1 6733  18.777  10.269   9.330
  251POPC   GL2 6734  18.822  10.620   9.258
  251POPC   C1A 6735  18.902  10.221   8.885
  251POPC   D2A 6736  19.213  10.259   8.571
  251POPC   C3A 6737  19.037  10.160   8.179
  251POPC   C4A 6738  18.966  10.411   7.839
  251POPC   C1B 6739  19.057  10.698   8.883
  251POPC   C2B 6740  18.952  10.702   8.423
  251POPC   C3B 6741  19.220  10.780   8.066
  251POPC   C4B 6742  19.212  10.773   7.601
  252POPC   NC3 6743  37.522  25.465   9.682
  252POPC   PO4 6744  37.886  25.956   9.615
  252POPC   GL1 6745  37.655  25.980   9.224
  252POPC   GL2 6746  37.333  25.816   9.303
  252POPC   C1A 6747  37.635  26.127   8.785
  252POPC   D2A 6748  37.902  25.983   8.437
  252POPC   C3A 6749  37.756  25.980   8.026
  252POPC   C4A 6750  37.544  26.102   7.658
  252POPC   C1B 6751  37.416  25.675   8.860
  252POPC   C2B 6752  37.415  25.813   8.408
  252POPC   C3B 6753  37.443  25.576   8.005
  252POPC   C4B 6754  37.562  25.507   7.547
  253POPC   NC3 6755   4.228   0.060   9.485
  253POPC   PO4 6756   4.022  44.412   9.491
  253POPC   GL1 6757   4.006  44.444   9.061
  253POPC   GL2 6758   4.271  44.684   9.075
  253POPC   C1A 6759   4.139  44.464   8.621
  253POPC   D2A 6760   4.418  44.369   8.261
  253POPC   C3A 6761   4.232  44.579   7.920
  253POPC   C4A 6762   4.057  44.887   7.650
  253POPC   C1B 6763   4.397  44.918   8.724
  253POPC   C2B 6764   4.543  44.855   8.305
  253POPC   C3B 6765   4.514   0.020   7.887
  253POPC   C4B 6766   4.506   0.187   7.477
  254POPC   NC3 6767  19.561   8.102   9.271
  254POPC   PO4 6768  18.886   8.128   9.488
  254POPC   GL1 6769  19.066   8.141   9.117
  254POPC   GL2 6770  19.060   7.802   9.034
  254POPC   C1A 6771  19.151   8.171   8.684
  254POPC   D2A 6772  18.892   8.142   8.363
  254POPC   C3A 6773  19.094   8.252   8.012
  254POPC   C4A 6774  18.902   8.302   7.622
  254POPC   C1B 6775  19.387   7.727   8.698
  254POPC   C2B 6776  19.449   7.936   8.302
  254POPC   C3B 6777  19.239   7.757   7.952
  254POPC   C4B 6778  19.054   7.524   7.606
  255POPC   NC3 6779   1.504  42.603   9.587
  255POPC   PO4 6780   0.949  42.111   9.545
  255POPC   GL1 6781   0.989  42.212   9.126
  255POPC   GL2 6782   1.236  42.456   9.147
  255POPC   C1A 6783   1.120  42.140   8.704
  255POPC   D2A 6784   1.259  42.347   8.344
  255POPC   C3A 6785   1.111  42.134   7.975
  255POPC   C4A 6786   0.854  42.174   7.603
  255POPC   C1B 6787   1.512  42.080   9.015
  255POPC   C2B 6788   1.626  42.022   8.566
  255POPC   C3B 6789   1.633  42.086   8.098
  255POPC   C4B 6790   1.477  42.456   7.874
  256POPC   NC3 6791  26.346  36.468   9.385
  256POPC   PO4 6792  25.900  36.972   9.738
  256POPC   GL1 6793  25.953  36.847   9.273
  256POPC   GL2 6794  25.884  36.500   9.152
  256POPC   C1A 6795  25.968  36.933   8.806
  256POPC   D2A 6796  25.848  37.152   8.416
  256POPC   C3A 6797  25.917  36.895   8.018
  256POPC   C4A 6798  25.951  36.999   7.562
  256POPC   C1B 6799  26.104  36.417   8.760
  256POPC   C2B 6800  26.340  36.479   8.387
  256POPC   C3B 6801  26.361  36.564   7.949
  256POPC   C4B 6802  26.106  36.532   7.634
  257POPC   NC3 6803  21.601  38.609   9.327
  257POPC   PO4 6804  21.341  39.092   9.772
  257POPC   GL1 6805  21.366  39.160   9.291
  257POPC   GL2 6806  21.123  39.411   9.190
  257POPC   C1A 6807  21.634  39.306   8.926
  257POPC   D2A 6808  21.542  39.448   8.475
  257POPC   C3A 6809  21.618  39.167   8.109
  257POPC   C4A 6810  21.539  39.032   7.630
  257POPC   C1B 6811  21.155  39.245   8.772
  257POPC   C2B 6812  20.965  39.222   8.389
  257POPC   C3B 6813  21.135  39.085   8.024
  257POPC   C4B 6814  21.055  39.217   7.685
  258POPC   NC3 6815  44.407  27.749   9.341
  258POPC   PO4 6816  43.823  27.563   9.571
  258POPC   GL1 6817  43.731  27.438   9.157
  258POPC   GL2 6818  44.005  27.635   9.060
  258POPC   C1A 6819  43.625  27.575   8.750
  258POPC   D2A 6820  43.906  27.527   8.449
  258POPC   C3A 6821  43.754  27.699   8.091
  258POPC   C4A 6822  43.766  27.604   7.663
  258POPC   C1B 6823  44.280  27.351   8.818
  258POPC   C2B 6824  44.392  27.374   8.372
  258POPC   C3B 6825  44.165  27.397   7.967
  258POPC   C4B 6826  44.222  27.471   7.496
  259POPC   NC3 6827  36.262  21.684   9.491
  259POPC   PO4 6828  35.942  21.097   9.585
  259POPC   GL1 6829  35.914  21.222   9.156
  259POPC   GL2 6830  35.930  21.582   9.121
  259POPC   C1A 6831  35.800  21.294   8.725
  259POPC   D2A 6832  35.965  21.537   8.404
  259POPC   C3A 6833  36.044  21.278   8.111
  259POPC   C4A 6834  35.961  21.437   7.759
  259POPC   C1B 6835  36.278  21.471   8.820
  259POPC   C2B 6836  36.455  21.611   8.390
  259POPC   C3B 6837  36.499  21.465   7.981
  259POPC   C4B 6838  36.428  21.518   7.554
  260POPC   NC3 6839  27.519   8.496   9.611
  260POPC   PO4 6840  27.877   9.055   9.362
  260POPC   GL1 6841  27.747   8.807   9.079
  260POPC   GL2 6842  27.522   9.026   8.957
  260POPC   C1A 6843  27.845   8.690   8.700
  260POPC   D2A 6844  27.799   8.808   8.301
  260POPC   C3A 6845  27.385   8.643   8.177
  260POPC   C4A 6846  27.266   8.599   7.752
  260POPC   C1B 6847  27.374   8.928   8.605
  260POPC   C2B 6848  27.421   9.157   8.221
  260POPC   C3B 6849  27.604   8.962   7.837
  260POPC   C4B 6850  27.957   8.783   7.658
  261POPC   NC3 6851  35.974   7.527   9.411
  261POPC   PO4 6852  36.410   7.094   9.453
  261POPC   GL1 6853  36.268   7.279   9.080
  261POPC   GL2 6854  35.939   7.106   9.119
  261POPC   C1A 6855  36.266   7.517   8.699
  261POPC   D2A 6856  36.501   7.529   8.310
  261POPC   C3A 6857  36.363   7.631   7.892
  261POPC   C4A 6858  35.966   7.575   7.703
  261POPC   C1B 6859  35.978   7.060   8.695
  261POPC   C2B 6860  35.900   7.336   8.393
  261POPC   C3B 6861  36.104   7.231   8.060
  261POPC   C4B 6862  35.916   7.081   7.732
  262POPC   NC3 6863  29.239  35.947   9.486
  262POPC   PO4 6864  28.928  36.502   9.797
  262POPC   GL1 6865  29.044  36.394   9.289
  262POPC   GL2 6866  28.900  36.071   9.137
  262POPC   C1A 6867  29.255  36.362   8.836
  262POPC   D2A 6868  29.075  36.416   8.394
  262POPC   C3A 6869  29.252  36.371   7.995
  262POPC   C4A 6870  29.195  36.231   7.580
  262POPC   C1B 6871  28.796  36.177   8.723
  262POPC   C2B 6872  28.839  35.904   8.380
  262POPC   C3B 6873  28.914  36.002   7.963
  262POPC   C4B 6874  28.710  35.978   7.587
  263POPC   NC3 6875  13.817  43.023   9.675
  263POPC   PO4 6876  14.065  43.529   9.385
  263POPC   GL1 6877  13.773  43.169   9.211
  263POPC   GL2 6878  13.419  43.099   9.346
  263POPC   C1A 6879  13.819  42.959   8.827
  263POPC   D2A 6880  13.763  42.796   8.422
  263POPC   C3A 6881  13.866  43.094   8.100
  263POPC   C4A 6882  13.622  42.994   7.749
  263POPC   C1B 6883  13.341  43.121   8.904
  263POPC   C2B 6884  13.435  43.208   8.488
  263POPC   C3B 6885  13.410  43.344   8.079
  263POPC   C4B 6886  13.318  43.477   7.686
  264POPC   NC3 6887  35.986  10.254   9.392
  264POPC   PO4 6888  36.254   9.676   9.678
  264POPC   GL1 6889  36.143   9.792   9.221
  264POPC   GL2 6890  35.798   9.674   9.127
  264POPC   C1A 6891  36.271   9.860   8.782
  264POPC   D2A 6892  36.342   9.679   8.362
  264POPC   C3A 6893  36.269   9.900   7.993
  264POPC   C4A 6894  36.291   9.791   7.553
  264POPC   C1B 6895  35.731   9.849   8.734
  264POPC   C2B 6896  35.928  10.015   8.397
  264POPC   C3B 6897  35.774  10.060   8.000
  264POPC   C4B 6898  35.797   9.722   7.708
  265POPC   NC3 6899  26.356  38.805   9.586
  265POPC   PO4 6900  26.823  39.299   9.394
  265POPC   GL1 6901  26.692  39.226   9.004
  265POPC   GL2 6902  26.575  38.918   9.111
  265POPC   C1A 6903  26.863  39.201   8.586
  265POPC   D2A 6904  26.969  39.432   8.239
  265POPC   C3A 6905  26.883  39.255   7.849
  265POPC   C4A 6906  26.770  39.440   7.441
  265POPC   C1B 6907  26.821  38.738   8.785
  265POPC   C2B 6908  26.706  38.617   8.373
  265POPC   C3B 6909  26.856  38.729   7.980
  265POPC   C4B 6910  26.732  38.843   7.593
  266POPC   NC3 6911   0.420  14.714   9.580
  266POPC   PO4 6912   0.711  14.059   9.408
  266POPC   GL1 6913   0.578  14.308   9.115
  266POPC   GL2 6914   0.310  14.505   9.061
  266POPC   C1A 6915   0.713  14.432   8.734
  266POPC   D2A 6916   0.786  14.204   8.373
  266POPC   C3A 6917   0.720  14.444   8.023
  266POPC   C4A 6918   0.590  14.226   7.676
  266POPC   C1B 6919   0.214  14.216   8.731
  266POPC   C2B 6920   0.279  14.279   8.287
  266POPC   C3B 6921   0.037  14.379   7.928
  266POPC   C4B 6922   0.210  14.792   7.874
  267POPC   NC3 6923  23.500  19.017   9.657
  267POPC   PO4 6924  22.824  19.110   9.568
  267POPC   GL1 6925  23.066  19.175   9.188
  267POPC   GL2 6926  23.185  18.863   9.021
  267POPC   C1A 6927  23.095  19.265   8.719
  267POPC   D2A 6928  23.186  19.072   8.321
  267POPC   C3A 6929  23.237  19.329   7.952
  267POPC   C4A 6930  23.127  19.258   7.522
  267POPC   C1B 6931  22.735  18.931   8.847
  267POPC   C2B 6932  22.578  19.216   8.526
  267POPC   C3B 6933  22.711  19.292   8.098
  267POPC   C4B 6934  22.665  19.070   7.707
  268POPC   NC3 6935   6.204   3.332   9.497
  268POPC   PO4 6936   5.662   3.735   9.470
  268POPC   GL1 6937   5.827   3.604   9.125
  268POPC   GL2 6938   5.737   3.276   9.101
  268POPC   C1A 6939   6.086   3.505   8.764
  268POPC   D2A 6940   6.310   3.636   8.392
  268POPC   C3A 6941   6.293   3.367   8.060
  268POPC   C4A 6942   5.954   3.577   7.876
  268POPC   C1B 6943   5.568   3.509   8.706
  268POPC   C2B 6944   5.626   3.699   8.313
  268POPC   C3B 6945   5.472   3.475   7.982
  268POPC   C4B 6946   5.566   3.374   7.598
  269POPC   NC3 6947  24.791  37.733   9.742
  269POPC   PO4 6948  24.356  37.401   9.331
  269POPC   GL1 6949  24.730  37.606   9.232
  269POPC   GL2 6950  24.723  37.959   9.246
  269POPC   C1A 6951  24.818  37.612   8.810
  269POPC   D2A 6952  24.567  37.580   8.442
  269POPC   C3A 6953  24.819  37.380   8.125
  269POPC   C4A 6954  24.745  37.407   7.700
  269POPC   C1B 6955  24.462  37.977   8.872
  269POPC   C2B 6956  24.275  38.055   8.486
  269POPC   C3B 6957  24.326  38.002   8.071
  269POPC   C4B 6958  24.442  38.160   7.703
  270POPC   NC3 6959   6.602  41.864   9.573
  270POPC   PO4 6960   6.841  42.555   9.531
  270POPC   GL1 6961   6.859  42.384   9.182
  270POPC   GL2 6962   7.053  42.096   9.320
  270POPC   C1A 6963   6.690  42.405   8.757
  270POPC   D2A 6964   6.532  42.146   8.406
  270POPC   C3A 6965   6.486  42.327   7.998
  270POPC   C4A 6966   6.774  42.578   7.740
  270POPC   C1B 6967   7.069  42.052   8.882
  270POPC   C2B 6968   7.140  42.260   8.505
  270POPC   C3B 6969   6.974  42.220   8.090
  270POPC   C4B 6970   6.929  41.936   7.734
  271POPC   NC3 6971  39.685  20.323   9.662
  271POPC   PO4 6972  39.832  20.962   9.545
  271POPC   GL1 6973  39.836  20.684   9.217
  271POPC   GL2 6974  40.111  20.466   9.208
  271POPC   C1A 6975  40.030  20.817   8.847
  271POPC   D2A 6976  40.157  20.792   8.442
  271POPC   C3A 6977  39.950  20.961   8.098
  271POPC   C4A 6978  40.013  20.844   7.682
  271POPC   C1B 6979  40.211  20.335   8.773
  271POPC   C2B 6980  40.308  20.307   8.319
  271POPC   C3B 6981  40.089  20.399   7.932
  271POPC   C4B 6982  40.101  20.384   7.447
  272POPC   NC3 6983  12.371  32.141   9.499
  272POPC   PO4 6984  11.746  32.366   9.623
  272POPC   GL1 6985  11.789  32.175   9.223
  272POPC   GL2 6986  11.807  31.816   9.242
  272POPC   C1A 6987  12.018  32.334   8.860
  272POPC   D2A 6988  12.320  32.455   8.556
  272POPC   C3A 6989  12.108  32.514   8.168
  272POPC   C4A 6990  12.184  32.311   7.768
  272POPC   C1B 6991  11.872  31.826   8.798
  272POPC   C2B 6992  12.103  32.004   8.439
  272POPC   C3B 6993  12.182  31.874   8.029
  272POPC   C4B 6994  11.900  31.879   7.662
  273POPC   NC3 6995  35.289  12.218   9.570
  273POPC   PO4 6996  35.754  11.771   9.414
  273POPC   GL1 6997  35.448  11.988   9.130
  273POPC   GL2 6998  35.410  12.377   9.118
  273POPC   C1A 6999  35.420  12.110   8.703
  273POPC   D2A 7000  35.580  11.971   8.324
  273POPC   C3A 7001  35.349  11.985   7.970
  273POPC   C4A 7002  34.922  11.857   7.891
  273POPC   C1B 7003  35.106  12.516   8.808
  273POPC   C2B 7004  35.222  12.441   8.363
  273POPC   C3B 7005  35.093  12.423   7.940
  273POPC   C4B 7006  35.250  12.595   7.595
  274POPC   NC3 7007  30.661  12.775   9.487
  274POPC   PO4 7008  31.192  13.148   9.315
  274POPC   GL1 7009  30.751  13.160   9.087
  274POPC   GL2 7010  30.440  12.940   9.070
  274POPC   C1A 7011  30.633  13.058   8.632
  274POPC   D2A 7012  30.634  13.110   8.204
  274POPC   C3A 7013  30.989  12.923   8.032
  274POPC   C4A 7014  30.970  12.698   7.682
  274POPC   C1B 7015  30.566  12.571   8.797
  274POPC   C2B 7016  30.649  12.579   8.342
  274POPC   C3B 7017  30.507  12.674   7.936
  274POPC   C4B 7018  30.124  12.595   7.721
  275POPC   NC3 7019  23.323   6.578   9.611
  275POPC   PO4 7020  22.663   6.586   9.547
  275POPC   GL1 7021  22.890   6.477   9.154
  275POPC   GL2 7022  23.252   6.511   9.104
  275POPC   C1A 7023  22.879   6.747   8.771
  275POPC   D2A 7024  23.064   6.722   8.359
  275POPC   C3A 7025  22.928   6.925   8.004
  275POPC   C4A 7026  23.044   6.942   7.567
  275POPC   C1B 7027  23.135   6.329   8.681
  275POPC   C2B 7028  23.209   6.246   8.251
  275POPC   C3B 7029  23.180   6.485   7.854
  275POPC   C4B 7030  23.295   6.465   7.403
  276POPC   NC3 7031   9.555  13.419   9.674
  276POPC   PO4 7032   8.877  13.715   9.484
  276POPC   GL1 7033   8.879  13.915   9.086
  276POPC   GL2 7034   9.200  14.156   9.101
  276POPC   C1A 7035   8.848  13.651   8.728
  276POPC   D2A 7036   8.609  13.416   8.432
  276POPC   C3A 7037   8.804  13.608   8.074
  276POPC   C4A 7038   9.074  13.407   7.786
  276POPC   C1B 7039   9.252  14.016   8.677
  276POPC   C2B 7040   9.089  14.104   8.291
  276POPC   C3B 7041   9.129  13.959   7.865
  276POPC   C4B 7042   9.190  13.956   7.429
  277POPC   NC3 7043  38.781  12.058   9.602
  277POPC   PO4 7044  38.058  12.163   9.498
  277POPC   GL1 7045  38.381  12.023   9.227
  277POPC   GL2 7046  38.512  12.357   9.176
  277POPC   C1A 7047  38.595  12.008   8.814
  277POPC   D2A 7048  38.426  12.103   8.409
  277POPC   C3A 7049  38.653  12.207   8.025
  277POPC   C4A 7050  38.534  11.917   7.711
  277POPC   C1B 7051  38.167  12.327   8.829
  277POPC   C2B 7052  38.048  12.453   8.406
  277POPC   C3B 7053  38.157  12.319   8.013
  277POPC   C4B 7054  38.191  12.532   7.642
  278POPC   NC3 7055   2.759  17.275   9.429
  278POPC   PO4 7056   3.077  17.891   9.535
  278POPC   GL1 7057   2.965  17.642   9.137
  278POPC   GL2 7058   3.002  17.236   8.986
  278POPC   C1A 7059   2.766  17.628   8.733
  278POPC   D2A 7060   2.850  17.425   8.341
  278POPC   C3A 7061   2.804  17.731   8.017
  278POPC   C4A 7062   3.080  17.747   7.649
  278POPC   C1B 7063   2.631  17.112   8.790
  278POPC   C2B 7064   2.387  17.198   8.445
  278POPC   C3B 7065   2.444  17.335   8.027
  278POPC   C4B 7066   2.816  17.286   7.773
  279POPC   NC3 7067  39.693  39.972   9.602
  279POPC   PO4 7068  40.260  40.463   9.512
  279POPC   GL1 7069  40.201  40.195   9.178
  279POPC   GL2 7070  40.401  39.861   9.154
  279POPC   C1A 7071  40.378  40.218   8.768
  279POPC   D2A 7072  40.336  39.930   8.432
  279POPC   C3A 7073  40.308  40.109   8.012
  279POPC   C4A 7074  40.204  40.167   7.573
  279POPC   C1B 7075  40.027  39.821   8.878
  279POPC   C2B 7076  39.859  39.685   8.481
  279POPC   C3B 7077  40.063  39.586   8.121
  279POPC   C4B 7078  39.970  39.544   7.718
  280POPC   NC3 7079  21.118  32.737   9.523
  280POPC   PO4 7080  21.617  33.202   9.492
  280POPC   GL1 7081  21.347  33.069   9.203
  280POPC   GL2 7082  21.600  32.805   9.136
  280POPC   C1A 7083  21.276  33.030   8.804
  280POPC   D2A 7084  21.571  33.095   8.513
  280POPC   C3A 7085  21.386  33.052   8.146
  280POPC   C4A 7086  21.449  33.145   7.774
  280POPC   C1B 7087  21.538  32.611   8.749
  280POPC   C2B 7088  21.304  32.594   8.394
  280POPC   C3B 7089  21.329  32.564   7.965
  280POPC   C4B 7090  21.052  32.848   7.727
  281POPC   NC3 7091   2.039   4.850   9.520
  281POPC   PO4 7092   1.644   5.414   9.578
  281POPC   GL1 7093   1.817   5.233   9.198
  281POPC   GL2 7094   2.160   5.120   9.087
  281POPC   C1A 7095   1.714   5.158   8.758
  281POPC   D2A 7096   1.854   5.047   8.341
  281POPC   C3A 7097   1.853   5.281   7.962
  281POPC   C4A 7098   1.884   5.114   7.560
  281POPC   C1B 7099   2.351   4.832   8.762
  281POPC   C2B 7100   2.234   4.684   8.342
  281POPC   C3B 7101   2.070   4.786   7.938
  281POPC   C4B 7102   2.378   4.776   7.631
  282POPC   NC3 7103  16.569  38.118   9.732
  282POPC   PO4 7104  16.951  37.521   9.602
  282POPC   GL1 7105  16.809  37.739   9.239
  282POPC   GL2 7106  16.977  38.056   9.135
  282POPC   C1A 7107  16.748  37.699   8.805
  282POPC   D2A 7108  16.423  37.600   8.494
  282POPC   C3A 7109  16.673  37.544   8.134
  282POPC   C4A 7110  16.731  37.691   7.738
  282POPC   C1B 7111  16.988  38.167   8.720
  282POPC   C2B 7112  17.019  37.887   8.359
  282POPC   C3B 7113  17.094  38.004   7.920
  282POPC   C4B 7114  17.099  37.888   7.450
  283POPC   NC3 7115  11.962   2.620   9.293
  283POPC   PO4 7116  12.271   3.090   9.526
  283POPC   GL1 7117  12.198   3.020   9.118
  283POPC   GL2 7118  12.534   2.924   9.078
  283POPC   C1A 7119  12.117   2.760   8.708
  283POPC   D2A 7120  11.876   2.549   8.403
  283POPC   C3A 7121  11.989   2.711   8.039
  283POPC   C4A 7122  12.169   2.541   7.681
  283POPC   C1B 7123  12.400   3.169   8.703
  283POPC   C2B 7124  12.212   3.154   8.302
  283POPC   C3B 7125  12.391   2.978   7.931
  283POPC   C4B 7126  12.598   3.102   7.599
  284POPC   NC3 7127  13.206  31.977   9.674
  284POPC   PO4 7128  13.742  32.367   9.514
  284POPC   GL1 7129  13.533  32.403   9.156
  284POPC   GL2 7130  13.413  32.056   9.195
  284POPC   C1A 7131  13.666  32.262   8.764
  284POPC   D2A 7132  13.524  31.924   8.497
  284POPC   C3A 7133  13.733  31.927   8.117
  284POPC   C4A 7134  13.693  32.191   7.783
  284POPC   C1B 7135  13.173  32.179   8.846
  284POPC   C2B 7136  13.244  32.413   8.494
  284POPC   C3B 7137  13.290  32.228   8.107
  284POPC   C4B 7138  12.969  32.068   7.859
  285POPC   NC3 7139  36.020  31.752   9.619
  285POPC   PO4 7140  36.243  32.497   9.531
  285POPC   GL1 7141  36.160  32.413   9.156
  285POPC   GL2 7142  36.093  32.081   9.225
  285POPC   C1A 7143  36.084  32.548   8.762
  285POPC   D2A 7144  35.849  32.308   8.485
  285POPC   C3A 7145  36.034  32.094   8.174
  285POPC   C4A 7146  36.082  32.255   7.773
  285POPC   C1B 7147  36.187  32.038   8.778
  285POPC   C2B 7148  36.426  32.280   8.473
  285POPC   C3B 7149  36.530  32.219   8.061
  285POPC   C4B 7150  36.440  31.802   7.879
  286POPC   NC3 7151   3.952  25.277   9.510
  286POPC   PO4 7152   4.423  24.845   9.689
  286POPC   GL1 7153   4.356  25.041   9.303
  286POPC   GL2 7154   4.597  24.890   9.164
  286POPC   C1A 7155   4.321  25.319   8.925
  286POPC   D2A 7156   4.077  25.460   8.570
  286POPC   C3A 7157   4.165  25.275   8.157
  286POPC   C4A 7158   4.282  25.204   7.710
  286POPC   C1B 7159   4.687  24.873   8.759
  286POPC   C2B 7160   4.451  24.941   8.423
  286POPC   C3B 7161   4.531  24.699   8.096
  286POPC   C4B 7162   4.610  24.809   7.689
  287POPC   NC3 7163  42.561   8.001   9.502
  287POPC   PO4 7164  42.177   8.548   9.503
  287POPC   GL1 7165  42.405   8.380   9.202
  287POPC   GL2 7166  42.230   8.062   9.126
  287POPC   C1A 7167  42.534   8.378   8.818
  287POPC   D2A 7168  42.714   8.503   8.483
  287POPC   C3A 7169  42.576   8.296   8.153
  287POPC   C4A 7170  42.397   8.332   7.764
  287POPC   C1B 7171  42.452   7.861   8.805
  287POPC   C2B 7172  42.286   7.978   8.437
  287POPC   C3B 7173  42.370   7.838   7.999
  287POPC   C4B 7174  42.536   7.827   7.574
  288POPC   NC3 7175  15.150  25.345   9.602
  288POPC   PO4 7176  14.528  25.160   9.613
  288POPC   GL1 7177  14.816  25.251   9.215
  288POPC   GL2 7178  15.188  25.183   9.134
  288POPC   C1A 7179  14.850  25.448   8.785
  288POPC   D2A 7180  14.860  25.278   8.385
  288POPC   C3A 7181  15.023  25.453   8.022
  288POPC   C4A 7182  14.954  25.101   7.762
  288POPC   C1B 7183  15.340  25.393   8.783
  288POPC   C2B 7184  15.370  25.380   8.392
  288POPC   C3B 7185  15.678  25.394   8.140
  288POPC   C4B 7186  15.459  25.316   7.767
  289POPC   NC3 7187  31.953   2.163   9.446
  289POPC   PO4 7188  32.574   1.847   9.489
  289POPC   GL1 7189  32.327   1.940   9.149
  289POPC   GL2 7190  32.064   1.706   9.182
  289POPC   C1A 7191  32.234   2.105   8.747
  289POPC   D2A 7192  32.329   2.201   8.335
  289POPC   C3A 7193  32.005   2.317   8.076
  289POPC   C4A 7194  32.111   2.275   7.671
  289POPC   C1B 7195  32.193   1.592   8.765
  289POPC   C2B 7196  32.399   1.692   8.385
  289POPC   C3B 7197  32.258   1.812   7.960
  289POPC   C4B 7198  32.496   1.673   7.583
  290POPC   NC3 7199   3.928   3.017   9.550
  290POPC   PO4 7200   4.419   2.582   9.540
  290POPC   GL1 7201   4.336   2.877   9.246
  290POPC   GL2 7202   4.055   2.725   9.133
  290POPC   C1A 7203   4.476   2.932   8.836
  290POPC   D2A 7204   4.513   2.661   8.459
  290POPC   C3A 7205   4.557   2.910   8.062
  290POPC   C4A 7206   4.389   2.870   7.635
  290POPC   C1B 7207   3.979   2.818   8.728
  290POPC   C2B 7208   4.003   2.653   8.324
  290POPC   C3B 7209   4.039   2.894   7.971
  290POPC   C4B 7210   3.901   2.893   7.507
  291POPC   NC3 7211  22.130  36.025   9.786
  291POPC   PO4 7212  21.675  36.419   9.522
  291POPC   GL1 7213  21.897  36.181   9.158
  291POPC   GL2 7214  22.170  35.965   9.259
  291POPC   C1A 7215  21.961  36.219   8.714
  291POPC   D2A 7216  21.849  36.072   8.319
  291POPC   C3A 7217  22.038  35.927   7.962
  291POPC   C4A 7218  22.250  36.228   7.789
  291POPC   C1B 7219  22.293  35.834   8.826
  291POPC   C2B 7220  22.362  36.012   8.395
  291POPC   C3B 7221  22.554  35.846   8.014
  291POPC   C4B 7222  22.329  35.525   7.782
  292POPC   NC3 7223  32.755  29.500   9.587
  292POPC   PO4 7224  32.062  29.825   9.551
  292POPC   GL1 7225  32.206  29.803   9.176
  292POPC   GL2 7226  32.530  29.727   9.208
  292POPC   C1A 7227  32.207  29.959   8.778
  292POPC   D2A 7228  32.304  30.158   8.372
  292POPC   C3A 7229  32.158  29.944   8.016
  292POPC   C4A 7230  32.066  29.960   7.600
  292POPC   C1B 7231  32.476  29.501   8.855
  292POPC   C2B 7232  32.484  29.674   8.475
  292POPC   C3B 7233  32.439  29.530   8.127
  292POPC   C4B 7234  32.443  29.573   7.733
  293POPC   NC3 7235  19.601  20.917   9.515
  293POPC   PO4 7236  20.076  20.507   9.527
  293POPC   GL1 7237  19.991  20.766   9.202
  293POPC   GL2 7238  19.695  20.527   9.179
  293POPC   C1A 7239  20.040  20.644   8.788
  293POPC   D2A 7240  19.802  20.488   8.480
  293POPC   C3A 7241  20.031  20.508   8.127
  293POPC   C4A 7242  19.917  20.627   7.735
  293POPC   C1B 7243  19.551  20.817   8.878
  293POPC   C2B 7244  19.550  20.927   8.471
  293POPC   C3B 7245  19.546  20.758   8.048
  293POPC   C4B 7246  19.529  20.984   7.639
  294POPC   NC3 7247  30.341  44.920   9.446
  294POPC   PO4 7248  30.411  44.260   9.734
  294POPC   GL1 7249  30.623  44.486   9.322
  294POPC   GL2 7250  30.817  44.829   9.249
  294POPC   C1A 7251  30.729  44.501   8.848
  294POPC   D2A 7252  30.521  44.639   8.435
  294POPC   C3A 7253  30.615  44.428   8.043
  294POPC   C4A 7254  30.797  44.554   7.622
  294POPC   C1B 7255  30.597   0.014   8.843
  294POPC   C2B 7256  30.616   0.141   8.393
  294POPC   C3B 7257  30.794  44.925   8.055
  294POPC   C4B 7258  30.830   0.060   7.653
  295POPC   NC3 7259  16.531   8.253   9.436
  295POPC   PO4 7260  17.084   7.890   9.367
  295POPC   GL1 7261  16.958   8.283   9.159
  295POPC   GL2 7262  16.633   8.456   8.979
  295POPC   C1A 7263  17.070   8.314   8.779
  295POPC   D2A 7264  16.805   8.398   8.430
  295POPC   C3A 7265  16.975   8.288   8.066
  295POPC   C4A 7266  16.844   8.288   7.668
  295POPC   C1B 7267  16.652   8.036   8.743
  295POPC   C2B 7268  16.566   7.821   8.364
  295POPC   C3B 7269  16.491   8.045   7.980
  295POPC   C4B 7270  16.342   8.072   7.555
  296POPC   NC3 7271  15.115  14.654   9.489
  296POPC   PO4 7272  15.465  14.129   9.440
  296POPC   GL1 7273  15.214  14.264   9.096
  296POPC   GL2 7274  14.963  14.554   9.005
  296POPC   C1A 7275  15.322  14.328   8.681
  296POPC   D2A 7276  15.022  14.363   8.366
  296POPC   C3A 7277  15.069  14.065   8.055
  296POPC   C4A 7278  15.211  14.153   7.650
  296POPC   C1B 7279  15.145  14.804   8.657
  296POPC   C2B 7280  15.458  14.715   8.349
  296POPC   C3B 7281  15.455  14.440   8.016
  296POPC   C4B 7282  15.029  14.563   7.870
  297POPC   NC3 7283  37.215  19.479   9.417
  297POPC   PO4 7284  36.779  18.930   9.583
  297POPC   GL1 7285  36.816  18.936   9.140
  297POPC   GL2 7286  37.165  18.830   9.161
  297POPC   C1A 7287  36.974  19.074   8.726
  297POPC   D2A 7288  37.039  19.164   8.320
  297POPC   C3A 7289  36.668  19.173   8.074
  297POPC   C4A 7290  36.804  19.269   7.673
  297POPC   C1B 7291  37.119  18.597   8.782
  297POPC   C2B 7292  36.873  18.686   8.374
  297POPC   C3B 7293  36.992  18.806   7.928
  297POPC   C4B 7294  36.665  18.790   7.626
  298POPC   NC3 7295  36.288  12.262   9.574
  298POPC   PO4 7296  36.520  11.646   9.650
  298POPC   GL1 7297  36.243  11.841   9.233
  298POPC   GL2 7298  36.299  12.211   9.082
  298POPC   C1A 7299  36.135  11.876   8.759
  298POPC   D2A 7300  36.417  11.985   8.401
  298POPC   C3A 7301  36.316  11.912   7.970
  298POPC   C4A 7302  35.952  11.933   7.741
  298POPC   C1B 7303  35.873  12.319   8.890
  298POPC   C2B 7304  35.732  12.447   8.442
  298POPC   C3B 7305  35.768  12.338   7.989
  298POPC   C4B 7306  35.631  12.280   7.549
  299POPC   NC3 7307  15.297  44.926   9.441
  299POPC   PO4 7308  14.920  44.406   9.593
  299POPC   GL1 7309  14.877  44.480   9.158
  299POPC   GL2 7310  15.229  44.570   9.073
  299POPC   C1A 7311  14.864  44.602   8.731
  299POPC   D2A 7312  15.147  44.664   8.420
  299POPC   C3A 7313  14.998  44.865   8.070
  299POPC   C4A 7314  15.078  44.736   7.663
  299POPC   C1B 7315  15.479  44.845   8.777
  299POPC   C2B 7316  15.507   0.010   8.353
  299POPC   C3B 7317  15.501  44.728   8.006
  299POPC   C4B 7318  15.513  44.500   7.630
  300POPC   NC3 7319  30.443  40.293   9.443
  300POPC   PO4 7320  30.896  39.796   9.412
  300POPC   GL1 7321  30.813  40.112   9.142
  300POPC   GL2 7322  30.497  39.970   9.029
  300POPC   C1A 7323  30.958  40.311   8.788
  300POPC   D2A 7324  31.025  40.089   8.427
  300POPC   C3A 7325  30.786  40.076   8.067
  300POPC   C4A 7326  30.386  39.950   7.958
  300POPC   C1B 7327  30.816  39.755   8.761
  300POPC   C2B 7328  30.862  39.604   8.350
  300POPC   C3B 7329  30.734  39.577   7.929
  300POPC   C4B 7330  30.613  39.737   7.515
  301POPC   NC3 7331   4.490  44.341   9.412
  301POPC   PO4 7332   4.394  43.628   9.517
  301POPC   GL1 7333   4.433  43.889   9.170
  301POPC   GL2 7334   4.095  43.953   9.183
  301POPC   C1A 7335   4.371  44.032   8.749
  301POPC   D2A 7336   4.082  43.987   8.385
  301POPC   C3A 7337   4.368  43.910   8.050
  301POPC   C4A 7338   4.531  44.198   7.758
  301POPC   C1B 7339   4.114  43.593   8.855
  301POPC   C2B 7340   4.201  43.495   8.380
  301POPC   C3B 7341   4.121  43.507   7.895
  301POPC   C4B 7342   4.275  43.773   7.537
  302POPC   NC3 7343  31.113   1.407   9.369
  302POPC   PO4 7344  31.699   1.765   9.540
  302POPC   GL1 7345  31.551   1.575   9.152
  302POPC   GL2 7346  31.292   1.644   8.931
  302POPC   C1A 7347  31.696   1.405   8.771
  302POPC   D2A 7348  31.480   1.429   8.390
  302POPC   C3A 7349  31.572   1.141   8.086
  302POPC   C4A 7350  31.653   1.123   7.653
  302POPC   C1B 7351  31.164   1.258   8.747
  302POPC   C2B 7352  31.156   1.033   8.397
  302POPC   C3B 7353  31.082   1.283   8.056
  302POPC   C4B 7354  31.281   1.445   7.713
  303POPC   NC3 7355  30.665   7.626   9.607
  303POPC   PO4 7356  31.075   7.125   9.361
  303POPC   GL1 7357  30.888   7.340   9.092
  303POPC   GL2 7358  30.557   7.426   9.141
  303POPC   C1A 7359  30.752   7.293   8.708
  303POPC   D2A 7360  30.797   7.531   8.362
  303POPC   C3A 7361  30.762   7.337   7.996
  303POPC   C4A 7362  30.912   7.616   7.698
  303POPC   C1B 7363  30.481   7.718   8.798
  303POPC   C2B 7364  30.351   7.821   8.376
  303POPC   C3B 7365  30.490   7.776   7.947
  303POPC   C4B 7366  30.508   7.847   7.465
  304POPC   NC3 7367  27.763   1.631   9.546
  304POPC   PO4 7368  27.638   0.984   9.478
  304POPC   GL1 7369  27.662   1.096   9.080
  304POPC   GL2 7370  27.657   1.442   9.081
  304POPC   C1A 7371  27.459   0.884   8.748
  304POPC   D2A 7372  27.231   1.056   8.385
  304POPC   C3A 7373  27.428   1.190   7.994
  304POPC   C4A 7374  27.262   1.047   7.624
  304POPC   C1B 7375  27.533   1.371   8.666
  304POPC   C2B 7376  27.819   1.315   8.323
  304POPC   C3B 7377  27.887   1.452   7.907
  304POPC   C4B 7378  27.612   1.578   7.561
  305POPC   NC3 7379  32.558   3.301   9.688
  305POPC   PO4 7380  31.946   3.445   9.531
  305POPC   GL1 7381  32.251   3.503   9.219
  305POPC   GL2 7382  32.512   3.240   9.197
  305POPC   C1A 7383  32.183   3.422   8.795
  305POPC   D2A 7384  32.243   3.237   8.402
  305POPC   C3A 7385  32.041   3.445   8.084
  305POPC   C4A 7386  32.049   3.710   7.777
  305POPC   C1B 7387  32.685   3.331   8.827
  305POPC   C2B 7388  32.686   3.541   8.429
  305POPC   C3B 7389  32.577   3.417   8.020
  305POPC   C4B 7390  32.371   3.255   7.677
  306POPC   NC3 7391  25.898  23.394   9.523
  306POPC   PO4 7392  26.180  22.796   9.517
  306POPC   GL1 7393  26.113  22.782   9.093
  306POPC   GL2 7394  25.918  23.084   9.098
  306POPC   C1A 7395  26.091  22.892   8.655
  306POPC   D2A 7396  26.143  22.661   8.300
  306POPC   C3A 7397  26.235  22.870   7.925
  306POPC   C4A 7398  26.386  23.002   7.510
  306POPC   C1B 7399  25.735  23.266   8.711
  306POPC   C2B 7400  25.927  23.254   8.299
  306POPC   C3B 7401  26.166  23.363   7.963
  306POPC   C4B 7402  25.985  23.324   7.535
  307POPC   NC3 7403  34.918  38.329   9.539
  307POPC   PO4 7404  34.279  38.554   9.547
  307POPC   GL1 7405  34.602  38.539   9.197
  307POPC   GL2 7406  34.668  38.852   9.092
  307POPC   C1A 7407  34.858  38.359   8.847
  307POPC   D2A 7408  34.732  38.349   8.393
  307POPC   C3A 7409  35.016  38.311   8.076
  307POPC   C4A 7410  34.962  38.192   7.649
  307POPC   C1B 7411  34.648  38.806   8.656
  307POPC   C2B 7412  34.690  38.838   8.230
  307POPC   C3B 7413  34.660  38.600   7.880
  307POPC   C4B 7414  34.456  38.724   7.555
  308POPC   NC3 7415  38.144  33.210   9.521
  308POPC   PO4 7416  38.681  32.795   9.659
  308POPC   GL1 7417  38.438  32.802   9.278
  308POPC   GL2 7418  38.447  33.144   9.129
  308POPC   C1A 7419  38.543  32.747   8.848
  308POPC   D2A 7420  38.540  33.031   8.492
  308POPC   C3A 7421  38.485  32.897   8.063
  308POPC   C4A 7422  38.603  33.098   7.679
  308POPC   C1B 7423  38.107  33.055   8.839
  308POPC   C2B 7424  38.059  33.217   8.412
  308POPC   C3B 7425  37.988  33.123   7.972
  308POPC   C4B 7426  38.067  32.747   7.760
  309POPC   NC3 7427   4.940  34.475   9.553
  309POPC   PO4 7428   5.544  34.243   9.552
  309POPC   GL1 7429   5.266  34.350   9.177
  309POPC   GL2 7430   4.899  34.230   9.106
  309POPC   C1A 7431   5.219  34.462   8.733
  309POPC   D2A 7432   4.970  34.410   8.336
  309POPC   C3A 7433   5.260  34.407   7.987
  309POPC   C4A 7434   5.425  34.831   7.905
  309POPC   C1B 7435   4.649  34.384   8.780
  309POPC   C2B 7436   4.415  34.663   8.516
  309POPC   C3B 7437   4.613  34.897   8.191
  309POPC   C4B 7438   4.898  34.723   7.879
  310POPC   NC3 7439  18.719  25.725   9.469
  310POPC   PO4 7440  19.114  26.279   9.359
  310POPC   GL1 7441  19.091  25.919   9.135
  310POPC   GL2 7442  19.383  25.703   9.247
  310POPC   C1A 7443  18.928  25.960   8.714
  310POPC   D2A 7444  18.798  25.868   8.294
  310POPC   C3A 7445  19.061  26.113   8.018
  310POPC   C4A 7446  19.013  26.187   7.590
  310POPC   C1B 7447  19.374  25.665   8.798
  310POPC   C2B 7448  19.309  25.814   8.397
  310POPC   C3B 7449  19.240  25.630   8.017
  310POPC   C4B 7450  19.240  25.741   7.591
  311POPC   NC3 7451  31.234  39.465   9.400
  311POPC   PO4 7452  31.703  39.044   9.643
  311POPC   GL1 7453  31.634  39.144   9.183
  311POPC   GL2 7454  31.312  39.040   9.090
  311POPC   C1A 7455  31.683  38.985   8.713
  311POPC   D2A 7456  31.816  39.112   8.285
  311POPC   C3A 7457  31.651  39.417   8.025
  311POPC   C4A 7458  31.628  39.758   7.760
  311POPC   C1B 7459  31.337  39.342   8.758
  311POPC   C2B 7460  31.261  39.248   8.296
  311POPC   C3B 7461  31.178  39.341   7.835
  311POPC   C4B 7462  31.151  39.058   7.486
  312POPC   NC3 7463  20.444   4.710   9.248
  312POPC   PO4 7464  20.826   4.341   9.663
  312POPC   GL1 7465  20.763   4.302   9.199
  312POPC   GL2 7466  20.770   4.565   8.892
  312POPC   C1A 7467  20.584   4.082   8.870
  312POPC   D2A 7468  20.745   4.009   8.469
  312POPC   C3A 7469  20.569   4.266   8.185
  312POPC   C4A 7470  20.584   4.112   7.779
  312POPC   C1B 7471  20.358   4.479   8.642
  312POPC   C2B 7472  20.098   4.537   8.293
  312POPC   C3B 7473  20.344   4.644   7.912
  312POPC   C4B 7474  20.785   4.586   7.842
  313POPC   NC3 7475  14.652  39.837   9.436
  313POPC   PO4 7476  14.182  40.202   9.781
  313POPC   GL1 7477  14.203  40.134   9.298
  313POPC   GL2 7478  14.531  40.124   9.034
  313POPC   C1A 7479  14.064  40.240   8.870
  313POPC   D2A 7480  14.297  40.121   8.497
  313POPC   C3A 7481  14.204  40.285   8.111
  313POPC   C4A 7482  14.014  40.123   7.756
  313POPC   C1B 7483  14.882  39.831   8.859
  313POPC   C2B 7484  14.894  39.699   8.453
  313POPC   C3B 7485  14.663  39.987   8.152
  313POPC   C4B 7486  14.525  40.003   7.723
  314POPC   NC3 7487   6.079   5.039   9.546
  314POPC   PO4 7488   5.590   5.450   9.358
  314POPC   GL1 7489   5.917   5.342   9.091
  314POPC   GL2 7490   5.857   4.986   9.087
  314POPC   C1A 7491   5.933   5.314   8.642
  314POPC   D2A 7492   6.002   5.123   8.248
  314POPC   C3A 7493   5.731   5.206   7.902
  314POPC   C4A 7494   5.850   5.317   7.449
  314POPC   C1B 7495   6.098   4.843   8.750
  314POPC   C2B 7496   6.084   4.619   8.340
  314POPC   C3B 7497   6.327   4.673   7.969
  314POPC   C4B 7498   6.124   4.970   7.720
  315POPC   NC3 7499  30.305   8.452   9.731
  315POPC   PO4 7500  29.674   8.226   9.473
  315POPC   GL1 7501  29.861   8.066   9.112
  315POPC   GL2 7502  30.259   8.006   9.160
  315POPC   C1A 7503  29.665   8.059   8.689
  315POPC   D2A 7504  29.848   7.942   8.263
  315POPC   C3A 7505  29.627   8.124   7.884
  315POPC   C4A 7506  29.837   8.289   7.493
  315POPC   C1B 7507  30.159   8.167   8.727
  315POPC   C2B 7508  29.955   8.427   8.408
  315POPC   C3B 7509  30.085   8.324   7.993
  315POPC   C4B 7510  30.330   8.316   7.641
  316POPC   NC3 7511  11.336   9.793   9.628
  316POPC   PO4 7512  10.657   9.787   9.666
  316POPC   GL1 7513  10.942   9.784   9.306
  316POPC   GL2 7514  11.022  10.095   9.204
  316POPC   C1A 7515  11.290   9.741   8.956
  316POPC   D2A 7516  11.425   9.815   8.518
  316POPC   C3A 7517  11.326   9.580   8.152
  316POPC   C4A 7518  11.063   9.621   7.783
  316POPC   C1B 7519  10.796   9.974   8.849
  316POPC   C2B 7520  10.886   9.841   8.445
  316POPC   C3B 7521  11.080  10.023   8.120
  316POPC   C4B 7522  11.161  10.126   7.718
  317POPC   NC3 7523   2.399  32.459   9.566
  317POPC   PO4 7524   1.904  32.015   9.606
  317POPC   GL1 7525   2.062  31.865   9.223
  317POPC   GL2 7526   2.282  32.118   9.220
  317POPC   C1A 7527   1.882  32.070   8.857
  317POPC   D2A 7528   1.626  32.255   8.508
  317POPC   C3A 7529   1.794  32.118   8.117
  317POPC   C4A 7530   1.694  32.301   7.719
  317POPC   C1B 7531   2.319  32.408   8.870
  317POPC   C2B 7532   2.140  32.290   8.479
  317POPC   C3B 7533   2.229  32.371   8.069
  317POPC   C4B 7534   2.200  32.350   7.665
  318POPC   NC3 7535  37.422  13.333   9.343
  318POPC   PO4 7536  37.863  13.700   9.686
  318POPC   GL1 7537  37.822  13.575   9.169
  318POPC   GL2 7538  37.782  13.273   8.977
  318POPC   C1A 7539  37.899  13.696   8.708
  318POPC   D2A 7540  37.652  13.570   8.353
  318POPC   C3A 7541  37.454  13.855   8.066
  318POPC   C4A 7542  37.548  13.667   7.683
  318POPC   C1B 7543  38.182  13.260   8.786
  318POPC   C2B 7544  38.295  13.207   8.362
  318POPC   C3B 7545  38.016  13.381   8.001
  318POPC   C4B 7546  37.864  13.273   7.561
  319POPC   NC3 7547  40.487  25.661   9.471
  319POPC   PO4 7548  40.696  24.965   9.404
  319POPC   GL1 7549  40.829  25.137   9.041
  319POPC   GL2 7550  40.816  25.487   9.100
  319POPC   C1A 7551  40.619  25.178   8.661
  319POPC   D2A 7552  40.433  24.891   8.352
  319POPC   C3A 7553  40.577  25.169   8.061
  319POPC   C4A 7554  40.541  25.369   7.711
  319POPC   C1B 7555  41.060  25.484   8.748
  319POPC   C2B 7556  41.025  25.302   8.352
  319POPC   C3B 7557  41.161  25.454   7.997
  319POPC   C4B 7558  40.957  25.607   7.632
  320POPC   NC3 7559  18.586  22.111   9.478
  320POPC   PO4 7560  19.219  22.329   9.505
  320POPC   GL1 7561  19.051  22.258   9.125
  320POPC   GL2 7562  18.767  22.486   9.173
  320POPC   C1A 7563  19.190  22.022   8.731
  320POPC   D2A 7564  19.204  21.843   8.293
  320POPC   C3A 7565  19.021  22.105   7.958
  320POPC   C4A 7566  19.223  22.323   7.626
  320POPC   C1B 7567  18.668  22.277   8.797
  320POPC   C2B 7568  18.794  22.162   8.409
  320POPC   C3B 7569  18.583  22.333   8.077
  320POPC   C4B 7570  18.599  22.529   7.735
  321POPC   NC3 7571   9.949  31.221   9.482
  321POPC   PO4 7572   9.497  31.808   9.428
  321POPC   GL1 7573   9.636  31.590   9.097
  321POPC   GL2 7574  10.000  31.531   9.080
  321POPC   C1A 7575   9.720  31.733   8.678
  321POPC   D2A 7576   9.729  31.487   8.305
  321POPC   C3A 7577   9.940  31.551   7.925
  321POPC   C4A 7578   9.674  31.507   7.560
  321POPC   C1B 7579   9.813  31.232   8.750
  321POPC   C2B 7580   9.935  30.999   8.365
  321POPC   C3B 7581  10.178  31.089   7.988
  321POPC   C4B 7582  10.029  31.165   7.577
  322POPC   NC3 7583  16.279  44.743   9.483
  322POPC   PO4 7584  15.711   0.122   9.449
  322POPC   GL1 7585  15.894  44.847   9.131
  322POPC   GL2 7586  15.748  44.520   9.047
  322POPC   C1A 7587  16.066  44.777   8.723
  322POPC   D2A 7588  16.014  44.977   8.350
  322POPC   C3A 7589  16.184  44.853   8.027
  322POPC   C4A 7590  15.963  44.524   7.867
  322POPC   C1B 7591  15.706  44.397   8.624
  322POPC   C2B 7592  15.485  44.288   8.246
  322POPC   C3B 7593  15.654  44.089   7.866
  322POPC   C4B 7594  16.083  44.073   7.697
  323POPC   NC3 7595  26.596   4.809   9.527
  323POPC   PO4 7596  27.098   5.258   9.496
  323POPC   GL1 7597  26.952   4.960   9.181
  323POPC   GL2 7598  26.597   5.068   9.048
  323POPC   C1A 7599  26.965   4.920   8.742
  323POPC   D2A 7600  26.786   5.180   8.415
  323POPC   C3A 7601  26.952   5.047   8.057
  323POPC   C4A 7602  26.944   5.259   7.713
  323POPC   C1B 7603  26.472   4.830   8.605
  323POPC   C2B 7604  26.458   4.904   8.112
  323POPC   C3B 7605  26.661   4.837   7.689
  323POPC   C4B 7606  26.791   4.594   7.313
  324POPC   NC3 7607  17.841  42.005   9.384
  324POPC   PO4 7608  17.365  41.555   9.454
  324POPC   GL1 7609  17.699  41.457   9.157
  324POPC   GL2 7610  17.821  41.100   9.091
  324POPC   C1A 7611  17.512  41.470   8.759
  324POPC   D2A 7612  17.286  41.587   8.405
  324POPC   C3A 7613  17.451  41.846   8.089
  324POPC   C4A 7614  17.336  41.734   7.704
  324POPC   C1B 7615  17.926  41.189   8.678
  324POPC   C2B 7616  17.824  41.468   8.326
  324POPC   C3B 7617  17.594  41.369   7.964
  324POPC   C4B 7618  17.602  41.331   7.521
  325POPC   NC3 7619  11.201  25.087   9.700
  325POPC   PO4 7620  11.468  25.581   9.457
  325POPC   GL1 7621  11.130  25.330   9.205
  325POPC   GL2 7622  11.067  24.955   9.212
  325POPC   C1A 7623  11.015  25.191   8.771
  325POPC   D2A 7624  11.222  25.333   8.395
  325POPC   C3A 7625  11.135  25.328   7.956
  325POPC   C4A 7626  11.522  25.290   7.725
  325POPC   C1B 7627  11.445  24.948   8.960
  325POPC   C2B 7628  11.569  24.820   8.531
  325POPC   C3B 7629  11.618  24.833   8.069
  325POPC   C4B 7630  11.474  24.798   7.639
  326POPC   NC3 7631   0.908  25.142   9.439
  326POPC   PO4 7632   1.540  25.315   9.707
  326POPC   GL1 7633   1.432  25.213   9.312
  326POPC   GL2 7634   1.201  25.473   9.170
  326POPC   C1A 7635   1.570  25.209   8.909
  326POPC   D2A 7636   1.414  25.363   8.537
  326POPC   C3A 7637   1.375  25.254   8.106
  326POPC   C4A 7638   1.443  25.440   7.681
  326POPC   C1B 7639   0.933  25.398   8.801
  326POPC   C2B 7640   0.899  25.203   8.407
  326POPC   C3B 7641   0.860  25.262   7.979
  326POPC   C4B 7642   1.027  25.150   7.597
  327POPC   NC3 7643  25.673  28.230   9.458
  327POPC   PO4 7644  25.098  28.529   9.462
  327POPC   GL1 7645  25.164  28.323   9.092
  327POPC   GL2 7646  24.822  28.301   9.013
  327POPC   C1A 7647  25.483  28.333   8.775
  327POPC   D2A 7648  25.688  28.560   8.446
  327POPC   C3A 7649  25.640  28.524   8.001
  327POPC   C4A 7650  25.463  28.825   7.714
  327POPC   C1B 7651  24.957  28.249   8.597
  327POPC   C2B 7652  25.281  28.246   8.293
  327POPC   C3B 7653  25.236  28.247   7.849
  327POPC   C4B 7654  24.954  28.116   7.534
  328POPC   NC3 7655  22.551  26.634   9.833
  328POPC   PO4 7656  22.884  27.035   9.422
  328POPC   GL1 7657  22.963  27.070   9.066
  328POPC   GL2 7658  23.243  27.280   9.045
  328POPC   C1A 7659  22.792  26.922   8.713
  328POPC   D2A 7660  22.882  26.642   8.425
  328POPC   C3A 7661  22.675  26.652   8.065
  328POPC   C4A 7662  22.909  26.584   7.693
  328POPC   C1B 7663  23.279  27.067   8.679
  328POPC   C2B 7664  23.065  27.150   8.327
  328POPC   C3B 7665  22.892  27.096   7.944
  328POPC   C4B 7666  23.071  27.046   7.565
  329POPC   NC3 7667  37.671   1.732   9.497
  329POPC   PO4 7668  37.265   2.230   9.633
  329POPC   GL1 7669  37.589   2.250   9.271
  329POPC   GL2 7670  37.617   1.932   9.047
  329POPC   C1A 7671  37.757   2.345   8.837
  329POPC   D2A 7672  37.649   2.067   8.482
  329POPC   C3A 7673  37.804   2.195   8.073
  329POPC   C4A 7674  37.754   2.092   7.658
  329POPC   C1B 7675  37.340   1.707   8.757
  329POPC   C2B 7676  37.497   1.494   8.379
  329POPC   C3B 7677  37.624   1.589   7.933
  329POPC   C4B 7678  37.550   1.650   7.479
  330POPC   NC3 7679  25.828   3.111   9.583
  330POPC   PO4 7680  26.211   3.718   9.530
  330POPC   GL1 7681  25.953   3.503   9.239
  330POPC   GL2 7682  26.106   3.175   9.134
  330POPC   C1A 7683  25.870   3.562   8.797
  330POPC   D2A 7684  26.136   3.505   8.429
  330POPC   C3A 7685  26.007   3.396   8.021
  330POPC   C4A 7686  26.006   3.548   7.580
  330POPC   C1B 7687  25.760   3.061   8.875
  330POPC   C2B 7688  25.675   3.233   8.438
  330POPC   C3B 7689  25.574   3.109   8.021
  330POPC   C4B 7690  25.793   3.106   7.658
  331POPC   NC3 7691   0.600  31.323   9.670
  331POPC   PO4 7692   0.349  31.845   9.434
  331POPC   GL1 7693   0.166  31.589   9.117
  331POPC   GL2 7694   0.477  31.572   9.025
  331POPC   C1A 7695   0.093  31.403   8.685
  331POPC   D2A 7696   0.152  31.244   8.250
  331POPC   C3A 7697   0.219  31.601   7.958
  331POPC   C4A 7698   0.131  31.629   7.497
  331POPC   C1B 7699   0.619  31.324   8.722
  331POPC   C2B 7700   0.598  31.467   8.341
  331POPC   C3B 7701   0.710  31.326   7.956
  331POPC   C4B 7702   0.616  31.542   7.585
  332POPC   NC3 7703  39.110   1.027   9.437
  332POPC   PO4 7704  38.826   1.573   9.432
  332POPC   GL1 7705  39.139   1.421   9.073
  332POPC   GL2 7706  39.359   1.119   9.014
  332POPC   C1A 7707  39.322   1.413   8.619
  332POPC   D2A 7708  39.182   1.349   8.181
  332POPC   C3A 7709  39.487   1.263   7.864
  332POPC   C4A 7710  39.398   0.963   7.528
  332POPC   C1B 7711  38.952   1.069   8.744
  332POPC   C2B 7712  38.841   0.927   8.315
  332POPC   C3B 7713  39.055   0.903   7.926
  332POPC   C4B 7714  38.897   0.891   7.517
  333POPC   NC3 7715  27.983  26.322   9.538
  333POPC   PO4 7716  28.460  25.863   9.547
  333POPC   GL1 7717  28.243  26.017   9.213
  333POPC   GL2 7718  27.941  25.808   9.267
  333POPC   C1A 7719  28.375  26.143   8.810
  333POPC   D2A 7720  28.531  26.211   8.402
  333POPC   C3A 7721  28.716  25.865   8.154
  333POPC   C4A 7722  28.719  25.905   7.685
  333POPC   C1B 7723  27.947  25.851   8.812
  333POPC   C2B 7724  28.202  25.809   8.421
  333POPC   C3B 7725  28.244  26.001   8.007
  333POPC   C4B 7726  28.206  25.896   7.568
  334POPC   NC3 7727  29.672  14.106   9.394
  334POPC   PO4 7728  29.994  14.760   9.473
  334POPC   GL1 7729  30.004  14.657   9.053
  334POPC   GL2 7730  29.703  14.458   9.039
  334POPC   C1A 7731  30.107  14.396   8.716
  334POPC   D2A 7732  30.027  14.205   8.320
  334POPC   C3A 7733  30.078  14.428   7.960
  334POPC   C4A 7734  30.160  14.247   7.559
  334POPC   C1B 7735  29.668  14.160   8.714
  334POPC   C2B 7736  29.480  14.050   8.343
  334POPC   C3B 7737  29.685  14.053   7.943
  334POPC   C4B 7738  29.665  14.370   7.621
  335POPC   NC3 7739  37.552   7.696   9.292
  335POPC   PO4 7740  37.946   8.187   9.630
  335POPC   GL1 7741  37.749   8.170   9.226
  335POPC   GL2 7742  37.958   7.947   9.069
  335POPC   C1A 7743  37.585   8.153   8.784
  335POPC   D2A 7744  37.430   7.938   8.442
  335POPC   C3A 7745  37.573   8.202   8.134
  335POPC   C4A 7746  37.408   8.449   7.787
  335POPC   C1B 7747  38.102   8.143   8.750
  335POPC   C2B 7748  38.022   8.301   8.372
  335POPC   C3B 7749  38.060   8.142   7.966
  335POPC   C4B 7750  37.853   8.273   7.622
  336POPC   NC3 7751  15.716  33.075   9.487
  336POPC   PO4 7752  16.328  32.710   9.470
  336POPC   GL1 7753  16.133  32.930   9.098
  336POPC   GL2 7754  15.766  32.871   9.038
  336POPC   C1A 7755  16.164  32.978   8.630
  336POPC   D2A 7756  16.112  32.752   8.192
  336POPC   C3A 7757  15.902  33.040   7.921
  336POPC   C4A 7758  16.142  33.403   7.937
  336POPC   C1B 7759  15.747  33.232   8.788
  336POPC   C2B 7760  15.679  33.231   8.356
  336POPC   C3B 7761  15.603  33.468   8.004
  336POPC   C4B 7762  15.768  33.509   7.614
  337POPC   NC3 7763  34.196  41.567   9.504
  337POPC   PO4 7764  34.772  41.787   9.090
  337POPC   GL1 7765  34.371  41.658   9.017
  337POPC   GL2 7766  34.414  41.319   9.079
  337POPC   C1A 7767  34.355  41.646   8.588
  337POPC   D2A 7768  34.659  41.882   8.359
  337POPC   C3A 7769  34.601  41.712   7.983
  337POPC   C4A 7770  34.305  41.375   7.927
  337POPC   C1B 7771  34.603  41.161   8.717
  337POPC   C2B 7772  34.639  41.295   8.309
  337POPC   C3B 7773  34.756  41.158   7.920
  337POPC   C4B 7774  35.076  41.377   7.743
  338POPC   NC3 7775   8.782  20.990   9.358
  338POPC   PO4 7776   9.038  21.587   9.601
  338POPC   GL1 7777   8.947  21.462   9.190
  338POPC   GL2 7778   9.161  21.234   9.091
  338POPC   C1A 7779   8.807  21.460   8.768
  338POPC   D2A 7780   8.664  21.619   8.391
  338POPC   C3A 7781   8.845  21.440   8.037
  338POPC   C4A 7782   8.845  21.568   7.643
  338POPC   C1B 7783   9.149  21.060   8.657
  338POPC   C2B 7784   9.283  21.046   8.217
  338POPC   C3B 7785   9.267  21.259   7.829
  338POPC   C4B 7786   9.217  21.321   7.390
  339POPC   NC3 7787   4.838  22.925   9.499
  339POPC   PO4 7788   4.217  23.228   9.412
  339POPC   GL1 7789   4.462  23.093   9.099
  339POPC   GL2 7790   4.372  22.772   8.913
  339POPC   C1A 7791   4.352  23.237   8.682
  339POPC   D2A 7792   4.352  23.008   8.302
  339POPC   C3A 7793   4.352  23.064   7.867
  339POPC   C4A 7794   4.314  22.761   7.554
  339POPC   C1B 7795   3.931  22.706   8.790
  339POPC   C2B 7796   3.763  22.571   8.433
  339POPC   C3B 7797   3.925  22.746   8.065
  339POPC   C4B 7798   3.814  22.799   7.679
  340POPC   NC3 7799  44.293   9.128   9.555
  340POPC   PO4 7800  44.861   9.297   9.546
  340POPC   GL1 7801  44.672   9.054   9.208
  340POPC   GL2 7802  44.416   9.309   9.111
  340POPC   C1A 7803  44.686   9.028   8.758
  340POPC   D2A 7804  44.492   8.827   8.410
  340POPC   C3A 7805  44.770   8.927   8.105
  340POPC   C4A 7806  44.859   9.236   7.807
  340POPC   C1B 7807  44.345   9.409   8.712
  340POPC   C2B 7808  44.502   9.340   8.312
  340POPC   C3B 7809  44.372   9.452   7.911
  340POPC   C4B 7810  44.088   9.461   7.573
  341POPC   NC3 7811  23.450   5.635   9.989
  341POPC   PO4 7812  23.784   5.076   9.660
  341POPC   GL1 7813  23.743   4.969   9.236
  341POPC   GL2 7814  23.493   4.747   9.127
  341POPC   C1A 7815  23.637   5.145   8.825
  341POPC   D2A 7816  23.744   5.027   8.427
  341POPC   C3A 7817  23.504   5.113   8.104
  341POPC   C4A 7818  23.473   5.246   7.676
  341POPC   C1B 7819  23.880   4.680   8.830
  341POPC   C2B 7820  24.101   4.679   8.439
  341POPC   C3B 7821  23.974   4.804   8.024
  341POPC   C4B 7822  23.646   4.785   7.718
  342POPC   NC3 7823  44.263  43.132   9.567
  342POPC   PO4 7824  43.655  42.944   9.496
  342POPC   GL1 7825  43.886  43.078   9.184
  342POPC   GL2 7826  44.011  43.383   9.166
  342POPC   C1A 7827  43.975  42.949   8.797
  342POPC   D2A 7828  43.956  43.165   8.425
  342POPC   C3A 7829  43.626  43.064   8.152
  342POPC   C4A 7830  43.842  43.063   7.794
  342POPC   C1B 7831  44.216  43.433   8.774
  342POPC   C2B 7832  44.353  43.497   8.342
  342POPC   C3B 7833  44.281  43.345   7.920
  342POPC   C4B 7834  44.152  43.331   7.487
  343POPC   NC3 7835  19.359  15.489   9.486
  343POPC   PO4 7836  18.878  14.895   9.626
  343POPC   GL1 7837  18.901  15.240   9.324
  343POPC   GL2 7838  19.168  15.131   9.160
  343POPC   C1A 7839  18.742  15.287   8.897
  343POPC   D2A 7840  18.903  15.037   8.537
  343POPC   C3A 7841  18.995  15.144   8.089
  343POPC   C4A 7842  18.900  15.318   7.682
  343POPC   C1B 7843  19.240  15.368   8.813
  343POPC   C2B 7844  19.352  15.349   8.407
  343POPC   C3B 7845  19.486  15.376   8.000
  343POPC   C4B 7846  19.349  15.597   7.654
  344POPC   NC3 7847  40.406   7.983   9.334
  344POPC   PO4 7848  40.938   8.196   9.622
  344POPC   GL1 7849  40.794   8.335   9.212
  344POPC   GL2 7850  40.892   8.039   9.084
  344POPC   C1A 7851  40.764   8.457   8.785
  344POPC   D2A 7852  40.616   8.372   8.376
  344POPC   C3A 7853  40.871   8.435   8.007
  344POPC   C4A 7854  40.547   8.417   7.719
  344POPC   C1B 7855  40.832   7.957   8.662
  344POPC   C2B 7856  40.970   7.865   8.298
  344POPC   C3B 7857  40.656   7.970   8.044
  344POPC   C4B 7858  40.417   7.927   7.675
  345POPC   NC3 7859  13.385   4.903   9.333
  345POPC   PO4 7860  13.891   5.261   9.594
  345POPC   GL1 7861  13.826   5.086   9.188
  345POPC   GL2 7862  13.605   5.345   9.062
  345POPC   C1A 7863  13.767   4.891   8.762
  345POPC   D2A 7864  13.810   5.051   8.364
  345POPC   C3A 7865  13.685   4.873   7.970
  345POPC   C4A 7866  13.821   5.059   7.553
  345POPC   C1B 7867  13.341   5.161   8.728
  345POPC   C2B 7868  13.298   5.029   8.284
  345POPC   C3B 7869  13.403   5.279   7.888
  345POPC   C4B 7870  13.412   5.351   7.430
  346POPC   NC3 7871  39.899  40.757   9.611
  346POPC   PO4 7872  40.242  41.227   9.510
  346POPC   GL1 7873  40.149  40.888   9.145
  346POPC   GL2 7874  39.872  40.609   9.133
  346POPC   C1A 7875  40.094  40.810   8.684
  346POPC   D2A 7876  39.942  40.853   8.245
  346POPC   C3A 7877  40.149  40.962   7.845
  346POPC   C4A 7878  39.931  41.261   7.525
  346POPC   C1B 7879  39.884  40.350   8.789
  346POPC   C2B 7880  40.042  40.371   8.365
  346POPC   C3B 7881  39.956  40.477   7.898
  346POPC   C4B 7882  39.854  40.724   7.523
  347POPC   NC3 7883  26.243  28.611   9.481
  347POPC   PO4 7884  26.072  27.987   9.533
  347POPC   GL1 7885  26.183  28.182   9.161
  347POPC   GL2 7886  25.935  28.443   9.081
  347POPC   C1A 7887  26.316  28.306   8.744
  347POPC   D2A 7888  26.017  28.158   8.415
  347POPC   C3A 7889  26.091  28.263   8.002
  347POPC   C4A 7890  26.406  28.314   7.702
  347POPC   C1B 7891  26.040  28.748   8.779
  347POPC   C2B 7892  26.184  28.660   8.365
  347POPC   C3B 7893  26.239  28.766   7.944
  347POPC   C4B 7894  25.956  28.679   7.593
  348POPC   NC3 7895  13.333  10.241   9.459
  348POPC   PO4 7896  14.020  10.224   9.469
  348POPC   GL1 7897  13.797  10.413   9.075
  348POPC   GL2 7898  13.427  10.378   8.995
  348POPC   C1A 7899  13.735  10.561   8.639
  348POPC   D2A 7900  13.522  10.356   8.308
  348POPC   C3A 7901  13.625  10.395   7.897
  348POPC   C4A 7902  13.914  10.481   7.581
  348POPC   C1B 7903  13.187  10.192   8.677
  348POPC   C2B 7904  13.032  10.269   8.263
  348POPC   C3B 7905  13.159  10.129   7.857
  348POPC   C4B 7906  13.143  10.123   7.371
  349POPC   NC3 7907  21.917  37.664   9.453
  349POPC   PO4 7908  22.590  37.696   9.542
  349POPC   GL1 7909  22.400  37.677   9.129
  349POPC   GL2 7910  22.069  37.809   8.988
  349POPC   C1A 7911  22.412  37.524   8.718
  349POPC   D2A 7912  22.177  37.517   8.325
  349POPC   C3A 7913  22.343  37.652   7.926
  349POPC   C4A 7914  22.360  37.433   7.510
  349POPC   C1B 7915  21.896  37.400   8.760
  349POPC   C2B 7916  21.705  37.299   8.364
  349POPC   C3B 7917  21.717  37.674   8.111
  349POPC   C4B 7918  21.870  37.757   7.727
  350POPC   NC3 7919  35.766  32.499   9.527
  350POPC   PO4 7920  35.515  31.908   9.585
  350POPC   GL1 7921  35.266  32.034   9.243
  350POPC   GL2 7922  35.416  32.346   9.208
  350POPC   C1A 7923  35.091  32.248   8.852
  350POPC   D2A 7924  35.335  32.094   8.521
  350POPC   C3A 7925  35.252  32.166   8.110
  350POPC   C4A 7926  35.492  32.070   7.746
  350POPC   C1B 7927  35.538  32.516   8.820
  350POPC   C2B 7928  35.414  32.563   8.381
  350POPC   C3B 7929  35.684  32.477   8.027
  350POPC   C4B 7930  35.670  32.565   7.600
  351POPC   NC3 7931  27.733  10.246   9.643
  351POPC   PO4 7932  27.797  10.833   9.423
  351POPC   GL1 7933  27.530  10.601   9.148
  351POPC   GL2 7934  27.480  10.247   9.200
  351POPC   C1A 7935  27.327  10.541   8.736
  351POPC   D2A 7936  27.218  10.929   8.497
  351POPC   C3A 7937  27.194  10.940   8.068
  351POPC   C4A 7938  27.565  10.901   7.887
  351POPC   C1B 7939  27.410   9.989   8.838
  351POPC   C2B 7940  27.521  10.127   8.446
  351POPC   C3B 7941  27.485  10.472   8.195
  351POPC   C4B 7942  27.338  10.487   7.777
  352POPC   NC3 7943  39.766   4.593   9.211
  352POPC   PO4 7944  40.024   4.020   9.491
  352POPC   GL1 7945  39.984   4.119   9.099
  352POPC   GL2 7946  39.662   3.998   9.036
  352POPC   C1A 7947  40.164   4.182   8.731
  352POPC   D2A 7948  40.069   4.006   8.317
  352POPC   C3A 7949  40.216   4.280   7.967
  352POPC   C4A 7950  40.216   4.298   7.515
  352POPC   C1B 7951  39.677   4.262   8.667
  352POPC   C2B 7952  39.951   4.505   8.399
  352POPC   C3B 7953  39.900   4.705   8.057
  352POPC   C4B 7954  39.797   4.482   7.735
  353POPC   NC3 7955  22.402  18.230   9.597
  353POPC   PO4 7956  21.797  18.074   9.497
  353POPC   GL1 7957  21.987  17.985   9.115
  353POPC   GL2 7958  22.208  18.255   9.114
  353POPC   C1A 7959  21.982  18.131   8.678
  353POPC   D2A 7960  21.997  18.385   8.321
  353POPC   C3A 7961  21.865  18.054   8.107
  353POPC   C4A 7962  21.909  17.879   7.717
  353POPC   C1B 7963  22.464  18.299   8.735
  353POPC   C2B 7964  22.430  18.088   8.336
  353POPC   C3B 7965  22.316  18.218   7.900
  353POPC   C4B 7966  22.187  18.623   7.755
  354POPC   NC3 7967  13.483   7.575   9.623
  354POPC   PO4 7968  14.102   7.681   9.512
  354POPC   GL1 7969  13.786   7.499   9.184
  354POPC   GL2 7970  13.392   7.499   9.139
  354POPC   C1A 7971  13.747   7.557   8.728
  354POPC   D2A 7972  13.886   7.644   8.295
  354POPC   C3A 7973  13.623   7.528   7.942
  354POPC   C4A 7974  13.684   7.483   7.476
  354POPC   C1B 7975  13.348   7.247   8.776
  354POPC   C2B 7976  13.511   7.160   8.355
  354POPC   C3B 7977  13.295   7.147   7.969
  354POPC   C4B 7978  13.326   7.064   7.515
  355POPC   NC3 7979   8.197   9.887   9.604
  355POPC   PO4 7980   7.857   9.420   9.463
  355POPC   GL1 7981   7.898   9.841   9.180
  355POPC   GL2 7982   8.247   9.888   9.058
  355POPC   C1A 7983   7.879   9.991   8.706
  355POPC   D2A 7984   8.174   9.858   8.377
  355POPC   C3A 7985   8.175   9.985   7.950
  355POPC   C4A 7986   7.935   9.981   7.612
  355POPC   C1B 7987   8.078   9.529   8.782
  355POPC   C2B 7988   7.879   9.430   8.358
  355POPC   C3B 7989   8.080   9.478   7.926
  355POPC   C4B 7990   8.338   9.200   7.614
  356POPC   NC3 7991  10.133   0.135   9.244
  356POPC   PO4 7992  10.651   0.451   9.625
  356POPC   GL1 7993  10.554   0.559   9.195
  356POPC   GL2 7994  10.223   0.734   9.131
  356POPC   C1A 7995  10.812   0.586   8.788
  356POPC   D2A 7996  10.684   0.567   8.357
  356POPC   C3A 7997  10.841   0.494   7.977
  356POPC   C4A 7998  10.683   0.279   7.680
  356POPC   C1B 7999  10.297   0.628   8.715
  356POPC   C2B 8000  10.261   0.841   8.327
  356POPC   C3B 8001  10.381   0.723   7.925
  356POPC   C4B 8002  10.171   0.410   7.743
  357POPC   NC3 8003  38.754  24.960   9.554
  357POPC   PO4 8004  39.381  25.312   9.538
  357POPC   GL1 8005  39.216  25.365   9.181
  357POPC   GL2 8006  39.178  25.042   9.090
  357POPC   C1A 8007  39.314  25.507   8.804
  357POPC   D2A 8008  39.306  25.262   8.481
  357POPC   C3A 8009  39.425  25.447   8.131
  357POPC   C4A 8010  39.391  25.083   7.896
  357POPC   C1B 8011  38.879  25.226   8.793
  357POPC   C2B 8012  38.821  25.455   8.378
  357POPC   C3B 8013  38.934  25.357   7.931
  357POPC   C4B 8014  38.823  25.565   7.550
  358POPC   NC3 8015  13.581  44.987   9.499
  358POPC   PO4 8016  14.030  44.395   9.464
  358POPC   GL1 8017  13.678  44.569   9.183
  358POPC   GL2 8018  13.332  44.409   9.165
  358POPC   C1A 8019  13.456  44.848   8.853
  358POPC   D2A 8020  13.542   0.047   8.471
  358POPC   C3A 8021  13.327  44.947   8.116
  358POPC   C4A 8022  13.595  44.692   7.875
  358POPC   C1B 8023  13.527  44.368   8.738
  358POPC   C2B 8024  13.396  44.500   8.347
  358POPC   C3B 8025  13.285  44.287   7.973
  358POPC   C4B 8026  13.403  44.332   7.526
  359POPC   NC3 8027  34.882  43.198   9.431
  359POPC   PO4 8028  34.272  43.030   9.715
  359POPC   GL1 8029  34.379  43.215   9.296
  359POPC   GL2 8030  34.585  42.947   9.091
  359POPC   C1A 8031  34.396  43.367   8.856
  359POPC   D2A 8032  34.534  43.159   8.468
  359POPC   C3A 8033  34.314  43.195   8.067
  359POPC   C4A 8034  34.565  43.350   7.714
  359POPC   C1B 8035  34.511  42.677   8.707
  359POPC   C2B 8036  34.366  42.687   8.268
  359POPC   C3B 8037  34.633  42.837   7.928
  359POPC   C4B 8038  34.771  42.727   7.518
  360POPC   NC3 8039   4.039  10.324   9.528
  360POPC   PO4 8040   4.042  10.987   9.672
  360POPC   GL1 8041   4.344  10.749   9.311
  360POPC   GL2 8042   4.447  10.416   9.229
  360POPC   C1A 8043   4.545  10.749   8.836
  360POPC   D2A 8044   4.482  10.818   8.337
  360POPC   C3A 8045   4.145  10.724   8.003
  360POPC   C4A 8046   4.065  10.638   7.530
  360POPC   C1B 8047   4.148  10.432   8.856
  360POPC   C2B 8048   4.189  10.359   8.390
  360POPC   C3B 8049   4.117  10.241   7.942
  360POPC   C4B 8050   4.418  10.303   7.565
  361POPC   NC3 8051   0.499  26.028   9.521
  361POPC   PO4 8052   0.073  26.446   9.275
  361POPC   GL1 8053   0.304  26.214   9.057
  361POPC   GL2 8054   0.650  26.227   9.098
  361POPC   C1A 8055   0.268  26.056   8.670
  361POPC   D2A 8056   0.097  25.869   8.300
  361POPC   C3A 8057   0.255  26.065   7.937
  361POPC   C4A 8058   0.160  26.038   7.495
  361POPC   C1B 8059   0.716  25.887   8.868
  361POPC   C2B 8060   0.790  26.094   8.529
  361POPC   C3B 8061   0.825  26.070   8.092
  361POPC   C4B 8062   0.675  26.111   7.657
  362POPC   NC3 8063  22.990  28.053   9.698
  362POPC   PO4 8064  22.803  28.713   9.684
  362POPC   GL1 8065  22.854  28.488   9.245
  362POPC   GL2 8066  22.911  28.109   9.203
  362POPC   C1A 8067  23.046  28.388   8.807
  362POPC   D2A 8068  22.715  28.419   8.484
  362POPC   C3A 8069  22.841  28.471   8.071
  362POPC   C4A 8070  22.665  28.806   7.895
  362POPC   C1B 8071  22.751  27.988   8.778
  362POPC   C2B 8072  22.986  28.019   8.341
  362POPC   C3B 8073  23.081  28.043   7.864
  362POPC   C4B 8074  23.116  28.198   7.392
  363POPC   NC3 8075  28.704  36.792   9.507
  363POPC   PO4 8076  28.136  37.251   9.630
  363POPC   GL1 8077  28.255  37.012   9.249
  363POPC   GL2 8078  28.573  37.005   9.075
  363POPC   C1A 8079  28.140  36.774   8.863
  363POPC   D2A 8080  28.360  36.748   8.461
  363POPC   C3A 8081  28.192  36.987   8.103
  363POPC   C4A 8082  28.121  36.767   7.736
  363POPC   C1B 8083  28.429  37.238   8.730
  363POPC   C2B 8084  28.600  37.203   8.322
  363POPC   C3B 8085  28.616  37.153   7.882
  363POPC   C4B 8086  28.598  36.926   7.555
  364POPC   NC3 8087   1.384  11.925   9.410
  364POPC   PO4 8088   0.706  12.120   9.470
  364POPC   GL1 8089   0.959  12.067   9.148
  364POPC   GL2 8090   1.194  12.354   9.235
  364POPC   C1A 8091   1.188  11.905   8.782
  364POPC   D2A 8092   1.171  11.697   8.407
  364POPC   C3A 8093   1.328  11.941   8.101
  364POPC   C4A 8094   1.458  11.913   7.719
  364POPC   C1B 8095   1.058  12.409   8.809
  364POPC   C2B 8096   1.078  12.278   8.414
  364POPC   C3B 8097   1.054  12.365   8.010
  364POPC   C4B 8098   0.946  12.064   7.730
  365POPC   NC3 8099  27.843  44.880   9.567
  365POPC   PO4 8100  27.489  44.315   9.446
  365POPC   GL1 8101  27.732  44.561   9.177
  365POPC   GL2 8102  27.942  44.276   9.109
  365POPC   C1A 8103  27.671  44.863   8.816
  365POPC   D2A 8104  27.492  44.734   8.389
  365POPC   C3A 8105  27.626  44.808   7.980
  365POPC   C4A 8106  27.717   0.206   7.808
  365POPC   C1B 8107  27.657  44.341   8.728
  365POPC   C2B 8108  27.274  44.283   8.490
  365POPC   C3B 8109  27.163  44.309   8.102
  365POPC   C4B 8110  27.543  44.318   7.822
  366POPC   NC3 8111  10.641  11.907   9.501
  366POPC   PO4 8112  10.546  12.513   9.885
  366POPC   GL1 8113  10.739  12.413   9.387
  366POPC   GL2 8114  10.992  12.134   9.203
  366POPC   C1A 8115  10.800  12.470   8.897
  366POPC   D2A 8116  10.897  12.242   8.511
  366POPC   C3A 8117  10.574  12.292   8.208
  366POPC   C4A 8118  10.452  12.133   7.803
  366POPC   C1B 8119  10.641  11.985   8.864
  366POPC   C2B 8120  10.320  11.966   8.537
  366POPC   C3B 8121  10.406  11.777   8.150
  366POPC   C4B 8122  10.346  11.567   7.779
  367POPC   NC3 8123  38.967   8.381   9.482
  367POPC   PO4 8124  38.847   7.715   9.481
  367POPC   GL1 8125  39.017   8.005   9.134
  367POPC   GL2 8126  39.342   8.200   9.165
  367POPC   C1A 8127  39.112   8.222   8.729
  367POPC   D2A 8128  38.914   8.225   8.359
  367POPC   C3A 8129  39.083   8.397   8.018
  367POPC   C4A 8130  39.187   8.237   7.644
  367POPC   C1B 8131  39.591   8.366   8.800
  367POPC   C2B 8132  39.475   8.423   8.374
  367POPC   C3B 8133  39.589   8.326   7.958
  367POPC   C4B 8134  39.580   8.582   7.615
  368POPC   NC3 8135  23.188  24.985   9.983
  368POPC   PO4 8136  22.802  24.668   9.478
  368POPC   GL1 8137  22.930  24.402   9.150
  368POPC   GL2 8138  23.166  24.594   9.024
  368POPC   C1A 8139  22.858  24.364   8.702
  368POPC   D2A 8140  23.001  24.533   8.349
  368POPC   C3A 8141  22.834  24.348   8.036
  368POPC   C4A 8142  22.925  24.044   7.774
  368POPC   C1B 8143  23.313  24.719   8.697
  368POPC   C2B 8144  23.244  24.989   8.374
  368POPC   C3B 8145  23.369  24.890   7.967
  368POPC   C4B 8146  23.155  24.623   7.689
  369POPC   NC3 8147   7.847  42.341   9.628
  369POPC   PO4 8148   8.428  42.040   9.452
  369POPC   GL1 8149   8.395  42.277   9.122
  369POPC   GL2 8150   8.170  42.459   9.174
  369POPC   C1A 8151   8.575  42.433   8.778
  369POPC   D2A 8152   8.429  42.446   8.353
  369POPC   C3A 8153   8.546  42.424   7.931
  369POPC   C4A 8154   8.376  42.172   7.560
  369POPC   C1B 8155   8.042  42.367   8.736
  369POPC   C2B 8156   7.949  42.588   8.365
  369POPC   C3B 8157   8.029  42.374   7.972
  369POPC   C4B 8158   7.718  42.305   7.690
  370POPC   NC3 8159  30.036  24.013   9.453
  370POPC   PO4 8160  29.776  24.660   9.357
  370POPC   GL1 8161  29.852  24.411   9.029
  370POPC   GL2 8162  30.171  24.348   9.078
  370POPC   C1A 8163  29.935  24.440   8.581
  370POPC   D2A 8164  30.044  24.713   8.236
  370POPC   C3A 8165  29.818  24.605   7.861
  370POPC   C4A 8166  29.508  24.613   7.511
  370POPC   C1B 8167  30.199  24.045   8.771
  370POPC   C2B 8168  30.083  23.971   8.365
  370POPC   C3B 8169  30.113  24.243   8.063
  370POPC   C4B 8170  30.240  24.295   7.691
  371POPC   NC3 8171  28.980  15.680   9.360
  371POPC   PO4 8172  29.420  16.194   9.514
  371POPC   GL1 8173  29.244  16.208   9.070
  371POPC   GL2 8174  29.144  15.864   8.904
  371POPC   C1A 8175  29.304  16.257   8.597
  371POPC   D2A 8176  29.136  15.972   8.272
  371POPC   C3A 8177  29.388  16.002   7.894
  371POPC   C4A 8178  29.324  15.850   7.512
  371POPC   C1B 8179  28.788  15.783   8.615
  371POPC   C2B 8180  28.672  15.733   8.179
  371POPC   C3B 8181  28.887  15.892   7.807
  371POPC   C4B 8182  28.852  15.854   7.330
  372POPC   NC3 8183  32.070   6.471   9.541
  372POPC   PO4 8184  32.731   6.762   9.579
  372POPC   GL1 8185  32.498   6.551   9.265
  372POPC   GL2 8186  32.218   6.774   9.139
  372POPC   C1A 8187  32.468   6.399   8.858
  372POPC   D2A 8188  32.364   6.698   8.542
  372POPC   C3A 8189  32.331   6.562   8.123
  372POPC   C4A 8190  32.336   6.889   7.819
  372POPC   C1B 8191  31.964   6.497   8.855
  372POPC   C2B 8192  31.852   6.611   8.460
  372POPC   C3B 8193  31.898   6.783   8.109
  372POPC   C4B 8194  31.864   6.715   7.714
  373POPC   NC3 8195   8.411  16.575   9.706
  373POPC   PO4 8196   8.221  17.052   9.235
  373POPC   GL1 8197   8.254  16.740   8.995
  373POPC   GL2 8198   8.464  16.547   9.184
  373POPC   C1A 8199   8.292  16.826   8.570
  373POPC   D2A 8200   7.991  16.745   8.257
  373POPC   C3A 8201   8.123  16.517   7.915
  373POPC   C4A 8202   8.275  16.770   7.604
  373POPC   C1B 8203   8.562  16.374   8.767
  373POPC   C2B 8204   8.391  16.384   8.337
  373POPC   C3B 8205   8.575  16.284   7.956
  373POPC   C4B 8206   8.468  16.218   7.517
  374POPC   NC3 8207   3.579  13.828   9.529
  374POPC   PO4 8208   3.776  13.195   9.462
  374POPC   GL1 8209   3.591  13.507   9.133
  374POPC   GL2 8210   3.766  13.862   9.056
  374POPC   C1A 8211   3.312  13.553   8.775
  374POPC   D2A 8212   3.247  13.379   8.345
  374POPC   C3A 8213   3.315  13.643   7.969
  374POPC   C4A 8214   3.473  13.541   7.557
  374POPC   C1B 8215   4.001  14.061   8.679
  374POPC   C2B 8216   4.037  13.834   8.250
  374POPC   C3B 8217   3.880  13.708   7.840
  374POPC   C4B 8218   3.976  13.568   7.420
  375POPC   NC3 8219  32.451  30.174   9.461
  375POPC   PO4 8220  32.278  30.798   9.463
  375POPC   GL1 8221  32.106  30.635   9.090
  375POPC   GL2 8222  31.989  30.295   9.129
  375POPC   C1A 8223  32.203  30.789   8.687
  375POPC   D2A 8224  32.431  30.676   8.330
  375POPC   C3A 8225  32.238  30.933   8.048
  375POPC   C4A 8226  32.289  30.971   7.633
  375POPC   C1B 8227  31.921  30.359   8.667
  375POPC   C2B 8228  31.930  30.544   8.236
  375POPC   C3B 8229  32.152  30.470   7.818
  375POPC   C4B 8230  31.990  30.404   7.372
  376POPC   NC3 8231  40.437  34.929   9.493
  376POPC   PO4 8232  41.000  34.599   9.708
  376POPC   GL1 8233  40.873  34.740   9.283
  376POPC   GL2 8234  40.577  34.533   9.206
  376POPC   C1A 8235  40.876  34.773   8.831
  376POPC   D2A 8236  40.816  34.571   8.440
  376POPC   C3A 8237  40.933  34.782   8.048
  376POPC   C4A 8238  41.001  34.581   7.653
  376POPC   C1B 8239  40.475  34.362   8.804
  376POPC   C2B 8240  40.315  34.368   8.389
  376POPC   C3B 8241  40.487  34.543   8.039
  376POPC   C4B 8242  40.497  34.371   7.682
  377POPC   NC3 8243   7.384   5.997   9.555
  377POPC   PO4 8244   7.506   5.405   9.723
  377POPC   GL1 8245   7.291   5.606   9.254
  377POPC   GL2 8246   7.281   5.971   9.053
  377POPC   C1A 8247   7.270   5.567   8.769
  377POPC   D2A 8248   7.192   5.668   8.316
  377POPC   C3A 8249   7.364   5.834   7.940
  377POPC   C4A 8250   7.253   6.238   7.752
  377POPC   C1B 8251   7.462   6.034   8.587
  377POPC   C2B 8252   7.590   6.219   8.157
  377POPC   C3B 8253   7.800   6.057   7.767
  377POPC   C4B 8254   8.073   6.157   7.394
  378POPC   NC3 8255  12.875  32.813   9.663
  378POPC   PO4 8256  12.786  32.162   9.706
  378POPC   GL1 8257  12.868  32.104   9.267
  378POPC   GL2 8258  13.014  32.448   9.257
  378POPC   C1A 8259  12.691  32.039   8.830
  378POPC   D2A 8260  12.860  32.068   8.394
  378POPC   C3A 8261  12.560  32.237   8.112
  378POPC   C4A 8262  12.548  32.643   7.918
  378POPC   C1B 8263  12.802  32.573   8.864
  378POPC   C2B 8264  12.775  32.607   8.419
  378POPC   C3B 8265  13.043  32.722   8.117
  378POPC   C4B 8266  13.118  32.562   7.741
  379POPC   NC3 8267  24.676  18.482   9.660
  379POPC   PO4 8268  24.059  18.588   9.513
  379POPC   GL1 8269  24.326  18.343   9.229
  379POPC   GL2 8270  24.631  18.519   9.151
  379POPC   C1A 8271  24.378  18.261   8.769
  379POPC   D2A 8272  24.257  18.100   8.366
  379POPC   C3A 8273  24.403  18.267   8.040
  379POPC   C4A 8274  24.694  18.173   7.787
  379POPC   C1B 8275  24.886  18.410   8.789
  379POPC   C2B 8276  24.736  18.465   8.400
  379POPC   C3B 8277  24.821  18.604   8.030
  379POPC   C4B 8278  25.147  18.506   7.772
  380POPC   NC3 8279  35.914  14.059   9.348
  380POPC   PO4 8280  36.283  13.582   9.751
  380POPC   GL1 8281  36.129  13.589   9.336
  380POPC   GL2 8282  36.363  13.864   9.256
  380POPC   C1A 8283  35.979  13.618   8.893
  380POPC   D2A 8284  35.986  13.852   8.496
  380POPC   C3A 8285  36.099  13.645   8.113
  380POPC   C4A 8286  35.945  13.681   7.713
  380POPC   C1B 8287  36.368  13.974   8.827
  380POPC   C2B 8288  36.611  13.993   8.457
  380POPC   C3B 8289  36.454  14.031   8.031
  380POPC   C4B 8290  36.489  14.051   7.577
  381POPC   NC3 8291   5.212   1.224   9.667
  381POPC   PO4 8292   5.674   1.513   9.366
  381POPC   GL1 8293   5.347   1.347   9.141
  381POPC   GL2 8294   5.009   1.420   9.223
  381POPC   C1A 8295   5.287   1.219   8.726
  381POPC   D2A 8296   5.367   0.928   8.402
  381POPC   C3A 8297   5.213   1.264   8.154
  381POPC   C4A 8298   5.208   1.345   7.733
  381POPC   C1B 8299   4.792   1.313   8.817
  381POPC   C2B 8300   4.638   1.208   8.407
  381POPC   C3B 8301   4.736   1.320   7.994
  381POPC   C4B 8302   4.800   1.055   7.623
  382POPC   NC3 8303  37.124   2.561   9.350
  382POPC   PO4 8304  36.718   3.065   9.349
  382POPC   GL1 8305  36.774   2.766   9.074
  382POPC   GL2 8306  37.070   2.911   8.993
  382POPC   C1A 8307  36.769   2.474   8.738
  382POPC   D2A 8308  36.572   2.625   8.378
  382POPC   C3A 8309  36.566   2.478   7.986
  382POPC   C4A 8310  36.532   2.690   7.606
  382POPC   C1B 8311  36.972   2.907   8.590
  382POPC   C2B 8312  37.077   2.623   8.292
  382POPC   C3B 8313  36.880   2.860   8.002
  382POPC   C4B 8314  37.023   2.830   7.611
  383POPC   NC3 8315  34.702  35.560   9.499
  383POPC   PO4 8316  34.231  35.113   9.392
  383POPC   GL1 8317  34.356  35.472   9.142
  383POPC   GL2 8318  34.685  35.275   9.067
  383POPC   C1A 8319  34.571  35.682   8.797
  383POPC   D2A 8320  34.690  35.484   8.433
  383POPC   C3A 8321  34.470  35.619   8.079
  383POPC   C4A 8322  34.558  35.788   7.681
  383POPC   C1B 8323  34.508  34.934   8.792
  383POPC   C2B 8324  34.595  34.789   8.372
  383POPC   C3B 8325  34.743  35.090   8.087
  383POPC   C4B 8326  34.598  35.257   7.743
  384POPC   NC3 8327  27.420  25.538   9.247
  384POPC   PO4 8328  27.462  26.193   9.534
  384POPC   GL1 8329  27.543  26.104   9.122
  384POPC   GL2 8330  27.839  26.309   9.034
  384POPC   C1A 8331  27.440  25.911   8.716
  384POPC   D2A 8332  27.690  25.936   8.351
  384POPC   C3A 8333  27.486  25.933   7.966
  384POPC   C4A 8334  27.801  26.170   7.801
  384POPC   C1B 8335  27.525  26.399   8.708
  384POPC   C2B 8336  27.280  26.263   8.325
  384POPC   C3B 8337  27.301  26.388   7.873
  384POPC   C4B 8338  27.372  26.202   7.461
  385POPC   NC3 8339   4.753  16.369   9.651
  385POPC   PO4 8340   5.156  16.883   9.653
  385POPC   GL1 8341   5.006  16.871   9.255
  385POPC   GL2 8342   4.901  16.537   9.193
  385POPC   C1A 8343   5.200  16.840   8.856
  385POPC   D2A 8344   5.164  16.579   8.511
  385POPC   C3A 8345   5.252  16.725   8.118
  385POPC   C4A 8346   5.176  16.486   7.755
  385POPC   C1B 8347   4.714  16.493   8.803
  385POPC   C2B 8348   4.775  16.227   8.451
  385POPC   C3B 8349   4.789  16.500   8.090
  385POPC   C4B 8350   4.676  16.507   7.649
  386POPC   NC3 8351  22.070   1.085   9.530
  386POPC   PO4 8352  22.268   1.619   9.178
  386POPC   GL1 8353  22.244   1.190   9.060
  386POPC   GL2 8354  21.858   1.103   9.069
  386POPC   C1A 8355  22.355   1.181   8.640
  386POPC   D2A 8356  22.148   1.517   8.373
  386POPC   C3A 8357  22.014   1.391   7.940
  386POPC   C4A 8358  22.277   1.168   7.614
  386POPC   C1B 8359  21.906   0.891   8.680
  386POPC   C2B 8360  22.074   0.987   8.265
  386POPC   C3B 8361  21.951   0.856   7.882
  386POPC   C4B 8362  21.585   0.851   7.694
  387POPC   NC3 8363  22.100  44.340   9.451
  387POPC   PO4 8364  22.360  43.730   9.493
  387POPC   GL1 8365  22.371  43.807   9.080
  387POPC   GL2 8366  22.028  43.902   9.025
  387POPC   C1A 8367  22.452  43.828   8.637
  387POPC   D2A 8368  22.352  43.629   8.252
  387POPC   C3A 8369  22.416  43.743   7.882
  387POPC   C4A 8370  22.091  43.777   7.593
  387POPC   C1B 8371  22.283  44.266   8.854
  387POPC   C2B 8372  22.435  44.322   8.476
  387POPC   C3B 8373  22.323  44.187   8.105
  387POPC   C4B 8374  22.381  44.193   7.683
  388POPC   NC3 8375  38.458  18.137   9.607
  388POPC   PO4 8376  39.024  18.531   9.514
  388POPC   GL1 8377  38.589  18.555   9.247
  388POPC   GL2 8378  38.460  18.203   9.123
  388POPC   C1A 8379  38.310  18.562   8.838
  388POPC   D2A 8380  38.231  18.305   8.439
  388POPC   C3A 8381  38.342  18.470   8.050
  388POPC   C4A 8382  38.182  18.568   7.686
  388POPC   C1B 8383  38.635  18.030   8.762
  388POPC   C2B 8384  38.524  17.836   8.405
  388POPC   C3B 8385  38.382  17.962   8.033
  388POPC   C4B 8386  38.679  17.972   7.701
  389POPC   NC3 8387  37.591  34.219   9.513
  389POPC   PO4 8388  37.837  33.574   9.575
  389POPC   GL1 8389  37.684  33.797   9.227
  389POPC   GL2 8390  37.926  34.060   9.173
  389POPC   C1A 8391  37.444  33.852   8.860
  389POPC   D2A 8392  37.244  33.961   8.471
  389POPC   C3A 8393  37.524  34.046   8.136
  389POPC   C4A 8394  37.466  33.987   7.714
  389POPC   C1B 8395  37.737  34.251   8.827
  389POPC   C2B 8396  37.881  34.323   8.391
  389POPC   C3B 8397  38.049  34.054   8.064
  389POPC   C4B 8398  37.981  33.899   7.675
  390POPC   NC3 8399  29.909  29.600   9.528
  390POPC   PO4 8400  29.997  28.887   9.510
  390POPC   GL1 8401  29.968  29.025   9.109
  390POPC   GL2 8402  29.802  29.316   9.123
  390POPC   C1A 8403  29.885  28.942   8.679
  390POPC   D2A 8404  29.702  28.866   8.266
  390POPC   C3A 8405  30.023  28.930   7.957
  390POPC   C4A 8406  30.012  29.116   7.551
  390POPC   C1B 8407  29.850  29.455   8.718
  390POPC   C2B 8408  29.716  29.495   8.308
  390POPC   C3B 8409  29.823  29.487   7.892
  390POPC   C4B 8410  29.522  29.589   7.570
  391POPC   NC3 8411  28.066  38.717   9.569
  391POPC   PO4 8412  27.507  38.305   9.675
  391POPC   GL1 8413  27.816  38.343   9.307
  391POPC   GL2 8414  27.716  38.664   9.145
  391POPC   C1A 8415  27.864  38.257   8.839
  391POPC   D2A 8416  27.628  38.385   8.436
  391POPC   C3A 8417  27.792  38.290   8.036
  391POPC   C4A 8418  27.664  38.300   7.611
  391POPC   C1B 8419  27.353  38.631   8.814
  391POPC   C2B 8420  27.231  38.785   8.377
  391POPC   C3B 8421  27.352  38.569   7.977
  391POPC   C4B 8422  27.378  38.703   7.525
  392POPC   NC3 8423   2.084  41.789   9.572
  392POPC   PO4 8424   2.231  41.119   9.411
  392POPC   GL1 8425   2.024  41.393   9.229
  392POPC   GL2 8426   2.280  41.581   9.142
  392POPC   C1A 8427   1.854  41.399   8.857
  392POPC   D2A 8428   1.941  41.357   8.445
  392POPC   C3A 8429   1.934  41.668   8.129
  392POPC   C4A 8430   1.781  41.693   7.734
  392POPC   C1B 8431   2.176  41.755   8.758
  392POPC   C2B 8432   2.356  41.671   8.399
  392POPC   C3B 8433   2.412  41.944   8.041
  392POPC   C4B 8434   2.268  41.824   7.666
  393POPC   NC3 8435  42.976  43.804   9.654
  393POPC   PO4 8436  42.341  43.858   9.404
  393POPC   GL1 8437  42.667  43.949   9.095
  393POPC   GL2 8438  42.746  43.662   8.859
  393POPC   C1A 8439  42.591  44.121   8.684
  393POPC   D2A 8440  42.316  44.027   8.346
  393POPC   C3A 8441  42.482  44.024   7.938
  393POPC   C4A 8442  42.491  44.227   7.557
  393POPC   C1B 8443  42.363  43.638   8.686
  393POPC   C2B 8444  42.310  43.502   8.262
  393POPC   C3B 8445  42.349  43.518   7.830
  393POPC   C4B 8446  42.499  43.250   7.455
  394POPC   NC3 8447  44.819  28.459   9.462
  394POPC   PO4 8448  44.507  27.924   9.764
  394POPC   GL1 8449  44.358  28.242   9.342
  394POPC   GL2 8450  44.415  28.585   9.187
  394POPC   C1A 8451  44.439  28.244   8.833
  394POPC   D2A 8452  44.676  28.067   8.474
  394POPC   C3A 8453  44.590  28.265   8.094
  394POPC   C4A 8454  44.875  28.197   7.790
  394POPC   C1B 8455  44.660  28.706   8.783
  394POPC   C2B 8456  44.625  28.767   8.303
  394POPC   C3B 8457  44.648  28.709   7.804
  394POPC   C4B 8458  44.773  28.889   7.362
  395POPC   NC3 8459  30.508   1.706   9.785
  395POPC   PO4 8460  30.665   1.168   9.431
  395POPC   GL1 8461  30.799   1.116   9.076
  395POPC   GL2 8462  30.721   1.443   8.953
  395POPC   C1A 8463  30.718   0.940   8.697
  395POPC   D2A 8464  30.671   1.190   8.348
  395POPC   C3A 8465  30.679   0.976   7.976
  395POPC   C4A 8466  30.839   1.176   7.619
  395POPC   C1B 8467  30.448   1.682   8.636
  395POPC   C2B 8468  30.336   1.596   8.214
  395POPC   C3B 8469  30.609   1.579   7.846
  395POPC   C4B 8470  30.582   1.569   7.370
  396POPC   NC3 8471  23.745  14.829   9.551
  396POPC   PO4 8472  23.244  14.275   9.353
  396POPC   GL1 8473  23.697  14.334   9.139
  396POPC   GL2 8474  23.934  14.656   9.108
  396POPC   C1A 8475  23.801  14.386   8.677
  396POPC   D2A 8476  23.661  14.631   8.294
  396POPC   C3A 8477  23.546  14.453   7.887
  396POPC   C4A 8478  23.391  14.639   7.480
  396POPC   C1B 8479  24.206  14.701   8.729
  396POPC   C2B 8480  24.257  14.491   8.329
  396POPC   C3B 8481  24.065  14.543   7.946
  396POPC   C4B 8482  23.887  14.636   7.536
  397POPC   NC3 8483  34.795  29.030   9.556
  397POPC   PO4 8484  34.138  29.078   9.479
  397POPC   GL1 8485  34.458  29.137   9.148
  397POPC   GL2 8486  34.792  29.360   9.174
  397POPC   C1A 8487  34.379  29.071   8.703
  397POPC   D2A 8488  34.514  28.891   8.317
  397POPC   C3A 8489  34.334  28.956   7.901
  397POPC   C4A 8490  34.465  29.049   7.486
  397POPC   C1B 8491  34.881  29.149   8.788
  397POPC   C2B 8492  34.890  29.318   8.382
  397POPC   C3B 8493  34.780  29.187   7.976
  397POPC   C4B 8494  34.656  29.481   7.657
  398POPC   NC3 8495  33.837  21.061   9.682
  398POPC   PO4 8496  34.220  21.562   9.467
  398POPC   GL1 8497  33.920  21.376   9.187
  398POPC   GL2 8498  33.546  21.317   9.241
  398POPC   C1A 8499  33.945  21.271   8.756
  398POPC   D2A 8500  34.128  21.231   8.355
  398POPC   C3A 8501  33.897  21.294   8.014
  398POPC   C4A 8502  33.555  21.217   7.762
  398POPC   C1B 8503  33.492  21.515   8.815
  398POPC   C2B 8504  33.521  21.346   8.379
  398POPC   C3B 8505  33.534  21.651   8.030
  398POPC   C4B 8506  33.607  21.726   7.565
  399POPC   NC3 8507   3.284   2.287   9.501
  399POPC   PO4 8508   3.776   1.820   9.465
  399POPC   GL1 8509   3.483   1.749   9.137
  399POPC   GL2 8510   3.434   2.080   9.090
  399POPC   C1A 8511   3.477   1.805   8.681
  399POPC   D2A 8512   3.899   1.807   8.508
  399POPC   C3A 8513   3.825   1.736   8.093
  399POPC   C4A 8514   3.468   1.634   7.828
  399POPC   C1B 8515   3.153   2.236   8.777
  399POPC   C2B 8516   3.051   2.003   8.412
  399POPC   C3B 8517   3.311   2.056   8.053
  399POPC   C4B 8518   3.405   2.332   7.713
  400POPC   NC3 8519  38.681  36.272   9.585
  400POPC   PO4 8520  38.112  35.947   9.492
  400POPC   GL1 8521  38.376  36.091   9.197
  400POPC   GL2 8522  38.421  36.456   9.184
  400POPC   C1A 8523  38.318  36.126   8.779
  400POPC   D2A 8524  38.422  36.372   8.430
  400POPC   C3A 8525  38.446  36.096   8.110
  400POPC   C4A 8526  38.332  36.108   7.700
  400POPC   C1B 8527  38.727  36.493   8.851
  400POPC   C2B 8528  38.934  36.509   8.446
  400POPC   C3B 8529  38.882  36.325   8.029
  400POPC   C4B 8530  38.785  36.333   7.567
  401POPC   NC3 8531  26.106  44.094   9.217
  401POPC   PO4 8532  26.424  43.739   9.712
  401POPC   GL1 8533  26.350  43.552   9.240
  401POPC   GL2 8534  26.001  43.562   9.139
  401POPC   C1A 8535  26.354  43.669   8.733
  401POPC   D2A 8536  26.312  44.057   8.445
  401POPC   C3A 8537  26.255  43.916   8.022
  401POPC   C4A 8538  25.931  43.963   7.731
  401POPC   C1B 8539  25.748  43.715   8.755
  401POPC   C2B 8540  25.803  43.816   8.295
  401POPC   C3B 8541  25.618  43.587   7.929
  401POPC   C4B 8542  25.688  43.582   7.454
  402POPC   NC3 8543  15.841  26.593   9.581
  402POPC   PO4 8544  15.627  27.157   9.477
  402POPC   GL1 8545  15.951  26.916   9.142
  402POPC   GL2 8546  16.082  26.536   9.132
  402POPC   C1A 8547  16.099  26.937   8.671
  402POPC   D2A 8548  16.287  27.110   8.238
  402POPC   C3A 8549  16.069  27.028   7.860
  402POPC   C4A 8550  15.670  26.825   7.857
  402POPC   C1B 8551  15.823  26.536   8.788
  402POPC   C2B 8552  15.776  26.647   8.360
  402POPC   C3B 8553  16.061  26.536   8.037
  402POPC   C4B 8554  15.952  26.390   7.649
  403POPC   NC3 8555  18.236  21.537   9.455
  403POPC   PO4 8556  18.535  20.998   9.674
  403POPC   GL1 8557  18.360  21.065   9.234
  403POPC   GL2 8558  18.009  21.197   9.142
  403POPC   C1A 8559  18.383  21.357   8.842
  403POPC   D2A 8560  18.219  21.475   8.480
  403POPC   C3A 8561  18.406  21.348   8.134
  403POPC   C4A 8562  18.266  21.125   7.812
  403POPC   C1B 8563  17.905  21.624   8.881
  403POPC   C2B 8564  17.855  21.813   8.455
  403POPC   C3B 8565  17.960  21.625   8.033
  403POPC   C4B 8566  18.310  21.611   7.694
  404POPC   NC3 8567   7.179  25.694   9.489
  404POPC   PO4 8568   7.601  26.219   9.484
  404POPC   GL1 8569   7.535  25.995   9.107
  404POPC   GL2 8570   7.823  26.173   8.981
  404POPC   C1A 8571   7.278  26.010   8.690
  404POPC   D2A 8572   7.285  26.247   8.274
  404POPC   C3A 8573   7.122  26.050   7.881
  404POPC   C4A 8574   7.381  25.910   7.525
  404POPC   C1B 8575   7.767  25.842   8.668
  404POPC   C2B 8576   7.554  25.802   8.278
  404POPC   C3B 8577   7.643  26.080   7.928
  404POPC   C4B 8578   7.906  26.029   7.563
  405POPC   NC3 8579   8.652  17.849   9.465
  405POPC   PO4 8580   9.177  18.287   9.536
  405POPC   GL1 8581   9.202  18.360   9.139
  405POPC   GL2 8582   8.826  18.339   9.061
  405POPC   C1A 8583   9.190  18.096   8.792
  405POPC   D2A 8584   8.907  18.111   8.468
  405POPC   C3A 8585   9.110  18.095   8.069
  405POPC   C4A 8586   9.182  18.307   7.687
  405POPC   C1B 8587   8.968  18.572   8.686
  405POPC   C2B 8588   8.956  18.560   8.234
  405POPC   C3B 8589   8.720  18.363   7.861
  405POPC   C4B 8590   8.782  18.323   7.375
  406POPC   NC3 8591  13.710  32.814   9.459
  406POPC   PO4 8592  13.173  33.179   9.642
  406POPC   GL1 8593  13.479  33.228   9.239
  406POPC   GL2 8594  13.887  33.190   9.159
  406POPC   C1A 8595  13.549  33.310   8.784
  406POPC   D2A 8596  13.916  33.244   8.498
  406POPC   C3A 8597  13.838  33.118   8.075
  406POPC   C4A 8598  13.643  33.108   7.676
  406POPC   C1B 8599  13.814  32.846   8.818
  406POPC   C2B 8600  13.688  32.649   8.423
  406POPC   C3B 8601  13.554  32.676   8.010
  406POPC   C4B 8602  13.863  32.671   7.728
  407POPC   NC3 8603  33.024  38.687   9.502
  407POPC   PO4 8604  32.748  38.130   9.727
  407POPC   GL1 8605  33.004  38.192   9.275
  407POPC   GL2 8606  33.313  38.361   9.165
  407POPC   C1A 8607  32.991  38.186   8.809
  407POPC   D2A 8608  33.021  38.169   8.353
  407POPC   C3A 8609  32.696  38.428   8.169
  407POPC   C4A 8610  32.734  38.712   7.829
  407POPC   C1B 8611  33.315  38.649   8.798
  407POPC   C2B 8612  33.444  38.791   8.380
  407POPC   C3B 8613  33.267  38.641   7.978
  407POPC   C4B 8614  33.339  38.284   7.722
  408POPC   NC3 8615  12.231  12.216   9.618
  408POPC   PO4 8616  11.808  11.896   9.290
  408POPC   GL1 8617  12.042  12.208   9.110
  408POPC   GL2 8618  12.363  12.044   9.162
  408POPC   C1A 8619  12.053  12.178   8.671
  408POPC   D2A 8620  11.860  11.845   8.449
  408POPC   C3A 8621  11.746  11.965   8.033
  408POPC   C4A 8622  11.903  11.816   7.666
  408POPC   C1B 8623  12.536  12.139   8.773
  408POPC   C2B 8624  12.472  11.982   8.379
  408POPC   C3B 8625  12.285  12.011   7.986
  408POPC   C4B 8626  12.335  12.053   7.545
  409POPC   NC3 8627   6.074  15.924   9.580
  409POPC   PO4 8628   5.358  15.886   9.445
  409POPC   GL1 8629   5.739  16.026   9.185
  409POPC   GL2 8630   6.018  15.785   9.101
  409POPC   C1A 8631   5.798  16.073   8.738
  409POPC   D2A 8632   5.792  15.865   8.364
  409POPC   C3A 8633   5.804  16.076   7.992
  409POPC   C4A 8634   5.792  16.151   7.567
  409POPC   C1B 8635   6.282  15.924   8.769
  409POPC   C2B 8636   6.303  16.126   8.368
  409POPC   C3B 8637   6.318  15.997   7.936
  409POPC   C4B 8638   6.175  15.852   7.521
  410POPC   NC3 8639  41.240   4.024   9.406
  410POPC   PO4 8640  41.726   3.701   9.810
  410POPC   GL1 8641  41.594   3.662   9.347
  410POPC   GL2 8642  41.646   3.401   9.137
  410POPC   C1A 8643  41.453   3.760   8.868
  410POPC   D2A 8644  41.470   3.848   8.454
  410POPC   C3A 8645  41.615   3.616   8.105
  410POPC   C4A 8646  41.550   3.801   7.711
  410POPC   C1B 8647  41.417   3.248   8.789
  410POPC   C2B 8648  41.246   3.375   8.389
  410POPC   C3B 8649  41.294   3.191   8.004
  410POPC   C4B 8650  41.545   3.270   7.657
  411POPC   NC3 8651  21.486  37.737   9.795
  411POPC   PO4 8652  21.087  37.225   9.455
  411POPC   GL1 8653  21.177  37.533   9.104
  411POPC   GL2 8654  21.457  37.667   9.250
  411POPC   C1A 8655  21.277  37.393   8.661
  411POPC   D2A 8656  21.207  37.110   8.302
  411POPC   C3A 8657  21.328  37.386   7.972
  411POPC   C4A 8658  21.077  37.793   7.921
  411POPC   C1B 8659  21.564  37.772   8.810
  411POPC   C2B 8660  21.467  38.017   8.446
  411POPC   C3B 8661  21.707  38.264   8.171
  411POPC   C4B 8662  21.638  38.207   7.765
  412POPC   NC3 8663  13.548  36.715   9.470
  412POPC   PO4 8664  14.198  36.556   9.463
  412POPC   GL1 8665  13.871  36.704   9.081
  412POPC   GL2 8666  13.588  37.004   9.075
  412POPC   C1A 8667  13.573  36.685   8.687
  412POPC   D2A 8668  13.623  36.663   8.241
  412POPC   C3A 8669  13.421  36.849   7.910
  412POPC   C4A 8670  13.370  36.881   7.451
  412POPC   C1B 8671  13.812  37.141   8.755
  412POPC   C2B 8672  13.743  37.212   8.362
  412POPC   C3B 8673  13.933  37.046   8.045
  412POPC   C4B 8674  13.845  36.962   7.646
  413POPC   NC3 8675  31.193  44.175   9.340
  413POPC   PO4 8676  31.931  44.134   9.349
  413POPC   GL1 8677  31.623  43.891   9.125
  413POPC   GL2 8678  31.490  43.583   9.286
  413POPC   C1A 8679  31.475  43.973   8.703
  413POPC   D2A 8680  31.343  44.123   8.312
  413POPC   C3A 8681  31.409  43.857   7.951
  413POPC   C4A 8682  31.470  43.938   7.500
  413POPC   C1B 8683  31.288  43.532   8.856
  413POPC   C2B 8684  31.385  43.492   8.414
  413POPC   C3B 8685  31.084  43.471   8.090
  413POPC   C4B 8686  31.093  43.607   7.640
  414POPC   NC3 8687  12.619  34.980   9.410
  414POPC   PO4 8688  12.841  35.604   9.433
  414POPC   GL1 8689  13.076  35.513   9.071
  414POPC   GL2 8690  13.208  35.182   9.118
  414POPC   C1A 8691  12.981  35.485   8.628
  414POPC   D2A 8692  12.602  35.353   8.400
  414POPC   C3A 8693  12.634  35.521   7.989
  414POPC   C4A 8694  12.983  35.492   7.723
  414POPC   C1B 8695  12.879  35.027   8.831
  414POPC   C2B 8696  12.979  34.862   8.466
  414POPC   C3B 8697  12.950  35.085   8.117
  414POPC   C4B 8698  12.712  35.026   7.791
  415POPC   NC3 8699  16.860  36.634   9.372
  415POPC   PO4 8700  17.499  36.773   9.554
  415POPC   GL1 8701  17.539  36.672   9.117
  415POPC   GL2 8702  17.228  36.516   9.027
  415POPC   C1A 8703  17.518  36.998   8.771
  415POPC   D2A 8704  17.278  37.298   8.503
  415POPC   C3A 8705  17.260  37.163   8.075
  415POPC   C4A 8706  17.577  37.018   7.801
  415POPC   C1B 8707  17.472  36.507   8.629
  415POPC   C2B 8708  17.535  36.613   8.181
  415POPC   C3B 8709  17.199  36.671   7.891
  415POPC   C4B 8710  17.151  36.909   7.534
  416POPC   NC3 8711  16.625  34.257   9.694
  416POPC   PO4 8712  16.378  34.864   9.426
  416POPC   GL1 8713  16.700  34.563   9.257
  416POPC   GL2 8714  16.837  34.201   9.233
  416POPC   C1A 8715  16.891  34.583   8.854
  416POPC   D2A 8716  16.655  34.546   8.478
  416POPC   C3A 8717  16.869  34.670   8.106
  416POPC   C4A 8718  16.765  34.617   7.688
  416POPC   C1B 8719  16.571  34.177   8.871
  416POPC   C2B 8720  16.473  34.032   8.470
  416POPC   C3B 8721  16.582  34.216   8.081
  416POPC   C4B 8722  16.487  34.189   7.691
  417POPC   NC3 8723  30.688  32.044   9.656
  417POPC   PO4 8724  30.364  32.532   9.631
  417POPC   GL1 8725  30.717  32.421   9.277
  417POPC   GL2 8726  30.955  32.084   9.227
  417POPC   C1A 8727  30.859  32.376   8.825
  417POPC   D2A 8728  31.087  32.280   8.422
  417POPC   C3A 8729  30.809  32.484   8.113
  417POPC   C4A 8730  30.391  32.399   7.872
  417POPC   C1B 8731  31.104  31.898   8.815
  417POPC   C2B 8732  30.949  31.713   8.457
  417POPC   C3B 8733  30.728  31.967   8.194
  417POPC   C4B 8734  30.797  32.083   7.811
  418POPC   NC3 8735  41.070  22.522   9.615
  418POPC   PO4 8736  40.591  22.048   9.624
  418POPC   GL1 8737  40.778  22.173   9.248
  418POPC   GL2 8738  40.886  22.515   9.147
  418POPC   C1A 8739  40.560  22.243   8.866
  418POPC   D2A 8740  40.594  22.471   8.487
  418POPC   C3A 8741  40.473  22.152   8.192
  418POPC   C4A 8742  40.610  22.119   7.773
  418POPC   C1B 8743  41.057  22.310   8.781
  418POPC   C2B 8744  40.946  22.088   8.406
  418POPC   C3B 8745  40.921  22.370   8.074
  418POPC   C4B 8746  41.237  22.555   7.836
  419POPC   NC3 8747  39.981  26.449   9.504
  419POPC   PO4 8748  39.955  27.180   9.547
  419POPC   GL1 8749  39.978  26.878   9.207
  419POPC   GL2 8750  40.285  26.677   9.148
  419POPC   C1A 8751  40.018  26.928   8.773
  419POPC   D2A 8752  40.064  26.766   8.387
  419POPC   C3A 8753  40.168  26.990   8.047
  419POPC   C4A 8754  40.003  26.932   7.686
  419POPC   C1B 8755  40.329  26.488   8.746
  419POPC   C2B 8756  40.220  26.292   8.363
  419POPC   C3B 8757  40.305  26.505   7.965
  419POPC   C4B 8758  40.510  26.761   7.594
  420POPC   NC3 8759   2.908  14.052   9.466
  420POPC   PO4 8760   2.625  14.576   9.169
  420POPC   GL1 8761   3.068  14.372   9.076
  420POPC   GL2 8762   3.215  13.987   9.074
  420POPC   C1A 8763   3.221  14.625   8.733
  420POPC   D2A 8764   3.022  14.780   8.355
  420POPC   C3A 8765   2.923  14.525   7.958
  420POPC   C4A 8766   2.492  14.651   7.795
  420POPC   C1B 8767   2.880  13.974   8.761
  420POPC   C2B 8768   2.536  14.170   8.515
  420POPC   C3B 8769   2.540  14.185   8.063
  420POPC   C4B 8770   2.917  13.957   7.883
  421POPC   NC3 8771  36.307  20.931   9.335
  421POPC   PO4 8772  35.761  20.484   9.537
  421POPC   GL1 8773  35.971  20.536   9.119
  421POPC   GL2 8774  36.363  20.565   8.998
  421POPC   C1A 8775  35.975  20.369   8.690
  421POPC   D2A 8776  36.265  20.368   8.339
  421POPC   C3A 8777  35.987  20.347   7.994
  421POPC   C4A 8778  35.810  20.710   7.798
  421POPC   C1B 8779  36.116  20.869   8.722
  421POPC   C2B 8780  35.980  20.800   8.311
  421POPC   C3B 8781  36.292  20.761   7.989
  421POPC   C4B 8782  36.303  21.048   7.710
  422POPC   NC3 8783  20.445  33.351   9.443
  422POPC   PO4 8784  20.925  33.924   9.491
  422POPC   GL1 8785  20.688  33.794   9.155
  422POPC   GL2 8786  20.884  33.553   9.046
  422POPC   C1A 8787  20.759  33.898   8.695
  422POPC   D2A 8788  20.504  33.838   8.330
  422POPC   C3A 8789  20.663  33.768   7.908
  422POPC   C4A 8790  20.395  33.811   7.560
  422POPC   C1B 8791  20.448  33.483   8.795
  422POPC   C2B 8792  20.367  33.283   8.379
  422POPC   C3B 8793  20.259  33.444   7.951
  422POPC   C4B 8794  20.506  33.318   7.580
  423POPC   NC3 8795   3.910  28.847   9.605
  423POPC   PO4 8796   3.307  29.286   9.531
  423POPC   GL1 8797   3.390  28.950   9.212
  423POPC   GL2 8798   3.736  29.064   9.154
  423POPC   C1A 8799   3.221  28.776   8.799
  423POPC   D2A 8800   3.107  28.954   8.396
  423POPC   C3A 8801   3.312  28.928   8.039
  423POPC   C4A 8802   3.689  29.121   7.877
  423POPC   C1B 8803   3.496  29.225   8.763
  423POPC   C2B 8804   3.495  29.390   8.315
  423POPC   C3B 8805   3.304  29.552   7.931
  423POPC   C4B 8806   3.064  29.522   7.505
  424POPC   NC3 8807   3.937   9.524   9.374
  424POPC   PO4 8808   4.416   9.997   9.563
  424POPC   GL1 8809   4.414   9.915   9.139
  424POPC   GL2 8810   4.379   9.604   9.095
  424POPC   C1A 8811   4.190   9.932   8.721
  424POPC   D2A 8812   3.986   9.635   8.433
  424POPC   C3A 8813   3.999   9.751   8.005
  424POPC   C4A 8814   4.415   9.859   7.827
  424POPC   C1B 8815   4.483   9.514   8.653
  424POPC   C2B 8816   4.452   9.503   8.188
  424POPC   C3B 8817   4.245   9.359   7.787
  424POPC   C4B 8818   4.170   9.389   7.326
  425POPC   NC3 8819   2.727  11.149   9.912
  425POPC   PO4 8820   2.369  11.049   9.316
  425POPC   GL1 8821   2.567  11.323   8.972
  425POPC   GL2 8822   2.953  11.434   9.069
  425POPC   C1A 8823   2.488  11.310   8.550
  425POPC   D2A 8824   2.674  11.076   8.240
  425POPC   C3A 8825   2.493  10.883   7.879
  425POPC   C4A 8826   2.630  11.262   7.739
  425POPC   C1B 8827   2.954  11.641   8.739
  425POPC   C2B 8828   2.961  11.464   8.409
  425POPC   C3B 8829   2.779  11.590   8.083
  425POPC   C4B 8830   2.996  11.651   7.698
  426POPC   NC3 8831  41.834   8.870   9.438
  426POPC   PO4 8832  41.190   9.153   9.513
  426POPC   GL1 8833  41.449   9.063   9.160
  426POPC   GL2 8834  41.416   9.367   9.052
  426POPC   C1A 8835  41.707   8.908   8.795
  426POPC   D2A 8836  41.674   8.613   8.458
  426POPC   C3A 8837  41.812   8.737   8.038
  426POPC   C4A 8838  41.568   8.693   7.644
  426POPC   C1B 8839  41.325   9.226   8.662
  426POPC   C2B 8840  41.543   9.172   8.265
  426POPC   C3B 8841  41.577   9.149   7.828
  426POPC   C4B 8842  41.258   9.115   7.494
  427POPC   NC3 8843  32.445  44.063   9.442
  427POPC   PO4 8844  32.266  43.433   9.666
  427POPC   GL1 8845  32.425  43.575   9.268
  427POPC   GL2 8846  32.126  43.713   9.122
  427POPC   C1A 8847  32.544  43.731   8.840
  427POPC   D2A 8848  32.358  43.577   8.428
  427POPC   C3A 8849  32.309  43.841   8.102
  427POPC   C4A 8850  32.475  44.171   7.880
  427POPC   C1B 8851  31.982  43.817   8.703
  427POPC   C2B 8852  31.822  43.921   8.265
  427POPC   C3B 8853  31.918  43.942   7.771
  427POPC   C4B 8854  31.933  43.715   7.349
  428POPC   NC3 8855  32.021  22.816   9.597
  428POPC   PO4 8856  32.546  23.228   9.486
  428POPC   GL1 8857  32.366  22.956   9.236
  428POPC   GL2 8858  32.069  23.142   9.191
  428POPC   C1A 8859  32.445  22.729   8.905
  428POPC   D2A 8860  32.440  22.790   8.506
  428POPC   C3A 8861  32.272  22.643   8.145
  428POPC   C4A 8862  32.475  22.898   7.826
  428POPC   C1B 8863  31.946  22.860   8.868
  428POPC   C2B 8864  31.963  22.929   8.434
  428POPC   C3B 8865  32.002  23.058   7.992
  428POPC   C4B 8866  31.990  22.742   7.727
  429POPC   NC3 8867  43.463  11.909   9.478
  429POPC   PO4 8868  42.900  12.216   9.639
  429POPC   GL1 8869  42.975  11.954   9.277
  429POPC   GL2 8870  43.060  12.250   9.121
  429POPC   C1A 8871  43.189  11.813   8.871
  429POPC   D2A 8872  43.363  12.019   8.486
  429POPC   C3A 8873  43.189  11.886   8.092
  429POPC   C4A 8874  43.257  11.826   7.661
  429POPC   C1B 8875  42.764  12.204   8.792
  429POPC   C2B 8876  42.656  12.144   8.397
  429POPC   C3B 8877  42.695  12.280   8.002
  429POPC   C4B 8878  43.060  12.278   7.774
  430POPC   NC3 8879  21.067  43.727   9.415
  430POPC   PO4 8880  21.687  44.069   9.398
  430POPC   GL1 8881  21.493  43.797   9.100
  430POPC   GL2 8882  21.191  43.978   8.987
  430POPC   C1A 8883  21.667  43.747   8.693
  430POPC   D2A 8884  21.973  43.940   8.411
  430POPC   C3A 8885  21.807  44.048   7.982
  430POPC   C4A 8886  21.371  44.056   7.844
  430POPC   C1B 8887  21.177  43.748   8.609
  430POPC   C2B 8888  21.422  43.694   8.218
  430POPC   C3B 8889  21.157  43.512   7.892
  430POPC   C4B 8890  20.723  43.490   7.798
  431POPC   NC3 8891  36.887  35.940   9.550
  431POPC   PO4 8892  37.248  36.452   9.470
  431POPC   GL1 8893  37.070  36.218   9.141
  431POPC   GL2 8894  36.733  36.263   9.170
  431POPC   C1A 8895  37.154  35.991   8.741
  431POPC   D2A 8896  36.996  35.739   8.406
  431POPC   C3A 8897  37.133  35.780   7.963
  431POPC   C4A 8898  37.131  36.006   7.558
  431POPC   C1B 8899  36.671  36.008   8.845
  431POPC   C2B 8900  36.621  36.103   8.421
  431POPC   C3B 8901  36.632  35.887   8.057
  431POPC   C4B 8902  36.624  36.024   7.678
  432POPC   NC3 8903  44.462  15.231   9.635
  432POPC   PO4 8904   0.049  14.984   9.626
  432POPC   GL1 8905  44.854  15.192   9.254
  432POPC   GL2 8906  44.534  15.037   9.190
  432POPC   C1A 8907  44.699  15.334   8.826
  432POPC   D2A 8908  44.814  15.240   8.399
  432POPC   C3A 8909  44.672  15.428   8.039
  432POPC   C4A 8910  44.687  15.217   7.675
  432POPC   C1B 8911  44.375  14.797   8.890
  432POPC   C2B 8912  44.117  14.796   8.528
  432POPC   C3B 8913  44.227  15.042   8.170
  432POPC   C4B 8914  44.276  14.922   7.764
  433POPC   NC3 8915  24.777  36.000   9.504
  433POPC   PO4 8916  24.305  36.403   9.353
  433POPC   GL1 8917  24.489  36.100   9.089
  433POPC   GL2 8918  24.464  35.769   9.145
  433POPC   C1A 8919  24.728  36.102   8.733
  433POPC   D2A 8920  24.575  36.249   8.351
  433POPC   C3A 8921  24.523  36.424   7.947
  433POPC   C4A 8922  24.160  36.264   7.773
  433POPC   C1B 8923  24.557  35.615   8.784
  433POPC   C2B 8924  24.565  35.723   8.397
  433POPC   C3B 8925  24.496  35.866   7.995
  433POPC   C4B 8926  24.801  36.047   7.764
  434POPC   NC3 8927  40.707   0.904   9.539
  434POPC   PO4 8928  40.374   1.537   9.517
  434POPC   GL1 8929  40.473   1.255   9.197
  434POPC   GL2 8930  40.828   1.297   9.191
  434POPC   C1A 8931  40.630   1.088   8.790
  434POPC   D2A 8932  40.969   0.971   8.546
  434POPC   C3A 8933  40.903   0.957   8.123
  434POPC   C4A 8934  40.677   1.161   7.796
  434POPC   C1B 8935  41.075   1.403   8.804
  434POPC   C2B 8936  41.298   1.371   8.434
  434POPC   C3B 8937  41.191   1.363   8.025
  434POPC   C4B 8938  41.047   1.533   7.680
  435POPC   NC3 8939  25.625  44.945   9.377
  435POPC   PO4 8940  25.017  44.535   9.507
  435POPC   GL1 8941  25.038  44.462   9.102
  435POPC   GL2 8942  25.362  44.601   9.082
  435POPC   C1A 8943  25.030  44.651   8.686
  435POPC   D2A 8944  25.280  44.886   8.358
  435POPC   C3A 8945  25.331  44.776   7.955
  435POPC   C4A 8946  25.164  44.393   7.851
  435POPC   C1B 8947  25.580  44.568   8.712
  435POPC   C2B 8948  25.799  44.329   8.409
  435POPC   C3B 8949  25.697  44.367   7.999
  435POPC   C4B 8950  25.610  44.496   7.609
  436POPC   NC3 8951  24.604  34.318   9.763
  436POPC   PO4 8952  24.248  33.777   9.472
  436POPC   GL1 8953  24.586  33.802   9.179
  436POPC   GL2 8954  24.547  33.499   8.996
  436POPC   C1A 8955  24.711  33.934   8.741
  436POPC   D2A 8956  24.487  34.122   8.380
  436POPC   C3A 8957  24.615  33.855   8.039
  436POPC   C4A 8958  24.717  33.953   7.617
  436POPC   C1B 8959  24.232  33.730   8.801
  436POPC   C2B 8960  24.406  33.604   8.447
  436POPC   C3B 8961  24.330  33.395   8.103
  436POPC   C4B 8962  24.391  33.535   7.690
  437POPC   NC3 8963  13.141  43.443   9.600
  437POPC   PO4 8964  12.684  43.929   9.684
  437POPC   GL1 8965  12.760  43.741   9.291
  437POPC   GL2 8966  13.059  43.789   9.196
  437POPC   C1A 8967  12.678  43.800   8.845
  437POPC   D2A 8968  12.816  43.700   8.418
  437POPC   C3A 8969  12.569  43.696   8.064
  437POPC   C4A 8970  12.692  43.682   7.633
  437POPC   C1B 8971  13.191  43.629   8.779
  437POPC   C2B 8972  13.325  43.782   8.356
  437POPC   C3B 8973  13.069  43.839   7.968
  437POPC   C4B 8974  13.112  43.938   7.515
  438POPC   NC3 8975  11.402   3.113   9.574
  438POPC   PO4 8976  11.508   2.487   9.332
  438POPC   GL1 8977  11.303   2.834   9.153
  438POPC   GL2 8978  11.639   2.981   9.139
  438POPC   C1A 8979  11.147   3.065   8.782
  438POPC   D2A 8980  10.983   3.172   8.377
  438POPC   C3A 8981  11.220   3.081   7.983
  438POPC   C4A 8982  11.166   2.719   7.711
  438POPC   C1B 8983  11.578   2.785   8.732
  438POPC   C2B 8984  11.353   2.742   8.352
  438POPC   C3B 8985  11.522   2.528   8.007
  438POPC   C4B 8986  11.677   2.728   7.607
  439POPC   NC3 8987  44.188  17.566   9.555
  439POPC   PO4 8988  43.573  17.491   9.470
  439POPC   GL1 8989  43.811  17.674   9.154
  439POPC   GL2 8990  44.138  17.500   9.063
  439POPC   C1A 8991  43.809  17.600   8.706
  439POPC   D2A 8992  44.032  17.473   8.354
  439POPC   C3A 8993  43.795  17.574   8.039
  439POPC   C4A 8994  43.903  17.909   7.795
  439POPC   C1B 8995  44.109  17.154   8.740
  439POPC   C2B 8996  44.249  17.009   8.327
  439POPC   C3B 8997  44.173  17.163   7.918
  439POPC   C4B 8998  44.273  17.471   7.608
  440POPC   NC3 8999  35.470  18.114   9.650
  440POPC   PO4 9000  35.365  17.445   9.584
  440POPC   GL1 9001  35.287  17.534   9.170
  440POPC   GL2 9002  35.282  17.884   9.206
  440POPC   C1A 9003  35.484  17.566   8.779
  440POPC   D2A 9004  35.427  17.325   8.417
  440POPC   C3A 9005  35.555  17.539   8.070
  440POPC   C4A 9006  35.351  17.453   7.726
  440POPC   C1B 9007  35.136  17.934   8.798
  440POPC   C2B 9008  35.171  17.786   8.408
  440POPC   C3B 9009  35.131  17.822   8.001
  440POPC   C4B 9010  35.017  17.847   7.580
  441POPC   NC3 9011   7.582   9.098   9.622
  441POPC   PO4 9012   7.125   8.663   9.579
  441POPC   GL1 9013   6.917   8.766   9.195
  441POPC   GL2 9014   7.097   9.065   9.165
  441POPC   C1A 9015   7.059   8.779   8.749
  441POPC   D2A 9016   7.443   8.851   8.502
  441POPC   C3A 9017   7.454   8.827   8.037
  441POPC   C4A 9018   7.744   9.115   7.777
  441POPC   C1B 9019   7.202   9.284   8.836
  441POPC   C2B 9020   7.112   9.237   8.437
  441POPC   C3B 9021   7.367   9.327   8.098
  441POPC   C4B 9022   7.222   9.181   7.709
  442POPC   NC3 9023   8.745  25.700   9.447
  442POPC   PO4 9024   9.088  25.088   9.478
  442POPC   GL1 9025   9.043  25.376   9.173
  442POPC   GL2 9026   8.666  25.274   9.177
  442POPC   C1A 9027   9.274  25.307   8.791
  442POPC   D2A 9028   9.505  25.401   8.421
  442POPC   C3A 9029   9.334  25.196   8.087
  442POPC   C4A 9030   9.181  25.246   7.703
  442POPC   C1B 9031   8.746  25.346   8.760
  442POPC   C2B 9032   8.951  25.349   8.388
  442POPC   C3B 9033   8.807  25.387   8.009
  442POPC   C4B 9034   8.712  25.698   7.732
  443POPC   NC3 9035  23.056   4.911   9.422
  443POPC   PO4 9036  22.986   5.604   9.451
  443POPC   GL1 9037  23.087   5.333   9.107
  443POPC   GL2 9038  22.785   5.134   9.058
  443POPC   C1A 9039  23.131   5.115   8.678
  443POPC   D2A 9040  23.060   4.823   8.309
  443POPC   C3A 9041  23.117   4.907   7.850
  443POPC   C4A 9042  23.031   5.203   7.454
  443POPC   C1B 9043  22.610   4.952   8.677
  443POPC   C2B 9044  22.554   4.925   8.228
  443POPC   C3B 9045  22.672   5.140   7.868
  443POPC   C4B 9046  22.693   4.836   7.515
  444POPC   NC3 9047  21.200   1.788   9.605
  444POPC   PO4 9048  21.641   2.225   9.469
  444POPC   GL1 9049  21.476   2.151   9.071
  444POPC   GL2 9050  21.400   1.846   9.118
  444POPC   C1A 9051  21.314   2.059   8.637
  444POPC   D2A 9052  21.090   2.328   8.336
  444POPC   C3A 9053  21.097   2.122   7.964
  444POPC   C4A 9054  21.340   2.105   7.590
  444POPC   C1B 9055  21.108   1.621   8.826
  444POPC   C2B 9056  21.256   1.590   8.397
  444POPC   C3B 9057  21.342   1.685   7.963
  444POPC   C4B 9058  20.991   1.725   7.652
  445POPC   NC3 9059   8.565  19.302   9.268
  445POPC   PO4 9060   7.899  19.083   9.497
  445POPC   GL1 9061   8.103  18.961   9.114
  445POPC   GL2 9062   8.099  19.291   9.025
  445POPC   C1A 9063   7.887  18.942   8.701
  445POPC   D2A 9064   7.656  18.849   8.338
  445POPC   C3A 9065   7.887  18.907   7.965
  445POPC   C4A 9066   8.187  19.067   7.675
  445POPC   C1B 9067   8.304  19.199   8.627
  445POPC   C2B 9068   8.218  19.255   8.191
  445POPC   C3B 9069   8.304  19.526   7.846
  445POPC   C4B 9070   8.522  19.421   7.487
  446POPC   NC3 9071  18.379  23.986   9.493
  446POPC   PO4 9072  17.851  23.529   9.671
  446POPC   GL1 9073  17.997  23.766   9.234
  446POPC   GL2 9074  18.307  23.660   9.092
  446POPC   C1A 9075  17.975  23.864   8.778
  446POPC   D2A 9076  17.875  23.682   8.368
  446POPC   C3A 9077  18.048  23.817   7.977
  446POPC   C4A 9078  17.957  23.808   7.517
  446POPC   C1B 9079  18.493  23.950   8.826
  446POPC   C2B 9080  18.352  23.986   8.407
  446POPC   C3B 9081  18.544  23.838   8.022
  446POPC   C4B 9082  18.524  23.445   7.751
  447POPC   NC3 9083   8.593  21.798   9.315
  447POPC   PO4 9084   9.017  22.170   9.696
  447POPC   GL1 9085   9.049  22.033   9.276
  447POPC   GL2 9086   8.769  22.229   9.103
  447POPC   C1A 9087   9.066  21.893   8.841
  447POPC   D2A 9088   8.881  22.079   8.480
  447POPC   C3A 9089   9.026  21.915   8.091
  447POPC   C4A 9090   8.928  22.072   7.706
  447POPC   C1B 9091   9.141  22.400   8.876
  447POPC   C2B 9092   9.193  22.517   8.447
  447POPC   C3B 9093   9.055  22.442   8.046
  447POPC   C4B 9094   9.073  22.634   7.671
  448POPC   NC3 9095  14.140  38.979   9.380
  448POPC   PO4 9096  14.515  38.392   9.517
  448POPC   GL1 9097  14.600  38.489   9.131
  448POPC   GL2 9098  14.644  38.865   9.202
  448POPC   C1A 9099  14.654  38.241   8.767
  448POPC   D2A 9100  14.543  38.260   8.361
  448POPC   C3A 9101  14.354  38.243   7.989
  448POPC   C4A 9102  14.523  38.388   7.630
  448POPC   C1B 9103  14.914  38.775   8.866
  448POPC   C2B 9104  14.662  38.722   8.520
  448POPC   C3B 9105  14.640  38.678   8.066
  448POPC   C4B 9106  14.653  38.889   7.667
  449POPC   NC3 9107  26.466  21.347   9.506
  449POPC   PO4 9108  27.140  21.114   9.513
  449POPC   GL1 9109  26.856  21.296   9.181
  449POPC   GL2 9110  26.836  21.635   9.224
  449POPC   C1A 9111  26.596  21.319   8.787
  449POPC   D2A 9112  26.897  21.306   8.447
  449POPC   C3A 9113  26.938  21.516   8.076
  449POPC   C4A 9114  26.777  21.407   7.681
  449POPC   C1B 9115  26.942  21.703   8.800
  449POPC   C2B 9116  27.272  21.691   8.491
  449POPC   C3B 9117  27.368  21.786   8.054
  449POPC   C4B 9118  27.133  21.850   7.656
  450POPC   NC3 9119  41.797  28.319   9.631
  450POPC   PO4 9120  41.153  28.225   9.400
  450POPC   GL1 9121  41.539  28.446   9.209
  450POPC   GL2 9122  41.800  28.167   9.140
  450POPC   C1A 9123  41.706  28.603   8.815
  450POPC   D2A 9124  41.686  28.449   8.392
  450POPC   C3A 9125  41.538  28.672   8.034
  450POPC   C4A 9126  41.702  28.611   7.630
  450POPC   C1B 9127  42.022  28.166   8.742
  450POPC   C2B 9128  42.181  28.306   8.333
  450POPC   C3B 9129  41.911  28.253   7.967
  450POPC   C4B 9130  41.451  28.192   7.878
  451POPC   NC3 9131  15.828   8.428   9.619
  451POPC   PO4 9132  15.889   9.144   9.552
  451POPC   GL1 9133  15.873   8.960   9.155
  451POPC   GL2 9134  16.186   9.041   9.117
  451POPC   C1A 9135  16.015   8.730   8.754
  451POPC   D2A 9136  15.946   8.479   8.344
  451POPC   C3A 9137  15.871   8.781   8.013
  451POPC   C4A 9138  15.939   9.048   7.686
  451POPC   C1B 9139  16.098   9.265   8.760
  451POPC   C2B 9140  16.076   9.127   8.368
  451POPC   C3B 9141  16.168   9.374   8.035
  451POPC   C4B 9142  16.408   9.393   7.713
  452POPC   NC3 9143   3.771   3.855   9.253
  452POPC   PO4 9144   3.251   3.507   9.572
  452POPC   GL1 9145   3.357   3.517   9.147
  452POPC   GL2 9146   3.172   3.831   9.112
  452POPC   C1A 9147   3.617   3.412   8.761
  452POPC   D2A 9148   3.868   3.516   8.360
  452POPC   C3A 9149   3.582   3.479   8.019
  452POPC   C4A 9150   3.501   3.196   7.673
  452POPC   C1B 9151   3.378   3.928   8.712
  452POPC   C2B 9152   3.571   3.944   8.297
  452POPC   C3B 9153   3.447   3.961   7.870
  452POPC   C4B 9154   3.575   3.674   7.542
  453POPC   NC3 9155  32.551  35.019   9.672
  453POPC   PO4 9156  32.376  35.707   9.621
  453POPC   GL1 9157  32.390  35.331   9.285
  453POPC   GL2 9158  32.732  35.195   9.231
  453POPC   C1A 9159  32.149  35.425   8.862
  453POPC   D2A 9160  32.104  35.588   8.442
  453POPC   C3A 9161  31.868  35.320   8.144
  453POPC   C4A 9162  31.988  35.032   7.815
  453POPC   C1B 9163  32.529  35.098   8.843
  453POPC   C2B 9164  32.303  35.079   8.454
  453POPC   C3B 9165  32.374  35.295   8.070
  453POPC   C4B 9166  32.498  35.114   7.690
  454POPC   NC3 9167  14.739  30.220   9.477
  454POPC   PO4 9168  14.191  29.750   9.331
  454POPC   GL1 9169  14.168  30.026   9.027
  454POPC   GL2 9170  14.538  30.100   9.022
  454POPC   C1A 9171  14.296  29.835   8.673
  454POPC   D2A 9172  14.696  29.722   8.554
  454POPC   C3A 9173  14.668  29.715   8.123
  454POPC   C4A 9174  14.344  29.755   7.850
  454POPC   C1B 9175  14.346  30.338   8.671
  454POPC   C2B 9176  14.570  30.199   8.361
  454POPC   C3B 9177  14.908  30.219   8.127
  454POPC   C4B 9178  14.699  30.179   7.790
  455POPC   NC3 9179  44.468  14.424   9.484
  455POPC   PO4 9180   0.164  14.338   9.515
  455POPC   GL1 9181  44.878  14.276   9.219
  455POPC   GL2 9182  44.859  14.656   9.250
  455POPC   C1A 9183  44.702  14.362   8.840
  455POPC   D2A 9184  44.776  14.279   8.432
  455POPC   C3A 9185  44.420  14.406   8.240
  455POPC   C4A 9186  44.463  14.413   7.823
  455POPC   C1B 9187  44.919  14.829   8.859
  455POPC   C2B 9188  44.681  14.772   8.484
  455POPC   C3B 9189  44.711  14.836   8.045
  455POPC   C4B 9190  44.794  14.740   7.615
  456POPC   NC3 9191   7.627   4.121   9.688
  456POPC   PO4 9192   7.099   4.147   9.358
  456POPC   GL1 9193   7.349   4.227   9.073
  456POPC   GL2 9194   7.617   4.376   9.253
  456POPC   C1A 9195   7.441   4.095   8.663
  456POPC   D2A 9196   7.476   4.082   8.267
  456POPC   C3A 9197   7.424   4.446   8.101
  456POPC   C4A 9198   7.257   4.453   7.724
  456POPC   C1B 9199   7.834   4.302   8.884
  456POPC   C2B 9200   7.846   4.369   8.469
  456POPC   C3B 9201   7.968   4.499   8.073
  456POPC   C4B 9202   7.728   4.639   7.738
  457POPC   NC3 9203  37.035   4.762   9.777
  457POPC   PO4 9204  36.557   5.215   9.554
  457POPC   GL1 9205  36.911   5.226   9.233
  457POPC   GL2 9206  37.285   5.269   9.327
  457POPC   C1A 9207  36.928   5.031   8.802
  457POPC   D2A 9208  37.233   4.876   8.490
  457POPC   C3A 9209  37.013   5.008   8.082
  457POPC   C4A 9210  36.587   5.214   7.875
  457POPC   C1B 9211  37.361   5.270   8.859
  457POPC   C2B 9212  37.168   5.389   8.442
  457POPC   C3B 9213  37.299   5.465   8.014
  457POPC   C4B 9214  37.031   5.343   7.680
  458POPC   NC3 9215  30.353  41.033   9.495
  458POPC   PO4 9216  30.893  40.552   9.450
  458POPC   GL1 9217  30.631  40.610   9.081
  458POPC   GL2 9218  30.703  40.935   9.121
  458POPC   C1A 9219  30.635  40.660   8.610
  458POPC   D2A 9220  30.963  40.572   8.297
  458POPC   C3A 9221  30.869  40.547   7.875
  458POPC   C4A 9222  30.470  40.642   7.694
  458POPC   C1B 9223  30.514  41.133   8.774
  458POPC   C2B 9224  30.688  41.147   8.422
  458POPC   C3B 9225  30.622  40.943   8.078
  458POPC   C4B 9226  30.748  41.088   7.682
  459POPC   NC3 9227  22.914  30.789  10.089
  459POPC   PO4 9228  22.756  30.304   9.599
  459POPC   GL1 9229  22.827  30.695   9.257
  459POPC   GL2 9230  23.060  30.555   9.064
  459POPC   C1A 9231  22.916  30.986   8.827
  459POPC   D2A 9232  22.864  30.889   8.375
  459POPC   C3A 9233  23.062  30.788   7.977
  459POPC   C4A 9234  23.269  30.850   7.590
  459POPC   C1B 9235  23.011  30.510   8.682
  459POPC   C2B 9236  23.110  30.437   8.332
  459POPC   C3B 9237  22.800  30.347   8.118
  459POPC   C4B 9238  22.886  30.260   7.737
  460POPC   NC3 9239  14.505  43.287   9.415
  460POPC   PO4 9240  14.164  42.689   9.588
  460POPC   GL1 9241  14.366  42.856   9.193
  460POPC   GL2 9242  14.237  43.167   9.013
  460POPC   C1A 9243  14.525  42.845   8.766
  460POPC   D2A 9244  14.231  43.011   8.479
  460POPC   C3A 9245  14.397  42.967   8.097
  460POPC   C4A 9246  14.517  42.689   7.797
  460POPC   C1B 9247  14.464  43.407   8.709
  460POPC   C2B 9248  14.334  43.519   8.289
  460POPC   C3B 9249  14.297  43.414   7.913
  460POPC   C4B 9250  14.602  43.181   7.650
  461POPC   NC3 9251  16.490  35.852   9.605
  461POPC   PO4 9252  17.012  36.207   9.417
  461POPC   GL1 9253  16.729  36.003   9.173
  461POPC   GL2 9254  16.442  36.219   9.192
  461POPC   C1A 9255  16.700  35.794   8.794
  461POPC   D2A 9256  16.661  35.970   8.406
  461POPC   C3A 9257  16.936  35.818   8.111
  461POPC   C4A 9258  16.848  35.918   7.714
  461POPC   C1B 9259  16.673  36.346   8.796
  461POPC   C2B 9260  16.642  36.479   8.373
  461POPC   C3B 9261  16.773  36.377   7.952
  461POPC   C4B 9262  16.725  36.644   7.598
  462POPC   NC3 9263  25.161   3.858   9.678
  462POPC   PO4 9264  25.409   3.262   9.728
  462POPC   GL1 9265  25.437   3.322   9.275
  462POPC   GL2 9266  25.107   3.520   9.255
  462POPC   C1A 9267  25.371   3.420   8.821
  462POPC   D2A 9268  25.019   3.441   8.537
  462POPC   C3A 9269  25.201   3.420   8.126
  462POPC   C4A 9270  25.563   3.620   7.893
  462POPC   C1B 9271  25.154   3.864   8.936
  462POPC   C2B 9272  25.282   3.899   8.491
  462POPC   C3B 9273  25.111   3.920   8.073
  462POPC   C4B 9274  25.102   3.701   7.684
  463POPC   NC3 9275   7.647  28.439   9.643
  463POPC   PO4 9276   7.013  28.024   9.634
  463POPC   GL1 9277   7.330  28.211   9.302
  463POPC   GL2 9278   7.344  28.569   9.191
  463POPC   C1A 9279   7.341  28.228   8.844
  463POPC   D2A 9280   7.264  28.183   8.416
  463POPC   C3A 9281   7.489  28.154   8.082
  463POPC   C4A 9282   7.327  28.254   7.696
  463POPC   C1B 9283   7.518  28.721   8.815
  463POPC   C2B 9284   7.292  28.826   8.445
  463POPC   C3B 9285   7.189  28.599   8.091
  463POPC   C4B 9286   7.486  28.718   7.817
  464POPC   NC3 9287  38.777   0.264   9.492
  464POPC   PO4 9288  38.147   0.101   9.539
  464POPC   GL1 9289  38.378   0.314   9.174
  464POPC   GL2 9290  38.330   0.655   9.156
  464POPC   C1A 9291  38.639   0.486   8.788
  464POPC   D2A 9292  38.501   0.512   8.331
  464POPC   C3A 9293  38.729   0.220   8.006
  464POPC   C4A 9294  38.891   0.324   7.563
  464POPC   C1B 9295  38.138   0.528   8.742
  464POPC   C2B 9296  38.004   0.664   8.319
  464POPC   C3B 9297  38.111   0.511   7.894
  464POPC   C4B 9298  38.372   0.212   7.612
  465POPC   NC3 9299  17.005  26.809   9.478
  465POPC   PO4 9300  16.270  26.756   9.552
  465POPC   GL1 9301  16.561  26.709   9.216
  465POPC   GL2 9302  16.673  27.038   9.123
  465POPC   C1A 9303  16.676  26.643   8.777
  465POPC   D2A 9304  16.413  26.591   8.416
  465POPC   C3A 9305  16.589  26.510   7.991
  465POPC   C4A 9306  16.388  26.595   7.570
  465POPC   C1B 9307  16.572  27.108   8.661
  465POPC   C2B 9308  16.770  26.943   8.258
  465POPC   C3B 9309  16.624  26.998   7.823
  465POPC   C4B 9310  16.851  27.173   7.449
  466POPC   NC3 9311  41.940  33.296   9.568
  466POPC   PO4 9312  42.509  32.981   9.516
  466POPC   GL1 9313  42.340  32.828   9.143
  466POPC   GL2 9314  42.129  33.102   9.148
  466POPC   C1A 9315  42.439  32.999   8.750
  466POPC   D2A 9316  42.503  33.184   8.364
  466POPC   C3A 9317  42.456  33.000   7.968
  466POPC   C4A 9318  42.381  33.031   7.506
  466POPC   C1B 9319  42.045  33.340   8.815
  466POPC   C2B 9320  42.001  33.283   8.406
  466POPC   C3B 9321  42.113  33.378   8.000
  466POPC   C4B 9322  41.944  33.316   7.599
  467POPC   NC3 9323  22.618  13.236   9.533
  467POPC   PO4 9324  22.888  12.576   9.615
  467POPC   GL1 9325  23.048  12.892   9.263
  467POPC   GL2 9326  23.384  12.976   9.098
  467POPC   C1A 9327  22.975  13.009   8.793
  467POPC   D2A 9328  22.972  13.215   8.370
  467POPC   C3A 9329  23.156  12.956   8.034
  467POPC   C4A 9330  22.846  12.798   7.777
  467POPC   C1B 9331  23.476  12.700   8.758
  467POPC   C2B 9332  23.168  12.645   8.437
  467POPC   C3B 9333  23.074  12.426   8.047
  467POPC   C4B 9334  23.313  12.265   7.726
  468POPC   NC3 9335  23.479  13.870   9.460
  468POPC   PO4 9336  23.833  13.389   9.619
  468POPC   GL1 9337  23.882  13.607   9.233
  468POPC   GL2 9338  23.562  13.498   9.113
  468POPC   C1A 9339  23.977  13.615   8.783
  468POPC   D2A 9340  23.721  13.548   8.415
  468POPC   C3A 9341  23.928  13.657   8.047
  468POPC   C4A 9342  23.955  13.668   7.606
  468POPC   C1B 9343  23.527  13.878   8.785
  468POPC   C2B 9344  23.582  14.064   8.340
  468POPC   C3B 9345  23.524  13.933   7.911
  468POPC   C4B 9346  23.466  14.130   7.479
  469POPC   NC3 9347  33.880   3.569   9.494
  469POPC   PO4 9348  34.526   3.575   9.438
  469POPC   GL1 9349  34.611   3.569   9.049
  469POPC   GL2 9350  34.845   3.867   9.043
  469POPC   C1A 9351  34.427   3.357   8.683
  469POPC   D2A 9352  34.298   3.093   8.321
  469POPC   C3A 9353  34.301   3.337   7.951
  469POPC   C4A 9354  34.675   3.474   7.767
  469POPC   C1B 9355  34.853   3.688   8.628
  469POPC   C2B 9356  34.623   3.629   8.270
  469POPC   C3B 9357  34.661   3.942   7.963
  469POPC   C4B 9358  34.731   4.044   7.527
  470POPC   NC3 9359  37.615   3.741   9.481
  470POPC   PO4 9360  37.590   3.043   9.620
  470POPC   GL1 9361  37.711   3.246   9.205
  470POPC   GL2 9362  37.880   3.554   9.083
  470POPC   C1A 9363  37.669   3.247   8.750
  470POPC   D2A 9364  37.787   3.402   8.337
  470POPC   C3A 9365  37.663   3.385   7.865
  470POPC   C4A 9366  37.368   3.642   7.593
  470POPC   C1B 9367  37.873   3.757   8.706
  470POPC   C2B 9368  37.545   3.990   8.493
  470POPC   C3B 9369  37.623   3.842   8.104
  470POPC   C4B 9370  38.062   3.714   8.028
  471POPC   NC3 9371   2.260  43.422   9.582
  471POPC   PO4 9372   1.916  42.864   9.473
  471POPC   GL1 9373   1.951  42.944   9.054
  471POPC   GL2 9374   2.170  43.218   9.075
  471POPC   C1A 9375   2.087  42.876   8.631
  471POPC   D2A 9376   2.226  43.221   8.375
  471POPC   C3A 9377   2.245  43.116   7.983
  471POPC   C4A 9378   2.301  42.771   7.737
  471POPC   C1B 9379   1.869  43.357   8.749
  471POPC   C2B 9380   1.721  43.167   8.356
  471POPC   C3B 9381   1.772  43.313   7.922
  471POPC   C4B 9382   2.138  43.579   7.801
  472POPC   NC3 9383  41.198  16.202   9.635
  472POPC   PO4 9384  40.905  16.819   9.597
  472POPC   GL1 9385  40.829  16.681   9.203
  472POPC   GL2 9386  41.119  16.525   9.140
  472POPC   C1A 9387  40.648  16.833   8.824
  472POPC   D2A 9388  40.510  16.648   8.425
  472POPC   C3A 9389  40.735  16.806   8.065
  472POPC   C4A 9390  40.623  17.070   7.719
  472POPC   C1B 9391  40.998  16.467   8.705
  472POPC   C2B 9392  40.888  16.293   8.303
  472POPC   C3B 9393  40.842  16.327   7.871
  472POPC   C4B 9394  41.031  16.452   7.493
  473POPC   NC3 9395  27.125  28.996   9.246
  473POPC   PO4 9396  26.562  28.917   9.651
  473POPC   GL1 9397  26.485  28.970   9.203
  473POPC   GL2 9398  26.544  29.299   9.160
  473POPC   C1A 9399  26.544  28.834   8.764
  473POPC   D2A 9400  26.686  28.742   8.326
  473POPC   C3A 9401  26.707  29.054   8.000
  473POPC   C4A 9402  27.107  29.179   7.794
  473POPC   C1B 9403  26.688  29.342   8.737
  473POPC   C2B 9404  26.739  29.448   8.305
  473POPC   C3B 9405  26.771  29.548   7.870
  473POPC   C4B 9406  26.913  29.709   7.488
  474POPC   NC3 9407   5.111  39.659   9.482
  474POPC   PO4 9408   5.183  38.936   9.549
  474POPC   GL1 9409   5.267  39.229   9.181
  474POPC   GL2 9410   4.967  39.485   9.043
  474POPC   C1A 9411   5.302  39.251   8.726
  474POPC   D2A 9412   4.931  39.384   8.504
  474POPC   C3A 9413   4.991  39.423   8.083
  474POPC   C4A 9414   5.289  39.174   7.873
  474POPC   C1B 9415   4.817  39.092   8.942
  474POPC   C2B 9416   4.657  38.935   8.561
  474POPC   C3B 9417   4.611  39.067   8.125
  474POPC   C4B 9418   4.792  39.155   7.709
  475POPC   NC3 9419  20.964  26.326   9.485
  475POPC   PO4 9420  21.589  26.083   9.488
  475POPC   GL1 9421  21.411  26.010   9.097
  475POPC   GL2 9422  21.114  25.878   9.085
  475POPC   C1A 9423  21.630  25.948   8.707
  475POPC   D2A 9424  21.614  25.893   8.274
  475POPC   C3A 9425  21.340  26.131   8.015
  475POPC   C4A 9426  21.186  26.028   7.604
  475POPC   C1B 9427  21.202  25.679   8.688
  475POPC   C2B 9428  21.089  25.812   8.312
  475POPC   C3B 9429  21.193  25.631   7.926
  475POPC   C4B 9430  21.630  25.552   7.888
  476POPC   NC3 9431  22.571   5.359   9.499
  476POPC   PO4 9432  22.277   5.987   9.552
  476POPC   GL1 9433  22.161   5.868   9.154
  476POPC   GL2 9434  22.473   5.714   9.117
  476POPC   C1A 9435  22.012   6.031   8.744
  476POPC   D2A 9436  22.163   6.324   8.438
  476POPC   C3A 9437  22.289   6.163   8.069
  476POPC   C4A 9438  22.089   5.886   7.810
  476POPC   C1B 9439  22.489   5.913   8.698
  476POPC   C2B 9440  22.306   5.726   8.337
  476POPC   C3B 9441  22.518   5.657   7.937
  476POPC   C4B 9442  22.557   6.038   7.650
  477POPC   NC3 9443  25.877   5.507   9.487
  477POPC   PO4 9444  26.418   5.978   9.485
  477POPC   GL1 9445  26.077   5.909   9.226
  477POPC   GL2 9446  26.276   5.634   9.124
  477POPC   C1A 9447  25.929   5.847   8.807
  477POPC   D2A 9448  26.075   5.775   8.408
  477POPC   C3A 9449  25.749   5.753   8.122
  477POPC   C4A 9450  25.789   5.926   7.725
  477POPC   C1B 9451  26.421   5.985   8.819
  477POPC   C2B 9452  26.436   6.199   8.417
  477POPC   C3B 9453  26.364   6.040   8.005
  477POPC   C4B 9454  26.204   5.628   7.893
  478POPC   NC3 9455  19.470  38.615   9.421
  478POPC   PO4 9456  20.055  38.337   9.703
  478POPC   GL1 9457  20.036  38.443   9.236
  478POPC   GL2 9458  19.756  38.355   9.079
  478POPC   C1A 9459  20.157  38.335   8.797
  478POPC   D2A 9460  19.985  38.430   8.417
  478POPC   C3A 9461  20.142  38.202   8.070
  478POPC   C4A 9462  19.978  38.172   7.681
  478POPC   C1B 9463  19.704  38.078   8.733
  478POPC   C2B 9464  19.638  38.099   8.271
  478POPC   C3B 9465  19.666  38.449   7.998
  478POPC   C4B 9466  19.803  38.695   7.661
  479POPC   NC3 9467  20.920  37.656   9.519
  479POPC   PO4 9468  20.415  38.028   9.328
  479POPC   GL1 9469  20.488  37.644   9.113
  479POPC   GL2 9470  20.615  37.315   9.245
  479POPC   C1A 9471  20.533  37.750   8.687
  479POPC   D2A 9472  20.563  37.996   8.334
  479POPC   C3A 9473  20.497  37.759   7.993
  479POPC   C4A 9474  20.546  37.576   7.589
  479POPC   C1B 9475  20.810  37.352   8.821
  479POPC   C2B 9476  20.858  37.519   8.363
  479POPC   C3B 9477  20.831  37.346   7.944
  479POPC   C4B 9478  20.986  37.347   7.463
  480POPC   NC3 9479  28.752  12.609   9.266
  480POPC   PO4 9480  28.552  13.248   9.374
  480POPC   GL1 9481  28.352  12.905   9.123
  480POPC   GL2 9482  28.190  12.539   9.166
  480POPC   C1A 9483  28.418  12.729   8.709
  480POPC   D2A 9484  28.471  12.945   8.346
  480POPC   C3A 9485  28.275  12.810   7.973
  480POPC   C4A 9486  28.423  12.764   7.555
  480POPC   C1B 9487  28.044  12.364   8.741
  480POPC   C2B 9488  28.257  12.387   8.313
  480POPC   C3B 9489  28.640  12.454   8.077
  480POPC   C4B 9490  28.728  12.370   7.662
  481POPC   NC3 9491  25.695  16.554  10.013
  481POPC   PO4 9492  25.233  16.605   9.499
  481POPC   GL1 9493  25.309  16.718   9.062
  481POPC   GL2 9494  25.676  16.841   8.995
  481POPC   C1A 9495  25.075  16.945   8.736
  481POPC   D2A 9496  25.209  17.026   8.323
  481POPC   C3A 9497  24.953  17.026   7.943
  481POPC   C4A 9498  25.113  16.745   7.657
  481POPC   C1B 9499  25.529  16.703   8.595
  481POPC   C2B 9500  25.130  16.492   8.491
  481POPC   C3B 9501  25.035  16.396   8.061
  481POPC   C4B 9502  25.218  16.240   7.650
  482POPC   NC3 9503  24.301  23.253   9.431
  482POPC   PO4 9504  24.725  22.822   9.285
  482POPC   GL1 9505  24.728  23.025   8.940
  482POPC   GL2 9506  24.629  23.325   9.026
  482POPC   C1A 9507  24.738  23.007   8.508
  482POPC   D2A 9508  24.393  22.999   8.223
  482POPC   C3A 9509  24.476  22.846   7.831
  482POPC   C4A 9510  24.174  22.552   7.683
  482POPC   C1B 9511  24.380  23.392   8.682
  482POPC   C2B 9512  24.592  23.467   8.310
  482POPC   C3B 9513  24.753  23.283   7.943
  482POPC   C4B 9514  24.653  23.206   7.498
  483POPC   NC3 9515  29.763  11.403   9.448
  483POPC   PO4 9516  30.498  11.199   9.279
  483POPC   GL1 9517  30.122  11.337   9.100
  483POPC   GL2 9518  30.026  10.993   9.115
  483POPC   C1A 9519  29.726  11.270   8.807
  483POPC   D2A 9520  29.855  11.363   8.378
  483POPC   C3A 9521  29.659  11.216   8.007
  483POPC   C4A 9522  29.811  11.276   7.617
  483POPC   C1B 9523  30.165  11.064   8.688
  483POPC   C2B 9524  30.029  10.894   8.323
  483POPC   C3B 9525  30.151  11.112   7.965
  483POPC   C4B 9526  30.227  10.966   7.595
  484POPC   NC3 9527  24.673  29.561   9.446
  484POPC   PO4 9528  24.238  30.002   9.712
  484POPC   GL1 9529  24.419  29.979   9.288
  484POPC   GL2 9530  24.234  29.821   8.982
  484POPC   C1A 9531  24.703  30.024   8.944
  484POPC   D2A 9532  24.488  30.080   8.578
  484POPC   C3A 9533  24.572  30.044   8.145
  484POPC   C4A 9534  24.703  29.882   7.782
  484POPC   C1B 9535  24.468  29.571   8.687
  484POPC   C2B 9536  24.625  29.565   8.267
  484POPC   C3B 9537  24.260  29.676   7.982
  484POPC   C4B 9538  24.268  29.815   7.542
  485POPC   NC3 9539  29.228  10.910   9.461
  485POPC   PO4 9540  29.344  10.236   9.482
  485POPC   GL1 9541  29.179  10.495   9.156
  485POPC   GL2 9542  28.802  10.459   9.215
  485POPC   C1A 9543  29.304  10.424   8.727
  485POPC   D2A 9544  29.071  10.353   8.364
  485POPC   C3A 9545  29.232  10.438   7.965
  485POPC   C4A 9546  29.344  10.773   7.699
  485POPC   C1B 9547  28.824  10.587   8.779
  485POPC   C2B 9548  28.810  10.785   8.359
  485POPC   C3B 9549  28.829  10.756   7.887
  485POPC   C4B 9550  28.508  10.959   7.630
  486POPC   NC3 9551  34.098  22.011   9.512
  486POPC   PO4 9552  33.680  22.480   9.567
  486POPC   GL1 9553  33.735  22.234   9.209
  486POPC   GL2 9554  33.690  21.847   9.255
  486POPC   C1A 9555  33.826  22.382   8.814
  486POPC   D2A 9556  33.535  22.496   8.508
  486POPC   C3A 9557  33.517  22.130   8.242
  486POPC   C4A 9558  33.789  22.063   7.900
  486POPC   C1B 9559  33.873  21.848   8.860
  486POPC   C2B 9560  33.875  21.700   8.451
  486POPC   C3B 9561  34.187  21.706   8.156
  486POPC   C4B 9562  34.088  21.685   7.746
  487POPC   NC3 9563   4.711  35.279   9.651
  487POPC   PO4 9564   5.168  34.858   9.353
  487POPC   GL1 9565   5.266  35.262   9.166
  487POPC   GL2 9566   5.017  35.509   9.237
  487POPC   C1A 9567   5.292  35.267   8.718
  487POPC   D2A 9568   5.228  34.949   8.383
  487POPC   C3A 9569   5.069  35.177   8.050
  487POPC   C4A 9570   4.743  35.188   7.776
  487POPC   C1B 9571   5.038  35.733   8.847
  487POPC   C2B 9572   5.173  35.666   8.411
  487POPC   C3B 9573   4.998  35.734   8.017
  487POPC   C4B 9574   5.128  35.524   7.673
  488POPC   NC3 9575  11.631  17.395   9.708
  488POPC   PO4 9576  12.251  17.542   9.540
  488POPC   GL1 9577  11.902  17.460   9.229
  488POPC   GL2 9578  11.782  17.756   9.039
  488POPC   C1A 9579  12.021  17.331   8.805
  488POPC   D2A 9580  12.079  17.580   8.427
  488POPC   C3A 9581  12.026  17.442   8.012
  488POPC   C4A 9582  12.203  17.680   7.713
  488POPC   C1B 9583  11.604  17.548   8.641
  488POPC   C2B 9584  11.545  17.561   8.192
  488POPC   C3B 9585  11.661  17.730   7.795
  488POPC   C4B 9586  11.842  17.657   7.374
  489POPC   NC3 9587  21.249  28.141   9.564
  489POPC   PO4 9588  21.350  27.455   9.652
  489POPC   GL1 9589  21.482  27.229   9.177
  489POPC   GL2 9590  21.479  27.505   8.925
  489POPC   C1A 9591  21.152  27.181   8.742
  489POPC   D2A 9592  21.367  27.310   8.383
  489POPC   C3A 9593  21.104  27.382   8.037
  489POPC   C4A 9594  21.456  27.526   7.852
  489POPC   C1B 9595  21.458  27.788   8.569
  489POPC   C2B 9596  21.711  27.847   8.196
  489POPC   C3B 9597  21.660  27.981   7.770
  489POPC   C4B 9598  21.622  27.778   7.406
  490POPC   NC3 9599   3.173  37.289   9.447
  490POPC   PO4 9600   3.666  37.825   9.548
  490POPC   GL1 9601   3.439  37.754   9.138
  490POPC   GL2 9602   3.543  37.434   9.113
  490POPC   C1A 9603   3.582  37.695   8.673
  490POPC   D2A 9604   3.310  37.645   8.288
  490POPC   C3A 9605   3.544  37.729   7.883
  490POPC   C4A 9606   3.869  37.602   7.591
  490POPC   C1B 9607   3.245  37.330   8.775
  490POPC   C2B 9608   3.156  37.159   8.360
  490POPC   C3B 9609   3.362  37.239   7.983
  490POPC   C4B 9610   3.207  37.408   7.629
  491POPC   NC3 9611  38.724  23.026   9.658
  491POPC   PO4 9612  39.388  22.900   9.552
  491POPC   GL1 9613  39.380  22.750   9.148
  491POPC   GL2 9614  39.036  22.719   9.184
  491POPC   C1A 9615  39.246  22.921   8.746
  491POPC   D2A 9616  39.357  22.896   8.325
  491POPC   C3A 9617  39.443  23.059   7.933
  491POPC   C4A 9618  39.431  22.619   7.741
  491POPC   C1B 9619  38.777  22.677   8.838
  491POPC   C2B 9620  38.854  22.735   8.406
  491POPC   C3B 9621  38.933  23.036   8.050
  491POPC   C4B 9622  39.049  22.930   7.617
  492POPC   NC3 9623  23.954  39.175   9.435
  492POPC   PO4 9624  24.155  39.661   9.718
  492POPC   GL1 9625  23.987  39.633   9.210
  492POPC   GL2 9626  23.672  39.463   9.130
  492POPC   C1A 9627  24.021  39.356   8.784
  492POPC   D2A 9628  23.870  39.337   8.350
  492POPC   C3A 9629  24.068  39.103   8.023
  492POPC   C4A 9630  24.053  39.284   7.628
  492POPC   C1B 9631  23.558  39.636   8.749
  492POPC   C2B 9632  23.396  39.481   8.392
  492POPC   C3B 9633  23.451  39.232   8.031
  492POPC   C4B 9634  23.690  39.552   7.862
  493POPC   NC3 9635   1.366  16.678   9.567
  493POPC   PO4 9636   0.774  16.974   9.589
  493POPC   GL1 9637   1.063  16.946   9.217
  493POPC   GL2 9638   1.251  16.617   9.090
  493POPC   C1A 9639   1.066  16.965   8.759
  493POPC   D2A 9640   0.952  16.847   8.358
  493POPC   C3A 9641   1.150  16.938   7.980
  493POPC   C4A 9642   1.268  16.677   7.671
  493POPC   C1B 9643   1.406  16.395   8.726
  493POPC   C2B 9644   1.356  16.510   8.290
  493POPC   C3B 9645   1.228  16.259   7.968
  493POPC   C4B 9646   1.024  16.253   7.564
  494POPC   NC3 9647  43.203  22.841   9.657
  494POPC   PO4 9648  42.957  23.457   9.734
  494POPC   GL1 9649  42.960  23.105   9.264
  494POPC   GL2 9650  43.004  22.742   9.221
  494POPC   C1A 9651  43.329  22.932   8.911
  494POPC   D2A 9652  43.296  22.772   8.491
  494POPC   C3A 9653  43.327  23.030   8.126
  494POPC   C4A 9654  43.068  23.004   7.764
  494POPC   C1B 9655  42.846  22.832   8.808
  494POPC   C2B 9656  42.707  22.612   8.484
  494POPC   C3B 9657  42.806  22.773   8.134
  494POPC   C4B 9658  42.624  22.751   7.768
  495POPC   NC3 9659  15.929  14.074   9.467
  495POPC   PO4 9660  16.017  14.709   9.390
  495POPC   GL1 9661  15.720  14.461   9.151
  495POPC   GL2 9662  15.470  14.710   9.058
  495POPC   C1A 9663  15.799  14.162   8.791
  495POPC   D2A 9664  16.077  13.991   8.452
  495POPC   C3A 9665  15.965  14.039   8.025
  495POPC   C4A 9666  16.180  14.119   7.661
  495POPC   C1B 9667  15.794  14.710   8.730
  495POPC   C2B 9668  15.882  14.446   8.362
  495POPC   C3B 9669  16.124  14.521   8.005
  495POPC   C4B 9670  16.052  14.594   7.594
  496POPC   NC3 9671  31.361  28.679   9.348
  496POPC   PO4 9672  31.650  29.215   9.680
  496POPC   GL1 9673  31.463  29.202   9.248
  496POPC   GL2 9674  31.687  28.963   9.079
  496POPC   C1A 9675  31.496  29.350   8.803
  496POPC   D2A 9676  31.743  29.149   8.439
  496POPC   C3A 9677  31.518  29.174   8.001
  496POPC   C4A 9678  31.250  29.449   7.750
  496POPC   C1B 9679  31.404  28.850   8.722
  496POPC   C2B 9680  31.455  28.750   8.304
  496POPC   C3B 9681  31.160  28.796   8.014
  496POPC   C4B 9682  31.189  28.971   7.651
  497POPC   NC3 9683  42.218   0.235   9.532
  497POPC   PO4 9684  42.761   0.580   9.422
  497POPC   GL1 9685  42.544   0.318   9.107
  497POPC   GL2 9686  42.251   0.108   9.041
  497POPC   C1A 9687  42.420   0.449   8.677
  497POPC   D2A 9688  42.159   0.462   8.290
  497POPC   C3A 9689  42.388   0.721   8.005
  497POPC   C4A 9690  42.693   0.563   7.730
  497POPC   C1B 9691  42.304  44.961   8.597
  497POPC   C2B 9692  42.249  44.967   8.117
  497POPC   C3B 9693  42.228   0.179   7.702
  497POPC   C4B 9694  42.096  44.986   7.280
  498POPC   NC3 9695  21.687  28.707   9.903
  498POPC   PO4 9696  21.411  29.120   9.375
  498POPC   GL1 9697  21.656  29.008   9.035
  498POPC   GL2 9698  21.939  29.177   9.179
  498POPC   C1A 9699  21.524  28.935   8.604
  498POPC   D2A 9700  21.318  28.785   8.229
  498POPC   C3A 9701  21.158  29.098   7.879
  498POPC   C4A 9702  21.176  29.553   7.811
  498POPC   C1B 9703  21.922  29.348   8.756
  498POPC   C2B 9704  21.594  29.443   8.498
  498POPC   C3B 9705  21.547  29.332   8.094
  498POPC   C4B 9706  21.672  28.986   7.819
  499POPC   NC3 9707  43.601  44.409   9.525
  499POPC   PO4 9708  44.139  44.577   9.842
  499POPC   GL1 9709  44.032  44.621   9.313
  499POPC   GL2 9710  43.913  44.983   9.149
  499POPC   C1A 9711  43.720  44.595   8.915
  499POPC   D2A 9712  43.721  44.792   8.506
  499POPC   C3A 9713  43.619  44.586   8.122
  499POPC   C4A 9714  43.737  44.836   7.732
  499POPC   C1B 9715  44.189  44.767   8.844
  499POPC   C2B 9716  44.244  44.678   8.447
  499POPC   C3B 9717  44.099  44.754   8.077
  499POPC   C4B 9718  44.211  44.700   7.666
  500POPC   NC3 9719  38.939  17.323   9.282
  500POPC   PO4 9720  39.438  17.678   9.479
  500POPC   GL1 9721  39.450  17.526   9.091
  500POPC   GL2 9722  39.562  17.215   9.181
  500POPC   C1A 9723  39.385  17.617   8.636
  500POPC   D2A 9724  39.056  17.762   8.321
  500POPC   C3A 9725  39.150  17.790   7.863
  500POPC   C4A 9726  39.435  17.754   7.519
  500POPC   C1B 9727  39.326  17.137   8.799
  500POPC   C2B 9728  39.176  17.192   8.391
  500POPC   C3B 9729  39.117  17.280   7.990
  500POPC   C4B 9730  39.406  17.284   7.677
  501POPC   NC3 9731  17.238  24.698   9.570
  501POPC   PO4 9732  17.756  24.988   9.769
  501POPC   GL1 9733  17.732  24.654   9.398
  501POPC   GL2 9734  17.491  24.346   9.302
  501POPC   C1A 9735  17.760  24.550   8.935
  501POPC   D2A 9736  17.703  24.234   8.570
  501POPC   C3A 9737  17.871  24.362   8.170
  501POPC   C4A 9738  17.786  24.619   7.814
  501POPC   C1B 9739  17.283  24.355   8.889
  501POPC   C2B 9740  17.313  24.539   8.463
  501POPC   C3B 9741  17.341  24.435   8.006
  501POPC   C4B 9742  17.130  24.659   7.708
  502POPC   NC3 9743  15.300  41.745   9.553
  502POPC   PO4 9744  15.212  41.103   9.298
  502POPC   GL1 9745  15.165  41.518   9.110
  502POPC   GL2 9746  14.878  41.778   9.169
  502POPC   C1A 9747  15.247  41.482   8.686
  502POPC   D2A 9748  15.293  41.171   8.368
  502POPC   C3A 9749  15.129  41.324   7.989
  502POPC   C4A 9750  15.358  41.523   7.687
  502POPC   C1B 9751  14.937  41.898   8.745
  502POPC   C2B 9752  14.904  41.665   8.362
  502POPC   C3B 9753  14.939  41.829   7.983
  502POPC   C4B 9754  15.036  41.909   7.585
  503POPC   NC3 9755   1.586   2.149   9.297
  503POPC   PO4 9756   2.113   2.008   9.672
  503POPC   GL1 9757   2.034   1.850   9.213
  503POPC   GL2 9758   1.724   1.654   9.118
  503POPC   C1A 9759   2.217   1.772   8.809
  503POPC   D2A 9760   2.264   2.051   8.410
  503POPC   C3A 9761   2.017   2.002   8.027
  503POPC   C4A 9762   2.122   1.829   7.637
  503POPC   C1B 9763   1.578   1.847   8.750
  503POPC   C2B 9764   1.643   2.058   8.395
  503POPC   C3B 9765   1.536   1.837   8.048
  503POPC   C4B 9766   1.622   1.691   7.651
  504POPC   NC3 9767  34.384  16.889   9.477
  504POPC   PO4 9768  34.999  16.718   9.529
  504POPC   GL1 9769  34.812  16.866   9.155
  504POPC   GL2 9770  34.795  17.197   9.283
  504POPC   C1A 9771  34.725  16.822   8.696
  504POPC   D2A 9772  34.517  16.710   8.296
  504POPC   C3A 9773  34.696  16.744   7.873
  504POPC   C4A 9774  34.594  16.596   7.460
  504POPC   C1B 9775  34.544  17.249   8.909
  504POPC   C2B 9776  34.529  17.249   8.452
  504POPC   C3B 9777  34.430  17.144   8.024
  504POPC   C4B 9778  34.106  16.922   7.771
  505POPC   NC3 9779  28.529  37.513   9.699
  505POPC   PO4 9780  28.496  38.157   9.699
  505POPC   GL1 9781  28.473  37.872   9.275
  505POPC   GL2 9782  28.529  37.500   9.197
  505POPC   C1A 9783  28.162  37.700   8.917
  505POPC   D2A 9784  28.066  37.776   8.461
  505POPC   C3A 9785  28.200  37.670   8.033
  505POPC   C4A 9786  27.924  37.868   7.722
  505POPC   C1B 9787  28.668  37.715   8.811
  505POPC   C2B 9788  28.600  37.728   8.364
  505POPC   C3B 9789  28.747  37.623   7.936
  505POPC   C4B 9790  28.602  37.468   7.454
  506POPC   NC3 9791  21.034  13.174   9.531
  506POPC   PO4 9792  20.473  12.910   9.503
  506POPC   GL1 9793  20.417  12.687   9.123
  506POPC   GL2 9794  20.791  12.645   9.099
  506POPC   C1A 9795  20.470  12.686   8.689
  506POPC   D2A 9796  20.455  12.996   8.401
  506POPC   C3A 9797  20.557  12.896   8.000
  506POPC   C4A 9798  20.519  13.096   7.630
  506POPC   C1B 9799  20.985  12.715   8.707
  506POPC   C2B 9800  20.838  12.562   8.297
  506POPC   C3B 9801  20.992  12.653   7.870
  506POPC   C4B 9802  20.866  12.792   7.433
  507POPC   NC3 9803   0.879   2.726   9.707
  507POPC   PO4 9804   1.503   2.910   9.632
  507POPC   GL1 9805   1.366   2.779   9.209
  507POPC   GL2 9806   0.997   2.763   9.190
  507POPC   C1A 9807   1.329   2.837   8.757
  507POPC   D2A 9808   1.452   2.691   8.333
  507POPC   C3A 9809   1.314   2.881   7.957
  507POPC   C4A 9810   1.085   3.007   7.578
  507POPC   C1B 9811   0.845   2.624   8.780
  507POPC   C2B 9812   0.939   2.594   8.364
  507POPC   C3B 9813   0.837   2.714   7.976
  507POPC   C4B 9814   1.082   2.513   7.662
  508POPC   NC3 9815  28.358   5.575   9.504
  508POPC   PO4 9816  28.243   6.189   9.712
  508POPC   GL1 9817  28.494   6.021   9.256
  508POPC   GL2 9818  28.531   5.690   9.058
  508POPC   C1A 9819  28.752   6.072   8.839
  508POPC   D2A 9820  28.635   6.029   8.412
  508POPC   C3A 9821  28.768   5.813   8.047
  508POPC   C4A 9822  28.578   5.954   7.654
  508POPC   C1B 9823  28.272   5.727   8.695
  508POPC   C2B 9824  28.254   5.504   8.301
  508POPC   C3B 9825  28.280   5.633   7.880
  508POPC   C4B 9826  28.362   5.503   7.456
  509POPC   NC3 9827  16.741   7.590   9.387
  509POPC   PO4 9828  16.241   7.171   9.540
  509POPC   GL1 9829  16.530   7.104   9.149
  509POPC   GL2 9830  16.868   7.230   9.066
  509POPC   C1A 9831  16.595   7.239   8.666
  509POPC   D2A 9832  16.856   7.390   8.337
  509POPC   C3A 9833  16.774   7.330   7.901
  509POPC   C4A 9834  16.982   7.232   7.509
  509POPC   C1B 9835  16.965   7.634   8.782
  509POPC   C2B 9836  17.065   7.932   8.436
  509POPC   C3B 9837  17.031   7.785   8.024
  509POPC   C4B 9838  16.795   7.771   7.654
  510POPC   NC3 9839  31.599  36.097   9.482
  510POPC   PO4 9840  30.994  36.109   9.332
  510POPC   GL1 9841  31.234  36.338   9.056
  510POPC   GL2 9842  31.550  36.496   9.171
  510POPC   C1A 9843  31.151  36.364   8.609
  510POPC   D2A 9844  31.237  36.076   8.265
  510POPC   C3A 9845  31.525  36.144   7.951
  510POPC   C4A 9846  31.403  36.249   7.545
  510POPC   C1B 9847  31.697  36.368   8.787
  510POPC   C2B 9848  31.627  36.437   8.382
  510POPC   C3B 9849  31.885  36.501   8.067
  510POPC   C4B 9850  31.814  36.493   7.690
  511POPC   NC3 9851   0.584  38.169   9.462
  511POPC   PO4 9852   0.417  37.618   9.797
  511POPC   GL1 9853   0.596  37.701   9.325
  511POPC   GL2 9854   0.294  37.871   9.160
  511POPC   C1A 9855   0.707  37.623   8.872
  511POPC   D2A 9856   0.495  37.598   8.447
  511POPC   C3A 9857   0.740  37.629   8.056
  511POPC   C4A 9858   0.764  37.753   7.633
  511POPC   C1B 9859   0.500  38.086   8.796
  511POPC   C2B 9860   0.399  38.102   8.343
  511POPC   C3B 9861   0.414  38.003   7.915
  511POPC   C4B 9862   0.255  37.630   7.693
  512POPC   NC3 9863   3.957  31.942   9.509
  512POPC   PO4 9864   4.366  32.425   9.432
  512POPC   GL1 9865   4.431  32.129   9.139
  512POPC   GL2 9866   4.175  31.913   9.061
  512POPC   C1A 9867   4.408  32.258   8.729
  512POPC   D2A 9868   4.573  32.170   8.354
  512POPC   C3A 9869   4.318  32.419   8.138
  512POPC   C4A 9870   4.250  32.484   7.746
  512POPC   C1B 9871   4.269  31.779   8.661
  512POPC   C2B 9872   4.075  32.017   8.348
  512POPC   C3B 9873   4.099  31.993   7.918
  512POPC   C4B 9874   4.252  31.893   7.492
  513POPC   NC3 9875  15.417  34.713  10.145
  513POPC   PO4 9876  15.200  34.460   9.601
  513POPC   GL1 9877  15.131  34.572   9.199
  513POPC   GL2 9878  15.501  34.507   9.154
  513POPC   C1A 9879  15.114  34.473   8.788
  513POPC   D2A 9880  15.339  34.521   8.450
  513POPC   C3A 9881  15.156  34.550   8.067
  513POPC   C4A 9882  15.519  34.506   7.850
  513POPC   C1B 9883  15.445  34.857   8.879
  513POPC   C2B 9884  15.396  35.026   8.452
  513POPC   C3B 9885  15.406  35.016   7.983
  513POPC   C4B 9886  15.252  34.839   7.570
  514POPC   NC3 9887   0.110  27.683   9.377
  514POPC   PO4 9888   0.340  27.228   9.783
  514POPC   GL1 9889   0.461  27.345   9.257
  514POPC   GL2 9890   0.700  27.621   9.177
  514POPC   C1A 9891   0.265  27.450   8.801
  514POPC   D2A 9892   0.392  27.579   8.365
  514POPC   C3A 9893   0.124  27.724   8.027
  514POPC   C4A 9894   0.081  27.467   7.684
  514POPC   C1B 9895   0.664  27.779   8.775
  514POPC   C2B 9896   0.820  27.875   8.364
  514POPC   C3B 9897   0.700  27.751   7.955
  514POPC   C4B 9898   0.854  27.767   7.537
  515POPC   NC3 9899   1.372  28.224   9.527
  515POPC   PO4 9900   0.940  28.740   9.470
  515POPC   GL1 9901   1.028  28.421   9.168
  515POPC   GL2 9902   1.368  28.522   9.110
  515POPC   C1A 9903   1.190  28.243   8.753
  515POPC   D2A 9904   1.435  28.293   8.387
  515POPC   C3A 9905   1.192  28.112   8.078
  515POPC   C4A 9906   0.900  28.229   7.740
  515POPC   C1B 9907   1.557  28.732   8.766
  515POPC   C2B 9908   1.751  28.716   8.366
  515POPC   C3B 9909   1.571  28.709   7.973
  515POPC   C4B 9910   1.375  28.437   7.736
  516POPC   NC3 9911   3.007  31.694   9.415
  516POPC   PO4 9912   2.867  32.434   9.439
  516POPC   GL1 9913   2.999  32.180   9.138
  516POPC   GL2 9914   2.739  31.973   9.077
  516POPC   C1A 9915   2.872  32.344   8.740
  516POPC   D2A 9916   2.634  32.252   8.412
  516POPC   C3A 9917   2.762  32.470   8.088
  516POPC   C4A 9918   2.774  32.441   7.661
  516POPC   C1B 9919   2.399  31.916   8.764
  516POPC   C2B 9920   2.395  31.811   8.310
  516POPC   C3B 9921   2.562  32.027   7.926
  516POPC   C4B 9922   2.535  32.029   7.463
  517POPC   NC3 9923  12.986  42.540   9.400
  517POPC   PO4 9924  12.747  43.203   9.479
  517POPC   GL1 9925  12.927  43.277   9.136
  517POPC   GL2 9926  12.912  42.927   9.077
  517POPC   C1A 9927  12.797  43.285   8.726
  517POPC   D2A 9928  12.953  43.192   8.326
  517POPC   C3A 9929  12.902  43.350   7.943
  517POPC   C4A 9930  12.806  43.164   7.538
  517POPC   C1B 9931  13.010  42.806   8.676
  517POPC   C2B 9932  13.232  42.765   8.286
  517POPC   C3B 9933  13.139  42.910   7.882
  517POPC   C4B 9934  13.247  42.793   7.461
  518POPC   NC3 9935  38.764  34.703   9.496
  518POPC   PO4 9936  38.128  34.345   9.549
  518POPC   GL1 9937  38.359  34.368   9.191
  518POPC   GL2 9938  38.397  34.726   9.122
  518POPC   C1A 9939  38.205  34.425   8.783
  518POPC   D2A 9940  38.204  34.738   8.449
  518POPC   C3A 9941  38.253  34.546   8.073
  518POPC   C4A 9942  38.237  34.701   7.708
  518POPC   C1B 9943  38.651  34.664   8.738
  518POPC   C2B 9944  38.729  34.638   8.294
  518POPC   C3B 9945  38.742  34.686   7.833
  518POPC   C4B 9946  38.904  34.884   7.440
  519POPC   NC3 9947  22.396  17.009   9.454
  519POPC   PO4 9948  21.933  16.598   9.244
  519POPC   GL1 9949  22.157  16.881   9.012
  519POPC   GL2 9950  22.494  16.704   9.053
  519POPC   C1A 9951  22.191  16.782   8.580
  519POPC   D2A 9952  22.198  16.377   8.387
  519POPC   C3A 9953  21.973  16.458   8.043
  519POPC   C4A 9954  21.896  16.814   7.832
  519POPC   C1B 9955  22.601  17.015   8.768
  519POPC   C2B 9956  22.530  17.094   8.329
  519POPC   C3B 9957  22.423  16.827   7.962
  519POPC   C4B 9958  22.389  16.426   7.760
  520POPC   NC3 9959  15.597  12.432   9.829
  520POPC   PO4 9960  16.017  11.943   9.753
  520POPC   GL1 9961  15.983  11.810   9.248
  520POPC   GL2 9962  16.152  12.047   9.067
  520POPC   C1A 9963  15.757  11.867   8.812
  520POPC   D2A 9964  15.557  11.747   8.407
  520POPC   C3A 9965  15.622  11.977   8.008
  520POPC   C4A 9966  15.457  11.760   7.665
  520POPC   C1B 9967  16.237  12.355   8.773
  520POPC   C2B 9968  16.344  12.201   8.400
  520POPC   C3B 9969  16.105  11.959   8.172
  520POPC   C4B 9970  16.103  12.261   7.862
  521POPC   NC3 9971  31.931  41.237   9.488
  521POPC   PO4 9972  32.099  41.886   9.591
  521POPC   GL1 9973  32.360  41.695   9.214
  521POPC   GL2 9974  32.342  41.347   9.194
  521POPC   C1A 9975  32.219  41.546   8.753
  521POPC   D2A 9976  32.180  41.448   8.306
  521POPC   C3A 9977  32.344  41.766   8.011
  521POPC   C4A 9978  32.250  41.982   7.623
  521POPC   C1B 9979  32.603  41.204   8.865
  521POPC   C2B 9980  32.571  41.161   8.449
  521POPC   C3B 9981  32.646  41.347   8.034
  521POPC   C4B 9982  32.596  41.207   7.601
  522POPC   NC3 9983  35.398   2.504   9.508
  522POPC   PO4 9984  34.950   3.087   9.419
  522POPC   GL1 9985  35.215   2.848   9.132
  522POPC   GL2 9986  35.567   2.881   9.181
  522POPC   C1A 9987  35.350   2.703   8.712
  522POPC   D2A 9988  35.175   2.725   8.274
  522POPC   C3A 9989  35.372   2.643   7.840
  522POPC   C4A 9990  35.689   2.642   7.520
  522POPC   C1B 9991  35.850   2.808   8.838
  522POPC   C2B 9992  35.758   2.651   8.422
  522POPC   C3B 9993  35.798   2.874   8.038
  522POPC   C4B 9994  35.620   3.104   7.710
  523POPC   NC3 9995  28.275  19.424   9.740
  523POPC   PO4 9996  28.761  19.834   9.421
  523POPC   GL1 9997  28.567  19.838   9.057
  523POPC   GL2 9998  28.218  19.922   9.033
  523POPC   C1A 9999  28.513  19.707   8.674
  523POPC   D2A10000  28.202  19.699   8.395
  523POPC   C3A10001  28.383  19.849   8.042
  523POPC   C4A10002  28.428  19.725   7.648
  523POPC   C1B10003  27.983  20.182   8.792
  523POPC   C2B10004  27.814  20.072   8.410
  523POPC   C3B10005  27.969  20.223   8.048
  523POPC   C4B10006  28.139  20.131   7.693
  524POPC   NC310007  17.253   9.590   9.579
  524POPC   PO410008  17.671  10.089   9.674
  524POPC   GL110009  17.637   9.761   9.269
  524POPC   GL210010  17.796   9.459   9.064
  524POPC   C1A10011  17.459   9.747   8.820
  524POPC   D2A10012  17.589   9.796   8.372
  524POPC   C3A10013  17.332   9.623   8.031
  524POPC   C4A10014  17.206   9.766   7.632
  524POPC   C1B10015  17.792   9.389   8.616
  524POPC   C2B10016  17.757   9.353   8.188
  524POPC   C3B10017  17.955   9.306   7.823
  524POPC   C4B10018  17.799   9.297   7.396
  525POPC   NC310019  29.887  44.176   9.686
  525POPC   PO410020  29.774  44.798   9.478
  525POPC   GL110021  30.043  44.500   9.270
  525POPC   GL210022  29.743  44.442   9.116
  525POPC   C1A10023  30.216  44.608   8.854
  525POPC   D2A10024  30.151  44.982   8.547
  525POPC   C3A10025  30.164  44.871   8.111
  525POPC   C4A10026  30.381  44.806   7.765
  525POPC   C1B10027  29.740  44.743   8.718
  525POPC   C2B10028  29.677  44.790   8.256
  525POPC   C3B10029  29.737  44.637   7.816
  525POPC   C4B10030  29.556  44.668   7.396
  526POPC   NC310031  19.006  21.158   9.617
  526POPC   PO410032  18.668  21.670   9.337
  526POPC   GL110033  18.847  21.249   9.127
  526POPC   GL210034  19.211  21.083   9.168
  526POPC   C1A10035  18.876  21.304   8.680
  526POPC   D2A10036  18.729  21.651   8.447
  526POPC   C3A10037  18.841  21.592   8.006
  526POPC   C4A10038  18.800  21.160   7.828
  526POPC   C1B10039  19.383  21.304   8.840
  526POPC   C2B10040  19.339  21.371   8.408
  526POPC   C3B10041  19.328  21.355   7.973
  526POPC   C4B10042  19.313  21.753   7.773
  527POPC   NC310043  18.801  15.296   9.823
  527POPC   PO410044  18.113  15.238   9.623
  527POPC   GL110045  18.349  15.172   9.237
  527POPC   GL210046  18.540  14.904   9.249
  527POPC   C1A10047  18.205  15.247   8.823
  527POPC   D2A10048  17.896  15.257   8.471
  527POPC   C3A10049  18.095  15.108   8.094
  527POPC   C4A10050  17.953  14.874   7.749
  527POPC   C1B10051  18.542  14.798   8.843
  527POPC   C2B10052  18.409  14.949   8.467
  527POPC   C3B10053  18.588  14.833   8.125
  527POPC   C4B10054  18.490  14.991   7.752
  528POPC   NC310055  39.302  35.560   9.423
  528POPC   PO410056  39.405  34.878   9.538
  528POPC   GL110057  39.214  35.109   9.208
  528POPC   GL210058  38.869  35.225   9.328
  528POPC   C1A10059  39.338  35.271   8.792
  528POPC   D2A10060  39.179  35.120   8.393
  528POPC   C3A10061  39.378  35.261   8.002
  528POPC   C4A10062  39.377  35.062   7.619
  528POPC   C1B10063  38.828  35.301   8.890
  528POPC   C2B10064  38.943  35.544   8.516
  528POPC   C3B10065  38.886  35.399   8.067
  528POPC   C4B10066  39.016  35.430   7.638
  529POPC   NC310067  12.922  15.148   9.372
  529POPC   PO410068  12.479  15.662   9.486
  529POPC   GL110069  12.398  15.417   9.125
  529POPC   GL210070  12.516  15.035   9.090
  529POPC   C1A10071  12.625  15.406   8.727
  529POPC   D2A10072  13.033  15.421   8.515
  529POPC   C3A10073  12.973  15.387   8.072
  529POPC   C4A10074  13.232  15.472   7.769
  529POPC   C1B10075  12.872  14.963   8.762
  529POPC   C2B10076  12.801  14.988   8.364
  529POPC   C3B10077  12.941  14.874   8.007
  529POPC   C4B10078  12.729  14.991   7.713
  530POPC   NC310079  28.699  11.425   9.461
  530POPC   PO410080  29.301  11.384   9.454
  530POPC   GL110081  29.058  11.231   9.106
  530POPC   GL210082  28.894  11.489   8.987
  530POPC   C1A10083  29.200  10.962   8.784
  530POPC   D2A10084  29.486  10.967   8.455
  530POPC   C3A10085  29.223  10.988   8.133
  530POPC   C4A10086  29.169  11.263   7.782
  530POPC   C1B10087  29.276  11.527   8.749
  530POPC   C2B10088  29.360  11.464   8.329
  530POPC   C3B10089  29.419  11.683   7.950
  530POPC   C4B10090  29.423  11.624   7.497
  531POPC   NC310091  39.841  24.120   9.359
  531POPC   PO410092  40.111  23.496   9.493
  531POPC   GL110093  39.995  23.695   9.138
  531POPC   GL210094  39.751  23.553   9.008
  531POPC   C1A10095  40.176  23.740   8.743
  531POPC   D2A10096  40.274  23.890   8.330
  531POPC   C3A10097  40.350  23.623   7.965
  531POPC   C4A10098  40.102  23.696   7.608
  531POPC   C1B10099  39.719  23.941   8.747
  531POPC   C2B10100  39.699  23.916   8.317
  531POPC   C3B10101  39.777  23.966   7.882
  531POPC   C4B10102  39.718  23.966   7.413
  532POPC   NC310103  33.235  12.035   9.396
  532POPC   PO410104  32.551  11.981   9.431
  532POPC   GL110105  32.818  12.038   9.080
  532POPC   GL210106  33.016  12.334   9.064
  532POPC   C1A10107  33.074  11.910   8.711
  532POPC   D2A10108  33.283  11.864   8.288
  532POPC   C3A10109  33.049  12.026   7.904
  532POPC   C4A10110  33.189  12.006   7.422
  532POPC   C1B10111  32.861  12.401   8.703
  532POPC   C2B10112  33.092  12.389   8.363
  532POPC   C3B10113  33.029  12.543   7.970
  532POPC   C4B10114  32.858  12.374   7.583
  533POPC   NC310115  31.881  12.894   9.547
  533POPC   PO410116  32.548  12.932   9.442
  533POPC   GL110117  32.223  12.992   9.160
  533POPC   GL210118  32.089  12.693   9.120
  533POPC   C1A10119  32.047  13.015   8.741
  533POPC   D2A10120  32.305  13.056   8.426
  533POPC   C3A10121  32.214  12.952   8.040
  533POPC   C4A10122  31.874  13.029   7.812
  533POPC   C1B10123  32.275  12.560   8.731
  533POPC   C2B10124  32.037  12.598   8.380
  533POPC   C3B10125  31.992  12.519   7.960
  533POPC   C4B10126  32.445  12.503   7.844
  534POPC   NC310127  14.990  43.962   9.665
  534POPC   PO410128  15.589  43.554   9.626
  534POPC   GL110129  15.245  43.687   9.307
  534POPC   GL210130  15.222  44.061   9.201
  534POPC   C1A10131  15.020  43.680   8.903
  534POPC   D2A10132  15.165  43.716   8.489
  534POPC   C3A10133  15.069  43.724   8.084
  534POPC   C4A10134  15.196  43.546   7.723
  534POPC   C1B10135  15.246  44.175   8.742
  534POPC   C2B10136  15.005  44.191   8.349
  534POPC   C3B10137  15.105  44.253   7.920
  534POPC   C4B10138  14.856  44.186   7.593
  535POPC   NC310139  29.376  25.310   9.576
  535POPC   PO410140  28.764  25.036   9.508
  535POPC   GL110141  29.019  25.247   9.202
  535POPC   GL210142  29.363  25.090   9.121
  535POPC   C1A10143  29.011  25.211   8.775
  535POPC   D2A10144  29.367  25.168   8.512
  535POPC   C3A10145  29.301  25.446   8.193
  535POPC   C4A10146  29.345  25.361   7.770
  535POPC   C1B10147  29.453  25.483   8.907
  535POPC   C2B10148  29.722  25.591   8.566
  535POPC   C3B10149  29.778  25.599   8.127
  535POPC   C4B10150  29.617  25.785   7.800
  536POPC   NC310151   6.543  34.076   9.526
  536POPC   PO410152   7.133  33.950   9.426
  536POPC   GL110153   6.842  34.219   9.099
  536POPC   GL210154   6.457  34.260   9.074
  536POPC   C1A10155   6.723  34.519   8.719
  536POPC   D2A10156   6.699  34.722   8.287
  536POPC   C3A10157   6.857  34.572   7.921
  536POPC   C4A10158   6.933  34.763   7.481
  536POPC   C1B10159   6.277  34.279   8.702
  536POPC   C2B10160   6.463  34.261   8.326
  536POPC   C3B10161   6.353  34.437   7.969
  536POPC   C4B10162   6.504  34.478   7.570
  537POPC   NC310163  28.254  27.789   9.707
  537POPC   PO410164  28.764  27.342   9.389
  537POPC   GL110165  28.525  27.678   9.149
  537POPC   GL210166  28.192  27.637   9.051
  537POPC   C1A10167  28.532  27.705   8.682
  537POPC   D2A10168  28.554  27.501   8.289
  537POPC   C3A10169  28.543  27.650   7.863
  537POPC   C4A10170  28.640  27.461   7.462
  537POPC   C1B10171  28.023  27.619   8.629
  537POPC   C2B10172  28.127  27.747   8.226
  537POPC   C3B10173  28.010  27.685   7.832
  537POPC   C4B10174  28.146  27.748   7.417
  538POPC   NC310175   5.909  17.711   9.853
  538POPC   PO410176   5.706  17.312   9.340
  538POPC   GL110177   6.007  17.395   9.046
  538POPC   GL210178   5.790  17.569   8.836
  538POPC   C1A10179   6.198  17.260   8.704
  538POPC   D2A10180   5.982  17.229   8.354
  538POPC   C3A10181   6.095  17.463   8.025
  538POPC   C4A10182   5.871  17.598   7.687
  538POPC   C1B10183   5.628  17.980   8.720
  538POPC   C2B10184   5.420  17.962   8.332
  538POPC   C3B10185   5.415  17.665   8.026
  538POPC   C4B10186   5.481  17.944   7.718
  539POPC   NC310187  23.060  44.610   9.572
  539POPC   PO410188  22.823   0.265   9.579
  539POPC   GL110189  22.847  44.899   9.234
  539POPC   GL210190  23.188  44.813   9.125
  539POPC   C1A10191  22.769  44.617   8.864
  539POPC   D2A10192  22.744  44.706   8.435
  539POPC   C3A10193  22.815  44.427   8.094
  539POPC   C4A10194  22.825  44.413   7.648
  539POPC   C1B10195  23.368  44.779   8.736
  539POPC   C2B10196  23.272  44.576   8.355
  539POPC   C3B10197  23.514  44.497   8.003
  539POPC   C4B10198  23.268  44.642   7.651
  540POPC   NC310199  37.434  41.774   9.547
  540POPC   PO410200  37.936  41.365   9.737
  540POPC   GL110201  37.759  41.389   9.297
  540POPC   GL210202  37.433  41.495   9.143
  540POPC   C1A10203  37.814  41.416   8.817
  540POPC   D2A10204  37.821  41.653   8.426
  540POPC   C3A10205  37.830  41.374   8.086
  540POPC   C4A10206  38.076  41.369   7.728
  540POPC   C1B10207  37.291  41.334   8.771
  540POPC   C2B10208  37.335  41.481   8.358
  540POPC   C3B10209  37.238  41.725   8.002
  540POPC   C4B10210  37.471  41.453   7.733
  541POPC   NC310211   0.759  17.381   9.288
  541POPC   PO410212   1.344  17.341   9.619
  541POPC   GL110213   1.280  17.459   9.203
  541POPC   GL210214   1.217  17.802   9.116
  541POPC   C1A10215   1.389  17.350   8.793
  541POPC   D2A10216   1.201  17.461   8.425
  541POPC   C3A10217   1.329  17.431   8.009
  541POPC   C4A10218   1.075  17.391   7.668
  541POPC   C1B10219   0.950  17.745   8.757
  541POPC   C2B10220   0.884  17.860   8.313
  541POPC   C3B10221   0.807  17.748   7.887
  541POPC   C4B10222   0.895  17.869   7.447
  542POPC   NC310223  19.455   5.884   9.574
  542POPC   PO410224  18.860   6.070   9.300
  542POPC   GL110225  19.223   5.861   9.118
  542POPC   GL210226  19.407   5.526   9.189
  542POPC   C1A10227  19.235   5.902   8.710
  542POPC   D2A10228  19.233   6.156   8.363
  542POPC   C3A10229  19.112   5.867   8.081
  542POPC   C4A10230  19.336   5.783   7.746
  542POPC   C1B10231  19.142   5.408   8.837
  542POPC   C2B10232  18.959   5.501   8.430
  542POPC   C3B10233  18.754   5.476   8.034
  542POPC   C4B10234  18.822   5.718   7.683
  543POPC   NC310235   4.350  27.079   9.344
  543POPC   PO410236   4.591  26.378   9.425
  543POPC   GL110237   4.313  26.609   9.050
  543POPC   GL210238   4.404  26.919   8.879
  543POPC   C1A10239   3.985  26.721   8.713
  543POPC   D2A10240   4.080  26.971   8.355
  543POPC   C3A10241   4.043  26.761   7.967
  543POPC   C4A10242   4.245  26.805   7.565
  543POPC   C1B10243   4.799  27.088   8.774
  543POPC   C2B10244   4.857  27.278   8.409
  543POPC   C3B10245   4.552  27.171   8.092
  543POPC   C4B10246   4.669  27.061   7.667
  544POPC   NC310247   3.638   5.495   9.550
  544POPC   PO410248   3.093   5.956   9.571
  544POPC   GL110249   3.405   6.011   9.241
  544POPC   GL210250   3.433   5.670   9.137
  544POPC   C1A10251   3.640   6.067   8.849
  544POPC   D2A10252   3.502   6.032   8.411
  544POPC   C3A10253   3.691   5.898   8.021
  544POPC   C4A10254   3.448   6.079   7.687
  544POPC   C1B10255   3.289   5.677   8.752
  544POPC   C2B10256   3.187   5.429   8.439
  544POPC   C3B10257   3.281   5.597   8.049
  544POPC   C4B10258   3.508   5.578   7.667
  545POPC   NC310259   2.783  44.259   9.446
  545POPC   PO410260   2.623  43.556   9.324
  545POPC   GL110261   2.931  43.679   9.043
  545POPC   GL210262   3.063  44.018   9.090
  545POPC   C1A10263   2.879  43.524   8.652
  545POPC   D2A10264   2.776  43.765   8.323
  545POPC   C3A10265   2.700  43.609   7.937
  545POPC   C4A10266   2.553  43.795   7.574
  545POPC   C1B10267   2.866  44.127   8.706
  545POPC   C2B10268   3.004  44.222   8.291
  545POPC   C3B10269   2.819  44.144   7.886
  545POPC   C4B10270   2.987  44.058   7.465
  546POPC   NC310271  35.700  27.426   9.827
  546POPC   PO410272  35.190  27.755   9.578
  546POPC   GL110273  35.132  27.671   9.126
  546POPC   GL210274  35.367  27.391   9.065
  546POPC   C1A10275  35.298  27.799   8.723
  546POPC   D2A10276  35.157  27.679   8.331
  546POPC   C3A10277  35.276  27.780   7.923
  546POPC   C4A10278  35.504  27.396   7.803
  546POPC   C1B10279  35.111  27.310   8.743
  546POPC   C2B10280  35.051  27.091   8.389
  546POPC   C3B10281  34.906  27.332   8.055
  546POPC   C4B10282  34.775  27.665   7.808
  547POPC   NC310283  38.001  15.671   9.345
  547POPC   PO410284  37.475  16.088   9.446
  547POPC   GL110285  37.597  15.919   9.090
  547POPC   GL210286  37.512  15.587   9.069
  547POPC   C1A10287  37.677  16.139   8.732
  547POPC   D2A10288  37.575  16.434   8.439
  547POPC   C3A10289  37.783  16.304   8.074
  547POPC   C4A10290  37.548  16.043   7.816
  547POPC   C1B10291  37.854  15.639   8.735
  547POPC   C2B10292  37.958  15.499   8.342
  547POPC   C3B10293  37.902  15.727   7.977
  547POPC   C4B10294  37.993  15.932   7.580
  548POPC   NC310295  17.526  37.316   9.602
  548POPC   PO410296  17.487  38.072   9.798
  548POPC   GL110297  17.474  38.021   9.337
  548POPC   GL210298  17.735  37.808   9.242
  548POPC   C1A10299  17.425  37.962   8.882
  548POPC   D2A10300  17.588  37.940   8.463
  548POPC   C3A10301  17.458  37.675   8.132
  548POPC   C4A10302  17.551  37.819   7.735
  548POPC   C1B10303  17.806  37.596   8.806
  548POPC   C2B10304  17.848  37.404   8.360
  548POPC   C3B10305  17.885  37.439   7.870
  548POPC   C4B10306  17.741  37.356   7.432
  549POPC   NC310307  16.200  12.980   9.506
  549POPC   PO410308  15.926  13.613   9.528
  549POPC   GL110309  16.045  13.600   9.163
  549POPC   GL210310  15.982  13.265   9.142
  549POPC   C1A10311  15.923  13.617   8.752
  549POPC   D2A10312  15.700  13.508   8.381
  549POPC   C3A10313  15.911  13.535   7.967
  549POPC   C4A10314  15.916  13.699   7.547
  549POPC   C1B10315  16.229  13.189   8.795
  549POPC   C2B10316  16.406  13.208   8.371
  549POPC   C3B10317  16.306  13.219   7.930
  549POPC   C4B10318  16.240  13.299   7.459
  550POPC   NC310319   9.924  20.302   9.539
  550POPC   PO410320   9.356  20.651   9.753
  550POPC   GL110321   9.645  20.646   9.319
  550POPC   GL210322   9.665  20.987   9.185
  550POPC   C1A10323   9.614  20.440   8.868
  550POPC   D2A10324   9.401  20.422   8.440
  550POPC   C3A10325   9.693  20.539   8.087
  550POPC   C4A10326   9.555  20.844   7.780
  550POPC   C1B10327   9.972  20.811   8.896
  550POPC   C2B10328  10.060  20.636   8.477
  550POPC   C3B10329  10.198  20.775   8.087
  550POPC   C4B10330  10.051  20.890   7.696
  551POPC   NC310331  40.934  35.600   9.317
  551POPC   PO410332  40.892  36.206   9.545
  551POPC   GL110333  40.846  36.086   9.166
  551POPC   GL210334  40.514  36.196   9.164
  551POPC   C1A10335  40.852  36.072   8.751
  551POPC   D2A10336  41.044  36.295   8.443
  551POPC   C3A10337  40.867  36.114   8.077
  551POPC   C4A10338  40.739  36.274   7.654
  551POPC   C1B10339  40.355  36.012   8.785
  551POPC   C2B10340  40.537  35.851   8.403
  551POPC   C3B10341  40.370  36.038   8.028
  551POPC   C4B10342  40.462  35.861   7.664
  552POPC   NC310343  14.483  10.243   9.513
  552POPC   PO410344  14.380   9.611   9.694
  552POPC   GL110345  14.348   9.600   9.235
  552POPC   GL210346  14.255   9.947   9.117
  552POPC   C1A10347  14.264   9.563   8.775
  552POPC   D2A10348  14.423   9.876   8.460
  552POPC   C3A10349  14.408   9.802   8.031
  552POPC   C4A10350  14.395   9.795   7.564
  552POPC   C1B10351  14.139  10.194   8.735
  552POPC   C2B10352  13.984  10.126   8.275
  552POPC   C3B10353  14.042  10.062   7.805
  552POPC   C4B10354  14.050  10.096   7.298
  553POPC   NC310355  18.611  24.959   9.480
  553POPC   PO410356  19.087  25.377   9.532
  553POPC   GL110357  19.072  25.094   9.196
  553POPC   GL210358  19.387  24.908   9.091
  553POPC   C1A10359  18.835  25.229   8.834
  553POPC   D2A10360  18.993  25.404   8.465
  553POPC   C3A10361  18.901  25.239   8.072
  553POPC   C4A10362  18.791  25.518   7.734
  553POPC   C1B10363  19.366  25.163   8.759
  553POPC   C2B10364  19.490  25.320   8.379
  553POPC   C3B10365  19.453  25.152   7.999
  553POPC   C4B10366  19.218  25.228   7.661
  554POPC   NC310367  42.607   8.762   9.510
  554POPC   PO410368  42.184   9.259   9.486
  554POPC   GL110369  42.269   8.978   9.168
  554POPC   GL210370  42.586   9.111   9.068
  554POPC   C1A10371  42.257   8.911   8.737
  554POPC   D2A10372  42.557   8.970   8.413
  554POPC   C3A10373  42.403   8.775   8.058
  554POPC   C4A10374  42.387   9.039   7.752
  554POPC   C1B10375  42.480   9.400   8.707
  554POPC   C2B10376  42.352   9.433   8.269
  554POPC   C3B10377  42.042   9.330   7.946
  554POPC   C4B10378  42.114   9.371   7.486
  555POPC   NC310379   7.489  41.404   9.550
  555POPC   PO410380   6.919  41.305   9.164
  555POPC   GL110381   7.319  41.371   9.071
  555POPC   GL210382   7.343  41.701   9.125
  555POPC   C1A10383   7.691  41.409   8.818
  555POPC   D2A10384   7.733  41.653   8.416
  555POPC   C3A10385   7.584  41.509   8.022
  555POPC   C4A10386   7.256  41.502   7.720
  555POPC   C1B10387   7.280  41.658   8.661
  555POPC   C2B10388   7.241  41.812   8.269
  555POPC   C3B10389   7.396  41.980   7.908
  555POPC   C4B10390   7.414  41.927   7.480
  556POPC   NC310391   9.173  12.523   9.485
  556POPC   PO410392   9.203  13.257   9.411
  556POPC   GL110393   9.186  12.905   9.144
  556POPC   GL210394   8.861  12.843   9.101
  556POPC   C1A10395   9.250  12.753   8.737
  556POPC   D2A10396   9.281  13.021   8.354
  556POPC   C3A10397   9.202  12.827   7.958
  556POPC   C4A10398   9.331  12.630   7.578
  556POPC   C1B10399   8.734  12.970   8.692
  556POPC   C2B10400   8.744  12.959   8.234
  556POPC   C3B10401   8.718  12.953   7.788
  556POPC   C4B10402   8.579  12.980   7.335
  557POPC   NC310403  25.075  43.346   9.453
  557POPC   PO410404  25.649  43.049   9.775
  557POPC   GL110405  25.408  42.958   9.363
  557POPC   GL210406  25.505  43.270   9.165
  557POPC   C1A10407  25.234  42.912   8.908
  557POPC   D2A10408  25.468  42.951   8.508
  557POPC   C3A10409  25.374  43.127   8.103
  557POPC   C4A10410  25.630  43.095   7.761
  557POPC   C1B10411  25.300  43.419   8.798
  557POPC   C2B10412  25.339  43.575   8.395
  557POPC   C3B10413  25.094  43.565   8.013
  557POPC   C4B10414  25.237  43.387   7.610
  558POPC   NC310415  15.731   4.574   9.450
  558POPC   PO410416  16.110   4.030   9.548
  558POPC   GL110417  15.963   4.211   9.171
  558POPC   GL210418  16.128   4.525   9.136
  558POPC   C1A10419  15.801   4.087   8.762
  558POPC   D2A10420  15.735   4.220   8.321
  558POPC   C3A10421  15.776   4.010   7.910
  558POPC   C4A10422  15.817   4.060   7.444
  558POPC   C1B10423  15.948   4.609   8.778
  558POPC   C2B10424  16.052   4.599   8.349
  558POPC   C3B10425  15.900   4.527   7.920
  558POPC   C4B10426  16.103   4.685   7.542
  559POPC   NC310427  12.437  16.127   9.498
  559POPC   PO410428  13.124  16.292   9.383
  559POPC   GL110429  12.817  16.072   9.126
  559POPC   GL210430  12.474  16.111   9.014
  559POPC   C1A10431  12.834  15.872   8.731
  559POPC   D2A10432  12.716  15.779   8.308
  559POPC   C3A10433  13.057  15.907   8.008
  559POPC   C4A10434  13.175  15.951   7.552
  559POPC   C1B10435  12.397  16.176   8.630
  559POPC   C2B10436  12.244  16.072   8.286
  559POPC   C3B10437  12.494  16.036   7.931
  559POPC   C4B10438  12.813  16.270   7.715
  560POPC   NC310439  30.489   3.302   9.377
  560POPC   PO410440  31.016   3.647   9.310
  560POPC   GL110441  30.661   3.669   9.013
  560POPC   GL210442  30.727   3.336   8.917
  560POPC   C1A10443  30.606   3.652   8.544
  560POPC   D2A10444  30.781   3.297   8.319
  560POPC   C3A10445  30.986   3.487   7.978
  560POPC   C4A10446  30.756   3.691   7.650
  560POPC   C1B10447  30.320   3.266   8.733
  560POPC   C2B10448  30.205   3.371   8.314
  560POPC   C3B10449  30.466   3.346   7.910
  560POPC   C4B10450  30.628   3.240   7.452
  561POPC   NC310451  38.110   8.719   9.613
  561POPC   PO410452  38.632   9.161   9.772
  561POPC   GL110453  38.423   9.046   9.359
  561POPC   GL210454  38.646   8.854   9.136
  561POPC   C1A10455  38.203   9.038   8.933
  561POPC   D2A10456  38.445   9.036   8.535
  561POPC   C3A10457  38.253   9.113   8.107
  561POPC   C4A10458  38.372   9.005   7.693
  561POPC   C1B10459  38.861   8.660   8.785
  561POPC   C2B10460  39.009   8.752   8.383
  561POPC   C3B10461  38.738   8.931   8.102
  561POPC   C4B10462  38.741   8.672   7.775
  562POPC   NC310463  26.332  35.747   9.520
  562POPC   PO410464  25.783  35.208   9.524
  562POPC   GL110465  26.106  35.299   9.231
  562POPC   GL210466  26.186  34.984   9.070
  562POPC   C1A10467  26.120  35.586   8.875
  562POPC   D2A10468  26.008  35.848   8.502
  562POPC   C3A10469  26.073  35.620   8.155
  562POPC   C4A10470  26.006  35.644   7.755
  562POPC   C1B10471  26.253  35.151   8.674
  562POPC   C2B10472  25.873  35.250   8.435
  562POPC   C3B10473  25.920  35.161   7.994
  562POPC   C4B10474  26.380  35.218   7.883
  563POPC   NC310475  18.053  33.904   9.553
  563POPC   PO410476  18.678  33.583   9.472
  563POPC   GL110477  18.391  33.821   9.171
  563POPC   GL210478  18.441  34.174   9.318
  563POPC   C1A10479  18.204  33.722   8.727
  563POPC   D2A10480  17.923  33.656   8.328
  563POPC   C3A10481  18.155  33.728   7.972
  563POPC   C4A10482  18.550  33.640   7.863
  563POPC   C1B10483  18.470  34.214   8.850
  563POPC   C2B10484  18.682  34.209   8.415
  563POPC   C3B10485  18.550  34.136   7.988
  563POPC   C4B10486  18.312  34.077   7.599
  564POPC   NC310487  21.676  24.776   9.513
  564POPC   PO410488  21.325  24.196   9.499
  564POPC   GL110489  21.311  24.256   9.060
  564POPC   GL210490  21.621  24.401   9.122
  564POPC   C1A10491  21.367  24.349   8.596
  564POPC   D2A10492  21.084  24.640   8.332
  564POPC   C3A10493  21.020  24.605   7.876
  564POPC   C4A10494  21.135  24.390   7.468
  564POPC   C1B10495  21.456  24.769   8.862
  564POPC   C2B10496  21.566  24.811   8.408
  564POPC   C3B10497  21.489  24.504   8.069
  564POPC   C4B10498  21.514  24.677   7.677
  565POPC   NC310499  17.062  25.946   9.505
  565POPC   PO410500  17.733  25.883   9.701
  565POPC   GL110501  17.522  25.958   9.284
  565POPC   GL210502  17.448  26.279   9.272
  565POPC   C1A10503  17.468  25.882   8.816
  565POPC   D2A10504  17.651  25.903   8.362
  565POPC   C3A10505  17.516  25.802   7.911
  565POPC   C4A10506  17.743  25.897   7.489
  565POPC   C1B10507  17.690  26.360   8.905
  565POPC   C2B10508  17.749  26.401   8.447
  565POPC   C3B10509  17.616  26.295   8.008
  565POPC   C4B10510  17.475  26.450   7.606
  566POPC   NC310511  27.701  24.716   9.280
  566POPC   PO410512  27.115  24.180   9.280
  566POPC   GL110513  27.330  24.461   9.049
  566POPC   GL210514  27.627  24.263   9.030
  566POPC   C1A10515  27.484  24.563   8.641
  566POPC   D2A10516  27.548  24.371   8.243
  566POPC   C3A10517  27.419  24.548   7.890
  566POPC   C4A10518  27.729  24.797   7.697
  566POPC   C1B10519  27.902  24.278   8.651
  566POPC   C2B10520  28.040  24.477   8.250
  566POPC   C3B10521  27.874  24.323   7.831
  566POPC   C4B10522  27.747  24.009   7.495
  567POPC   NC310523  18.172  14.638   9.481
  567POPC   PO410524  18.528  14.155   9.641
  567POPC   GL110525  18.341  14.121   9.240
  567POPC   GL210526  18.556  14.400   9.206
  567POPC   C1A10527  18.210  14.366   8.850
  567POPC   D2A10528  18.388  14.441   8.451
  567POPC   C3A10529  18.136  14.562   8.121
  567POPC   C4A10530  18.023  14.370   7.735
  567POPC   C1B10531  18.729  14.320   8.834
  567POPC   C2B10532  18.888  14.531   8.471
  567POPC   C3B10533  18.779  14.339   8.097
  567POPC   C4B10534  18.512  14.452   7.774
  568POPC   NC310535  37.548  41.004   9.605
  568POPC   PO410536  38.033  40.594   9.474
  568POPC   GL110537  37.646  40.651   9.162
  568POPC   GL210538  37.514  40.996   9.107
  568POPC   C1A10539  37.456  40.722   8.718
  568POPC   D2A10540  37.620  41.055   8.449
  568POPC   C3A10541  37.425  41.038   8.047
  568POPC   C4A10542  37.307  40.798   7.686
  568POPC   C1B10543  37.915  40.918   8.855
  568POPC   C2B10544  38.091  40.804   8.464
  568POPC   C3B10545  38.049  40.831   8.025
  568POPC   C4B10546  37.788  40.963   7.699
  569POPC   NC310547  41.600  10.223   9.485
  569POPC   PO410548  41.366  10.795   9.475
  569POPC   GL110549  41.513  10.586   9.111
  569POPC   GL210550  41.697  10.255   9.013
  569POPC   C1A10551  41.514  10.612   8.686
  569POPC   D2A10552  41.588  10.503   8.261
  569POPC   C3A10553  41.305  10.467   7.885
  569POPC   C4A10554  41.248  10.362   7.417
  569POPC   C1B10555  41.851  10.177   8.654
  569POPC   C2B10556  41.746  10.028   8.281
  569POPC   C3B10557  41.752  10.192   7.856
  569POPC   C4B10558  41.867  10.647   7.861
  570POPC   NC310559  19.151   7.748   9.551
  570POPC   PO410560  18.839   7.131   9.547
  570POPC   GL110561  18.909   7.305   9.147
  570POPC   GL210562  19.229   7.321   9.076
  570POPC   C1A10563  18.905   7.432   8.699
  570POPC   D2A10564  18.804   7.650   8.323
  570POPC   C3A10565  18.792   7.375   8.004
  570POPC   C4A10566  18.817   7.086   7.678
  570POPC   C1B10567  19.389   7.216   8.678
  570POPC   C2B10568  19.224   7.310   8.276
  570POPC   C3B10569  19.426   7.285   7.881
  570POPC   C4B10570  19.327   7.122   7.502
  571POPC   NC310571  33.475   9.809   9.437
  571POPC   PO410572  34.128   9.723   9.713
  571POPC   GL110573  33.938   9.678   9.277
  571POPC   GL210574  34.025   9.393   9.116
  571POPC   C1A10575  33.765   9.777   8.842
  571POPC   D2A10576  33.563   9.722   8.440
  571POPC   C3A10577  33.635  10.013   8.117
  571POPC   C4A10578  33.838  10.025   7.702
  571POPC   C1B10579  33.876   9.249   8.718
  571POPC   C2B10580  33.766   9.284   8.292
  571POPC   C3B10581  33.783   9.572   7.930
  571POPC   C4B10582  34.007   9.586   7.504
  572POPC   NC310583  44.334  10.483   9.758
  572POPC   PO410584  43.697  10.632   9.573
  572POPC   GL110585  43.869  10.520   9.183
  572POPC   GL210586  44.181  10.343   9.227
  572POPC   C1A10587  43.645  10.472   8.801
  572POPC   D2A10588  43.583  10.676   8.420
  572POPC   C3A10589  43.626  10.420   8.044
  572POPC   C4A10590  43.673  10.525   7.605
  572POPC   C1B10591  44.182  10.391   8.758
  572POPC   C2B10592  44.101  10.295   8.296
  572POPC   C3B10593  44.117  10.443   7.838
  572POPC   C4B10594  44.075  10.346   7.352
  573POPC   NC310595   6.393  29.832   9.400
  573POPC   PO410596   6.986  29.888   9.630
  573POPC   GL110597   6.862  29.694   9.186
  573POPC   GL210598   6.758  29.967   9.081
  573POPC   C1A10599   6.684  29.611   8.760
  573POPC   D2A10600   6.723  29.898   8.405
  573POPC   C3A10601   6.562  29.775   8.013
  573POPC   C4A10602   6.814  29.768   7.648
  573POPC   C1B10603   6.442  30.086   8.807
  573POPC   C2B10604   6.419  30.337   8.468
  573POPC   C3B10605   6.596  30.303   8.070
  573POPC   C4B10606   6.519  30.186   7.683
  574POPC   NC310607  34.992  32.386   9.504
  574POPC   PO410608  34.522  31.857   9.482
  574POPC   GL110609  34.758  31.977   9.171
  574POPC   GL210610  34.622  32.286   9.121
  574POPC   C1A10611  34.677  31.956   8.732
  574POPC   D2A10612  34.795  32.259   8.428
  574POPC   C3A10613  34.720  32.120   8.024
  574POPC   C4A10614  34.971  32.207   7.684
  574POPC   C1B10615  34.265  32.391   8.868
  574POPC   C2B10616  34.300  32.390   8.455
  574POPC   C3B10617  34.207  32.420   8.042
  574POPC   C4B10618  34.481  32.502   7.739
  575POPC   NC310619  13.918  20.644   9.456
  575POPC   PO410620  13.290  20.853   9.458
  575POPC   GL110621  13.446  20.578   9.112
  575POPC   GL210622  13.720  20.320   9.078
  575POPC   C1A10623  13.496  20.660   8.686
  575POPC   D2A10624  13.525  20.497   8.293
  575POPC   C3A10625  13.409  20.723   7.921
  575POPC   C4A10626  13.569  20.820   7.489
  575POPC   C1B10627  13.892  20.326   8.632
  575POPC   C2B10628  14.062  20.417   8.198
  575POPC   C3B10629  13.982  20.627   7.746
  575POPC   C4B10630  13.955  20.585   7.239
  576POPC   NC310631  15.739  16.895   9.632
  576POPC   PO410632  16.259  16.494   9.637
  576POPC   GL110633  16.054  16.698   9.266
  576POPC   GL210634  15.712  16.536   9.249
  576POPC   C1A10635  16.143  16.850   8.825
  576POPC   D2A10636  15.942  16.714   8.397
  576POPC   C3A10637  15.942  16.891   7.955
  576POPC   C4A10638  15.884  16.803   7.469
  576POPC   C1B10639  15.789  16.448   8.816
  576POPC   C2B10640  15.683  16.255   8.408
  576POPC   C3B10641  15.877  16.363   7.992
  576POPC   C4B10642  15.853  16.315   7.545
  577POPC   NC310643  18.558  34.790   9.555
  577POPC   PO410644  18.072  34.345   9.697
  577POPC   GL110645  18.103  34.588   9.319
  577POPC   GL210646  17.962  34.296   9.165
  577POPC   C1A10647  18.340  34.725   8.939
  577POPC   D2A10648  18.332  34.584   8.514
  577POPC   C3A10649  18.214  34.758   8.116
  577POPC   C4A10650  18.360  34.566   7.731
  577POPC   C1B10651  17.930  34.144   8.758
  577POPC   C2B10652  18.167  34.113   8.385
  577POPC   C3B10653  18.040  34.241   8.002
  577POPC   C4B10654  17.818  34.007   7.713
  578POPC   NC310655  13.745  31.647   9.285
  578POPC   PO410656  13.215  31.159   9.316
  578POPC   GL110657  13.551  31.243   9.028
  578POPC   GL210658  13.536  31.542   8.845
  578POPC   C1A10659  13.893  31.191   8.727
  578POPC   D2A10660  13.977  31.541   8.446
  578POPC   C3A10661  13.732  31.422   8.093
  578POPC   C4A10662  13.763  31.422   7.657
  578POPC   C1B10663  13.391  31.331   8.477
  578POPC   C2B10664  13.249  31.636   8.154
  578POPC   C3B10665  13.373  31.767   7.752
  578POPC   C4B10666  13.440  31.665   7.334
  579POPC   NC310667   3.765  35.371   9.500
  579POPC   PO410668   3.056  35.441   9.530
  579POPC   GL110669   3.361  35.524   9.223
  579POPC   GL210670   3.394  35.159   9.210
  579POPC   C1A10671   3.547  35.505   8.804
  579POPC   D2A10672   3.735  35.272   8.449
  579POPC   C3A10673   3.704  35.420   8.044
  579POPC   C4A10674   3.434  35.379   7.708
  579POPC   C1B10675   3.521  35.001   8.826
  579POPC   C2B10676   3.248  35.119   8.486
  579POPC   C3B10677   3.343  35.034   8.096
  579POPC   C4B10678   3.706  34.920   7.887
  580POPC   NC310679  44.174  29.769   9.890
  580POPC   PO410680  44.742  29.749   9.457
  580POPC   GL110681  44.758  29.938   9.083
  580POPC   GL210682  44.590  29.693   8.941
  580POPC   C1A10683  44.872  30.016   8.666
  580POPC   D2A10684  44.971  29.776   8.297
  580POPC   C3A10685  44.965  30.014   7.943
  580POPC   C4A10686  44.711  30.153   7.618
  580POPC   C1B10687  44.242  29.771   8.680
  580POPC   C2B10688  44.099  29.515   8.348
  580POPC   C3B10689  44.370  29.653   8.029
  580POPC   C4B10690  44.699  29.639   7.763
  581POPC   NC310691  27.230  29.703   9.654
  581POPC   PO410692  26.584  29.709   9.464
  581POPC   GL110693  26.745  29.781   9.072
  581POPC   GL210694  26.448  29.762   8.932
  581POPC   C1A10695  26.868  29.827   8.626
  581POPC   D2A10696  26.885  29.923   8.192
  581POPC   C3A10697  27.112  30.105   7.844
  581POPC   C4A10698  27.357  30.455   7.633
  581POPC   C1B10699  26.309  29.672   8.522
  581POPC   C2B10700  26.385  29.775   8.104
  581POPC   C3B10701  26.561  30.071   7.816
  581POPC   C4B10702  26.815  30.454   7.614
  582POPC   NC310703  30.988   4.983   9.821
  582POPC   PO410704  31.466   5.192   9.391
  582POPC   GL110705  31.325   5.146   9.042
  582POPC   GL210706  31.322   4.799   9.047
  582POPC   C1A10707  31.392   5.251   8.643
  582POPC   D2A10708  31.509   5.091   8.253
  582POPC   C3A10709  31.364   5.321   7.927
  582POPC   C4A10710  31.562   5.731   7.954
  582POPC   C1B10711  31.096   4.845   8.709
  582POPC   C2B10712  31.179   4.712   8.344
  582POPC   C3B10713  31.206   4.817   7.951
  582POPC   C4B10714  31.593   4.834   7.779
  583POPC   NC310715   1.903  11.070   9.389
  583POPC   PO410716   2.323  11.450   9.784
  583POPC   GL110717   2.180  11.517   9.283
  583POPC   GL210718   1.869  11.625   9.212
  583POPC   C1A10719   2.040  11.384   8.816
  583POPC   D2A10720   1.948  11.097   8.483
  583POPC   C3A10721   2.191  11.215   8.135
  583POPC   C4A10722   2.122  11.233   7.720
  583POPC   C1B10723   1.704  11.804   8.838
  583POPC   C2B10724   1.708  11.740   8.402
  583POPC   C3B10725   1.822  11.565   8.005
  583POPC   C4B10726   1.912  11.708   7.558
  584POPC   NC310727  22.970  19.604   9.515
  584POPC   PO410728  22.940  20.308   9.487
  584POPC   GL110729  23.055  20.043   9.184
  584POPC   GL210730  22.734  19.894   9.153
  584POPC   C1A10731  22.977  20.117   8.751
  584POPC   D2A10732  23.121  20.072   8.347
  584POPC   C3A10733  22.981  19.745   8.099
  584POPC   C4A10734  23.027  19.932   7.720
  584POPC   C1B10735  22.725  19.665   8.778
  584POPC   C2B10736  22.608  19.918   8.422
  584POPC   C3B10737  22.584  20.015   7.971
  584POPC   C4B10738  22.622  19.606   7.684
  585POPC   NC310739   4.973  37.913   9.397
  585POPC   PO410740   5.407  37.527   9.490
  585POPC   GL110741   5.177  37.567   9.077
  585POPC   GL210742   4.803  37.527   9.085
  585POPC   C1A10743   5.044  37.550   8.636
  585POPC   D2A10744   5.066  37.924   8.385
  585POPC   C3A10745   5.238  37.814   7.987
  585POPC   C4A10746   5.209  37.635   7.611
  585POPC   C1B10747   4.688  37.913   8.800
  585POPC   C2B10748   4.523  37.968   8.379
  585POPC   C3B10749   4.724  37.816   8.005
  585POPC   C4B10750   4.786  37.915   7.587
  586POPC   NC310751  17.983  22.493   9.600
  586POPC   PO410752  18.198  21.939   9.654
  586POPC   GL110753  18.148  22.018   9.222
  586POPC   GL210754  18.239  22.377   9.137
  586POPC   C1A10755  18.337  21.884   8.826
  586POPC   D2A10756  18.305  22.060   8.462
  586POPC   C3A10757  18.403  21.867   8.126
  586POPC   C4A10758  18.184  22.086   7.846
  586POPC   C1B10759  17.939  22.214   8.803
  586POPC   C2B10760  17.853  22.324   8.378
  586POPC   C3B10761  18.034  22.536   8.035
  586POPC   C4B10762  17.956  22.532   7.602
  587POPC   NC310763  38.899  39.361   9.608
  587POPC   PO410764  39.465  38.894   9.569
  587POPC   GL110765  39.208  39.080   9.266
  587POPC   GL210766  39.287  39.445   9.248
  587POPC   C1A10767  39.147  39.075   8.827
  587POPC   D2A10768  38.943  39.059   8.438
  587POPC   C3A10769  39.153  39.271   8.125
  587POPC   C4A10770  39.255  39.206   7.730
  587POPC   C1B10771  39.474  39.480   8.822
  587POPC   C2B10772  39.345  39.667   8.397
  587POPC   C3B10773  39.506  39.622   7.954
  587POPC   C4B10774  39.476  39.588   7.475
  588POPC   NC310775  34.565   5.897   9.981
  588POPC   PO410776  35.041   5.638   9.487
  588POPC   GL110777  34.594   5.682   9.268
  588POPC   GL210778  34.327   5.943   9.275
  588POPC   C1A10779  34.301   5.556   8.900
  588POPC   D2A10780  34.412   5.719   8.485
  588POPC   C3A10781  34.333   5.654   8.075
  588POPC   C4A10782  34.487   5.719   7.640
  588POPC   C1B10783  34.531   6.025   8.864
  588POPC   C2B10784  34.425   6.244   8.490
  588POPC   C3B10785  34.587   6.304   8.087
  588POPC   C4B10786  34.462   6.210   7.658
  589POPC   NC310787  11.813  26.594   9.410
  589POPC   PO410788  12.246  27.090   9.484
  589POPC   GL110789  12.295  26.897   9.102
  589POPC   GL210790  12.356  27.202   8.938
  589POPC   C1A10791  12.220  26.720   8.694
  589POPC   D2A10792  12.338  26.648   8.269
  589POPC   C3A10793  12.014  26.463   8.030
  589POPC   C4A10794  12.006  26.530   7.635
  589POPC   C1B10795  11.895  27.096   8.808
  589POPC   C2B10796  11.812  26.947   8.378
  589POPC   C3B10797  12.012  26.956   7.977
  589POPC   C4B10798  11.832  27.121   7.626
  590POPC   NC310799   2.925  21.588   9.517
  590POPC   PO410800   2.350  21.880   9.419
  590POPC   GL110801   2.550  21.556   9.139
  590POPC   GL210802   2.715  21.208   9.230
  590POPC   C1A10803   2.845  21.488   8.820
  590POPC   D2A10804   2.827  21.608   8.417
  590POPC   C3A10805   2.637  21.417   8.047
  590POPC   C4A10806   2.901  21.580   7.707
  590POPC   C1B10807   2.890  20.980   8.828
  590POPC   C2B10808   2.923  21.100   8.360
  590POPC   C3B10809   3.020  21.085   7.888
  590POPC   C4B10810   3.080  21.210   7.417
  591POPC   NC310811  42.146   3.649   9.602
  591POPC   PO410812  42.594   4.104   9.520
  591POPC   GL110813  42.443   3.742   9.176
  591POPC   GL210814  42.059   3.682   9.112
  591POPC   C1A10815  42.389   3.410   8.804
  591POPC   D2A10816  42.569   3.239   8.393
  591POPC   C3A10817  42.521   3.588   8.090
  591POPC   C4A10818  42.430   3.553   7.668
  591POPC   C1B10819  41.885   3.570   8.702
  591POPC   C2B10820  42.100   3.446   8.343
  591POPC   C3B10821  42.036   3.350   7.913
  591POPC   C4B10822  41.941   3.543   7.495
  592POPC   NC310823  20.148  21.498   9.676
  592POPC   PO410824  19.459  21.359   9.551
  592POPC   GL110825  19.776  21.346   9.254
  592POPC   GL210826  19.892  21.698   9.258
  592POPC   C1A10827  19.899  21.175   8.846
  592POPC   D2A10828  20.037  21.032   8.448
  592POPC   C3A10829  19.839  21.158   8.071
  592POPC   C4A10830  20.029  21.105   7.653
  592POPC   C1B10831  19.742  21.681   8.852
  592POPC   C2B10832  19.836  21.524   8.456
  592POPC   C3B10833  19.736  21.700   8.083
  592POPC   C4B10834  19.753  21.529   7.712
  593POPC   NC310835   4.109  11.993   9.338
  593POPC   PO410836   4.584  12.301   9.545
  593POPC   GL110837   4.432  12.366   9.160
  593POPC   GL210838   4.071  12.475   9.201
  593POPC   C1A10839   4.501  12.122   8.753
  593POPC   D2A10840   4.343  11.980   8.332
  593POPC   C3A10841   4.547  12.014   7.916
  593POPC   C4A10842   4.445  11.809   7.503
  593POPC   C1B10843   4.164  12.529   8.774
  593POPC   C2B10844   3.994  12.397   8.400
  593POPC   C3B10845   4.157  12.355   8.007
  593POPC   C4B10846   4.048  12.052   7.709
  594POPC   NC310847  11.067  15.601   9.799
  594POPC   PO410848  11.582  15.230   9.483
  594POPC   GL110849  11.296  15.039   9.220
  594POPC   GL210850  11.534  14.928   8.994
  594POPC   C1A10851  11.111  15.222   8.844
  594POPC   D2A10852  11.070  15.435   8.447
  594POPC   C3A10853  11.365  15.358   8.130
  594POPC   C4A10854  11.201  15.208   7.761
  594POPC   C1B10855  11.437  14.949   8.555
  594POPC   C2B10856  11.173  14.897   8.221
  594POPC   C3B10857  11.329  14.732   7.848
  594POPC   C4B10858  11.512  14.610   7.455
  595POPC   NC310859  19.820  22.793   9.619
  595POPC   PO410860  19.724  23.480   9.510
  595POPC   GL110861  19.802  23.285   9.123
  595POPC   GL210862  19.887  22.937   9.140
  595POPC   C1A10863  19.824  23.124   8.678
  595POPC   D2A10864  20.095  22.954   8.356
  595POPC   C3A10865  19.847  23.053   8.010
  595POPC   C4A10866  20.034  23.338   7.741
  595POPC   C1B10867  20.127  22.696   8.817
  595POPC   C2B10868  20.111  22.411   8.436
  595POPC   C3B10869  19.969  22.463   7.990
  595POPC   C4B10870  19.595  22.629   7.783
  596POPC   NC310871  40.287  23.945   9.511
  596POPC   PO410872  39.779  24.567   9.386
  596POPC   GL110873  39.970  24.504   9.010
  596POPC   GL210874  40.143  24.184   8.962
  596POPC   C1A10875  40.055  24.623   8.640
  596POPC   D2A10876  40.022  24.339   8.341
  596POPC   C3A10877  40.039  24.612   8.036
  596POPC   C4A10878  39.729  24.704   7.761
  596POPC   C1B10879  40.439  24.267   8.645
  596POPC   C2B10880  40.522  24.347   8.237
  596POPC   C3B10881  40.251  24.170   7.900
  596POPC   C4B10882  40.167  24.434   7.556
  597POPC   NC310883   6.016  24.644   9.361
  597POPC   PO410884   5.587  24.177   9.370
  597POPC   GL110885   5.770  24.321   8.998
  597POPC   GL210886   5.767  24.715   8.938
  597POPC   C1A10887   5.701  24.375   8.570
  597POPC   D2A10888   5.721  24.731   8.342
  597POPC   C3A10889   5.774  24.523   7.976
  597POPC   C4A10890   5.523  24.532   7.619
  597POPC   C1B10891   6.146  24.664   8.687
  597POPC   C2B10892   6.228  24.499   8.298
  597POPC   C3B10893   6.226  24.767   7.954
  597POPC   C4B10894   6.108  24.596   7.583
  598POPC   NC310895   6.545  19.360   9.597
  598POPC   PO410896   6.742  18.814   9.576
  598POPC   GL110897   6.735  19.014   9.155
  598POPC   GL210898   6.816  19.369   9.169
  598POPC   C1A10899   6.769  18.864   8.711
  598POPC   D2A10900   6.799  18.564   8.379
  598POPC   C3A10901   6.975  18.747   8.013
  598POPC   C4A10902   6.737  18.814   7.632
  598POPC   C1B10903   6.967  19.345   8.747
  598POPC   C2B10904   6.725  19.241   8.353
  598POPC   C3B10905   6.828  19.254   7.924
  598POPC   C4B10906   6.798  19.306   7.470
  599POPC   NC310907  34.580   6.825   9.463
  599POPC   PO410908  34.627   6.207   9.640
  599POPC   GL110909  34.590   6.382   9.197
  599POPC   GL210910  34.290   6.494   9.098
  599POPC   C1A10911  34.688   6.573   8.771
  599POPC   D2A10912  34.623   6.984   8.523
  599POPC   C3A10913  34.614   6.971   8.064
  599POPC   C4A10914  34.817   6.646   7.794
  599POPC   C1B10915  34.206   6.723   8.707
  599POPC   C2B10916  34.247   6.673   8.249
  599POPC   C3B10917  34.322   6.672   7.741
  599POPC   C4B10918  34.191   6.670   7.293
  600POPC   NC310919  44.890  31.966   9.386
  600POPC   PO410920  44.511  31.470   9.598
  600POPC   GL110921  44.657  31.503   9.186
  600POPC   GL210922  44.480  31.776   9.083
  600POPC   C1A10923  44.550  31.351   8.762
  600POPC   D2A10924  44.688  31.086   8.422
  600POPC   C3A10925  44.534  31.299   8.076
  600POPC   C4A10926  44.726  31.427   7.733
  600POPC   C1B10927  44.798  31.815   8.744
  600POPC   C2B10928  44.841  31.673   8.306
  600POPC   C3B10929  44.756  31.902   7.893
  600POPC   C4B10930  44.380  31.983   7.630
  601POPC   NC310931  30.503  22.030   9.547
  601POPC   PO410932  30.604  22.671   9.512
  601POPC   GL110933  30.468  22.407   9.163
  601POPC   GL210934  30.610  22.087   9.057
  601POPC   C1A10935  30.496  22.503   8.733
  601POPC   D2A10936  30.489  22.721   8.347
  601POPC   C3A10937  30.689  22.450   8.076
  601POPC   C4A10938  30.891  22.239   7.793
  601POPC   C1B10939  30.531  21.827   8.716
  601POPC   C2B10940  30.608  21.853   8.299
  601POPC   C3B10941  30.479  21.961   7.916
  601POPC   C4B10942  30.655  21.826   7.544
  602POPC   NC310943  42.379  34.128   9.710
  602POPC   PO410944  41.873  33.748   9.604
  602POPC   GL110945  42.097  33.685   9.207
  602POPC   GL210946  42.427  33.505   9.298
  602POPC   C1A10947  42.098  33.846   8.751
  602POPC   D2A10948  41.948  33.788   8.304
  602POPC   C3A10949  42.224  33.888   7.939
  602POPC   C4A10950  42.387  34.130   7.584
  602POPC   C1B10951  42.523  33.544   8.848
  602POPC   C2B10952  42.457  33.680   8.417
  602POPC   C3B10953  42.609  33.558   8.016
  602POPC   C4B10954  42.442  33.534   7.618
  603POPC   NC310955  37.611  29.958   9.405
  603POPC   PO410956  38.158  29.608   9.517
  603POPC   GL110957  38.032  29.773   9.109
  603POPC   GL210958  37.735  29.935   8.936
  603POPC   C1A10959  38.161  29.931   8.692
  603POPC   D2A10960  38.059  30.137   8.307
  603POPC   C3A10961  37.889  29.902   7.963
  603POPC   C4A10962  37.775  30.051   7.581
  603POPC   C1B10963  37.341  30.119   8.794
  603POPC   C2B10964  37.314  30.180   8.364
  603POPC   C3B10965  37.387  30.134   7.930
  603POPC   C4B10966  37.371  29.750   7.678
  604POPC   NC310967   3.158  10.086   9.523
  604POPC   PO410968   3.537   9.598   9.574
  604POPC   GL110969   3.580   9.847   9.198
  604POPC   GL210970   3.901  10.005   9.144
  604POPC   C1A10971   3.621   9.685   8.786
  604POPC   D2A10972   3.510   9.411   8.437
  604POPC   C3A10973   3.346   9.500   8.030
  604POPC   C4A10974   3.483   9.590   7.630
  604POPC   C1B10975   3.692  10.201   8.776
  604POPC   C2B10976   3.734  10.116   8.324
  604POPC   C3B10977   3.555  10.022   7.918
  604POPC   C4B10978   3.817  10.122   7.547
  605POPC   NC310979   3.480  34.423   9.644
  605POPC   PO410980   3.627  33.809   9.791
  605POPC   GL110981   3.578  33.824   9.285
  605POPC   GL210982   3.404  34.161   9.205
  605POPC   C1A10983   3.555  33.829   8.839
  605POPC   D2A10984   3.344  33.864   8.456
  605POPC   C3A10985   3.466  33.681   8.110
  605POPC   C4A10986   3.635  33.848   7.768
  605POPC   C1B10987   3.171  34.190   8.834
  605POPC   C2B10988   3.013  34.232   8.391
  605POPC   C3B10989   3.252  34.132   8.002
  605POPC   C4B10990   3.325  34.132   7.508
  606POPC   NC310991  40.172  22.208   9.475
  606POPC   PO410992  39.598  21.931   9.624
  606POPC   GL110993  39.728  22.129   9.204
  606POPC   GL210994  40.049  22.071   9.003
  606POPC   C1A10995  39.637  22.239   8.750
  606POPC   D2A10996  39.579  22.033   8.315
  606POPC   C3A10997  39.726  22.248   7.970
  606POPC   C4A10998  40.109  22.181   7.822
  606POPC   C1B10999  40.112  22.447   8.745
  606POPC   C2B11000  40.102  22.502   8.283
  606POPC   C3B11001  40.398  22.588   7.923
  606POPC   C4B11002  40.354  22.424   7.456
  607POPC   NC311003   6.123  44.253   9.476
  607POPC   PO411004   6.642  43.892   9.770
  607POPC   GL111005   6.599  44.051   9.361
  607POPC   GL211006   6.507  43.793   9.170
  607POPC   C1A11007   6.788  44.143   8.936
  607POPC   D2A11008   6.648  44.335   8.561
  607POPC   C3A11009   6.562  44.067   8.219
  607POPC   C4A11010   6.802  44.035   7.867
  607POPC   C1B11011   6.386  43.876   8.733
  607POPC   C2B11012   6.196  43.662   8.390
  607POPC   C3B11013   6.315  43.609   7.954
  607POPC   C4B11014   6.447  43.832   7.589
  608POPC   NC311015  27.141  35.657   9.405
  608POPC   PO411016  26.655  36.152   9.530
  608POPC   GL111017  26.710  36.185   9.119
  608POPC   GL211018  26.734  35.823   9.107
  608POPC   C1A11019  26.729  36.374   8.695
  608POPC   D2A11020  26.942  36.282   8.310
  608POPC   C3A11021  26.739  36.207   7.927
  608POPC   C4A11022  27.014  36.251   7.571
  608POPC   C1B11023  26.956  35.904   8.712
  608POPC   C2B11024  26.977  35.752   8.286
  608POPC   C3B11025  27.078  35.827   7.864
  608POPC   C4B11026  27.178  35.809   7.399
  609POPC   NC311027  17.845  35.410   9.498
  609POPC   PO411028  17.366  35.013   9.459
  609POPC   GL111029  17.564  35.232   9.129
  609POPC   GL211030  17.933  35.103   9.087
  609POPC   C1A11031  17.658  35.611   8.856
  609POPC   D2A11032  17.762  35.571   8.403
  609POPC   C3A11033  17.413  35.502   8.114
  609POPC   C4A11034  17.230  35.577   7.724
  609POPC   C1B11035  17.756  35.129   8.692
  609POPC   C2B11036  17.603  34.986   8.363
  609POPC   C3B11037  17.766  35.136   8.038
  609POPC   C4B11038  17.506  35.129   7.680
  610POPC   NC311039  33.397  25.721   9.495
  610POPC   PO411040  33.982  26.161   9.623
  610POPC   GL111041  33.932  26.012   9.226
  610POPC   GL211042  33.588  26.100   9.202
  610POPC   C1A11043  34.089  25.881   8.825
  610POPC   D2A11044  33.914  26.034   8.466
  610POPC   C3A11045  34.115  25.971   8.087
  610POPC   C4A11046  33.961  25.922   7.671
  610POPC   C1B11047  33.581  25.814   8.861
  610POPC   C2B11048  33.550  25.700   8.444
  610POPC   C3B11049  33.600  25.887   8.055
  610POPC   C4B11050  33.320  25.902   7.743
  611POPC   NC311051  22.637  37.271   9.353
  611POPC   PO411052  23.034  36.713   9.509
  611POPC   GL111053  22.900  36.599   9.102
  611POPC   GL211054  23.038  36.925   9.027
  611POPC   C1A11055  22.784  36.710   8.650
  611POPC   D2A11056  22.864  36.958   8.257
  611POPC   C3A11057  22.806  36.792   7.874
  611POPC   C4A11058  23.022  36.790   7.476
  611POPC   C1B11059  22.959  37.209   8.692
  611POPC   C2B11060  23.213  37.311   8.339
  611POPC   C3B11061  23.278  37.080   7.959
  611POPC   C4B11062  23.352  37.180   7.538
  612POPC   NC311063  13.682  13.080   9.361
  612POPC   PO411064  13.657  12.422   9.366
  612POPC   GL111065  13.705  12.684   9.011
  612POPC   GL211066  13.395  12.877   8.992
  612POPC   C1A11067  13.752  12.881   8.599
  612POPC   D2A11068  13.996  12.911   8.242
  612POPC   C3A11069  13.903  12.644   7.910
  612POPC   C4A11070  13.761  12.854   7.534
  612POPC   C1B11071  13.335  12.597   8.646
  612POPC   C2B11072  13.471  12.643   8.233
  612POPC   C3B11073  13.457  12.973   7.936
  612POPC   C4B11074  13.175  12.981   7.590
  613POPC   NC311075   5.120  26.523   9.483
  613POPC   PO411076   4.791  27.157   9.484
  613POPC   GL111077   5.062  26.923   9.174
  613POPC   GL211078   4.820  26.710   9.122
  613POPC   C1A11079   5.236  26.697   8.796
  613POPC   D2A11080   5.086  26.547   8.366
  613POPC   C3A11081   5.013  26.874   8.052
  613POPC   C4A11082   5.260  27.120   7.773
  613POPC   C1B11083   4.723  26.555   8.746
  613POPC   C2B11084   4.583  26.761   8.396
  613POPC   C3B11085   4.546  26.651   7.966
  613POPC   C4B11086   4.789  26.581   7.589
  614POPC   NC311087  40.764  26.351   9.539
  614POPC   PO411088  40.964  25.677   9.553
  614POPC   GL111089  40.842  25.990   9.203
  614POPC   GL211090  40.589  26.224   9.083
  614POPC   C1A11091  40.964  25.985   8.777
  614POPC   D2A11092  40.987  25.809   8.363
  614POPC   C3A11093  41.024  25.980   7.975
  614POPC   C4A11094  40.922  26.101   7.536
  614POPC   C1B11095  40.471  25.991   8.714
  614POPC   C2B11096  40.447  25.829   8.290
  614POPC   C3B11097  40.543  25.872   7.846
  614POPC   C4B11098  40.550  25.776   7.369
  615POPC   NC311099  38.503   6.568   9.677
  615POPC   PO411100  38.096   7.133   9.514
  615POPC   GL111101  38.439   6.853   9.275
  615POPC   GL211102  38.339   6.498   9.205
  615POPC   C1A11103  38.420   6.810   8.812
  615POPC   D2A11104  38.509   6.948   8.394
  615POPC   C3A11105  38.450   6.627   8.078
  615POPC   C4A11106  38.483   6.768   7.679
  615POPC   C1B11107  38.614   6.329   8.884
  615POPC   C2B11108  38.706   6.333   8.453
  615POPC   C3B11109  38.666   6.139   8.061
  615POPC   C4B11110  38.355   6.151   7.763
  616POPC   NC311111  15.764  23.160   9.645
  616POPC   PO411112  16.317  23.255   9.812
  616POPC   GL111113  16.247  23.180   9.313
  616POPC   GL211114  16.285  22.845   9.197
  616POPC   C1A11115  16.203  23.162   8.787
  616POPC   D2A11116  16.202  23.029   8.302
  616POPC   C3A11117  16.031  23.199   7.938
  616POPC   C4A11118  16.260  23.175   7.571
  616POPC   C1B11119  16.328  22.659   8.809
  616POPC   C2B11120  15.947  22.679   8.552
  616POPC   C3B11121  15.851  22.695   8.111
  616POPC   C4B11122  16.165  22.692   7.805
  617POPC   NC311123  12.248   4.542   9.448
  617POPC   PO411124  12.124   3.977   9.725
  617POPC   GL111125  11.907   4.236   9.252
  617POPC   GL211126  12.176   4.440   8.977
  617POPC   C1A11127  11.813   4.128   8.822
  617POPC   D2A11128  12.078   4.134   8.464
  617POPC   C3A11129  11.986   4.076   8.041
  617POPC   C4A11130  12.314   3.999   7.737
  617POPC   C1B11131  11.942   4.716   8.797
  617POPC   C2B11132  11.881   4.627   8.425
  617POPC   C3B11133  12.086   4.602   8.083
  617POPC   C4B11134  11.918   4.450   7.716
  618POPC   NC311135   7.946  13.017   9.863
  618POPC   PO411136   8.513  12.784   9.457
  618POPC   GL111137   8.342  12.797   9.058
  618POPC   GL211138   7.964  12.789   9.085
  618POPC   C1A11139   8.210  13.081   8.748
  618POPC   D2A11140   7.956  13.013   8.401
  618POPC   C3A11141   8.239  13.129   8.092
  618POPC   C4A11142   8.203  12.983   7.702
  618POPC   C1B11143   7.829  12.579   8.693
  618POPC   C2B11144   7.891  12.520   8.238
  618POPC   C3B11145   7.750  12.788   7.905
  618POPC   C4B11146   7.662  12.654   7.458
  619POPC   NC311147  42.407  38.054   9.508
  619POPC   PO411148  41.920  38.323   9.164
  619POPC   GL111149  42.333  38.345   9.074
  619POPC   GL211150  42.384  38.691   9.176
  619POPC   C1A11151  42.425  38.335   8.654
  619POPC   D2A11152  42.229  38.489   8.311
  619POPC   C3A11153  42.460  38.411   7.961
  619POPC   C4A11154  42.137  38.225   7.735
  619POPC   C1B11155  42.516  38.843   8.775
  619POPC   C2B11156  42.663  38.747   8.357
  619POPC   C3B11157  42.538  38.948   7.979
  619POPC   C4B11158  42.521  38.946   7.526
  620POPC   NC311159  22.993  33.945   9.642
  620POPC   PO411160  22.461  33.501   9.512
  620POPC   GL111161  22.839  33.568   9.245
  620POPC   GL211162  22.934  33.920   9.122
  620POPC   C1A11163  23.006  33.521   8.817
  620POPC   D2A11164  22.882  33.712   8.426
  620POPC   C3A11165  23.089  33.628   8.006
  620POPC   C4A11166  23.197  33.985   7.729
  620POPC   C1B11167  22.986  34.201   8.737
  620POPC   C2B11168  22.882  34.229   8.300
  620POPC   C3B11169  22.682  33.946   8.020
  620POPC   C4B11170  22.702  33.901   7.599
  621POPC   NC311171  19.300  23.611   9.388
  621POPC   PO411172  18.653  23.515   9.430
  621POPC   GL111173  18.869  23.747   9.128
  621POPC   GL211174  19.012  24.059   9.300
  621POPC   C1A11175  19.179  23.664   8.764
  621POPC   D2A11176  19.308  23.610   8.342
  621POPC   C3A11177  18.947  23.496   8.093
  621POPC   C4A11178  18.981  23.283   7.693
  621POPC   C1B11179  19.024  24.139   8.858
  621POPC   C2B11180  18.882  23.951   8.455
  621POPC   C3B11181  19.033  24.009   8.039
  621POPC   C4B11182  18.917  23.794   7.671
  622POPC   NC311183  22.050  34.309   9.611
  622POPC   PO411184  22.192  34.996   9.646
  622POPC   GL111185  22.173  34.714   9.312
  622POPC   GL211186  22.376  34.444   9.166
  622POPC   C1A11187  22.123  34.763   8.882
  622POPC   D2A11188  22.188  34.708   8.452
  622POPC   C3A11189  21.950  34.505   8.151
  622POPC   C4A11190  21.929  34.633   7.738
  622POPC   C1B11191  22.188  34.271   8.753
  622POPC   C2B11192  22.366  34.243   8.300
  622POPC   C3B11193  22.307  34.219   7.797
  622POPC   C4B11194  22.239  33.954   7.399
  623POPC   NC311195  41.773  24.795   9.792
  623POPC   PO411196  41.389  24.303   9.520
  623POPC   GL111197  41.689  24.584   9.310
  623POPC   GL211198  41.871  24.336   9.157
  623POPC   C1A11199  41.684  24.736   8.875
  623POPC   D2A11200  41.478  24.580   8.475
  623POPC   C3A11201  41.721  24.675   8.113
  623POPC   C4A11202  41.664  24.611   7.682
  623POPC   C1B11203  41.609  24.200   8.818
  623POPC   C2B11204  41.794  24.116   8.411
  623POPC   C3B11205  41.630  24.200   8.021
  623POPC   C4B11206  41.548  24.102   7.607
  624POPC   NC311207  15.483  13.674   9.446
  624POPC   PO411208  14.935  13.295   9.594
  624POPC   GL111209  14.893  13.456   9.170
  624POPC   GL211210  15.121  13.736   9.112
  624POPC   C1A11211  15.156  13.325   8.803
  624POPC   D2A11212  15.329  13.138   8.422
  624POPC   C3A11213  15.256  13.415   8.056
  624POPC   C4A11214  15.078  13.661   7.682
  624POPC   C1B11215  15.415  13.813   8.751
  624POPC   C2B11216  15.519  13.989   8.319
  624POPC   C3B11217  15.521  13.835   7.863
  624POPC   C4B11218  15.458  13.803   7.348
  625POPC   NC311219  16.918  34.952   9.532
  625POPC   PO411220  16.502  35.417   9.758
  625POPC   GL111221  16.534  35.365   9.295
  625POPC   GL211222  16.355  35.625   9.153
  625POPC   C1A11223  16.685  35.276   8.866
  625POPC   D2A11224  16.718  35.085   8.441
  625POPC   C3A11225  16.777  35.323   8.046
  625POPC   C4A11226  16.996  35.085   7.763
  625POPC   C1B11227  16.220  35.472   8.766
  625POPC   C2B11228  16.416  35.511   8.374
  625POPC   C3B11229  16.428  35.746   7.969
  625POPC   C4B11230  16.406  35.776   7.476
  626POPC   NC311231  19.355  36.056   9.781
  626POPC   PO411232  19.000  35.811   9.242
  626POPC   GL111233  18.982  36.121   9.043
  626POPC   GL211234  19.273  36.268   9.147
  626POPC   C1A11235  18.728  36.171   8.678
  626POPC   D2A11236  18.865  36.267   8.266
  626POPC   C3A11237  18.888  36.002   7.918
  626POPC   C4A11238  19.045  36.135   7.525
  626POPC   C1B11239  19.216  36.374   8.697
  626POPC   C2B11240  19.295  36.631   8.362
  626POPC   C3B11241  19.396  36.512   7.984
  626POPC   C4B11242  19.338  36.550   7.582
  627POPC   NC311243   8.673  15.665   9.423
  627POPC   PO411244   9.337  15.953   9.584
  627POPC   GL111245   9.014  16.063   9.258
  627POPC   GL211246   9.037  15.799   9.084
  627POPC   C1A11247   9.080  16.210   8.794
  627POPC   D2A11248   9.155  15.946   8.438
  627POPC   C3A11249   9.058  16.159   8.092
  627POPC   C4A11250   8.978  16.174   7.676
  627POPC   C1B11251   8.718  15.865   8.792
  627POPC   C2B11252   8.650  15.962   8.400
  627POPC   C3B11253   8.618  15.784   8.029
  627POPC   C4B11254   8.580  15.728   7.634
  628POPC   NC311255   0.760  33.992   9.522
  628POPC   PO411256   0.281  33.557   9.511
  628POPC   GL111257   0.293  33.770   9.125
  628POPC   GL211258   0.426  34.073   9.120
  628POPC   C1A11259   0.369  33.770   8.684
  628POPC   D2A11260   0.150  33.702   8.303
  628POPC   C3A11261   0.416  33.826   7.973
  628POPC   C4A11262   0.407  33.980   7.559
  628POPC   C1B11263   0.733  34.129   8.787
  628POPC   C2B11264   0.742  34.019   8.343
  628POPC   C3B11265   1.011  33.983   7.975
  628POPC   C4B11266   0.865  33.701   7.660
  629POPC   NC311267   0.135  44.794   9.382
  629POPC   PO411268   0.786  44.486   9.505
  629POPC   GL111269   0.563  44.579   9.135
  629POPC   GL211270   0.310  44.311   9.059
  629POPC   C1A11271   0.542  44.560   8.690
  629POPC   D2A11272   0.809  44.516   8.327
  629POPC   C3A11273   0.555  44.645   8.024
  629POPC   C4A11274   0.443  44.534   7.657
  629POPC   C1B11275   0.036  44.591   8.784
  629POPC   C2B11276   0.106  44.868   8.419
  629POPC   C3B11277   0.050  44.767   7.986
  629POPC   C4B11278  44.920  44.469   7.684
  630POPC   NC311279  44.821  23.428   9.898
  630POPC   PO411280  44.346  23.038   9.581
  630POPC   GL111281  44.605  23.082   9.221
  630POPC   GL211282  44.925  23.254   9.238
  630POPC   C1A11283  44.527  23.035   8.805
  630POPC   D2A11284  44.528  23.187   8.383
  630POPC   C3A11285  44.362  22.836   8.145
  630POPC   C4A11286  44.469  22.480   7.923
  630POPC   C1B11287   0.019  22.910   8.947
  630POPC   C2B11288  44.889  22.806   8.519
  630POPC   C3B11289  44.944  23.019   8.135
  630POPC   C4B11290  44.764  22.867   7.799
  631POPC   NC311291  37.239  39.203   9.494
  631POPC   PO411292  36.628  39.557   9.595
  631POPC   GL111293  36.886  39.480   9.255
  631POPC   GL211294  36.761  39.131   9.186
  631POPC   C1A11295  37.055  39.357   8.853
  631POPC   D2A11296  36.813  39.314   8.478
  631POPC   C3A11297  36.804  39.502   8.080
  631POPC   C4A11298  37.133  39.504   7.779
  631POPC   C1B11299  36.808  38.892   8.797
  631POPC   C2B11300  36.971  38.823   8.422
  631POPC   C3B11301  36.955  39.023   8.054
  631POPC   C4B11302  36.884  38.880   7.665
  632POPC   NC311303  29.888  13.387   9.651
  632POPC   PO411304  30.154  13.892   9.420
  632POPC   GL111305  30.005  13.811   9.075
  632POPC   GL211306  29.797  13.536   9.166
  632POPC   C1A11307  30.116  13.850   8.672
  632POPC   D2A11308  29.847  13.710   8.359
  632POPC   C3A11309  29.941  13.514   8.013
  632POPC   C4A11310  30.124  13.808   7.788
  632POPC   C1B11311  29.572  13.667   8.803
  632POPC   C2B11312  29.390  13.514   8.434
  632POPC   C3B11313  29.378  13.636   8.036
  632POPC   C4B11314  29.550  13.530   7.687
  633POPC   NC311315   7.870  15.736   9.766
  633POPC   PO411316   8.355  16.131   9.521
  633POPC   GL111317   8.355  16.037   9.106
  633POPC   GL211318   8.269  15.701   9.064
  633POPC   C1A11319   8.203  16.033   8.672
  633POPC   D2A11320   8.170  15.817   8.276
  633POPC   C3A11321   8.164  16.006   7.896
  633POPC   C4A11322   7.969  16.078   7.520
  633POPC   C1B11323   7.990  15.574   8.693
  633POPC   C2B11324   7.673  15.773   8.372
  633POPC   C3B11325   7.755  15.671   7.922
  633POPC   C4B11326   8.176  15.500   7.840
  634POPC   NC311327  14.466   8.763   9.535
  634POPC   PO411328  14.987   9.181   9.540
  634POPC   GL111329  14.661   9.098   9.192
  634POPC   GL211330  14.272   9.081   9.181
  634POPC   C1A11331  14.579   9.130   8.758
  634POPC   D2A11332  14.673   8.970   8.350
  634POPC   C3A11333  14.593   9.329   8.155
  634POPC   C4A11334  14.417   9.343   7.783
  634POPC   C1B11335  14.146   8.881   8.785
  634POPC   C2B11336  14.163   9.109   8.394
  634POPC   C3B11337  14.226   8.912   7.991
  634POPC   C4B11338  14.017   9.045   7.623
  635POPC   NC311339  12.714  36.848   9.458
  635POPC   PO411340  13.225  36.452   9.254
  635POPC   GL111341  12.959  36.655   9.027
  635POPC   GL211342  13.070  36.984   9.103
  635POPC   C1A11343  12.891  36.492   8.641
  635POPC   D2A11344  12.834  36.747   8.318
  635POPC   C3A11345  12.937  36.558   7.961
  635POPC   C4A11346  12.953  36.864   7.710
  635POPC   C1B11347  12.864  37.125   8.742
  635POPC   C2B11348  12.598  37.204   8.412
  635POPC   C3B11349  12.775  37.211   8.024
  635POPC   C4B11350  12.624  37.221   7.579
  636POPC   NC311351   4.794  28.846   9.505
  636POPC   PO411352   5.208  29.385   9.419
  636POPC   GL111353   5.109  29.070   9.147
  636POPC   GL211354   5.263  28.751   9.198
  636POPC   C1A11355   5.016  29.173   8.746
  636POPC   D2A11356   5.036  29.406   8.402
  636POPC   C3A11357   4.800  29.444   8.066
  636POPC   C4A11358   5.071  29.281   7.719
  636POPC   C1B11359   5.086  28.670   8.780
  636POPC   C2B11360   5.032  28.849   8.347
  636POPC   C3B11361   5.191  28.817   7.938
  636POPC   C4B11362   5.224  28.790   7.506
  637POPC   NC311363  31.532  20.525   9.490
  637POPC   PO411364  31.652  21.205   9.514
  637POPC   GL111365  31.565  20.931   9.156
  637POPC   GL211366  31.275  21.092   9.031
  637POPC   C1A11367  31.594  20.584   8.816
  637POPC   D2A11368  31.448  20.291   8.469
  637POPC   C3A11369  31.568  20.415   8.040
  637POPC   C4A11370  31.668  20.857   7.965
  637POPC   C1B11371  31.184  20.882   8.711
  637POPC   C2B11372  31.357  20.816   8.358
  637POPC   C3B11373  31.163  20.711   7.986
  637POPC   C4B11374  31.321  20.605   7.607
  638POPC   NC311375  10.904  14.707   9.519
  638POPC   PO411376  10.481  14.105   9.496
  638POPC   GL111377  10.615  14.361   9.164
  638POPC   GL211378  10.378  14.554   9.151
  638POPC   C1A11379  10.646  14.481   8.710
  638POPC   D2A11380  10.675  14.735   8.318
  638POPC   C3A11381  10.496  14.480   7.957
  638POPC   C4A11382  10.603  14.027   7.854
  638POPC   C1B11383  10.156  14.448   8.779
  638POPC   C2B11384   9.997  14.339   8.357
  638POPC   C3B11385  10.066  14.204   7.915
  638POPC   C4B11386  10.281  14.234   7.503
  639POPC   NC311387  14.640  11.228   9.546
  639POPC   PO411388  13.927  11.211   9.544
  639POPC   GL111389  14.219  11.161   9.177
  639POPC   GL211390  14.551  11.362   9.070
  639POPC   C1A11391  14.191  11.267   8.745
  639POPC   D2A11392  14.536  11.333   8.466
  639POPC   C3A11393  14.240  11.392   8.149
  639POPC   C4A11394  14.005  11.185   7.825
  639POPC   C1B11395  14.637  10.979   8.871
  639POPC   C2B11396  14.738  10.838   8.453
  639POPC   C3B11397  14.488  10.932   8.115
  639POPC   C4B11398  14.553  11.214   7.780
  640POPC   NC311399  16.473  17.572   9.575
  640POPC   PO411400  17.106  17.837   9.515
  640POPC   GL111401  17.014  17.604   9.135
  640POPC   GL211402  16.678  17.623   9.117
  640POPC   C1A11403  17.023  17.302   8.767
  640POPC   D2A11404  16.930  17.076   8.369
  640POPC   C3A11405  16.924  17.382   8.022
  640POPC   C4A11406  16.887  17.273   7.580
  640POPC   C1B11407  16.426  17.324   8.909
  640POPC   C2B11408  16.565  17.375   8.515
  640POPC   C3B11409  16.462  17.584   8.174
  640POPC   C4B11410  16.483  17.552   7.738
  641POPC   NC311411  12.368  19.738   9.520
  641POPC   PO411412  12.960  19.973   9.421
  641POPC   GL111413  12.723  19.794   9.123
  641POPC   GL211414  13.003  19.598   8.987
  641POPC   C1A11415  12.783  19.943   8.709
  641POPC   D2A11416  13.085  19.735   8.446
  641POPC   C3A11417  12.913  19.744   8.034
  641POPC   C4A11418  12.735  20.126   7.857
  641POPC   C1B11419  12.672  19.427   8.748
  641POPC   C2B11420  12.526  19.391   8.348
  641POPC   C3B11421  12.370  19.508   7.995
  641POPC   C4B11422  12.665  19.420   7.735
  642POPC   NC311423  38.265  38.664   9.941
  642POPC   PO411424  38.622  38.459   9.427
  642POPC   GL111425  38.474  38.374   9.029
  642POPC   GL211426  38.620  38.075   8.979
  642POPC   C1A11427  38.451  38.407   8.574
  642POPC   D2A11428  38.242  38.759   8.359
  642POPC   C3A11429  38.180  38.658   7.939
  642POPC   C4A11430  38.000  38.292   7.760
  642POPC   C1B11431  38.889  38.137   8.679
  642POPC   C2B11432  38.774  37.855   8.359
  642POPC   C3B11433  38.715  37.961   7.957
  642POPC   C4B11434  38.534  38.317   7.794
  643POPC   NC311435  18.367  15.618   9.478
  643POPC   PO411436  17.986  16.218   9.468
  643POPC   GL111437  18.208  16.040   9.142
  643POPC   GL211438  18.584  16.003   9.182
  643POPC   C1A11439  18.095  16.095   8.714
  643POPC   D2A11440  18.122  16.137   8.279
  643POPC   C3A11441  18.159  15.817   7.971
  643POPC   C4A11442  18.494  16.084   7.811
  643POPC   C1B11443  18.439  15.709   8.825
  643POPC   C2B11444  18.314  15.559   8.409
  643POPC   C3B11445  18.514  15.433   8.021
  643POPC   C4B11446  18.475  15.608   7.596
  644POPC   NC311447  22.047  33.696   9.441
  644POPC   PO411448  22.503  34.222   9.599
  644POPC   GL111449  22.436  33.939   9.201
  644POPC   GL211450  22.340  33.584   9.034
  644POPC   C1A11451  22.558  33.929   8.755
  644POPC   D2A11452  22.345  33.675   8.464
  644POPC   C3A11453  22.121  33.824   8.115
  644POPC   C4A11454  22.317  33.652   7.798
  644POPC   C1B11455  21.947  33.560   8.768
  644POPC   C2B11456  21.720  33.571   8.372
  644POPC   C3B11457  21.841  33.399   7.973
  644POPC   C4B11458  21.839  33.640   7.628
  645POPC   NC311459  14.652  31.685   9.509
  645POPC   PO411460  14.089  31.299   9.384
  645POPC   GL111461  14.278  31.379   8.996
  645POPC   GL211462  14.284  31.718   9.128
  645POPC   C1A11463  14.536  31.271   8.591
  645POPC   D2A11464  14.760  31.177   8.161
  645POPC   C3A11465  14.591  31.477   7.850
  645POPC   C4A11466  14.152  31.685   7.894
  645POPC   C1B11467  14.465  31.839   8.746
  645POPC   C2B11468  14.477  31.763   8.310
  645POPC   C3B11469  14.569  31.984   7.928
  645POPC   C4B11470  14.480  31.876   7.496
  646POPC   NC311471  24.163  35.089   9.532
  646POPC   PO411472  24.460  35.677   9.648
  646POPC   GL111473  24.677  35.347   9.337
  646POPC   GL211474  24.402  35.248   9.103
  646POPC   C1A11475  24.851  35.223   8.898
  646POPC   D2A11476  24.553  35.158   8.521
  646POPC   C3A11477  24.635  35.326   8.109
  646POPC   C4A11478  24.409  35.417   7.756
  646POPC   C1B11479  24.160  35.007   8.834
  646POPC   C2B11480  24.034  35.047   8.417
  646POPC   C3B11481  24.250  35.009   8.061
  646POPC   C4B11482  24.196  34.975   7.653
  647POPC   NC311483  37.731   5.448   9.568
  647POPC   PO411484  37.453   4.814   9.567
  647POPC   GL111485  37.577   4.878   9.157
  647POPC   GL211486  37.782   5.162   9.156
  647POPC   C1A11487  37.730   4.877   8.740
  647POPC   D2A11488  37.916   4.994   8.363
  647POPC   C3A11489  37.554   5.027   8.126
  647POPC   C4A11490  37.560   5.089   7.712
  647POPC   C1B11491  37.855   5.369   8.752
  647POPC   C2B11492  37.667   5.450   8.405
  647POPC   C3B11493  37.870   5.408   8.010
  647POPC   C4B11494  37.759   5.670   7.697
  648POPC   NC311495  19.872   2.591   9.674
  648POPC   PO411496  20.171   2.386   9.158
  648POPC   GL111497  19.970   2.646   8.945
  648POPC   GL211498  19.795   2.791   9.206
  648POPC   C1A11499  19.868   2.623   8.524
  648POPC   D2A11500  19.743   2.362   8.157
  648POPC   C3A11501  19.956   2.532   7.816
  648POPC   C4A11502  20.198   2.914   7.874
  648POPC   C1B11503  19.543   2.910   8.841
  648POPC   C2B11504  19.655   3.097   8.497
  648POPC   C3B11505  19.653   2.898   8.144
  648POPC   C4B11506  19.660   2.991   7.768
  649POPC   NC311507  34.416   9.535   9.415
  649POPC   PO411508  34.422   8.913   9.563
  649POPC   GL111509  34.705   8.959   9.210
  649POPC   GL211510  34.552   8.718   9.003
  649POPC   C1A11511  34.936   9.021   8.812
  649POPC   D2A11512  34.708   8.955   8.441
  649POPC   C3A11513  34.685   9.125   8.037
  649POPC   C4A11514  34.714   8.772   7.774
  649POPC   C1B11515  34.383   9.114   8.816
  649POPC   C2B11516  34.291   9.250   8.391
  649POPC   C3B11517  34.154   9.231   7.964
  649POPC   C4B11518  34.358   9.212   7.585
  650POPC   NC311519  17.372  17.259   9.347
  650POPC   PO411520  17.448  16.600   9.467
  650POPC   GL111521  17.504  16.813   9.096
  650POPC   GL211522  17.793  16.992   9.058
  650POPC   C1A11523  17.276  16.810   8.713
  650POPC   D2A11524  17.309  16.758   8.295
  650POPC   C3A11525  17.300  16.422   8.017
  650POPC   C4A11526  17.505  16.706   7.786
  650POPC   C1B11527  17.629  17.204   8.721
  650POPC   C2B11528  17.384  17.281   8.387
  650POPC   C3B11529  17.415  17.199   7.978
  650POPC   C4B11530  17.378  17.129   7.559
  651POPC   NC311531  31.253  38.734   9.510
  651POPC   PO411532  31.781  38.279   9.521
  651POPC   GL111533  31.567  38.266   9.122
  651POPC   GL211534  31.327  38.521   9.062
  651POPC   C1A11535  31.432  38.150   8.710
  651POPC   D2A11536  31.616  38.229   8.309
  651POPC   C3A11537  31.397  38.269   7.904
  651POPC   C4A11538  31.221  38.577   7.624
  651POPC   C1B11539  31.240  38.721   8.671
  651POPC   C2B11540  31.464  38.731   8.279
  651POPC   C3B11541  31.503  38.934   7.885
  651POPC   C4B11542  31.645  38.882   7.468
  652POPC   NC311543  24.833  38.630   9.622
  652POPC   PO411544  24.407  38.103   9.630
  652POPC   GL111545  24.414  38.376   9.227
  652POPC   GL211546  24.562  38.731   9.201
  652POPC   C1A11547  24.314  38.479   8.780
  652POPC   D2A11548  24.235  38.754   8.397
  652POPC   C3A11549  24.223  38.578   7.958
  652POPC   C4A11550  24.134  38.747   7.533
  652POPC   C1B11551  24.798  38.611   8.860
  652POPC   C2B11552  24.721  38.529   8.444
  652POPC   C3B11553  24.703  38.678   8.037
  652POPC   C4B11554  24.663  38.599   7.587
  653POPC   NC311555  32.844   6.288   9.551
  653POPC   PO411556  33.298   6.843   9.762
  653POPC   GL111557  33.188   6.701   9.355
  653POPC   GL211558  33.400   6.426   9.318
  653POPC   C1A11559  32.922   6.656   8.963
  653POPC   D2A11560  32.842   6.523   8.515
  653POPC   C3A11561  32.745   6.834   8.160
  653POPC   C4A11562  32.696   6.508   7.788
  653POPC   C1B11563  33.347   6.415   8.848
  653POPC   C2B11564  33.316   6.711   8.474
  653POPC   C3B11565  33.129   6.541   8.062
  653POPC   C4B11566  33.058   6.772   7.599
  654POPC   NC311567  41.600   2.186   9.515
  654POPC   PO411568  41.784   1.562   9.440
  654POPC   GL111569  41.557   1.838   9.117
  654POPC   GL211570  41.559   2.198   9.017
  654POPC   C1A11571  41.345   1.839   8.698
  654POPC   D2A11572  41.094   1.826   8.310
  654POPC   C3A11573  41.370   1.871   7.980
  654POPC   C4A11574  41.341   1.908   7.558
  654POPC   C1B11575  41.839   2.023   8.712
  654POPC   C2B11576  41.762   2.058   8.294
  654POPC   C3B11577  41.927   1.922   7.921
  654POPC   C4B11578  41.749   2.169   7.657
  655POPC   NC311579  44.305  40.031   9.600
  655POPC   PO411580  43.666  40.244   9.544
  655POPC   GL111581  43.902  40.007   9.218
  655POPC   GL211582  44.203  40.181   9.139
  655POPC   C1A11583  43.733  39.860   8.825
  655POPC   D2A11584  43.795  40.010   8.398
  655POPC   C3A11585  43.578  39.983   8.004
  655POPC   C4A11586  43.943  39.926   7.743
  655POPC   C1B11587  44.365  40.391   8.819
  655POPC   C2B11588  44.280  40.217   8.435
  655POPC   C3B11589  44.419  40.313   8.040
  655POPC   C4B11590  44.254  40.314   7.627
  656POPC   NC311591   6.643  22.006   9.551
  656POPC   PO411592   6.768  22.660   9.529
  656POPC   GL111593   6.487  22.389   9.195
  656POPC   GL211594   6.420  21.997   9.098
  656POPC   C1A11595   6.463  22.370   8.729
  656POPC   D2A11596   6.777  22.419   8.379
  656POPC   C3A11597   6.562  22.444   8.023
  656POPC   C4A11598   6.352  22.087   7.955
  656POPC   C1B11599   6.816  21.978   8.832
  656POPC   C2B11600   7.028  21.938   8.413
  656POPC   C3B11601   6.903  22.060   7.980
  656POPC   C4B11602   6.951  21.869   7.560
  657POPC   NC311603  25.857   4.775   9.393
  657POPC   PO411604  26.306   5.226   9.501
  657POPC   GL111605  26.096   5.153   9.145
  657POPC   GL211606  26.142   4.835   8.987
  657POPC   C1A11607  26.101   5.343   8.757
  657POPC   D2A11608  26.264   5.287   8.388
  657POPC   C3A11609  25.903   5.282   8.194
  657POPC   C4A11610  25.803   5.321   7.792
  657POPC   C1B11611  25.934   4.873   8.579
  657POPC   C2B11612  25.944   4.787   8.126
  657POPC   C3B11613  26.161   4.737   7.711
  657POPC   C4B11614  26.326   4.794   7.261
  658POPC   NC311615  20.206  11.911   9.580
  658POPC   PO411616  19.855  11.373   9.572
  658POPC   GL111617  19.953  11.157   9.198
  658POPC   GL211618  20.238  11.284   9.211
  658POPC   C1A11619  19.830  11.046   8.821
  658POPC   D2A11620  19.612  11.292   8.552
  658POPC   C3A11621  19.716  11.306   8.127
  658POPC   C4A11622  19.575  11.435   7.748
  658POPC   C1B11623  20.130  11.452   8.794
  658POPC   C2B11624  20.137  11.306   8.411
  658POPC   C3B11625  20.219  11.486   8.037
  658POPC   C4B11626  20.079  11.241   7.725
  659POPC   NC311627   2.071   0.919   9.909
  659POPC   PO411628   2.170   0.365   9.557
  659POPC   GL111629   1.985   0.591   9.202
  659POPC   GL211630   1.805   0.365   9.039
  659POPC   C1A11631   2.088   0.804   8.825
  659POPC   D2A11632   2.073   0.760   8.388
  659POPC   C3A11633   2.042   0.355   8.231
  659POPC   C4A11634   2.066   0.276   7.789
  659POPC   C1B11635   1.711   0.498   8.646
  659POPC   C2B11636   1.514   0.430   8.264
  659POPC   C3B11637   1.748   0.684   7.967
  659POPC   C4B11638   1.932   0.735   7.589
  660POPC   NC311639  23.220  40.192   9.457
  660POPC   PO411640  22.640  39.791   9.459
  660POPC   GL111641  22.855  40.040   9.160
  660POPC   GL211642  23.133  39.844   8.960
  660POPC   C1A11643  22.969  40.283   8.802
  660POPC   D2A11644  23.096  40.054   8.429
  660POPC   C3A11645  22.983  40.232   8.025
  660POPC   C4A11646  23.031  40.073   7.601
  660POPC   C1B11647  22.700  39.824   8.744
  660POPC   C2B11648  22.478  39.807   8.359
  660POPC   C3B11649  22.707  39.831   7.941
  660POPC   C4B11650  22.711  39.686   7.516
  661POPC   NC311651  15.798  31.512   9.556
  661POPC   PO411652  16.305  31.795   9.358
  661POPC   GL111653  15.985  31.553   9.080
  661POPC   GL211654  15.591  31.545   9.093
  661POPC   C1A11655  15.930  31.473   8.652
  661POPC   D2A11656  15.840  31.260   8.267
  661POPC   C3A11657  16.163  31.398   7.956
  661POPC   C4A11658  16.048  31.325   7.518
  661POPC   C1B11659  15.499  31.758   8.708
  661POPC   C2B11660  15.724  31.785   8.293
  661POPC   C3B11661  15.707  31.597   7.876
  661POPC   C4B11662  15.735  31.714   7.437
  662POPC   NC311663  31.126  31.263   9.539
  662POPC   PO411664  31.676  31.716   9.654
  662POPC   GL111665  31.567  31.450   9.318
  662POPC   GL211666  31.333  31.650   9.175
  662POPC   C1A11667  31.487  31.207   8.927
  662POPC   D2A11668  31.379  31.336   8.482
  662POPC   C3A11669  31.694  31.408   8.167
  662POPC   C4A11670  31.609  31.195   7.796
  662POPC   C1B11671  31.661  31.671   8.827
  662POPC   C2B11672  31.952  31.791   8.475
  662POPC   C3B11673  31.947  31.874   8.032
  662POPC   C4B11674  31.675  31.769   7.700
  663POPC   NC311675  28.694  26.909   9.528
  663POPC   PO411676  29.172  26.516   9.547
  663POPC   GL111677  29.237  26.833   9.248
  663POPC   GL211678  28.922  26.950   9.058
  663POPC   C1A11679  29.358  26.754   8.840
  663POPC   D2A11680  29.068  26.784   8.539
  663POPC   C3A11681  29.112  26.777   8.128
  663POPC   C4A11682  29.132  26.686   7.724
  663POPC   C1B11683  28.731  27.149   8.674
  663POPC   C2B11684  28.981  27.260   8.281
  663POPC   C3B11685  28.847  27.193   7.874
  663POPC   C4B11686  28.638  26.814   7.808
  664POPC   NC311687  43.231  24.499   9.438
  664POPC   PO411688  42.735  24.034   9.293
  664POPC   GL111689  42.929  24.340   9.015
  664POPC   GL211690  42.806  24.641   9.014
  664POPC   C1A11691  43.315  24.347   8.779
  664POPC   D2A11692  43.583  24.559   8.451
  664POPC   C3A11693  43.365  24.406   8.110
  664POPC   C4A11694  43.209  24.475   7.733
  664POPC   C1B11695  42.628  24.775   8.664
  664POPC   C2B11696  42.755  24.809   8.224
  664POPC   C3B11697  42.601  24.799   7.814
  664POPC   C4B11698  42.777  24.535   7.470
  665POPC   NC311699   6.897  10.846   9.554
  665POPC   PO411700   6.427  10.435   9.626
  665POPC   GL111701   6.550  10.570   9.235
  665POPC   GL211702   6.426  10.894   9.170
  665POPC   C1A11703   6.459  10.507   8.812
  665POPC   D2A11704   6.679  10.471   8.445
  665POPC   C3A11705   6.442  10.450   8.098
  665POPC   C4A11706   6.688  10.286   7.811
  665POPC   C1B11707   6.654  10.978   8.775
  665POPC   C2B11708   6.583  10.960   8.317
  665POPC   C3B11709   6.808  10.795   7.961
  665POPC   C4B11710   7.054  10.987   7.644
  666POPC   NC311711  33.598  10.787   9.602
  666POPC   PO411712  33.838  10.157   9.466
  666POPC   GL111713  33.874  10.531   9.256
  666POPC   GL211714  34.219  10.583   9.258
  666POPC   C1A11715  33.670  10.611   8.868
  666POPC   D2A11716  33.489  10.401   8.490
  666POPC   C3A11717  33.755  10.495   8.113
  666POPC   C4A11718  33.641  10.562   7.725
  666POPC   C1B11719  34.141  10.333   8.869
  666POPC   C2B11720  34.008  10.192   8.457
  666POPC   C3B11721  34.178  10.242   8.019
  666POPC   C4B11722  34.108  10.426   7.546
  667POPC   NC311723  44.759   3.964   9.553
  667POPC   PO411724  44.424   4.592   9.518
  667POPC   GL111725  44.689   4.323   9.177
  667POPC   GL211726  44.923   4.027   9.083
  667POPC   C1A11727  44.535   4.144   8.767
  667POPC   D2A11728  44.719   4.008   8.358
  667POPC   C3A11729  44.498   4.001   7.943
  667POPC   C4A11730  44.529   4.348   7.641
  667POPC   C1B11731   0.031   4.287   8.738
  667POPC   C2B11732   0.021   4.447   8.322
  667POPC   C3B11733  44.931   4.290   7.925
  667POPC   C4B11734   0.012   4.296   7.465
  668POPC   NC311735   0.765   2.297   9.324
  668POPC   PO411736   0.380   1.830   9.537
  668POPC   GL111737   0.349   2.009   9.157
  668POPC   GL211738   0.670   1.863   9.078
  668POPC   C1A11739   0.218   1.939   8.733
  668POPC   D2A11740  44.914   1.959   8.370
  668POPC   C3A11741   0.110   2.037   7.970
  668POPC   C4A11742   0.398   2.048   7.598
  668POPC   C1B11743   0.764   2.077   8.711
  668POPC   C2B11744   0.595   2.200   8.355
  668POPC   C3B11745   0.776   2.187   7.950
  668POPC   C4B11746   0.927   2.049   7.543
  669POPC   NC311747  35.410  20.783   9.373
  669POPC   PO411748  35.388  20.135   9.250
  669POPC   GL111749  35.395  20.497   8.961
  669POPC   GL211750  35.146  20.821   8.959
  669POPC   C1A11751  35.493  20.743   8.600
  669POPC   D2A11752  35.466  20.728   8.171
  669POPC   C3A11753  35.471  20.330   7.920
  669POPC   C4A11754  35.275  20.312   7.531
  669POPC   C1B11755  34.938  20.942   8.599
  669POPC   C2B11756  34.939  20.781   8.219
  669POPC   C3B11757  35.054  20.644   7.849
  669POPC   C4B11758  35.051  20.786   7.415
  670POPC   NC311759  18.836   9.592   9.571
  670POPC   PO411760  19.291  10.061   9.419
  670POPC   GL111761  19.033   9.812   9.142
  670POPC   GL211762  19.119   9.440   9.159
  670POPC   C1A11763  19.164   9.734   8.689
  670POPC   D2A11764  19.468   9.858   8.375
  670POPC   C3A11765  19.329   9.792   7.955
  670POPC   C4A11766  19.409  10.157   7.738
  670POPC   C1B11767  18.766   9.486   8.872
  670POPC   C2B11768  18.771   9.457   8.445
  670POPC   C3B11769  18.832   9.678   8.076
  670POPC   C4B11770  18.838   9.558   7.664
  671POPC   NC311771  23.081  36.245   9.503
  671POPC   PO411772  22.541  35.932   9.635
  671POPC   GL111773  22.676  36.104   9.214
  671POPC   GL211774  23.025  35.984   9.053
  671POPC   C1A11775  22.646  36.227   8.795
  671POPC   D2A11776  22.868  35.982   8.514
  671POPC   C3A11777  23.051  36.045   8.112
  671POPC   C4A11778  22.920  36.091   7.698
  671POPC   C1B11779  23.172  36.334   8.753
  671POPC   C2B11780  23.133  36.518   8.315
  671POPC   C3B11781  23.209  36.487   7.855
  671POPC   C4B11782  23.250  36.347   7.391
  672POPC   NC311783  13.624  27.995   9.643
  672POPC   PO411784  13.674  28.639   9.350
  672POPC   GL111785  13.784  28.312   9.146
  672POPC   GL211786  13.549  28.044   9.125
  672POPC   C1A11787  13.804  28.308   8.724
  672POPC   D2A11788  13.598  28.538   8.406
  672POPC   C3A11789  13.722  28.316   8.057
  672POPC   C4A11790  13.557  28.298   7.663
  672POPC   C1B11791  13.306  28.324   8.809
  672POPC   C2B11792  13.097  28.297   8.389
  672POPC   C3B11793  13.185  28.514   7.982
  672POPC   C4B11794  13.217  28.667   7.525
  673POPC   NC311795   6.772  15.295   9.568
  673POPC   PO411796   6.165  15.470   9.474
  673POPC   GL111797   6.405  15.255   9.197
  673POPC   GL211798   6.732  15.069   9.132
  673POPC   C1A11799   6.490  15.445   8.850
  673POPC   D2A11800   6.530  15.242   8.500
  673POPC   C3A11801   6.780  15.377   8.202
  673POPC   C4A11802   6.484  15.467   7.893
  673POPC   C1B11803   6.865  14.947   8.760
  673POPC   C2B11804   6.672  14.770   8.390
  673POPC   C3B11805   6.579  14.955   8.029
  673POPC   C4B11806   6.955  14.951   7.833
  674POPC   NC311807  22.183  14.132   9.625
  674POPC   PO411808  21.727  14.555   9.536
  674POPC   GL111809  21.922  14.477   9.103
  674POPC   GL211810  22.202  14.239   9.120
  674POPC   C1A11811  22.007  14.317   8.672
  674POPC   D2A11812  21.908  14.047   8.345
  674POPC   C3A11813  22.018  14.153   7.939
  674POPC   C4A11814  22.176  14.488   7.764
  674POPC   C1B11815  22.481  14.122   8.776
  674POPC   C2B11816  22.586  14.211   8.401
  674POPC   C3B11817  22.583  14.352   8.037
  674POPC   C4B11818  22.517  14.079   7.730
  675POPC   NC311819   4.420   5.267   9.404
  675POPC   PO411820   3.859   5.134   9.755
  675POPC   GL111821   3.983   4.972   9.310
  675POPC   GL211822   4.313   4.769   9.259
  675POPC   C1A11823   4.100   5.026   8.864
  675POPC   D2A11824   4.036   5.197   8.466
  675POPC   C3A11825   4.196   5.114   8.085
  675POPC   C4A11826   4.192   5.258   7.700
  675POPC   C1B11827   4.584   4.862   8.865
  675POPC   C2B11828   4.532   5.025   8.446
  675POPC   C3B11829   4.659   4.955   7.978
  675POPC   C4B11830   4.598   5.023   7.509
  676POPC   NC311831  14.232  37.471   9.382
  676POPC   PO411832  14.799  37.200   9.495
  676POPC   GL111833  14.741  37.525   9.194
  676POPC   GL211834  14.599  37.901   9.188
  676POPC   C1A11835  14.531  37.496   8.808
  676POPC   D2A11836  14.462  37.794   8.516
  676POPC   C3A11837  14.500  37.641   8.101
  676POPC   C4A11838  14.252  37.380   7.806
  676POPC   C1B11839  14.208  38.035   8.936
  676POPC   C2B11840  14.039  38.121   8.507
  676POPC   C3B11841  13.876  38.088   8.079
  676POPC   C4B11842  14.105  37.862   7.782
  677POPC   NC311843   6.118   1.455   9.310
  677POPC   PO411844   5.672   1.051   9.691
  677POPC   GL111845   5.818   1.050   9.219
  677POPC   GL211846   6.166   0.992   9.133
  677POPC   C1A11847   5.800   1.153   8.783
  677POPC   D2A11848   5.681   1.319   8.381
  677POPC   C3A11849   5.669   1.091   8.004
  677POPC   C4A11850   5.713   1.228   7.621
  677POPC   C1B11851   6.297   0.970   8.706
  677POPC   C2B11852   6.180   1.309   8.378
  677POPC   C3B11853   6.049   1.447   7.981
  677POPC   C4B11854   6.188   1.095   7.748
  678POPC   NC311855  13.388  25.426   9.662
  678POPC   PO411856  12.869  25.199   9.311
  678POPC   GL111857  13.045  25.407   8.979
  678POPC   GL211858  12.950  25.720   9.097
  678POPC   C1A11859  13.008  25.349   8.518
  678POPC   D2A11860  12.676  25.305   8.175
  678POPC   C3A11861  12.804  25.024   7.811
  678POPC   C4A11862  13.225  24.970   7.586
  678POPC   C1B11863  12.633  25.632   8.759
  678POPC   C2B11864  12.435  25.734   8.361
  678POPC   C3B11865  12.620  25.771   7.928
  678POPC   C4B11866  13.012  25.526   7.852
  679POPC   NC311867   9.357  41.239   9.536
  679POPC   PO411868   9.756  40.664   9.556
  679POPC   GL111869   9.733  40.649   9.154
  679POPC   GL211870   9.668  40.979   9.138
  679POPC   C1A11871   9.794  40.692   8.734
  679POPC   D2A11872   9.817  40.510   8.360
  679POPC   C3A11873  10.094  40.612   8.048
  679POPC   C4A11874   9.784  40.582   7.751
  679POPC   C1B11875   9.404  41.060   8.772
  679POPC   C2B11876   9.533  40.949   8.367
  679POPC   C3B11877   9.645  41.029   7.976
  679POPC   C4B11878   9.372  41.326   7.824
  680POPC   NC311879   1.284  26.553   9.494
  680POPC   PO411880   0.961  27.081   9.530
  680POPC   GL111881   1.099  26.894   9.151
  680POPC   GL211882   1.448  26.962   9.196
  680POPC   C1A11883   1.005  26.819   8.717
  680POPC   D2A11884   0.911  26.574   8.366
  680POPC   C3A11885   1.009  26.758   7.993
  680POPC   C4A11886   0.923  26.591   7.568
  680POPC   C1B11887   1.423  27.152   8.773
  680POPC   C2B11888   1.272  27.068   8.329
  680POPC   C3B11889   1.456  27.207   7.890
  680POPC   C4B11890   1.617  27.157   7.400
  681POPC   NC311891  42.482  32.478   9.508
  681POPC   PO411892  41.823  32.253   9.498
  681POPC   GL111893  42.168  32.283   9.145
  681POPC   GL211894  42.545  32.211   9.080
  681POPC   C1A11895  42.253  32.439   8.732
  681POPC   D2A11896  41.983  32.310   8.397
  681POPC   C3A11897  42.154  32.348   7.960
  681POPC   C4A11898  42.360  32.162   7.577
  681POPC   C1B11899  42.756  32.570   8.870
  681POPC   C2B11900  42.722  32.720   8.443
  681POPC   C3B11901  42.870  32.664   8.040
  681POPC   C4B11902  42.595  32.586   7.701
  682POPC   NC311903  21.484  20.610   9.590
  682POPC   PO411904  22.021  20.865   9.662
  682POPC   GL111905  21.727  20.794   9.209
  682POPC   GL211906  21.609  20.386   9.150
  682POPC   C1A11907  21.370  20.694   8.842
  682POPC   D2A11908  21.447  20.834   8.411
  682POPC   C3A11909  21.250  20.965   8.040
  682POPC   C4A11910  21.492  20.904   7.678
  682POPC   C1B11911  21.545  20.180   8.741
  682POPC   C2B11912  21.340  20.328   8.355
  682POPC   C3B11913  21.414  20.470   7.926
  682POPC   C4B11914  21.181  20.563   7.487
  683POPC   NC311915   2.886   6.107   9.950
  683POPC   PO411916   2.446   5.821   9.580
  683POPC   GL111917   2.620   5.935   9.188
  683POPC   GL211918   2.942   5.831   9.084
  683POPC   C1A11919   2.624   6.104   8.786
  683POPC   D2A11920   2.447   5.934   8.434
  683POPC   C3A11921   2.610   6.071   8.073
  683POPC   C4A11922   2.497   5.932   7.693
  683POPC   C1B11923   2.762   5.628   8.736
  683POPC   C2B11924   2.713   5.520   8.304
  683POPC   C3B11925   2.802   5.618   7.925
  683POPC   C4B11926   3.020   5.827   7.639
  684POPC   NC311927  24.953  41.734   9.577
  684POPC   PO411928  24.324  41.417   9.578
  684POPC   GL111929  24.615  41.518   9.258
  684POPC   GL211930  24.797  41.204   9.323
  684POPC   C1A11931  24.685  41.657   8.817
  684POPC   D2A11932  24.498  41.878   8.460
  684POPC   C3A11933  24.365  41.612   8.120
  684POPC   C4A11934  24.551  41.701   7.717
  684POPC   C1B11935  24.473  41.155   8.952
  684POPC   C2B11936  24.559  41.238   8.523
  684POPC   C3B11937  24.634  41.135   8.109
  684POPC   C4B11938  24.377  41.221   7.770
  685POPC   NC311939   7.968  25.086   9.585
  685POPC   PO411940   8.306  25.645   9.577
  685POPC   GL111941   8.142  25.386   9.194
  685POPC   GL211942   7.847  25.566   9.086
  685POPC   C1A11943   8.287  25.131   8.794
  685POPC   D2A11944   8.435  25.333   8.356
  685POPC   C3A11945   8.263  25.298   7.922
  685POPC   C4A11946   8.220  25.541   7.531
  685POPC   C1B11947   7.828  25.326   8.731
  685POPC   C2B11948   7.952  25.172   8.357
  685POPC   C3B11949   7.770  25.099   7.974
  685POPC   C4B11950   7.785  25.230   7.570
  686POPC   NC311951   6.723  44.346   9.810
  686POPC   PO411952   6.276  44.767   9.500
  686POPC   GL111953   6.542  44.542   9.221
  686POPC   GL211954   6.332  44.327   9.008
  686POPC   C1A11955   6.853  44.668   8.901
  686POPC   D2A11956   6.920  44.758   8.455
  686POPC   C3A11957   7.089  44.436   8.173
  686POPC   C4A11958   6.861  44.538   7.801
  686POPC   C1B11959   6.340  44.706   8.764
  686POPC   C2B11960   6.464  44.975   8.398
  686POPC   C3B11961   6.418  44.736   8.005
  686POPC   C4B11962   6.388  44.333   7.802
  687POPC   NC311963  24.224  13.153   9.623
  687POPC   PO411964  24.321  12.522   9.511
  687POPC   GL111965  24.381  12.819   9.181
  687POPC   GL211966  24.457  13.172   9.176
  687POPC   C1A11967  24.643  12.830   8.812
  687POPC   D2A11968  24.401  12.764   8.467
  687POPC   C3A11969  24.457  12.863   8.081
  687POPC   C4A11970  24.666  12.637   7.744
  687POPC   C1B11971  24.245  13.165   8.771
  687POPC   C2B11972  24.115  13.232   8.346
  687POPC   C3B11973  24.129  13.226   7.912
  687POPC   C4B11974  24.102  12.876   7.700
  688POPC   NC311975  43.792  26.079   9.512
  688POPC   PO411976  44.315  25.749   9.893
  688POPC   GL111977  44.235  25.956   9.315
  688POPC   GL211978  44.152  25.772   8.954
  688POPC   C1A11979  43.910  26.177   8.911
  688POPC   D2A11980  43.894  26.050   8.488
  688POPC   C3A11981  43.713  26.299   8.176
  688POPC   C4A11982  43.886  26.131   7.796
  688POPC   C1B11983  43.658  25.730   8.823
  688POPC   C2B11984  43.564  25.650   8.379
  688POPC   C3B11985  43.850  25.657   8.060
  688POPC   C4B11986  44.217  25.637   7.786
  689POPC   NC311987  44.374  33.505   9.393
  689POPC   PO411988  44.765  33.025   9.625
  689POPC   GL111989  44.759  33.196   9.175
  689POPC   GL211990  44.890  33.475   9.179
  689POPC   C1A11991  44.637  33.028   8.718
  689POPC   D2A11992  44.685  32.677   8.375
  689POPC   C3A11993  44.639  32.851   7.944
  689POPC   C4A11994  44.737  32.936   7.511
  689POPC   C1B11995   0.017  33.386   8.735
  689POPC   C2B11996  44.856  33.272   8.299
  689POPC   C3B11997  44.987  33.257   7.856
  689POPC   C4B11998  44.929  33.386   7.377
  690POPC   NC311999  10.802  12.875   9.632
  690POPC   PO412000  10.196  13.147   9.459
  690POPC   GL112001  10.517  12.967   9.201
  690POPC   GL212002  10.394  12.658   9.096
  690POPC   C1A12003  10.592  12.921   8.737
  690POPC   D2A12004  10.449  12.825   8.311
  690POPC   C3A12005  10.744  13.037   8.039
  690POPC   C4A12006  10.744  13.141   7.601
  690POPC   C1B12007  10.289  12.465   8.693
  690POPC   C2B12008  10.073  12.424   8.292
  690POPC   C3B12009  10.186  12.605   7.921
  690POPC   C4B12010  10.612  12.619   7.809
  691POPC   NC312011  16.101  35.332   9.569
  691POPC   PO412012  15.586  34.937   9.728
  691POPC   GL112013  15.696  35.099   9.264
  691POPC   GL212014  16.053  35.113   9.108
  691POPC   C1A12015  15.675  35.320   8.828
  691POPC   D2A12016  15.909  35.191   8.470
  691POPC   C3A12017  15.992  35.421   8.113
  691POPC   C4A12018  15.701  35.404   7.823
  691POPC   C1B12019  16.300  34.937   8.746
  691POPC   C2B12020  16.278  34.884   8.293
  691POPC   C3B12021  16.445  34.948   7.904
  691POPC   C4B12022  16.362  35.316   7.693
  692POPC   NC312023  14.755  27.180   9.111
  692POPC   PO412024  15.140  27.637   9.424
  692POPC   GL112025  14.980  27.649   9.047
  692POPC   GL212026  15.238  27.428   8.941
  692POPC   C1A12027  15.089  27.852   8.674
  692POPC   D2A12028  15.430  27.663   8.437
  692POPC   C3A12029  15.166  27.450   8.157
  692POPC   C4A12030  15.073  27.587   7.738
  692POPC   C1B12031  15.571  27.179   8.734
  692POPC   C2B12032  15.583  27.137   8.271
  692POPC   C3B12033  15.498  27.292   7.821
  692POPC   C4B12034  15.387  27.039   7.458
  693POPC   NC312035  24.346  28.835   9.524
  693POPC   PO412036  24.234  29.464   9.324
  693POPC   GL112037  24.426  29.174   9.119
  693POPC   GL212038  24.074  29.030   9.082
  693POPC   C1A12039  24.750  29.155   8.760
  693POPC   D2A12040  24.981  29.152   8.405
  693POPC   C3A12041  24.742  29.104   8.041
  693POPC   C4A12042  24.583  29.383   7.741
  693POPC   C1B12043  24.280  29.064   8.660
  693POPC   C2B12044  24.289  29.193   8.280
  693POPC   C3B12045  24.220  29.068   7.903
  693POPC   C4B12046  24.041  28.954   7.557
  694POPC   NC312047  15.479  43.098   9.542
  694POPC   PO412048  14.855  42.916   9.392
  694POPC   GL112049  14.938  43.213   9.098
  694POPC   GL212050  15.299  43.222   9.084
  694POPC   C1A12051  14.942  43.218   8.649
  694POPC   D2A12052  14.792  43.315   8.222
  694POPC   C3A12053  15.032  43.091   7.904
  694POPC   C4A12054  15.297  42.723   7.876
  694POPC   C1B12055  15.442  43.371   8.716
  694POPC   C2B12056  15.334  43.242   8.308
  694POPC   C3B12057  15.545  43.191   7.938
  694POPC   C4B12058  15.516  43.132   7.522
  695POPC   NC312059  36.982  29.565   9.553
  695POPC   PO412060  37.158  30.152   9.482
  695POPC   GL112061  36.874  29.920   9.194
  695POPC   GL212062  36.656  29.576   9.178
  695POPC   C1A12063  36.866  29.896   8.799
  695POPC   D2A12064  37.130  29.712   8.503
  695POPC   C3A12065  36.970  29.881   8.136
  695POPC   C4A12066  36.787  29.879   7.783
  695POPC   C1B12067  36.466  29.584   8.841
  695POPC   C2B12068  36.646  29.569   8.466
  695POPC   C3B12069  36.643  29.472   8.067
  695POPC   C4B12070  36.365  29.596   7.741
  696POPC   NC312071  26.054   7.005   9.746
  696POPC   PO412072  26.143   7.590   9.437
  696POPC   GL112073  26.111   7.388   9.037
  696POPC   GL212074  25.781   7.375   9.099
  696POPC   C1A12075  26.224   7.403   8.585
  696POPC   D2A12076  26.352   7.227   8.149
  696POPC   C3A12077  26.111   7.368   7.754
  696POPC   C4A12078  25.777   7.187   7.490
  696POPC   C1B12079  25.720   7.454   8.685
  696POPC   C2B12080  25.829   7.315   8.250
  696POPC   C3B12081  25.717   7.608   7.928
  696POPC   C4B12082  25.496   7.596   7.589
  697POPC   NC312083   1.573  10.178   9.509
  697POPC   PO412084   0.953  10.540   9.642
  697POPC   GL112085   0.956  10.739   9.249
  697POPC   GL212086   1.339  10.770   9.255
  697POPC   C1A12087   1.040  10.574   8.846
  697POPC   D2A12088   1.107  10.353   8.474
  697POPC   C3A12089   0.959  10.512   8.114
  697POPC   C4A12090   0.880  10.382   7.727
  697POPC   C1B12091   1.478  10.888   8.826
  697POPC   C2B12092   1.463  10.733   8.388
  697POPC   C3B12093   1.484  10.587   7.947
  697POPC   C4B12094   1.609  10.803   7.555
  698POPC   NC312095  40.104   8.891   9.315
  698POPC   PO412096  39.856   9.438   9.496
  698POPC   GL112097  39.907   9.328   9.023
  698POPC   GL212098  40.241   9.115   8.893
  698POPC   C1A12099  40.074   9.466   8.599
  698POPC   D2A12100  40.244   9.146   8.353
  698POPC   C3A12101  40.007   9.217   8.009
  698POPC   C4A12102  39.857   9.029   7.660
  698POPC   C1B12103  40.294   8.691   8.684
  698POPC   C2B12104  40.012   8.406   8.474
  698POPC   C3B12105  39.988   8.617   8.100
  698POPC   C4B12106  40.292   8.810   7.889
  699POPC   NC312107  12.140  20.722   9.390
  699POPC   PO412108  11.969  20.078   9.507
  699POPC   GL112109  12.214  20.187   9.129
  699POPC   GL212110  11.991  20.455   8.970
  699POPC   C1A12111  12.350  20.250   8.692
  699POPC   D2A12112  12.120  20.339   8.320
  699POPC   C3A12113  12.270  20.506   7.926
  699POPC   C4A12114  12.530  20.573   7.557
  699POPC   C1B12115  12.107  20.750   8.606
  699POPC   C2B12116  11.852  20.799   8.201
  699POPC   C3B12117  11.863  20.802   7.737
  699POPC   C4B12118  11.736  20.776   7.271
  700POPC   NC312119  36.091  11.472   9.556
  700POPC   PO412120  36.564  11.006   9.741
  700POPC   GL112121  36.373  11.094   9.273
  700POPC   GL212122  36.037  11.246   9.121
  700POPC   C1A12123  36.346  11.099   8.772
  700POPC   D2A12124  36.405  11.463   8.464
  700POPC   C3A12125  36.289  11.407   8.031
  700POPC   C4A12126  36.241  11.045   7.805
  700POPC   C1B12127  35.887  11.436   8.760
  700POPC   C2B12128  35.930  11.612   8.363
  700POPC   C3B12129  35.718  11.576   8.010
  700POPC   C4B12130  35.881  11.393   7.692
  701POPC   NC312131  22.370  38.550   9.555
  701POPC   PO412132  21.758  38.206   9.570
  701POPC   GL112133  22.054  38.289   9.235
  701POPC   GL212134  22.421  38.176   9.227
  701POPC   C1A12135  22.156  38.424   8.831
  701POPC   D2A12136  22.415  38.414   8.459
  701POPC   C3A12137  22.222  38.506   8.098
  701POPC   C4A12138  22.326  38.623   7.699
  701POPC   C1B12139  22.532  38.047   8.805
  701POPC   C2B12140  22.529  37.929   8.372
  701POPC   C3B12141  22.550  38.121   7.982
  701POPC   C4B12142  22.192  38.133   7.749
  702POPC   NC312143  27.821  15.336   9.485
  702POPC   PO412144  27.411  14.871   9.554
  702POPC   GL112145  27.445  15.111   9.194
  702POPC   GL212146  27.397  15.469   9.235
  702POPC   C1A12147  27.685  15.222   8.848
  702POPC   D2A12148  27.743  15.089   8.463
  702POPC   C3A12149  27.529  15.113   8.095
  702POPC   C4A12150  27.602  15.300   7.740
  702POPC   C1B12151  27.262  15.477   8.804
  702POPC   C2B12152  27.181  15.300   8.412
  702POPC   C3B12153  27.215  15.528   8.022
  702POPC   C4B12154  27.363  15.747   7.662
  703POPC   NC312155  37.734  28.914   9.446
  703POPC   PO412156  37.454  29.517   9.447
  703POPC   GL112157  37.721  29.323   9.107
  703POPC   GL212158  38.075  29.160   9.173
  703POPC   C1A12159  37.489  29.157   8.744
  703POPC   D2A12160  37.491  29.082   8.315
  703POPC   C3A12161  37.673  29.362   8.036
  703POPC   C4A12162  37.486  29.251   7.672
  703POPC   C1B12163  37.965  28.973   8.772
  703POPC   C2B12164  38.034  29.075   8.354
  703POPC   C3B12165  37.977  28.934   7.956
  703POPC   C4B12166  37.950  29.079   7.559
  704POPC   NC312167  40.477  19.927   9.414
  704POPC   PO412168  41.103  20.163   9.168
  704POPC   GL112169  40.799  19.932   8.991
  704POPC   GL212170  40.821  19.624   9.072
  704POPC   C1A12171  40.618  20.044   8.632
  704POPC   D2A12172  40.893  20.183   8.321
  704POPC   C3A12173  40.763  20.021   7.956
  704POPC   C4A12174  40.523  20.282   7.708
  704POPC   C1B12175  40.395  19.628   8.829
  704POPC   C2B12176  40.335  19.630   8.375
  704POPC   C3B12177  40.567  19.511   7.982
  704POPC   C4B12178  40.645  19.698   7.575
  705POPC   NC312179  31.629  41.982   9.589
  705POPC   PO412180  31.481  41.340   9.467
  705POPC   GL112181  31.511  41.623   9.170
  705POPC   GL212182  31.857  41.637   9.150
  705POPC   C1A12183  31.375  41.697   8.745
  705POPC   D2A12184  31.208  41.501   8.376
  705POPC   C3A12185  31.323  41.582   7.981
  705POPC   C4A12186  31.500  41.283   7.731
  705POPC   C1B12187  31.741  41.339   8.773
  705POPC   C2B12188  31.674  41.315   8.296
  705POPC   C3B12189  31.847  41.578   7.938
  705POPC   C4B12190  32.159  41.390   7.733
  706POPC   NC312191  25.464  25.600   9.513
  706POPC   PO412192  25.118  25.107   9.503
  706POPC   GL112193  25.173  25.354   9.167
  706POPC   GL212194  24.962  25.612   9.139
  706POPC   C1A12195  25.343  25.347   8.785
  706POPC   D2A12196  25.362  25.106   8.431
  706POPC   C3A12197  25.404  25.383   8.103
  706POPC   C4A12198  25.564  25.311   7.725
  706POPC   C1B12199  24.840  25.512   8.778
  706POPC   C2B12200  24.995  25.500   8.410
  706POPC   C3B12201  24.866  25.454   8.017
  706POPC   C4B12202  25.114  25.527   7.688
  707POPC   NC312203  17.185  14.368   9.584
  707POPC   PO412204  17.871  14.303   9.412
  707POPC   GL112205  17.520  14.237   9.206
  707POPC   GL212206  17.440  14.622   9.207
  707POPC   C1A12207  17.617  14.089   8.796
  707POPC   D2A12208  17.837  14.345   8.505
  707POPC   C3A12209  17.741  14.200   8.145
  707POPC   C4A12210  17.560  14.176   7.764
  707POPC   C1B12211  17.247  14.445   8.826
  707POPC   C2B12212  17.319  14.357   8.402
  707POPC   C3B12213  17.434  14.585   8.033
  707POPC   C4B12214  17.322  14.592   7.607
  708POPC   NC312215  30.698   8.619   9.261
  708POPC   PO412216  31.329   9.055   9.520
  708POPC   GL112217  31.008   9.098   9.155
  708POPC   GL212218  30.642   9.097   9.139
  708POPC   C1A12219  30.948   8.925   8.749
  708POPC   D2A12220  30.683   8.871   8.376
  708POPC   C3A12221  30.653   9.012   7.944
  708POPC   C4A12222  30.591   8.752   7.566
  708POPC   C1B12223  30.484   9.183   8.739
  708POPC   C2B12224  30.501   9.370   8.318
  708POPC   C3B12225  30.245   9.336   7.933
  708POPC   C4B12226  30.270   9.173   7.511
  709POPC   NC312227  11.664   4.006   9.618
  709POPC   PO412228  11.016   4.107   9.599
  709POPC   GL112229  11.258   4.201   9.260
  709POPC   GL212230  11.232   4.555   9.237
  709POPC   C1A12231  11.285   4.072   8.832
  709POPC   D2A12232  11.476   4.276   8.477
  709POPC   C3A12233  11.412   4.070   8.115
  709POPC   C4A12234  11.491   4.168   7.725
  709POPC   C1B12235  10.974   4.473   8.877
  709POPC   C2B12236  11.031   4.509   8.456
  709POPC   C3B12237  11.002   4.529   8.024
  709POPC   C4B12238  10.863   4.466   7.604
  710POPC   NC312239   8.340  39.171   9.489
  710POPC   PO412240   7.694  39.196   9.572
  710POPC   GL112241   7.885  39.329   9.195
  710POPC   GL212242   8.115  39.591   9.271
  710POPC   C1A12243   7.984  39.171   8.780
  710POPC   D2A12244   7.837  39.238   8.352
  710POPC   C3A12245   8.006  38.985   8.004
  710POPC   C4A12246   8.268  39.027   7.630
  710POPC   C1B12247   8.210  39.622   8.825
  710POPC   C2B12248   8.335  39.385   8.442
  710POPC   C3B12249   8.240  39.424   8.002
  710POPC   C4B12250   8.373  39.563   7.595
  711POPC   NC312251  32.183  39.713   9.447
  711POPC   PO412252  32.494  40.262   9.224
  711POPC   GL112253  32.236  39.943   8.989
  711POPC   GL212254  31.952  39.697   9.002
  711POPC   C1A12255  32.209  39.918   8.564
  711POPC   D2A12256  32.445  40.249   8.417
  711POPC   C3A12257  32.458  40.321   7.993
  711POPC   C4A12258  32.739  40.342   7.658
  711POPC   C1B12259  31.831  39.558   8.585
  711POPC   C2B12260  31.806  39.858   8.226
  711POPC   C3B12261  32.073  39.972   7.925
  711POPC   C4B12262  32.494  39.825   7.850
  712POPC   NC312263   5.038  20.217   9.492
  712POPC   PO412264   5.196  20.914   9.436
  712POPC   GL112265   4.984  20.621   9.156
  712POPC   GL212266   5.277  20.411   9.085
  712POPC   C1A12267   4.944  20.552   8.701
  712POPC   D2A12268   5.197  20.707   8.371
  712POPC   C3A12269   4.996  20.765   7.989
  712POPC   C4A12270   5.086  20.703   7.549
  712POPC   C1B12271   5.302  20.171   8.686
  712POPC   C2B12272   5.155  20.209   8.256
  712POPC   C3B12273   5.031  20.244   7.820
  712POPC   C4B12274   5.240  20.244   7.400
  713POPC   NC312275  26.726  41.712   9.533
  713POPC   PO412276  26.772  41.021   9.392
  713POPC   GL112277  26.708  41.376   9.139
  713POPC   GL212278  27.008  41.527   9.169
  713POPC   C1A12279  26.617  41.679   8.820
  713POPC   D2A12280  26.488  41.925   8.453
  713POPC   C3A12281  26.622  41.695   8.114
  713POPC   C4A12282  26.455  41.502   7.772
  713POPC   C1B12283  27.135  41.782   8.851
  713POPC   C2B12284  26.991  41.756   8.468
  713POPC   C3B12285  27.128  41.554   8.156
  713POPC   C4B12286  27.005  41.591   7.764
  714POPC   NC312287  21.304  25.704   9.513
  714POPC   PO412288  21.286  25.022   9.480
  714POPC   GL112289  21.593  25.163   9.170
  714POPC   GL212290  21.425  25.453   9.083
  714POPC   C1A12291  21.799  25.147   8.743
  714POPC   D2A12292  21.872  25.336   8.320
  714POPC   C3A12293  21.790  25.066   7.948
  714POPC   C4A12294  21.751  25.248   7.518
  714POPC   C1B12295  21.113  25.184   8.876
  714POPC   C2B12296  21.132  25.126   8.474
  714POPC   C3B12297  20.985  25.100   8.077
  714POPC   C4B12298  21.297  25.138   7.786
  715POPC   NC312299   7.577  44.888   9.431
  715POPC   PO412300   7.057  44.379   9.503
  715POPC   GL112301   7.237  44.296   9.112
  715POPC   GL212302   7.526  44.538   9.080
  715POPC   C1A12303   7.249  44.421   8.683
  715POPC   D2A12304   7.389  44.866   8.603
  715POPC   C3A12305   7.326  44.921   8.175
  715POPC   C4A12306   7.270  44.835   7.759
  715POPC   C1B12307   7.785  44.557   8.735
  715POPC   C2B12308   7.645  44.504   8.333
  715POPC   C3B12309   7.649  44.549   7.919
  715POPC   C4B12310   7.989  44.628   7.683
  716POPC   NC312311  10.420  27.296   9.759
  716POPC   PO412312  10.852  27.719   9.608
  716POPC   GL112313  10.634  27.434   9.262
  716POPC   GL212314  10.271  27.355   9.185
  716POPC   C1A12315  10.566  27.601   8.829
  716POPC   D2A12316  10.334  27.624   8.418
  716POPC   C3A12317  10.616  27.633   8.055
  716POPC   C4A12318  10.729  27.844   7.682
  716POPC   C1B12319  10.294  27.184   8.748
  716POPC   C2B12320  10.199  27.084   8.350
  716POPC   C3B12321  10.246  27.286   8.009
  716POPC   C4B12322  10.369  27.228   7.622
  717POPC   NC312323  24.628  22.407   9.510
  717POPC   PO412324  24.057  22.011   9.577
  717POPC   GL112325  24.312  22.117   9.208
  717POPC   GL212326  24.563  21.899   9.138
  717POPC   C1A12327  24.473  22.406   8.842
  717POPC   D2A12328  24.710  22.463   8.437
  717POPC   C3A12329  24.531  22.382   8.009
  717POPC   C4A12330  24.522  22.234   7.531
  717POPC   C1B12331  24.481  21.909   8.712
  717POPC   C2B12332  24.591  21.957   8.324
  717POPC   C3B12333  24.584  21.886   7.920
  717POPC   C4B12334  24.902  21.925   7.615
  718POPC   NC312335  41.044  18.232   9.509
  718POPC   PO412336  40.634  18.721   9.573
  718POPC   GL112337  40.734  18.493   9.143
  718POPC   GL212338  41.084  18.411   9.020
  718POPC   C1A12339  40.522  18.368   8.728
  718POPC   D2A12340  40.505  18.122   8.350
  718POPC   C3A12341  40.645  18.271   7.939
  718POPC   C4A12342  40.950  18.454   7.659
  718POPC   C1B12343  40.816  18.014   8.936
  718POPC   C2B12344  40.787  17.745   8.570
  718POPC   C3B12345  40.911  17.840   8.148
  718POPC   C4B12346  40.976  17.954   7.707
  719POPC   NC312347  14.746  19.268   9.399
  719POPC   PO412348  15.410  19.060   9.222
  719POPC   GL112349  15.189  18.883   8.950
  719POPC   GL212350  14.919  18.989   9.040
  719POPC   C1A12351  15.247  18.985   8.505
  719POPC   D2A12352  15.468  19.286   8.218
  719POPC   C3A12353  15.548  19.134   7.793
  719POPC   C4A12354  15.553  18.862   7.411
  719POPC   C1B12355  14.843  19.220   8.735
  719POPC   C2B12356  14.747  19.040   8.373
  719POPC   C3B12357  14.973  19.194   8.064
  719POPC   C4B12358  15.057  19.039   7.662
  720POPC   NC312359  17.456  17.652   9.738
  720POPC   PO412360  17.874  17.198   9.493
  720POPC   GL112361  17.867  17.540   9.253
  720POPC   GL212362  17.534  17.690   9.181
  720POPC   C1A12363  17.893  17.631   8.838
  720POPC   D2A12364  17.662  17.694   8.484
  720POPC   C3A12365  17.834  17.476   8.151
  720POPC   C4A12366  17.734  17.525   7.738
  720POPC   C1B12367  17.319  17.858   8.830
  720POPC   C2B12368  17.104  17.743   8.456
  720POPC   C3B12369  17.328  17.696   8.080
  720POPC   C4B12370  17.253  17.613   7.653
  721POPC   NC312371   4.882   0.250   9.487
  721POPC   PO412372   5.491   0.346   9.722
  721POPC   GL112373   5.266   0.576   9.330
  721POPC   GL212374   4.983   0.790   9.463
  721POPC   C1A12375   5.330   0.551   8.844
  721POPC   D2A12376   5.158   0.262   8.519
  721POPC   C3A12377   5.210   0.417   8.099
  721POPC   C4A12378   5.282   0.338   7.670
  721POPC   C1B12379   5.010   0.910   9.031
  721POPC   C2B12380   4.919   0.809   8.591
  721POPC   C3B12381   4.912   0.847   8.141
  721POPC   C4B12382   5.237   0.845   7.816
  722POPC   NC312383  17.223  33.588   9.254
  722POPC   PO412384  17.776  33.535   9.650
  722POPC   GL112385  17.623  33.240   9.231
  722POPC   GL212386  17.493  32.854   9.243
  722POPC   C1A12387  17.531  33.052   8.764
  722POPC   D2A12388  17.623  33.189   8.306
  722POPC   C3A12389  17.613  32.973   7.880
  722POPC   C4A12390  17.957  32.791   7.594
  722POPC   C1B12391  17.139  32.750   8.907
  722POPC   C2B12392  16.980  32.854   8.472
  722POPC   C3B12393  17.080  32.928   8.023
  722POPC   C4B12394  17.118  32.619   7.687
  723POPC   NC312395  24.080  24.754   9.594
  723POPC   PO412396  24.654  24.289   9.503
  723POPC   GL112397  24.448  24.438   9.140
  723POPC   GL212398  24.147  24.284   9.048
  723POPC   C1A12399  24.266  24.842   8.966
  723POPC   D2A12400  24.124  25.001   8.573
  723POPC   C3A12401  24.292  24.766   8.183
  723POPC   C4A12402  24.669  24.739   7.868
  723POPC   C1B12403  24.268  24.437   8.628
  723POPC   C2B12404  24.243  24.227   8.241
  723POPC   C3B12405  24.431  24.264   7.864
  723POPC   C4B12406  24.228  24.607   7.680
  724POPC   NC312407   4.063  37.553   9.601
  724POPC   PO412408   4.529  38.005   9.473
  724POPC   GL112409   4.330  37.715   9.164
  724POPC   GL212410   3.972  37.748   9.128
  724POPC   C1A12411   4.325  37.554   8.715
  724POPC   D2A12412   4.523  37.428   8.298
  724POPC   C3A12413   4.291  37.553   7.907
  724POPC   C4A12414   4.365  37.629   7.458
  724POPC   C1B12415   4.126  38.031   8.812
  724POPC   C2B12416   3.999  37.913   8.399
  724POPC   C3B12417   3.972  37.980   7.964
  724POPC   C4B12418   4.340  38.059   7.760
  725POPC   NC312419  40.077   1.202   9.623
  725POPC   PO412420  39.453   1.334   9.479
  725POPC   GL112421  39.797   1.379   9.201
  725POPC   GL212422  39.978   1.056   9.137
  725POPC   C1A12423  40.112   1.492   8.906
  725POPC   D2A12424  40.257   1.310   8.532
  725POPC   C3A12425  40.105   1.457   8.163
  725POPC   C4A12426  40.213   1.449   7.771
  725POPC   C1B12427  39.787   1.139   8.722
  725POPC   C2B12428  39.866   1.029   8.299
  725POPC   C3B12429  39.978   1.017   7.866
  725POPC   C4B12430  39.886   0.902   7.452
  726POPC   NC312431  11.501  10.699  10.016
  726POPC   PO412432  11.213  10.299   9.618
  726POPC   GL112433  11.148  10.592   9.258
  726POPC   GL212434  11.453  10.623   9.044
  726POPC   C1A12435  11.006  10.510   8.819
  726POPC   D2A12436  11.161  10.683   8.449
  726POPC   C3A12437  11.084  10.556   8.037
  726POPC   C4A12438  11.338  10.601   7.702
  726POPC   C1B12439  11.465  10.278   8.747
  726POPC   C2B12440  11.477  10.286   8.284
  726POPC   C3B12441  11.643  10.215   7.868
  726POPC   C4B12442  11.594  10.205   7.393
  727POPC   NC312443  34.348  25.840   9.531
  727POPC   PO412444  34.898  26.185   9.459
  727POPC   GL112445  34.598  26.136   9.180
  727POPC   GL212446  34.353  26.326   9.327
  727POPC   C1A12447  34.629  26.002   8.771
  727POPC   D2A12448  34.834  26.168   8.402
  727POPC   C3A12449  34.611  26.086   8.047
  727POPC   C4A12450  34.449  25.791   7.741
  727POPC   C1B12451  34.225  26.351   8.905
  727POPC   C2B12452  34.335  26.310   8.484
  727POPC   C3B12453  34.300  26.484   8.106
  727POPC   C4B12454  34.275  26.318   7.729
  728POPC   NC312455  26.525  23.128   9.455
  728POPC   PO412456  26.829  22.543   9.516
  728POPC   GL112457  26.891  22.842   9.165
  728POPC   GL212458  27.148  22.581   9.085
  728POPC   C1A12459  26.578  22.969   8.808
  728POPC   D2A12460  26.465  23.112   8.356
  728POPC   C3A12461  26.877  23.183   8.162
  728POPC   C4A12462  27.076  23.152   7.756
  728POPC   C1B12463  26.980  22.652   8.677
  728POPC   C2B12464  26.679  22.651   8.326
  728POPC   C3B12465  26.747  22.752   7.881
  728POPC   C4B12466  27.173  22.644   7.731
  729POPC   NC312467  26.447  25.595   9.470
  729POPC   PO412468  26.373  24.964   9.656
  729POPC   GL112469  26.203  24.907   9.244
  729POPC   GL212470  26.092  25.269   9.230
  729POPC   C1A12471  25.931  24.882   8.866
  729POPC   D2A12472  25.758  24.681   8.472
  729POPC   C3A12473  25.713  24.922   8.086
  729POPC   C4A12474  26.004  25.055   7.776
  729POPC   C1B12475  26.221  25.346   8.809
  729POPC   C2B12476  26.146  25.446   8.369
  729POPC   C3B12477  26.222  25.494   7.923
  729POPC   C4B12478  25.953  25.597   7.590
  730POPC   NC312479   0.363  15.356   9.596
  730POPC   PO412480   0.894  14.858   9.642
  730POPC   GL112481   0.716  14.803   9.181
  730POPC   GL212482   0.350  14.998   9.168
  730POPC   C1A12483   0.644  14.958   8.751
  730POPC   D2A12484   0.376  14.918   8.387
  730POPC   C3A12485   0.650  14.974   8.033
  730POPC   C4A12486   0.601  14.938   7.570
  730POPC   C1B12487   0.213  15.252   8.810
  730POPC   C2B12488   0.273  15.429   8.380
  730POPC   C3B12489   0.172  15.290   7.962
  730POPC   C4B12490   0.026  15.586   7.665
  731POPC   NC312491  43.629  43.543   9.461
  731POPC   PO412492  43.029  43.609   9.248
  731POPC   GL112493  43.301  43.737   8.975
  731POPC   GL212494  43.481  43.991   9.172
  731POPC   C1A12495  43.128  43.862   8.578
  731POPC   D2A12496  42.757  43.765   8.333
  731POPC   C3A12497  42.875  43.699   7.897
  731POPC   C4A12498  42.973  44.089   7.649
  731POPC   C1B12499  43.518  44.162   8.752
  731POPC   C2B12500  43.544  44.078   8.305
  731POPC   C3B12501  43.450  43.996   7.858
  731POPC   C4B12502  43.310  43.748   7.470
  732POPC   NC312503  34.017  30.667   9.611
  732POPC   PO412504  34.548  30.325   9.396
  732POPC   GL112505  34.518  30.741   9.199
  732POPC   GL212506  34.190  30.770   9.146
  732POPC   C1A12507  34.782  30.826   8.832
  732POPC   D2A12508  34.779  30.629   8.471
  732POPC   C3A12509  34.678  30.726   8.102
  732POPC   C4A12510  34.932  30.633   7.794
  732POPC   C1B12511  34.348  30.544   8.751
  732POPC   C2B12512  34.384  30.287   8.364
  732POPC   C3B12513  34.353  30.359   7.910
  732POPC   C4B12514  34.356  30.748   7.697
  733POPC   NC312515   9.832  28.595   9.547
  733POPC   PO412516   9.419  28.044   9.543
  733POPC   GL112517   9.678  28.283   9.154
  733POPC   GL212518   9.920  28.621   9.060
  733POPC   C1A12519   9.934  28.153   8.766
  733POPC   D2A12520   9.940  27.970   8.344
  733POPC   C3A12521   9.779  28.176   7.912
  733POPC   C4A12522   9.845  28.596   7.687
  733POPC   C1B12523   9.640  28.565   8.744
  733POPC   C2B12524   9.652  28.379   8.371
  733POPC   C3B12525   9.498  28.574   8.055
  733POPC   C4B12526   9.343  28.722   7.701
  734POPC   NC312527  37.536  16.537   9.495
  734POPC   PO412528  38.062  16.885   9.588
  734POPC   GL112529  37.770  16.946   9.246
  734POPC   GL212530  37.423  17.030   9.386
  734POPC   C1A12531  37.801  16.663   8.884
  734POPC   D2A12532  38.061  16.592   8.538
  734POPC   C3A12533  37.792  16.869   8.313
  734POPC   C4A12534  37.645  16.764   7.914
  734POPC   C1B12535  37.333  16.913   8.949
  734POPC   C2B12536  37.294  16.878   8.523
  734POPC   C3B12537  37.316  17.085   8.149
  734POPC   C4B12538  37.223  16.985   7.738
  735POPC   NC312539  23.978   1.283   9.497
  735POPC   PO412540  23.476   0.905   9.702
  735POPC   GL112541  23.605   1.146   9.205
  735POPC   GL212542  23.648   1.506   9.169
  735POPC   C1A12543  23.490   1.211   8.758
  735POPC   D2A12544  23.677   1.223   8.351
  735POPC   C3A12545  23.446   1.131   7.970
  735POPC   C4A12546  23.608   0.884   7.673
  735POPC   C1B12547  23.867   1.565   8.796
  735POPC   C2B12548  23.985   1.633   8.387
  735POPC   C3B12549  23.867   1.583   7.979
  735POPC   C4B12550  24.140   1.486   7.659
  736POPC   NC312551  28.150  42.275   9.606
  736POPC   PO412552  28.843  42.352   9.766
  736POPC   GL112553  28.724  42.213   9.271
  736POPC   GL212554  28.391  42.288   9.148
  736POPC   C1A12555  28.796  42.220   8.790
  736POPC   D2A12556  28.745  42.441   8.351
  736POPC   C3A12557  28.781  42.212   7.925
  736POPC   C4A12558  28.933  42.000   7.518
  736POPC   C1B12559  28.320  42.392   8.701
  736POPC   C2B12560  28.312  42.127   8.320
  736POPC   C3B12561  28.249  42.304   7.934
  736POPC   C4B12562  28.148  42.725   8.059
  737POPC   NC312563  27.717  41.675   9.656
  737POPC   PO412564  27.133  41.943   9.527
  737POPC   GL112565  27.459  41.759   9.242
  737POPC   GL212566  27.492  41.374   9.257
  737POPC   C1A12567  27.651  41.673   8.858
  737POPC   D2A12568  27.495  41.834   8.475
  737POPC   C3A12569  27.648  41.730   8.087
  737POPC   C4A12570  27.473  41.772   7.712
  737POPC   C1B12571  27.286  41.267   8.819
  737POPC   C2B12572  27.195  41.081   8.386
  737POPC   C3B12573  27.451  41.196   8.021
  737POPC   C4B12574  27.752  41.336   7.704
  738POPC   NC312575  31.905  43.735   9.585
  738POPC   PO412576  31.531  43.119   9.638
  738POPC   GL112577  31.483  43.034   9.214
  738POPC   GL212578  31.765  42.840   9.111
  738POPC   C1A12579  31.352  43.027   8.800
  738POPC   D2A12580  31.444  42.854   8.434
  738POPC   C3A12581  31.595  43.078   8.130
  738POPC   C4A12582  31.423  43.265   7.792
  738POPC   C1B12583  31.884  42.930   8.715
  738POPC   C2B12584  31.958  42.754   8.340
  738POPC   C3B12585  31.963  42.803   7.909
  738POPC   C4B12586  31.637  42.837   7.651
  739POPC   NC312587  10.392  36.512   9.586
  739POPC   PO412588  10.800  35.995   9.464
  739POPC   GL112589  10.762  36.230   9.150
  739POPC   GL212590  10.425  36.274   9.140
  739POPC   C1A12591  10.740  36.146   8.745
  739POPC   D2A12592  10.875  36.339   8.389
  739POPC   C3A12593  10.758  36.138   8.010
  739POPC   C4A12594  10.981  35.959   7.677
  739POPC   C1B12595  10.283  36.334   8.737
  739POPC   C2B12596  10.372  36.202   8.331
  739POPC   C3B12597  10.304  36.388   7.925
  739POPC   C4B12598  10.150  36.225   7.526
  740POPC   NC312599  30.171  33.586   9.353
  740POPC   PO412600  29.594  33.894   9.561
  740POPC   GL112601  29.777  33.965   9.138
  740POPC   GL212602  30.100  34.022   9.099
  740POPC   C1A12603  29.855  34.190   8.715
  740POPC   D2A12604  29.843  33.989   8.346
  740POPC   C3A12605  29.743  34.092   7.961
  740POPC   C4A12606  29.447  33.823   7.767
  740POPC   C1B12607  30.158  33.733   8.725
  740POPC   C2B12608  30.123  33.582   8.321
  740POPC   C3B12609  30.230  33.880   8.004
  740POPC   C4B12610  30.031  33.740   7.687
  741POPC   NC312611  15.512  42.407   9.344
  741POPC   PO412612  14.974  42.104   9.547
  741POPC   GL112613  15.059  42.254   9.143
  741POPC   GL212614  15.328  42.012   9.087
  741POPC   C1A12615  15.034  42.574   8.817
  741POPC   D2A12616  15.279  42.652   8.439
  741POPC   C3A12617  15.168  42.314   8.160
  741POPC   C4A12618  14.922  42.342   7.797
  741POPC   C1B12619  15.387  42.174   8.699
  741POPC   C2B12620  15.375  41.887   8.376
  741POPC   C3B12621  15.447  41.932   7.959
  741POPC   C4B12622  15.427  42.236   7.658
  742POPC   NC312623  23.736  44.310   9.515
  742POPC   PO412624  23.503  44.923   9.517
  742POPC   GL112625  23.721  44.777   9.154
  742POPC   GL212626  23.734  44.443   9.022
  742POPC   C1A12627  23.919  44.895   8.796
  742POPC   D2A12628  23.770  44.712   8.427
  742POPC   C3A12629  23.905  44.933   8.107
  742POPC   C4A12630  23.667  44.911   7.742
  742POPC   C1B12631  24.067  44.391   8.705
  742POPC   C2B12632  24.215  44.526   8.282
  742POPC   C3B12633  24.027  44.523   7.855
  742POPC   C4B12634  24.214  44.370   7.491
  743POPC   NC312635  36.503   1.236   9.420
  743POPC   PO412636  37.214   1.493   9.439
  743POPC   GL112637  36.955   1.347   9.122
  743POPC   GL212638  36.745   1.608   9.139
  743POPC   C1A12639  36.901   1.035   8.770
  743POPC   D2A12640  37.039   1.154   8.372
  743POPC   C3A12641  36.747   1.164   8.027
  743POPC   C4A12642  36.751   0.950   7.635
  743POPC   C1B12643  36.628   1.477   8.735
  743POPC   C2B12644  36.820   1.648   8.356
  743POPC   C3B12645  37.112   1.549   8.046
  743POPC   C4B12646  37.092   1.347   7.672
  744POPC   NC312647  10.713  24.662   9.488
  744POPC   PO412648  10.736  23.972   9.513
  744POPC   GL112649  10.684  24.280   9.115
  744POPC   GL212650  10.678  24.661   8.985
  744POPC   C1A12651  10.736  24.261   8.654
  744POPC   D2A12652  10.900  24.145   8.274
  744POPC   C3A12653  10.708  24.258   7.910
  744POPC   C4A12654  10.513  24.321   7.529
  744POPC   C1B12655  10.311  24.522   8.705
  744POPC   C2B12656  10.368  24.351   8.284
  744POPC   C3B12657  10.225  24.539   7.903
  744POPC   C4B12658  10.199  24.698   7.441
  745POPC   NC312659  41.282   3.882   9.899
  745POPC   PO412660  41.729   4.205   9.491
  745POPC   GL112661  41.673   4.115   9.125
  745POPC   GL212662  41.399   4.325   9.042
  745POPC   C1A12663  41.773   4.153   8.744
  745POPC   D2A12664  41.547   4.367   8.459
  745POPC   C3A12665  41.580   4.177   8.071
  745POPC   C4A12666  41.812   4.283   7.737
  745POPC   C1B12667  41.131   4.165   8.775
  745POPC   C2B12668  41.041   4.388   8.457
  745POPC   C3B12669  41.212   4.567   8.110
  745POPC   C4B12670  41.259   4.425   7.725
  746POPC   NC312671  23.494  15.731  10.230
  746POPC   PO412672  23.510  16.058   9.564
  746POPC   GL112673  23.760  15.982   9.193
  746POPC   GL212674  23.926  15.680   9.313
  746POPC   C1A12675  23.816  16.100   8.744
  746POPC   D2A12676  23.587  16.058   8.345
  746POPC   C3A12677  23.775  16.181   7.970
  746POPC   C4A12678  23.598  15.951   7.622
  746POPC   C1B12679  23.898  15.596   8.871
  746POPC   C2B12680  23.954  15.703   8.453
  746POPC   C3B12681  23.835  15.668   8.043
  746POPC   C4B12682  24.099  15.458   7.758
  747POPC   NC312683  31.982  24.349   9.372
  747POPC   PO412684  31.536  24.669   9.759
  747POPC   GL112685  31.461  24.579   9.302
  747POPC   GL212686  31.464  24.220   9.271
  747POPC   C1A12687  31.559  24.656   8.859
  747POPC   D2A12688  31.358  24.904   8.508
  747POPC   C3A12689  31.386  24.713   8.095
  747POPC   C4A12690  31.787  24.582   7.875
  747POPC   C1B12691  31.285  24.190   8.870
  747POPC   C2B12692  31.330  24.333   8.494
  747POPC   C3B12693  31.552  24.227   8.172
  747POPC   C4B12694  31.368  24.252   7.811
  748POPC   NC312695   6.294  13.419   9.489
  748POPC   PO412696   5.681  13.607   9.614
  748POPC   GL112697   5.845  13.483   9.201
  748POPC   GL212698   5.811  13.799   9.075
  748POPC   C1A12699   5.864  13.278   8.761
  748POPC   D2A12700   6.082  13.151   8.391
  748POPC   C3A12701   5.891  13.243   7.962
  748POPC   C4A12702   5.942  13.476   7.576
  748POPC   C1B12703   5.521  13.637   8.777
  748POPC   C2B12704   5.647  13.506   8.366
  748POPC   C3B12705   5.648  13.718   7.997
  748POPC   C4B12706   5.922  14.026   7.840
  749POPC   NC312707  38.549   9.559   9.552
  749POPC   PO412708  37.996   9.902   9.484
  749POPC   GL112709  38.260   9.804   9.170
  749POPC   GL212710  38.130   9.458   9.238
  749POPC   C1A12711  38.511   9.702   8.776
  749POPC   D2A12712  38.602   9.487   8.372
  749POPC   C3A12713  38.736   9.728   8.036
  749POPC   C4A12714  38.737   9.779   7.575
  749POPC   C1B12715  38.033   9.519   8.830
  749POPC   C2B12716  38.076   9.452   8.440
  749POPC   C3B12717  38.170   9.633   8.080
  749POPC   C4B12718  38.367   9.504   7.754
  750POPC   NC312719  26.185  20.602   9.350
  750POPC   PO412720  25.555  20.271   9.415
  750POPC   GL112721  25.774  20.462   9.045
  750POPC   GL212722  25.859  20.848   9.042
  750POPC   C1A12723  25.874  20.275   8.641
  750POPC   D2A12724  25.730  20.193   8.237
  750POPC   C3A12725  25.894  20.519   8.074
  750POPC   C4A12726  26.012  20.641   7.709
  750POPC   C1B12727  26.122  20.770   8.704
  750POPC   C2B12728  26.284  20.503   8.411
  750POPC   C3B12729  26.417  20.602   8.025
  750POPC   C4B12730  26.665  20.415   7.755
  751POPC   NC312731  43.808  38.861   9.922
  751POPC   PO412732  43.973  38.427   9.455
  751POPC   GL112733  43.770  38.363   9.070
  751POPC   GL212734  43.990  38.081   9.007
  751POPC   C1A12735  43.711  38.489   8.621
  751POPC   D2A12736  44.124  38.566   8.372
  751POPC   C3A12737  44.080  38.545   7.909
  751POPC   C4A12738  44.227  38.492   7.447
  751POPC   C1B12739  43.771  37.992   8.648
  751POPC   C2B12740  43.840  38.152   8.241
  751POPC   C3B12741  43.975  38.044   7.862
  751POPC   C4B12742  43.849  38.177   7.465
  752POPC   NC312743   5.298  27.254   9.475
  752POPC   PO412744   4.916  27.726   9.650
  752POPC   GL112745   5.031  27.754   9.211
  752POPC   GL212746   5.007  27.428   9.096
  752POPC   C1A12747   5.227  27.754   8.767
  752POPC   D2A12748   5.312  27.531   8.351
  752POPC   C3A12749   5.023  27.542   8.001
  752POPC   C4A12750   4.875  27.890   7.775
  752POPC   C1B12751   5.309  27.227   8.814
  752POPC   C2B12752   5.467  27.035   8.451
  752POPC   C3B12753   5.661  27.230   8.078
  752POPC   C4B12754   5.513  27.547   7.819
  753POPC   NC312755  27.595  37.861   9.623
  753POPC   PO412756  27.390  37.345   9.381
  753POPC   GL112757  27.466  37.661   9.068
  753POPC   GL212758  27.421  38.037   9.184
  753POPC   C1A12759  27.647  37.545   8.655
  753POPC   D2A12760  27.809  37.391   8.232
  753POPC   C3A12761  27.540  37.509   7.891
  753POPC   C4A12762  27.707  37.490   7.456
  753POPC   C1B12763  27.380  38.073   8.758
  753POPC   C2B12764  27.360  37.853   8.360
  753POPC   C3B12765  27.393  38.008   7.958
  753POPC   C4B12766  27.372  37.878   7.564
  754POPC   NC312767   3.616   4.770   9.626
  754POPC   PO412768   3.218   5.280   9.523
  754POPC   GL112769   3.483   5.129   9.221
  754POPC   GL212770   3.317   4.801   9.208
  754POPC   C1A12771   3.646   5.301   8.815
  754POPC   D2A12772   3.683   5.547   8.408
  754POPC   C3A12773   3.700   5.274   8.032
  754POPC   C4A12774   3.430   4.946   7.843
  754POPC   C1B12775   3.666   4.769   8.929
  754POPC   C2B12776   3.669   4.862   8.534
  754POPC   C3B12777   3.810   4.787   8.151
  754POPC   C4B12778   3.958   4.807   7.763
  755POPC   NC312779  33.317   8.823   9.384
  755POPC   PO412780  32.870   9.193   9.651
  755POPC   GL112781  32.925   9.109   9.199
  755POPC   GL212782  32.601   9.217   9.128
  755POPC   C1A12783  33.029   8.917   8.766
  755POPC   D2A12784  32.963   8.725   8.338
  755POPC   C3A12785  33.162   8.822   7.933
  755POPC   C4A12786  33.108   8.685   7.506
  755POPC   C1B12787  32.770   9.376   8.788
  755POPC   C2B12788  32.750   9.199   8.426
  755POPC   C3B12789  32.848   9.304   8.068
  755POPC   C4B12790  32.845   9.163   7.687
  756POPC   NC312791   2.423  34.496   9.813
  756POPC   PO412792   3.028  34.442   9.531
  756POPC   GL112793   2.787  34.462   9.114
  756POPC   GL212794   2.447  34.508   9.122
  756POPC   C1A12795   2.690  34.511   8.654
  756POPC   D2A12796   2.904  34.763   8.277
  756POPC   C3A12797   2.802  34.651   7.896
  756POPC   C4A12798   2.884  34.291   7.692
  756POPC   C1B12799   2.304  34.175   8.795
  756POPC   C2B12800   2.352  34.046   8.393
  756POPC   C3B12801   2.441  34.346   8.086
  756POPC   C4B12802   2.398  34.449   7.653
  757POPC   NC312803  11.827  27.352   9.472
  757POPC   PO412804  12.306  27.837   9.544
  757POPC   GL112805  12.177  27.618   9.205
  757POPC   GL212806  11.866  27.802   9.175
  757POPC   C1A12807  12.056  27.571   8.764
  757POPC   D2A12808  12.206  27.313   8.435
  757POPC   C3A12809  12.068  27.440   8.047
  757POPC   C4A12810  12.313  27.288   7.679
  757POPC   C1B12811  12.151  28.049   8.912
  757POPC   C2B12812  12.125  27.994   8.463
  757POPC   C3B12813  12.198  28.017   8.019
  757POPC   C4B12814  12.001  27.767   7.680
  758POPC   NC312815  20.766  18.662   9.490
  758POPC   PO412816  20.886  19.359   9.493
  758POPC   GL112817  20.694  19.128   9.174
  758POPC   GL212818  20.942  18.950   9.092
  758POPC   C1A12819  20.465  19.125   8.797
  758POPC   D2A12820  20.341  19.328   8.428
  758POPC   C3A12821  20.282  19.026   8.158
  758POPC   C4A12822  20.399  18.999   7.766
  758POPC   C1B12823  20.954  19.143   8.703
  758POPC   C2B12824  20.805  19.007   8.333
  758POPC   C3B12825  20.761  19.252   8.032
  758POPC   C4B12826  20.755  19.339   7.648
  759POPC   NC312827  18.209  17.943   9.440
  759POPC   PO412828  18.613  18.474   9.551
  759POPC   GL112829  18.598  18.303   9.106
  759POPC   GL212830  18.243  18.284   9.068
  759POPC   C1A12831  18.485  18.406   8.653
  759POPC   D2A12832  18.057  18.547   8.566
  759POPC   C3A12833  18.005  18.512   8.131
  759POPC   C4A12834  18.315  18.294   7.917
  759POPC   C1B12835  18.300  17.934   8.769
  759POPC   C2B12836  18.256  17.615   8.456
  759POPC   C3B12837  18.253  17.781   8.057
  759POPC   C4B12838  18.118  17.884   7.697
  760POPC   NC312839  36.249  29.454   9.538
  760POPC   PO412840  36.045  28.776   9.504
  760POPC   GL112841  36.279  29.055   9.197
  760POPC   GL212842  36.080  29.367   9.066
  760POPC   C1A12843  36.479  29.083   8.801
  760POPC   D2A12844  36.288  29.201   8.402
  760POPC   C3A12845  36.444  29.021   8.016
  760POPC   C4A12846  36.431  29.109   7.570
  760POPC   C1B12847  35.750  29.622   8.820
  760POPC   C2B12848  35.630  29.720   8.382
  760POPC   C3B12849  35.892  29.655   7.992
  760POPC   C4B12850  35.988  29.229   7.812
  761POPC   NC312851  24.441  14.112   9.583
  761POPC   PO412852  24.570  13.465   9.604
  761POPC   GL112853  24.570  13.693   9.238
  761POPC   GL212854  24.850  13.906   9.235
  761POPC   C1A12855  24.618  13.513   8.841
  761POPC   D2A12856  24.414  13.615   8.482
  761POPC   C3A12857  24.563  13.460   8.105
  761POPC   C4A12858  24.435  13.620   7.731
  761POPC   C1B12859  24.736  14.002   8.809
  761POPC   C2B12860  24.656  14.055   8.376
  761POPC   C3B12861  24.799  13.934   7.950
  761POPC   C4B12862  24.770  13.914   7.486
  762POPC   NC312863  39.851  33.522   9.534
  762POPC   PO412864  40.090  34.187   9.657
  762POPC   GL112865  39.895  33.977   9.294
  762POPC   GL212866  40.139  33.695   9.128
  762POPC   C1A12867  39.742  33.927   8.875
  762POPC   D2A12868  40.083  33.913   8.615
  762POPC   C3A12869  40.019  33.976   8.180
  762POPC   C4A12870  39.904  33.893   7.751
  762POPC   C1B12871  40.336  33.415   8.772
  762POPC   C2B12872  40.394  33.271   8.322
  762POPC   C3B12873  40.215  33.538   8.005
  762POPC   C4B12874  40.420  33.880   7.820
  763POPC   NC312875  21.644  22.940  10.075
  763POPC   PO412876  21.226  22.881   9.574
  763POPC   GL112877  21.337  22.934   9.124
  763POPC   GL212878  21.670  22.815   9.032
  763POPC   C1A12879  21.282  23.017   8.680
  763POPC   D2A12880  21.175  23.166   8.257
  763POPC   C3A12881  21.127  22.830   7.988
  763POPC   C4A12882  21.264  22.874   7.577
  763POPC   C1B12883  21.808  23.013   8.707
  763POPC   C2B12884  21.682  23.067   8.325
  763POPC   C3B12885  21.637  22.788   8.036
  763POPC   C4B12886  21.790  22.800   7.690
  764POPC   NC312887   0.534  10.716   9.567
  764POPC   PO412888   0.331  10.097   9.509
  764POPC   GL112889   0.517  10.381   9.173
  764POPC   GL212890   0.381  10.737   9.097
  764POPC   C1A12891   0.425  10.408   8.728
  764POPC   D2A12892   0.594  10.254   8.391
  764POPC   C3A12893   0.446  10.382   8.015
  764POPC   C4A12894   0.452  10.143   7.645
  764POPC   C1B12895   0.134  10.847   8.719
  764POPC   C2B12896  44.999  10.712   8.301
  764POPC   C3B12897   0.123  10.765   7.862
  764POPC   C4B12898   0.440  10.637   7.544
  765POPC   NC312899  34.611  18.407  10.069
  765POPC   PO412900  35.005  18.107   9.584
  765POPC   GL112901  34.817  18.153   9.158
  765POPC   GL212902  34.482  18.320   9.154
  765POPC   C1A12903  34.725  18.202   8.711
  765POPC   D2A12904  34.945  18.231   8.317
  765POPC   C3A12905  34.687  18.091   7.947
  765POPC   C4A12906  34.392  17.942   7.618
  765POPC   C1B12907  34.229  18.299   8.755
  765POPC   C2B12908  34.310  18.159   8.323
  765POPC   C3B12909  34.240  18.344   7.917
  765POPC   C4B12910  33.872  18.284   7.663
  766POPC   NC312911  22.534  11.450   9.690
  766POPC   PO412912  21.922  11.350   9.560
  766POPC   GL112913  21.913  11.360   9.088
  766POPC   GL212914  22.103  11.059   9.022
  766POPC   C1A12915  21.957  11.516   8.617
  766POPC   D2A12916  21.979  11.258   8.201
  766POPC   C3A12917  21.949  11.386   7.754
  766POPC   C4A12918  22.154  11.478   7.329
  766POPC   C1B12919  22.267  11.092   8.598
  766POPC   C2B12920  22.409  10.965   8.184
  766POPC   C3B12921  22.404  11.127   7.753
  766POPC   C4B12922  22.681  11.399   7.524
  767POPC   NC312923  27.743  35.601   9.839
  767POPC   PO412924  27.352  35.156   9.615
  767POPC   GL112925  27.604  35.335   9.247
  767POPC   GL212926  27.881  35.122   9.100
  767POPC   C1A12927  27.617  35.596   8.844
  767POPC   D2A12928  27.438  35.585   8.422
  767POPC   C3A12929  27.682  35.609   8.037
  767POPC   C4A12930  27.686  35.492   7.583
  767POPC   C1B12931  27.595  35.105   8.770
  767POPC   C2B12932  27.483  35.072   8.375
  767POPC   C3B12933  27.706  35.103   8.020
  767POPC   C4B12934  27.648  34.978   7.639
  768POPC   NC312935  31.224  40.199   9.472
  768POPC   PO412936  31.698  39.704   9.496
  768POPC   GL112937  31.561  39.973   9.181
  768POPC   GL212938  31.797  40.202   9.095
  768POPC   C1A12939  31.292  39.916   8.842
  768POPC   D2A12940  31.375  39.726   8.446
  768POPC   C3A12941  31.240  39.810   8.064
  768POPC   C4A12942  31.070  39.899   7.687
  768POPC   C1B12943  31.732  40.086   8.675
  768POPC   C2B12944  31.482  40.251   8.321
  768POPC   C3B12945  31.533  40.259   7.873
  768POPC   C4B12946  31.780  40.168   7.485
  769POPC   NC312947  23.937  37.489   9.493
  769POPC   PO412948  23.553  37.964   9.524
  769POPC   GL112949  23.671  37.740   9.128
  769POPC   GL212950  24.045  37.804   9.106
  769POPC   C1A12951  23.501  37.652   8.697
  769POPC   D2A12952  23.299  37.806   8.302
  769POPC   C3A12953  23.430  37.595   7.917
  769POPC   C4A12954  23.672  37.569   7.529
  769POPC   C1B12955  24.050  37.618   8.677
  769POPC   C2B12956  24.084  37.574   8.207
  769POPC   C3B12957  24.144  37.603   7.750
  769POPC   C4B12958  24.009  37.960   7.431
  770POPC   NC312959  38.938  33.165   9.590
  770POPC   PO412960  39.569  33.150   9.457
  770POPC   GL112961  39.259  32.933   9.207
  770POPC   GL212962  38.948  32.724   9.205
  770POPC   C1A12963  39.294  32.800   8.777
  770POPC   D2A12964  39.575  33.026   8.492
  770POPC   C3A12965  39.395  33.143   8.063
  770POPC   C4A12966  39.118  32.854   7.809
  770POPC   C1B12967  38.894  33.094   8.895
  770POPC   C2B12968  39.045  33.144   8.464
  770POPC   C3B12969  38.905  33.272   8.062
  770POPC   C4B12970  39.052  33.323   7.618
  771POPC   NC312971  10.799  34.486   9.510
  771POPC   PO412972  10.458  35.056   9.500
  771POPC   GL112973  10.576  34.804   9.126
  771POPC   GL212974  10.609  34.430   9.042
  771POPC   C1A12975  10.536  34.733   8.668
  771POPC   D2A12976  10.742  34.692   8.308
  771POPC   C3A12977  10.550  34.850   7.965
  771POPC   C4A12978  10.351  34.457   7.847
  771POPC   C1B12979  10.858  34.301   8.672
  771POPC   C2B12980  11.094  34.277   8.291
  771POPC   C3B12981  10.894  34.077   7.936
  771POPC   C4B12982  10.635  34.156   7.527
  772POPC   NC312983  28.771  17.795   9.647
  772POPC   PO412984  28.902  17.037   9.657
  772POPC   GL112985  28.959  17.364   9.324
  772POPC   GL212986  28.743  17.361   9.055
  772POPC   C1A12987  29.217  17.268   8.923
  772POPC   D2A12988  29.176  17.064   8.521
  772POPC   C3A12989  29.201  17.267   8.121
  772POPC   C4A12990  28.878  17.291   7.799
  772POPC   C1B12991  28.940  17.675   8.782
  772POPC   C2B12992  29.151  17.760   8.396
  772POPC   C3B12993  29.058  17.744   7.965
  772POPC   C4B12994  28.995  17.741   7.532
  773POPC   NC312995   1.174   3.203   9.432
  773POPC   PO412996   0.965   3.842   9.582
  773POPC   GL112997   1.130   3.668   9.191
  773POPC   GL212998   1.107   3.982   9.081
  773POPC   C1A12999   1.044   3.412   8.788
  773POPC   D2A13000   1.216   3.198   8.390
  773POPC   C3A13001   1.064   3.358   7.988
  773POPC   C4A13002   1.271   3.487   7.617
  773POPC   C1B13003   1.323   3.873   8.720
  773POPC   C2B13004   1.223   3.742   8.318
  773POPC   C3B13005   1.118   3.885   7.908
  773POPC   C4B13006   0.933   3.869   7.449
  774POPC   NC313007  15.356   1.265   9.421
  774POPC   PO413008  14.821   0.936   9.451
  774POPC   GL113009  15.073   1.001   9.066
  774POPC   GL213010  15.065   1.332   8.987
  774POPC   C1A13011  15.339   1.071   8.661
  774POPC   D2A13012  15.193   1.181   8.244
  774POPC   C3A13013  15.324   0.950   7.875
  774POPC   C4A13014  15.290   1.038   7.456
  774POPC   C1B13015  15.149   1.571   8.597
  774POPC   C2B13016  15.382   1.659   8.229
  774POPC   C3B13017  15.333   1.514   7.788
  774POPC   C4B13018  15.459   1.535   7.314
  775POPC   NC313019  24.931  19.790   9.609
  775POPC   PO413020  24.317  19.819   9.788
  775POPC   GL113021  24.330  19.754   9.234
  775POPC   GL213022  24.191  20.069   9.097
  775POPC   C1A13023  24.621  19.829   8.817
  775POPC   D2A13024  25.002  19.722   8.523
  775POPC   C3A13025  24.873  19.671   8.070
  775POPC   C4A13026  24.570  19.889   7.814
  775POPC   C1B13027  24.174  20.007   8.643
  775POPC   C2B13028  24.412  19.778   8.326
  775POPC   C3B13029  24.315  19.501   7.984
  775POPC   C4B13030  24.183  19.660   7.566
  776POPC   NC313031  10.222  38.307   9.587
  776POPC   PO413032  10.707  38.684   9.438
  776POPC   GL113033  10.472  38.527   9.167
  776POPC   GL213034  10.688  38.707   8.917
  776POPC   C1A13035  10.183  38.520   8.816
  776POPC   D2A13036  10.091  38.656   8.390
  776POPC   C3A13037  10.482  38.700   8.160
  776POPC   C4A13038  10.560  38.513   7.754
  776POPC   C1B13039  10.661  38.264   8.796
  776POPC   C2B13040  10.511  38.236   8.410
  776POPC   C3B13041  10.751  38.189   8.078
  776POPC   C4B13042  10.842  38.073   7.677
  777POPC   NC313043  35.529  21.762   9.538
  777POPC   PO413044  35.147  22.370   9.402
  777POPC   GL113045  35.260  22.122   9.079
  777POPC   GL213046  35.576  21.972   9.080
  777POPC   C1A13047  35.383  22.155   8.640
  777POPC   D2A13048  35.243  22.011   8.250
  777POPC   C3A13049  35.320  22.200   7.864
  777POPC   C4A13050  35.295  21.972   7.509
  777POPC   C1B13051  35.839  21.913   8.738
  777POPC   C2B13052  35.779  22.021   8.321
  777POPC   C3B13053  35.634  21.815   7.992
  777POPC   C4B13054  35.754  21.869   7.615
  778POPC   NC313055   0.031  16.044   9.513
  778POPC   PO413056   0.589  15.808   9.711
  778POPC   GL113057   0.722  16.001   9.302
  778POPC   GL213058   0.824  15.724   9.085
  778POPC   C1A13059   0.531  16.123   8.887
  778POPC   D2A13060   0.416  15.974   8.461
  778POPC   C3A13061   0.375  16.273   8.117
  778POPC   C4A13062   0.566  16.112   7.757
  778POPC   C1B13063   0.640  15.532   8.725
  778POPC   C2B13064   0.764  15.431   8.283
  778POPC   C3B13065   0.570  15.616   7.923
  778POPC   C4B13066   0.498  15.434   7.547
  779POPC   NC313067  17.879  26.378   9.555
  779POPC   PO413068  18.257  25.765   9.387
  779POPC   GL113069  18.011  26.034   9.161
  779POPC   GL213070  18.229  26.306   9.160
  779POPC   C1A13071  18.030  26.028   8.715
  779POPC   D2A13072  18.235  25.747   8.436
  779POPC   C3A13073  18.092  25.849   8.032
  779POPC   C4A13074  18.061  26.171   7.751
  779POPC   C1B13075  18.495  26.274   8.752
  779POPC   C2B13076  18.389  26.238   8.286
  779POPC   C3B13077  18.562  26.069   7.879
  779POPC   C4B13078  18.517  26.219   7.448
  780POPC   NC313079  15.524  25.684   9.312
  780POPC   PO413080  15.941  26.143   9.600
  780POPC   GL113081  16.006  26.003   9.184
  780POPC   GL213082  16.109  25.664   9.263
  780POPC   C1A13083  16.197  26.166   8.787
  780POPC   D2A13084  16.278  26.086   8.363
  780POPC   C3A13085  15.908  26.048   8.127
  780POPC   C4A13086  15.850  25.908   7.719
  780POPC   C1B13087  16.221  25.644   8.822
  780POPC   C2B13088  16.131  25.565   8.375
  780POPC   C3B13089  16.279  25.689   8.012
  780POPC   C4B13090  16.327  26.100   7.847
  781POPC   NC313091  20.964  29.015   9.318
  781POPC   PO413092  20.481  29.409   9.600
  781POPC   GL113093  20.560  29.304   9.171
  781POPC   GL213094  20.429  28.966   9.196
  781POPC   C1A13095  20.752  29.162   8.745
  781POPC   D2A13096  20.948  29.108   8.372
  781POPC   C3A13097  20.778  29.383   8.093
  781POPC   C4A13098  20.695  29.319   7.682
  781POPC   C1B13099  20.264  29.149   8.798
  781POPC   C2B13100  20.338  29.345   8.397
  781POPC   C3B13101  20.318  29.174   7.989
  781POPC   C4B13102  20.321  28.990   7.569
  782POPC   NC313103  43.026  29.273   9.459
  782POPC   PO413104  43.519  28.911   9.690
  782POPC   GL113105  43.482  29.060   9.219
  782POPC   GL213106  43.381  29.411   9.082
  782POPC   C1A13107  43.293  28.982   8.786
  782POPC   D2A13108  43.102  29.120   8.358
  782POPC   C3A13109  43.080  28.869   7.969
  782POPC   C4A13110  43.307  28.912   7.565
  782POPC   C1B13111  42.978  29.389   8.808
  782POPC   C2B13112  42.639  29.319   8.472
  782POPC   C3B13113  42.728  29.355   8.035
  782POPC   C4B13114  43.150  29.347   7.843
  783POPC   NC313115  28.612   6.402   9.557
  783POPC   PO413116  28.039   6.801   9.380
  783POPC   GL113117  28.330   6.564   9.158
  783POPC   GL213118  28.591   6.788   9.200
  783POPC   C1A13119  28.442   6.462   8.734
  783POPC   D2A13120  28.186   6.287   8.399
  783POPC   C3A13121  28.384   6.276   8.001
  783POPC   C4A13122  28.196   6.367   7.592
  783POPC   C1B13123  28.400   6.977   8.782
  783POPC   C2B13124  28.448   7.054   8.301
  783POPC   C3B13125  28.657   6.783   7.967
  783POPC   C4B13126  28.690   6.467   7.630
  784POPC   NC313127  20.789  23.034   9.562
  784POPC   PO413128  20.256  22.633   9.527
  784POPC   GL113129  20.396  22.923   9.223
  784POPC   GL213130  20.280  23.255   9.333
  784POPC   C1A13131  20.614  22.895   8.822
  784POPC   D2A13132  20.773  22.903   8.412
  784POPC   C3A13133  20.576  22.668   8.089
  784POPC   C4A13134  20.717  22.789   7.683
  784POPC   C1B13135  20.269  23.280   8.865
  784POPC   C2B13136  20.462  23.332   8.436
  784POPC   C3B13137  20.473  23.175   7.999
  784POPC   C4B13138  20.228  22.846   7.762
  785POPC   NC313139  21.762   5.863   9.511
  785POPC   PO413140  21.336   6.327   9.562
  785POPC   GL113141  21.329   5.944   9.210
  785POPC   GL213142  21.644   5.780   9.037
  785POPC   C1A13143  21.319   5.963   8.714
  785POPC   D2A13144  21.285   5.729   8.360
  785POPC   C3A13145  21.379   5.820   7.947
  785POPC   C4A13146  21.280   5.515   7.639
  785POPC   C1B13147  21.634   6.260   8.975
  785POPC   C2B13148  21.636   6.326   8.526
  785POPC   C3B13149  21.763   6.099   8.170
  785POPC   C4B13150  21.697   6.165   7.726
  786POPC   NC313151  39.849  17.050   9.594
  786POPC   PO413152  40.034  16.328   9.636
  786POPC   GL113153  40.055  16.628   9.299
  786POPC   GL213154  39.745  16.725   9.202
  786POPC   C1A13155  40.190  16.584   8.862
  786POPC   D2A13156  39.986  16.559   8.460
  786POPC   C3A13157  40.084  16.878   8.191
  786POPC   C4A13158  40.276  16.724   7.832
  786POPC   C1B13159  39.808  16.928   8.816
  786POPC   C2B13160  39.597  16.895   8.438
  786POPC   C3B13161  39.586  17.034   8.069
  786POPC   C4B13162  39.872  17.055   7.745
  787POPC   NC313163  28.777  38.337   9.365
  787POPC   PO413164  29.338  38.695   9.615
  787POPC   GL113165  29.191  38.628   9.202
  787POPC   GL213166  28.888  38.808   9.170
  787POPC   C1A13167  29.179  38.371   8.824
  787POPC   D2A13168  28.868  38.124   8.547
  787POPC   C3A13169  28.822  38.175   8.102
  787POPC   C4A13170  29.208  38.165   7.901
  787POPC   C1B13171  28.945  38.853   8.759
  787POPC   C2B13172  29.007  38.598   8.408
  787POPC   C3B13173  29.083  38.645   8.012
  787POPC   C4B13174  29.079  38.829   7.642
  788POPC   NC313175  42.053   5.196   9.303
  788POPC   PO413176  42.430   4.679   9.648
  788POPC   GL113177  42.576   5.029   9.320
  788POPC   GL213178  42.557   5.403   9.179
  788POPC   C1A13179  42.648   5.023   8.847
  788POPC   D2A13180  42.382   4.837   8.501
  788POPC   C3A13181  42.139   5.007   8.121
  788POPC   C4A13182  42.079   5.061   7.675
  788POPC   C1B13183  42.608   5.504   8.702
  788POPC   C2B13184  42.459   5.413   8.272
  788POPC   C3B13185  42.494   5.340   7.837
  788POPC   C4B13186  42.659   5.344   7.421
  789POPC   NC313187  32.749  10.494   9.380
  789POPC   PO413188  33.222  10.988   9.441
  789POPC   GL113189  33.099  10.801   9.102
  789POPC   GL213190  33.219  10.465   9.088
  789POPC   C1A13191  33.232  10.861   8.720
  789POPC   D2A13192  33.044  10.779   8.368
  789POPC   C3A13193  33.248  10.598   8.052
  789POPC   C4A13194  32.944  10.688   7.805
  789POPC   C1B13195  32.925  10.418   8.723
  789POPC   C2B13196  32.914  10.255   8.294
  789POPC   C3B13197  32.958  10.194   7.868
  789POPC   C4B13198  33.348  10.141   7.705
  790POPC   NC313199  30.484  13.525   9.454
  790POPC   PO413200  31.123  13.722   9.599
  790POPC   GL113201  30.948  13.646   9.156
  790POPC   GL213202  30.592  13.778   9.037
  790POPC   C1A13203  30.876  13.504   8.706
  790POPC   D2A13204  30.994  13.647   8.275
  790POPC   C3A13205  30.896  13.417   7.882
  790POPC   C4A13206  30.817  13.579   7.456
  790POPC   C1B13207  30.328  13.415   8.857
  790POPC   C2B13208  30.236  13.368   8.445
  790POPC   C3B13209  30.445  13.580   8.120
  790POPC   C4B13210  30.405  13.392   7.722
  791POPC   NC313211   5.757   6.895   9.391
  791POPC   PO413212   5.487   6.301   9.671
  791POPC   GL113213   5.456   6.322   9.181
  791POPC   GL213214   5.555   6.629   9.004
  791POPC   C1A13215   5.653   6.213   8.744
  791POPC   D2A13216   5.977   6.420   8.432
  791POPC   C3A13217   5.929   6.315   7.992
  791POPC   C4A13218   5.607   6.249   7.704
  791POPC   C1B13219   5.776   6.875   8.683
  791POPC   C2B13220   5.786   6.861   8.239
  791POPC   C3B13221   5.831   6.780   7.813
  791POPC   C4B13222   6.023   6.933   7.487
  792POPC   NC313223  21.908   1.837   9.380
  792POPC   PO413224  22.449   2.213   9.536
  792POPC   GL113225  22.322   2.144   9.136
  792POPC   GL213226  21.981   2.279   9.069
  792POPC   C1A13227  22.324   2.100   8.701
  792POPC   D2A13228  22.057   2.172   8.360
  792POPC   C3A13229  22.148   1.888   8.013
  792POPC   C4A13230  22.511   1.554   7.965
  792POPC   C1B13231  21.822   1.939   8.758
  792POPC   C2B13232  21.695   1.828   8.351
  792POPC   C3B13233  21.664   2.092   7.998
  792POPC   C4B13234  21.787   1.853   7.633
  793POPC   NC313235  15.978  43.841   9.679
  793POPC   PO413236  15.915  44.471   9.515
  793POPC   GL113237  15.786  44.055   9.261
  793POPC   GL213238  16.056  43.792   9.184
  793POPC   C1A13239  15.587  43.805   8.938
  793POPC   D2A13240  15.624  43.884   8.508
  793POPC   C3A13241  15.573  43.665   8.130
  793POPC   C4A13242  15.689  43.619   7.674
  793POPC   C1B13243  16.040  43.998   8.769
  793POPC   C2B13244  16.084  43.735   8.416
  793POPC   C3B13245  16.070  43.646   8.003
  793POPC   C4B13246  16.447  43.497   7.871
  794POPC   NC313247   4.705  38.408   9.623
  794POPC   PO413248   4.104  38.716   9.667
  794POPC   GL113249   4.219  38.450   9.327
  794POPC   GL213250   4.518  38.570   9.175
  794POPC   C1A13251   4.023  38.540   8.945
  794POPC   D2A13252   3.853  38.391   8.563
  794POPC   C3A13253   4.155  38.390   8.192
  794POPC   C4A13254   4.036  38.470   7.752
  794POPC   C1B13255   4.545  38.433   8.759
  794POPC   C2B13256   4.849  38.394   8.426
  794POPC   C3B13257   4.690  38.336   8.022
  794POPC   C4B13258   4.494  38.681   7.796
  795POPC   NC313259  33.354  30.170   9.891
  795POPC   PO413260  33.833  29.753   9.572
  795POPC   GL113261  33.863  30.075   9.228
  795POPC   GL213262  33.565  30.144   9.035
  795POPC   C1A13263  34.056  30.132   8.846
  795POPC   D2A13264  34.104  29.866   8.498
  795POPC   C3A13265  33.970  30.038   8.123
  795POPC   C4A13266  33.986  30.014   7.687
  795POPC   C1B13267  33.283  30.079   8.727
  795POPC   C2B13268  33.450  29.920   8.366
  795POPC   C3B13269  33.319  29.828   7.991
  795POPC   C4B13270  33.460  29.914   7.575
  796POPC   NC313271   4.769  43.513   9.292
  796POPC   PO413272   4.983  44.152   9.398
  796POPC   GL113273   4.949  43.916   9.054
  796POPC   GL213274   5.217  43.690   9.098
  796POPC   C1A13275   4.929  43.998   8.628
  796POPC   D2A13276   5.258  44.099   8.344
  796POPC   C3A13277   5.029  44.147   7.974
  796POPC   C4A13278   4.815  43.788   7.813
  796POPC   C1B13279   5.291  43.621   8.674
  796POPC   C2B13280   5.219  43.568   8.251
  796POPC   C3B13281   5.356  43.756   7.875
  796POPC   C4B13282   5.568  44.154   7.930
  797POPC   NC313283  16.911  19.998   9.526
  797POPC   PO413284  16.433  19.535   9.582
  797POPC   GL113285  16.573  19.723   9.211
  797POPC   GL213286  16.879  19.578   9.171
  797POPC   C1A13287  16.494  19.894   8.797
  797POPC   D2A13288  16.770  19.938   8.441
  797POPC   C3A13289  16.781  19.810   8.000
  797POPC   C4A13290  16.708  20.142   7.690
  797POPC   C1B13291  17.067  19.722   8.799
  797POPC   C2B13292  17.194  19.668   8.375
  797POPC   C3B13293  17.209  19.482   7.977
  797POPC   C4B13294  17.141  19.659   7.572
  798POPC   NC313295  13.216  38.616   9.496
  798POPC   PO413296  13.041  37.985   9.414
  798POPC   GL113297  13.181  38.276   9.054
  798POPC   GL213298  13.266  38.658   9.005
  798POPC   C1A13299  12.835  38.460   8.790
  798POPC   D2A13300  12.446  38.572   8.573
  798POPC   C3A13301  12.486  38.335   8.207
  798POPC   C4A13302  12.669  38.484   7.864
  798POPC   C1B13303  13.248  38.668   8.569
  798POPC   C2B13304  13.065  38.432   8.212
  798POPC   C3B13305  13.162  38.519   7.768
  798POPC   C4B13306  13.283  38.832   7.425
  799POPC   NC313307   7.844  32.049   9.623
  799POPC   PO413308   8.244  32.528   9.449
  799POPC   GL113309   8.085  32.416   9.069
  799POPC   GL213310   7.937  32.088   9.076
  799POPC   C1A13311   8.314  32.214   8.732
  799POPC   D2A13312   8.248  32.134   8.305
  799POPC   C3A13313   8.244  32.449   8.013
  799POPC   C4A13314   8.055  32.452   7.645
  799POPC   C1B13315   7.809  32.282   8.641
  799POPC   C2B13316   7.763  32.239   8.179
  799POPC   C3B13317   7.997  32.014   7.855
  799POPC   C4B13318   7.966  31.975   7.412
  800POPC   NC313319  19.741  10.015   9.530
  800POPC   PO413320  19.958   9.343   9.449
  800POPC   GL113321  19.852   9.649   9.142
  800POPC   GL213322  19.535   9.752   9.058
  800POPC   C1A13323  19.935   9.922   8.785
  800POPC   D2A13324  20.061   9.800   8.365
  800POPC   C3A13325  19.851   9.950   8.003
  800POPC   C4A13326  20.034   9.843   7.627
  800POPC   C1B13327  19.668   9.492   8.666
  800POPC   C2B13328  19.683   9.445   8.184
  800POPC   C3B13329  19.684   9.501   7.736
  800POPC   C4B13330  19.690   9.389   7.298
  801POPC   NC313331  23.624  34.332   9.566
  801POPC   PO413332  23.717  35.008   9.629
  801POPC   GL113333  23.734  34.918   9.204
  801POPC   GL213334  23.440  34.704   9.189
  801POPC   C1A13335  23.672  34.879   8.751
  801POPC   D2A13336  23.815  34.588   8.450
  801POPC   C3A13337  23.772  34.780   8.070
  801POPC   C4A13338  23.811  34.604   7.693
  801POPC   C1B13339  23.477  34.408   8.821
  801POPC   C2B13340  23.382  34.279   8.404
  801POPC   C3B13341  23.383  34.415   7.961
  801POPC   C4B13342  23.338  34.419   7.491
  802POPC   NC313343  16.527  37.332   9.626
  802POPC   PO413344  16.405  36.708   9.397
  802POPC   GL113345  16.605  36.864   9.019
  802POPC   GL213346  16.781  37.172   9.197
  802POPC   C1A13347  16.977  36.899   8.772
  802POPC   D2A13348  17.093  36.771   8.391
  802POPC   C3A13349  16.790  36.891   8.097
  802POPC   C4A13350  16.813  37.169   7.781
  802POPC   C1B13351  16.442  37.323   8.945
  802POPC   C2B13352  16.358  37.086   8.585
  802POPC   C3B13353  16.340  37.148   8.140
  802POPC   C4B13354  16.358  37.353   7.756
  803POPC   NC313355  44.883  41.244   9.466
  803POPC   PO413356   0.263  40.745   9.600
  803POPC   GL113357  44.915  40.820   9.214
  803POPC   GL213358  44.564  40.927   9.234
  803POPC   C1A13359  44.839  40.613   8.825
  803POPC   D2A13360  44.764  40.407   8.434
  803POPC   C3A13361  44.821  40.637   8.073
  803POPC   C4A13362  44.558  40.715   7.730
  803POPC   C1B13363  44.615  41.084   8.826
  803POPC   C2B13364  44.832  40.996   8.460
  803POPC   C3B13365  44.668  41.107   8.101
  803POPC   C4B13366  44.858  41.126   7.725
  804POPC   NC313367  20.351   5.458   9.455
  804POPC   PO413368  20.438   6.128   9.361
  804POPC   GL113369  20.420   5.782   9.084
  804POPC   GL213370  20.746   5.632   9.157
  804POPC   C1A13371  20.351   5.813   8.664
  804POPC   D2A13372  20.073   5.931   8.372
  804POPC   C3A13373  20.189   6.226   8.099
  804POPC   C4A13374  20.444   6.106   7.754
  804POPC   C1B13375  20.834   5.927   8.847
  804POPC   C2B13376  20.804   5.867   8.433
  804POPC   C3B13377  20.876   5.945   8.068
  804POPC   C4B13378  20.908   5.854   7.699
  805POPC   NC313379  44.227  13.545   9.394
  805POPC   PO413380  43.654  13.962   9.461
  805POPC   GL113381  43.795  13.677   9.186
  805POPC   GL213382  44.029  13.946   9.086
  805POPC   C1A13383  43.954  13.538   8.778
  805POPC   D2A13384  44.144  13.453   8.402
  805POPC   C3A13385  44.110  13.723   8.071
  805POPC   C4A13386  44.084  13.488   7.711
  805POPC   C1B13387  43.646  13.934   8.792
  805POPC   C2B13388  43.661  13.754   8.394
  805POPC   C3B13389  43.613  13.855   7.996
  805POPC   C4B13390  43.603  13.641   7.640
  806POPC   NC313391  31.162  21.281   9.483
  806POPC   PO413392  30.595  21.590   9.557
  806POPC   GL113393  30.431  21.579   9.162
  806POPC   GL213394  30.504  21.207   9.168
  806POPC   C1A13395  30.239  21.409   8.791
  806POPC   D2A13396  30.426  21.259   8.430
  806POPC   C3A13397  30.455  21.444   8.047
  806POPC   C4A13398  30.892  21.556   7.895
  806POPC   C1B13399  30.809  21.300   8.828
  806POPC   C2B13400  30.957  21.237   8.392
  806POPC   C3B13401  30.799  21.052   8.009
  806POPC   C4B13402  31.047  21.068   7.607
  807POPC   NC313403   5.719   2.360   9.461
  807POPC   PO413404   6.163   2.870   9.437
  807POPC   GL113405   6.057   2.573   9.134
  807POPC   GL213406   5.718   2.727   9.083
  807POPC   C1A13407   5.940   2.443   8.714
  807POPC   D2A13408   6.013   2.676   8.311
  807POPC   C3A13409   6.153   2.443   7.946
  807POPC   C4A13410   5.813   2.422   7.716
  807POPC   C1B13411   5.950   2.979   8.749
  807POPC   C2B13412   5.873   3.219   8.349
  807POPC   C3B13413   5.851   3.068   7.910
  807POPC   C4B13414   5.677   2.905   7.493
  808POPC   NC313415  31.990  33.625   9.463
  808POPC   PO413416  32.694  33.642   9.523
  808POPC   GL113417  32.401  33.640   9.170
  808POPC   GL213418  32.172  33.995   9.168
  808POPC   C1A13419  32.273  33.727   8.756
  808POPC   D2A13420  32.214  33.998   8.423
  808POPC   C3A13421  32.234  33.705   8.104
  808POPC   C4A13422  32.344  33.583   7.730
  808POPC   C1B13423  31.818  34.048   8.841
  808POPC   C2B13424  31.686  34.109   8.382
  808POPC   C3B13425  31.913  34.066   7.996
  808POPC   C4B13426  32.291  34.108   7.732
  809POPC   NC313427  20.825  42.470   9.473
  809POPC   PO413428  20.148  42.203   9.556
  809POPC   GL113429  20.411  42.247   9.212
  809POPC   GL213430  20.294  42.545   9.148
  809POPC   C1A13431  20.732  42.248   8.871
  809POPC   D2A13432  20.954  42.273   8.500
  809POPC   C3A13433  20.706  42.166   8.174
  809POPC   C4A13434  20.736  42.296   7.737
  809POPC   C1B13435  20.478  42.683   8.815
  809POPC   C2B13436  20.631  42.658   8.438
  809POPC   C3B13437  20.487  42.597   8.062
  809POPC   C4B13438  20.601  42.813   7.730
  810POPC   NC313439  35.541  42.893   9.421
  810POPC   PO413440  35.256  43.486   9.435
  810POPC   GL113441  35.157  43.370   9.023
  810POPC   GL213442  35.259  43.056   9.040
  810POPC   C1A13443  35.214  43.263   8.581
  810POPC   D2A13444  35.478  43.326   8.241
  810POPC   C3A13445  35.378  43.111   7.936
  810POPC   C4A13446  35.008  43.135   7.745
  810POPC   C1B13447  35.013  42.828   8.767
  810POPC   C2B13448  34.942  42.868   8.350
  810POPC   C3B13449  35.105  42.684   8.012
  810POPC   C4B13450  35.269  42.697   7.627
  811POPC   NC313451  27.278  10.970   9.455
  811POPC   PO413452  27.623  11.712   9.550
  811POPC   GL113453  27.719  11.504   9.073
  811POPC   GL213454  27.594  11.141   9.020
  811POPC   C1A13455  27.756  11.450   8.619
  811POPC   D2A13456  27.600  11.227   8.275
  811POPC   C3A13457  27.709  11.358   7.850
  811POPC   C4A13458  27.447  11.435   7.433
  811POPC   C1B13459  27.709  10.856   8.661
  811POPC   C2B13460  27.924  10.753   8.268
  811POPC   C3B13461  28.061  10.962   7.867
  811POPC   C4B13462  27.815  11.071   7.449
  812POPC   NC313463  14.226  26.556   9.656
  812POPC   PO413464  14.632  27.111   9.570
  812POPC   GL113465  14.279  26.995   9.256
  812POPC   GL213466  14.342  26.696   9.124
  812POPC   C1A13467  14.167  26.994   8.771
  812POPC   D2A13468  14.507  26.875   8.430
  812POPC   C3A13469  14.406  26.920   7.979
  812POPC   C4A13470  14.062  27.072   7.692
  812POPC   C1B13471  14.302  26.482   8.707
  812POPC   C2B13472  14.088  26.596   8.321
  812POPC   C3B13473  14.198  26.441   7.927
  812POPC   C4B13474  14.341  26.156   7.579
  813POPC   NC313475  18.117   4.532   9.398
  813POPC   PO413476  18.447   5.077   9.752
  813POPC   GL113477  18.388   5.145   9.301
  813POPC   GL213478  18.095   4.986   9.123
  813POPC   C1A13479  18.538   5.114   8.866
  813POPC   D2A13480  18.345   4.911   8.497
  813POPC   C3A13481  18.287   5.163   8.134
  813POPC   C4A13482  18.530   5.096   7.763
  813POPC   C1B13483  17.899   4.761   8.757
  813POPC   C2B13484  17.804   4.942   8.357
  813POPC   C3B13485  17.862   4.900   7.933
  813POPC   C4B13486  18.048   5.112   7.587
  814POPC   NC313487  41.616  30.300   9.497
  814POPC   PO413488  41.799  30.947   9.530
  814POPC   GL113489  41.636  30.867   9.121
  814POPC   GL213490  41.668  30.529   9.060
  814POPC   C1A13491  41.333  30.779   8.782
  814POPC   D2A13492  41.337  30.581   8.384
  814POPC   C3A13493  41.461  30.846   8.037
  814POPC   C4A13494  41.844  31.019   7.942
  814POPC   C1B13495  41.950  30.412   8.747
  814POPC   C2B13496  41.786  30.338   8.347
  814POPC   C3B13497  41.873  30.494   7.961
  814POPC   C4B13498  41.855  30.411   7.523
  815POPC   NC313499  20.215  41.682   9.552
  815POPC   PO413500  20.957  41.650   9.449
  815POPC   GL113501  20.608  41.534   9.194
  815POPC   GL213502  20.336  41.748   9.068
  815POPC   C1A13503  20.627  41.437   8.758
  815POPC   D2A13504  20.678  41.639   8.349
  815POPC   C3A13505  20.696  41.349   8.015
  815POPC   C4A13506  20.460  41.268   7.645
  815POPC   C1B13507  20.379  41.920   8.657
  815POPC   C2B13508  20.235  41.920   8.218
  815POPC   C3B13509  20.488  41.801   7.856
  815POPC   C4B13510  20.720  41.834   7.489
  816POPC   NC313511  24.683  16.548   9.506
  816POPC   PO413512  24.543  17.214   9.456
  816POPC   GL113513  24.523  16.902   9.133
  816POPC   GL213514  24.780  16.620   9.015
  816POPC   C1A13515  24.541  16.974   8.716
  816POPC   D2A13516  24.730  16.811   8.381
  816POPC   C3A13517  24.477  16.980   8.110
  816POPC   C4A13518  24.426  16.847   7.714
  816POPC   C1B13519  24.350  16.484   8.876
  816POPC   C2B13520  24.251  16.606   8.467
  816POPC   C3B13521  24.466  16.457   8.097
  816POPC   C4B13522  24.223  16.387   7.750
  817POPC   NC313523   2.514   1.826   9.478
  817POPC   PO413524   2.241   1.247   9.622
  817POPC   GL113525   2.626   1.299   9.281
  817POPC   GL213526   3.013   1.389   9.299
  817POPC   C1A13527   2.834   1.061   8.920
  817POPC   D2A13528   2.690   0.930   8.513
  817POPC   C3A13529   2.734   1.199   8.161
  817POPC   C4A13530   2.740   1.107   7.737
  817POPC   C1B13531   3.216   1.391   8.872
  817POPC   C2B13532   3.084   1.489   8.442
  817POPC   C3B13533   2.974   1.647   8.018
  817POPC   C4B13534   3.049   1.511   7.568
  818POPC   NC313535  44.180   8.486   9.614
  818POPC   PO413536  44.875   8.487   9.537
  818POPC   GL113537  44.734   8.479   9.162
  818POPC   GL213538  44.608   8.129   9.160
  818POPC   C1A13539  44.687   8.495   8.740
  818POPC   D2A13540  44.564   8.294   8.383
  818POPC   C3A13541  44.723   8.419   8.015
  818POPC   C4A13542  44.484   8.522   7.640
  818POPC   C1B13543  44.710   7.935   8.764
  818POPC   C2B13544  44.727   7.814   8.298
  818POPC   C3B13545  44.701   7.939   7.862
  818POPC   C4B13546  44.469   8.024   7.476
  819POPC   NC313547  19.411  41.129   9.469
  819POPC   PO413548  19.766  41.655   9.689
  819POPC   GL113549  19.829  41.724   9.226
  819POPC   GL213550  19.688  41.391   9.108
  819POPC   C1A13551  19.912  41.692   8.773
  819POPC   D2A13552  19.814  41.354   8.486
  819POPC   C3A13553  19.782  41.590   8.119
  819POPC   C4A13554  19.990  41.758   7.770
  819POPC   C1B13555  19.375  41.270   8.803
  819POPC   C2B13556  19.313  41.154   8.386
  819POPC   C3B13557  19.506  41.191   7.975
  819POPC   C4B13558  19.882  41.254   7.717
  820POPC   NC313559  36.460  36.619   9.393
  820POPC   PO413560  35.894  36.871   9.573
  820POPC   GL113561  35.985  36.834   9.173
  820POPC   GL213562  36.282  36.846   8.973
  820POPC   C1A13563  35.889  37.120   8.821
  820POPC   D2A13564  36.044  37.011   8.430
  820POPC   C3A13565  36.123  37.276   8.104
  820POPC   C4A13566  36.477  37.131   7.846
  820POPC   C1B13567  35.915  36.617   8.733
  820POPC   C2B13568  35.708  36.611   8.388
  820POPC   C3B13569  35.897  36.737   8.013
  820POPC   C4B13570  35.907  36.484   7.679
  821POPC   NC313571  15.982  24.818   9.512
  821POPC   PO413572  16.204  24.213   9.547
  821POPC   GL113573  16.257  24.374   9.158
  821POPC   GL213574  16.407  24.661   9.256
  821POPC   C1A13575  16.000  24.359   8.795
  821POPC   D2A13576  15.786  24.519   8.426
  821POPC   C3A13577  15.845  24.260   8.063
  821POPC   C4A13578  15.824  24.405   7.635
  821POPC   C1B13579  16.411  24.725   8.827
  821POPC   C2B13580  16.288  24.610   8.451
  821POPC   C3B13581  16.137  24.668   8.059
  821POPC   C4B13582  16.263  24.720   7.671
  822POPC   NC313583  40.649  40.219   9.446
  822POPC   PO413584  40.996  39.701   9.486
  822POPC   GL113585  40.962  39.964   9.126
  822POPC   GL213586  41.248  40.149   8.993
  822POPC   C1A13587  40.783  39.873   8.733
  822POPC   D2A13588  40.897  39.665   8.348
  822POPC   C3A13589  40.577  39.660   8.077
  822POPC   C4A13590  40.441  39.742   7.675
  822POPC   C1B13591  41.085  40.449   8.702
  822POPC   C2B13592  40.767  40.308   8.430
  822POPC   C3B13593  40.811  40.117   8.058
  822POPC   C4B13594  40.723  40.277   7.647
  823POPC   NC313595   6.426  28.833   9.426
  823POPC   PO413596   6.560  29.401   9.438
  823POPC   GL113597   6.768  29.159   9.141
  823POPC   GL213598   6.912  28.853   9.281
  823POPC   C1A13599   6.632  29.111   8.728
  823POPC   D2A13600   6.448  29.386   8.379
  823POPC   C3A13601   6.441  29.269   7.961
  823POPC   C4A13602   6.495  29.404   7.523
  823POPC   C1B13603   6.988  28.767   8.842
  823POPC   C2B13604   6.786  28.745   8.409
  823POPC   C3B13605   6.775  28.888   7.970
  823POPC   C4B13606   6.518  28.897   7.571
  824POPC   NC313607  20.644  16.565   9.642
  824POPC   PO413608  20.713  15.988   9.375
  824POPC   GL113609  20.537  16.404   9.159
  824POPC   GL213610  20.445  16.791   9.237
  824POPC   C1A13611  20.633  16.669   8.784
  824POPC   D2A13612  20.483  16.921   8.436
  824POPC   C3A13613  20.612  16.813   8.057
  824POPC   C4A13614  20.469  16.777   7.698
  824POPC   C1B13615  20.377  17.104   8.902
  824POPC   C2B13616  20.718  17.298   8.684
  824POPC   C3B13617  20.879  17.215   8.260
  824POPC   C4B13618  20.869  17.203   7.814
  825POPC   NC313619  13.010   9.494   9.466
  825POPC   PO413620  12.447   9.387   9.505
  825POPC   GL113621  12.637   9.712   9.167
  825POPC   GL213622  12.995   9.859   9.093
  825POPC   C1A13623  12.751   9.607   8.738
  825POPC   D2A13624  12.895   9.802   8.389
  825POPC   C3A13625  12.807   9.642   7.997
  825POPC   C4A13626  13.116   9.668   7.671
  825POPC   C1B13627  12.710  10.111   8.775
  825POPC   C2B13628  12.515  10.220   8.414
  825POPC   C3B13629  12.630  10.135   7.983
  825POPC   C4B13630  12.762  10.348   7.616
  826POPC   NC313631   1.479  33.979   9.476
  826POPC   PO413632   0.973  33.583   9.605
  826POPC   GL113633   1.079  33.737   9.196
  826POPC   GL213634   1.437  33.685   9.040
  826POPC   C1A13635   0.945  33.656   8.778
  826POPC   D2A13636   1.166  33.748   8.421
  826POPC   C3A13637   1.084  33.473   8.091
  826POPC   C4A13638   1.363  33.615   7.809
  826POPC   C1B13639   1.250  34.080   8.855
  826POPC   C2B13640   1.180  34.256   8.474
  826POPC   C3B13641   1.484  34.182   8.171
  826POPC   C4B13642   1.510  34.154   7.751
  827POPC   NC313643   7.643  24.057   9.785
  827POPC   PO413644   7.294  23.431   9.582
  827POPC   GL113645   7.463  23.628   9.256
  827POPC   GL213646   7.573  24.002   9.262
  827POPC   C1A13647   7.337  23.613   8.856
  827POPC   D2A13648   7.505  23.784   8.492
  827POPC   C3A13649   7.602  23.563   8.173
  827POPC   C4A13650   7.534  23.515   7.740
  827POPC   C1B13651   7.175  24.074   9.018
  827POPC   C2B13652   7.051  24.023   8.564
  827POPC   C3B13653   7.135  23.873   8.131
  827POPC   C4B13654   7.491  23.993   7.906
  828POPC   NC313655   4.589   4.438   9.550
  828POPC   PO413656   4.104   4.024   9.550
  828POPC   GL113657   4.294   4.191   9.205
  828POPC   GL213658   4.601   4.057   9.165
  828POPC   C1A13659   4.267   4.464   8.860
  828POPC   D2A13660   4.145   4.673   8.514
  828POPC   C3A13661   4.312   4.606   8.134
  828POPC   C4A13662   4.395   4.562   7.714
  828POPC   C1B13663   4.435   3.998   8.745
  828POPC   C2B13664   4.601   4.083   8.336
  828POPC   C3B13665   4.385   4.092   7.947
  828POPC   C4B13666   3.978   3.824   7.912
  829POPC   NC313667   9.742  24.461   9.619
  829POPC   PO413668  10.280  24.752   9.319
  829POPC   GL113669   9.890  24.529   9.123
  829POPC   GL213670   9.563  24.285   9.169
  829POPC   C1A13671   9.808  24.349   8.714
  829POPC   D2A13672   9.892  24.505   8.335
  829POPC   C3A13673   9.731  24.330   7.991
  829POPC   C4A13674   9.775  24.640   7.708
  829POPC   C1B13675   9.316  24.430   8.807
  829POPC   C2B13676   9.357  24.440   8.372
  829POPC   C3B13677   9.354  24.683   8.015
  829POPC   C4B13678   9.286  24.409   7.697
  830POPC   NC313679  23.596   2.139   9.503
  830POPC   PO413680  24.181   1.712   9.401
  830POPC   GL113681  23.905   2.000   9.085
  830POPC   GL213682  23.554   2.004   9.048
  830POPC   C1A13683  23.751   2.036   8.613
  830POPC   D2A13684  23.498   2.182   8.294
  830POPC   C3A13685  23.676   2.064   7.912
  830POPC   C4A13686  23.686   1.920   7.472
  830POPC   C1B13687  23.265   2.247   8.812
  830POPC   C2B13688  23.122   2.493   8.449
  830POPC   C3B13689  23.240   2.590   8.040
  830POPC   C4B13690  23.411   2.435   7.686
  831POPC   NC313691   1.527   7.600   9.338
  831POPC   PO413692   1.221   7.048   9.518
  831POPC   GL113693   1.140   7.278   9.159
  831POPC   GL213694   1.054   7.645   9.184
  831POPC   C1A13695   1.321   7.256   8.769
  831POPC   D2A13696   1.496   7.217   8.383
  831POPC   C3A13697   1.266   7.252   8.040
  831POPC   C4A13698   1.338   7.272   7.634
  831POPC   C1B13699   1.269   7.773   8.782
  831POPC   C2B13700   1.233   7.647   8.382
  831POPC   C3B13701   1.340   7.754   7.961
  831POPC   C4B13702   1.292   7.755   7.527
  832POPC   NC313703  44.410  21.752   9.568
  832POPC   PO413704   0.000  21.648   9.260
  832POPC   GL113705  44.597  21.510   9.147
  832POPC   GL213706  44.457  21.165   9.168
  832POPC   C1A13707  44.596  21.434   8.727
  832POPC   D2A13708  44.775  21.101   8.461
  832POPC   C3A13709  44.920  21.310   8.094
  832POPC   C4A13710  44.985  21.442   7.675
  832POPC   C1B13711  44.260  21.068   8.745
  832POPC   C2B13712  44.312  21.265   8.331
  832POPC   C3B13713  44.458  21.154   7.911
  832POPC   C4B13714  44.219  21.207   7.548
  833POPC   NC313715  42.142  44.269   9.395
  833POPC   PO413716  42.497  44.839   9.516
  833POPC   GL113717  42.652  44.760   9.112
  833POPC   GL213718  42.347  44.600   9.026
  833POPC   C1A13719  42.720  44.634   8.674
  833POPC   D2A13720  42.438  44.521   8.365
  833POPC   C3A13721  42.578  44.564   7.990
  833POPC   C4A13722  42.345  44.703   7.655
  833POPC   C1B13723  42.117  44.346   8.728
  833POPC   C2B13724  41.921  44.346   8.321
  833POPC   C3B13725  42.099  44.375   7.940
  833POPC   C4B13726  41.992  44.341   7.517
  834POPC   NC313727  36.290   4.107   9.650
  834POPC   PO413728  36.290   3.779   9.108
  834POPC   GL113729  36.275   4.218   9.033
  834POPC   GL213730  36.196   4.569   9.060
  834POPC   C1A13731  36.234   4.309   8.615
  834POPC   D2A13732  35.881   4.189   8.390
  834POPC   C3A13733  35.870   4.300   7.983
  834POPC   C4A13734  35.880   3.975   7.719
  834POPC   C1B13735  35.914   4.684   8.743
  834POPC   C2B13736  36.039   4.691   8.316
  834POPC   C3B13737  36.338   4.432   8.120
  834POPC   C4B13738  36.285   4.331   7.687
  835POPC   NC313739  25.765  10.128   9.723
  835POPC   PO413740  26.125  10.668   9.672
  835POPC   GL113741  26.213  10.434   9.290
  835POPC   GL213742  26.147  10.730   9.113
  835POPC   C1A13743  26.074  10.230   8.870
  835POPC   D2A13744  26.019  10.368   8.410
  835POPC   C3A13745  26.017  10.086   8.025
  835POPC   C4A13746  25.830  10.058   7.614
  835POPC   C1B13747  26.393  10.606   8.743
  835POPC   C2B13748  26.528  10.313   8.415
  835POPC   C3B13749  26.423  10.408   7.994
  835POPC   C4B13750  26.194  10.397   7.592
  836POPC   NC313751  28.216  23.048   9.608
  836POPC   PO413752  28.818  23.156   9.276
  836POPC   GL113753  28.381  22.963   9.115
  836POPC   GL213754  28.076  22.753   9.218
  836POPC   C1A13755  28.258  22.699   8.757
  836POPC   D2A13756  28.491  22.610   8.434
  836POPC   C3A13757  28.344  22.814   8.096
  836POPC   C4A13758  28.587  23.105   7.905
  836POPC   C1B13759  27.922  23.061   8.899
  836POPC   C2B13760  28.077  23.190   8.501
  836POPC   C3B13761  27.925  23.141   8.093
  836POPC   C4B13762  28.110  23.047   7.700
  837POPC   NC313763   8.676  29.750   9.395
  837POPC   PO413764   8.914  30.355   9.632
  837POPC   GL113765   8.914  30.121   9.165
  837POPC   GL213766   9.183  29.867   9.059
  837POPC   C1A13767   8.743  29.965   8.753
  837POPC   D2A13768   8.672  29.632   8.431
  837POPC   C3A13769   8.890  29.585   8.024
  837POPC   C4A13770   8.731  29.806   7.675
  837POPC   C1B13771   9.218  29.957   8.599
  837POPC   C2B13772   9.000  30.058   8.224
  837POPC   C3B13773   9.167  30.051   7.795
  837POPC   C4B13774   9.046  30.104   7.350
  838POPC   NC313775  23.676   4.600   9.737
  838POPC   PO413776  24.083   4.053   9.577
  838POPC   GL113777  23.687   4.234   9.343
  838POPC   GL213778  23.922   4.449   9.263
  838POPC   C1A13779  23.444   4.303   8.907
  838POPC   D2A13780  23.441   4.662   8.601
  838POPC   C3A13781  23.529   4.559   8.183
  838POPC   C4A13782  23.520   4.103   8.079
  838POPC   C1B13783  23.903   4.101   8.909
  838POPC   C2B13784  23.807   4.261   8.505
  838POPC   C3B13785  24.001   4.296   8.096
  838POPC   C4B13786  23.827   4.263   7.704
  839POPC   NC313787   1.580  32.367   9.556
  839POPC   PO413788   1.011  31.972   9.633
  839POPC   GL113789   1.165  32.120   9.264
  839POPC   GL213790   0.998  32.421   9.197
  839POPC   C1A13791   1.359  32.010   8.890
  839POPC   D2A13792   1.152  32.037   8.499
  839POPC   C3A13793   1.297  32.135   8.065
  839POPC   C4A13794   1.240  32.098   7.606
  839POPC   C1B13795   1.275  32.508   8.823
  839POPC   C2B13796   1.411  32.754   8.475
  839POPC   C3B13797   1.412  32.651   8.044
  839POPC   C4B13798   1.295  32.607   7.627
  840POPC   NC313799   2.332   6.269   9.462
  840POPC   PO413800   2.786   6.570   9.861
  840POPC   GL113801   2.755   6.576   9.372
  840POPC   GL213802   2.966   6.324   9.197
  840POPC   C1A13803   2.690   6.584   8.887
  840POPC   D2A13804   2.848   6.426   8.444
  840POPC   C3A13805   2.676   6.571   8.040
  840POPC   C4A13806   2.764   6.796   7.650
  840POPC   C1B13807   3.138   6.184   8.787
  840POPC   C2B13808   3.005   5.946   8.405
  840POPC   C3B13809   3.106   6.173   8.039
  840POPC   C4B13810   2.926   6.319   7.647
  841POPC   NC313811  33.944  18.766   9.660
  841POPC   PO413812  34.118  19.321   9.519
  841POPC   GL113813  33.916  19.044   9.174
  841POPC   GL213814  34.023  18.686   9.155
  841POPC   C1A13815  33.716  18.896   8.753
  841POPC   D2A13816  33.560  18.759   8.330
  841POPC   C3A13817  33.536  19.083   7.997
  841POPC   C4A13818  33.828  19.265   7.728
  841POPC   C1B13819  34.216  18.818   8.784
  841POPC   C2B13820  34.085  18.726   8.372
  841POPC   C3B13821  33.946  18.778   7.971
  841POPC   C4B13822  34.022  18.773   7.567
  842POPC   NC313823   3.513  19.636   9.502
  842POPC   PO413824   3.171  20.195   9.411
  842POPC   GL113825   3.475  19.977   9.148
  842POPC   GL213826   3.334  19.655   9.005
  842POPC   C1A13827   3.741  19.878   8.808
  842POPC   D2A13828   3.549  19.656   8.482
  842POPC   C3A13829   3.546  19.814   8.098
  842POPC   C4A13830   3.739  19.886   7.731
  842POPC   C1B13831   3.249  20.010   8.701
  842POPC   C2B13832   3.246  20.201   8.291
  842POPC   C3B13833   3.124  20.054   7.882
  842POPC   C4B13834   3.296  20.007   7.483
  843POPC   NC313835  19.846  37.038   9.602
  843POPC   PO413836  19.528  36.448   9.613
  843POPC   GL113837  19.504  36.719   9.241
  843POPC   GL213838  19.616  37.078   9.129
  843POPC   C1A13839  19.615  36.665   8.810
  843POPC   D2A13840  19.798  36.562   8.413
  843POPC   C3A13841  19.741  36.875   8.131
  843POPC   C4A13842  19.723  36.839   7.707
  843POPC   C1B13843  19.874  37.141   8.725
  843POPC   C2B13844  20.197  37.366   8.428
  843POPC   C3B13845  20.335  37.269   8.032
  843POPC   C4B13846  20.158  37.081   7.703
  844POPC   NC313847  13.948   4.201   9.317
  844POPC   PO413848  14.523   4.501   9.444
  844POPC   GL113849  14.346   4.430   9.083
  844POPC   GL213850  14.104   4.647   9.046
  844POPC   C1A13851  14.273   4.198   8.715
  844POPC   D2A13852  14.548   4.236   8.378
  844POPC   C3A13853  14.373   4.290   7.974
  844POPC   C4A13854  14.562   4.066   7.652
  844POPC   C1B13855  14.250   4.723   8.662
  844POPC   C2B13856  14.108   4.650   8.261
  844POPC   C3B13857  14.158   4.763   7.835
  844POPC   C4B13858  14.192   4.459   7.520
  845POPC   NC313859  23.964  38.176   9.477
  845POPC   PO413860  23.655  38.826   9.486
  845POPC   GL113861  23.668  38.505   9.165
  845POPC   GL213862  23.451  38.211   9.084
  845POPC   C1A13863  23.833  38.635   8.777
  845POPC   D2A13864  23.713  38.868   8.445
  845POPC   C3A13865  23.744  38.681   8.091
  845POPC   C4A13866  23.666  38.863   7.726
  845POPC   C1B13867  23.790  38.114   8.785
  845POPC   C2B13868  23.783  37.954   8.366
  845POPC   C3B13869  23.833  37.959   7.932
  845POPC   C4B13870  23.848  38.354   7.700
  846POPC   NC313871  21.796  42.286   9.632
  846POPC   PO413872  21.278  42.621   9.484
  846POPC   GL113873  21.478  42.424   9.187
  846POPC   GL213874  21.373  42.108   9.271
  846POPC   C1A13875  21.347  42.364   8.808
  846POPC   D2A13876  21.477  42.362   8.433
  846POPC   C3A13877  21.288  42.255   8.085
  846POPC   C4A13878  21.633  42.234   7.792
  846POPC   C1B13879  21.142  41.918   8.879
  846POPC   C2B13880  21.168  41.824   8.416
  846POPC   C3B13881  21.000  41.809   7.984
  846POPC   C4B13882  21.157  42.032   7.645
  847POPC   NC313883  15.452  40.973   9.668
  847POPC   PO413884  16.141  40.920   9.618
  847POPC   GL113885  15.870  40.818   9.267
  847POPC   GL213886  16.109  40.589   9.129
  847POPC   C1A13887  15.805  40.914   8.807
  847POPC   D2A13888  15.990  41.047   8.393
  847POPC   C3A13889  15.759  40.914   7.996
  847POPC   C4A13890  15.636  40.619   7.638
  847POPC   C1B13891  16.216  40.619   8.675
  847POPC   C2B13892  15.978  40.534   8.312
  847POPC   C3B13893  16.037  40.447   7.908
  847POPC   C4B13894  16.458  40.542   7.756
  848POPC   NC313895  30.907  29.560   9.473
  848POPC   PO413896  30.311  29.835   9.554
  848POPC   GL113897  30.605  29.898   9.218
  848POPC   GL213898  30.732  30.232   9.114
  848POPC   C1A13899  30.738  29.689   8.853
  848POPC   D2A13900  30.668  29.490   8.459
  848POPC   C3A13901  30.941  29.607   8.140
  848POPC   C4A13902  30.795  29.717   7.739
  848POPC   C1B13903  30.956  30.346   8.729
  848POPC   C2B13904  30.989  30.109   8.341
  848POPC   C3B13905  30.795  30.197   7.947
  848POPC   C4B13906  30.700  30.201   7.525
  849POPC   NC313907  40.222  23.051   9.575
  849POPC   PO413908  40.958  22.978   9.607
  849POPC   GL113909  40.866  23.021   9.230
  849POPC   GL213910  40.592  23.172   9.258
  849POPC   C1A13911  40.982  22.878   8.805
  849POPC   D2A13912  40.780  23.030   8.470
  849POPC   C3A13913  40.873  22.875   8.072
  849POPC   C4A13914  41.094  23.044   7.708
  849POPC   C1B13915  40.475  22.842   8.945
  849POPC   C2B13916  40.294  22.887   8.542
  849POPC   C3B13917  40.368  23.060   8.143
  849POPC   C4B13918  40.544  23.089   7.756
  850POPC   NC313919  41.069  11.558   9.620
  850POPC   PO413920  40.629  11.080   9.415
  850POPC   GL113921  40.976  11.252   9.203
  850POPC   GL213922  41.140  11.584   9.120
  850POPC   C1A13923  40.886  11.208   8.804
  850POPC   D2A13924  40.666  10.988   8.468
  850POPC   C3A13925  40.643  11.232   8.092
  850POPC   C4A13926  40.411  11.488   7.837
  850POPC   C1B13927  41.282  11.627   8.741
  850POPC   C2B13928  41.026  11.485   8.422
  850POPC   C3B13929  41.132  11.349   8.075
  850POPC   C4B13930  41.064  11.548   7.728
  851POPC   NC313931  36.631   9.762   9.421
  851POPC   PO413932  37.199   9.487   9.622
  851POPC   GL113933  37.139   9.753   9.233
  851POPC   GL213934  36.832   9.618   8.997
  851POPC   C1A13935  37.160   9.931   8.804
  851POPC   D2A13936  36.816   9.936   8.493
  851POPC   C3A13937  36.934   9.753   8.086
  851POPC   C4A13938  36.793   9.896   7.669
  851POPC   C1B13939  36.643   9.399   8.657
  851POPC   C2B13940  36.661   9.273   8.249
  851POPC   C3B13941  36.548   9.477   7.884
  851POPC   C4B13942  36.678   9.446   7.454
  852POPC   NC313943  17.326  20.779   9.595
  852POPC   PO413944  17.872  20.414   9.731
  852POPC   GL113945  17.702  20.591   9.321
  852POPC   GL213946  17.696  20.263   9.158
  852POPC   C1A13947  17.523  20.676   8.883
  852POPC   D2A13948  17.412  20.431   8.495
  852POPC   C3A13949  17.507  20.596   8.083
  852POPC   C4A13950  17.685  20.649   7.708
  852POPC   C1B13951  17.922  20.300   8.760
  852POPC   C2B13952  17.921  20.432   8.367
  852POPC   C3B13953  17.870  20.230   7.994
  852POPC   C4B13954  18.036  20.317   7.609
  853POPC   NC313955  39.825  32.731   9.435
  853POPC   PO413956  40.234  33.218   9.454
  853POPC   GL113957  40.082  33.020   9.071
  853POPC   GL213958  39.730  32.982   8.995
  853POPC   C1A13959  40.136  32.780   8.685
  853POPC   D2A13960  40.383  32.598   8.339
  853POPC   C3A13961  40.155  32.691   7.993
  853POPC   C4A13962  40.276  33.072   7.794
  853POPC   C1B13963  39.824  33.402   8.847
  853POPC   C2B13964  39.933  33.445   8.452
  853POPC   C3B13965  39.908  33.149   8.133
  853POPC   C4B13966  39.809  33.293   7.739
  854POPC   NC313967  34.860  41.416   9.333
  854POPC   PO413968  35.383  41.815   9.448
  854POPC   GL113969  35.541  41.674   9.068
  854POPC   GL213970  35.509  41.305   9.065
  854POPC   C1A13971  35.443  41.664   8.634
  854POPC   D2A13972  35.605  41.789   8.236
  854POPC   C3A13973  35.464  41.730   7.823
  854POPC   C4A13974  35.667  41.548   7.462
  854POPC   C1B13975  35.230  41.200   8.701
  854POPC   C2B13976  35.284  41.345   8.239
  854POPC   C3B13977  35.552  41.226   7.879
  854POPC   C4B13978  35.394  41.130   7.449
  855POPC   NC313979  20.258  43.250   9.577
  855POPC   PO413980  19.893  43.857   9.422
  855POPC   GL113981  20.027  43.699   9.046
  855POPC   GL213982  20.239  43.941   8.947
  855POPC   C1A13983  19.890  43.776   8.620
  855POPC   D2A13984  19.508  43.805   8.417
  855POPC   C3A13985  19.503  43.491   8.090
  855POPC   C4A13986  19.859  43.439   7.770
  855POPC   C1B13987  20.206  44.206   8.656
  855POPC   C2B13988  20.059  44.124   8.279
  855POPC   C3B13989  19.859  43.854   8.050
  855POPC   C4B13990  19.485  43.887   7.787
  856POPC   NC313991  41.250  21.098   9.647
  856POPC   PO413992  41.644  21.574   9.721
  856POPC   GL113993  41.520  21.448   9.312
  856POPC   GL213994  41.858  21.394   9.180
  856POPC   C1A13995  41.364  21.427   8.890
  856POPC   D2A13996  41.524  21.170   8.567
  856POPC   C3A13997  41.483  21.225   8.111
  856POPC   C4A13998  41.401  21.567   7.808
  856POPC   C1B13999  41.781  21.689   8.857
  856POPC   C2B14000  41.742  21.653   8.400
  856POPC   C3B14001  41.849  21.752   7.962
  856POPC   C4B14002  41.806  21.628   7.510
  857POPC   NC314003  24.264  24.018   9.477
  857POPC   PO414004  24.693  23.535   9.475
  857POPC   GL114005  24.586  23.825   9.148
  857POPC   GL214006  24.274  23.703   9.081
  857POPC   C1A14007  24.733  23.784   8.726
  857POPC   D2A14008  24.673  23.966   8.326
  857POPC   C3A14009  24.864  23.797   7.959
  857POPC   C4A14010  24.684  23.714   7.540
  857POPC   C1B14011  24.246  23.919   8.707
  857POPC   C2B14012  24.151  23.729   8.329
  857POPC   C3B14013  24.351  23.749   7.951
  857POPC   C4B14014  24.211  23.867   7.570
  858POPC   NC314015  44.012   1.782   9.764
  858POPC   PO414016  43.606   2.286   9.539
  858POPC   GL114017  43.720   2.229   9.102
  858POPC   GL214018  43.792   1.864   9.115
  858POPC   C1A14019  43.664   2.072   8.665
  858POPC   D2A14020  43.757   2.265   8.268
  858POPC   C3A14021  43.736   2.048   7.919
  858POPC   C4A14022  44.113   1.881   7.824
  858POPC   C1B14023  44.047   1.713   8.750
  858POPC   C2B14024  44.006   1.763   8.320
  858POPC   C3B14025  43.740   1.562   8.046
  858POPC   C4B14026  43.514   1.548   7.655
  859POPC   NC314027  23.934  12.306   9.361
  859POPC   PO414028  23.542  11.821   9.596
  859POPC   GL114029  23.650  11.916   9.163
  859POPC   GL214030  23.572  12.241   9.001
  859POPC   C1A14031  23.808  11.786   8.741
  859POPC   D2A14032  24.003  11.848   8.328
  859POPC   C3A14033  23.658  11.977   8.007
  859POPC   C4A14034  23.452  11.810   7.581
  859POPC   C1B14035  23.798  12.288   8.598
  859POPC   C2B14036  24.136  12.346   8.290
  859POPC   C3B14037  24.077  12.387   7.853
  859POPC   C4B14038  23.800  12.176   7.560
  860POPC   NC314039  22.670  15.490   9.717
  860POPC   PO414040  23.233  15.104   9.445
  860POPC   GL114041  23.030  15.243   9.127
  860POPC   GL214042  22.697  15.303   9.225
  860POPC   C1A14043  23.177  15.248   8.723
  860POPC   D2A14044  23.280  15.134   8.301
  860POPC   C3A14045  22.980  15.196   7.963
  860POPC   C4A14046  22.958  14.921   7.610
  860POPC   C1B14047  22.658  15.181   8.778
  860POPC   C2B14048  22.795  15.399   8.410
  860POPC   C3B14049  22.588  15.560   8.064
  860POPC   C4B14050  22.454  15.375   7.705
  861POPC   NC314051  35.593  22.486   9.279
  861POPC   PO414052  35.925  21.994   9.455
  861POPC   GL114053  36.162  22.041   9.125
  861POPC   GL214054  36.007  22.313   9.014
  861POPC   C1A14055  36.357  21.971   8.740
  861POPC   D2A14056  36.287  22.104   8.328
  861POPC   C3A14057  36.139  21.854   7.983
  861POPC   C4A14058  36.234  21.963   7.532
  861POPC   C1B14059  35.818  22.436   8.638
  861POPC   C2B14060  35.756  22.516   8.212
  861POPC   C3B14061  35.857  22.306   7.837
  861POPC   C4B14062  36.085  22.445   7.448
  862POPC   NC314063  13.922  18.960   9.332
  862POPC   PO414064  13.204  19.003   9.413
  862POPC   GL114065  13.479  19.006   9.059
  862POPC   GL214066  13.653  18.698   9.001
  862POPC   C1A14067  13.753  19.093   8.704
  862POPC   D2A14068  13.656  18.965   8.312
  862POPC   C3A14069  13.836  19.015   7.936
  862POPC   C4A14070  13.646  19.299   7.714
  862POPC   C1B14071  13.410  18.608   8.689
  862POPC   C2B14072  13.230  18.699   8.332
  862POPC   C3B14073  13.328  18.862   7.912
  862POPC   C4B14074  13.338  18.955   7.456
  863POPC   NC314075  25.011  27.429   9.358
  863POPC   PO414076  25.362  27.908   9.556
  863POPC   GL114077  25.277  27.803   9.111
  863POPC   GL214078  25.277  27.445   8.930
  863POPC   C1A14079  25.289  27.868   8.658
  863POPC   D2A14080  25.238  27.751   8.213
  863POPC   C3A14081  25.459  27.374   8.142
  863POPC   C4A14082  25.643  27.177   7.790
  863POPC   C1B14083  25.058  27.406   8.541
  863POPC   C2B14084  24.734  27.632   8.307
  863POPC   C3B14085  24.792  27.765   7.895
  863POPC   C4B14086  24.868  27.597   7.479
  864POPC   NC314087  16.053   3.578   9.581
  864POPC   PO414088  15.475   3.258   9.556
  864POPC   GL114089  15.713   3.359   9.205
  864POPC   GL214090  15.793   3.721   9.159
  864POPC   C1A14091  15.634   3.419   8.770
  864POPC   D2A14092  15.725   3.688   8.424
  864POPC   C3A14093  15.871   3.460   8.074
  864POPC   C4A14094  16.052   3.634   7.716
  864POPC   C1B14095  16.126   3.504   8.885
  864POPC   C2B14096  16.272   3.377   8.435
  864POPC   C3B14097  16.391   3.342   7.977
  864POPC   C4B14098  16.399   3.312   7.500
  865POPC   NC314099  19.140  29.207   9.509
  865POPC   PO414100  18.585  29.308   9.383
  865POPC   GL114101  18.916  29.104   9.053
  865POPC   GL214102  19.302  29.027   9.067
  865POPC   C1A14103  18.952  28.983   8.632
  865POPC   D2A14104  18.719  28.919   8.253
  865POPC   C3A14105  18.905  29.113   7.871
  865POPC   C4A14106  18.708  29.289   7.503
  865POPC   C1B14107  19.515  28.899   8.693
  865POPC   C2B14108  19.478  29.064   8.264
  865POPC   C3B14109  19.418  29.032   7.810
  865POPC   C4B14110  19.218  29.257   7.439
  866POPC   NC314111  41.676  38.693   9.303
  866POPC   PO414112  41.149  38.315   9.531
  866POPC   GL114113  41.338  38.330   8.998
  866POPC   GL214114  41.590  38.580   8.826
  866POPC   C1A14115  41.370  38.189   8.608
  866POPC   D2A14116  41.517  38.325   8.232
  866POPC   C3A14117  41.284  38.249   7.848
  866POPC   C4A14118  41.220  38.130   7.425
  866POPC   C1B14119  41.968  38.892   8.757
  866POPC   C2B14120  42.185  39.001   8.390
  866POPC   C3B14121  42.033  38.847   7.991
  866POPC   C4B14122  41.729  38.554   7.829
  867POPC   NC314123   7.562  10.802  10.020
  867POPC   PO414124   7.419  10.310   9.589
  867POPC   GL114125   7.268  10.593   9.242
  867POPC   GL214126   7.541  10.780   9.059
  867POPC   C1A14127   7.013  10.551   8.849
  867POPC   D2A14128   7.080  10.781   8.447
  867POPC   C3A14129   7.292  10.594   8.119
  867POPC   C4A14130   7.153  10.470   7.735
  867POPC   C1B14131   7.572  10.427   8.786
  867POPC   C2B14132   7.574  10.244   8.375
  867POPC   C3B14133   7.693  10.317   7.939
  867POPC   C4B14134   7.589  10.352   7.522
  868POPC   NC314135  41.053  25.228   9.502
  868POPC   PO414136  41.653  25.252   9.694
  868POPC   GL114137  41.635  25.356   9.243
  868POPC   GL214138  41.345  25.243   9.097
  868POPC   C1A14139  41.767  25.252   8.791
  868POPC   D2A14140  42.022  25.490   8.481
  868POPC   C3A14141  41.839  25.415   8.085
  868POPC   C4A14142  41.580  25.282   7.749
  868POPC   C1B14143  41.302  25.040   8.714
  868POPC   C2B14144  41.489  25.081   8.314
  868POPC   C3B14145  41.285  24.917   7.953
  868POPC   C4B14146  40.983  25.095   7.674
  869POPC   NC314147  24.079  27.216   9.203
  869POPC   PO414148  24.610  27.641   9.448
  869POPC   GL114149  24.596  27.844   9.096
  869POPC   GL214150  24.818  27.654   8.927
  869POPC   C1A14151  24.515  27.958   8.678
  869POPC   D2A14152  24.353  28.075   8.280
  869POPC   C3A14153  24.275  27.744   8.023
  869POPC   C4A14154  24.375  27.613   7.606
  869POPC   C1B14155  24.519  27.396   8.710
  869POPC   C2B14156  24.292  27.254   8.348
  869POPC   C3B14157  24.507  27.290   7.983
  869POPC   C4B14158  24.629  27.160   7.611
  870POPC   NC314159  26.557  40.527   9.461
  870POPC   PO414160  27.232  40.402   9.327
  870POPC   GL114161  26.867  40.621   9.050
  870POPC   GL214162  26.481  40.777   9.041
  870POPC   C1A14163  26.782  40.770   8.635
  870POPC   D2A14164  26.569  40.514   8.336
  870POPC   C3A14165  26.707  40.630   7.969
  870POPC   C4A14166  27.095  40.828   7.899
  870POPC   C1B14167  26.455  41.155   8.763
  870POPC   C2B14168  26.735  41.307   8.463
  870POPC   C3B14169  26.761  41.187   8.042
  870POPC   C4B14170  26.469  40.999   7.730
  871POPC   NC314171  11.984  44.984   9.546
  871POPC   PO414172  12.369  44.536   9.754
  871POPC   GL114173  12.285  44.567   9.293
  871POPC   GL214174  11.920  44.592   9.200
  871POPC   C1A14175  12.294  44.823   8.900
  871POPC   D2A14176  12.075  44.940   8.499
  871POPC   C3A14177  12.246  44.737   8.120
  871POPC   C4A14178  12.192  44.703   7.676
  871POPC   C1B14179  11.893  44.515   8.753
  871POPC   C2B14180  11.765  44.599   8.292
  871POPC   C3B14181  11.772  44.896   7.883
  871POPC   C4B14182  11.740  44.716   7.424
  872POPC   NC314183  25.437  16.169   9.409
  872POPC   PO414184  24.879  15.745   9.458
  872POPC   GL114185  25.102  15.871   9.104
  872POPC   GL214186  25.140  16.232   9.002
  872POPC   C1A14187  25.146  15.801   8.682
  872POPC   D2A14188  25.466  15.747   8.393
  872POPC   C3A14189  25.301  15.873   8.015
  872POPC   C4A14190  25.133  15.634   7.674
  872POPC   C1B14191  25.516  16.192   8.721
  872POPC   C2B14192  25.542  16.280   8.274
  872POPC   C3B14193  25.696  16.206   7.864
  872POPC   C4B14194  25.592  15.872   7.591
  873POPC   NC314195  10.398  22.000   9.742
  873POPC   PO414196  10.804  22.415   9.622
  873POPC   GL114197  10.417  22.334   9.308
  873POPC   GL214198  10.417  21.986   9.148
  873POPC   C1A14199  10.392  22.343   8.813
  873POPC   D2A14200  10.431  22.037   8.431
  873POPC   C3A14201  10.573  22.155   8.020
  873POPC   C4A14202  10.423  22.528   7.793
  873POPC   C1B14203  10.087  21.913   8.790
  873POPC   C2B14204   9.904  21.976   8.381
  873POPC   C3B14205  10.123  21.872   8.024
  873POPC   C4B14206  10.192  21.605   7.688
  874POPC   NC314207  13.783  41.287   9.486
  874POPC   PO414208  13.567  40.663   9.547
  874POPC   GL114209  13.616  40.917   9.183
  874POPC   GL214210  13.304  40.969   9.078
  874POPC   C1A14211  13.894  40.889   8.823
  874POPC   D2A14212  13.946  40.601   8.467
  874POPC   C3A14213  13.859  40.819   8.058
  874POPC   C4A14214  13.654  40.742   7.661
  874POPC   C1B14215  13.406  40.700   8.759
  874POPC   C2B14216  13.463  40.791   8.357
  874POPC   C3B14217  13.269  40.645   7.983
  874POPC   C4B14218  13.095  40.843   7.656
  875POPC   NC314219  40.280  15.813   9.555
  875POPC   PO414220  39.537  15.887   9.443
  875POPC   GL114221  39.909  15.961   9.235
  875POPC   GL214222  40.212  16.158   9.152
  875POPC   C1A14223  40.101  15.698   8.915
  875POPC   D2A14224  39.917  15.631   8.524
  875POPC   C3A14225  40.134  15.691   8.149
  875POPC   C4A14226  39.896  15.759   7.779
  875POPC   C1B14227  39.902  16.151   8.759
  875POPC   C2B14228  39.841  16.088   8.283
  875POPC   C3B14229  40.013  16.262   7.897
  875POPC   C4B14230  40.389  16.266   7.624
  876POPC   NC314231  39.548   5.863   9.634
  876POPC   PO414232  39.015   5.569   9.513
  876POPC   GL114233  39.203   5.805   9.218
  876POPC   GL214234  39.251   6.153   9.306
  876POPC   C1A14235  39.322   5.703   8.818
  876POPC   D2A14236  39.167   5.586   8.423
  876POPC   C3A14237  39.377   5.659   8.023
  876POPC   C4A14238  39.487   5.426   7.638
  876POPC   C1B14239  39.138   6.266   8.904
  876POPC   C2B14240  39.155   6.099   8.526
  876POPC   C3B14241  39.185   6.203   8.131
  876POPC   C4B14242  39.081   6.011   7.782
  877POPC   NC314243  42.683  11.454   9.546
  877POPC   PO414244  42.360  10.920   9.869
  877POPC   GL114245  42.296  11.066   9.370
  877POPC   GL214246  42.419  11.322   9.137
  877POPC   C1A14247  42.065  11.059   8.892
  877POPC   D2A14248  42.162  11.215   8.457
  877POPC   C3A14249  41.975  11.137   8.043
  877POPC   C4A14250  41.965  11.070   7.597
  877POPC   C1B14251  42.580  11.151   8.752
  877POPC   C2B14252  42.623  11.121   8.284
  877POPC   C3B14253  42.501  11.301   7.866
  877POPC   C4B14254  42.558  11.144   7.425
  878POPC   NC314255   4.097  22.735   9.399
  878POPC   PO414256   3.549  23.112   9.576
  878POPC   GL114257   3.632  22.928   9.184
  878POPC   GL214258   3.618  22.554   9.198
  878POPC   C1A14259   3.614  23.105   8.770
  878POPC   D2A14260   3.837  23.108   8.406
  878POPC   C3A14261   3.593  23.144   8.013
  878POPC   C4A14262   3.724  23.280   7.617
  878POPC   C1B14263   3.401  22.654   8.806
  878POPC   C2B14264   3.350  22.835   8.386
  878POPC   C3B14265   3.429  22.628   7.984
  878POPC   C4B14266   3.430  22.483   7.538
  879POPC   NC314267  11.880  28.126   9.550
  879POPC   PO414268  12.424  28.528   9.349
  879POPC   GL114269  12.093  28.559   9.066
  879POPC   GL214270  11.805  28.401   9.133
  879POPC   C1A14271  12.080  28.480   8.643
  879POPC   D2A14272  12.139  28.683   8.270
  879POPC   C3A14273  12.271  28.538   7.860
  879POPC   C4A14274  12.358  28.606   7.360
  879POPC   C1B14275  11.665  28.193   8.769
  879POPC   C2B14276  11.716  28.262   8.336
  879POPC   C3B14277  11.795  28.337   7.911
  879POPC   C4B14278  12.017  28.246   7.533
  880POPC   NC314279  18.072  20.817   9.726
  880POPC   PO414280  18.355  20.157   9.457
  880POPC   GL114281  18.161  20.482   9.163
  880POPC   GL214282  18.398  20.593   9.013
  880POPC   C1A14283  18.023  20.798   8.779
  880POPC   D2A14284  18.040  20.958   8.329
  880POPC   C3A14285  18.143  20.674   7.954
  880POPC   C4A14286  18.134  20.783   7.450
  880POPC   C1B14287  18.547  20.895   8.776
  880POPC   C2B14288  18.602  20.952   8.378
  880POPC   C3B14289  18.669  20.667   8.069
  880POPC   C4B14290  18.603  20.693   7.642
  881POPC   NC314291  42.684  36.661   9.526
  881POPC   PO414292  43.351  36.820   9.561
  881POPC   GL114293  43.084  36.983   9.216
  881POPC   GL214294  42.733  37.140   9.243
  881POPC   C1A14295  43.212  37.009   8.777
  881POPC   D2A14296  43.333  37.123   8.349
  881POPC   C3A14297  43.286  36.766   8.053
  881POPC   C4A14298  43.291  36.598   7.621
  881POPC   C1B14299  42.709  36.851   8.874
  881POPC   C2B14300  42.905  36.696   8.484
  881POPC   C3B14301  42.746  36.671   8.078
  881POPC   C4B14302  42.722  37.010   7.825
  882POPC   NC314303  39.012   4.273   9.783
  882POPC   PO414304  39.315   4.696   9.293
  882POPC   GL114305  39.247   4.344   9.071
  882POPC   GL214306  39.002   4.157   9.266
  882POPC   C1A14307  39.182   4.426   8.642
  882POPC   D2A14308  39.369   4.270   8.277
  882POPC   C3A14309  39.356   4.561   7.975
  882POPC   C4A14310  39.357   4.217   7.715
  882POPC   C1B14311  38.832   4.119   8.852
  882POPC   C2B14312  38.899   4.079   8.404
  882POPC   C3B14313  38.931   4.251   8.012
  882POPC   C4B14314  38.820   4.224   7.606
  883POPC   NC314315  40.420  11.216   9.796
  883POPC   PO414316  39.828  11.316   9.497
  883POPC   GL114317  40.014  11.268   9.111
  883POPC   GL214318  40.369  11.358   9.078
  883POPC   C1A14319  39.939  11.277   8.677
  883POPC   D2A14320  39.736  11.108   8.336
  883POPC   C3A14321  39.735  11.332   8.019
  883POPC   C4A14322  39.913  11.575   7.755
  883POPC   C1B14323  40.319  10.960   8.851
  883POPC   C2B14324  40.173  10.841   8.445
  883POPC   C3B14325  40.159  11.043   8.018
  883POPC   C4B14326  39.957  10.898   7.637
  884POPC   NC314327  14.365  17.671   9.549
  884POPC   PO414328  14.527  17.017   9.472
  884POPC   GL114329  14.291  17.312   9.180
  884POPC   GL214330  14.057  17.645   9.145
  884POPC   C1A14331  14.412  17.493   8.808
  884POPC   D2A14332  14.271  17.561   8.414
  884POPC   C3A14333  14.515  17.508   8.045
  884POPC   C4A14334  14.571  17.359   7.664
  884POPC   C1B14335  14.012  17.846   8.779
  884POPC   C2B14336  14.121  18.038   8.364
  884POPC   C3B14337  14.077  17.789   7.977
  884POPC   C4B14338  14.229  17.715   7.559
  885POPC   NC314339  12.541   1.830   9.494
  885POPC   PO414340  12.179   2.327   9.551
  885POPC   GL114341  12.236   2.164   9.176
  885POPC   GL214342  12.098   1.840   9.207
  885POPC   C1A14343  11.985   2.211   8.800
  885POPC   D2A14344  11.929   2.002   8.437
  885POPC   C3A14345  12.000   2.194   8.042
  885POPC   C4A14346  11.766   2.231   7.677
  885POPC   C1B14347  11.930   1.642   8.829
  885POPC   C2B14348  11.959   1.457   8.415
  885POPC   C3B14349  11.992   1.669   8.048
  885POPC   C4B14350  11.777   1.711   7.699
  886POPC   NC314351  36.002   9.359   9.461
  886POPC   PO414352  35.948   8.724   9.651
  886POPC   GL114353  36.160   8.904   9.243
  886POPC   GL214354  35.886   9.087   9.056
  886POPC   C1A14355  36.235   8.918   8.752
  886POPC   D2A14356  35.834   8.968   8.475
  886POPC   C3A14357  35.837   8.782   8.050
  886POPC   C4A14358  36.163   8.794   7.727
  886POPC   C1B14359  36.015   9.401   8.748
  886POPC   C2B14360  35.864   9.485   8.344
  886POPC   C3B14361  36.028   9.331   7.955
  886POPC   C4B14362  36.229   9.253   7.563
  887POPC   NC314363  33.964  15.985   9.564
  887POPC   PO414364  34.299  15.411   9.429
  887POPC   GL114365  34.083  15.712   9.124
  887POPC   GL214366  34.063  16.108   9.090
  887POPC   C1A14367  34.060  15.807   8.696
  887POPC   D2A14368  33.829  15.828   8.349
  887POPC   C3A14369  33.959  15.904   7.930
  887POPC   C4A14370  33.630  15.990   7.628
  887POPC   C1B14371  33.812  16.240   8.695
  887POPC   C2B14372  33.934  16.335   8.247
  887POPC   C3B14373  33.906  16.395   7.794
  887POPC   C4B14374  34.095  16.537   7.405
  888POPC   NC314375  36.416  43.239   9.411
  888POPC   PO414376  35.962  42.700   9.360
  888POPC   GL114377  35.993  43.107   9.159
  888POPC   GL214378  35.693  43.335   9.186
  888POPC   C1A14379  36.266  43.141   8.780
  888POPC   D2A14380  36.414  43.080   8.340
  888POPC   C3A14381  36.272  43.345   8.022
  888POPC   C4A14382  36.299  43.056   7.664
  888POPC   C1B14383  35.683  43.163   8.773
  888POPC   C2B14384  35.921  43.217   8.429
  888POPC   C3B14385  35.874  43.065   8.052
  888POPC   C4B14386  35.815  43.329   7.724
  889POPC   NC314387  31.847   3.010   9.647
  889POPC   PO414388  32.540   2.844   9.560
  889POPC   GL114389  32.264   2.792   9.221
  889POPC   GL214390  32.016   3.043   9.177
  889POPC   C1A14391  32.364   2.915   8.803
  889POPC   D2A14392  32.256   2.721   8.424
  889POPC   C3A14393  32.471   2.894   8.067
  889POPC   C4A14394  32.319   2.746   7.684
  889POPC   C1B14395  31.862   2.765   8.845
  889POPC   C2B14396  31.755   2.915   8.427
  889POPC   C3B14397  31.965   2.943   8.037
  889POPC   C4B14398  31.882   3.169   7.692
  890POPC   NC314399  12.755  17.746   9.514
  890POPC   PO414400  13.172  17.157   9.498
  890POPC   GL114401  13.008  17.418   9.168
  890POPC   GL214402  13.157  17.719   9.137
  890POPC   C1A14403  12.617  17.538   8.902
  890POPC   D2A14404  12.601  17.683   8.462
  890POPC   C3A14405  12.738  17.371   8.144
  890POPC   C4A14406  12.562  17.304   7.751
  890POPC   C1B14407  13.065  17.685   8.698
  890POPC   C2B14408  13.190  17.565   8.294
  890POPC   C3B14409  13.082  17.696   7.869
  890POPC   C4B14410  13.192  17.693   7.401
  891POPC   NC314411  27.909   6.307   9.417
  891POPC   PO414412  27.349   6.655   9.670
  891POPC   GL114413  27.304   6.507   9.243
  891POPC   GL214414  27.589   6.682   9.151
  891POPC   C1A14415  27.197   6.687   8.823
  891POPC   D2A14416  27.390   6.894   8.455
  891POPC   C3A14417  27.290   6.698   8.077
  891POPC   C4A14418  27.528   6.481   7.779
  891POPC   C1B14419  27.754   6.960   8.815
  891POPC   C2B14420  27.986   6.821   8.449
  891POPC   C3B14421  28.018   6.643   8.028
  891POPC   C4B14422  28.213   6.863   7.694
  892POPC   NC314423  43.439   1.520   9.352
  892POPC   PO414424  43.350   0.886   9.535
  892POPC   GL114425  43.162   0.864   9.133
  892POPC   GL214426  43.194   1.226   9.023
  892POPC   C1A14427  42.896   0.910   8.783
  892POPC   D2A14428  43.171   1.111   8.493
  892POPC   C3A14429  43.147   0.931   8.081
  892POPC   C4A14430  43.401   1.069   7.724
  892POPC   C1B14431  43.222   1.625   8.766
  892POPC   C2B14432  43.107   1.728   8.385
  892POPC   C3B14433  43.244   1.448   8.097
  892POPC   C4B14434  43.015   1.480   7.771
  893POPC   NC314435  36.780  11.382   9.929
  893POPC   PO414436  37.053  11.145   9.383
  893POPC   GL114437  36.873  11.415   9.106
  893POPC   GL214438  37.110  11.669   8.953
  893POPC   C1A14439  36.812  11.285   8.712
  893POPC   D2A14440  36.963  11.149   8.343
  893POPC   C3A14441  36.722  11.106   7.970
  893POPC   C4A14442  36.628  11.306   7.604
  893POPC   C1B14443  37.311  11.276   8.809
  893POPC   C2B14444  37.475  11.107   8.422
  893POPC   C3B14445  37.299  11.144   7.978
  893POPC   C4B14446  37.121  11.379   7.618
  894POPC   NC314447  34.483  21.168   9.408
  894POPC   PO414448  35.120  21.138   9.371
  894POPC   GL114449  34.835  21.271   9.038
  894POPC   GL214450  34.650  21.593   9.146
  894POPC   C1A14451  34.510  21.202   8.708
  894POPC   D2A14452  34.617  21.164   8.260
  894POPC   C3A14453  34.557  21.425   7.918
  894POPC   C4A14454  34.276  21.205   7.693
  894POPC   C1B14455  34.643  21.688   8.691
  894POPC   C2B14456  34.741  21.851   8.270
  894POPC   C3B14457  35.007  21.734   7.895
  894POPC   C4B14458  34.931  21.647   7.447
  895POPC   NC314459  14.191  33.691   9.443
  895POPC   PO414460  14.919  33.515   9.521
  895POPC   GL114461  14.837  33.633   9.123
  895POPC   GL214462  14.545  33.778   9.087
  895POPC   C1A14463  14.776  33.515   8.706
  895POPC   D2A14464  14.682  33.726   8.328
  895POPC   C3A14465  14.790  33.550   7.943
  895POPC   C4A14466  14.539  33.583   7.596
  895POPC   C1B14467  14.343  33.833   8.709
  895POPC   C2B14468  14.157  33.706   8.327
  895POPC   C3B14469  14.250  33.856   7.900
  895POPC   C4B14470  13.984  34.020   7.550
  896POPC   NC314471   7.630   1.554   9.258
  896POPC   PO414472   7.386   1.005   9.507
  896POPC   GL114473   7.322   1.118   9.134
  896POPC   GL214474   7.075   1.350   9.277
  896POPC   C1A14475   7.600   1.050   8.774
  896POPC   D2A14476   7.811   1.079   8.349
  896POPC   C3A14477   7.579   1.138   7.966
  896POPC   C4A14478   7.283   0.859   7.819
  896POPC   C1B14479   7.010   1.362   8.828
  896POPC   C2B14480   7.187   1.172   8.478
  896POPC   C3B14481   7.089   1.308   8.096
  896POPC   C4B14482   7.099   1.354   7.703
  897POPC   NC314483  31.147   3.055   9.524
  897POPC   PO414484  31.598   2.508   9.550
  897POPC   GL114485  31.462   2.786   9.195
  897POPC   GL214486  31.228   2.530   9.123
  897POPC   C1A14487  31.323   2.826   8.728
  897POPC   D2A14488  31.360   2.514   8.382
  897POPC   C3A14489  31.565   2.644   7.994
  897POPC   C4A14490  31.411   2.974   7.682
  897POPC   C1B14491  30.906   2.428   8.773
  897POPC   C2B14492  30.948   2.185   8.377
  897POPC   C3B14493  30.949   2.277   7.968
  897POPC   C4B14494  31.116   2.584   7.789
  898POPC   NC314495  18.637  13.712   9.566
  898POPC   PO414496  18.016  13.316   9.477
  898POPC   GL114497  18.277  13.557   9.195
  898POPC   GL214498  17.977  13.591   8.983
  898POPC   C1A14499  18.477  13.526   8.772
  898POPC   D2A14500  18.441  13.322   8.340
  898POPC   C3A14501  18.330  13.507   7.929
  898POPC   C4A14502  18.521  13.947   7.805
  898POPC   C1B14503  18.101  13.901   8.678
  898POPC   C2B14504  18.210  14.007   8.243
  898POPC   C3B14505  18.013  13.893   7.870
  898POPC   C4B14506  17.836  13.555   7.755
  899POPC   NC314507   7.299  42.568   9.440
  899POPC   PO414508   7.633  41.947   9.476
  899POPC   GL114509   7.546  42.180   9.110
  899POPC   GL214510   7.342  42.453   8.964
  899POPC   C1A14511   7.597  42.078   8.698
  899POPC   D2A14512   7.698  42.135   8.292
  899POPC   C3A14513   7.482  42.432   8.149
  899POPC   C4A14514   7.275  42.526   7.794
  899POPC   C1B14515   7.531  42.674   8.647
  899POPC   C2B14516   7.502  42.927   8.285
  899POPC   C3B14517   7.736  42.816   7.922
  899POPC   C4B14518   7.632  42.751   7.495
  900POPC   NC314519  34.283  10.169   9.636
  900POPC   PO414520  34.779   9.823   9.406
  900POPC   GL114521  34.661   9.774   9.032
  900POPC   GL214522  34.337   9.917   9.077
  900POPC   C1A14523  34.723   9.493   8.713
  900POPC   D2A14524  34.614   9.669   8.350
  900POPC   C3A14525  34.899   9.624   8.044
  900POPC   C4A14526  34.769   9.491   7.670
  900POPC   C1B14527  34.238   9.655   8.727
  900POPC   C2B14528  34.084   9.707   8.316
  900POPC   C3B14529  34.310   9.710   7.932
  900POPC   C4B14530  34.358   9.980   7.635
  901POPC   NC314531  35.515  44.541   9.478
  901POPC   PO414532  35.056  44.822   9.848
  901POPC   GL114533  34.982  44.733   9.325
  901POPC   GL214534  34.986   0.034   9.107
  901POPC   C1A14535  35.173  44.560   8.904
  901POPC   D2A14536  35.512  44.679   8.599
  901POPC   C3A14537  35.509  44.580   8.149
  901POPC   C4A14538  35.412  44.849   7.799
  901POPC   C1B14539  35.105   0.021   8.704
  901POPC   C2B14540  35.037  44.722   8.380
  901POPC   C3B14541  35.011  44.591   7.961
  901POPC   C4B14542  34.939  44.862   7.622
  902POPC   NC314543  30.198  11.105   9.606
  902POPC   PO414544  30.931  11.270   9.676
  902POPC   GL114545  30.984  11.245   9.163
  902POPC   GL214546  30.860  11.522   9.005
  902POPC   C1A14547  30.839  11.100   8.717
  902POPC   D2A14548  30.892  11.288   8.308
  902POPC   C3A14549  30.668  11.083   7.978
  902POPC   C4A14550  30.693  11.120   7.511
  902POPC   C1B14551  30.498  11.517   8.709
  902POPC   C2B14552  30.381  11.367   8.329
  902POPC   C3B14553  30.457  11.522   7.917
  902POPC   C4B14554  30.270  11.474   7.528
  903POPC   NC314555  43.083  37.654   9.526
  903POPC   PO414556  42.513  37.599   9.516
  903POPC   GL114557  42.725  37.673   9.141
  903POPC   GL214558  43.039  37.845   9.061
  903POPC   C1A14559  42.929  37.436   8.803
  903POPC   D2A14560  43.052  37.633   8.405
  903POPC   C3A14561  43.030  37.387   8.013
  903POPC   C4A14562  43.217  37.126   7.688
  903POPC   C1B14563  42.775  37.972   8.729
  903POPC   C2B14564  42.805  38.137   8.305
  903POPC   C3B14565  42.981  37.897   7.948
  903POPC   C4B14566  43.011  37.673   7.541
  904POPC   NC314567  26.748  23.913   9.437
  904POPC   PO414568  27.035  23.245   9.513
  904POPC   GL114569  26.794  23.440   9.121
  904POPC   GL214570  26.707  23.811   8.959
  904POPC   C1A14571  26.754  23.432   8.655
  904POPC   D2A14572  26.747  23.794   8.364
  904POPC   C3A14573  26.898  23.675   7.954
  904POPC   C4A14574  26.621  23.384   7.756
  904POPC   C1B14575  27.091  23.946   8.700
  904POPC   C2B14576  27.080  24.201   8.331
  904POPC   C3B14577  27.041  24.185   7.886
  904POPC   C4B14578  26.677  24.053   7.613
  905POPC   NC314579   5.890  14.022   9.540
  905POPC   PO414580   5.713  14.644   9.477
  905POPC   GL114581   5.930  14.679   9.112
  905POPC   GL214582   5.877  14.317   9.077
  905POPC   C1A14583   5.977  14.608   8.667
  905POPC   D2A14584   5.880  14.297   8.345
  905POPC   C3A14585   5.896  14.514   7.957
  905POPC   C4A14586   6.063  14.417   7.533
  905POPC   C1B14587   5.550  14.151   8.798
  905POPC   C2B14588   5.463  13.996   8.405
  905POPC   C3B14589   5.458  14.232   8.044
  905POPC   C4B14590   5.557  14.326   7.626
  906POPC   NC314591  39.511  29.257   9.503
  906POPC   PO414592  38.914  28.961   9.619
  906POPC   GL114593  39.107  29.033   9.198
  906POPC   GL214594  39.476  28.949   9.082
  906POPC   C1A14595  38.990  29.226   8.792
  906POPC   D2A14596  39.244  29.211   8.412
  906POPC   C3A14597  39.006  29.214   8.043
  906POPC   C4A14598  38.987  29.310   7.624
  906POPC   C1B14599  39.591  29.321   8.787
  906POPC   C2B14600  39.762  29.395   8.345
  906POPC   C3B14601  39.498  29.321   7.953
  906POPC   C4B14602  39.400  28.860   7.871
  907POPC   NC314603  43.440   7.218   9.506
  907POPC   PO414604  42.981   7.763   9.437
  907POPC   GL114605  43.066   7.692   9.064
  907POPC   GL214606  43.308   7.457   9.066
  907POPC   C1A14607  42.918   7.495   8.707
  907POPC   D2A14608  42.804   7.212   8.390
  907POPC   C3A14609  42.854   7.416   8.001
  907POPC   C4A14610  43.192   7.333   7.762
  907POPC   C1B14611  43.396   7.646   8.661
  907POPC   C2B14612  43.229   7.702   8.269
  907POPC   C3B14613  43.378   7.829   7.877
  907POPC   C4B14614  43.591   7.565   7.566
  908POPC   NC314615   8.513  28.020   9.369
  908POPC   PO414616   8.113  28.375   9.776
  908POPC   GL114617   8.105  28.357   9.326
  908POPC   GL214618   7.807  28.364   9.143
  908POPC   C1A14619   8.268  28.379   8.880
  908POPC   D2A14620   8.232  28.423   8.433
  908POPC   C3A14621   8.415  28.442   8.056
  908POPC   C4A14622   8.335  28.255   7.702
  908POPC   C1B14623   7.813  28.281   8.694
  908POPC   C2B14624   7.718  28.533   8.355
  908POPC   C3B14625   7.933  28.581   7.996
  908POPC   C4B14626   7.884  28.434   7.562
  909POPC   NC314627  39.916  31.769   9.711
  909POPC   PO414628  39.562  31.309   9.313
  909POPC   GL114629  39.890  31.521   9.219
  909POPC   GL214630  40.079  31.232   9.235
  909POPC   C1A14631  39.973  31.467   8.794
  909POPC   D2A14632  39.757  31.529   8.440
  909POPC   C3A14633  39.896  31.601   8.055
  909POPC   C4A14634  39.908  31.311   7.716
  909POPC   C1B14635  40.375  31.164   8.919
  909POPC   C2B14636  40.369  31.138   8.500
  909POPC   C3B14637  40.246  31.224   8.096
  909POPC   C4B14638  40.400  31.362   7.702
  910POPC   NC314639  36.674  30.300   9.482
  910POPC   PO414640  37.001  30.831   9.505
  910POPC   GL114641  36.958  30.763   9.077
  910POPC   GL214642  37.009  30.426   9.087
  910POPC   C1A14643  36.733  30.901   8.699
  910POPC   D2A14644  36.559  30.846   8.281
  910POPC   C3A14645  36.848  30.796   7.961
  910POPC   C4A14646  36.949  30.875   7.550
  910POPC   C1B14647  36.677  30.402   8.825
  910POPC   C2B14648  36.752  30.241   8.435
  910POPC   C3B14649  36.691  30.328   8.037
  910POPC   C4B14650  36.948  30.356   7.710
  911POPC   NC314651  24.342   5.976   9.691
  911POPC   PO414652  24.670   5.412   9.565
  911POPC   GL114653  24.456   5.650   9.256
  911POPC   GL214654  24.757   5.574   9.060
  911POPC   C1A14655  24.445   5.997   8.927
  911POPC   D2A14656  24.740   5.987   8.560
  911POPC   C3A14657  24.587   6.120   8.144
  911POPC   C4A14658  24.458   6.083   7.712
  911POPC   C1B14659  24.471   5.539   8.720
  911POPC   C2B14660  24.328   5.703   8.335
  911POPC   C3B14661  24.403   5.585   7.906
  911POPC   C4B14662  24.207   5.644   7.495
  912POPC   NC314663   1.551   6.769   9.760
  912POPC   PO414664   2.223   6.795   9.550
  912POPC   GL114665   2.057   6.833   9.153
  912POPC   GL214666   1.975   6.497   9.145
  912POPC   C1A14667   2.253   6.779   8.753
  912POPC   D2A14668   2.343   6.441   8.497
  912POPC   C3A14669   2.161   6.492   8.116
  912POPC   C4A14670   2.079   6.752   7.804
  912POPC   C1B14671   1.824   6.490   8.754
  912POPC   C2B14672   1.531   6.397   8.470
  912POPC   C3B14673   1.572   6.208   8.082
  912POPC   C4B14674   1.807   6.290   7.741
  913POPC   NC314675  32.865  34.074   9.579
  913POPC   PO414676  33.479  34.255   9.435
  913POPC   GL114677  33.315  33.999   9.092
  913POPC   GL214678  33.029  33.828   9.162
  913POPC   C1A14679  33.249  33.895   8.655
  913POPC   D2A14680  33.146  33.902   8.214
  913POPC   C3A14681  33.290  33.584   7.901
  913POPC   C4A14682  33.328  33.589   7.414
  913POPC   C1B14683  32.786  33.739   8.820
  913POPC   C2B14684  32.668  33.705   8.390
  913POPC   C3B14685  32.706  33.874   7.959
  913POPC   C4B14686  32.853  33.658   7.599
  914POPC   NC314687  14.188  39.751   9.819
  914POPC   PO414688  14.503  39.303   9.482
  914POPC   GL114689  14.420  39.357   9.117
  914POPC   GL214690  14.202  39.640   9.163
  914POPC   C1A14691  14.306  39.199   8.713
  914POPC   D2A14692  14.354  39.049   8.295
  914POPC   C3A14693  14.333  39.247   7.930
  914POPC   C4A14694  14.602  39.465   7.688
  914POPC   C1B14695  14.399  39.707   8.770
  914POPC   C2B14696  14.409  39.581   8.364
  914POPC   C3B14697  14.219  39.741   8.028
  914POPC   C4B14698  14.135  39.632   7.627
  915POPC   NC314699  20.891  35.963   9.471
  915POPC   PO414700  20.407  36.472   9.404
  915POPC   GL114701  20.489  36.379   9.025
  915POPC   GL214702  20.776  36.265   9.068
  915POPC   C1A14703  20.597  36.565   8.653
  915POPC   D2A14704  20.487  36.445   8.281
  915POPC   C3A14705  20.770  36.302   8.016
  915POPC   C4A14706  20.667  36.131   7.654
  915POPC   C1B14707  20.971  36.224   8.718
  915POPC   C2B14708  21.089  35.828   8.557
  915POPC   C3B14709  21.081  35.809   8.116
  915POPC   C4B14710  20.938  35.727   7.702
  916POPC   NC314711  22.154  14.750   9.458
  916POPC   PO414712  22.205  15.337   9.734
  916POPC   GL114713  22.188  15.289   9.251
  916POPC   GL214714  21.981  15.015   9.072
  916POPC   C1A14715  22.186  15.396   8.790
  916POPC   D2A14716  22.281  15.200   8.369
  916POPC   C3A14717  22.030  15.363   8.015
  916POPC   C4A14718  22.036  15.656   7.718
  916POPC   C1B14719  22.161  14.809   8.737
  916POPC   C2B14720  22.236  14.636   8.329
  916POPC   C3B14721  22.029  14.860   8.042
  916POPC   C4B14722  22.095  15.009   7.636
  917POPC   NC314723   3.883  21.265   9.736
  917POPC   PO414724   3.364  21.574   9.622
  917POPC   GL114725   3.307  21.315   9.256
  917POPC   GL214726   3.658  21.291   9.189
  917POPC   C1A14727   3.328  21.279   8.797
  917POPC   D2A14728   3.648  21.313   8.482
  917POPC   C3A14729   3.453  21.212   8.138
  917POPC   C4A14730   3.388  21.416   7.769
  917POPC   C1B14731   3.876  21.557   8.870
  917POPC   C2B14732   3.881  21.799   8.478
  917POPC   C3B14733   3.790  21.618   8.064
  917POPC   C4B14734   3.859  21.227   7.803
  918POPC   NC314735  19.988  36.383   9.561
  918POPC   PO414736  19.739  35.762   9.649
  918POPC   GL114737  19.707  36.054   9.274
  918POPC   GL214738  20.030  36.163   9.109
  918POPC   C1A14739  19.660  36.029   8.793
  918POPC   D2A14740  19.520  36.150   8.370
  918POPC   C3A14741  19.658  36.071   7.978
  918POPC   C4A14742  19.372  35.830   7.801
  918POPC   C1B14743  20.195  36.166   8.678
  918POPC   C2B14744  20.070  36.150   8.267
  918POPC   C3B14745  20.181  36.131   7.856
  918POPC   C4B14746  20.221  36.099   7.409
  919POPC   NC314747  36.385  44.049   9.475
  919POPC   PO414748  36.032  43.506   9.530
  919POPC   GL114749  36.010  43.791   9.204
  919POPC   GL214750  36.245  43.584   9.033
  919POPC   C1A14751  35.960  43.926   8.788
  919POPC   D2A14752  36.135  43.702   8.420
  919POPC   C3A14753  35.967  43.765   7.993
  919POPC   C4A14754  36.205  43.669   7.612
  919POPC   C1B14755  36.464  43.933   8.800
  919POPC   C2B14756  36.587  44.053   8.394
  919POPC   C3B14757  36.451  43.948   7.983
  919POPC   C4B14758  36.260  44.185   7.661
  920POPC   NC314759  18.827   6.507   9.443
  920POPC   PO414760  19.540   6.419   9.694
  920POPC   GL114761  19.273   6.378   9.240
  920POPC   GL214762  19.173   6.782   9.194
  920POPC   C1A14763  19.069   6.398   8.786
  920POPC   D2A14764  18.810   6.494   8.394
  920POPC   C3A14765  18.953   6.336   7.973
  920POPC   C4A14766  19.052   6.165   7.548
  920POPC   C1B14767  19.005   6.907   8.811
  920POPC   C2B14768  19.213   6.804   8.422
  920POPC   C3B14769  19.071   6.843   8.026
  920POPC   C4B14770  19.096   6.670   7.590
  921POPC   NC314771  21.493  14.852   9.842
  921POPC   PO414772  21.695  15.310   9.356
  921POPC   GL114773  21.349  15.331   9.110
  921POPC   GL214774  21.524  15.171   8.887
  921POPC   C1A14775  21.190  15.530   8.763
  921POPC   D2A14776  21.023  15.559   8.351
  921POPC   C3A14777  21.161  15.253   8.084
  921POPC   C4A14778  21.212  15.274   7.646
  921POPC   C1B14779  21.329  15.087   8.539
  921POPC   C2B14780  21.641  15.133   8.263
  921POPC   C3B14781  21.567  14.995   7.888
  921POPC   C4B14782  21.189  14.772   7.816
  922POPC   NC314783  23.213   1.224   9.504
  922POPC   PO414784  22.528   1.217   9.578
  922POPC   GL114785  22.787   1.244   9.150
  922POPC   GL214786  23.115   1.441   9.085
  922POPC   C1A14787  22.911   1.303   8.672
  922POPC   D2A14788  23.154   1.032   8.397
  922POPC   C3A14789  22.898   1.034   8.034
  922POPC   C4A14790  22.939   1.343   7.747
  922POPC   C1B14791  23.311   1.683   8.789
  922POPC   C2B14792  23.454   1.663   8.429
  922POPC   C3B14793  23.181   1.528   8.165
  922POPC   C4B14794  23.380   1.633   7.820
  923POPC   NC314795  22.771  44.049   9.508
  923POPC   PO414796  22.958  43.492   9.241
  923POPC   GL114797  22.944  43.908   9.038
  923POPC   GL214798  23.035  44.280   9.126
  923POPC   C1A14799  22.918  44.027   8.616
  923POPC   D2A14800  22.773  43.929   8.216
  923POPC   C3A14801  22.932  43.700   7.865
  923POPC   C4A14802  22.793  43.917   7.514
  923POPC   C1B14803  23.327  44.274   8.765
  923POPC   C2B14804  23.328  44.064   8.315
  923POPC   C3B14805  23.197  44.130   7.864
  923POPC   C4B14806  23.199  44.193   7.383
  924POPC   NC314807  31.936  10.991   9.485
  924POPC   PO414808  32.091  10.335   9.476
  924POPC   GL114809  32.002  10.600   9.101
  924POPC   GL214810  31.846  10.323   8.899
  924POPC   C1A14811  32.267  10.829   8.775
  924POPC   D2A14812  32.508  10.719   8.376
  924POPC   C3A14813  32.233  10.766   7.989
  924POPC   C4A14814  32.017  10.481   7.676
  924POPC   C1B14815  32.271  10.163   8.873
  924POPC   C2B14816  32.463  10.171   8.497
  924POPC   C3B14817  32.383  10.154   8.053
  924POPC   C4B14818  32.524  10.041   7.658
  925POPC   NC314819  42.831  26.862   9.515
  925POPC   PO414820  43.406  27.120   9.420
  925POPC   GL114821  43.124  26.929   9.110
  925POPC   GL214822  42.821  27.115   9.082
  925POPC   C1A14823  43.115  26.687   8.736
  925POPC   D2A14824  43.444  26.676   8.438
  925POPC   C3A14825  43.290  26.618   8.014
  925POPC   C4A14826  43.192  26.656   7.565
  925POPC   C1B14827  42.860  27.148   8.666
  925POPC   C2B14828  43.062  27.009   8.294
  925POPC   C3B14829  43.002  27.048   7.853
  925POPC   C4B14830  42.882  27.025   7.403
  926POPC   NC314831  11.057  39.670   9.603
  926POPC   PO414832  11.393  40.212   9.648
  926POPC   GL114833  11.282  40.067   9.183
  926POPC   GL214834  11.079  39.730   9.103
  926POPC   C1A14835  11.553  40.081   8.773
  926POPC   D2A14836  11.671  40.276   8.350
  926POPC   C3A14837  11.367  40.207   7.987
  926POPC   C4A14838  11.489  40.080   7.512
  926POPC   C1B14839  11.073  39.907   8.686
  926POPC   C2B14840  11.320  39.805   8.289
  926POPC   C3B14841  11.225  39.749   7.822
  926POPC   C4B14842  11.136  39.727   7.368
  927POPC   NC314843  10.891  28.135   9.401
  927POPC   PO414844  10.188  28.334   9.425
  927POPC   GL114845  10.428  28.573   9.097
  927POPC   GL214846  10.772  28.533   9.079
  927POPC   C1A14847  10.444  28.584   8.673
  927POPC   D2A14848  10.344  28.267   8.413
  927POPC   C3A14849  10.116  28.483   8.128
  927POPC   C4A14850  10.330  28.478   7.752
  927POPC   C1B14851  10.646  28.139   8.826
  927POPC   C2B14852  10.760  27.930   8.463
  927POPC   C3B14853  10.752  28.162   8.095
  927POPC   C4B14854  10.832  28.382   7.728
  928POPC   NC314855  16.451  20.890   9.595
  928POPC   PO414856  16.918  20.463   9.567
  928POPC   GL114857  16.721  20.672   9.207
  928POPC   GL214858  17.057  20.815   9.164
  928POPC   C1A14859  16.495  20.579   8.797
  928POPC   D2A14860  16.633  20.416   8.379
  928POPC   C3A14861  16.508  20.537   7.952
  928POPC   C4A14862  16.776  20.622   7.540
  928POPC   C1B14863  17.011  20.623   8.775
  928POPC   C2B14864  17.007  20.768   8.387
  928POPC   C3B14865  17.006  20.636   8.000
  928POPC   C4B14866  17.222  20.867   7.716
  929POPC   NC314867   0.728  27.470   9.656
  929POPC   PO414868   1.428  27.766   9.569
  929POPC   GL114869   1.223  27.799   9.179
  929POPC   GL214870   1.226  27.435   9.194
  929POPC   C1A14871   1.169  27.734   8.720
  929POPC   D2A14872   1.256  27.566   8.304
  929POPC   C3A14873   1.202  27.646   7.884
  929POPC   C4A14874   1.325  27.556   7.475
  929POPC   C1B14875   0.948  27.307   8.889
  929POPC   C2B14876   0.832  27.355   8.491
  929POPC   C3B14877   0.859  27.267   8.053
  929POPC   C4B14878   1.012  27.143   7.645
  930POPC   NC314879  43.013  19.593   9.536
  930POPC   PO414880  43.330  20.142   9.456
  930POPC   GL114881  43.211  19.860   9.127
  930POPC   GL214882  43.242  19.499   9.112
  930POPC   C1A14883  43.275  19.801   8.704
  930POPC   D2A14884  43.067  19.709   8.372
  930POPC   C3A14885  43.345  19.719   8.091
  930POPC   C4A14886  43.433  20.084   7.872
  930POPC   C1B14887  43.055  19.330   8.722
  930POPC   C2B14888  42.997  19.201   8.292
  930POPC   C3B14889  43.018  19.335   7.863
  930POPC   C4B14890  43.018  19.761   7.696
  931POPC   NC314891  33.539  11.281   9.296
  931POPC   PO414892  34.030  10.950   9.560
  931POPC   GL114893  33.974  11.046   9.103
  931POPC   GL214894  33.929  11.404   8.997
  931POPC   C1A14895  33.715  11.086   8.693
  931POPC   D2A14896  33.568  10.885   8.341
  931POPC   C3A14897  33.676  11.081   7.972
  931POPC   C4A14898  33.516  11.514   7.867
  931POPC   C1B14899  34.206  11.307   8.684
  931POPC   C2B14900  34.040  11.231   8.290
  931POPC   C3B14901  34.029  11.458   7.906
  931POPC   C4B14902  34.184  11.508   7.497
  932POPC   NC314903  37.609  14.002   9.420
  932POPC   PO414904  37.524  14.736   9.538
  932POPC   GL114905  37.662  14.636   9.151
  932POPC   GL214906  37.901  14.427   9.219
  932POPC   C1A14907  37.485  14.339   8.873
  932POPC   D2A14908  37.591  14.088   8.525
  932POPC   C3A14909  37.683  14.361   8.204
  932POPC   C4A14910  37.641  14.382   7.785
  932POPC   C1B14911  37.978  14.401   8.759
  932POPC   C2B14912  38.104  14.171   8.408
  932POPC   C3B14913  37.959  13.991   7.992
  932POPC   C4B14914  38.036  14.174   7.574
  933POPC   NC314915   7.755  22.258   9.431
  933POPC   PO414916   7.137  21.941   9.428
  933POPC   GL114917   7.397  21.863   9.096
  933POPC   GL214918   7.745  21.801   9.106
  933POPC   C1A14919   7.476  22.173   8.810
  933POPC   D2A14920   7.294  22.410   8.483
  933POPC   C3A14921   7.363  22.245   8.083
  933POPC   C4A14922   7.364  22.420   7.678
  933POPC   C1B14923   7.915  21.899   8.734
  933POPC   C2B14924   7.771  22.152   8.401
  933POPC   C3B14925   7.853  22.101   8.013
  933POPC   C4B14926   7.778  22.141   7.615
  934POPC   NC314927  41.079   7.291   9.596
  934POPC   PO414928  40.508   7.346   9.318
  934POPC   GL114929  40.819   7.532   9.140
  934POPC   GL214930  40.546   7.668   8.938
  934POPC   C1A14931  41.109   7.545   8.805
  934POPC   D2A14932  41.091   7.343   8.403
  934POPC   C3A14933  41.004   7.482   7.976
  934POPC   C4A14934  40.888   7.746   7.681
  934POPC   C1B14935  40.657   7.305   8.688
  934POPC   C2B14936  40.609   7.476   8.304
  934POPC   C3B14937  40.500   7.427   7.908
  934POPC   C4B14938  40.653   7.100   7.632
  935POPC   NC314939   9.964   3.914   9.489
  935POPC   PO414940   9.706   4.525   9.426
  935POPC   GL114941   9.847   4.244   9.118
  935POPC   GL214942   9.618   3.977   9.105
  935POPC   C1A14943   9.822   4.339   8.697
  935POPC   D2A14944   9.984   4.396   8.306
  935POPC   C3A14945   9.587   4.310   8.088
  935POPC   C4A14946   9.532   4.538   7.706
  935POPC   C1B14947   9.779   3.844   8.757
  935POPC   C2B14948   9.892   3.890   8.354
  935POPC   C3B14949   9.992   4.039   7.940
  935POPC   C4B14950   9.611   3.952   7.722
  936POPC   NC314951  17.904  16.693   9.471
  936POPC   PO414952  18.605  16.840   9.488
  936POPC   GL114953  18.305  16.853   9.130
  936POPC   GL214954  18.096  16.547   9.021
  936POPC   C1A14955  18.465  16.773   8.694
  936POPC   D2A14956  18.636  16.767   8.226
  936POPC   C3A14957  18.349  16.814   7.883
  936POPC   C4A14958  18.340  16.973   7.443
  936POPC   C1B14959  17.934  16.760   8.644
  936POPC   C2B14960  17.772  16.952   8.262
  936POPC   C3B14961  17.891  17.031   7.838
  936POPC   C4B14962  17.936  16.696   7.516
  937POPC   NC314963  12.276   3.550   9.569
  937POPC   PO414964  12.370   4.073   9.255
  937POPC   GL114965  12.179   3.684   9.067
  937POPC   GL214966  11.898   3.450   9.184
  937POPC   C1A14967  12.126   3.618   8.626
  937POPC   D2A14968  12.297   3.701   8.225
  937POPC   C3A14969  12.175   3.468   7.855
  937POPC   C4A14970  12.144   3.584   7.425
  937POPC   C1B14971  11.870   3.213   8.766
  937POPC   C2B14972  11.677   3.168   8.350
  937POPC   C3B14973  11.759   3.152   7.897
  937POPC   C4B14974  12.063   3.062   7.529
  938POPC   NC314975   0.000  20.468   9.907
  938POPC   PO414976  44.697  21.088   9.635
  938POPC   GL114977  44.847  20.856   9.229
  938POPC   GL214978  44.821  20.491   9.273
  938POPC   C1A14979  44.682  20.763   8.838
  938POPC   D2A14980  44.756  20.521   8.478
  938POPC   C3A14981  44.763  20.717   8.096
  938POPC   C4A14982  44.591  20.513   7.751
  938POPC   C1B14983  44.984  20.303   8.899
  938POPC   C2B14984   0.227  20.310   8.505
  938POPC   C3B14985   0.111  20.252   8.092
  938POPC   C4B14986   0.110  20.484   7.760
  939POPC   NC314987  10.123  39.309   9.517
  939POPC   PO414988   9.494  39.079   9.340
  939POPC   GL114989   9.819  39.165   9.088
  939POPC   GL214990   9.856  39.494   9.119
  939POPC   C1A14991   9.789  39.225   8.671
  939POPC   D2A14992   9.974  39.160   8.291
  939POPC   C3A14993   9.728  39.158   7.936
  939POPC   C4A14994   9.993  39.001   7.628
  939POPC   C1B14995  10.097  39.627   8.789
  939POPC   C2B14996   9.983  39.660   8.388
  939POPC   C3B14997  10.053  39.583   7.980
  939POPC   C4B14998   9.903  39.523   7.608
  940POPC   NC314999  17.593  23.887   9.519
  940POPC   PO415000  17.833  23.299   9.201
  940POPC   GL115001  17.596  23.562   8.942
  940POPC   GL215002  17.387  23.847   9.061
  940POPC   C1A15003  17.396  23.746   8.568
  940POPC   D2A15004  17.260  24.035   8.299
  940POPC   C3A15005  17.571  23.970   8.046
  940POPC   C4A15006  17.608  23.566   7.883
  940POPC   C1B15007  17.095  23.493   8.887
  940POPC   C2B15008  17.018  23.312   8.464
  940POPC   C3B15009  17.009  23.481   8.028
  940POPC   C4B15010  17.166  23.828   7.782
  941POPC   NC315011  27.125  17.616   9.757
  941POPC   PO415012  26.535  17.373   9.462
  941POPC   GL115013  26.907  17.405   9.205
  941POPC   GL215014  26.996  17.749   9.258
  941POPC   C1A15015  26.876  17.425   8.745
  941POPC   D2A15016  26.566  17.411   8.409
  941POPC   C3A15017  26.793  17.473   8.039
  941POPC   C4A15018  26.804  17.234   7.659
  941POPC   C1B15019  27.004  17.918   8.837
  941POPC   C2B15020  27.110  17.772   8.396
  941POPC   C3B15021  26.982  17.948   8.019
  941POPC   C4B15022  27.081  17.933   7.587
  942POPC   NC315023  18.494   5.834   9.438
  942POPC   PO415024  17.984   5.465   9.298
  942POPC   GL115025  18.217   5.651   9.028
  942POPC   GL215026  18.103   5.996   9.122
  942POPC   C1A15027  18.624   5.657   8.793
  942POPC   D2A15028  18.770   5.981   8.496
  942POPC   C3A15029  18.592   5.970   8.093
  942POPC   C4A15030  18.541   6.150   7.702
  942POPC   C1B15031  18.263   6.001   8.669
  942POPC   C2B15032  18.098   5.912   8.251
  942POPC   C3B15033  18.047   6.123   7.865
  942POPC   C4B15034  17.761   6.156   7.529
  943POPC   NC315035  12.417   7.235   9.639
  943POPC   PO415036  13.027   7.511   9.548
  943POPC   GL115037  12.870   7.555   9.190
  943POPC   GL215038  12.667   7.268   9.193
  943POPC   C1A15039  13.047   7.718   8.799
  943POPC   D2A15040  13.346   7.678   8.434
  943POPC   C3A15041  13.144   7.739   8.049
  943POPC   C4A15042  13.144   7.530   7.657
  943POPC   C1B15043  12.831   7.241   8.786
  943POPC   C2B15044  13.003   7.297   8.392
  943POPC   C3B15045  12.816   7.323   8.007
  943POPC   C4B15046  12.512   7.277   7.682
  944POPC   NC315047  13.203  34.454   9.874
  944POPC   PO415048  12.565  34.528   9.561
  944POPC   GL115049  12.869  34.383   9.281
  944POPC   GL215050  13.033  34.692   9.228
  944POPC   C1A15051  12.880  34.402   8.827
  944POPC   D2A15052  12.638  34.364   8.452
  944POPC   C3A15053  12.825  34.527   8.108
  944POPC   C4A15054  12.768  34.498   7.715
  944POPC   C1B15055  13.285  34.726   8.864
  944POPC   C2B15056  13.309  34.461   8.500
  944POPC   C3B15057  13.331  34.563   8.070
  944POPC   C4B15058  13.181  34.826   7.747
  945POPC   NC315059  23.940  19.907   9.541
  945POPC   PO415060  24.024  19.297   9.372
  945POPC   GL115061  23.860  19.643   9.118
  945POPC   GL215062  23.555  19.812   9.186
  945POPC   C1A15063  23.782  19.688   8.715
  945POPC   D2A15064  23.899  19.637   8.288
  945POPC   C3A15065  24.036  19.970   7.998
  945POPC   C4A15066  23.838  20.011   7.581
  945POPC   C1B15067  23.284  19.708   8.854
  945POPC   C2B15068  23.364  19.634   8.413
  945POPC   C3B15069  23.491  19.815   8.008
  945POPC   C4B15070  23.439  19.673   7.578
  946POPC   NC315071   9.915  27.939   9.427
  946POPC   PO415072   9.963  27.262   9.596
  946POPC   GL115073   9.737  27.458   9.240
  946POPC   GL215074   9.460  27.219   9.239
  946POPC   C1A15075   9.863  27.586   8.791
  946POPC   D2A15076   9.846  27.461   8.349
  946POPC   C3A15077   9.958  27.686   7.946
  946POPC   C4A15078  10.280  28.008   7.935
  946POPC   C1B15079   9.427  27.258   8.789
  946POPC   C2B15080   9.331  27.402   8.381
  946POPC   C3B15081   9.523  27.362   7.982
  946POPC   C4B15082   9.367  27.281   7.618
  947POPC   NC315083  10.879  38.263   9.470
  947POPC   PO415084  11.613  38.345   9.624
  947POPC   GL115085  11.373  38.403   9.250
  947POPC   GL215086  11.543  38.663   9.044
  947POPC   C1A15087  11.162  38.389   8.838
  947POPC   D2A15088  10.930  38.533   8.466
  947POPC   C3A15089  11.168  38.493   8.113
  947POPC   C4A15090  11.269  38.366   7.699
  947POPC   C1B15091  11.665  38.256   8.861
  947POPC   C2B15092  11.515  38.180   8.446
  947POPC   C3B15093  11.654  38.349   8.082
  947POPC   C4B15094  11.756  38.221   7.716
  948POPC   NC315095  10.245  41.009   9.876
  948POPC   PO415096  10.215  41.549   9.480
  948POPC   GL115097  10.376  41.484   9.111
  948POPC   GL215098  10.639  41.218   9.244
  948POPC   C1A15099  10.485  41.774   8.773
  948POPC   D2A15100  10.792  41.829   8.445
  948POPC   C3A15101  10.623  41.854   8.040
  948POPC   C4A15102  10.331  41.693   7.749
  948POPC   C1B15103  10.679  41.220   8.798
  948POPC   C2B15104  10.444  41.362   8.458
  948POPC   C3B15105  10.597  41.357   8.072
  948POPC   C4B15106  10.551  41.235   7.666
  949POPC   NC315107  12.158   5.303   9.529
  949POPC   PO415108  11.785   4.727   9.482
  949POPC   GL115109  11.901   5.010   9.214
  949POPC   GL215110  12.232   4.957   9.162
  949POPC   C1A15111  11.976   5.241   8.843
  949POPC   D2A15112  11.781   5.137   8.495
  949POPC   C3A15113  11.932   5.183   8.080
  949POPC   C4A15114  11.699   4.978   7.792
  949POPC   C1B15115  12.445   4.944   8.817
  949POPC   C2B15116  12.277   5.001   8.426
  949POPC   C3B15117  12.424   5.028   8.007
  949POPC   C4B15118  12.173   4.877   7.665
  950POPC   NC315119  33.128  15.721   9.800
  950POPC   PO415120  33.524  16.030   9.431
  950POPC   GL115121  33.364  15.830   9.074
  950POPC   GL215122  33.161  15.572   9.259
  950POPC   C1A15123  33.392  15.905   8.605
  950POPC   D2A15124  33.458  16.142   8.196
  950POPC   C3A15125  33.187  15.997   7.896
  950POPC   C4A15126  32.786  15.849   7.907
  950POPC   C1B15127  33.135  15.464   8.810
  950POPC   C2B15128  32.973  15.585   8.414
  950POPC   C3B15129  33.101  15.461   8.014
  950POPC   C4B15130  33.382  15.555   7.715
  951POPC   NC315131  27.437  13.784   9.692
  951POPC   PO415132  27.708  13.201   9.653
  951POPC   GL115133  27.646  13.424   9.258
  951POPC   GL215134  27.431  13.688   9.182
  951POPC   C1A15135  27.823  13.563   8.858
  951POPC   D2A15136  27.782  13.719   8.403
  951POPC   C3A15137  27.671  13.448   8.056
  951POPC   C4A15138  27.883  13.144   7.851
  951POPC   C1B15139  27.456  13.932   8.784
  951POPC   C2B15140  27.519  14.157   8.380
  951POPC   C3B15141  27.450  13.895   8.007
  951POPC   C4B15142  27.214  13.804   7.603
  952POPC   NC315143  15.039   7.073   9.472
  952POPC   PO415144  15.657   7.373   9.394
  952POPC   GL115145  15.385   7.185   9.094
  952POPC   GL215146  15.568   7.372   8.876
  952POPC   C1A15147  15.075   7.286   8.731
  952POPC   D2A15148  14.930   7.570   8.354
  952POPC   C3A15149  15.005   7.449   7.954
  952POPC   C4A15150  15.352   7.189   7.798
  952POPC   C1B15151  15.657   7.664   8.583
  952POPC   C2B15152  15.426   7.628   8.225
  952POPC   C3B15153  15.473   7.680   7.813
  952POPC   C4B15154  15.454   7.555   7.375
  953POPC   NC315155  23.496  23.063   9.448
  953POPC   PO415156  23.972  23.603   9.492
  953POPC   GL115157  23.881  23.352   9.117
  953POPC   GL215158  23.553  23.271   8.987
  953POPC   C1A15159  23.948  23.038   8.769
  953POPC   D2A15160  23.811  22.639   8.544
  953POPC   C3A15161  23.952  22.670   8.129
  953POPC   C4A15162  23.914  22.972   7.815
  953POPC   C1B15163  23.423  22.888   8.816
  953POPC   C2B15164  23.285  22.726   8.442
  953POPC   C3B15165  23.449  22.854   8.051
  953POPC   C4B15166  23.452  22.926   7.617
  954POPC   NC315167  31.423   2.107   9.717
  954POPC   PO415168  30.835   1.864   9.489
  954POPC   GL115169  31.153   2.038   9.202
  954POPC   GL215170  31.511   2.093   9.207
  954POPC   C1A15171  31.319   2.157   8.766
  954POPC   D2A15172  31.389   1.919   8.430
  954POPC   C3A15173  31.501   2.118   8.066
  954POPC   C4A15174  31.363   2.142   7.663
  954POPC   C1B15175  31.758   1.915   8.833
  954POPC   C2B15176  31.895   1.824   8.407
  954POPC   C3B15177  31.765   1.635   8.024
  954POPC   C4B15178  31.801   1.877   7.695
  955POPC   NC315179  18.894  44.265   9.611
  955POPC   PO415180  18.395  43.780   9.560
  955POPC   GL115181  18.307  43.758   9.157
  955POPC   GL215182  18.591  43.970   9.080
  955POPC   C1A15183  18.406  43.580   8.768
  955POPC   D2A15184  18.642  43.606   8.422
  955POPC   C3A15185  18.437  43.535   8.037
  955POPC   C4A15186  18.411  43.302   7.645
  955POPC   C1B15187  18.519  44.071   8.674
  955POPC   C2B15188  18.283  43.942   8.311
  955POPC   C3B15189  18.418  44.037   7.868
  955POPC   C4B15190  18.201  44.205   7.500
  956POPC   NC315191  36.812  38.187   9.502
  956POPC   PO415192  36.996  38.800   9.506
  956POPC   GL115193  36.825  38.569   9.169
  956POPC   GL215194  37.083  38.383   9.090
  956POPC   C1A15195  36.673  38.388   8.757
  956POPC   D2A15196  36.449  38.427   8.374
  956POPC   C3A15197  36.682  38.556   8.017
  956POPC   C4A15198  36.901  38.355   7.666
  956POPC   C1B15199  37.198  38.427   8.688
  956POPC   C2B15200  37.126  38.369   8.268
  956POPC   C3B15201  37.243  38.611   7.921
  956POPC   C4B15202  37.295  38.680   7.438
  957POPC   NC315203   9.031   3.564   9.570
  957POPC   PO415204   9.087   2.944   9.503
  957POPC   GL115205   9.032   3.221   9.161
  957POPC   GL215206   8.770   3.460   9.083
  957POPC   C1A15207   9.068   3.175   8.721
  957POPC   D2A15208   8.999   3.490   8.404
  957POPC   C3A15209   9.032   3.355   8.000
  957POPC   C4A15210   9.277   3.520   7.692
  957POPC   C1B15211   8.746   3.764   8.757
  957POPC   C2B15212   8.788   3.955   8.331
  957POPC   C3B15213   8.696   3.743   7.938
  957POPC   C4B15214   8.571   3.338   7.737
  958POPC   NC315215  26.949   9.921   9.979
  958POPC   PO415216  26.964   9.406   9.570
  958POPC   GL115217  26.903   9.666   9.229
  958POPC   GL215218  27.099   9.476   9.024
  958POPC   C1A15219  26.855   9.865   8.817
  958POPC   D2A15220  26.706   9.735   8.421
  958POPC   C3A15221  26.699   9.956   8.052
  958POPC   C4A15222  26.508   9.995   7.661
  958POPC   C1B15223  27.236   9.517   8.608
  958POPC   C2B15224  27.124   9.581   8.168
  958POPC   C3B15225  27.070   9.550   7.718
  958POPC   C4B15226  27.354   9.621   7.329
  959POPC   NC315227  14.844  20.979   9.536
  959POPC   PO415228  15.133  20.335   9.543
  959POPC   GL115229  15.272  20.268   9.142
  959POPC   GL215230  15.201  20.598   9.080
  959POPC   C1A15231  15.163  20.249   8.707
  959POPC   D2A15232  15.207  20.511   8.389
  959POPC   C3A15233  14.998  20.411   8.081
  959POPC   C4A15234  14.988  20.415   7.717
  959POPC   C1B15235  15.525  20.625   8.755
  959POPC   C2B15236  15.651  20.775   8.319
  959POPC   C3B15237  15.306  20.852   8.003
  959POPC   C4B15238  15.215  21.142   7.663
  960POPC   NC315239  17.879  11.294   9.488
  960POPC   PO415240  17.307  10.997   9.466
  960POPC   GL115241  17.400  11.217   9.075
  960POPC   GL215242  17.697  11.451   9.020
  960POPC   C1A15243  17.129  11.114   8.733
  960POPC   D2A15244  17.122  11.109   8.303
  960POPC   C3A15245  17.565  11.138   8.161
  960POPC   C4A15246  17.707  11.041   7.777
  960POPC   C1B15247  17.548  11.390   8.602
  960POPC   C2B15248  17.629  11.672   8.216
  960POPC   C3B15249  17.521  11.515   7.834
  960POPC   C4B15250  17.189  11.181   7.801
  961POPC   NC315251  21.958  32.864   9.501
  961POPC   PO415252  22.609  32.645   9.412
  961POPC   GL115253  22.361  32.989   9.136
  961POPC   GL215254  22.009  33.177   9.106
  961POPC   C1A15255  22.383  33.190   8.713
  961POPC   D2A15256  22.088  33.210   8.378
  961POPC   C3A15257  22.243  33.098   7.962
  961POPC   C4A15258  22.189  33.249   7.546
  961POPC   C1B15259  21.981  32.861   8.762
  961POPC   C2B15260  21.838  32.693   8.325
  961POPC   C3B15261  21.807  32.790   7.883
  961POPC   C4B15262  21.526  32.701   7.514
  962POPC   NC315263  32.248  19.987   9.735
  962POPC   PO415264  32.639  19.566   9.613
  962POPC   GL115265  32.368  19.779   9.287
  962POPC   GL215266  32.000  19.868   9.228
  962POPC   C1A15267  32.369  19.879   8.864
  962POPC   D2A15268  32.399  20.024   8.459
  962POPC   C3A15269  32.278  19.755   8.152
  962POPC   C4A15270  32.407  19.696   7.756
  962POPC   C1B15271  31.898  20.079   8.766
  962POPC   C2B15272  31.905  20.104   8.282
  962POPC   C3B15273  31.908  19.923   7.831
  962POPC   C4B15274  32.033  19.651   7.412
  963POPC   NC315275  26.549  15.571   9.504
  963POPC   PO415276  25.897  15.918   9.525
  963POPC   GL115277  26.055  15.907   9.115
  963POPC   GL215278  26.166  15.597   9.180
  963POPC   C1A15279  26.088  16.020   8.675
  963POPC   D2A15280  25.922  15.939   8.259
  963POPC   C3A15281  26.161  15.965   7.881
  963POPC   C4A15282  26.096  15.922   7.437
  963POPC   C1B15283  26.298  15.568   8.779
  963POPC   C2B15284  26.341  15.676   8.383
  963POPC   C3B15285  26.261  15.479   8.039
  963POPC   C4B15286  26.334  15.520   7.645
  964POPC   NC315287  33.020  28.789   9.527
  964POPC   PO415288  33.238  29.502   9.578
  964POPC   GL115289  33.060  29.229   9.264
  964POPC   GL215290  33.368  29.315   9.138
  964POPC   C1A15291  32.918  28.970   8.882
  964POPC   D2A15292  33.128  28.865   8.474
  964POPC   C3A15293  32.981  28.939   8.063
  964POPC   C4A15294  32.717  29.102   7.744
  964POPC   C1B15295  33.384  29.182   8.778
  964POPC   C2B15296  33.275  29.384   8.414
  964POPC   C3B15297  33.372  29.288   8.032
  964POPC   C4B15298  33.358  29.431   7.645
  965POPC   NC315299  27.404  25.427   9.749
  965POPC   PO415300  27.266  24.875   9.413
  965POPC   GL115301  27.381  25.044   9.021
  965POPC   GL215302  27.687  25.220   8.945
  965POPC   C1A15303  27.369  25.066   8.581
  965POPC   D2A15304  27.621  24.905   8.260
  965POPC   C3A15305  27.378  25.049   7.951
  965POPC   C4A15306  27.560  25.279   7.644
  965POPC   C1B15307  27.662  25.473   8.595
  965POPC   C2B15308  27.558  25.468   8.181
  965POPC   C3B15309  27.874  25.623   7.918
  965POPC   C4B15310  28.044  25.433   7.567
  966POPC   NC315311  32.352  36.246   9.313
  966POPC   PO415312  32.894  36.092   9.705
  966POPC   GL115313  32.923  36.256   9.281
  966POPC   GL215314  32.924  35.945   9.110
  966POPC   C1A15315  33.078  36.358   8.842
  966POPC   D2A15316  33.143  36.462   8.394
  966POPC   C3A15317  32.916  36.338   8.005
  966POPC   C4A15318  33.165  36.222   7.653
  966POPC   C1B15319  33.085  35.841   8.698
  966POPC   C2B15320  33.050  35.871   8.249
  966POPC   C3B15321  33.129  35.737   7.829
  966POPC   C4B15322  33.072  35.801   7.374
  967POPC   NC315323   0.861  43.348  10.003
  967POPC   PO415324   0.420  42.951   9.696
  967POPC   GL115325   0.332  42.933   9.257
  967POPC   GL215326   0.331  43.280   9.196
  967POPC   C1A15327   0.516  42.953   8.832
  967POPC   D2A15328   0.635  43.178   8.457
  967POPC   C3A15329   0.531  43.026   8.038
  967POPC   C4A15330   0.166  42.880   7.812
  967POPC   C1B15331   0.231  43.388   8.765
  967POPC   C2B15332   0.351  43.614   8.393
  967POPC   C3B15333   0.380  43.546   7.962
  967POPC   C4B15334   0.559  43.345   7.598
  968POPC   NC315335  22.997  21.603   9.566
  968POPC   PO415336  22.491  21.196   9.386
  968POPC   GL115337  22.911  21.220   9.226
  968POPC   GL215338  23.004  21.547   9.065
  968POPC   C1A15339  22.947  21.077   8.817
  968POPC   D2A15340  22.607  21.106   8.497
  968POPC   C3A15341  22.700  21.370   8.167
  968POPC   C4A15342  22.805  21.342   7.741
  968POPC   C1B15343  22.850  21.566   8.654
  968POPC   C2B15344  22.619  21.837   8.401
  968POPC   C3B15345  22.801  21.839   7.987
  968POPC   C4B15346  23.189  21.670   7.819
  969POPC   NC315347   4.149  32.822   9.325
  969POPC   PO415348   4.398  33.400   9.545
  969POPC   GL115349   4.350  33.305   9.128
  969POPC   GL215350   3.966  33.342   9.138
  969POPC   C1A15351   4.515  33.003   8.790
  969POPC   D2A15352   4.656  33.124   8.370
  969POPC   C3A15353   4.491  32.898   8.013
  969POPC   C4A15354   4.501  32.899   7.558
  969POPC   C1B15355   4.083  33.259   8.686
  969POPC   C2B15356   4.172  33.245   8.250
  969POPC   C3B15357   4.384  33.375   7.894
  969POPC   C4B15358   4.311  33.348   7.470
  970POPC   NC315359  17.941  27.152   9.562
  970POPC   PO415360  17.460  26.683   9.583
  970POPC   GL115361  17.723  26.800   9.215
  970POPC   GL215362  17.622  27.173   9.162
  970POPC   C1A15363  17.691  26.866   8.750
  970POPC   D2A15364  17.641  26.893   8.307
  970POPC   C3A15365  17.317  26.690   8.140
  970POPC   C4A15366  17.121  26.895   7.846
  970POPC   C1B15367  17.790  27.366   8.787
  970POPC   C2B15368  17.993  27.271   8.418
  970POPC   C3B15369  18.009  27.107   8.013
  970POPC   C4B15370  17.647  26.927   7.780
  971POPC   NC315371  14.204  24.849   9.623
  971POPC   PO415372  13.838  25.370   9.487
  971POPC   GL115373  14.225  25.313   9.146
  971POPC   GL215374  14.390  24.972   9.147
  971POPC   C1A15375  14.360  25.489   8.712
  971POPC   D2A15376  14.547  25.675   8.324
  971POPC   C3A15377  14.524  25.354   7.986
  971POPC   C4A15378  14.488  25.163   7.562
  971POPC   C1B15379  14.231  25.006   8.733
  971POPC   C2B15380  14.413  24.974   8.334
  971POPC   C3B15381  14.516  24.778   7.924
  971POPC   C4B15382  14.549  24.641   7.464
  972POPC   NC315383  29.310  34.249   9.469
  972POPC   PO415384  29.001  34.817   9.455
  972POPC   GL115385  29.197  34.659   9.101
  972POPC   GL215386  29.009  34.353   9.061
  972POPC   C1A15387  29.130  34.631   8.651
  972POPC   D2A15388  28.906  34.424   8.334
  972POPC   C3A15389  28.910  34.700   8.001
  972POPC   C4A15390  29.051  34.611   7.589
  972POPC   C1B15391  29.358  34.197   8.803
  972POPC   C2B15392  29.447  34.338   8.376
  972POPC   C3B15393  29.261  34.266   7.959
  972POPC   C4B15394  29.506  34.365   7.590
  973POPC   NC315395  30.104  35.251   9.525
  973POPC   PO415396  29.610  35.611   9.472
  973POPC   GL115397  29.758  35.384   9.123
  973POPC   GL215398  30.053  35.578   9.095
  973POPC   C1A15399  29.912  35.088   8.780
  973POPC   D2A15400  30.096  34.995   8.334
  973POPC   C3A15401  29.803  35.064   8.003
  973POPC   C4A15402  29.564  35.419   7.844
  973POPC   C1B15403  29.886  35.604   8.672
  973POPC   C2B15404  29.829  35.867   8.324
  973POPC   C3B15405  29.988  35.819   7.947
  973POPC   C4B15406  30.110  35.429   7.882
  974POPC   NC315407  28.909  23.605   9.455
  974POPC   PO415408  29.567  23.884   9.416
  974POPC   GL115409  29.258  23.890   9.108
  974POPC   GL215410  29.270  23.534   9.087
  974POPC   C1A15411  29.133  24.037   8.670
  974POPC   D2A15412  29.098  23.961   8.212
  974POPC   C3A15413  29.379  23.619   8.054
  974POPC   C4A15414  29.252  23.348   7.728
  974POPC   C1B15415  28.971  23.559   8.770
  974POPC   C2B15416  29.031  23.459   8.365
  974POPC   C3B15417  28.848  23.539   7.979
  974POPC   C4B15418  28.653  23.896   7.855
  975POPC   NC315419  34.647  39.643   9.604
  975POPC   PO415420  34.274  40.205   9.605
  975POPC   GL115421  34.311  39.905   9.248
  975POPC   GL215422  34.664  39.851   9.137
  975POPC   C1A15423  34.264  39.960   8.792
  975POPC   D2A15424  34.031  40.177   8.459
  975POPC   C3A15425  34.253  40.352   8.110
  975POPC   C4A15426  34.442  40.203   7.764
  975POPC   C1B15427  34.778  39.816   8.702
  975POPC   C2B15428  34.512  39.776   8.330
  975POPC   C3B15429  34.338  39.736   7.893
  975POPC   C4B15430  34.571  39.720   7.467
  976POPC   NC315431  43.341  32.290   9.569
  976POPC   PO415432  42.737  32.007   9.515
  976POPC   GL115433  43.033  32.032   9.180
  976POPC   GL215434  43.398  31.929   9.166
  976POPC   C1A15435  42.952  32.089   8.766
  976POPC   D2A15436  43.102  32.367   8.458
  976POPC   C3A15437  43.113  32.120   8.091
  976POPC   C4A15438  43.004  32.234   7.707
  976POPC   C1B15439  43.382  32.337   8.920
  976POPC   C2B15440  43.580  32.530   8.560
  976POPC   C3B15441  43.558  32.374   8.166
  976POPC   C4B15442  43.526  32.387   7.750
  977POPC   NC315443  12.376  30.558   9.767
  977POPC   PO415444  11.861  30.864   9.456
  977POPC   GL115445  12.077  30.863   9.090
  977POPC   GL215446  12.251  30.572   9.163
  977POPC   C1A15447  12.029  30.827   8.649
  977POPC   D2A15448  12.050  31.026   8.273
  977POPC   C3A15449  11.759  30.968   7.941
  977POPC   C4A15450  12.091  31.052   7.712
  977POPC   C1B15451  11.840  30.442   8.903
  977POPC   C2B15452  11.796  30.344   8.503
  977POPC   C3B15453  11.934  30.514   8.125
  977POPC   C4B15454  11.990  30.562   7.691
  978POPC   NC315455  26.753  44.083   9.825
  978POPC   PO415456  26.567  44.006   9.214
  978POPC   GL115457  26.868  43.880   8.987
  978POPC   GL215458  26.959  43.595   9.127
  978POPC   C1A15459  26.861  44.022   8.596
  978POPC   D2A15460  26.756  43.935   8.199
  978POPC   C3A15461  26.718  44.185   7.854
  978POPC   C4A15462  26.443  44.047   7.550
  978POPC   C1B15463  26.853  43.487   8.706
  978POPC   C2B15464  27.114  43.613   8.422
  978POPC   C3B15465  27.026  43.548   8.048
  978POPC   C4B15466  26.778  43.699   7.728
  979POPC   NC315467  25.313  26.733   9.613
  979POPC   PO415468  25.452  27.359   9.400
  979POPC   GL115469  25.305  27.000   9.165
  979POPC   GL215470  25.566  26.767   9.176
  979POPC   C1A15471  25.381  26.923   8.716
  979POPC   D2A15472  25.313  26.650   8.362
  979POPC   C3A15473  25.235  26.923   8.029
  979POPC   C4A15474  25.021  27.306   7.902
  979POPC   C1B15475  25.751  26.560   8.833
  979POPC   C2B15476  25.886  26.660   8.431
  979POPC   C3B15477  25.713  26.738   8.045
  979POPC   C4B15478  25.497  26.652   7.657
  980POPC   NC315479  18.217  10.304   9.395
  980POPC   PO415480  18.372   9.630   9.533
  980POPC   GL115481  18.476   9.867   9.208
  980POPC   GL215482  18.129   9.863   9.141
  980POPC   C1A15483  18.499   9.934   8.784
  980POPC   D2A15484  18.415   9.833   8.396
  980POPC   C3A15485  18.505  10.066   8.055
  980POPC   C4A15486  18.393   9.836   7.690
  980POPC   C1B15487  17.962   9.866   8.753
  980POPC   C2B15488  17.991  10.121   8.400
  980POPC   C3B15489  18.011   9.850   8.043
  980POPC   C4B15490  17.726   9.745   7.718
  981POPC   NC315491  25.419  40.756   9.553
  981POPC   PO415492  25.324  41.437   9.577
  981POPC   GL115493  25.339  41.111   9.194
  981POPC   GL215494  25.182  40.789   9.103
  981POPC   C1A15495  25.473  41.012   8.747
  981POPC   D2A15496  25.612  40.697   8.412
  981POPC   C3A15497  25.567  40.913   7.999
  981POPC   C4A15498  25.163  40.853   7.772
  981POPC   C1B15499  25.192  40.588   8.730
  981POPC   C2B15500  24.975  40.392   8.406
  981POPC   C3B15501  25.179  40.408   8.002
  981POPC   C4B15502  25.372  40.401   7.562
  982POPC   NC315503  39.529  37.503   9.333
  982POPC   PO415504  40.063  38.028   9.522
  982POPC   GL115505  40.111  37.847   9.114
  982POPC   GL215506  39.873  37.595   8.973
  982POPC   C1A15507  39.999  38.018   8.720
  982POPC   D2A15508  39.770  37.942   8.361
  982POPC   C3A15509  39.996  37.869   7.986
  982POPC   C4A15510  39.917  38.076   7.633
  982POPC   C1B15511  40.257  37.443   8.795
  982POPC   C2B15512  40.210  37.294   8.367
  982POPC   C3B15513  39.960  37.354   7.983
  982POPC   C4B15514  40.390  37.441   7.857
  983POPC   NC315515  17.072  11.385   9.434
  983POPC   PO415516  16.456  11.523   9.452
  983POPC   GL115517  16.653  11.491   9.086
  983POPC   GL215518  16.754  11.146   9.096
  983POPC   C1A15519  16.967  11.593   8.774
  983POPC   D2A15520  17.129  11.630   8.354
  983POPC   C3A15521  16.845  11.499   7.991
  983POPC   C4A15522  16.635  11.569   7.587
  983POPC   C1B15523  16.506  11.173   8.712
  983POPC   C2B15524  16.580  11.139   8.288
  983POPC   C3B15525  16.416  11.004   7.903
  983POPC   C4B15526  16.437  11.114   7.456
  984POPC   NC315527  29.723  41.019   9.967
  984POPC   PO415528  30.104  40.612   9.513
  984POPC   GL115529  29.893  40.931   9.231
  984POPC   GL215530  30.127  41.150   9.075
  984POPC   C1A15531  29.666  40.827   8.838
  984POPC   D2A15532  29.719  40.450   8.574
  984POPC   C3A15533  29.722  40.589   8.130
  984POPC   C4A15534  30.053  40.848   7.918
  984POPC   C1B15535  30.180  40.750   8.861
  984POPC   C2B15536  30.143  40.768   8.437
  984POPC   C3B15537  30.206  41.184   8.265
  984POPC   C4B15538  30.329  41.325   7.843
  985POPC   NC315539  37.260  36.921   9.503
  985POPC   PO415540  36.566  37.086   9.366
  985POPC   GL115541  36.962  37.107   9.128
  985POPC   GL215542  37.023  36.738   9.076
  985POPC   C1A15543  37.172  37.095   8.713
  985POPC   D2A15544  37.101  36.815   8.338
  985POPC   C3A15545  36.962  37.026   7.980
  985POPC   C4A15546  37.191  37.277   7.731
  985POPC   C1B15547  36.924  36.462   8.714
  985POPC   C2B15548  37.115  36.281   8.329
  985POPC   C3B15549  36.940  36.333   7.929
  985POPC   C4B15550  36.709  36.657   7.688
  986POPC   NC315551  36.231  17.466   9.632
  986POPC   PO415552  36.203  18.114   9.536
  986POPC   GL115553  36.298  17.750   9.219
  986POPC   GL215554  36.393  17.375   9.164
  986POPC   C1A15555  36.071  17.612   8.853
  986POPC   D2A15556  35.903  17.538   8.464
  986POPC   C3A15557  36.005  17.782   8.122
  986POPC   C4A15558  35.930  17.655   7.707
  986POPC   C1B15559  36.301  17.086   8.838
  986POPC   C2B15560  36.315  17.232   8.425
  986POPC   C3B15561  36.133  17.279   8.025
  986POPC   C4B15562  36.246  17.104   7.604
  987POPC   NC315563  12.576  26.690   9.476
  987POPC   PO415564  12.937  27.091   9.576
  987POPC   GL115565  12.804  27.076   9.180
  987POPC   GL215566  13.168  27.028   9.097
  987POPC   C1A15567  12.730  26.877   8.781
  987POPC   D2A15568  12.827  26.880   8.343
  987POPC   C3A15569  12.539  27.066   8.070
  987POPC   C4A15570  12.453  26.784   7.742
  987POPC   C1B15571  13.245  26.760   8.708
  987POPC   C2B15572  13.060  26.451   8.395
  987POPC   C3B15573  12.924  26.529   7.964
  987POPC   C4B15574  12.974  26.901   7.781
  988POPC   NC315575  37.304   1.027   9.370
  988POPC   PO415576  37.983   1.041   9.514
  988POPC   GL115577  37.760   1.152   9.180
  988POPC   GL215578  37.846   0.810   9.077
  988POPC   C1A15579  37.824   1.474   8.875
  988POPC   D2A15580  38.107   1.472   8.527
  988POPC   C3A15581  37.907   1.222   8.209
  988POPC   C4A15582  37.984   1.235   7.817
  988POPC   C1B15583  37.885   0.992   8.689
  988POPC   C2B15584  37.528   0.943   8.418
  988POPC   C3B15585  37.398   1.070   8.009
  988POPC   C4B15586  37.543   1.166   7.608
  989POPC   NC315587  32.043  21.170   9.264
  989POPC   PO415588  32.126  21.779   9.524
  989POPC   GL115589  32.239  21.606   9.116
  989POPC   GL215590  32.577  21.723   9.110
  989POPC   C1A15591  32.090  21.443   8.697
  989POPC   D2A15592  32.070  21.628   8.325
  989POPC   C3A15593  32.299  21.447   8.027
  989POPC   C4A15594  32.263  21.599   7.587
  989POPC   C1B15595  32.598  21.457   8.722
  989POPC   C2B15596  32.493  21.063   8.506
  989POPC   C3B15597  32.644  21.001   8.090
  989POPC   C4B15598  32.586  21.194   7.698
  990POPC   NC315599  13.731  40.211   9.552
  990POPC   PO415600  13.043  40.320   9.462
  990POPC   GL115601  13.371  40.156   9.149
  990POPC   GL215602  13.696  39.938   9.113
  990POPC   C1A15603  13.528  40.190   8.726
  990POPC   D2A15604  13.350  40.299   8.378
  990POPC   C3A15605  13.665  40.343   8.082
  990POPC   C4A15606  13.517  40.234   7.710
  990POPC   C1B15607  13.884  39.776   8.737
  990POPC   C2B15608  13.831  39.917   8.315
  990POPC   C3B15609  13.686  39.766   7.895
  990POPC   C4B15610  13.741  39.857   7.421
  991POPC   NC315611  21.193  14.052   9.505
  991POPC   PO415612  21.461  13.369   9.534
  991POPC   GL115613  21.407  13.569   9.190
  991POPC   GL215614  21.088  13.600   9.233
  991POPC   C1A15615  21.403  13.790   8.809
  991POPC   D2A15616  21.574  13.655   8.403
  991POPC   C3A15617  21.572  13.883   7.997
  991POPC   C4A15618  21.447  13.693   7.591
  991POPC   C1B15619  20.945  13.551   8.847
  991POPC   C2B15620  21.049  13.680   8.449
  991POPC   C3B15621  21.182  13.576   8.038
  991POPC   C4B15622  20.968  13.739   7.671
  992POPC   NC315623  25.782  27.615   9.594
  992POPC   PO415624  26.420  27.339   9.651
  992POPC   GL115625  26.159  27.588   9.216
  992POPC   GL215626  25.803  27.813   9.144
  992POPC   C1A15627  26.157  27.821   8.778
  992POPC   D2A15628  26.518  27.898   8.464
  992POPC   C3A15629  26.451  27.816   8.023
  992POPC   C4A15630  26.175  27.849   7.692
  992POPC   C1B15631  25.735  27.559   8.811
  992POPC   C2B15632  25.734  27.715   8.422
  992POPC   C3B15633  25.739  27.784   8.004
  992POPC   C4B15634  25.698  28.074   7.729
  993POPC   NC315635  18.908  18.112   9.519
  993POPC   PO415636  19.483  18.076   9.259
  993POPC   GL115637  19.123  18.309   9.087
  993POPC   GL215638  18.969  18.644   9.218
  993POPC   C1A15639  18.955  18.209   8.689
  993POPC   D2A15640  18.929  18.452   8.267
  993POPC   C3A15641  18.799  18.412   7.810
  993POPC   C4A15642  18.960  18.397   7.357
  993POPC   C1B15643  18.907  18.726   8.768
  993POPC   C2B15644  19.186  18.936   8.463
  993POPC   C3B15645  19.411  18.712   8.162
  993POPC   C4B15646  19.265  18.549   7.806
  994POPC   NC315647  36.549  12.801   9.417
  994POPC   PO415648  37.075  13.036   9.432
  994POPC   GL115649  36.952  12.761   9.075
  994POPC   GL215650  36.645  12.570   8.978
  994POPC   C1A15651  36.985  12.792   8.649
  994POPC   D2A15652  37.158  12.919   8.277
  994POPC   C3A15653  36.935  12.699   7.974
  994POPC   C4A15654  37.032  12.930   7.613
  994POPC   C1B15655  36.524  12.971   8.775
  994POPC   C2B15656  36.652  13.068   8.359
  994POPC   C3B15657  36.607  13.069   7.930
  994POPC   C4B15658  36.566  12.706   7.612
  995POPC   NC315659  36.568  16.944   9.453
  995POPC   PO415660  37.095  16.615   9.502
  995POPC   GL115661  37.014  16.549   9.109
  995POPC   GL215662  37.247  16.296   9.002
  995POPC   C1A15663  36.807  16.785   8.798
  995POPC   D2A15664  36.778  16.980   8.412
  995POPC   C3A15665  36.893  16.776   8.065
  995POPC   C4A15666  36.722  16.971   7.709
  995POPC   C1B15667  36.857  16.234   8.744
  995POPC   C2B15668  36.615  16.449   8.430
  995POPC   C3B15669  36.601  16.345   8.020
  995POPC   C4B15670  36.807  16.479   7.630
  996POPC   NC315671   5.908  39.750   9.869
  996POPC   PO415672   5.723  39.146   9.511
  996POPC   GL115673   5.811  39.170   9.088
  996POPC   GL215674   6.159  39.135   9.085
  996POPC   C1A15675   5.893  39.352   8.688
  996POPC   D2A15676   5.775  39.449   8.295
  996POPC   C3A15677   5.789  39.293   7.915
  996POPC   C4A15678   5.551  39.560   7.653
  996POPC   C1B15679   6.194  38.931   8.704
  996POPC   C2B15680   6.092  39.035   8.289
  996POPC   C3B15681   6.145  38.931   7.870
  996POPC   C4B15682   6.106  38.805   7.402
  997POPC   NC315683  31.927  35.354   9.466
  997POPC   PO415684  31.376  35.722   9.653
  997POPC   GL115685  31.566  35.650   9.231
  997POPC   GL215686  31.259  35.737   9.109
  997POPC   C1A15687  31.605  35.464   8.798
  997POPC   D2A15688  31.278  35.402   8.449
  997POPC   C3A15689  31.376  35.113   8.093
  997POPC   C4A15690  31.544  35.258   7.700
  997POPC   C1B15691  31.411  35.941   8.761
  997POPC   C2B15692  31.641  35.812   8.406
  997POPC   C3B15693  31.487  35.642   8.032
  997POPC   C4B15694  31.732  35.750   7.689
  998POPC   NC315695  26.362  30.106   9.364
  998POPC   PO415696  25.903  29.669   9.622
  998POPC   GL115697  26.035  29.676   9.216
  998POPC   GL215698  25.895  29.979   9.173
  998POPC   C1A15699  25.814  29.615   8.817
  998POPC   D2A15700  25.873  29.401   8.444
  998POPC   C3A15701  25.881  29.676   8.144
  998POPC   C4A15702  26.010  29.716   7.736
  998POPC   C1B15703  26.093  30.070   8.783
  998POPC   C2B15704  25.980  30.116   8.394
  998POPC   C3B15705  26.093  30.174   8.027
  998POPC   C4B15706  26.036  30.205   7.626
  999POPC   NC315707  16.252  43.188   9.519
  999POPC   PO415708  15.826  42.722   9.450
  999POPC   GL115709  15.795  43.010   9.112
  999POPC   GL215710  15.799  43.352   9.213
  999POPC   C1A15711  15.677  42.925   8.682
  999POPC   D2A15712  15.727  42.801   8.237
  999POPC   C3A15713  15.788  42.754   7.780
  999POPC   C4A15714  15.958  42.810   7.352
  999POPC   C1B15715  15.947  43.433   8.803
  999POPC   C2B15716  15.851  43.295   8.375
  999POPC   C3B15717  16.050  43.138   8.018
  999POPC   C4B15718  16.002  43.236   7.615
 1000POPC   NC315719  14.525   0.562   9.448
 1000POPC   PO415720  13.839   0.375   9.412
 1000POPC   GL115721  14.145   0.481   9.086
 1000POPC   GL215722  14.257   0.810   9.045
 1000POPC   C1A15723  14.525   0.383   8.802
 1000POPC   D2A15724  14.766   0.082   8.507
 1000POPC   C3A15725  14.469  44.985   8.164
 1000POPC   C4A15726  14.251   0.218   7.807
 1000POPC   C1B15727  14.372   1.005   8.670
 1000POPC   C2B15728  14.195   0.829   8.307
 1000POPC   C3B15729  14.120   0.705   7.901
 1000POPC   C4B15730  14.269   0.690   7.447
 1001POPC   NC315731  42.668  24.464   9.467
 1001POPC   PO415732  42.145  24.803   9.537
 1001POPC   GL115733  42.276  24.649   9.124
 1001POPC   GL215734  42.377  24.313   9.070
 1001POPC   C1A15735  42.127  24.557   8.697
 1001POPC   D2A15736  42.326  24.554   8.315
 1001POPC   C3A15737  42.278  24.189   8.137
 1001POPC   C4A15738  42.098  24.420   7.830
 1001POPC   C1B15739  42.563  24.256   8.673
 1001POPC   C2B15740  42.901  24.337   8.407
 1001POPC   C3B15741  42.775  24.329   7.967
 1001POPC   C4B15742  42.488  24.147   7.650
 1002POPC   NC315743  30.533  20.504   9.464
 1002POPC   PO415744  31.125  20.755   9.408
 1002POPC   GL115745  30.804  20.797   9.046
 1002POPC   GL215746  30.525  20.555   8.960
 1002POPC   C1A15747  30.670  20.839   8.581
 1002POPC   D2A15748  30.502  20.459   8.362
 1002POPC   C3A15749  30.469  20.544   7.920
 1002POPC   C4A15750  30.787  20.649   7.609
 1002POPC   C1B15751  30.918  20.420   8.689
 1002POPC   C2B15752  30.962  20.192   8.294
 1002POPC   C3B15753  30.994  20.228   7.850
 1002POPC   C4B15754  30.985  20.224   7.396
 1003POPC   NC315755   0.714  12.628   9.424
 1003POPC   PO415756   1.323  13.118   9.600
 1003POPC   GL115757   1.366  13.134   9.175
 1003POPC   GL215758   1.253  12.823   9.071
 1003POPC   C1A15759   1.290  13.167   8.728
 1003POPC   D2A15760   1.309  12.751   8.514
 1003POPC   C3A15761   1.315  12.789   8.098
 1003POPC   C4A15762   1.378  13.147   7.901
 1003POPC   C1B15763   0.872  12.865   8.755
 1003POPC   C2B15764   0.793  12.700   8.399
 1003POPC   C3B15765   0.772  12.809   8.012
 1003POPC   C4B15766   1.012  12.849   7.656
 1004POPC   NC315767  35.505   8.841   9.711
 1004POPC   PO415768  35.530   9.459   9.524
 1004POPC   GL115769  35.416   9.250   9.162
 1004POPC   GL215770  35.430   8.869   9.208
 1004POPC   C1A15771  35.503   9.307   8.732
 1004POPC   D2A15772  35.281   9.159   8.389
 1004POPC   C3A15773  35.484   9.159   7.998
 1004POPC   C4A15774  35.135   9.104   7.726
 1004POPC   C1B15775  35.408   8.774   8.781
 1004POPC   C2B15776  35.427   8.656   8.367
 1004POPC   C3B15777  35.314   8.685   7.942
 1004POPC   C4B15778  35.581   8.772   7.591
 1005POPC   NC315779  25.806  13.196   9.361
 1005POPC   PO415780  26.235  12.781   9.677
 1005POPC   GL115781  26.201  12.922   9.217
 1005POPC   GL215782  25.907  12.758   9.118
 1005POPC   C1A15783  26.085  13.054   8.760
 1005POPC   D2A15784  25.888  12.915   8.376
 1005POPC   C3A15785  26.078  13.004   7.971
 1005POPC   C4A15786  25.895  12.936   7.592
 1005POPC   C1B15787  26.101  12.519   8.794
 1005POPC   C2B15788  25.907  12.413   8.434
 1005POPC   C3B15789  25.875  12.544   8.004
 1005POPC   C4B15790  26.247  12.518   7.773
 1006POPC   NC315791  32.769   1.400   9.521
 1006POPC   PO415792  33.271   0.966   9.786
 1006POPC   GL115793  33.192   1.116   9.321
 1006POPC   GL215794  33.427   0.955   9.120
 1006POPC   C1A15795  33.125   1.360   8.884
 1006POPC   D2A15796  32.902   1.496   8.494
 1006POPC   C3A15797  33.029   1.301   8.114
 1006POPC   C4A15798  32.987   1.501   7.739
 1006POPC   C1B15799  33.033   0.857   8.865
 1006POPC   C2B15800  32.906   0.885   8.432
 1006POPC   C3B15801  32.743   0.856   7.999
 1006POPC   C4B15802  32.964   0.978   7.625
 1007POPC   NC315803  20.920  19.818   9.353
 1007POPC   PO415804  21.438  19.859   9.769
 1007POPC   GL115805  21.450  19.802   9.268
 1007POPC   GL215806  21.223  19.503   9.107
 1007POPC   C1A15807  21.656  19.655   8.859
 1007POPC   D2A15808  21.845  19.823   8.467
 1007POPC   C3A15809  21.773  19.648   8.059
 1007POPC   C4A15810  21.565  19.873   7.758
 1007POPC   C1B15811  21.169  19.630   8.661
 1007POPC   C2B15812  21.343  19.837   8.294
 1007POPC   C3B15813  21.127  20.052   7.949
 1007POPC   C4B15814  21.075  19.708   7.748
 1008POPC   NC315815  24.578   1.974   9.412
 1008POPC   PO415816  24.010   2.417   9.424
 1008POPC   GL115817  24.368   2.307   9.121
 1008POPC   GL215818  24.381   1.899   8.957
 1008POPC   C1A15819  24.712   2.232   8.773
 1008POPC   D2A15820  24.724   1.887   8.454
 1008POPC   C3A15821  24.660   1.927   8.003
 1008POPC   C4A15822  24.612   1.655   7.664
 1008POPC   C1B15823  24.217   2.195   8.678
 1008POPC   C2B15824  24.399   2.306   8.345
 1008POPC   C3B15825  24.165   2.029   8.100
 1008POPC   C4B15826  24.156   1.985   7.680
 1009POPC   NC315827   8.618  39.997   9.440
 1009POPC   PO415828   9.151  40.366   9.553
 1009POPC   GL115829   8.999  40.245   9.148
 1009POPC   GL215830   8.646  40.407   9.116
 1009POPC   C1A15831   9.126  39.989   8.744
 1009POPC   D2A15832   9.374  40.024   8.326
 1009POPC   C3A15833   9.119  39.915   7.922
 1009POPC   C4A15834   8.684  39.945   7.788
 1009POPC   C1B15835   8.808  40.382   8.702
 1009POPC   C2B15836   8.883  40.188   8.306
 1009POPC   C3B15837   8.909  40.390   7.907
 1009POPC   C4B15838   8.629  40.392   7.547
 1010POPC   NC315839  15.572   2.795   9.655
 1010POPC   PO415840  16.207   2.699   9.724
 1010POPC   GL115841  16.069   2.981   9.367
 1010POPC   GL215842  15.756   2.836   9.183
 1010POPC   C1A15843  16.146   2.992   8.896
 1010POPC   D2A15844  15.877   3.035   8.536
 1010POPC   C3A15845  16.064   2.939   8.142
 1010POPC   C4A15846  16.011   3.084   7.738
 1010POPC   C1B15847  15.615   2.557   8.816
 1010POPC   C2B15848  15.533   2.685   8.373
 1010POPC   C3B15849  15.640   2.613   7.900
 1010POPC   C4B15850  15.955   2.410   7.594
 1011POPC   NC315851  33.352   3.679   9.775
 1011POPC   PO415852  33.572   3.329   9.266
 1011POPC   GL115853  33.910   3.455   8.998
 1011POPC   GL215854  33.893   3.846   9.039
 1011POPC   C1A15855  33.896   3.315   8.574
 1011POPC   D2A15856  33.798   3.159   8.191
 1011POPC   C3A15857  33.799   3.446   7.880
 1011POPC   C4A15858  33.794   3.367   7.474
 1011POPC   C1B15859  33.623   3.734   8.691
 1011POPC   C2B15860  33.623   3.701   8.289
 1011POPC   C3B15861  33.512   3.885   7.939
 1011POPC   C4B15862  33.751   3.868   7.579
 1012POPC   NC315863  10.365  23.685   9.521
 1012POPC   PO415864  10.909  23.339   9.671
 1012POPC   GL115865  10.782  23.522   9.250
 1012POPC   GL215866  10.473  23.349   9.141
 1012POPC   C1A15867  10.610  23.806   8.893
 1012POPC   D2A15868  10.468  23.864   8.445
 1012POPC   C3A15869  10.657  23.745   8.047
 1012POPC   C4A15870  10.724  23.372   7.792
 1012POPC   C1B15871  10.337  23.402   8.720
 1012POPC   C2B15872  10.117  23.477   8.345
 1012POPC   C3B15873  10.208  23.519   7.949
 1012POPC   C4B15874  10.307  23.863   7.696
 1013POPC   NC315875  11.314  13.224   9.362
 1013POPC   PO415876  11.181  12.648   9.450
 1013POPC   GL115877  11.396  12.655   9.097
 1013POPC   GL215878  11.666  12.870   9.151
 1013POPC   C1A15879  11.209  12.700   8.709
 1013POPC   D2A15880  10.936  12.733   8.409
 1013POPC   C3A15881  11.034  12.518   8.068
 1013POPC   C4A15882  11.116  12.810   7.760
 1013POPC   C1B15883  11.531  13.098   8.771
 1013POPC   C2B15884  11.678  13.103   8.352
 1013POPC   C3B15885  11.537  13.058   7.924
 1013POPC   C4B15886  11.659  12.893   7.524
 1014POPC   NC315887  44.533  44.788   9.735
 1014POPC   PO415888   0.002  44.358   9.473
 1014POPC   GL115889  44.634  44.407   9.215
 1014POPC   GL215890  44.624  44.745   9.110
 1014POPC   C1A15891  44.547  44.385   8.757
 1014POPC   D2A15892  44.723  44.543   8.373
 1014POPC   C3A15893  44.531  44.497   8.020
 1014POPC   C4A15894  44.454  44.224   7.708
 1014POPC   C1B15895  44.640  44.978   8.672
 1014POPC   C2B15896  44.608   0.001   8.179
 1014POPC   C3B15897  44.645  44.948   7.699
 1014POPC   C4B15898  44.531   0.120   7.257
 1015POPC   NC315899  44.263  29.688   9.346
 1015POPC   PO415900  43.864  30.089   9.792
 1015POPC   GL115901  43.988  30.136   9.301
 1015POPC   GL215902  44.299  30.171   9.130
 1015POPC   C1A15903  43.878  30.138   8.817
 1015POPC   D2A15904  44.001  30.210   8.352
 1015POPC   C3A15905  43.918  29.872   8.028
 1015POPC   C4A15906  43.746  29.736   7.618
 1015POPC   C1B15907  44.405  30.285   8.699
 1015POPC   C2B15908  44.555  30.199   8.263
 1015POPC   C3B15909  44.295  30.166   7.886
 1015POPC   C4B15910  44.250  29.820   7.566
 1016POPC   NC315911  34.381  31.407   9.501
 1016POPC   PO415912  34.999  31.082   9.435
 1016POPC   GL115913  34.826  31.440   9.160
 1016POPC   GL215914  34.466  31.579   9.039
 1016POPC   C1A15915  34.801  31.416   8.716
 1016POPC   D2A15916  34.464  31.512   8.453
 1016POPC   C3A15917  34.606  31.577   8.041
 1016POPC   C4A15918  34.708  31.754   7.657
 1016POPC   C1B15919  34.421  31.149   8.905
 1016POPC   C2B15920  34.422  31.000   8.489
 1016POPC   C3B15921  34.350  31.116   8.055
 1016POPC   C4B15922  34.410  31.316   7.649
 1017POPC   NC315923  30.561  14.968   9.556
 1017POPC   PO415924  30.822  15.441   9.379
 1017POPC   GL115925  30.722  15.095   9.103
 1017POPC   GL215926  30.327  15.110   9.131
 1017POPC   C1A15927  30.922  14.782   8.836
 1017POPC   D2A15928  30.907  14.738   8.378
 1017POPC   C3A15929  30.844  15.141   8.143
 1017POPC   C4A15930  30.633  15.168   7.755
 1017POPC   C1B15931  30.450  15.325   8.756
 1017POPC   C2B15932  30.372  15.239   8.339
 1017POPC   C3B15933  30.427  15.555   8.025
 1017POPC   C4B15934  30.802  15.670   7.786
 1018POPC   NC315935  41.425  34.485   9.893
 1018POPC   PO415936  41.882  34.709   9.412
 1018POPC   GL115937  41.691  34.596   9.026
 1018POPC   GL215938  41.546  34.301   8.957
 1018POPC   C1A15939  41.368  34.702   8.742
 1018POPC   D2A15940  41.309  34.803   8.366
 1018POPC   C3A15941  41.401  34.529   8.025
 1018POPC   C4A15942  41.560  34.562   7.623
 1018POPC   C1B15943  41.749  34.190   8.573
 1018POPC   C2B15944  41.852  34.282   8.139
 1018POPC   C3B15945  41.895  34.201   7.708
 1018POPC   C4B15946  42.007  34.338   7.294
 1019POPC   NC315947  26.456  26.874   9.501
 1019POPC   PO415948  25.821  26.541   9.588
 1019POPC   GL115949  26.063  26.669   9.248
 1019POPC   GL215950  26.004  27.053   9.304
 1019POPC   C1A15951  26.234  26.699   8.832
 1019POPC   D2A15952  26.311  27.008   8.520
 1019POPC   C3A15953  26.162  26.958   8.079
 1019POPC   C4A15954  26.008  26.848   7.647
 1019POPC   C1B15955  25.868  27.062   8.873
 1019POPC   C2B15956  25.835  27.191   8.442
 1019POPC   C3B15957  26.086  27.447   8.152
 1019POPC   C4B15958  26.126  27.352   7.720
 1020POPC   NC315959  26.301  42.107   9.884
 1020POPC   PO415960  26.288  41.577   9.603
 1020POPC   GL115961  26.046  41.555   9.206
 1020POPC   GL215962  25.690  41.499   9.211
 1020POPC   C1A15963  26.121  41.610   8.776
 1020POPC   D2A15964  26.249  41.474   8.393
 1020POPC   C3A15965  26.097  41.735   8.073
 1020POPC   C4A15966  25.963  41.595   7.668
 1020POPC   C1B15967  25.606  41.510   8.799
 1020POPC   C2B15968  25.714  41.618   8.409
 1020POPC   C3B15969  25.600  41.519   8.016
 1020POPC   C4B15970  25.437  41.299   7.678
 1021POPC   NC315971   7.554  11.549   9.528
 1021POPC   PO415972   7.194  11.031   9.860
 1021POPC   GL115973   7.291  11.121   9.361
 1021POPC   GL215974   7.411  11.385   9.086
 1021POPC   C1A15975   7.157  11.025   8.894
 1021POPC   D2A15976   7.456  11.140   8.557
 1021POPC   C3A15977   7.356  11.086   8.094
 1021POPC   C4A15978   7.533  10.834   7.721
 1021POPC   C1B15979   7.405  11.648   8.687
 1021POPC   C2B15980   7.492  11.572   8.271
 1021POPC   C3B15981   7.798  11.337   8.068
 1021POPC   C4B15982   7.726  11.529   7.707
 1022POPC   NC315983  40.062  14.285   9.616
 1022POPC   PO415984  39.510  14.685   9.476
 1022POPC   GL115985  39.784  14.386   9.209
 1022POPC   GL215986  40.157  14.416   9.118
 1022POPC   C1A15987  39.779  14.285   8.785
 1022POPC   D2A15988  39.961  14.322   8.384
 1022POPC   C3A15989  39.884  14.084   8.034
 1022POPC   C4A15990  39.735  14.308   7.700
 1022POPC   C1B15991  40.119  14.689   8.720
 1022POPC   C2B15992  40.291  14.678   8.279
 1022POPC   C3B15993  40.289  14.390   7.929
 1022POPC   C4B15994  40.632  14.151   7.797
 1023POPC   NC315995  29.647  12.711   9.503
 1023POPC   PO415996  30.258  13.105   9.541
 1023POPC   GL115997  29.958  13.016   9.215
 1023POPC   GL215998  30.023  12.644   9.160
 1023POPC   C1A15999  29.996  12.990   8.757
 1023POPC   D2A16000  30.221  12.847   8.394
 1023POPC   C3A16001  30.148  13.041   8.008
 1023POPC   C4A16002  29.793  13.075   7.748
 1023POPC   C1B16003  29.653  12.606   8.878
 1023POPC   C2B16004  29.608  12.543   8.472
 1023POPC   C3B16005  29.775  12.673   8.107
 1023POPC   C4B16006  29.621  12.591   7.741
 1024POPC   NC316007  23.005  37.912   9.580
 1024POPC   PO416008  23.113  37.359   9.288
 1024POPC   GL116009  23.125  37.756   9.058
 1024POPC   GL216010  22.927  38.076   9.119
 1024POPC   C1A16011  22.914  37.721   8.657
 1024POPC   D2A16012  22.722  37.473   8.324
 1024POPC   C3A16013  22.894  37.574   7.979
 1024POPC   C4A16014  22.848  37.280   7.708
 1024POPC   C1B16015  23.060  38.201   8.718
 1024POPC   C2B16016  22.976  38.186   8.271
 1024POPC   C3B16017  23.048  38.040   7.827
 1024POPC   C4B16018  23.032  38.146   7.345
 1025POPC   NC316019  11.262  36.024   9.515
 1025POPC   PO416020  11.504  36.667   9.597
 1025POPC   GL116021  11.348  36.449   9.244
 1025POPC   GL216022  11.546  36.152   9.102
 1025POPC   C1A16023  11.167  36.396   8.859
 1025POPC   D2A16024  11.411  36.297   8.499
 1025POPC   C3A16025  11.262  36.096   8.129
 1025POPC   C4A16026  11.437  36.264   7.768
 1025POPC   C1B16027  11.285  35.896   8.801
 1025POPC   C2B16028  11.393  35.671   8.412
 1025POPC   C3B16029  11.452  35.645   7.959
 1025POPC   C4B16030  11.412  35.780   7.496
 1026POPC   NC316031  35.426  40.601   9.462
 1026POPC   PO416032  34.824  40.987   9.501
 1026POPC   GL116033  35.135  40.900   9.143
 1026POPC   GL216034  35.049  40.560   9.103
 1026POPC   C1A16035  35.383  40.705   8.763
 1026POPC   D2A16036  35.496  40.887   8.356
 1026POPC   C3A16037  35.625  40.614   8.097
 1026POPC   C4A16038  35.595  40.698   7.668
 1026POPC   C1B16039  34.881  40.713   8.696
 1026POPC   C2B16040  34.996  40.930   8.321
 1026POPC   C3B16041  35.184  40.877   7.915
 1026POPC   C4B16042  34.964  40.908   7.513
 1027POPC   NC316043  31.097  43.316   9.520
 1027POPC   PO416044  30.547  42.967   9.548
 1027POPC   GL116045  30.293  43.001   9.150
 1027POPC   GL216046  30.303  42.654   9.074
 1027POPC   C1A16047  30.315  43.280   8.759
 1027POPC   D2A16048  30.441  43.446   8.332
 1027POPC   C3A16049  30.450  43.155   7.954
 1027POPC   C4A16050  30.454  43.182   7.462
 1027POPC   C1B16051  30.515  42.791   8.679
 1027POPC   C2B16052  30.896  42.963   8.470
 1027POPC   C3B16053  31.089  42.953   8.069
 1027POPC   C4B16054  30.905  43.134   7.716
 1028POPC   NC316055  29.076  42.569   9.418
 1028POPC   PO416056  29.356  41.923   9.467
 1028POPC   GL116057  29.221  42.162   9.118
 1028POPC   GL216058  29.444  42.460   9.069
 1028POPC   C1A16059  29.281  42.077   8.690
 1028POPC   D2A16060  29.023  41.994   8.331
 1028POPC   C3A16061  29.256  42.056   7.933
 1028POPC   C4A16062  29.414  42.222   7.538
 1028POPC   C1B16063  29.181  42.573   8.717
 1028POPC   C2B16064  29.278  42.460   8.296
 1028POPC   C3B16065  29.110  42.646   7.941
 1028POPC   C4B16066  28.652  42.690   7.878
 1029POPC   NC316067   5.179   5.475   9.542
 1029POPC   PO416068   4.788   4.869   9.496
 1029POPC   GL116069   4.999   5.017   9.135
 1029POPC   GL216070   5.344   5.048   9.176
 1029POPC   C1A16071   5.102   4.783   8.750
 1029POPC   D2A16072   5.034   4.920   8.341
 1029POPC   C3A16073   5.236   4.840   7.971
 1029POPC   C4A16074   5.053   5.107   7.696
 1029POPC   C1B16075   5.469   5.141   8.777
 1029POPC   C2B16076   5.494   5.138   8.358
 1029POPC   C3B16077   5.277   5.373   8.061
 1029POPC   C4B16078   5.387   5.476   7.655
 1030POPC   NC316079  36.883  40.929   9.504
 1030POPC   PO416080  37.362  40.563   9.572
 1030POPC   GL116081  37.132  40.664   9.165
 1030POPC   GL216082  36.767  40.561   9.139
 1030POPC   C1A16083  36.975  40.886   8.817
 1030POPC   D2A16084  37.099  41.006   8.436
 1030POPC   C3A16085  36.954  40.806   8.092
 1030POPC   C4A16086  36.814  40.802   7.700
 1030POPC   C1B16087  36.696  40.447   8.667
 1030POPC   C2B16088  36.695  40.348   8.182
 1030POPC   C3B16089  36.555  40.345   7.727
 1030POPC   C4B16090  36.551  40.606   7.324
 1031POPC   NC316091  33.362  42.040   9.625
 1031POPC   PO416092  33.702  41.477   9.572
 1031POPC   GL116093  33.829  41.551   9.156
 1031POPC   GL216094  33.952  41.902   9.210
 1031POPC   C1A16095  33.984  41.349   8.791
 1031POPC   D2A16096  34.161  41.163   8.433
 1031POPC   C3A16097  33.867  41.184   8.110
 1031POPC   C4A16098  33.676  41.491   7.812
 1031POPC   C1B16099  33.920  41.886   8.767
 1031POPC   C2B16100  33.898  41.658   8.356
 1031POPC   C3B16101  34.058  41.807   7.959
 1031POPC   C4B16102  34.132  41.639   7.532
 1032POPC   NC316103  14.412  30.924   9.467
 1032POPC   PO416104  14.293  30.294   9.452
 1032POPC   GL116105  14.345  30.548   9.141
 1032POPC   GL216106  14.694  30.606   9.154
 1032POPC   C1A16107  14.326  30.838   8.819
 1032POPC   D2A16108  14.150  30.804   8.439
 1032POPC   C3A16109  14.205  31.148   8.187
 1032POPC   C4A16110  14.308  31.060   7.790
 1032POPC   C1B16111  14.805  30.513   8.766
 1032POPC   C2B16112  14.677  30.718   8.425
 1032POPC   C3B16113  14.483  30.633   8.059
 1032POPC   C4B16114  14.646  30.681   7.671
 1033POPC   NC316115   1.891  21.756   9.397
 1033POPC   PO416116   1.956  21.033   9.446
 1033POPC   GL116117   2.224  21.132   9.115
 1033POPC   GL216118   2.036  21.428   9.047
 1033POPC   C1A16119   2.349  21.303   8.684
 1033POPC   D2A16120   1.972  21.478   8.433
 1033POPC   C3A16121   2.091  21.513   8.003
 1033POPC   C4A16122   2.251  21.146   7.797
 1033POPC   C1B16123   2.183  21.796   8.770
 1033POPC   C2B16124   2.307  21.889   8.324
 1033POPC   C3B16125   2.159  22.003   7.875
 1033POPC   C4B16126   1.826  21.877   7.552
 1034POPC   NC316127  36.519  41.542   9.402
 1034POPC   PO416128  37.184  41.290   9.529
 1034POPC   GL116129  36.941  41.295   9.150
 1034POPC   GL216130  36.928  41.644   9.078
 1034POPC   C1A16131  36.691  41.315   8.764
 1034POPC   D2A16132  36.452  41.661   8.525
 1034POPC   C3A16133  36.568  41.829   8.144
 1034POPC   C4A16134  36.538  41.732   7.727
 1034POPC   C1B16135  36.964  41.720   8.626
 1034POPC   C2B16136  36.834  41.407   8.270
 1034POPC   C3B16137  36.973  41.287   7.853
 1034POPC   C4B16138  37.004  41.616   7.538
 1035POPC   NC316139  27.769  43.914   9.564
 1035POPC   PO416140  27.084  43.822   9.626
 1035POPC   GL116141  27.391  43.843   9.224
 1035POPC   GL216142  27.752  43.744   9.100
 1035POPC   C1A16143  27.390  43.892   8.786
 1035POPC   D2A16144  27.621  43.687   8.453
 1035POPC   C3A16145  27.447  43.890   8.127
 1035POPC   C4A16146  27.213  43.930   7.765
 1035POPC   C1B16147  27.966  43.920   8.738
 1035POPC   C2B16148  27.916  44.095   8.309
 1035POPC   C3B16149  27.889  43.935   7.879
 1035POPC   C4B16150  27.951  44.046   7.442
 1036POPC   NC316151  11.010  18.153   9.510
 1036POPC   PO416152  11.593  18.529   9.487
 1036POPC   GL116153  11.395  18.292   9.168
 1036POPC   GL216154  11.122  18.527   9.131
 1036POPC   C1A16155  11.439  18.352   8.727
 1036POPC   D2A16156  11.318  18.485   8.320
 1036POPC   C3A16157  11.504  18.222   7.994
 1036POPC   C4A16158  11.388  18.126   7.593
 1036POPC   C1B16159  11.016  18.730   8.755
 1036POPC   C2B16160  10.832  18.662   8.354
 1036POPC   C3B16161  10.954  18.594   7.934
 1036POPC   C4B16162  11.340  18.622   7.714
 1037POPC   NC316163  44.395  25.293   9.649
 1037POPC   PO416164   0.039  25.481   9.534
 1037POPC   GL116165  44.853  25.455   9.148
 1037POPC   GL216166  44.565  25.579   9.168
 1037POPC   C1A16167  44.843  25.677   8.747
 1037POPC   D2A16168  44.911  25.390   8.419
 1037POPC   C3A16169  44.718  25.389   8.017
 1037POPC   C4A16170  44.820  25.218   7.603
 1037POPC   C1B16171  44.473  25.302   8.777
 1037POPC   C2B16172  44.528  25.037   8.383
 1037POPC   C3B16173  44.514  24.933   7.920
 1037POPC   C4B16174  44.304  25.173   7.579
 1038POPC   NC316175  25.003   7.584   9.557
 1038POPC   PO416176  24.338   7.372   9.506
 1038POPC   GL116177  24.428   7.231   9.066
 1038POPC   GL216178  24.766   7.327   9.073
 1038POPC   C1A16179  24.500   7.227   8.619
 1038POPC   D2A16180  24.375   7.565   8.316
 1038POPC   C3A16181  24.464   7.438   7.928
 1038POPC   C4A16182  24.842   7.194   7.834
 1038POPC   C1B16183  24.662   7.708   8.779
 1038POPC   C2B16184  24.549   8.024   8.430
 1038POPC   C3B16185  24.476   7.986   7.974
 1038POPC   C4B16186  24.407   7.873   7.528
 1039POPC   NC316187  14.985  17.050   9.424
 1039POPC   PO416188  15.051  17.785   9.508
 1039POPC   GL116189  15.109  17.503   9.247
 1039POPC   GL216190  15.424  17.313   9.382
 1039POPC   C1A16191  14.928  17.431   8.827
 1039POPC   D2A16192  14.820  17.633   8.424
 1039POPC   C3A16193  15.067  17.480   8.061
 1039POPC   C4A16194  15.030  17.153   7.717
 1039POPC   C1B16195  15.463  17.430   8.932
 1039POPC   C2B16196  15.347  17.481   8.522
 1039POPC   C3B16197  15.604  17.639   8.198
 1039POPC   C4B16198  15.568  17.689   7.773
 1040POPC   NC316199  19.487  28.573   9.337
 1040POPC   PO416200  20.097  28.342   9.587
 1040POPC   GL116201  19.877  28.311   9.169
 1040POPC   GL216202  19.830  27.984   9.061
 1040POPC   C1A16203  19.652  28.335   8.717
 1040POPC   D2A16204  19.662  28.579   8.319
 1040POPC   C3A16205  19.543  28.473   7.897
 1040POPC   C4A16206  19.599  28.039   7.829
 1040POPC   C1B16207  20.167  28.204   8.782
 1040POPC   C2B16208  20.187  28.454   8.415
 1040POPC   C3B16209  20.042  28.424   8.007
 1040POPC   C4B16210  20.234  28.378   7.628
 1041POPC   NC316211  19.111  39.372   9.383
 1041POPC   PO416212  18.997  38.688   9.359
 1041POPC   GL116213  19.031  39.036   9.022
 1041POPC   GL216214  18.743  39.285   9.004
 1041POPC   C1A16215  19.342  39.186   8.704
 1041POPC   D2A16216  19.256  38.919   8.358
 1041POPC   C3A16217  19.330  38.853   7.934
 1041POPC   C4A16218  18.950  38.998   7.779
 1041POPC   C1B16219  18.973  39.560   8.721
 1041POPC   C2B16220  19.128  39.460   8.301
 1041POPC   C3B16221  18.922  39.486   7.911
 1041POPC   C4B16222  18.778  39.702   7.549
 1042POPC   NC316223  24.356  20.609   9.622
 1042POPC   PO416224  24.645  20.080   9.396
 1042POPC   GL116225  24.665  20.404   9.110
 1042POPC   GL216226  24.531  20.746   9.179
 1042POPC   C1A16227  24.519  20.459   8.708
 1042POPC   D2A16228  24.575  20.658   8.320
 1042POPC   C3A16229  24.484  20.323   8.030
 1042POPC   C4A16230  24.285  20.267   7.605
 1042POPC   C1B16231  24.599  20.957   8.814
 1042POPC   C2B16232  24.795  21.122   8.462
 1042POPC   C3B16233  24.809  21.030   8.031
 1042POPC   C4B16234  24.596  20.741   7.787
 1043POPC   NC316235  33.420  29.929   9.451
 1043POPC   PO416236  32.796  29.953   9.652
 1043POPC   GL116237  32.934  30.055   9.234
 1043POPC   GL216238  33.062  29.744   9.148
 1043POPC   C1A16239  32.768  29.960   8.801
 1043POPC   D2A16240  32.956  29.806   8.399
 1043POPC   C3A16241  32.708  29.969   8.051
 1043POPC   C4A16242  32.684  30.406   7.882
 1043POPC   C1B16243  32.969  29.478   8.812
 1043POPC   C2B16244  32.785  29.269   8.431
 1043POPC   C3B16245  32.914  29.468   8.020
 1043POPC   C4B16246  32.946  29.734   7.665
 1044POPC   NC316247   0.262  13.931   9.350
 1044POPC   PO416248   0.209  13.343   9.600
 1044POPC   GL116249   0.240  13.460   9.134
 1044POPC   GL216250   0.575  13.628   9.089
 1044POPC   C1A16251   0.260  13.625   8.680
 1044POPC   D2A16252   0.033  13.845   8.330
 1044POPC   C3A16253   0.032  13.619   7.957
 1044POPC   C4A16254   0.434  13.570   7.764
 1044POPC   C1B16255   0.832  13.875   8.769
 1044POPC   C2B16256   0.966  13.724   8.348
 1044POPC   C3B16257   0.839  13.832   7.936
 1044POPC   C4B16258   0.878  13.661   7.521
 1045POPC   NC316259  12.096  17.067   9.501
 1045POPC   PO416260  11.587  16.854   9.840
 1045POPC   GL116261  11.842  16.643   9.368
 1045POPC   GL216262  11.922  16.906   9.077
 1045POPC   C1A16263  12.160  16.529   8.921
 1045POPC   D2A16264  11.949  16.671   8.536
 1045POPC   C3A16265  12.095  16.550   8.136
 1045POPC   C4A16266  12.218  16.394   7.721
 1045POPC   C1B16267  12.383  16.984   8.915
 1045POPC   C2B16268  12.444  17.185   8.533
 1045POPC   C3B16269  12.305  17.047   8.163
 1045POPC   C4B16270  12.275  16.884   7.784
 1046POPC   NC316271  35.501   5.446   9.520
 1046POPC   PO416272  35.274   4.900   9.799
 1046POPC   GL116273  35.356   4.957   9.358
 1046POPC   GL216274  35.693   4.915   9.226
 1046POPC   C1A16275  35.213   4.958   8.945
 1046POPC   D2A16276  35.192   5.195   8.587
 1046POPC   C3A16277  35.057   4.981   8.215
 1046POPC   C4A16278  35.108   4.953   7.783
 1046POPC   C1B16279  35.674   5.125   8.799
 1046POPC   C2B16280  35.600   4.956   8.384
 1046POPC   C3B16281  35.529   5.159   8.004
 1046POPC   C4B16282  35.623   5.113   7.571
 1047POPC   NC316283   4.408  29.681   9.365
 1047POPC   PO416284   4.363  29.072   9.591
 1047POPC   GL116285   4.267  29.189   9.191
 1047POPC   GL216286   4.590  29.076   9.088
 1047POPC   C1A16287   4.226  29.226   8.729
 1047POPC   D2A16288   4.320  29.479   8.350
 1047POPC   C3A16289   4.214  29.247   7.957
 1047POPC   C4A16290   4.045  29.271   7.519
 1047POPC   C1B16291   4.618  28.857   8.711
 1047POPC   C2B16292   4.569  29.039   8.313
 1047POPC   C3B16293   4.687  28.981   7.893
 1047POPC   C4B16294   4.732  28.619   7.699
 1048POPC   NC316295   6.903  17.473   9.545
 1048POPC   PO416296   6.223  17.363   9.721
 1048POPC   GL116297   6.407  17.544   9.340
 1048POPC   GL216298   6.456  17.217   9.207
 1048POPC   C1A16299   6.551  17.593   8.887
 1048POPC   D2A16300   6.678  17.387   8.531
 1048POPC   C3A16301   6.599  17.530   8.156
 1048POPC   C4A16302   6.511  17.658   7.774
 1048POPC   C1B16303   6.862  17.159   8.969
 1048POPC   C2B16304   7.136  17.173   8.614
 1048POPC   C3B16305   7.046  17.222   8.174
 1048POPC   C4B16306   6.806  17.230   7.795
 1049POPC   NC316307   9.341  16.409   9.444
 1049POPC   PO416308   9.771  16.866   9.630
 1049POPC   GL116309   9.752  16.664   9.246
 1049POPC   GL216310   9.600  16.915   9.121
 1049POPC   C1A16311   9.749  16.489   8.795
 1049POPC   D2A16312   9.966  16.538   8.382
 1049POPC   C3A16313   9.783  16.623   7.970
 1049POPC   C4A16314   9.747  16.605   7.500
 1049POPC   C1B16315   9.906  16.962   8.841
 1049POPC   C2B16316   9.921  17.061   8.437
 1049POPC   C3B16317   9.926  17.235   8.072
 1049POPC   C4B16318   9.758  17.065   7.720
 1050POPC   NC316319   3.303  13.136   9.398
 1050POPC   PO416320   3.517  12.417   9.432
 1050POPC   GL116321   3.298  12.689   9.148
 1050POPC   GL216322   3.627  12.825   9.113
 1050POPC   C1A16323   3.261  12.977   8.751
 1050POPC   D2A16324   3.356  12.807   8.329
 1050POPC   C3A16325   3.231  12.988   7.942
 1050POPC   C4A16326   3.284  12.700   7.593
 1050POPC   C1B16327   3.722  12.772   8.688
 1050POPC   C2B16328   3.732  13.167   8.436
 1050POPC   C3B16329   3.663  13.270   8.007
 1050POPC   C4B16330   3.679  13.062   7.618
 1051POPC   NC316331  16.257  16.025   9.550
 1051POPC   PO416332  15.622  15.769   9.410
 1051POPC   GL116333  15.818  16.012   9.091
 1051POPC   GL216334  16.131  16.223   9.103
 1051POPC   C1A16335  16.014  15.981   8.685
 1051POPC   D2A16336  16.111  16.009   8.296
 1051POPC   C3A16337  16.007  15.864   7.915
 1051POPC   C4A16338  15.823  15.815   7.536
 1051POPC   C1B16339  16.313  16.402   8.680
 1051POPC   C2B16340  16.354  16.434   8.223
 1051POPC   C3B16341  16.427  16.128   7.892
 1051POPC   C4B16342  16.280  16.052   7.483
 1052POPC   NC316343   4.532   3.735   9.568
 1052POPC   PO416344   3.863   3.487   9.523
 1052POPC   GL116345   3.996   3.324   9.153
 1052POPC   GL216346   4.341   3.390   9.227
 1052POPC   C1A16347   4.123   3.310   8.751
 1052POPC   D2A16348   4.253   3.114   8.404
 1052POPC   C3A16349   4.261   3.341   8.037
 1052POPC   C4A16350   3.985   3.361   7.714
 1052POPC   C1B16351   4.565   3.513   8.866
 1052POPC   C2B16352   4.474   3.595   8.437
 1052POPC   C3B16353   4.650   3.666   8.040
 1052POPC   C4B16354   4.433   3.661   7.671
 1053POPC   NC316355  34.565  19.300   9.622
 1053POPC   PO416356  34.380  18.635   9.749
 1053POPC   GL116357  34.489  18.809   9.302
 1053POPC   GL216358  34.420  19.084   9.183
 1053POPC   C1A16359  34.709  18.736   8.853
 1053POPC   D2A16360  34.570  18.603   8.438
 1053POPC   C3A16361  34.743  18.597   8.029
 1053POPC   C4A16362  34.548  18.661   7.668
 1053POPC   C1B16363  34.533  19.234   8.819
 1053POPC   C2B16364  34.451  19.116   8.427
 1053POPC   C3B16365  34.404  18.991   8.026
 1053POPC   C4B16366  34.369  19.128   7.603
 1054POPC   NC316367   5.201  29.838   9.526
 1054POPC   PO416368   4.521  30.103   9.530
 1054POPC   GL116369   4.818  29.907   9.198
 1054POPC   GL216370   5.059  30.127   9.119
 1054POPC   C1A16371   4.976  29.698   8.819
 1054POPC   D2A16372   5.192  29.893   8.448
 1054POPC   C3A16373   5.226  29.706   8.025
 1054POPC   C4A16374   4.991  29.774   7.661
 1054POPC   C1B16375   5.395  30.214   8.804
 1054POPC   C2B16376   5.589  30.195   8.408
 1054POPC   C3B16377   5.322  30.204   8.041
 1054POPC   C4B16378   5.458  30.010   7.682
 1055POPC   NC316379  27.388   7.104   9.712
 1055POPC   PO416380  27.731   7.579   9.699
 1055POPC   GL116381  27.602   7.543   9.227
 1055POPC   GL216382  27.506   7.191   9.211
 1055POPC   C1A16383  27.691   7.494   8.800
 1055POPC   D2A16384  27.745   7.295   8.402
 1055POPC   C3A16385  27.660   7.573   8.063
 1055POPC   C4A16386  27.547   7.434   7.639
 1055POPC   C1B16387  27.281   7.211   8.842
 1055POPC   C2B16388  27.231   7.393   8.423
 1055POPC   C3B16389  27.322   7.201   8.036
 1055POPC   C4B16390  27.696   6.990   7.829
 1056POPC   NC316391  21.482  39.566   9.591
 1056POPC   PO416392  21.457  40.206   9.777
 1056POPC   GL116393  21.181  40.236   9.371
 1056POPC   GL216394  21.209  39.903   9.314
 1056POPC   C1A16395  21.175  40.207   8.891
 1056POPC   D2A16396  21.502  40.068   8.552
 1056POPC   C3A16397  21.418  40.089   8.115
 1056POPC   C4A16398  21.735  40.281   7.881
 1056POPC   C1B16399  21.311  39.728   8.878
 1056POPC   C2B16400  21.097  39.719   8.482
 1056POPC   C3B16401  21.230  39.593   8.065
 1056POPC   C4B16402  21.465  39.526   7.701
 1057POPC   NC316403  32.346  28.655   9.524
 1057POPC   PO416404  31.737  28.567   9.597
 1057POPC   GL116405  31.966  28.330   9.240
 1057POPC   GL216406  32.300  28.152   9.227
 1057POPC   C1A16407  31.971  28.116   8.807
 1057POPC   D2A16408  32.225  28.215   8.417
 1057POPC   C3A16409  32.105  28.362   7.990
 1057POPC   C4A16410  32.123  28.255   7.522
 1057POPC   C1B16411  32.376  28.485   8.880
 1057POPC   C2B16412  32.587  28.721   8.525
 1057POPC   C3B16413  32.607  28.578   8.092
 1057POPC   C4B16414  32.398  28.658   7.706
 1058POPC   NC316415  30.609  26.334   9.440
 1058POPC   PO416416  30.424  25.686   9.384
 1058POPC   GL116417  30.665  25.933   9.053
 1058POPC   GL216418  31.031  25.812   8.961
 1058POPC   C1A16419  30.573  26.246   8.756
 1058POPC   D2A16420  30.359  26.220   8.382
 1058POPC   C3A16421  30.652  26.198   8.112
 1058POPC   C4A16422  30.784  26.049   7.763
 1058POPC   C1B16423  31.088  26.091   8.664
 1058POPC   C2B16424  31.123  25.957   8.244
 1058POPC   C3B16425  31.262  25.891   7.852
 1058POPC   C4B16426  31.035  25.689   7.500
 1059POPC   NC316427  24.328  43.302   9.578
 1059POPC   PO416428  24.849  42.918   9.460
 1059POPC   GL116429  24.577  43.133   9.175
 1059POPC   GL216430  24.211  42.983   9.197
 1059POPC   C1A16431  24.730  43.276   8.799
 1059POPC   D2A16432  24.983  43.204   8.438
 1059POPC   C3A16433  24.763  43.146   8.052
 1059POPC   C4A16434  24.739  42.818   7.736
 1059POPC   C1B16435  24.296  42.940   8.787
 1059POPC   C2B16436  24.349  43.121   8.422
 1059POPC   C3B16437  24.233  42.965   8.062
 1059POPC   C4B16438  24.333  43.209   7.758
 1060POPC   NC316439   0.357  26.753   9.652
 1060POPC   PO416440  44.950  27.239   9.412
 1060POPC   GL116441   0.224  26.923   9.170
 1060POPC   GL216442   0.549  26.712   9.188
 1060POPC   C1A16443   0.529  27.032   8.817
 1060POPC   D2A16444   0.568  26.939   8.387
 1060POPC   C3A16445   0.335  27.141   8.075
 1060POPC   C4A16446   0.543  26.953   7.764
 1060POPC   C1B16447   0.516  26.535   8.727
 1060POPC   C2B16448   0.435  26.374   8.316
 1060POPC   C3B16449   0.586  26.493   7.954
 1060POPC   C4B16450   0.408  26.529   7.524
 1061POPC   NC316451   5.718  37.851   9.633
 1061POPC   PO416452   5.945  37.265   9.707
 1061POPC   GL116453   5.840  37.515   9.251
 1061POPC   GL216454   5.614  37.839   9.138
 1061POPC   C1A16455   5.972  37.678   8.815
 1061POPC   D2A16456   6.076  37.831   8.381
 1061POPC   C3A16457   6.050  37.543   8.009
 1061POPC   C4A16458   6.091  37.589   7.543
 1061POPC   C1B16459   5.490  37.814   8.698
 1061POPC   C2B16460   5.602  38.006   8.302
 1061POPC   C3B16461   5.730  37.913   7.872
 1061POPC   C4B16462   5.635  37.871   7.445
 1062POPC   NC316463   6.306  26.181   9.490
 1062POPC   PO416464   6.717  25.754   9.537
 1062POPC   GL116465   6.644  25.952   9.153
 1062POPC   GL216466   6.644  26.308   9.127
 1062POPC   C1A16467   6.559  26.012   8.721
 1062POPC   D2A16468   6.789  26.115   8.380
 1062POPC   C3A16469   6.606  25.795   8.151
 1062POPC   C4A16470   6.846  25.606   7.850
 1062POPC   C1B16471   6.266  26.419   8.848
 1062POPC   C2B16472   6.137  26.425   8.420
 1062POPC   C3B16473   6.413  26.317   8.104
 1062POPC   C4B16474   6.575  26.092   7.752
 1063POPC   NC316475  31.581  33.506   9.923
 1063POPC   PO416476  31.789  34.066   9.553
 1063POPC   GL116477  31.541  33.734   9.280
 1063POPC   GL216478  31.207  33.688   9.109
 1063POPC   C1A16479  31.686  33.550   8.907
 1063POPC   D2A16480  31.849  33.619   8.493
 1063POPC   C3A16481  31.639  33.648   8.126
 1063POPC   C4A16482  31.838  33.606   7.755
 1063POPC   C1B16483  31.338  33.838   8.698
 1063POPC   C2B16484  31.183  33.811   8.306
 1063POPC   C3B16485  31.295  34.002   7.938
 1063POPC   C4B16486  31.559  34.219   7.691
 1064POPC   NC316487  29.668  39.776   9.462
 1064POPC   PO416488  30.104  39.186   9.381
 1064POPC   GL116489  30.021  39.441   9.037
 1064POPC   GL216490  29.661  39.472   9.073
 1064POPC   C1A16491  30.105  39.227   8.635
 1064POPC   D2A16492  29.898  39.032   8.304
 1064POPC   C3A16493  30.193  39.070   8.007
 1064POPC   C4A16494  30.297  38.954   7.624
 1064POPC   C1B16495  29.617  39.311   8.689
 1064POPC   C2B16496  29.729  39.537   8.345
 1064POPC   C3B16497  29.789  39.396   7.947
 1064POPC   C4B16498  29.842  39.149   7.594
 1065POPC   NC316499  31.415  32.072   9.474
 1065POPC   PO416500  32.036  32.001   9.295
 1065POPC   GL116501  31.696  32.350   9.131
 1065POPC   GL216502  31.360  32.318   9.006
 1065POPC   C1A16503  31.727  32.618   8.739
 1065POPC   D2A16504  31.816  32.444   8.338
 1065POPC   C3A16505  31.528  32.251   8.080
 1065POPC   C4A16506  31.575  32.403   7.687
 1065POPC   C1B16507  31.552  32.140   8.654
 1065POPC   C2B16508  31.444  31.832   8.366
 1065POPC   C3B16509  31.210  31.803   7.995
 1065POPC   C4B16510  31.244  31.992   7.595
 1066POPC   NC316511  44.003  34.001   9.802
 1066POPC   PO416512  43.568  33.544   9.578
 1066POPC   GL116513  43.884  33.713   9.241
 1066POPC   GL216514  44.205  33.905   9.110
 1066POPC   C1A16515  43.979  33.572   8.802
 1066POPC   D2A16516  43.924  33.772   8.422
 1066POPC   C3A16517  44.103  33.659   8.027
 1066POPC   C4A16518  43.971  33.750   7.614
 1066POPC   C1B16519  43.961  34.141   8.786
 1066POPC   C2B16520  43.775  34.257   8.406
 1066POPC   C3B16521  43.936  34.160   8.034
 1066POPC   C4B16522  43.858  34.245   7.650
 1067POPC   NC316523  37.671   7.834   9.771
 1067POPC   PO416524  37.300   7.319   9.346
 1067POPC   GL116525  37.522   7.258   9.013
 1067POPC   GL216526  37.833   7.342   9.083
 1067POPC   C1A16527  37.491   7.146   8.666
 1067POPC   D2A16528  37.471   7.438   8.399
 1067POPC   C3A16529  37.278   7.296   8.107
 1067POPC   C4A16530  37.483   7.071   7.812
 1067POPC   C1B16531  37.832   7.587   8.726
 1067POPC   C2B16532  37.912   7.820   8.388
 1067POPC   C3B16533  37.760   7.662   8.042
 1067POPC   C4B16534  37.951   7.301   7.853
 1068POPC   NC316535   0.980  24.262   9.450
 1068POPC   PO416536   0.402  24.683   9.540
 1068POPC   GL116537   0.554  24.440   9.188
 1068POPC   GL216538   0.299  24.623   8.980
 1068POPC   C1A16539   0.773  24.541   8.804
 1068POPC   D2A16540   0.560  24.747   8.473
 1068POPC   C3A16541   0.599  24.547   8.105
 1068POPC   C4A16542   0.851  24.331   7.818
 1068POPC   C1B16543   0.019  24.344   8.748
 1068POPC   C2B16544  45.000  24.076   8.359
 1068POPC   C3B16545  44.992  24.214   7.913
 1068POPC   C4B16546   0.329  24.410   7.683
 1069POPC   NC316547  10.008  35.054   9.420
 1069POPC   PO416548   9.566  34.598   9.541
 1069POPC   GL116549   9.738  34.627   9.107
 1069POPC   GL216550  10.104  34.612   9.106
 1069POPC   C1A16551   9.769  34.454   8.674
 1069POPC   D2A16552   9.570  34.303   8.266
 1069POPC   C3A16553   9.670  34.588   7.914
 1069POPC   C4A16554   9.555  34.811   7.527
 1069POPC   C1B16555  10.061  34.882   8.724
 1069POPC   C2B16556  10.124  34.773   8.262
 1069POPC   C3B16557  10.055  34.907   7.818
 1069POPC   C4B16558   9.991  35.047   7.393
 1070POPC   NC316559   0.323  18.790   9.374
 1070POPC   PO416560   0.755  19.353   9.540
 1070POPC   GL116561   0.456  19.267   9.198
 1070POPC   GL216562   0.578  18.988   8.994
 1070POPC   C1A16563   0.271  19.353   8.808
 1070POPC   D2A16564   0.382  19.325   8.389
 1070POPC   C3A16565   0.267  18.978   8.155
 1070POPC   C4A16566   0.528  19.089   7.846
 1070POPC   C1B16567   0.308  18.831   8.669
 1070POPC   C2B16568   0.471  18.536   8.346
 1070POPC   C3B16569   0.646  18.602   7.921
 1070POPC   C4B16570   0.511  18.706   7.476
 1071POPC   NC316571  37.900  19.611   9.660
 1071POPC   PO416572  38.347  20.077   9.535
 1071POPC   GL116573  38.412  19.852   9.176
 1071POPC   GL216574  38.301  19.565   9.171
 1071POPC   C1A16575  38.381  19.960   8.780
 1071POPC   D2A16576  38.436  19.735   8.438
 1071POPC   C3A16577  38.456  19.952   8.069
 1071POPC   C4A16578  38.534  19.637   7.770
 1071POPC   C1B16579  38.070  19.525   8.795
 1071POPC   C2B16580  37.929  19.655   8.407
 1071POPC   C3B16581  38.123  19.510   8.055
 1071POPC   C4B16582  38.048  19.566   7.650
 1072POPC   NC316583  29.213  33.610   9.638
 1072POPC   PO416584  28.880  34.088   9.487
 1072POPC   GL116585  29.178  33.864   9.172
 1072POPC   GL216586  29.437  33.595   9.152
 1072POPC   C1A16587  29.153  33.725   8.741
 1072POPC   D2A16588  29.312  33.861   8.335
 1072POPC   C3A16589  28.986  33.846   8.034
 1072POPC   C4A16590  28.938  33.612   7.686
 1072POPC   C1B16591  29.655  33.690   8.719
 1072POPC   C2B16592  29.629  33.468   8.285
 1072POPC   C3B16593  29.351  33.343   7.903
 1072POPC   C4B16594  29.129  33.189   7.477
 1073POPC   NC316595  21.620  17.637   9.508
 1073POPC   PO416596  21.003  17.628   9.282
 1073POPC   GL116597  21.328  17.440   9.042
 1073POPC   GL216598  21.667  17.583   9.014
 1073POPC   C1A16599  21.426  17.353   8.611
 1073POPC   D2A16600  21.370  17.128   8.252
 1073POPC   C3A16601  21.347  17.395   7.912
 1073POPC   C4A16602  21.718  17.321   7.707
 1073POPC   C1B16603  21.409  17.851   8.731
 1073POPC   C2B16604  21.431  17.799   8.265
 1073POPC   C3B16605  21.420  17.907   7.846
 1073POPC   C4B16606  21.232  17.741   7.474
 1074POPC   NC316607  19.347  17.709   9.524
 1074POPC   PO416608  18.737  17.492   9.693
 1074POPC   GL116609  19.007  17.478   9.248
 1074POPC   GL216610  19.088  17.785   9.090
 1074POPC   C1A16611  19.099  17.299   8.836
 1074POPC   D2A16612  18.756  17.179   8.518
 1074POPC   C3A16613  18.770  17.479   8.195
 1074POPC   C4A16614  19.116  17.550   7.924
 1074POPC   C1B16615  19.275  17.765   8.699
 1074POPC   C2B16616  19.141  17.892   8.313
 1074POPC   C3B16617  19.217  18.073   7.936
 1074POPC   C4B16618  19.046  17.962   7.574
 1075POPC   NC316619   7.509  12.215   9.456
 1075POPC   PO416620   7.090  11.670   9.478
 1075POPC   GL116621   7.241  11.880   9.127
 1075POPC   GL216622   7.599  11.866   9.101
 1075POPC   C1A16623   7.251  12.135   8.743
 1075POPC   D2A16624   7.188  12.253   8.310
 1075POPC   C3A16625   7.321  11.994   7.967
 1075POPC   C4A16626   7.532  12.320   7.828
 1075POPC   C1B16627   7.809  12.044   8.769
 1075POPC   C2B16628   7.662  12.067   8.366
 1075POPC   C3B16629   7.886  12.001   8.001
 1075POPC   C4B16630   8.022  12.383   7.742
 1076POPC   NC316631   8.986  20.369   9.861
 1076POPC   PO416632   9.181  20.776   9.266
 1076POPC   GL116633   8.917  20.575   9.028
 1076POPC   GL216634   8.764  20.273   9.152
 1076POPC   C1A16635   8.876  20.529   8.613
 1076POPC   D2A16636   8.589  20.591   8.284
 1076POPC   C3A16637   8.885  20.774   8.012
 1076POPC   C4A16638   8.920  20.967   7.616
 1076POPC   C1B16639   8.619  20.122   8.767
 1076POPC   C2B16640   8.797  20.081   8.346
 1076POPC   C3B16641   8.800  20.248   7.913
 1076POPC   C4B16642   8.895  20.313   7.449
 1077POPC   NC316643  25.565  29.993   9.583
 1077POPC   PO416644  25.146  29.549   9.443
 1077POPC   GL116645  25.403  29.764   9.133
 1077POPC   GL216646  25.397  30.141   9.130
 1077POPC   C1A16647  25.156  29.833   8.775
 1077POPC   D2A16648  24.975  30.000   8.443
 1077POPC   C3A16649  25.112  29.818   8.058
 1077POPC   C4A16650  25.175  30.003   7.606
 1077POPC   C1B16651  25.589  30.075   8.736
 1077POPC   C2B16652  25.478  30.029   8.337
 1077POPC   C3B16653  25.589  30.058   7.934
 1077POPC   C4B16654  25.520  29.647   7.791
 1078POPC   NC316655  39.528  36.236   9.503
 1078POPC   PO416656  38.939  35.870   9.498
 1078POPC   GL116657  38.895  36.087   9.128
 1078POPC   GL216658  38.741  35.798   9.000
 1078POPC   C1A16659  39.210  36.258   8.822
 1078POPC   D2A16660  39.602  36.189   8.568
 1078POPC   C3A16661  39.580  36.265   8.106
 1078POPC   C4A16662  39.300  36.266   7.768
 1078POPC   C1B16663  38.788  36.024   8.602
 1078POPC   C2B16664  39.162  36.024   8.343
 1078POPC   C3B16665  39.197  35.808   7.966
 1078POPC   C4B16666  38.774  35.845   7.803
 1079POPC   NC316667  41.128  28.703   9.429
 1079POPC   PO416668  41.797  28.831   9.578
 1079POPC   GL116669  41.522  29.005   9.246
 1079POPC   GL216670  41.390  29.379   9.231
 1079POPC   C1A16671  41.668  29.127   8.851
 1079POPC   D2A16672  41.548  28.968   8.472
 1079POPC   C3A16673  41.717  29.148   8.140
 1079POPC   C4A16674  41.628  29.109   7.708
 1079POPC   C1B16675  41.176  29.309   8.825
 1079POPC   C2B16676  41.227  29.380   8.384
 1079POPC   C3B16677  41.202  29.059   8.065
 1079POPC   C4B16678  41.125  29.178   7.650
 1080POPC   NC316679   5.775  26.442   9.417
 1080POPC   PO416680   6.025  25.804   9.514
 1080POPC   GL116681   5.831  25.979   9.185
 1080POPC   GL216682   6.133  25.945   9.008
 1080POPC   C1A16683   5.678  26.140   8.799
 1080POPC   D2A16684   5.802  26.001   8.384
 1080POPC   C3A16685   5.707  26.238   7.989
 1080POPC   C4A16686   6.031  26.486   7.811
 1080POPC   C1B16687   6.166  25.629   8.675
 1080POPC   C2B16688   6.106  25.591   8.244
 1080POPC   C3B16689   6.118  25.930   7.971
 1080POPC   C4B16690   5.988  26.041   7.589
 1081POPC   NC316691  40.320   2.000   9.446
 1081POPC   PO416692  39.645   2.315   9.509
 1081POPC   GL116693  39.930   2.255   9.175
 1081POPC   GL216694  39.901   1.893   9.150
 1081POPC   C1A16695  40.201   2.145   8.804
 1081POPC   D2A16696  40.147   1.820   8.523
 1081POPC   C3A16697  40.133   1.979   8.126
 1081POPC   C4A16698  40.250   1.939   7.711
 1081POPC   C1B16699  39.674   1.768   8.758
 1081POPC   C2B16700  39.631   1.679   8.288
 1081POPC   C3B16701  39.784   1.725   7.850
 1081POPC   C4B16702  39.639   1.877   7.446
 1082POPC   NC316703   2.043   4.137   9.308
 1082POPC   PO416704   1.629   4.605   9.505
 1082POPC   GL116705   1.776   4.732   9.101
 1082POPC   GL216706   2.101   4.583   9.099
 1082POPC   C1A16707   1.855   4.664   8.677
 1082POPC   D2A16708   1.720   4.529   8.279
 1082POPC   C3A16709   2.026   4.296   8.069
 1082POPC   C4A16710   2.145   4.331   7.643
 1082POPC   C1B16711   2.267   4.320   8.725
 1082POPC   C2B16712   2.526   4.239   8.371
 1082POPC   C3B16713   2.463   4.071   7.962
 1082POPC   C4B16714   2.174   3.823   7.755
 1083POPC   NC316715  42.142  27.069   9.514
 1083POPC   PO416716  42.533  26.512   9.491
 1083POPC   GL116717  42.398  26.787   9.173
 1083POPC   GL216718  42.027  26.728   9.146
 1083POPC   C1A16719  42.377  27.063   8.833
 1083POPC   D2A16720  42.420  27.191   8.401
 1083POPC   C3A16721  42.606  26.802   8.187
 1083POPC   C4A16722  42.687  26.660   7.742
 1083POPC   C1B16723  41.911  26.875   8.740
 1083POPC   C2B16724  42.066  26.844   8.314
 1083POPC   C3B16725  42.188  26.772   7.883
 1083POPC   C4B16726  42.062  26.509   7.547
 1084POPC   NC316727   4.290  13.208   9.543
 1084POPC   PO416728   4.099  13.924   9.526
 1084POPC   GL116729   4.375  13.667   9.296
 1084POPC   GL216730   4.111  13.482   9.158
 1084POPC   C1A16731   4.530  13.661   8.874
 1084POPC   D2A16732   4.463  13.884   8.514
 1084POPC   C3A16733   4.570  13.706   8.125
 1084POPC   C4A16734   4.384  13.688   7.745
 1084POPC   C1B16735   4.050  13.549   8.738
 1084POPC   C2B16736   4.333  13.391   8.447
 1084POPC   C3B16737   4.169  13.316   8.090
 1084POPC   C4B16738   4.161  13.203   7.696
 1085POPC   NC316739  29.611  14.912   9.250
 1085POPC   PO416740  29.837  15.442   9.554
 1085POPC   GL116741  29.850  15.307   9.082
 1085POPC   GL216742  29.544  15.204   8.843
 1085POPC   C1A16743  30.008  15.076   8.707
 1085POPC   D2A16744  29.832  15.055   8.287
 1085POPC   C3A16745  30.107  15.120   7.909
 1085POPC   C4A16746  30.184  15.440   7.596
 1085POPC   C1B16747  29.615  14.747   8.639
 1085POPC   C2B16748  29.642  14.546   8.257
 1085POPC   C3B16749  29.698  14.785   7.884
 1085POPC   C4B16750  30.017  14.732   7.557
 1086POPC   NC316751  38.160  30.078   9.523
 1086POPC   PO416752  38.793  29.855   9.468
 1086POPC   GL116753  38.537  29.860   9.128
 1086POPC   GL216754  38.470  30.181   9.124
 1086POPC   C1A16755  38.632  29.712   8.704
 1086POPC   D2A16756  38.878  29.602   8.358
 1086POPC   C3A16757  38.640  29.561   7.985
 1086POPC   C4A16758  38.381  29.845   7.793
 1086POPC   C1B16759  38.543  30.238   8.692
 1086POPC   C2B16760  38.563  30.032   8.299
 1086POPC   C3B16761  38.445  30.289   7.990
 1086POPC   C4B16762  38.180  30.315   7.679
 1087POPC   NC316763  31.693  27.905   9.411
 1087POPC   PO416764  31.471  27.305   9.491
 1087POPC   GL116765  31.539  27.498   9.081
 1087POPC   GL216766  31.300  27.753   9.103
 1087POPC   C1A16767  31.452  27.449   8.613
 1087POPC   D2A16768  31.758  27.231   8.349
 1087POPC   C3A16769  31.881  27.360   7.938
 1087POPC   C4A16770  31.687  27.374   7.508
 1087POPC   C1B16771  31.474  27.939   8.740
 1087POPC   C2B16772  31.338  27.915   8.308
 1087POPC   C3B16773  31.467  27.684   7.936
 1087POPC   C4B16774  31.400  27.793   7.500
 1088POPC   NC316775  15.896   7.747   9.207
 1088POPC   PO416776  16.188   8.153   9.724
 1088POPC   GL116777  16.065   8.262   9.214
 1088POPC   GL216778  15.752   8.446   9.107
 1088POPC   C1A16779  16.185   8.251   8.756
 1088POPC   D2A16780  16.060   7.954   8.417
 1088POPC   C3A16781  15.949   8.036   7.985
 1088POPC   C4A16782  15.963   8.384   7.719
 1088POPC   C1B16783  15.681   8.195   8.736
 1088POPC   C2B16784  15.563   8.116   8.326
 1088POPC   C3B16785  15.516   8.357   7.973
 1088POPC   C4B16786  15.490   8.122   7.585
 1089POPC   NC316787  24.391  21.737   9.698
 1089POPC   PO416788  24.402  21.078   9.573
 1089POPC   GL116789  24.477  21.407   9.308
 1089POPC   GL216790  24.159  21.586   9.252
 1089POPC   C1A16791  24.596  21.452   8.894
 1089POPC   D2A16792  24.360  21.369   8.539
 1089POPC   C3A16793  24.479  21.424   8.143
 1089POPC   C4A16794  24.455  21.259   7.721
 1089POPC   C1B16795  24.044  21.648   8.806
 1089POPC   C2B16796  24.103  21.782   8.354
 1089POPC   C3B16797  24.109  21.674   7.894
 1089POPC   C4B16798  24.381  21.720   7.492
 1090POPC   NC316799  39.390  11.438   9.547
 1090POPC   PO416800  38.878  11.008   9.449
 1090POPC   GL116801  39.101  11.031   9.110
 1090POPC   GL216802  39.106  11.385   9.114
 1090POPC   C1A16803  39.000  11.105   8.698
 1090POPC   D2A16804  39.051  11.457   8.438
 1090POPC   C3A16805  39.241  11.365   8.069
 1090POPC   C4A16806  39.077  11.236   7.688
 1090POPC   C1B16807  39.449  11.437   8.823
 1090POPC   C2B16808  39.541  11.645   8.439
 1090POPC   C3B16809  39.594  11.831   8.056
 1090POPC   C4B16810  39.416  11.681   7.676
 1091POPC   NC316811   0.259  18.105   9.481
 1091POPC   PO416812   0.895  17.789   9.515
 1091POPC   GL116813   0.611  17.901   9.113
 1091POPC   GL216814   0.247  18.054   8.992
 1091POPC   C1A16815   0.606  18.124   8.671
 1091POPC   D2A16816   0.258  18.068   8.381
 1091POPC   C3A16817   0.478  18.091   8.030
 1091POPC   C4A16818   0.561  18.211   7.619
 1091POPC   C1B16819   0.050  18.382   8.737
 1091POPC   C2B16820  44.961  18.612   8.343
 1091POPC   C3B16821   0.148  18.472   7.942
 1091POPC   C4B16822   0.058  18.063   7.740
 1092POPC   NC316823   9.672  43.651   9.630
 1092POPC   PO416824   9.723  44.321   9.519
 1092POPC   GL116825   9.540  43.971   9.256
 1092POPC   GL216826   9.787  43.694   9.150
 1092POPC   C1A16827   9.508  43.939   8.795
 1092POPC   D2A16828   9.702  44.090   8.430
 1092POPC   C3A16829   9.557  43.925   8.019
 1092POPC   C4A16830   9.683  44.087   7.610
 1092POPC   C1B16831   9.993  43.751   8.788
 1092POPC   C2B16832  10.187  43.661   8.408
 1092POPC   C3B16833  10.014  43.675   8.034
 1092POPC   C4B16834   9.958  43.593   7.655
 1093POPC   NC316835  27.221  40.864   9.346
 1093POPC   PO416836  27.867  41.011   9.445
 1093POPC   GL116837  27.690  40.913   9.049
 1093POPC   GL216838  27.833  41.200   8.917
 1093POPC   C1A16839  27.377  40.733   8.732
 1093POPC   D2A16840  27.143  40.470   8.421
 1093POPC   C3A16841  27.310  40.382   7.998
 1093POPC   C4A16842  27.313  40.508   7.539
 1093POPC   C1B16843  27.698  41.099   8.528
 1093POPC   C2B16844  27.607  40.753   8.267
 1093POPC   C3B16845  27.655  40.751   7.855
 1093POPC   C4B16846  27.786  40.755   7.452
 1094POPC   NC316847  16.559   2.934   9.576
 1094POPC   PO416848  17.133   2.812   9.297
 1094POPC   GL116849  16.696   2.843   9.078
 1094POPC   GL216850  16.560   3.203   9.110
 1094POPC   C1A16851  16.501   2.632   8.673
 1094POPC   D2A16852  16.630   2.381   8.285
 1094POPC   C3A16853  16.500   2.435   7.843
 1094POPC   C4A16854  16.744   2.484   7.456
 1094POPC   C1B16855  16.647   3.106   8.652
 1094POPC   C2B16856  16.594   2.930   8.207
 1094POPC   C3B16857  16.699   2.964   7.746
 1094POPC   C4B16858  17.107   2.846   7.512
 1095POPC   NC316859  31.315   6.867   9.640
 1095POPC   PO416860  31.551   6.219   9.559
 1095POPC   GL116861  31.568   6.436   9.176
 1095POPC   GL216862  31.333   6.708   9.146
 1095POPC   C1A16863  31.421   6.415   8.745
 1095POPC   D2A16864  31.338   6.656   8.425
 1095POPC   C3A16865  31.473   6.523   8.070
 1095POPC   C4A16866  31.371   6.634   7.693
 1095POPC   C1B16867  31.125   6.936   8.784
 1095POPC   C2B16868  31.100   7.116   8.405
 1095POPC   C3B16869  31.152   6.955   8.042
 1095POPC   C4B16870  31.115   7.149   7.688
 1096POPC   NC316871  19.971  37.964   9.449
 1096POPC   PO416872  19.638  37.440   9.553
 1096POPC   GL116873  19.931  37.488   9.240
 1096POPC   GL216874  19.649  37.716   9.101
 1096POPC   C1A16875  20.056  37.632   8.833
 1096POPC   D2A16876  20.080  37.884   8.459
 1096POPC   C3A16877  19.993  37.678   8.062
 1096POPC   C4A16878  19.735  37.328   7.878
 1096POPC   C1B16879  19.548  37.584   8.666
 1096POPC   C2B16880  19.472  37.638   8.195
 1096POPC   C3B16881  19.614  37.847   7.781
 1096POPC   C4B16882  19.749  37.935   7.299
 1097POPC   NC316883  36.298  31.141   9.278
 1097POPC   PO416884  36.472  31.630   9.663
 1097POPC   GL116885  36.083  31.581   9.164
 1097POPC   GL216886  35.728  31.681   9.194
 1097POPC   C1A16887  36.112  31.478   8.688
 1097POPC   D2A16888  36.122  31.154   8.316
 1097POPC   C3A16889  36.107  31.300   7.843
 1097POPC   C4A16890  35.932  31.252   7.375
 1097POPC   C1B16891  35.676  31.998   8.908
 1097POPC   C2B16892  35.760  31.814   8.533
 1097POPC   C3B16893  35.819  31.575   8.185
 1097POPC   C4B16894  35.915  31.771   7.792
 1098POPC   NC316895  40.938   9.390   9.217
 1098POPC   PO416896  40.762   9.813   9.692
 1098POPC   GL116897  40.732   9.885   9.179
 1098POPC   GL216898  41.076   9.782   8.963
 1098POPC   C1A16899  40.768  10.087   8.738
 1098POPC   D2A16900  40.893  10.006   8.343
 1098POPC   C3A16901  40.770   9.700   8.094
 1098POPC   C4A16902  40.482   9.723   7.792
 1098POPC   C1B16903  40.847   9.557   8.606
 1098POPC   C2B16904  41.003   9.284   8.281
 1098POPC   C3B16905  41.166   9.425   7.916
 1098POPC   C4B16906  40.892   9.491   7.600
 1099POPC   NC316907  44.892   6.145   9.470
 1099POPC   PO416908  44.186   6.187   9.521
 1099POPC   GL116909  44.467   6.103   9.193
 1099POPC   GL216910  44.351   5.800   9.028
 1099POPC   C1A16911  44.688   6.154   8.822
 1099POPC   D2A16912  44.868   6.211   8.408
 1099POPC   C3A16913  44.492   6.176   8.156
 1099POPC   C4A16914  44.553   6.118   7.742
 1099POPC   C1B16915  44.609   5.606   8.744
 1099POPC   C2B16916  44.681   5.744   8.374
 1099POPC   C3B16917  44.526   5.659   8.015
 1099POPC   C4B16918  44.622   5.636   7.577
 1100POPC   NC316919  11.601  41.706   9.537
 1100POPC   PO416920  12.165  41.434   9.753
 1100POPC   GL116921  12.103  41.603   9.311
 1100POPC   GL216922  12.219  41.381   9.089
 1100POPC   C1A16923  12.092  41.805   8.843
 1100POPC   D2A16924  12.173  41.800   8.368
 1100POPC   C3A16925  11.905  41.507   8.105
 1100POPC   C4A16926  11.714  41.426   7.678
 1100POPC   C1B16927  12.514  41.249   8.772
 1100POPC   C2B16928  12.486  41.119   8.374
 1100POPC   C3B16929  12.430  41.399   8.056
 1100POPC   C4B16930  12.205  41.342   7.711
 1101POPC   NC316931   9.668  15.731   9.359
 1101POPC   PO416932   9.997  16.326   9.571
 1101POPC   GL116933   9.841  16.169   9.186
 1101POPC   GL216934   9.496  16.112   9.064
 1101POPC   C1A16935   9.916  16.002   8.785
 1101POPC   D2A16936   9.675  16.092   8.415
 1101POPC   C3A16937   9.944  16.132   8.063
 1101POPC   C4A16938  10.134  15.903   7.749
 1101POPC   C1B16939   9.461  15.747   8.772
 1101POPC   C2B16940   9.533  15.576   8.362
 1101POPC   C3B16941   9.577  15.796   7.978
 1101POPC   C4B16942   9.498  16.221   7.806
 1102POPC   NC316943  34.236  26.783   9.591
 1102POPC   PO416944  34.904  26.884   9.617
 1102POPC   GL116945  34.697  26.694   9.243
 1102POPC   GL216946  34.332  26.795   9.107
 1102POPC   C1A16947  34.695  26.526   8.815
 1102POPC   D2A16948  34.686  26.688   8.395
 1102POPC   C3A16949  34.619  26.894   8.030
 1102POPC   C4A16950  34.536  26.729   7.599
 1102POPC   C1B16951  34.275  26.812   8.679
 1102POPC   C2B16952  34.160  26.928   8.298
 1102POPC   C3B16953  34.141  26.915   7.871
 1102POPC   C4B16954  34.114  26.971   7.431
 1103POPC   NC316955  31.339  37.984   9.477
 1103POPC   PO416956  31.478  37.336   9.663
 1103POPC   GL116957  31.467  37.476   9.235
 1103POPC   GL216958  31.820  37.485   9.230
 1103POPC   C1A16959  31.322  37.580   8.793
 1103POPC   D2A16960  31.312  37.775   8.371
 1103POPC   C3A16961  31.609  37.797   8.024
 1103POPC   C4A16962  31.249  37.778   7.778
 1103POPC   C1B16963  31.783  37.358   8.816
 1103POPC   C2B16964  31.610  37.343   8.412
 1103POPC   C3B16965  31.393  37.342   8.038
 1103POPC   C4B16966  31.543  37.379   7.623
 1104POPC   NC316967  34.358   2.102   9.505
 1104POPC   PO416968  35.028   2.092   9.481
 1104POPC   GL116969  34.728   1.996   9.171
 1104POPC   GL216970  34.456   1.732   9.131
 1104POPC   C1A16971  34.507   2.184   8.832
 1104POPC   D2A16972  34.425   1.961   8.463
 1104POPC   C3A16973  34.615   2.048   8.048
 1104POPC   C4A16974  34.966   1.807   7.873
 1104POPC   C1B16975  34.105   1.706   8.821
 1104POPC   C2B16976  33.916   1.854   8.435
 1104POPC   C3B16977  34.098   2.182   8.149
 1104POPC   C4B16978  34.068   2.073   7.718
 1105POPC   NC316979   7.074  33.478   9.459
 1105POPC   PO416980   6.332  33.663   9.505
 1105POPC   GL116981   6.577  33.762   9.121
 1105POPC   GL216982   6.904  33.699   9.049
 1105POPC   C1A16983   6.676  33.953   8.693
 1105POPC   D2A16984   6.790  33.774   8.307
 1105POPC   C3A16985   6.720  34.039   7.942
 1105POPC   C4A16986   6.537  33.945   7.534
 1105POPC   C1B16987   7.068  33.425   8.793
 1105POPC   C2B16988   7.077  33.305   8.377
 1105POPC   C3B16989   7.010  33.428   7.977
 1105POPC   C4B16990   7.016  33.742   7.651
 1106POPC   NC316991  25.670  38.336   9.452
 1106POPC   PO416992  26.260  38.383   9.796
 1106POPC   GL116993  26.158  38.285   9.321
 1106POPC   GL216994  26.242  38.548   9.175
 1106POPC   C1A16995  25.887  38.386   8.872
 1106POPC   D2A16996  25.897  38.211   8.480
 1106POPC   C3A16997  25.827  38.376   8.074
 1106POPC   C4A16998  26.056  38.243   7.711
 1106POPC   C1B16999  26.371  38.487   8.764
 1106POPC   C2B17000  26.173  38.636   8.391
 1106POPC   C3B17001  26.327  38.586   7.995
 1106POPC   C4B17002  26.248  38.727   7.565
 1107POPC   NC317003   7.982  43.332   9.625
 1107POPC   PO417004   8.283  43.959   9.809
 1107POPC   GL117005   8.181  43.987   9.372
 1107POPC   GL217006   7.966  43.710   9.287
 1107POPC   C1A17007   8.081  44.228   9.006
 1107POPC   D2A17008   8.030  44.121   8.519
 1107POPC   C3A17009   8.081  44.273   8.067
 1107POPC   C4A17010   8.168  44.134   7.631
 1107POPC   C1B17011   8.139  43.737   8.884
 1107POPC   C2B17012   8.270  43.495   8.548
 1107POPC   C3B17013   8.176  43.696   8.166
 1107POPC   C4B17014   8.322  43.672   7.744
 1108POPC   NC317015  16.910  15.299   9.824
 1108POPC   PO417016  16.436  15.199   9.305
 1108POPC   GL117017  16.723  15.116   8.981
 1108POPC   GL217018  16.966  15.387   8.922
 1108POPC   C1A17019  16.787  15.116   8.523
 1108POPC   D2A17020  16.454  15.186   8.238
 1108POPC   C3A17021  16.510  14.892   7.955
 1108POPC   C4A17022  16.916  14.817   7.781
 1108POPC   C1B17023  16.626  15.559   8.666
 1108POPC   C2B17024  16.899  15.584   8.317
 1108POPC   C3B17025  16.897  15.283   8.008
 1108POPC   C4B17026  16.706  15.271   7.582
 1109POPC   NC317027  14.770  16.372   9.587
 1109POPC   PO417028  14.091  16.516   9.498
 1109POPC   GL117029  14.264  16.720   9.123
 1109POPC   GL217030  14.635  16.690   9.078
 1109POPC   C1A17031  14.347  16.994   8.767
 1109POPC   D2A17032  14.612  17.164   8.443
 1109POPC   C3A17033  14.568  16.992   8.032
 1109POPC   C4A17034  14.219  16.872   7.789
 1109POPC   C1B17035  14.374  16.499   8.701
 1109POPC   C2B17036  14.246  16.674   8.309
 1109POPC   C3B17037  14.335  16.416   7.946
 1109POPC   C4B17038  14.730  16.339   7.701
 1110POPC   NC317039  11.087  13.877   9.589
 1110POPC   PO417040  11.684  13.510   9.385
 1110POPC   GL117041  11.325  13.686   9.174
 1110POPC   GL217042  11.447  13.998   9.234
 1110POPC   C1A17043  11.105  13.538   8.798
 1110POPC   D2A17044  11.129  13.226   8.469
 1110POPC   C3A17045  11.275  13.452   8.142
 1110POPC   C4A17046  11.225  13.418   7.713
 1110POPC   C1B17047  11.394  13.978   8.774
 1110POPC   C2B17048  11.289  13.978   8.334
 1110POPC   C3B17049  11.113  13.901   7.935
 1110POPC   C4B17050  11.186  13.953   7.535
 1111POPC   NC317051  16.585  21.688   9.367
 1111POPC   PO417052  16.433  22.263   9.753
 1111POPC   GL117053  16.682  22.216   9.334
 1111POPC   GL217054  16.470  22.225   9.061
 1111POPC   C1A17055  16.938  22.263   8.885
 1111POPC   D2A17056  16.725  22.428   8.501
 1111POPC   C3A17057  16.671  22.152   8.138
 1111POPC   C4A17058  16.559  22.331   7.704
 1111POPC   C1B17059  16.565  21.976   8.681
 1111POPC   C2B17060  16.940  21.824   8.465
 1111POPC   C3B17061  16.959  21.656   8.045
 1111POPC   C4B17062  16.835  21.887   7.714
 1112POPC   NC317063  12.649  28.149   9.483
 1112POPC   PO417064  12.912  28.749   9.614
 1112POPC   GL117065  12.960  28.468   9.209
 1112POPC   GL217066  13.047  28.117   9.179
 1112POPC   C1A17067  12.747  28.350   8.797
 1112POPC   D2A17068  12.523  28.373   8.409
 1112POPC   C3A17069  12.693  28.263   8.026
 1112POPC   C4A17070  12.554  28.218   7.590
 1112POPC   C1B17071  13.006  27.911   8.772
 1112POPC   C2B17072  13.093  27.741   8.358
 1112POPC   C3B17073  12.960  27.844   7.928
 1112POPC   C4B17074  13.056  28.154   7.621
 1113POPC   NC317075  43.604  30.898   9.437
 1113POPC   PO417076  44.195  30.975   9.470
 1113POPC   GL117077  44.062  30.679   9.122
 1113POPC   GL217078  43.714  30.519   9.121
 1113POPC   C1A17079  43.929  30.637   8.673
 1113POPC   D2A17080  43.800  30.811   8.286
 1113POPC   C3A17081  43.931  30.554   7.941
 1113POPC   C4A17082  44.058  30.695   7.536
 1113POPC   C1B17083  43.429  30.513   8.764
 1113POPC   C2B17084  43.502  30.412   8.349
 1113POPC   C3B17085  43.435  30.645   7.954
 1113POPC   C4B17086  43.573  30.562   7.527
 1114POPC   NC317087  15.871  12.263   9.419
 1114POPC   PO417088  15.770  12.879   9.693
 1114POPC   GL117089  15.719  12.829   9.249
 1114POPC   GL217090  16.010  12.742   9.054
 1114POPC   C1A17091  15.650  13.050   8.836
 1114POPC   D2A17092  15.891  12.978   8.467
 1114POPC   C3A17093  15.717  13.088   8.088
 1114POPC   C4A17094  15.873  13.078   7.695
 1114POPC   C1B17095  15.732  12.527   8.734
 1114POPC   C2B17096  15.844  12.454   8.292
 1114POPC   C3B17097  16.086  12.743   8.043
 1114POPC   C4B17098  16.308  12.799   7.665
 1115POPC   NC317099  22.659   4.363   9.487
 1115POPC   PO417100  23.268   4.523   9.533
 1115POPC   GL117101  23.029   4.477   9.164
 1115POPC   GL217102  22.904   4.128   9.100
 1115POPC   C1A17103  22.980   4.612   8.786
 1115POPC   D2A17104  23.075   4.287   8.498
 1115POPC   C3A17105  23.043   4.369   8.077
 1115POPC   C4A17106  23.314   4.413   7.732
 1115POPC   C1B17107  22.600   4.280   8.786
 1115POPC   C2B17108  22.534   4.148   8.365
 1115POPC   C3B17109  22.558   4.188   7.931
 1115POPC   C4B17110  22.819   4.365   7.623
 1116POPC   NC317111  34.048  24.362   9.341
 1116POPC   PO417112  33.388  24.533   9.452
 1116POPC   GL117113  33.530  24.619   9.103
 1116POPC   GL217114  33.610  24.272   9.075
 1116POPC   C1A17115  33.384  24.561   8.688
 1116POPC   D2A17116  33.464  24.286   8.371
 1116POPC   C3A17117  33.767  24.457   8.129
 1116POPC   C4A17118  33.831  24.376   7.727
 1116POPC   C1B17119  33.836  24.329   8.710
 1116POPC   C2B17120  34.113  24.155   8.412
 1116POPC   C3B17121  34.247  24.223   7.996
 1116POPC   C4B17122  34.276  24.249   7.544
 1117POPC   NC317123  22.740   6.051   9.421
 1117POPC   PO417124  23.435   6.145   9.460
 1117POPC   GL117125  23.242   6.012   9.028
 1117POPC   GL217126  22.940   5.875   8.998
 1117POPC   C1A17127  23.207   5.820   8.580
 1117POPC   D2A17128  22.851   5.853   8.278
 1117POPC   C3A17129  23.014   5.983   7.866
 1117POPC   C4A17130  23.467   6.077   7.765
 1117POPC   C1B17131  22.781   5.524   8.757
 1117POPC   C2B17132  22.690   5.376   8.401
 1117POPC   C3B17133  23.039   5.325   8.216
 1117POPC   C4B17134  23.053   5.475   7.892
 1118POPC   NC317135  29.998  19.385   9.549
 1118POPC   PO417136  29.777  18.744   9.623
 1118POPC   GL117137  29.908  18.972   9.219
 1118POPC   GL217138  29.630  19.014   9.007
 1118POPC   C1A17139  30.048  19.197   8.812
 1118POPC   D2A17140  29.947  19.374   8.396
 1118POPC   C3A17141  30.040  19.163   7.988
 1118POPC   C4A17142  29.954  18.874   7.643
 1118POPC   C1B17143  29.555  19.377   8.736
 1118POPC   C2B17144  29.398  19.463   8.368
 1118POPC   C3B17145  29.613  19.428   7.979
 1118POPC   C4B17146  29.619  19.268   7.528
 1119POPC   NC317147   7.012  11.453   9.872
 1119POPC   PO417148   6.434  11.373   9.518
 1119POPC   GL117149   6.487  11.385   9.076
 1119POPC   GL217150   6.829  11.284   9.201
 1119POPC   C1A17151   6.497  11.445   8.627
 1119POPC   D2A17152   6.485  11.678   8.278
 1119POPC   C3A17153   6.382  11.406   7.933
 1119POPC   C4A17154   6.565  11.132   7.593
 1119POPC   C1B17155   6.957  11.475   8.841
 1119POPC   C2B17156   6.966  11.278   8.456
 1119POPC   C3B17157   6.886  11.307   8.033
 1119POPC   C4B17158   7.211  11.485   7.788
 1120POPC   NC317159  10.106  11.075   9.652
 1120POPC   PO417160   9.494  11.439   9.524
 1120POPC   GL117161   9.680  11.539   9.163
 1120POPC   GL217162   9.415  11.707   9.071
 1120POPC   C1A17163   9.826  11.407   8.762
 1120POPC   D2A17164  10.043  11.534   8.402
 1120POPC   C3A17165   9.915  11.406   7.991
 1120POPC   C4A17166   9.603  11.167   7.765
 1120POPC   C1B17167   9.347  11.607   8.666
 1120POPC   C2B17168   9.479  11.403   8.283
 1120POPC   C3B17169   9.179  11.371   7.927
 1120POPC   C4B17170   9.225  11.416   7.451
 1121POPC   NC317171  35.611  33.372   9.414
 1121POPC   PO417172  35.316  32.759   9.521
 1121POPC   GL117173  35.308  32.865   9.126
 1121POPC   GL217174  35.198  33.179   9.158
 1121POPC   C1A17175  35.145  32.835   8.716
 1121POPC   D2A17176  35.294  33.055   8.325
 1121POPC   C3A17177  35.351  32.848   7.940
 1121POPC   C4A17178  35.686  33.060   7.739
 1121POPC   C1B17179  35.339  33.296   8.799
 1121POPC   C2B17180  35.171  33.530   8.480
 1121POPC   C3B17181  35.374  33.522   8.091
 1121POPC   C4B17182  35.219  33.295   7.747
 1122POPC   NC317183  20.977  24.642   9.417
 1122POPC   PO417184  20.410  24.140   9.342
 1122POPC   GL117185  20.657  24.396   9.103
 1122POPC   GL217186  20.486  24.686   8.969
 1122POPC   C1A17187  20.824  24.407   8.697
 1122POPC   D2A17188  20.616  24.447   8.279
 1122POPC   C3A17189  20.685  24.214   7.899
 1122POPC   C4A17190  20.635  24.510   7.514
 1122POPC   C1B17191  20.305  24.371   8.711
 1122POPC   C2B17192  20.109  24.501   8.348
 1122POPC   C3B17193  20.242  24.493   7.901
 1122POPC   C4B17194  20.117  24.622   7.474
 1123POPC   NC317195  44.852  10.152   9.536
 1123POPC   PO417196  44.676  10.813   9.670
 1123POPC   GL117197  44.654  10.576   9.267
 1123POPC   GL217198  44.987  10.419   9.135
 1123POPC   C1A17199  44.655  10.598   8.805
 1123POPC   D2A17200  44.623  10.316   8.456
 1123POPC   C3A17201  44.581  10.491   8.062
 1123POPC   C4A17202  44.591  10.761   7.714
 1123POPC   C1B17203  44.984  10.128   8.774
 1123POPC   C2B17204   0.093  10.107   8.324
 1123POPC   C3B17205  44.978  10.198   7.876
 1123POPC   C4B17206   0.004  10.071   7.430
 1124POPC   NC317207  21.074   1.097   9.448
 1124POPC   PO417208  21.575   1.521   9.546
 1124POPC   GL117209  21.420   1.356   9.163
 1124POPC   GL217210  21.310   1.081   9.004
 1124POPC   C1A17211  21.602   1.454   8.762
 1124POPC   D2A17212  21.687   1.300   8.352
 1124POPC   C3A17213  21.363   1.171   8.099
 1124POPC   C4A17214  21.344   1.282   7.670
 1124POPC   C1B17215  21.381   0.987   8.613
 1124POPC   C2B17216  21.109   0.773   8.349
 1124POPC   C3B17217  21.132   0.753   7.920
 1124POPC   C4B17218  21.075   0.871   7.496
 1125POPC   NC317219  24.366  40.944   9.571
 1125POPC   PO417220  24.972  40.657   9.538
 1125POPC   GL117221  24.680  40.722   9.190
 1125POPC   GL217222  24.318  40.684   9.132
 1125POPC   C1A17223  24.691  40.729   8.753
 1125POPC   D2A17224  24.466  40.710   8.379
 1125POPC   C3A17225  24.702  40.634   8.019
 1125POPC   C4A17226  24.677  40.837   7.636
 1125POPC   C1B17227  24.118  40.624   8.755
 1125POPC   C2B17228  24.008  40.311   8.443
 1125POPC   C3B17229  24.222  40.384   8.063
 1125POPC   C4B17230  24.214  40.737   7.809
 1126POPC   NC317231  42.776  21.358   9.481
 1126POPC   PO417232  43.328  21.621   9.385
 1126POPC   GL117233  43.083  21.417   9.095
 1126POPC   GL217234  43.358  21.208   9.042
 1126POPC   C1A17235  42.913  21.135   8.797
 1126POPC   D2A17236  43.142  21.094   8.405
 1126POPC   C3A17237  42.956  21.288   8.021
 1126POPC   C4A17238  42.730  21.677   7.936
 1126POPC   C1B17239  43.424  21.463   8.705
 1126POPC   C2B17240  43.504  21.437   8.283
 1126POPC   C3B17241  43.404  21.499   7.893
 1126POPC   C4B17242  43.521  21.706   7.519
 1127POPC   NC317243  31.019   5.380   9.390
 1127POPC   PO417244  30.519   4.972   9.623
 1127POPC   GL117245  30.598   5.131   9.197
 1127POPC   GL217246  30.871   4.925   9.218
 1127POPC   C1A17247  30.825   5.267   8.777
 1127POPC   D2A17248  30.977   5.185   8.333
 1127POPC   C3A17249  30.655   5.327   8.046
 1127POPC   C4A17250  30.399   5.193   7.656
 1127POPC   C1B17251  30.651   4.691   8.913
 1127POPC   C2B17252  30.705   4.592   8.493
 1127POPC   C3B17253  30.693   4.821   8.112
 1127POPC   C4B17254  30.773   4.798   7.699
 1128POPC   NC317255  21.627  32.078  10.023
 1128POPC   PO417256  21.031  32.311   9.688
 1128POPC   GL117257  21.310  32.189   9.336
 1128POPC   GL217258  21.237  32.442   9.124
 1128POPC   C1A17259  21.644  32.166   8.953
 1128POPC   D2A17260  21.622  32.198   8.467
 1128POPC   C3A17261  21.574  32.086   8.020
 1128POPC   C4A17262  21.521  32.163   7.558
 1128POPC   C1B17263  21.161  32.212   8.745
 1128POPC   C2B17264  21.147  32.067   8.305
 1128POPC   C3B17265  21.099  32.089   7.855
 1128POPC   C4B17266  21.071  32.398   7.521
 1129POPC   NC317267  12.567   2.635   9.558
 1129POPC   PO417268  13.208   2.935   9.498
 1129POPC   GL117269  13.066   2.830   9.125
 1129POPC   GL217270  12.894   2.545   9.125
 1129POPC   C1A17271  12.907   2.959   8.730
 1129POPC   D2A17272  12.648   2.845   8.372
 1129POPC   C3A17273  12.903   2.899   7.992
 1129POPC   C4A17274  13.181   2.551   7.847
 1129POPC   C1B17275  12.534   2.452   8.864
 1129POPC   C2B17276  12.362   2.392   8.461
 1129POPC   C3B17277  12.496   2.451   8.058
 1129POPC   C4B17278  12.700   2.556   7.673
 1130POPC   NC317279  16.001  22.190   9.600
 1130POPC   PO417280  15.911  22.751   9.534
 1130POPC   GL117281  16.001  22.409   9.144
 1130POPC   GL217282  16.021  21.990   9.141
 1130POPC   C1A17283  16.075  22.221   8.706
 1130POPC   D2A17284  15.844  22.217   8.322
 1130POPC   C3A17285  16.156  22.232   8.031
 1130POPC   C4A17286  16.324  21.888   7.844
 1130POPC   C1B17287  16.126  21.721   8.762
 1130POPC   C2B17288  16.081  21.757   8.302
 1130POPC   C3B17289  15.801  21.868   7.928
 1130POPC   C4B17290  15.959  21.697   7.524
 1131POPC   NC317291  34.182  28.617   9.471
 1131POPC   PO417292  33.818  27.997   9.500
 1131POPC   GL117293  33.644  28.129   9.149
 1131POPC   GL217294  33.763  28.447   9.162
 1131POPC   C1A17295  33.566  28.142   8.738
 1131POPC   D2A17296  33.873  28.081   8.416
 1131POPC   C3A17297  33.775  28.254   8.030
 1131POPC   C4A17298  33.954  28.205   7.612
 1131POPC   C1B17299  33.941  28.489   8.732
 1131POPC   C2B17300  34.024  28.658   8.286
 1131POPC   C3B17301  33.930  28.668   7.810
 1131POPC   C4B17302  33.828  28.658   7.378
 1132POPC   NC317303  32.982  21.370   9.544
 1132POPC   PO417304  32.455  20.985   9.312
 1132POPC   GL117305  32.817  21.229   9.098
 1132POPC   GL217306  33.051  21.538   9.081
 1132POPC   C1A17307  33.202  21.111   8.871
 1132POPC   D2A17308  33.039  21.180   8.497
 1132POPC   C3A17309  33.222  20.985   8.143
 1132POPC   C4A17310  33.067  21.095   7.773
 1132POPC   C1B17311  32.955  21.825   8.778
 1132POPC   C2B17312  33.174  21.727   8.440
 1132POPC   C3B17313  33.047  21.499   8.108
 1132POPC   C4B17314  33.131  21.592   7.718
 1133POPC   NC317315  23.605  23.926   9.561
 1133POPC   PO417316  23.223  23.433   9.384
 1133POPC   GL117317  23.413  23.735   9.083
 1133POPC   GL217318  23.789  23.886   9.094
 1133POPC   C1A17319  23.310  23.585   8.657
 1133POPC   D2A17320  23.558  23.243   8.445
 1133POPC   C3A17321  23.574  23.383   8.027
 1133POPC   C4A17322  23.327  23.748   7.895
 1133POPC   C1B17323  23.801  23.665   8.715
 1133POPC   C2B17324  23.626  23.833   8.323
 1133POPC   C3B17325  23.830  23.876   7.927
 1133POPC   C4B17326  23.975  23.463   7.724
 1134POPC   NC317327  18.894   4.915   9.706
 1134POPC   PO417328  19.273   5.455   9.668
 1134POPC   GL117329  19.237   5.064   9.335
 1134POPC   GL217330  19.545   4.873   9.202
 1134POPC   C1A17331  19.107   4.872   8.923
 1134POPC   D2A17332  19.073   4.997   8.486
 1134POPC   C3A17333  19.120   4.734   8.105
 1134POPC   C4A17334  18.997   4.876   7.705
 1134POPC   C1B17335  19.567   5.108   8.794
 1134POPC   C2B17336  19.556   5.082   8.328
 1134POPC   C3B17337  19.229   5.266   8.035
 1134POPC   C4B17338  19.268   5.316   7.567
 1135POPC   NC317339  13.306   1.669   9.624
 1135POPC   PO417340  12.827   2.231   9.523
 1135POPC   GL117341  13.076   2.069   9.220
 1135POPC   GL217342  12.738   2.006   9.037
 1135POPC   C1A17343  13.129   2.220   8.801
 1135POPC   D2A17344  12.841   2.132   8.463
 1135POPC   C3A17345  13.067   2.088   8.083
 1135POPC   C4A17346  13.146   1.748   7.823
 1135POPC   C1B17347  12.407   1.939   8.712
 1135POPC   C2B17348  12.401   1.941   8.237
 1135POPC   C3B17349  12.623   1.998   7.838
 1135POPC   C4B17350  12.482   2.156   7.432
 1136POPC   NC317351  15.708  21.236   9.534
 1136POPC   PO417352  16.135  21.741   9.582
 1136POPC   GL117353  16.034  21.467   9.201
 1136POPC   GL217354  16.215  21.157   9.215
 1136POPC   C1A17355  15.745  21.379   8.799
 1136POPC   D2A17356  15.644  21.475   8.344
 1136POPC   C3A17357  15.880  21.377   7.973
 1136POPC   C4A17358  15.702  21.063   7.766
 1136POPC   C1B17359  16.225  21.211   8.776
 1136POPC   C2B17360  16.021  21.128   8.404
 1136POPC   C3B17361  16.138  20.938   8.027
 1136POPC   C4B17362  16.446  20.975   7.716
 1137POPC   NC317363  35.097  34.063   9.775
 1137POPC   PO417364  34.831  33.531   9.451
 1137POPC   GL117365  34.544  33.640   9.104
 1137POPC   GL217366  34.150  33.577   9.022
 1137POPC   C1A17367  34.652  33.704   8.696
 1137POPC   D2A17368  34.680  33.987   8.408
 1137POPC   C3A17369  34.555  33.806   8.060
 1137POPC   C4A17370  34.376  33.798   7.678
 1137POPC   C1B17371  34.315  33.317   8.741
 1137POPC   C2B17372  34.392  33.388   8.324
 1137POPC   C3B17373  34.123  33.491   8.023
 1137POPC   C4B17374  34.092  33.344   7.638
 1138POPC   NC317375  29.712  38.899   9.419
 1138POPC   PO417376  30.177  38.403   9.448
 1138POPC   GL117377  30.045  38.643   9.131
 1138POPC   GL217378  29.691  38.483   9.081
 1138POPC   C1A17379  29.962  38.728   8.727
 1138POPC   D2A17380  29.909  38.374   8.491
 1138POPC   C3A17381  30.061  38.362   8.095
 1138POPC   C4A17382  29.943  38.677   7.856
 1138POPC   C1B17383  29.601  38.092   8.801
 1138POPC   C2B17384  29.409  38.177   8.402
 1138POPC   C3B17385  29.547  38.488   8.134
 1138POPC   C4B17386  29.501  38.529   7.691
 1139POPC   NC317387  41.264   0.528   9.468
 1139POPC   PO417388  41.833   0.483   9.604
 1139POPC   GL117389  41.797   0.337   9.193
 1139POPC   GL217390  41.531   0.539   9.042
 1139POPC   C1A17391  41.888   0.362   8.729
 1139POPC   D2A17392  41.611   0.411   8.344
 1139POPC   C3A17393  41.785   0.246   7.947
 1139POPC   C4A17394  41.738   0.284   7.473
 1139POPC   C1B17395  41.174   0.553   8.757
 1139POPC   C2B17396  41.016   0.484   8.344
 1139POPC   C3B17397  41.193   0.225   8.050
 1139POPC   C4B17398  41.385   0.493   7.768
 1140POPC   NC317399  44.554   5.040   9.562
 1140POPC   PO417400  44.678   5.693   9.414
 1140POPC   GL117401  44.518   5.300   9.125
 1140POPC   GL217402  44.617   4.912   9.095
 1140POPC   C1A17403  44.421   5.129   8.669
 1140POPC   D2A17404  44.668   5.219   8.279
 1140POPC   C3A17405  44.579   5.194   7.820
 1140POPC   C4A17406  44.451   5.216   7.343
 1140POPC   C1B17407  44.638   4.648   8.763
 1140POPC   C2B17408  44.495   4.542   8.380
 1140POPC   C3B17409  44.675   4.731   8.026
 1140POPC   C4B17410  44.867   4.751   7.623
 1141POPC   NC317411  35.385   0.862   9.428
 1141POPC   PO417412  35.641   1.406   9.242
 1141POPC   GL117413  35.356   1.341   8.983
 1141POPC   GL217414  35.207   1.038   8.983
 1141POPC   C1A17415  35.437   1.320   8.561
 1141POPC   D2A17416  35.144   1.316   8.238
 1141POPC   C3A17417  35.331   1.448   7.870
 1141POPC   C4A17418  35.772   1.534   7.763
 1141POPC   C1B17419  35.373   0.822   8.641
 1141POPC   C2B17420  35.602   0.693   8.267
 1141POPC   C3B17421  35.430   0.968   7.996
 1141POPC   C4B17422  35.280   1.078   7.549
 1142POPC   NC317423  39.688  25.839   9.472
 1142POPC   PO417424  40.330  26.126   9.517
 1142POPC   GL117425  40.129  25.954   9.173
 1142POPC   GL217426  40.019  26.231   9.047
 1142POPC   C1A17427  39.999  25.809   8.746
 1142POPC   D2A17428  39.823  25.783   8.319
 1142POPC   C3A17429  40.009  26.027   7.974
 1142POPC   C4A17430  40.113  25.871   7.568
 1142POPC   C1B17431  39.798  26.446   8.741
 1142POPC   C2B17432  39.696  26.319   8.347
 1142POPC   C3B17433  39.788  26.554   8.005
 1142POPC   C4B17434  39.930  26.410   7.623
 1143POPC   NC317435   0.022   7.974   9.441
 1143POPC   PO417436   0.785   7.948   9.514
 1143POPC   GL117437   0.494   8.183   9.218
 1143POPC   GL217438   0.315   8.507   9.255
 1143POPC   C1A17439   0.588   8.420   8.813
 1143POPC   D2A17440   0.522   8.297   8.390
 1143POPC   C3A17441   0.708   8.441   8.045
 1143POPC   C4A17442   0.647   8.403   7.638
 1143POPC   C1B17443   0.115   8.277   8.881
 1143POPC   C2B17444   0.046   8.164   8.463
 1143POPC   C3B17445   0.178   8.012   8.082
 1143POPC   C4B17446   0.157   8.227   7.709
 1144POPC   NC317447  40.725  38.556   9.579
 1144POPC   PO417448  41.246  38.779   9.190
 1144POPC   GL117449  40.891  38.507   9.107
 1144POPC   GL217450  40.590  38.654   9.095
 1144POPC   C1A17451  40.839  38.294   8.715
 1144POPC   D2A17452  41.000  38.270   8.289
 1144POPC   C3A17453  40.758  38.327   7.955
 1144POPC   C4A17454  40.420  38.112   7.764
 1144POPC   C1B17455  40.786  38.822   8.734
 1144POPC   C2B17456  41.114  38.731   8.473
 1144POPC   C3B17457  41.143  38.702   8.040
 1144POPC   C4B17458  40.985  38.933   7.748
 1145POPC   NC317459  41.230  15.722   9.328
 1145POPC   PO417460  41.552  16.386   9.417
 1145POPC   GL117461  41.631  16.021   9.200
 1145POPC   GL217462  41.947  15.861   9.209
 1145POPC   C1A17463  41.605  15.848   8.781
 1145POPC   D2A17464  41.354  15.714   8.394
 1145POPC   C3A17465  41.496  15.863   8.006
 1145POPC   C4A17466  41.286  16.042   7.670
 1145POPC   C1B17467  42.025  16.164   8.887
 1145POPC   C2B17468  42.076  16.179   8.477
 1145POPC   C3B17469  41.823  16.225   8.160
 1145POPC   C4B17470  41.844  16.313   7.739
 1146POPC   NC317471   2.894  38.839   9.548
 1146POPC   PO417472   2.493  38.320   9.462
 1146POPC   GL117473   2.748  38.414   9.102
 1146POPC   GL217474   3.022  38.653   9.101
 1146POPC   C1A17475   2.922  38.339   8.702
 1146POPC   D2A17476   2.988  38.121   8.315
 1146POPC   C3A17477   2.824  38.345   7.971
 1146POPC   C4A17478   2.465  38.365   7.717
 1146POPC   C1B17479   3.041  38.863   8.734
 1146POPC   C2B17480   2.869  38.759   8.347
 1146POPC   C3B17481   3.136  38.809   8.008
 1146POPC   C4B17482   3.115  38.607   7.634
 1147POPC   NC317483  35.848  20.044   9.365
 1147POPC   PO417484  36.510  19.822   9.516
 1147POPC   GL117485  36.352  19.757   9.110
 1147POPC   GL217486  36.228  20.069   9.016
 1147POPC   C1A17487  36.082  19.676   8.726
 1147POPC   D2A17488  35.991  19.934   8.356
 1147POPC   C3A17489  36.205  19.878   7.984
 1147POPC   C4A17490  35.990  19.813   7.613
 1147POPC   C1B17491  36.466  19.977   8.618
 1147POPC   C2B17492  36.658  20.060   8.212
 1147POPC   C3B17493  36.586  20.335   7.883
 1147POPC   C4B17494  36.279  20.263   7.581
 1148POPC   NC317495  24.264   5.189   9.617
 1148POPC   PO417496  24.698   4.672   9.699
 1148POPC   GL117497  24.786   4.970   9.312
 1148POPC   GL217498  24.474   5.133   9.133
 1148POPC   C1A17499  24.915   5.085   8.872
 1148POPC   D2A17500  24.676   5.132   8.507
 1148POPC   C3A17501  24.700   5.134   8.072
 1148POPC   C4A17502  24.366   5.046   7.800
 1148POPC   C1B17503  24.196   5.101   8.737
 1148POPC   C2B17504  24.208   5.201   8.281
 1148POPC   C3B17505  23.951   5.325   7.916
 1148POPC   C4B17506  23.977   5.178   7.481
 1149POPC   NC317507  26.822   8.955   9.605
 1149POPC   PO417508  27.370   8.887   9.423
 1149POPC   GL117509  27.034   8.983   9.118
 1149POPC   GL217510  26.710   9.139   9.144
 1149POPC   C1A17511  26.912   9.127   8.687
 1149POPC   D2A17512  26.947   8.900   8.316
 1149POPC   C3A17513  27.046   9.031   7.906
 1149POPC   C4A17514  26.755   9.126   7.563
 1149POPC   C1B17515  26.454   8.905   8.816
 1149POPC   C2B17516  26.464   8.762   8.374
 1149POPC   C3B17517  26.588   8.798   7.912
 1149POPC   C4B17518  26.478   8.693   7.474
 1150POPC   NC317519  27.193  39.965   9.496
 1150POPC   PO417520  26.474  40.080   9.551
 1150POPC   GL117521  26.750  40.122   9.207
 1150POPC   GL217522  26.821  39.774   9.172
 1150POPC   C1A17523  26.938  40.142   8.801
 1150POPC   D2A17524  26.892  39.896   8.450
 1150POPC   C3A17525  26.866  40.159   8.118
 1150POPC   C4A17526  26.887  40.245   7.679
 1150POPC   C1B17527  26.534  39.770   8.836
 1150POPC   C2B17528  26.473  39.533   8.471
 1150POPC   C3B17529  26.555  39.652   8.016
 1150POPC   C4B17530  26.947  39.762   7.835
 1151POPC   NC317531  38.820  28.521   9.450
 1151POPC   PO417532  39.314  27.906   9.480
 1151POPC   GL117533  39.070  28.122   9.146
 1151POPC   GL217534  39.210  28.482   9.104
 1151POPC   C1A17535  39.000  28.245   8.696
 1151POPC   D2A17536  39.223  28.559   8.456
 1151POPC   C3A17537  39.387  28.382   8.126
 1151POPC   C4A17538  39.197  28.397   7.742
 1151POPC   C1B17539  38.905  28.720   8.837
 1151POPC   C2B17540  38.850  28.881   8.414
 1151POPC   C3B17541  38.903  28.728   8.010
 1151POPC   C4B17542  38.701  28.510   7.707
 1152POPC   NC317543  43.273   8.038   9.691
 1152POPC   PO417544  43.805   8.328   9.386
 1152POPC   GL117545  43.933   7.937   9.137
 1152POPC   GL217546  44.243   7.748   9.084
 1152POPC   C1A17547  43.792   7.965   8.701
 1152POPC   D2A17548  43.542   8.102   8.382
 1152POPC   C3A17549  43.740   8.189   8.015
 1152POPC   C4A17550  43.886   7.864   7.830
 1152POPC   C1B17551  44.253   8.123   8.780
 1152POPC   C2B17552  44.115   8.089   8.335
 1152POPC   C3B17553  44.257   8.175   7.930
 1152POPC   C4B17554  44.017   8.233   7.510
 1153POPC   NC317555  31.644  10.344   9.366
 1153POPC   PO417556  30.996  10.339   9.386
 1153POPC   GL117557  31.242  10.602   9.143
 1153POPC   GL217558  31.329  10.279   8.971
 1153POPC   C1A17559  31.530  10.717   8.807
 1153POPC   D2A17560  31.524  10.454   8.450
 1153POPC   C3A17561  31.713  10.617   8.089
 1153POPC   C4A17562  31.536  10.702   7.701
 1153POPC   C1B17563  31.046  10.137   8.673
 1153POPC   C2B17564  31.092  10.169   8.266
 1153POPC   C3B17565  31.284  10.353   7.970
 1153POPC   C4B17566  31.118  10.416   7.576
 1154POPC   NC317567  16.653  24.205   9.460
 1154POPC   PO417568  16.798  24.830   9.530
 1154POPC   GL117569  16.952  24.692   9.135
 1154POPC   GL217570  16.776  24.395   8.995
 1154POPC   C1A17571  16.903  24.791   8.692
 1154POPC   D2A17572  16.793  24.462   8.407
 1154POPC   C3A17573  16.647  24.591   8.008
 1154POPC   C4A17574  16.681  24.443   7.593
 1154POPC   C1B17575  16.476  24.183   8.696
 1154POPC   C2B17576  16.351  24.159   8.224
 1154POPC   C3B17577  16.262  24.191   7.763
 1154POPC   C4B17578  16.224  24.288   7.312
 1155POPC   NC317579   4.866  24.881   9.600
 1155POPC   PO417580   5.074  25.503   9.443
 1155POPC   GL117581   5.313  25.323   9.108
 1155POPC   GL217582   5.086  25.035   9.079
 1155POPC   C1A17583   5.374  25.195   8.689
 1155POPC   D2A17584   5.083  25.208   8.362
 1155POPC   C3A17585   5.255  25.368   7.977
 1155POPC   C4A17586   5.334  25.553   7.582
 1155POPC   C1B17587   4.828  25.351   8.835
 1155POPC   C2B17588   4.605  25.431   8.434
 1155POPC   C3B17589   4.684  25.237   8.029
 1155POPC   C4B17590   4.907  25.216   7.631
 1156POPC   NC317591  13.504   0.823   9.785
 1156POPC   PO417592  13.710   1.364   9.482
 1156POPC   GL117593  13.515   1.242   9.102
 1156POPC   GL217594  13.814   1.114   8.958
 1156POPC   C1A17595  13.421   1.328   8.638
 1156POPC   D2A17596  13.240   1.426   8.227
 1156POPC   C3A17597  13.442   1.332   7.837
 1156POPC   C4A17598  13.726   1.693   7.668
 1156POPC   C1B17599  13.885   1.153   8.564
 1156POPC   C2B17600  13.757   1.444   8.262
 1156POPC   C3B17601  13.943   1.311   7.930
 1156POPC   C4B17602  13.827   1.030   7.665
 1157POPC   NC317603  21.093  36.828   9.687
 1157POPC   PO417604  21.613  37.328   9.636
 1157POPC   GL117605  21.506  37.164   9.157
 1157POPC   GL217606  21.296  36.832   9.173
 1157POPC   C1A17607  21.551  36.984   8.752
 1157POPC   D2A17608  21.542  36.726   8.403
 1157POPC   C3A17609  21.590  36.911   8.014
 1157POPC   C4A17610  21.826  36.767   7.713
 1157POPC   C1B17611  21.087  36.797   8.744
 1157POPC   C2B17612  21.022  36.598   8.371
 1157POPC   C3B17613  21.128  36.667   7.999
 1157POPC   C4B17614  21.124  36.973   7.761
 1158POPC   NC317615   3.573  33.413   9.573
 1158POPC   PO417616   3.677  32.763   9.349
 1158POPC   GL117617   3.319  33.022   9.161
 1158POPC   GL217618   3.414  33.362   9.101
 1158POPC   C1A17619   3.159  32.976   8.714
 1158POPC   D2A17620   3.212  32.640   8.368
 1158POPC   C3A17621   3.459  32.819   8.004
 1158POPC   C4A17622   3.366  33.259   7.852
 1158POPC   C1B17623   3.569  33.326   8.690
 1158POPC   C2B17624   3.662  33.227   8.265
 1158POPC   C3B17625   3.861  33.419   7.880
 1158POPC   C4B17626   3.840  33.485   7.418
 1159POPC   NC317627  14.219   7.224   9.405
 1159POPC   PO417628  14.834   7.504   9.590
 1159POPC   GL117629  14.732   7.362   9.145
 1159POPC   GL217630  14.467   7.118   8.981
 1159POPC   C1A17631  14.601   7.493   8.717
 1159POPC   D2A17632  14.552   7.227   8.325
 1159POPC   C3A17633  14.450   7.544   8.001
 1159POPC   C4A17634  14.083   7.729   7.751
 1159POPC   C1B17635  14.029   7.121   8.804
 1159POPC   C2B17636  14.035   7.109   8.385
 1159POPC   C3B17637  14.042   7.237   7.999
 1159POPC   C4B17638  13.758   7.047   7.756
 1160POPC   NC317639  13.209  12.356   9.468
 1160POPC   PO417640  13.588  11.818   9.529
 1160POPC   GL117641  13.650  11.963   9.121
 1160POPC   GL217642  13.348  12.050   9.099
 1160POPC   C1A17643  13.664  12.195   8.737
 1160POPC   D2A17644  13.458  12.140   8.392
 1160POPC   C3A17645  13.667  12.197   8.054
 1160POPC   C4A17646  13.886  12.160   7.691
 1160POPC   C1B17647  13.351  11.758   8.761
 1160POPC   C2B17648  13.359  11.627   8.351
 1160POPC   C3B17649  13.258  11.787   7.947
 1160POPC   C4B17650  13.238  12.057   7.582
 1161POPC   NC317651   6.926   9.139   9.619
 1161POPC   PO417652   6.425   8.675   9.485
 1161POPC   GL117653   6.417   8.875   9.111
 1161POPC   GL217654   6.580   9.186   9.224
 1161POPC   C1A17655   6.361   8.867   8.685
 1161POPC   D2A17656   6.702   8.830   8.406
 1161POPC   C3A17657   6.600   8.712   8.028
 1161POPC   C4A17658   6.337   8.923   7.766
 1161POPC   C1B17659   6.707   9.207   8.808
 1161POPC   C2B17660   6.584   9.317   8.380
 1161POPC   C3B17661   6.798   9.183   8.008
 1161POPC   C4B17662   6.708   9.223   7.558
 1162POPC   NC317663  17.512   3.074   9.350
 1162POPC   PO417664  17.409   3.711   9.635
 1162POPC   GL117665  17.421   3.578   9.192
 1162POPC   GL217666  17.758   3.677   9.194
 1162POPC   C1A17667  17.467   3.413   8.729
 1162POPC   D2A17668  17.330   3.406   8.263
 1162POPC   C3A17669  17.600   3.389   7.886
 1162POPC   C4A17670  17.641   3.576   7.464
 1162POPC   C1B17671  17.625   3.877   8.822
 1162POPC   C2B17672  17.704   3.731   8.379
 1162POPC   C3B17673  17.649   3.895   7.983
 1162POPC   C4B17674  17.948   3.901   7.685
 1163POPC   NC317675   8.558  19.523   9.805
 1163POPC   PO417676   8.898  19.043   9.475
 1163POPC   GL117677   9.003  18.845   9.125
 1163POPC   GL217678   8.645  18.823   9.068
 1163POPC   C1A17679   9.270  19.022   8.819
 1163POPC   D2A17680   9.297  19.291   8.481
 1163POPC   C3A17681   9.111  19.109   8.150
 1163POPC   C4A17682   9.014  18.816   7.815
 1163POPC   C1B17683   8.778  19.039   8.693
 1163POPC   C2B17684   8.637  18.962   8.298
 1163POPC   C3B17685   8.647  19.149   7.910
 1163POPC   C4B17686   9.006  19.341   7.715
 1164POPC   NC317687  33.418  33.330   9.953
 1164POPC   PO417688  33.837  33.429   9.421
 1164POPC   GL117689  33.541  33.188   9.121
 1164POPC   GL217690  33.310  33.431   8.925
 1164POPC   C1A17691  33.574  32.917   8.765
 1164POPC   D2A17692  33.857  32.659   8.543
 1164POPC   C3A17693  33.840  32.758   8.117
 1164POPC   C4A17694  33.982  32.843   7.711
 1164POPC   C1B17695  33.749  33.434   8.737
 1164POPC   C2B17696  33.890  33.211   8.389
 1164POPC   C3B17697  33.675  33.229   7.988
 1164POPC   C4B17698  33.619  33.201   7.565
 1165POPC   NC317699  18.523  20.580   9.497
 1165POPC   PO417700  19.195  20.695   9.539
 1165POPC   GL117701  19.184  20.553   9.142
 1165POPC   GL217702  18.881  20.697   9.098
 1165POPC   C1A17703  19.413  20.343   8.795
 1165POPC   D2A17704  19.289  20.494   8.400
 1165POPC   C3A17705  19.278  20.315   8.013
 1165POPC   C4A17706  18.885  20.274   7.808
 1165POPC   C1B17707  19.068  20.840   8.697
 1165POPC   C2B17708  19.093  20.941   8.224
 1165POPC   C3B17709  19.101  20.751   7.783
 1165POPC   C4B17710  18.992  20.942   7.370
 1166POPC   NC317711  18.516   6.937   9.817
 1166POPC   PO417712  18.383   6.285   9.566
 1166POPC   GL117713  18.338   6.661   9.298
 1166POPC   GL217714  17.964   6.687   9.233
 1166POPC   C1A17715  18.457   6.821   8.874
 1166POPC   D2A17716  18.232   6.735   8.459
 1166POPC   C3A17717  18.372   6.446   8.127
 1166POPC   C4A17718  18.603   6.645   7.790
 1166POPC   C1B17719  18.104   6.439   8.886
 1166POPC   C2B17720  17.895   6.305   8.502
 1166POPC   C3B17721  17.855   6.551   8.160
 1166POPC   C4B17722  18.134   6.834   7.874
 1167POPC   NC317723  44.270   2.667   9.914
 1167POPC   PO417724  44.817   2.666   9.565
 1167POPC   GL117725  44.767   2.817   9.158
 1167POPC   GL217726  44.532   3.063   9.117
 1167POPC   C1A17727  44.691   2.694   8.742
 1167POPC   D2A17728  44.958   2.456   8.479
 1167POPC   C3A17729  44.842   2.484   8.091
 1167POPC   C4A17730  44.975   2.570   7.671
 1167POPC   C1B17731  44.586   3.208   8.701
 1167POPC   C2B17732  44.448   3.052   8.280
 1167POPC   C3B17733  44.627   2.919   7.875
 1167POPC   C4B17734  44.487   2.636   7.508
 1168POPC   NC317735  14.618  12.843   9.621
 1168POPC   PO417736  14.141  13.288   9.688
 1168POPC   GL117737  14.197  12.871   9.307
 1168POPC   GL217738  14.513  12.652   9.164
 1168POPC   C1A17739  14.201  12.759   8.804
 1168POPC   D2A17740  14.487  12.773   8.427
 1168POPC   C3A17741  14.446  13.079   8.075
 1168POPC   C4A17742  14.186  13.032   7.736
 1168POPC   C1B17743  14.672  12.405   8.801
 1168POPC   C2B17744  14.669  12.301   8.344
 1168POPC   C3B17745  14.626  12.562   7.954
 1168POPC   C4B17746  14.582  12.778   7.546
 1169POPC   NC317747  21.674   0.335   9.244
 1169POPC   PO417748  22.240   0.595   9.527
 1169POPC   GL117749  22.197   0.336   9.160
 1169POPC   GL217750  22.525   0.272   9.146
 1169POPC   C1A17751  22.047   0.335   8.713
 1169POPC   D2A17752  22.210   0.511   8.343
 1169POPC   C3A17753  22.041   0.340   7.979
 1169POPC   C4A17754  21.858   0.392   7.560
 1169POPC   C1B17755  22.551   0.366   8.745
 1169POPC   C2B17756  22.588   0.173   8.360
 1169POPC   C3B17757  22.579   0.320   7.943
 1169POPC   C4B17758  22.339   0.157   7.612
 1170POPC   NC317759  32.027  38.703   9.572
 1170POPC   PO417760  32.554  38.419   9.294
 1170POPC   GL117761  32.108  38.395   9.143
 1170POPC   GL217762  31.856  38.687   9.107
 1170POPC   C1A17763  31.940  38.256   8.740
 1170POPC   D2A17764  32.121  38.184   8.307
 1170POPC   C3A17765  31.938  38.340   7.918
 1170POPC   C4A17766  32.350  38.332   7.763
 1170POPC   C1B17767  32.131  38.737   8.770
 1170POPC   C2B17768  32.000  38.656   8.400
 1170POPC   C3B17769  32.237  38.721   8.079
 1170POPC   C4B17770  32.017  38.970   7.822
 1171POPC   NC317771   2.680   9.448   9.437
 1171POPC   PO417772   2.699  10.138   9.502
 1171POPC   GL117773   2.799   9.888   9.171
 1171POPC   GL217774   3.096   9.667   9.206
 1171POPC   C1A17775   2.793   9.705   8.777
 1171POPC   D2A17776   2.568   9.752   8.407
 1171POPC   C3A17777   2.667   9.538   8.044
 1171POPC   C4A17778   2.579   9.733   7.667
 1171POPC   C1B17779   3.216  10.005   8.884
 1171POPC   C2B17780   3.291   9.913   8.467
 1171POPC   C3B17781   3.027   9.860   8.174
 1171POPC   C4B17782   3.031   9.957   7.780
 1172POPC   NC317783  18.143  42.517   9.587
 1172POPC   PO417784  18.621  42.962   9.584
 1172POPC   GL117785  18.571  42.498   9.289
 1172POPC   GL217786  18.203  42.357   9.122
 1172POPC   C1A17787  18.619  42.240   8.875
 1172POPC   D2A17788  18.420  42.242   8.477
 1172POPC   C3A17789  18.614  42.183   8.084
 1172POPC   C4A17790  18.461  42.038   7.704
 1172POPC   C1B17791  17.938  42.442   8.762
 1172POPC   C2B17792  18.029  42.593   8.359
 1172POPC   C3B17793  18.095  42.288   8.036
 1172POPC   C4B17794  18.022  42.275   7.621
 1173POPC   NC317795  20.195  24.538   9.393
 1173POPC   PO417796  19.553  24.807   9.545
 1173POPC   GL117797  19.700  24.527   9.242
 1173POPC   GL217798  19.448  24.339   9.115
 1173POPC   C1A17799  19.852  24.591   8.816
 1173POPC   D2A17800  19.673  24.820   8.463
 1173POPC   C3A17801  19.857  24.810   8.040
 1173POPC   C4A17802  19.713  24.899   7.642
 1173POPC   C1B17803  19.396  24.430   8.689
 1173POPC   C2B17804  19.387  24.113   8.403
 1173POPC   C3B17805  19.542  24.077   8.001
 1173POPC   C4B17806  19.756  24.376   7.760
 1174POPC   NC317807   8.788  24.727   9.480
 1174POPC   PO417808   9.052  24.199   9.746
 1174POPC   GL117809   9.030  24.223   9.238
 1174POPC   GL217810   8.892  24.511   9.057
 1174POPC   C1A17811   8.896  24.116   8.773
 1174POPC   D2A17812   8.830  24.431   8.449
 1174POPC   C3A17813   8.878  24.365   8.006
 1174POPC   C4A17814   8.728  24.346   7.573
 1174POPC   C1B17815   8.936  24.871   8.825
 1174POPC   C2B17816   9.081  24.876   8.440
 1174POPC   C3B17817   8.883  24.892   8.068
 1174POPC   C4B17818   8.949  24.791   7.683
 1175POPC   NC317819   2.080  31.512   9.610
 1175POPC   PO417820   1.529  31.133   9.472
 1175POPC   GL117821   1.817  31.378   9.207
 1175POPC   GL217822   2.153  31.259   9.163
 1175POPC   C1A17823   1.992  31.551   8.808
 1175POPC   D2A17824   2.090  31.350   8.442
 1175POPC   C3A17825   1.965  31.617   8.124
 1175POPC   C4A17826   2.121  31.846   7.773
 1175POPC   C1B17827   2.262  31.031   8.831
 1175POPC   C2B17828   2.487  30.998   8.441
 1175POPC   C3B17829   2.440  31.306   8.086
 1175POPC   C4B17830   2.181  31.331   7.757
 1176POPC   NC317831  10.250  19.113   9.767
 1176POPC   PO417832  10.769  18.606   9.515
 1176POPC   GL117833  10.666  18.852   9.133
 1176POPC   GL217834  10.365  19.080   9.184
 1176POPC   C1A17835  10.477  18.818   8.692
 1176POPC   D2A17836  10.347  18.737   8.238
 1176POPC   C3A17837  10.573  18.956   7.881
 1176POPC   C4A17838  10.431  18.910   7.416
 1176POPC   C1B17839  10.362  19.294   8.760
 1176POPC   C2B17840  10.522  19.271   8.324
 1176POPC   C3B17841  10.213  19.376   7.995
 1176POPC   C4B17842  10.220  19.336   7.537
 1177POPC   NC317843  21.685   7.390   9.673
 1177POPC   PO417844  21.461   7.847   9.275
 1177POPC   GL117845  21.431   7.397   9.172
 1177POPC   GL217846  21.598   7.084   9.211
 1177POPC   C1A17847  21.245   7.193   8.816
 1177POPC   D2A17848  21.001   7.232   8.404
 1177POPC   C3A17849  21.238   7.407   8.071
 1177POPC   C4A17850  21.671   7.554   7.929
 1177POPC   C1B17851  21.727   7.057   8.781
 1177POPC   C2B17852  21.657   7.253   8.388
 1177POPC   C3B17853  21.682   7.051   8.000
 1177POPC   C4B17854  21.392   7.107   7.703
 1178POPC   NC317855  37.713  40.271   9.492
 1178POPC   PO417856  37.428  39.654   9.536
 1178POPC   GL117857  37.458  39.794   9.118
 1178POPC   GL217858  37.609  40.145   9.014
 1178POPC   C1A17859  37.383  39.831   8.688
 1178POPC   D2A17860  37.521  40.122   8.429
 1178POPC   C3A17861  37.658  40.007   8.023
 1178POPC   C4A17862  37.413  39.962   7.661
 1178POPC   C1B17863  37.844  40.411   8.697
 1178POPC   C2B17864  37.675  40.568   8.258
 1178POPC   C3B17865  37.677  40.472   7.803
 1178POPC   C4B17866  37.939  40.463   7.446
 1179POPC   NC317867  21.252  40.612   9.751
 1179POPC   PO417868  21.743  40.869   9.320
 1179POPC   GL117869  21.352  40.749   9.154
 1179POPC   GL217870  21.184  40.962   8.936
 1179POPC   C1A17871  21.474  40.567   8.736
 1179POPC   D2A17872  21.238  40.489   8.381
 1179POPC   C3A17873  21.330  40.607   7.960
 1179POPC   C4A17874  21.103  40.940   7.760
 1179POPC   C1B17875  21.587  41.046   8.712
 1179POPC   C2B17876  21.554  40.941   8.286
 1179POPC   C3B17877  21.661  41.014   7.872
 1179POPC   C4B17878  21.484  41.212   7.538
 1180POPC   NC317879   2.487  24.789   9.394
 1180POPC   PO417880   3.101  24.419   9.475
 1180POPC   GL117881   2.868  24.412   9.108
 1180POPC   GL217882   2.541  24.213   9.177
 1180POPC   C1A17883   2.933  24.729   8.759
 1180POPC   D2A17884   2.890  24.963   8.352
 1180POPC   C3A17885   2.957  24.660   7.997
 1180POPC   C4A17886   2.915  24.278   7.722
 1180POPC   C1B17887   2.497  24.374   8.768
 1180POPC   C2B17888   2.595  24.548   8.398
 1180POPC   C3B17889   2.521  24.390   8.009
 1180POPC   C4B17890   2.506  24.537   7.597
 1181POPC   NC317891  26.169  24.555   9.660
 1181POPC   PO417892  25.624  24.425   9.303
 1181POPC   GL117893  26.081  24.386   9.185
 1181POPC   GL217894  26.193  24.046   9.036
 1181POPC   C1A17895  26.283  24.506   8.813
 1181POPC   D2A17896  26.239  24.285   8.414
 1181POPC   C3A17897  26.132  24.585   8.112
 1181POPC   C4A17898  25.931  24.528   7.756
 1181POPC   C1B17899  25.854  24.251   8.743
 1181POPC   C2B17900  25.682  24.175   8.373
 1181POPC   C3B17901  25.895  24.094   8.022
 1181POPC   C4B17902  25.784  24.045   7.621
 1182POPC   NC317903  24.046   2.878   9.337
 1182POPC   PO417904  23.486   2.597   9.562
 1182POPC   GL117905  23.593   2.528   9.143
 1182POPC   GL217906  23.596   2.868   9.115
 1182POPC   C1A17907  23.675   2.546   8.704
 1182POPC   D2A17908  23.913   2.453   8.347
 1182POPC   C3A17909  23.786   2.648   7.999
 1182POPC   C4A17910  23.920   2.449   7.640
 1182POPC   C1B17911  23.747   3.110   8.792
 1182POPC   C2B17912  23.766   3.361   8.437
 1182POPC   C3B17913  23.886   3.210   8.039
 1182POPC   C4B17914  23.814   3.023   7.645
 1183POPC   NC317915  41.825  10.919   9.481
 1183POPC   PO417916  41.502  11.427   9.751
 1183POPC   GL117917  41.520  11.311   9.309
 1183POPC   GL217918  41.677  11.575   9.107
 1183POPC   C1A17919  41.441  11.129   8.878
 1183POPC   D2A17920  41.690  11.014   8.469
 1183POPC   C3A17921  41.487  10.962   8.061
 1183POPC   C4A17922  41.505  11.244   7.751
 1183POPC   C1B17923  41.782  11.471   8.684
 1183POPC   C2B17924  41.603  11.477   8.251
 1183POPC   C3B17925  41.548  11.739   7.851
 1183POPC   C4B17926  41.481  11.606   7.414
 1184POPC   NC317927  18.826  16.394   9.537
 1184POPC   PO417928  18.820  15.689   9.582
 1184POPC   GL117929  19.018  15.725   9.191
 1184POPC   GL217930  19.142  16.053   9.219
 1184POPC   C1A17931  18.938  15.793   8.772
 1184POPC   D2A17932  18.841  15.529   8.440
 1184POPC   C3A17933  19.036  15.650   8.078
 1184POPC   C4A17934  18.916  15.838   7.709
 1184POPC   C1B17935  19.430  15.852   8.874
 1184POPC   C2B17936  19.381  15.871   8.437
 1184POPC   C3B17937  19.422  15.993   8.007
 1184POPC   C4B17938  19.276  16.201   7.648
 1185POPC   NC317939  22.330  19.223   9.509
 1185POPC   PO417940  22.450  18.617   9.378
 1185POPC   GL117941  22.140  18.797   9.155
 1185POPC   GL217942  22.289  19.118   9.017
 1185POPC   C1A17943  22.043  18.633   8.774
 1185POPC   D2A17944  22.367  18.727   8.472
 1185POPC   C3A17945  22.303  18.968   8.115
 1185POPC   C4A17946  22.200  19.253   7.800
 1185POPC   C1B17947  21.933  19.122   8.775
 1185POPC   C2B17948  21.832  18.912   8.375
 1185POPC   C3B17949  21.716  19.112   7.981
 1185POPC   C4B17950  21.767  19.399   7.598
 1186POPC   NC317951  35.679  38.908   9.249
 1186POPC   PO417952  35.387  38.375   9.524
 1186POPC   GL117953  35.320  38.460   9.141
 1186POPC   GL217954  35.143  38.761   9.274
 1186POPC   C1A17955  35.542  38.503   8.741
 1186POPC   D2A17956  35.515  38.364   8.318
 1186POPC   C3A17957  35.630  38.562   7.977
 1186POPC   C4A17958  35.636  38.236   7.702
 1186POPC   C1B17959  35.115  38.809   8.846
 1186POPC   C2B17960  35.123  38.657   8.478
 1186POPC   C3B17961  35.180  38.801   8.109
 1186POPC   C4B17962  35.179  38.647   7.716
 1187POPC   NC317963   9.798  41.855   9.586
 1187POPC   PO417964   9.812  41.155   9.700
 1187POPC   GL117965   9.772  41.443   9.280
 1187POPC   GL217966   9.483  41.461   9.091
 1187POPC   C1A17967   9.887  41.328   8.824
 1187POPC   D2A17968   9.709  41.453   8.456
 1187POPC   C3A17969   9.992  41.597   8.144
 1187POPC   C4A17970   9.880  41.473   7.729
 1187POPC   C1B17971   9.448  41.828   8.830
 1187POPC   C2B17972   9.328  41.889   8.391
 1187POPC   C3B17973   9.492  41.807   7.976
 1187POPC   C4B17974   9.561  41.802   7.514
 1188POPC   NC317975  25.205  24.640   9.410
 1188POPC   PO417976  25.446  24.039   9.654
 1188POPC   GL117977  25.286  24.099   9.158
 1188POPC   GL217978  24.959  24.173   9.096
 1188POPC   C1A17979  25.313  24.358   8.738
 1188POPC   D2A17980  25.252  24.599   8.346
 1188POPC   C3A17981  25.476  24.464   7.993
 1188POPC   C4A17982  25.374  24.347   7.583
 1188POPC   C1B17983  24.761  24.304   8.725
 1188POPC   C2B17984  24.743  24.468   8.306
 1188POPC   C3B17985  24.966  24.328   7.933
 1188POPC   C4B17986  24.843  24.286   7.525
 1189POPC   NC317987  15.944  34.726   9.514
 1189POPC   PO417988  16.135  34.110   9.606
 1189POPC   GL117989  16.194  34.314   9.192
 1189POPC   GL217990  16.010  34.594   9.046
 1189POPC   C1A17991  16.062  34.210   8.734
 1189POPC   D2A17992  16.159  34.402   8.339
 1189POPC   C3A17993  16.056  34.432   7.908
 1189POPC   C4A17994  16.264  34.605   7.536
 1189POPC   C1B17995  15.853  34.687   8.648
 1189POPC   C2B17996  15.774  34.740   8.238
 1189POPC   C3B17997  15.925  34.940   7.883
 1189POPC   C4B17998  15.774  34.783   7.523
 1190POPC   NC317999  13.745   0.818   9.337
 1190POPC   PO418000  13.331   0.395   9.726
 1190POPC   GL118001  13.355   0.338   9.212
 1190POPC   GL218002  13.600   0.505   8.980
 1190POPC   C1A18003  13.208   0.297   8.762
 1190POPC   D2A18004  13.282   0.479   8.327
 1190POPC   C3A18005  13.635   0.366   8.060
 1190POPC   C4A18006  13.420   0.219   7.713
 1190POPC   C1B18007  13.472   0.816   8.672
 1190POPC   C2B18008  13.591   0.912   8.219
 1190POPC   C3B18009  13.420   0.767   7.833
 1190POPC   C4B18010  13.423   0.888   7.398
 1191POPC   NC318011   5.426  31.719   9.312
 1191POPC   PO418012   5.061  31.161   9.502
 1191POPC   GL118013   5.107  31.376   9.136
 1191POPC   GL218014   5.484  31.317   9.020
 1191POPC   C1A18015   5.164  31.581   8.726
 1191POPC   D2A18016   5.270  31.450   8.330
 1191POPC   C3A18017   5.251  31.766   8.013
 1191POPC   C4A18018   4.927  31.689   7.688
 1191POPC   C1B18019   5.193  31.061   8.768
 1191POPC   C2B18020   5.007  30.913   8.418
 1191POPC   C3B18021   4.930  31.106   8.052
 1191POPC   C4B18022   5.237  31.289   7.827
 1192POPC   NC318023  16.112  10.696   9.516
 1192POPC   PO418024  16.807  10.591   9.644
 1192POPC   GL118025  16.595  10.644   9.199
 1192POPC   GL218026  16.582  10.306   8.988
 1192POPC   C1A18027  16.786  10.728   8.773
 1192POPC   D2A18028  16.988  10.542   8.412
 1192POPC   C3A18029  16.842  10.730   8.052
 1192POPC   C4A18030  16.835  10.837   7.647
 1192POPC   C1B18031  16.285  10.178   8.635
 1192POPC   C2B18032  16.388  10.109   8.195
 1192POPC   C3B18033  16.547  10.332   7.821
 1192POPC   C4B18034  16.305  10.231   7.449
 1193POPC   NC318035  44.515  35.245   9.558
 1193POPC   PO418036  44.782  35.867   9.613
 1193POPC   GL118037  44.867  35.597   9.211
 1193POPC   GL218038  44.733  35.261   9.110
 1193POPC   C1A18039  44.916  35.632   8.750
 1193POPC   D2A18040  44.766  35.486   8.349
 1193POPC   C3A18041  44.976  35.608   7.957
 1193POPC   C4A18042  44.658  35.503   7.640
 1193POPC   C1B18043  44.546  35.009   8.783
 1193POPC   C2B18044  44.381  35.077   8.385
 1193POPC   C3B18045  44.519  35.026   7.961
 1193POPC   C4B18046  44.392  35.047   7.527
 1194POPC   NC318047  14.347  15.793   9.352
 1194POPC   PO418048  14.278  15.084   9.544
 1194POPC   GL118049  14.596  15.130   9.224
 1194POPC   GL218050  14.764  15.428   9.263
 1194POPC   C1A18051  14.584  14.954   8.799
 1194POPC   D2A18052  14.281  14.970   8.442
 1194POPC   C3A18053  14.472  15.011   8.026
 1194POPC   C4A18054  14.561  15.192   7.593
 1194POPC   C1B18055  14.567  15.485   8.829
 1194POPC   C2B18056  14.638  15.548   8.397
 1194POPC   C3B18057  14.514  15.519   7.978
 1194POPC   C4B18058  14.096  15.551   7.773
 1195POPC   NC318059  37.725  38.001   9.476
 1195POPC   PO418060  37.306  37.437   9.566
 1195POPC   GL118061  37.474  37.629   9.191
 1195POPC   GL218062  37.827  37.654   9.134
 1195POPC   C1A18063  37.406  37.569   8.739
 1195POPC   D2A18064  37.152  37.577   8.329
 1195POPC   C3A18065  37.453  37.637   7.977
 1195POPC   C4A18066  37.789  37.847   7.747
 1195POPC   C1B18067  37.946  37.568   8.726
 1195POPC   C2B18068  37.864  37.625   8.289
 1195POPC   C3B18069  37.981  37.422   7.891
 1195POPC   C4B18070  37.641  37.409   7.539
 1196POPC   NC318071  28.809  39.927   9.453
 1196POPC   PO418072  29.215  40.370   9.503
 1196POPC   GL118073  29.049  40.261   9.093
 1196POPC   GL218074  29.108  39.919   9.060
 1196POPC   C1A18075  29.168  40.151   8.637
 1196POPC   D2A18076  29.491  40.039   8.352
 1196POPC   C3A18077  29.342  40.197   7.953
 1196POPC   C4A18078  28.962  40.063   7.735
 1196POPC   C1B18079  29.259  39.654   8.765
 1196POPC   C2B18080  29.217  39.441   8.378
 1196POPC   C3B18081  29.349  39.674   8.019
 1196POPC   C4B18082  29.358  39.793   7.591
 1197POPC   NC318083   6.075  27.166   9.536
 1197POPC   PO418084   5.490  26.815   9.480
 1197POPC   GL118085   5.657  26.931   9.102
 1197POPC   GL218086   6.017  26.954   9.091
 1197POPC   C1A18087   5.796  26.668   8.749
 1197POPC   D2A18088   5.603  26.489   8.423
 1197POPC   C3A18089   5.535  26.722   8.071
 1197POPC   C4A18090   5.648  26.781   7.687
 1197POPC   C1B18091   5.900  27.167   8.696
 1197POPC   C2B18092   5.980  26.909   8.302
 1197POPC   C3B18093   6.086  26.982   7.859
 1197POPC   C4B18094   5.822  27.225   7.561
 1198POPC   NC318095  43.116  31.638   9.509
 1198POPC   PO418096  42.613  31.211   9.650
 1198POPC   GL118097  42.982  31.222   9.296
 1198POPC   GL218098  42.772  31.566   9.159
 1198POPC   C1A18099  43.170  31.363   8.872
 1198POPC   D2A18100  43.278  31.708   8.587
 1198POPC   C3A18101  43.185  31.586   8.162
 1198POPC   C4A18102  43.194  31.590   7.725
 1198POPC   C1B18103  42.730  31.607   8.726
 1198POPC   C2B18104  42.854  31.292   8.435
 1198POPC   C3B18105  42.710  31.265   8.035
 1198POPC   C4B18106  42.694  30.934   7.752
 1199POPC   NC318107   6.447   5.677   9.543
 1199POPC   PO418108   6.957   6.157   9.461
 1199POPC   GL118109   6.792   5.829   9.149
 1199POPC   GL218110   6.788   5.457   9.158
 1199POPC   C1A18111   6.800   5.784   8.691
 1199POPC   D2A18112   6.890   6.078   8.367
 1199POPC   C3A18113   6.875   5.958   7.960
 1199POPC   C4A18114   6.754   6.215   7.656
 1199POPC   C1B18115   6.390   5.576   8.920
 1199POPC   C2B18116   6.353   5.547   8.476
 1199POPC   C3B18117   6.472   5.700   8.106
 1199POPC   C4B18118   6.469   5.557   7.684
 1200POPC   NC318119   1.642  29.729   9.375
 1200POPC   PO418120   2.163  30.044   9.643
 1200POPC   GL118121   2.129  29.891   9.207
 1200POPC   GL218122   2.026  30.234   9.169
 1200POPC   C1A18123   2.031  29.654   8.786
 1200POPC   D2A18124   1.873  29.589   8.332
 1200POPC   C3A18125   1.860  29.886   7.965
 1200POPC   C4A18126   1.850  29.864   7.492
 1200POPC   C1B18127   1.852  30.142   8.771
 1200POPC   C2B18128   1.828  30.270   8.337
 1200POPC   C3B18129   1.809  30.515   7.994
 1200POPC   C4B18130   1.488  30.786   7.942
 1201POPC   NC318131  30.229  14.349   9.454
 1201POPC   PO418132  30.823  14.580   9.586
 1201POPC   GL118133  30.718  14.358   9.222
 1201POPC   GL218134  30.514  14.624   9.137
 1201POPC   C1A18135  30.583  14.234   8.798
 1201POPC   D2A18136  30.541  14.366   8.369
 1201POPC   C3A18137  30.493  14.124   7.978
 1201POPC   C4A18138  30.641  14.119   7.530
 1201POPC   C1B18139  30.428  14.788   8.739
 1201POPC   C2B18140  30.218  14.748   8.358
 1201POPC   C3B18141  30.484  14.763   8.032
 1201POPC   C4B18142  30.560  14.619   7.651
 1202POPC   NC318143  31.872  30.599   9.546
 1202POPC   PO418144  31.279  30.816   9.523
 1202POPC   GL118145  31.495  30.643   9.215
 1202POPC   GL218146  31.493  30.301   9.314
 1202POPC   C1A18147  31.673  30.746   8.847
 1202POPC   D2A18148  31.740  30.969   8.493
 1202POPC   C3A18149  31.468  30.887   8.178
 1202POPC   C4A18150  31.583  30.691   7.782
 1202POPC   C1B18151  31.436  30.284   8.874
 1202POPC   C2B18152  31.439  30.457   8.473
 1202POPC   C3B18153  31.298  30.400   8.074
 1202POPC   C4B18154  31.188  30.369   7.646
 1203POPC   NC318155  26.318  42.622   9.452
 1203POPC   PO418156  25.857  42.261   9.770
 1203POPC   GL118157  25.978  42.068   9.372
 1203POPC   GL218158  26.304  41.994   9.335
 1203POPC   C1A18159  25.804  41.958   8.969
 1203POPC   D2A18160  25.979  42.034   8.527
 1203POPC   C3A18161  25.987  42.251   8.146
 1203POPC   C4A18162  25.866  42.090   7.763
 1203POPC   C1B18163  26.309  42.091   8.907
 1203POPC   C2B18164  26.354  42.433   8.592
 1203POPC   C3B18165  26.366  42.598   8.160
 1203POPC   C4B18166  26.322  42.347   7.764
 1204POPC   NC318167  28.048  17.850   9.461
 1204POPC   PO418168  27.515  17.386   9.660
 1204POPC   GL118169  27.437  17.477   9.227
 1204POPC   GL218170  27.766  17.539   9.134
 1204POPC   C1A18171  27.413  17.627   8.774
 1204POPC   D2A18172  27.645  17.667   8.354
 1204POPC   C3A18173  27.464  17.784   7.974
 1204POPC   C4A18174  27.232  17.475   7.773
 1204POPC   C1B18175  27.849  17.370   8.709
 1204POPC   C2B18176  28.119  17.462   8.327
 1204POPC   C3B18177  28.054  17.623   7.944
 1204POPC   C4B18178  27.750  17.436   7.730
 1205POPC   NC318179  16.262  42.378   9.342
 1205POPC   PO418180  15.710  42.004   9.421
 1205POPC   GL118181  15.879  42.151   9.048
 1205POPC   GL218182  15.885  42.508   8.983
 1205POPC   C1A18183  15.903  42.136   8.611
 1205POPC   D2A18184  15.696  42.287   8.255
 1205POPC   C3A18185  15.927  42.150   7.902
 1205POPC   C4A18186  15.903  42.310   7.501
 1205POPC   C1B18187  16.096  42.629   8.587
 1205POPC   C2B18188  16.162  42.532   8.145
 1205POPC   C3B18189  16.261  42.616   7.722
 1205POPC   C4B18190  16.322  42.458   7.283
 1206POPC   NC318191  41.057  14.229   9.534
 1206POPC   PO418192  41.767  14.376   9.439
 1206POPC   GL118193  41.438  14.376   9.132
 1206POPC   GL218194  41.387  14.043   9.211
 1206POPC   C1A18195  41.473  14.479   8.687
 1206POPC   D2A18196  41.388  14.645   8.276
 1206POPC   C3A18197  41.691  14.419   8.069
 1206POPC   C4A18198  41.890  14.242   7.737
 1206POPC   C1B18199  41.480  13.943   8.819
 1206POPC   C2B18200  41.734  14.028   8.471
 1206POPC   C3B18201  41.574  13.923   8.086
 1206POPC   C4B18202  41.441  14.009   7.700
 1207POPC   NC318203  25.019  13.479   9.474
 1207POPC   PO418204  25.403  13.997   9.675
 1207POPC   GL118205  25.382  13.949   9.210
 1207POPC   GL218206  25.483  13.592   9.137
 1207POPC   C1A18207  25.533  13.927   8.751
 1207POPC   D2A18208  25.487  13.615   8.409
 1207POPC   C3A18209  25.490  13.798   7.977
 1207POPC   C4A18210  25.254  13.879   7.612
 1207POPC   C1B18211  25.119  13.667   8.854
 1207POPC   C2B18212  24.944  13.614   8.460
 1207POPC   C3B18213  25.104  13.464   8.094
 1207POPC   C4B18214  24.935  13.481   7.718
 1208POPC   NC318215  38.868  15.761   9.324
 1208POPC   PO418216  39.232  15.314   9.758
 1208POPC   GL118217  39.190  15.271   9.262
 1208POPC   GL218218  39.515  15.271   9.066
 1208POPC   C1A18219  39.106  15.029   8.862
 1208POPC   D2A18220  39.185  14.959   8.397
 1208POPC   C3A18221  39.042  15.307   8.126
 1208POPC   C4A18222  38.826  15.352   7.728
 1208POPC   C1B18223  39.484  15.329   8.618
 1208POPC   C2B18224  39.584  15.441   8.193
 1208POPC   C3B18225  39.465  15.425   7.768
 1208POPC   C4B18226  39.403  15.019   7.881
 1209POPC   NC318227   5.506  32.996   9.512
 1209POPC   PO418228   6.062  32.732   9.753
 1209POPC   GL118229   5.935  33.199   9.367
 1209POPC   GL218230   5.671  33.137   9.066
 1209POPC   C1A18231   6.084  33.266   8.849
 1209POPC   D2A18232   5.754  33.190   8.484
 1209POPC   C3A18233   5.940  33.291   8.073
 1209POPC   C4A18234   6.234  33.075   7.816
 1209POPC   C1B18235   5.490  32.752   8.874
 1209POPC   C2B18236   5.327  32.561   8.506
 1209POPC   C3B18237   5.466  32.738   8.130
 1209POPC   C4B18238   5.699  32.884   7.801
 1210POPC   NC318239   0.223  21.950   9.527
 1210POPC   PO418240   0.688  22.332   9.795
 1210POPC   GL118241   0.593  22.252   9.331
 1210POPC   GL218242   0.655  21.943   9.159
 1210POPC   C1A18243   0.408  22.316   8.909
 1210POPC   D2A18244   0.385  22.612   8.567
 1210POPC   C3A18245   0.517  22.455   8.152
 1210POPC   C4A18246   0.487  22.310   7.732
 1210POPC   C1B18247   0.789  21.983   8.778
 1210POPC   C2B18248   0.531  22.049   8.469
 1210POPC   C3B18249   0.623  21.949   8.090
 1210POPC   C4B18250   0.812  21.856   7.732
 1211POPC   NC318251   2.649  11.400   9.451
 1211POPC   PO418252   2.666  12.150   9.472
 1211POPC   GL118253   2.823  11.964   9.102
 1211POPC   GL218254   3.169  12.070   8.993
 1211POPC   C1A18255   2.766  12.115   8.674
 1211POPC   D2A18256   2.573  12.054   8.285
 1211POPC   C3A18257   2.712  12.055   7.858
 1211POPC   C4A18258   2.636  11.931   7.450
 1211POPC   C1B18259   3.133  12.460   8.733
 1211POPC   C2B18260   2.907  12.496   8.336
 1211POPC   C3B18261   2.973  12.477   7.905
 1211POPC   C4B18262   2.970  12.304   7.452
 1212POPC   NC318263  10.899  19.670   9.742
 1212POPC   PO418264  10.318  20.042   9.554
 1212POPC   GL118265  10.273  19.674   9.298
 1212POPC   GL218266  10.561  19.549   9.125
 1212POPC   C1A18267  10.214  19.795   8.859
 1212POPC   D2A18268  10.209  19.672   8.439
 1212POPC   C3A18269  10.501  19.793   8.121
 1212POPC   C4A18270  10.286  19.821   7.723
 1212POPC   C1B18271  10.701  19.707   8.703
 1212POPC   C2B18272  10.962  19.551   8.392
 1212POPC   C3B18273  10.957  19.547   7.984
 1212POPC   C4B18274  10.652  19.439   7.744
 1213POPC   NC318275   9.423  25.407   9.574
 1213POPC   PO418276   9.835  24.897   9.743
 1213POPC   GL118277   9.682  25.009   9.305
 1213POPC   GL218278   9.661  25.355   9.137
 1213POPC   C1A18279   9.741  24.945   8.855
 1213POPC   D2A18280   9.583  24.892   8.465
 1213POPC   C3A18281   9.809  24.965   8.103
 1213POPC   C4A18282   9.714  25.167   7.738
 1213POPC   C1B18283   9.898  25.453   8.778
 1213POPC   C2B18284  10.020  25.329   8.393
 1213POPC   C3B18285   9.936  25.521   8.025
 1213POPC   C4B18286  10.096  25.495   7.591
 1214POPC   NC318287  28.850  44.304   9.639
 1214POPC   PO418288  28.222  44.071   9.520
 1214POPC   GL118289  28.274  43.837   9.142
 1214POPC   GL218290  28.600  43.714   9.164
 1214POPC   C1A18291  28.479  43.965   8.723
 1214POPC   D2A18292  28.695  43.957   8.326
 1214POPC   C3A18293  28.377  44.049   8.032
 1214POPC   C4A18294  28.454  44.206   7.646
 1214POPC   C1B18295  28.489  43.464   8.791
 1214POPC   C2B18296  28.311  43.604   8.400
 1214POPC   C3B18297  28.483  43.556   7.997
 1214POPC   C4B18298  28.274  43.706   7.642
 1215POPC   NC318299  41.851  36.651   9.375
 1215POPC   PO418300  42.367  36.996   9.597
 1215POPC   GL118301  42.221  36.978   9.203
 1215POPC   GL218302  42.328  36.633   9.148
 1215POPC   C1A18303  42.135  36.978   8.764
 1215POPC   D2A18304  42.434  36.941   8.438
 1215POPC   C3A18305  42.270  36.949   8.047
 1215POPC   C4A18306  42.126  37.268   7.809
 1215POPC   C1B18307  42.081  36.481   8.800
 1215POPC   C2B18308  41.987  36.636   8.408
 1215POPC   C3B18309  42.049  36.504   8.007
 1215POPC   C4B18310  42.389  36.585   7.695
 1216POPC   NC318311  33.964  15.056   9.403
 1216POPC   PO418312  33.554  15.530   9.758
 1216POPC   GL118313  33.669  15.460   9.271
 1216POPC   GL218314  33.552  15.128   9.089
 1216POPC   C1A18315  33.669  15.505   8.795
 1216POPC   D2A18316  33.475  15.438   8.382
 1216POPC   C3A18317  33.780  15.436   8.020
 1216POPC   C4A18318  33.868  15.514   7.578
 1216POPC   C1B18319  33.673  14.954   8.677
 1216POPC   C2B18320  33.662  14.989   8.224
 1216POPC   C3B18321  33.730  14.985   7.767
 1216POPC   C4B18322  33.944  14.677   7.474
 1217POPC   NC318323   3.192  26.690   9.258
 1217POPC   PO418324   3.931  26.877   9.427
 1217POPC   GL118325   3.638  26.909   9.102
 1217POPC   GL218326   3.665  26.561   9.073
 1217POPC   C1A18327   3.481  26.840   8.667
 1217POPC   D2A18328   3.629  26.691   8.266
 1217POPC   C3A18329   3.539  26.787   7.816
 1217POPC   C4A18330   3.764  26.975   7.408
 1217POPC   C1B18331   3.577  26.316   8.690
 1217POPC   C2B18332   3.395  26.231   8.272
 1217POPC   C3B18333   3.667  26.221   7.899
 1217POPC   C4B18334   3.885  26.466   7.568
 1218POPC   NC318335   4.581  27.436   9.790
 1218POPC   PO418336   4.202  27.799   9.445
 1218POPC   GL118337   4.535  27.573   9.246
 1218POPC   GL218338   4.326  27.441   9.013
 1218POPC   C1A18339   4.700  27.702   8.814
 1218POPC   D2A18340   4.477  27.896   8.485
 1218POPC   C3A18341   4.543  27.689   8.130
 1218POPC   C4A18342   4.495  27.519   7.740
 1218POPC   C1B18343   4.381  27.344   8.600
 1218POPC   C2B18344   4.107  27.495   8.358
 1218POPC   C3B18345   4.036  27.566   7.989
 1218POPC   C4B18346   4.067  27.228   7.753
 1219POPC   NC318347  18.892  12.577   9.621
 1219POPC   PO418348  18.769  13.237   9.426
 1219POPC   GL118349  18.949  12.922   9.127
 1219POPC   GL218350  19.021  12.562   9.099
 1219POPC   C1A18351  19.135  12.878   8.721
 1219POPC   D2A18352  19.062  12.712   8.331
 1219POPC   C3A18353  19.184  12.936   7.982
 1219POPC   C4A18354  19.058  13.244   7.697
 1219POPC   C1B18355  18.795  12.474   8.707
 1219POPC   C2B18356  18.764  12.273   8.313
 1219POPC   C3B18357  18.785  12.531   7.951
 1219POPC   C4B18358  18.886  12.742   7.569
 1220POPC   NC318359  26.510   9.565   9.554
 1220POPC   PO418360  25.820   9.674   9.638
 1220POPC   GL118361  26.053   9.678   9.254
 1220POPC   GL218362  26.257   9.405   9.157
 1220POPC   C1A18363  26.043   9.707   8.808
 1220POPC   D2A18364  26.222   9.896   8.477
 1220POPC   C3A18365  26.223   9.630   8.150
 1220POPC   C4A18366  25.966   9.554   7.776
 1220POPC   C1B18367  26.509   9.468   8.824
 1220POPC   C2B18368  26.484   9.275   8.452
 1220POPC   C3B18369  26.677   9.322   8.086
 1220POPC   C4B18370  26.505   9.510   7.760
 1221POPC   NC318371  41.656  17.054   9.888
 1221POPC   PO418372  41.250  17.339   9.448
 1221POPC   GL118373  41.597  17.273   9.160
 1221POPC   GL218374  41.685  17.616   8.988
 1221POPC   C1A18375  41.611  17.206   8.715
 1221POPC   D2A18376  41.569  17.570   8.431
 1221POPC   C3A18377  41.734  17.405   8.054
 1221POPC   C4A18378  41.592  17.087   7.863
 1221POPC   C1B18379  41.839  17.931   8.709
 1221POPC   C2B18380  41.818  18.103   8.306
 1221POPC   C3B18381  41.737  17.896   7.932
 1221POPC   C4B18382  41.345  17.672   7.894
 1222POPC   NC318383  35.523  11.386   9.291
 1222POPC   PO418384  34.911  11.149   9.513
 1222POPC   GL118385  35.086  11.207   9.099
 1222POPC   GL218386  35.116  11.570   9.027
 1222POPC   C1A18387  35.219  11.155   8.659
 1222POPC   D2A18388  35.598  11.196   8.411
 1222POPC   C3A18389  35.578  11.070   8.000
 1222POPC   C4A18390  35.308  10.901   7.704
 1222POPC   C1B18391  35.210  11.665   8.609
 1222POPC   C2B18392  35.257  11.518   8.204
 1222POPC   C3B18393  35.200  11.420   7.795
 1222POPC   C4B18394  35.031  11.646   7.426
 1223POPC   NC318395  18.944  14.377   9.600
 1223POPC   PO418396  19.535  14.256   9.273
 1223POPC   GL118397  19.142  14.295   9.126
 1223POPC   GL218398  18.994  14.647   9.165
 1223POPC   C1A18399  19.208  14.217   8.702
 1223POPC   D2A18400  19.459  14.344   8.391
 1223POPC   C3A18401  19.327  14.157   8.024
 1223POPC   C4A18402  19.053  14.228   7.682
 1223POPC   C1B18403  19.232  14.742   8.817
 1223POPC   C2B18404  19.341  14.837   8.393
 1223POPC   C3B18405  19.181  14.665   8.063
 1223POPC   C4B18406  18.935  14.733   7.750
 1224POPC   NC318407   8.671   1.082   9.464
 1224POPC   PO418408   9.357   1.013   9.437
 1224POPC   GL118409   9.061   1.263   9.180
 1224POPC   GL218410   9.173   1.571   9.115
 1224POPC   C1A18411   8.813   1.320   8.791
 1224POPC   D2A18412   8.885   1.085   8.411
 1224POPC   C3A18413   8.839   1.183   7.998
 1224POPC   C4A18414   9.034   0.973   7.653
 1224POPC   C1B18415   9.295   1.479   8.731
 1224POPC   C2B18416   9.414   1.166   8.476
 1224POPC   C3B18417   9.373   1.077   8.048
 1224POPC   C4B18418   9.312   1.430   7.774
 1225POPC   NC318419   9.374  10.993   9.613
 1225POPC   PO418420   8.701  11.246   9.546
 1225POPC   GL118421   8.917  11.137   9.135
 1225POPC   GL218422   9.303  11.158   9.123
 1225POPC   C1A18423   8.949  11.263   8.704
 1225POPC   D2A18424   8.899  11.510   8.352
 1225POPC   C3A18425   8.679  11.338   8.011
 1225POPC   C4A18426   8.824  11.132   7.645
 1225POPC   C1B18427   9.437  11.085   8.697
 1225POPC   C2B18428   9.235  10.958   8.318
 1225POPC   C3B18429   9.305  10.772   7.921
 1225POPC   C4B18430   9.248  10.884   7.490
 1226POPC   NC318431  26.992  26.335   9.672
 1226POPC   PO418432  26.408  26.062   9.466
 1226POPC   GL118433  26.659  25.943   9.126
 1226POPC   GL218434  27.036  25.966   9.183
 1226POPC   C1A18435  26.531  25.746   8.732
 1226POPC   D2A18436  26.648  25.554   8.344
 1226POPC   C3A18437  27.055  25.713   8.176
 1226POPC   C4A18438  26.992  25.991   7.820
 1226POPC   C1B18439  26.952  26.045   8.712
 1226POPC   C2B18440  26.727  26.085   8.305
 1226POPC   C3B18441  26.733  26.399   7.966
 1226POPC   C4B18442  26.923  26.419   7.527
 1227POPC   NC318443   5.603   9.916   9.484
 1227POPC   PO418444   6.113   9.533   9.581
 1227POPC   GL118445   6.057   9.681   9.128
 1227POPC   GL218446   5.757   9.914   8.966
 1227POPC   C1A18447   6.097   9.725   8.664
 1227POPC   D2A18448   5.715   9.818   8.431
 1227POPC   C3A18449   5.899   9.693   8.048
 1227POPC   C4A18450   5.930   9.722   7.610
 1227POPC   C1B18451   6.018  10.220   8.673
 1227POPC   C2B18452   6.011  10.168   8.227
 1227POPC   C3B18453   5.671  10.107   7.874
 1227POPC   C4B18454   5.771  10.173   7.423
 1228POPC   NC318455   3.315   6.441   9.530
 1228POPC   PO418456   3.989   6.305   9.444
 1228POPC   GL118457   3.824   6.541   9.062
 1228POPC   GL218458   3.436   6.524   9.049
 1228POPC   C1A18459   3.647   6.728   8.651
 1228POPC   D2A18460   3.348   6.532   8.356
 1228POPC   C3A18461   3.600   6.401   8.048
 1228POPC   C4A18462   3.846   6.603   7.783
 1228POPC   C1B18463   3.147   6.755   8.760
 1228POPC   C2B18464   3.311   7.071   8.443
 1228POPC   C3B18465   3.531   6.930   8.071
 1228POPC   C4B18466   3.265   6.687   7.780
 1229POPC   NC318467  36.496  32.925   9.544
 1229POPC   PO418468  36.056  33.513   9.459
 1229POPC   GL118469  36.202  33.201   9.234
 1229POPC   GL218470  35.992  32.908   9.281
 1229POPC   C1A18471  36.318  33.000   8.877
 1229POPC   D2A18472  36.214  33.132   8.493
 1229POPC   C3A18473  36.370  33.124   8.108
 1229POPC   C4A18474  36.212  33.277   7.744
 1229POPC   C1B18475  35.782  32.972   8.870
 1229POPC   C2B18476  35.827  32.828   8.428
 1229POPC   C3B18477  36.154  32.639   8.186
 1229POPC   C4B18478  36.115  32.773   7.769
 1230POPC   NC318479   9.330  18.733   9.520
 1230POPC   PO418480   9.913  19.119   9.456
 1230POPC   GL118481   9.711  19.038   9.105
 1230POPC   GL218482   9.576  18.732   9.085
 1230POPC   C1A18483   9.782  18.965   8.685
 1230POPC   D2A18484  10.032  19.110   8.401
 1230POPC   C3A18485   9.733  19.115   8.131
 1230POPC   C4A18486   9.491  19.030   7.807
 1230POPC   C1B18487   9.478  18.549   8.752
 1230POPC   C2B18488   9.400  18.758   8.389
 1230POPC   C3B18489   9.438  18.578   8.015
 1230POPC   C4B18490   9.586  18.580   7.572
 1231POPC   NC318491  28.281  41.289   9.504
 1231POPC   PO418492  28.366  40.580   9.559
 1231POPC   GL118493  28.514  40.851   9.234
 1231POPC   GL218494  28.247  40.976   9.108
 1231POPC   C1A18495  28.684  40.897   8.809
 1231POPC   D2A18496  28.839  40.819   8.390
 1231POPC   C3A18497  28.610  40.863   7.990
 1231POPC   C4A18498  28.544  40.786   7.542
 1231POPC   C1B18499  28.170  40.836   8.718
 1231POPC   C2B18500  28.353  40.607   8.385
 1231POPC   C3B18501  28.137  40.628   8.017
 1231POPC   C4B18502  28.125  40.974   7.738
 1232POPC   NC318503   4.805  32.471   9.537
 1232POPC   PO418504   5.319  32.104   9.523
 1232POPC   GL118505   5.414  32.261   9.152
 1232POPC   GL218506   5.148  32.505   9.139
 1232POPC   C1A18507   5.288  32.091   8.774
 1232POPC   D2A18508   5.072  32.093   8.407
 1232POPC   C3A18509   5.235  32.288   8.052
 1232POPC   C4A18510   5.115  32.152   7.669
 1232POPC   C1B18511   4.892  32.433   8.775
 1232POPC   C2B18512   4.831  32.626   8.365
 1232POPC   C3B18513   4.786  32.501   7.951
 1232POPC   C4B18514   4.741  32.471   7.503
 1233POPC   NC318515   0.967  14.439   9.467
 1233POPC   PO418516   1.622  14.653   9.504
 1233POPC   GL118517   1.331  14.630   9.177
 1233POPC   GL218518   1.365  14.238   9.210
 1233POPC   C1A18519   1.124  14.771   8.811
 1233POPC   D2A18520   1.075  14.618   8.396
 1233POPC   C3A18521   1.163  14.778   7.983
 1233POPC   C4A18522   1.071  14.482   7.644
 1233POPC   C1B18523   1.205  14.249   8.811
 1233POPC   C2B18524   1.295  14.116   8.433
 1233POPC   C3B18525   1.195  14.178   8.043
 1233POPC   C4B18526   1.243  14.011   7.635
 1234POPC   NC318527  27.107  16.213  10.030
 1234POPC   PO418528  26.696  16.055   9.557
 1234POPC   GL118529  26.580  15.964   9.147
 1234POPC   GL218530  26.924  16.058   9.112
 1234POPC   C1A18531  26.675  15.895   8.714
 1234POPC   D2A18532  26.863  15.718   8.367
 1234POPC   C3A18533  26.663  15.892   8.044
 1234POPC   C4A18534  27.014  16.053   7.868
 1234POPC   C1B18535  27.022  16.277   8.772
 1234POPC   C2B18536  26.922  16.251   8.356
 1234POPC   C3B18537  26.955  16.523   8.021
 1234POPC   C4B18538  26.970  16.471   7.578
 1235POPC   NC318539  29.279  36.725   9.612
 1235POPC   PO418540  28.855  37.240   9.526
 1235POPC   GL118541  29.073  36.981   9.191
 1235POPC   GL218542  29.363  36.764   9.122
 1235POPC   C1A18543  28.956  36.775   8.802
 1235POPC   D2A18544  29.052  36.926   8.402
 1235POPC   C3A18545  28.868  36.743   8.055
 1235POPC   C4A18546  29.070  36.762   7.678
 1235POPC   C1B18547  29.416  37.053   8.778
 1235POPC   C2B18548  29.502  37.190   8.368
 1235POPC   C3B18549  29.659  37.256   7.917
 1235POPC   C4B18550  29.478  37.051   7.528
 1236POPC   NC318551  42.095  15.520   9.553
 1236POPC   PO418552  42.461  14.951   9.505
 1236POPC   GL118553  42.227  14.958   9.154
 1236POPC   GL218554  41.922  15.111   9.249
 1236POPC   C1A18555  42.308  15.016   8.753
 1236POPC   D2A18556  42.161  15.208   8.432
 1236POPC   C3A18557  42.291  15.028   8.065
 1236POPC   C4A18558  42.423  14.934   7.656
 1236POPC   C1B18559  41.896  15.337   8.858
 1236POPC   C2B18560  41.833  15.577   8.431
 1236POPC   C3B18561  41.952  15.439   8.037
 1236POPC   C4B18562  42.246  15.414   7.732
 1237POPC   NC318563   4.015  30.366   9.185
 1237POPC   PO418564   4.487  30.733   9.525
 1237POPC   GL118565   4.521  30.804   9.094
 1237POPC   GL218566   4.183  30.856   9.037
 1237POPC   C1A18567   4.500  30.610   8.672
 1237POPC   D2A18568   4.546  30.769   8.255
 1237POPC   C3A18569   4.420  30.550   7.884
 1237POPC   C4A18570   4.621  30.599   7.518
 1237POPC   C1B18571   4.000  30.775   8.608
 1237POPC   C2B18572   4.047  30.734   8.169
 1237POPC   C3B18573   4.061  30.926   7.767
 1237POPC   C4B18574   4.191  30.800   7.333
 1238POPC   NC318575  14.796   3.036   9.482
 1238POPC   PO418576  15.241   2.464   9.622
 1238POPC   GL118577  15.233   2.793   9.252
 1238POPC   GL218578  14.935   2.817   9.024
 1238POPC   C1A18579  15.354   2.986   8.820
 1238POPC   D2A18580  15.066   3.000   8.467
 1238POPC   C3A18581  15.243   2.933   8.034
 1238POPC   C4A18582  15.516   3.109   7.675
 1238POPC   C1B18583  15.079   2.525   8.707
 1238POPC   C2B18584  15.060   2.515   8.274
 1238POPC   C3B18585  15.130   2.424   7.844
 1238POPC   C4B18586  14.840   2.343   7.516
 1239POPC   NC318587  34.777  22.663   9.512
 1239POPC   PO418588  34.286  23.117   9.540
 1239POPC   GL118589  34.420  22.814   9.181
 1239POPC   GL218590  34.188  22.521   9.157
 1239POPC   C1A18591  34.768  22.767   8.782
 1239POPC   D2A18592  34.797  22.806   8.282
 1239POPC   C3A18593  34.705  23.118   7.931
 1239POPC   C4A18594  34.910  23.121   7.514
 1239POPC   C1B18595  34.315  22.564   8.761
 1239POPC   C2B18596  34.455  22.446   8.375
 1239POPC   C3B18597  34.362  22.689   8.004
 1239POPC   C4B18598  34.008  22.991   7.910
 1240POPC   NC318599  38.913  33.833   9.379
 1240POPC   PO418600  39.521  33.882   9.655
 1240POPC   GL118601  39.383  33.964   9.229
 1240POPC   GL218602  39.462  33.604   9.192
 1240POPC   C1A18603  39.200  33.836   8.793
 1240POPC   D2A18604  38.910  33.652   8.449
 1240POPC   C3A18605  39.132  33.790   8.079
 1240POPC   C4A18606  39.487  34.110   7.992
 1240POPC   C1B18607  39.331  33.343   8.853
 1240POPC   C2B18608  39.417  33.510   8.449
 1240POPC   C3B18609  39.627  33.617   8.089
 1240POPC   C4B18610  39.440  33.636   7.698
 1241POPC   NC318611   2.380  20.244   9.184
 1241POPC   PO418612   2.805  20.756   9.487
 1241POPC   GL118613   2.569  20.713   9.148
 1241POPC   GL218614   2.823  20.469   9.055
 1241POPC   C1A18615   2.408  20.785   8.773
 1241POPC   D2A18616   2.665  20.643   8.474
 1241POPC   C3A18617   2.520  20.827   8.111
 1241POPC   C4A18618   2.651  20.802   7.708
 1241POPC   C1B18619   3.152  20.511   8.778
 1241POPC   C2B18620   3.207  20.693   8.425
 1241POPC   C3B18621   2.982  20.601   8.073
 1241POPC   C4B18622   3.084  20.519   7.688
 1242POPC   NC318623  34.508  20.403   9.544
 1242POPC   PO418624  35.119  20.656   9.742
 1242POPC   GL118625  34.855  20.711   9.355
 1242POPC   GL218626  34.916  20.389   9.167
 1242POPC   C1A18627  34.610  20.744   8.938
 1242POPC   D2A18628  34.493  20.660   8.485
 1242POPC   C3A18629  34.295  20.807   8.085
 1242POPC   C4A18630  34.589  20.813   7.745
 1242POPC   C1B18631  34.960  20.443   8.692
 1242POPC   C2B18632  35.133  20.318   8.299
 1242POPC   C3B18633  34.946  20.156   7.904
 1242POPC   C4B18634  34.764  20.379   7.511
 1243POPC   NC318635  43.861  10.027   9.488
 1243POPC   PO418636  43.884   9.324   9.514
 1243POPC   GL118637  43.816   9.591   9.202
 1243POPC   GL218638  44.125   9.753   9.139
 1243POPC   C1A18639  43.838   9.497   8.762
 1243POPC   D2A18640  44.004   9.616   8.385
 1243POPC   C3A18641  43.846   9.415   8.027
 1243POPC   C4A18642  43.589   9.578   7.703
 1243POPC   C1B18643  43.861  10.004   8.849
 1243POPC   C2B18644  43.635  10.067   8.472
 1243POPC   C3B18645  43.744   9.925   8.074
 1243POPC   C4B18646  43.887  10.004   7.676
 1244POPC   NC318647   8.011  17.254   9.579
 1244POPC   PO418648   7.388  17.497   9.567
 1244POPC   GL118649   7.561  17.326   9.219
 1244POPC   GL218650   7.271  17.465   9.048
 1244POPC   C1A18651   7.707  17.343   8.805
 1244POPC   D2A18652   7.526  17.571   8.490
 1244POPC   C3A18653   7.493  17.460   8.082
 1244POPC   C4A18654   7.768  17.239   7.866
 1244POPC   C1B18655   7.068  17.680   8.707
 1244POPC   C2B18656   7.121  17.836   8.289
 1244POPC   C3B18657   7.039  17.676   7.882
 1244POPC   C4B18658   7.177  17.488   7.488
 1245POPC   NC318659  13.280  28.883   9.348
 1245POPC   PO418660  12.868  29.336   9.672
 1245POPC   GL118661  12.876  29.248   9.217
 1245POPC   GL218662  12.785  28.930   9.121
 1245POPC   C1A18663  12.873  29.264   8.729
 1245POPC   D2A18664  13.229  29.177   8.416
 1245POPC   C3A18665  13.129  29.042   7.989
 1245POPC   C4A18666  12.838  29.252   7.745
 1245POPC   C1B18667  13.026  28.774   8.770
 1245POPC   C2B18668  12.881  28.770   8.387
 1245POPC   C3B18669  12.641  28.812   8.069
 1245POPC   C4B18670  12.754  28.665   7.704
 1246POPC   NC318671  44.967  17.157   9.520
 1246POPC   PO418672  44.592  17.774   9.655
 1246POPC   GL118673  44.552  17.802   9.213
 1246POPC   GL218674  44.635  17.450   9.227
 1246POPC   C1A18675  44.815  17.817   8.821
 1246POPC   D2A18676  44.929  17.646   8.426
 1246POPC   C3A18677  44.640  17.678   8.058
 1246POPC   C4A18678  44.760  17.680   7.627
 1246POPC   C1B18679  44.548  17.384   8.804
 1246POPC   C2B18680  44.716  17.128   8.522
 1246POPC   C3B18681  44.863  17.217   8.160
 1246POPC   C4B18682  44.712  17.216   7.786
 1247POPC   NC318683   8.134  21.046   9.511
 1247POPC   PO418684   8.698  20.576   9.557
 1247POPC   GL118685   8.442  20.664   9.181
 1247POPC   GL218686   8.375  21.003   9.059
 1247POPC   C1A18687   8.359  20.580   8.782
 1247POPC   D2A18688   8.172  20.918   8.548
 1247POPC   C3A18689   8.090  20.819   8.138
 1247POPC   C4A18690   8.054  20.704   7.723
 1247POPC   C1B18691   8.647  20.988   8.705
 1247POPC   C2B18692   8.561  21.118   8.291
 1247POPC   C3B18693   8.476  21.031   7.867
 1247POPC   C4B18694   8.538  20.614   7.656
 1248POPC   NC318695   7.134  22.619   9.254
 1248POPC   PO418696   6.648  23.162   9.419
 1248POPC   GL118697   6.652  22.913   9.089
 1248POPC   GL218698   6.327  22.995   9.014
 1248POPC   C1A18699   6.740  22.808   8.702
 1248POPC   D2A18700   7.086  22.887   8.416
 1248POPC   C3A18701   6.901  22.832   8.037
 1248POPC   C4A18702   6.902  22.673   7.645
 1248POPC   C1B18703   6.161  22.956   8.652
 1248POPC   C2B18704   6.325  22.752   8.357
 1248POPC   C3B18705   6.365  22.913   7.985
 1248POPC   C4B18706   6.444  22.987   7.576
 1249POPC   NC318707  38.321   7.951   9.482
 1249POPC   PO418708  38.549   8.550   9.529
 1249POPC   GL118709  38.537   8.314   9.178
 1249POPC   GL218710  38.192   8.415   9.176
 1249POPC   C1A18711  38.612   8.123   8.773
 1249POPC   D2A18712  38.433   8.012   8.358
 1249POPC   C3A18713  38.579   8.187   7.967
 1249POPC   C4A18714  38.745   7.904   7.708
 1249POPC   C1B18715  38.363   8.579   8.787
 1249POPC   C2B18716  38.508   8.538   8.387
 1249POPC   C3B18717  38.301   8.609   8.026
 1249POPC   C4B18718  38.296   8.505   7.610
 1250POPC   NC318719  16.024  19.407   9.752
 1250POPC   PO418720  15.682  19.904   9.423
 1250POPC   GL118721  16.016  19.876   9.130
 1250POPC   GL218722  16.256  20.147   9.190
 1250POPC   C1A18723  15.999  19.718   8.708
 1250POPC   D2A18724  15.656  19.749   8.407
 1250POPC   C3A18725  15.762  19.893   7.985
 1250POPC   C4A18726  15.620  19.625   7.649
 1250POPC   C1B18727  16.126  20.231   8.750
 1250POPC   C2B18728  16.192  20.041   8.354
 1250POPC   C3B18729  16.287  19.984   7.935
 1250POPC   C4B18730  16.220  20.245   7.553
 1251POPC   NC318731  22.572  27.379   9.541
 1251POPC   PO418732  23.144  27.619   9.769
 1251POPC   GL118733  22.984  27.608   9.331
 1251POPC   GL218734  23.317  27.751   9.252
 1251POPC   C1A18735  22.765  27.490   8.896
 1251POPC   D2A18736  22.657  27.610   8.456
 1251POPC   C3A18737  22.913  27.585   8.084
 1251POPC   C4A18738  23.095  27.530   7.699
 1251POPC   C1B18739  23.215  27.757   8.801
 1251POPC   C2B18740  23.332  27.631   8.375
 1251POPC   C3B18741  23.496  27.756   7.966
 1251POPC   C4B18742  23.441  27.850   7.551
 1252POPC   NC318743  36.624  31.999   9.410
 1252POPC   PO418744  37.219  32.280   9.524
 1252POPC   GL118745  37.001  32.253   9.158
 1252POPC   GL218746  37.204  32.428   8.981
 1252POPC   C1A18747  36.875  32.155   8.727
 1252POPC   D2A18748  36.986  32.371   8.357
 1252POPC   C3A18749  37.250  32.162   8.084
 1252POPC   C4A18750  36.938  32.051   7.805
 1252POPC   C1B18751  37.075  32.701   8.730
 1252POPC   C2B18752  37.106  32.889   8.356
 1252POPC   C3B18753  37.184  32.665   7.971
 1252POPC   C4B18754  36.920  32.523   7.651
 1253POPC   NC318755  29.952  35.939   9.446
 1253POPC   PO418756  29.518  36.361   9.470
 1253POPC   GL118757  29.659  36.200   9.108
 1253POPC   GL218758  29.568  35.881   9.068
 1253POPC   C1A18759  29.956  36.115   8.776
 1253POPC   D2A18760  29.980  36.398   8.430
 1253POPC   C3A18761  29.824  36.306   8.047
 1253POPC   C4A18762  30.042  36.378   7.653
 1253POPC   C1B18763  29.467  35.923   8.687
 1253POPC   C2B18764  29.340  35.987   8.302
 1253POPC   C3B18765  29.480  35.924   7.885
 1253POPC   C4B18766  29.519  35.782   7.460
 1254POPC   NC318767   2.260  10.483   9.329
 1254POPC   PO418768   2.758  10.690   9.806
 1254POPC   GL118769   2.724  10.662   9.342
 1254POPC   GL218770   2.863  10.939   9.186
 1254POPC   C1A18771   2.725  10.463   8.892
 1254POPC   D2A18772   2.857  10.172   8.559
 1254POPC   C3A18773   2.651  10.213   8.148
 1254POPC   C4A18774   2.711  10.389   7.752
 1254POPC   C1B18775   2.821  10.949   8.738
 1254POPC   C2B18776   2.841  10.639   8.385
 1254POPC   C3B18777   2.988  10.776   7.966
 1254POPC   C4B18778   2.888  10.837   7.536
 1255POPC   NC318779  41.339  22.905   9.340
 1255POPC   PO418780  41.925  22.680   9.509
 1255POPC   GL118781  41.767  22.807   9.109
 1255POPC   GL218782  41.727  23.164   9.050
 1255POPC   C1A18783  41.639  22.771   8.691
 1255POPC   D2A18784  41.802  23.011   8.331
 1255POPC   C3A18785  41.667  22.755   8.026
 1255POPC   C4A18786  41.601  22.790   7.586
 1255POPC   C1B18787  41.396  23.218   8.721
 1255POPC   C2B18788  41.303  23.114   8.251
 1255POPC   C3B18789  41.558  23.231   7.868
 1255POPC   C4B18790  41.529  23.252   7.412
 1256POPC   NC318791   2.544   8.044   9.620
 1256POPC   PO418792   2.997   8.539   9.525
 1256POPC   GL118793   2.894   8.214   9.251
 1256POPC   GL218794   2.563   8.272   9.164
 1256POPC   C1A18795   2.962   7.932   8.889
 1256POPC   D2A18796   2.782   7.929   8.458
 1256POPC   C3A18797   3.020   8.096   8.172
 1256POPC   C4A18798   2.942   8.177   7.749
 1256POPC   C1B18799   2.668   8.345   8.740
 1256POPC   C2B18800   2.536   8.465   8.336
 1256POPC   C3B18801   2.669   8.577   7.931
 1256POPC   C4B18802   2.527   8.445   7.517
 1257POPC   NC318803  25.506  39.580   9.540
 1257POPC   PO418804  25.495  40.282   9.530
 1257POPC   GL118805  25.388  40.221   9.104
 1257POPC   GL218806  25.211  39.891   9.094
 1257POPC   C1A18807  25.368  40.117   8.673
 1257POPC   D2A18808  25.496  40.139   8.297
 1257POPC   C3A18809  25.230  39.886   8.104
 1257POPC   C4A18810  25.121  39.990   7.733
 1257POPC   C1B18811  25.601  39.722   8.903
 1257POPC   C2B18812  25.697  39.689   8.460
 1257POPC   C3B18813  25.609  39.556   8.041
 1257POPC   C4B18814  25.382  39.571   7.674
 1258POPC   NC318815   2.669  15.829   9.546
 1258POPC   PO418816   3.350  16.046   9.646
 1258POPC   GL118817   3.161  15.891   9.259
 1258POPC   GL218818   3.018  16.192   9.230
 1258POPC   C1A18819   2.984  15.709   8.843
 1258POPC   D2A18820   2.651  15.766   8.502
 1258POPC   C3A18821   2.803  15.877   8.095
 1258POPC   C4A18822   3.009  15.608   7.807
 1258POPC   C1B18823   2.756  16.164   8.869
 1258POPC   C2B18824   2.798  16.272   8.453
 1258POPC   C3B18825   2.839  16.408   8.058
 1258POPC   C4B18826   2.622  16.243   7.755
 1259POPC   NC318827   1.333   4.142   9.513
 1259POPC   PO418828   0.947   4.700   9.514
 1259POPC   GL118829   1.210   4.520   9.156
 1259POPC   GL218830   1.513   4.304   9.066
 1259POPC   C1A18831   1.075   4.339   8.729
 1259POPC   D2A18832   1.277   4.282   8.335
 1259POPC   C3A18833   1.193   4.461   7.928
 1259POPC   C4A18834   0.842   4.275   7.740
 1259POPC   C1B18835   1.740   4.173   8.696
 1259POPC   C2B18836   1.680   3.990   8.303
 1259POPC   C3B18837   1.579   4.119   7.906
 1259POPC   C4B18838   1.339   4.160   7.533
 1260POPC   NC318839  34.280  13.501   9.520
 1260POPC   PO418840  34.764  13.939   9.563
 1260POPC   GL118841  34.655  13.757   9.200
 1260POPC   GL218842  34.757  13.425   9.294
 1260POPC   C1A18843  34.531  13.854   8.781
 1260POPC   D2A18844  34.364  13.734   8.403
 1260POPC   C3A18845  34.533  13.851   8.065
 1260POPC   C4A18846  34.547  13.677   7.736
 1260POPC   C1B18847  34.543  13.327   8.906
 1260POPC   C2B18848  34.696  13.313   8.510
 1260POPC   C3B18849  34.745  13.350   8.093
 1260POPC   C4B18850  34.957  13.403   7.670
 1261POPC   NC318851  23.215  29.007   9.899
 1261POPC   PO418852  22.916  29.199   9.304
 1261POPC   GL118853  22.974  29.178   8.934
 1261POPC   GL218854  23.069  28.862   8.931
 1261POPC   C1A18855  23.155  29.352   8.591
 1261POPC   D2A18856  22.975  29.366   8.179
 1261POPC   C3A18857  23.094  29.373   7.768
 1261POPC   C4A18858  22.885  29.046   7.523
 1261POPC   C1B18859  23.052  28.834   8.531
 1261POPC   C2B18860  23.334  28.975   8.289
 1261POPC   C3B18861  23.169  28.898   7.946
 1261POPC   C4B18862  23.163  28.629   7.657
 1262POPC   NC318863  11.657  16.402   9.825
 1262POPC   PO418864  11.710  15.820   9.511
 1262POPC   GL118865  12.057  15.863   9.222
 1262POPC   GL218866  11.970  16.172   9.183
 1262POPC   C1A18867  12.104  15.755   8.785
 1262POPC   D2A18868  11.814  15.773   8.390
 1262POPC   C3A18869  11.938  15.871   7.949
 1262POPC   C4A18870  12.276  15.613   7.737
 1262POPC   C1B18871  11.841  16.186   8.710
 1262POPC   C2B18872  11.692  16.256   8.274
 1262POPC   C3B18873  11.711  16.391   7.836
 1262POPC   C4B18874  11.832  16.315   7.394
 1263POPC   NC318875  41.476  25.730   9.599
 1263POPC   PO418876  41.298  26.374   9.464
 1263POPC   GL118877  41.348  26.119   9.069
 1263POPC   GL218878  41.279  25.757   9.143
 1263POPC   C1A18879  41.407  26.105   8.575
 1263POPC   D2A18880  41.235  26.369   8.244
 1263POPC   C3A18881  41.357  26.312   7.796
 1263POPC   C4A18882  41.755  26.136   7.662
 1263POPC   C1B18883  41.537  25.686   8.842
 1263POPC   C2B18884  41.478  25.586   8.431
 1263POPC   C3B18885  41.522  25.859   8.090
 1263POPC   C4B18886  41.411  25.779   7.691
 1264POPC   NC318887  11.043  26.531   9.596
 1264POPC   PO418888  11.510  26.993   9.410
 1264POPC   GL118889  11.357  26.664   9.127
 1264POPC   GL218890  11.112  26.372   9.130
 1264POPC   C1A18891  11.391  26.802   8.682
 1264POPC   D2A18892  11.248  27.135   8.414
 1264POPC   C3A18893  11.424  27.071   8.018
 1264POPC   C4A18894  11.582  26.707   7.826
 1264POPC   C1B18895  10.947  26.580   8.770
 1264POPC   C2B18896  10.997  26.688   8.310
 1264POPC   C3B18897  11.049  26.725   7.841
 1264POPC   C4B18898  10.921  26.718   7.366
 1265POPC   NC318899  28.833  41.879   9.626
 1265POPC   PO418900  28.149  41.796   9.596
 1265POPC   GL118901  28.402  41.767   9.234
 1265POPC   GL218902  28.136  41.570   9.095
 1265POPC   C1A18903  28.401  41.872   8.766
 1265POPC   D2A18904  28.601  41.682   8.345
 1265POPC   C3A18905  28.469  41.819   7.925
 1265POPC   C4A18906  28.062  41.752   7.740
 1265POPC   C1B18907  28.438  41.355   8.819
 1265POPC   C2B18908  28.427  41.157   8.401
 1265POPC   C3B18909  28.377  41.329   7.993
 1265POPC   C4B18910  28.622  41.288   7.627
 1266POPC   NC318911  39.667  16.094   9.823
 1266POPC   PO418912  39.033  16.203   9.502
 1266POPC   GL118913  39.146  16.091   9.080
 1266POPC   GL218914  38.984  16.378   9.006
 1266POPC   C1A18915  39.427  15.909   8.765
 1266POPC   D2A18916  39.250  15.759   8.397
 1266POPC   C3A18917  39.431  15.887   8.015
 1266POPC   C4A18918  39.071  15.809   7.768
 1266POPC   C1B18919  39.018  16.197   8.611
 1266POPC   C2B18920  39.077  16.221   8.200
 1266POPC   C3B18921  39.205  16.293   7.828
 1266POPC   C4B18922  39.574  16.226   7.630
 1267POPC   NC318923   2.255  22.240   9.692
 1267POPC   PO418924   1.599  22.308   9.718
 1267POPC   GL118925   1.695  22.276   9.232
 1267POPC   GL218926   2.034  22.168   9.120
 1267POPC   C1A18927   1.666  22.142   8.760
 1267POPC   D2A18928   1.908  22.220   8.352
 1267POPC   C3A18929   1.713  22.231   7.930
 1267POPC   C4A18930   1.900  22.379   7.527
 1267POPC   C1B18931   2.067  22.480   8.780
 1267POPC   C2B18932   2.356  22.515   8.455
 1267POPC   C3B18933   2.470  22.380   8.071
 1267POPC   C4B18934   2.368  22.488   7.658
 1268POPC   NC318935  20.459   4.651   9.771
 1268POPC   PO418936  20.767   5.186   9.415
 1268POPC   GL118937  20.580   5.152   9.057
 1268POPC   GL218938  20.941   5.059   8.938
 1268POPC   C1A18939  20.522   4.973   8.661
 1268POPC   D2A18940  20.702   4.755   8.332
 1268POPC   C3A18941  20.698   5.064   8.001
 1268POPC   C4A18942  20.335   5.159   7.770
 1268POPC   C1B18943  20.785   5.414   8.682
 1268POPC   C2B18944  20.494   5.447   8.341
 1268POPC   C3B18945  20.524   5.600   7.930
 1268POPC   C4B18946  20.754   5.405   7.567
 1269POPC   NC318947  34.979  42.066   9.393
 1269POPC   PO418948  35.081  42.768   9.408
 1269POPC   GL118949  35.205  42.454   9.128
 1269POPC   GL218950  35.522  42.420   9.240
 1269POPC   C1A18951  35.448  42.160   8.825
 1269POPC   D2A18952  35.604  42.278   8.419
 1269POPC   C3A18953  35.279  42.210   8.149
 1269POPC   C4A18954  35.325  42.217   7.749
 1269POPC   C1B18955  35.532  42.669   8.811
 1269POPC   C2B18956  35.479  42.821   8.399
 1269POPC   C3B18957  35.599  42.646   8.015
 1269POPC   C4B18958  35.775  42.822   7.605
 1270POPC   NC318959  31.632  42.662   9.561
 1270POPC   PO418960  31.161  42.178   9.531
 1270POPC   GL118961  31.377  42.380   9.211
 1270POPC   GL218962  31.573  42.119   9.092
 1270POPC   C1A18963  31.498  42.524   8.812
 1270POPC   D2A18964  31.631  42.336   8.433
 1270POPC   C3A18965  31.557  42.536   8.061
 1270POPC   C4A18966  31.372  42.413   7.692
 1270POPC   C1B18967  31.817  41.949   8.757
 1270POPC   C2B18968  31.708  41.828   8.357
 1270POPC   C3B18969  31.577  42.029   7.978
 1270POPC   C4B18970  31.570  41.987   7.526
 1271POPC   NC318971   0.293  38.754   9.545
 1271POPC   PO418972   0.605  39.366   9.649
 1271POPC   GL118973   0.340  39.229   9.307
 1271POPC   GL218974   0.671  39.203   9.139
 1271POPC   C1A18975   0.267  39.312   8.837
 1271POPC   D2A18976   0.669  39.138   8.590
 1271POPC   C3A18977   0.720  38.973   8.190
 1271POPC   C4A18978   0.509  38.954   7.785
 1271POPC   C1B18979   0.688  39.582   8.848
 1271POPC   C2B18980   0.481  39.577   8.437
 1271POPC   C3B18981   0.319  39.285   8.148
 1271POPC   C4B18982   0.120  39.317   7.760
 1272POPC   NC318983  33.580  26.385   9.673
 1272POPC   PO418984  33.407  26.961   9.797
 1272POPC   GL118985  33.636  26.798   9.357
 1272POPC   GL218986  33.878  26.538   9.273
 1272POPC   C1A18987  33.819  26.896   8.906
 1272POPC   D2A18988  33.674  27.056   8.509
 1272POPC   C3A18989  33.658  26.845   8.106
 1272POPC   C4A18990  33.666  27.024   7.701
 1272POPC   C1B18991  33.733  26.398   8.845
 1272POPC   C2B18992  33.865  26.541   8.467
 1272POPC   C3B18993  33.813  26.364   8.059
 1272POPC   C4B18994  33.824  26.553   7.721
 1273POPC   NC318995  26.469   0.914   9.462
 1273POPC   PO418996  26.774   1.484   9.534
 1273POPC   GL118997  26.865   1.162   9.211
 1273POPC   GL218998  27.175   1.312   9.134
 1273POPC   C1A18999  26.927   0.941   8.798
 1273POPC   D2A19000  26.714   0.902   8.389
 1273POPC   C3A19001  26.908   1.077   7.988
 1273POPC   C4A19002  26.765   1.138   7.561
 1273POPC   C1B19003  26.963   1.447   8.759
 1273POPC   C2B19004  26.788   1.445   8.345
 1273POPC   C3B19005  26.757   1.559   7.904
 1273POPC   C4B19006  27.111   1.570   7.652
 1274POPC   NC319007  39.505  12.431   9.511
 1274POPC   PO419008  39.214  11.851   9.652
 1274POPC   GL119009  39.106  11.891   9.229
 1274POPC   GL219010  39.265  12.176   9.110
 1274POPC   C1A19011  39.092  11.820   8.785
 1274POPC   D2A19012  38.955  12.003   8.391
 1274POPC   C3A19013  39.017  11.827   7.963
 1274POPC   C4A19014  38.938  11.715   7.497
 1274POPC   C1B19015  39.502  12.117   8.696
 1274POPC   C2B19016  39.411  12.262   8.288
 1274POPC   C3B19017  39.340  12.221   7.849
 1274POPC   C4B19018  38.985  12.205   7.585
 1275POPC   NC319019  30.108  42.884   9.632
 1275POPC   PO419020  29.475  43.118   9.651
 1275POPC   GL119021  29.779  43.147   9.317
 1275POPC   GL219022  29.806  42.801   9.223
 1275POPC   C1A19023  29.824  43.210   8.883
 1275POPC   D2A19024  29.698  43.454   8.548
 1275POPC   C3A19025  29.929  43.394   8.180
 1275POPC   C4A19026  29.764  43.266   7.795
 1275POPC   C1B19027  29.877  42.713   8.795
 1275POPC   C2B19028  30.042  42.955   8.443
 1275POPC   C3B19029  30.041  42.864   7.994
 1275POPC   C4B19030  29.975  42.886   7.520
 1276POPC   NC319031  34.339  39.008   9.609
 1276POPC   PO419032  34.955  39.270   9.636
 1276POPC   GL119033  34.579  39.327   9.237
 1276POPC   GL219034  34.244  39.140   9.143
 1276POPC   C1A19035  34.427  39.477   8.830
 1276POPC   D2A19036  34.419  39.219   8.469
 1276POPC   C3A19037  34.569  39.313   8.078
 1276POPC   C4A19038  34.425  39.258   7.665
 1276POPC   C1B19039  34.160  38.901   8.792
 1276POPC   C2B19040  33.971  38.972   8.373
 1276POPC   C3B19041  34.211  38.914   8.000
 1276POPC   C4B19042  34.014  38.967   7.611
 1277POPC   NC319043  24.730  34.312   9.261
 1277POPC   PO419044  24.238  34.583   9.636
 1277POPC   GL119045  24.309  34.687   9.213
 1277POPC   GL219046  24.634  34.801   9.113
 1277POPC   C1A19047  24.297  34.509   8.795
 1277POPC   D2A19048  24.374  34.674   8.416
 1277POPC   C3A19049  24.220  34.493   8.054
 1277POPC   C4A19050  24.605  34.357   7.901
 1277POPC   C1B19051  24.818  34.733   8.701
 1277POPC   C2B19052  24.867  34.788   8.243
 1277POPC   C3B19053  24.692  34.876   7.831
 1277POPC   C4B19054  24.631  34.856   7.383
 1278POPC   NC319055  32.859  14.325   9.417
 1278POPC   PO419056  33.459  14.150   9.586
 1278POPC   GL119057  33.351  14.257   9.145
 1278POPC   GL219058  33.201  14.604   9.153
 1278POPC   C1A19059  33.179  14.371   8.715
 1278POPC   D2A19060  32.973  14.169   8.379
 1278POPC   C3A19061  33.110  14.188   7.965
 1278POPC   C4A19062  32.789  14.182   7.699
 1278POPC   C1B19063  32.800  14.665   8.876
 1278POPC   C2B19064  32.710  14.610   8.438
 1278POPC   C3B19065  32.804  14.630   8.004
 1278POPC   C4B19066  32.985  14.649   7.599
 1279POPC   NC319067  34.461  11.034   9.419
 1279POPC   PO419068  34.734  10.518   9.726
 1279POPC   GL119069  34.756  10.614   9.287
 1279POPC   GL219070  34.636  10.292   9.240
 1279POPC   C1A19071  34.553  10.655   8.872
 1279POPC   D2A19072  34.486  10.433   8.473
 1279POPC   C3A19073  34.479  10.671   8.101
 1279POPC   C4A19074  34.565  10.466   7.726
 1279POPC   C1B19075  34.804  10.220   8.840
 1279POPC   C2B19076  34.895  10.112   8.433
 1279POPC   C3B19077  34.685  10.094   8.046
 1279POPC   C4B19078  34.855   9.992   7.643
 1280POPC   NC319079   1.811  39.514   9.505
 1280POPC   PO419080   2.414  39.131   9.626
 1280POPC   GL119081   2.171  39.216   9.252
 1280POPC   GL219082   2.233  39.573   9.185
 1280POPC   C1A19083   2.050  39.080   8.815
 1280POPC   D2A19084   1.977  39.311   8.397
 1280POPC   C3A19085   1.770  39.132   8.014
 1280POPC   C4A19086   1.884  39.061   7.581
 1280POPC   C1B19087   2.344  39.502   8.760
 1280POPC   C2B19088   2.460  39.520   8.315
 1280POPC   C3B19089   2.288  39.308   7.954
 1280POPC   C4B19090   2.002  39.533   7.716
 1281POPC   NC319091  15.731   5.292   9.526
 1281POPC   PO419092  16.205   4.861   9.508
 1281POPC   GL119093  16.025   5.030   9.165
 1281POPC   GL219094  16.167   5.339   9.209
 1281POPC   C1A19095  16.113   5.097   8.740
 1281POPC   D2A19096  15.860   5.067   8.382
 1281POPC   C3A19097  16.037   5.002   8.014
 1281POPC   C4A19098  15.701   4.965   7.708
 1281POPC   C1B19099  15.811   5.486   8.914
 1281POPC   C2B19100  15.624   5.520   8.506
 1281POPC   C3B19101  15.705   5.435   8.051
 1281POPC   C4B19102  15.985   5.389   7.709
 1282POPC   NC319103  22.529  43.346   9.298
 1282POPC   PO419104  23.066  42.972   9.574
 1282POPC   GL119105  23.145  43.009   9.132
 1282POPC   GL219106  22.828  43.031   9.044
 1282POPC   C1A19107  23.279  43.290   8.747
 1282POPC   D2A19108  23.120  43.538   8.370
 1282POPC   C3A19109  23.155  43.261   7.999
 1282POPC   C4A19110  23.171  42.880   7.783
 1282POPC   C1B19111  22.534  42.996   8.715
 1282POPC   C2B19112  22.520  43.163   8.306
 1282POPC   C3B19113  22.625  43.274   7.878
 1282POPC   C4B19114  22.522  43.500   7.460
 1283POPC   NC319115  14.886  12.136   9.533
 1283POPC   PO419116  15.544  11.929   9.475
 1283POPC   GL119117  15.258  12.132   9.177
 1283POPC   GL219118  14.908  11.972   9.068
 1283POPC   C1A19119  15.272  12.054   8.739
 1283POPC   D2A19120  15.358  12.239   8.373
 1283POPC   C3A19121  15.083  12.293   8.030
 1283POPC   C4A19122  15.361  12.328   7.698
 1283POPC   C1B19123  14.890  11.689   8.747
 1283POPC   C2B19124  14.961  11.851   8.379
 1283POPC   C3B19125  15.148  11.787   8.060
 1283POPC   C4B19126  14.980  11.923   7.665
 1284POPC   NC319127   6.377  32.508   9.463
 1284POPC   PO419128   6.536  31.898   9.471
 1284POPC   GL119129   6.639  32.206   9.133
 1284POPC   GL219130   7.022  32.289   9.069
 1284POPC   C1A19131   6.662  32.475   8.768
 1284POPC   D2A19132   6.540  32.519   8.346
 1284POPC   C3A19133   6.867  32.365   8.132
 1284POPC   C4A19134   6.930  32.283   7.724
 1284POPC   C1B19135   6.917  31.947   8.817
 1284POPC   C2B19136   6.653  31.993   8.505
 1284POPC   C3B19137   6.747  31.868   8.129
 1284POPC   C4B19138   6.785  31.746   7.760
 1285POPC   NC319139  21.032  15.655   9.465
 1285POPC   PO419140  21.591  16.095   9.573
 1285POPC   GL119141  21.365  16.003   9.226
 1285POPC   GL219142  21.573  15.768   9.133
 1285POPC   C1A19143  21.181  16.030   8.809
 1285POPC   D2A19144  21.230  16.232   8.410
 1285POPC   C3A19145  21.223  15.976   8.055
 1285POPC   C4A19146  21.135  16.144   7.632
 1285POPC   C1B19147  21.711  15.638   8.752
 1285POPC   C2B19148  21.537  15.649   8.363
 1285POPC   C3B19149  21.536  15.556   7.950
 1285POPC   C4B19150  21.533  15.820   7.606
 1286POPC   NC319151   4.385  17.905   9.642
 1286POPC   PO419152   4.035  17.320   9.730
 1286POPC   GL119153   4.233  17.537   9.289
 1286POPC   GL219154   4.381  17.819   9.132
 1286POPC   C1A19155   4.321  17.403   8.825
 1286POPC   D2A19156   4.251  17.311   8.383
 1286POPC   C3A19157   4.604  17.306   8.134
 1286POPC   C4A19158   4.532  17.325   7.729
 1286POPC   C1B19159   4.698  17.736   8.795
 1286POPC   C2B19160   4.525  17.725   8.416
 1286POPC   C3B19161   4.344  17.749   8.023
 1286POPC   C4B19162   4.544  17.870   7.677
 1287POPC   NC319163  35.769   8.298   9.515
 1287POPC   PO419164  36.329   7.817   9.470
 1287POPC   GL119165  36.164   7.882   9.074
 1287POPC   GL219166  35.794   7.928   9.120
 1287POPC   C1A19167  36.066   8.235   8.796
 1287POPC   D2A19168  35.898   8.373   8.399
 1287POPC   C3A19169  36.232   8.447   8.109
 1287POPC   C4A19170  36.395   8.351   7.707
 1287POPC   C1B19171  35.834   7.788   8.688
 1287POPC   C2B19172  36.043   7.819   8.282
 1287POPC   C3B19173  36.014   8.034   7.911
 1287POPC   C4B19174  35.888   8.374   7.688
 1288POPC   NC319175  22.227  40.241   9.568
 1288POPC   PO419176  21.715  39.925   9.366
 1288POPC   GL119177  22.028  40.175   9.100
 1288POPC   GL219178  22.331  39.967   9.097
 1288POPC   C1A19179  22.216  40.238   8.680
 1288POPC   D2A19180  22.005  40.040   8.345
 1288POPC   C3A19181  22.209  39.982   7.963
 1288POPC   C4A19182  22.236  40.224   7.604
 1288POPC   C1B19183  22.138  39.709   8.761
 1288POPC   C2B19184  22.043  39.502   8.353
 1288POPC   C3B19185  21.762  39.704   8.067
 1288POPC   C4B19186  21.849  39.846   7.640
 1289POPC   NC319187  32.540  12.444   9.317
 1289POPC   PO419188  31.864  12.375   9.437
 1289POPC   GL119189  32.151  12.185   9.087
 1289POPC   GL219190  32.286  11.829   9.045
 1289POPC   C1A19191  32.039  12.093   8.685
 1289POPC   D2A19192  31.742  11.912   8.467
 1289POPC   C3A19193  31.897  12.049   8.122
 1289POPC   C4A19194  32.149  12.078   7.766
 1289POPC   C1B19195  32.527  11.923   8.677
 1289POPC   C2B19196  32.416  11.996   8.236
 1289POPC   C3B19197  32.482  11.704   7.890
 1289POPC   C4B19198  32.718  11.868   7.530
 1290POPC   NC319199  25.596  18.033   9.503
 1290POPC   PO419200  25.071  18.442   9.437
 1290POPC   GL119201  25.184  18.107   9.127
 1290POPC   GL219202  25.530  18.107   9.017
 1290POPC   C1A19203  25.190  17.984   8.678
 1290POPC   D2A19204  25.235  18.178   8.280
 1290POPC   C3A19205  25.137  17.991   7.920
 1290POPC   C4A19206  25.322  18.063   7.537
 1290POPC   C1B19207  25.543  18.393   8.676
 1290POPC   C2B19208  25.721  18.419   8.291
 1290POPC   C3B19209  25.635  18.322   7.854
 1290POPC   C4B19210  25.546  18.564   7.478
 1291POPC   NC319211   7.232  27.596   9.507
 1291POPC   PO419212   7.749  28.003   9.534
 1291POPC   GL119213   7.577  27.798   9.151
 1291POPC   GL219214   7.195  27.795   9.051
 1291POPC   C1A19215   7.615  27.812   8.717
 1291POPC   D2A19216   7.845  27.740   8.371
 1291POPC   C3A19217   7.627  27.565   8.007
 1291POPC   C4A19218   7.372  27.745   7.677
 1291POPC   C1B19219   7.232  27.484   8.753
 1291POPC   C2B19220   7.249  27.666   8.345
 1291POPC   C3B19221   7.114  27.455   7.991
 1291POPC   C4B19222   7.056  27.332   7.601
 1292POPC   NC319223  10.545  32.683   9.492
 1292POPC   PO419224  10.387  33.317   9.725
 1292POPC   GL119225  10.443  33.107   9.218
 1292POPC   GL219226  10.342  32.773   9.058
 1292POPC   C1A19227  10.644  33.019   8.760
 1292POPC   D2A19228  10.705  33.174   8.331
 1292POPC   C3A19229  10.652  32.873   8.019
 1292POPC   C4A19230  10.444  32.857   7.622
 1292POPC   C1B19231  10.127  32.673   8.729
 1292POPC   C2B19232  10.311  32.805   8.378
 1292POPC   C3B19233  10.117  32.764   7.989
 1292POPC   C4B19234   9.898  32.842   7.588
 1293POPC   NC319235  41.782   6.377   9.322
 1293POPC   PO419236  41.385   6.891   9.469
 1293POPC   GL119237  41.442   6.745   9.099
 1293POPC   GL219238  41.290   6.424   8.997
 1293POPC   C1A19239  41.651   6.712   8.729
 1293POPC   D2A19240  41.895   6.717   8.371
 1293POPC   C3A19241  41.674   6.724   7.988
 1293POPC   C4A19242  41.578   6.916   7.601
 1293POPC   C1B19243  41.558   6.185   8.716
 1293POPC   C2B19244  41.943   6.238   8.509
 1293POPC   C3B19245  42.023   6.304   8.047
 1293POPC   C4B19246  41.806   6.387   7.628
 1294POPC   NC319247   4.929  30.630   9.494
 1294POPC   PO419248   5.435  30.234   9.529
 1294POPC   GL119249   5.324  30.538   9.199
 1294POPC   GL219250   5.392  30.864   9.227
 1294POPC   C1A19251   5.024  30.577   8.830
 1294POPC   D2A19252   5.016  30.389   8.405
 1294POPC   C3A19253   4.943  30.581   7.985
 1294POPC   C4A19254   5.063  30.835   7.600
 1294POPC   C1B19255   5.550  30.707   8.789
 1294POPC   C2B19256   5.453  30.671   8.383
 1294POPC   C3B19257   5.381  30.841   8.016
 1294POPC   C4B19258   5.639  30.977   7.665
 1295POPC   NC319259  15.422  36.874   9.703
 1295POPC   PO419260  14.875  36.605   9.599
 1295POPC   GL119261  15.098  36.819   9.234
 1295POPC   GL219262  15.384  36.664   9.055
 1295POPC   C1A19263  15.168  37.022   8.794
 1295POPC   D2A19264  15.416  37.000   8.410
 1295POPC   C3A19265  15.186  37.099   8.059
 1295POPC   C4A19266  15.151  37.313   7.692
 1295POPC   C1B19267  15.215  36.499   8.687
 1295POPC   C2B19268  15.134  36.588   8.266
 1295POPC   C3B19269  15.334  36.639   7.872
 1295POPC   C4B19270  15.540  36.596   7.455
 1296POPC   NC319271  28.877  40.677   9.559
 1296POPC   PO419272  29.512  40.939   9.555
 1296POPC   GL119273  29.250  40.799   9.214
 1296POPC   GL219274  28.990  41.075   9.203
 1296POPC   C1A19275  29.160  40.658   8.778
 1296POPC   D2A19276  29.267  40.544   8.346
 1296POPC   C3A19277  29.162  40.783   7.987
 1296POPC   C4A19278  29.042  40.554   7.651
 1296POPC   C1B19279  29.256  41.152   8.860
 1296POPC   C2B19280  29.344  41.050   8.420
 1296POPC   C3B19281  29.586  41.086   8.015
 1296POPC   C4B19282  29.419  41.212   7.620
 1297POPC   NC319283  17.133  40.253   9.307
 1297POPC   PO419284  17.770  39.973   9.505
 1297POPC   GL119285  17.539  39.903   9.129
 1297POPC   GL219286  17.223  39.715   9.131
 1297POPC   C1A19287  17.695  39.820   8.720
 1297POPC   D2A19288  17.698  40.063   8.355
 1297POPC   C3A19289  17.666  39.831   8.000
 1297POPC   C4A19290  17.550  39.962   7.610
 1297POPC   C1B19291  17.284  39.506   8.752
 1297POPC   C2B19292  17.282  39.748   8.363
 1297POPC   C3B19293  17.197  40.024   8.002
 1297POPC   C4B19294  17.095  39.763   7.624
 1298POPC   NC319295  39.915  10.588   9.513
 1298POPC   PO419296  40.514  10.698   9.786
 1298POPC   GL119297  40.408  10.625   9.267
 1298POPC   GL219298  40.057  10.542   9.051
 1298POPC   C1A19299  40.465  10.477   8.795
 1298POPC   D2A19300  40.155  10.307   8.451
 1298POPC   C3A19301  40.117  10.532   8.041
 1298POPC   C4A19302  40.248  10.484   7.622
 1298POPC   C1B19303  39.710  10.434   8.783
 1298POPC   C2B19304  39.704  10.579   8.370
 1298POPC   C3B19305  39.640  10.351   8.011
 1298POPC   C4B19306  39.758  10.433   7.588
 1299POPC   NC319307   8.785  33.052   9.557
 1299POPC   PO419308   9.361  33.329   9.828
 1299POPC   GL119309   9.217  33.249   9.387
 1299POPC   GL219310   9.455  33.194   9.206
 1299POPC   C1A19311   9.042  33.155   8.925
 1299POPC   D2A19312   8.965  32.854   8.583
 1299POPC   C3A19313   8.922  33.047   8.155
 1299POPC   C4A19314   9.060  32.874   7.758
 1299POPC   C1B19315   9.555  33.255   8.798
 1299POPC   C2B19316   9.252  33.320   8.478
 1299POPC   C3B19317   9.333  33.371   8.096
 1299POPC   C4B19318   9.081  33.393   7.745
 1300POPC   NC319319  20.529  28.226   9.656
 1300POPC   PO419320  21.078  28.592   9.496
 1300POPC   GL119321  20.741  28.488   9.187
 1300POPC   GL219322  20.386  28.445   9.176
 1300POPC   C1A19323  20.696  28.202   8.805
 1300POPC   D2A19324  20.489  27.998   8.417
 1300POPC   C3A19325  20.545  28.204   8.029
 1300POPC   C4A19326  20.723  28.280   7.614
 1300POPC   C1B19327  20.495  28.678   8.782
 1300POPC   C2B19328  20.477  28.871   8.392
 1300POPC   C3B19329  20.480  28.702   7.991
 1300POPC   C4B19330  20.790  28.791   7.707
 1301POPC   NC319331  40.924  24.394   9.449
 1301POPC   PO419332  40.245  24.391   9.420
 1301POPC   GL119333  40.525  24.498   9.122
 1301POPC   GL219334  40.686  24.172   9.060
 1301POPC   C1A19335  40.708  24.693   8.763
 1301POPC   D2A19336  40.968  24.805   8.401
 1301POPC   C3A19337  40.806  24.725   7.995
 1301POPC   C4A19338  40.663  24.421   7.750
 1301POPC   C1B19339  40.965  24.267   8.677
 1301POPC   C2B19340  41.065  24.335   8.233
 1301POPC   C3B19341  41.191  24.409   7.827
 1301POPC   C4B19342  41.042  24.151   7.507
 1302POPC   NC319343   6.040  21.668   9.504
 1302POPC   PO419344   6.010  21.008   9.448
 1302POPC   GL119345   5.845  21.338   9.137
 1302POPC   GL219346   6.074  21.609   9.019
 1302POPC   C1A19347   5.630  21.508   8.772
 1302POPC   D2A19348   5.699  21.423   8.337
 1302POPC   C3A19349   5.618  21.574   7.921
 1302POPC   C4A19350   5.634  21.278   7.514
 1302POPC   C1B19351   6.167  21.452   8.620
 1302POPC   C2B19352   6.131  21.148   8.274
 1302POPC   C3B19353   6.014  21.268   7.891
 1302POPC   C4B19354   6.270  21.618   7.768
 1303POPC   NC319355  44.623   0.647   9.478
 1303POPC   PO419356  44.339   0.049   9.420
 1303POPC   GL119357  44.550   0.265   9.136
 1303POPC   GL219358  44.881   0.183   9.125
 1303POPC   C1A19359  44.658   0.528   8.789
 1303POPC   D2A19360  44.585   0.787   8.440
 1303POPC   C3A19361  44.535   0.510   8.090
 1303POPC   C4A19362  44.539   0.451   7.643
 1303POPC   C1B19363   0.120   0.266   8.754
 1303POPC   C2B19364   0.006   0.379   8.326
 1303POPC   C3B19365  44.972   0.270   7.898
 1303POPC   C4B19366  44.992   0.297   7.432
 1304POPC   NC319367  17.242  21.502   9.563
 1304POPC   PO419368  17.715  21.067   9.571
 1304POPC   GL119369  17.505  21.110   9.191
 1304POPC   GL219370  17.517  21.459   9.143
 1304POPC   C1A19371  17.675  21.172   8.751
 1304POPC   D2A19372  17.487  20.961   8.429
 1304POPC   C3A19373  17.387  21.183   8.077
 1304POPC   C4A19374  17.712  21.184   7.795
 1304POPC   C1B19375  17.355  21.592   8.737
 1304POPC   C2B19376  17.402  21.664   8.290
 1304POPC   C3B19377  17.468  21.652   7.843
 1304POPC   C4B19378  17.835  21.752   7.551
 1305POPC   NC319379  29.665  28.256   9.688
 1305POPC   PO419380  30.269  28.389   9.541
 1305POPC   GL119381  29.930  28.430   9.263
 1305POPC   GL219382  29.895  28.089   9.189
 1305POPC   C1A19383  29.734  28.474   8.860
 1305POPC   D2A19384  29.902  28.411   8.462
 1305POPC   C3A19385  29.677  28.360   8.111
 1305POPC   C4A19386  29.696  28.574   7.780
 1305POPC   C1B19387  30.231  28.252   8.864
 1305POPC   C2B19388  30.402  28.386   8.434
 1305POPC   C3B19389  30.218  28.436   7.996
 1305POPC   C4B19390  30.146  28.148   7.656
 1306POPC   NC319391  23.303  27.234   9.560
 1306POPC   PO419392  23.840  27.573   9.346
 1306POPC   GL119393  24.062  27.774   9.026
 1306POPC   GL219394  23.716  27.850   8.911
 1306POPC   C1A19395  24.107  27.672   8.611
 1306POPC   D2A19396  23.852  27.678   8.306
 1306POPC   C3A19397  23.927  27.381   7.963
 1306POPC   C4A19398  23.870  27.599   7.597
 1306POPC   C1B19399  23.648  27.428   8.734
 1306POPC   C2B19400  23.622  27.203   8.339
 1306POPC   C3B19401  23.421  27.233   7.930
 1306POPC   C4B19402  23.500  27.305   7.440
 1307POPC   NC319403  13.275  15.873   9.285
 1307POPC   PO419404  13.917  15.695   9.504
 1307POPC   GL119405  13.768  15.881   9.139
 1307POPC   GL219406  13.642  16.209   9.189
 1307POPC   C1A19407  13.587  15.802   8.726
 1307POPC   D2A19408  13.786  15.818   8.355
 1307POPC   C3A19409  13.647  15.638   8.012
 1307POPC   C4A19410  13.635  15.799   7.643
 1307POPC   C1B19411  13.457  16.331   8.792
 1307POPC   C2B19412  13.404  16.166   8.373
 1307POPC   C3B19413  13.482  16.217   7.935
 1307POPC   C4B19414  13.292  16.511   7.652
 1308POPC   NC319415  35.244  31.532   9.479
 1308POPC   PO419416  35.856  31.256   9.470
 1308POPC   GL119417  35.693  31.171   9.077
 1308POPC   GL219418  35.358  31.359   9.023
 1308POPC   C1A19419  35.671  31.240   8.637
 1308POPC   D2A19420  35.378  31.485   8.457
 1308POPC   C3A19421  35.335  31.305   8.115
 1308POPC   C4A19422  35.598  31.369   7.764
 1308POPC   C1B19423  35.156  31.739   8.832
 1308POPC   C2B19424  34.973  31.766   8.356
 1308POPC   C3B19425  35.137  31.713   7.900
 1308POPC   C4B19426  35.169  31.820   7.420
 1309POPC   NC319427  37.689  20.540   9.917
 1309POPC   PO419428  37.392  20.321   9.364
 1309POPC   GL119429  37.670  20.593   9.078
 1309POPC   GL219430  37.919  20.857   9.085
 1309POPC   C1A19431  37.606  20.804   8.682
 1309POPC   D2A19432  37.428  20.587   8.334
 1309POPC   C3A19433  37.546  20.713   7.932
 1309POPC   C4A19434  37.511  20.311   7.743
 1309POPC   C1B19435  38.109  20.524   8.817
 1309POPC   C2B19436  38.275  20.355   8.443
 1309POPC   C3B19437  38.030  20.503   8.114
 1309POPC   C4B19438  37.959  20.521   7.689
 1310POPC   NC319439  10.132  41.087   9.368
 1310POPC   PO419440  10.726  40.757   9.617
 1310POPC   GL119441  10.616  40.682   9.184
 1310POPC   GL219442  10.261  40.604   9.105
 1310POPC   C1A19443  10.710  40.700   8.751
 1310POPC   D2A19444  10.555  40.854   8.368
 1310POPC   C3A19445  10.744  40.671   8.047
 1310POPC   C4A19446  10.501  40.742   7.741
 1310POPC   C1B19447  10.245  40.930   8.768
 1310POPC   C2B19448  10.039  41.038   8.396
 1310POPC   C3B19449  10.159  41.121   7.996
 1310POPC   C4B19450  10.074  40.963   7.617
 1311POPC   NC319451  42.560  29.975   9.540
 1311POPC   PO419452  42.273  29.334   9.530
 1311POPC   GL119453  42.405  29.644   9.180
 1311POPC   GL219454  42.370  30.036   9.081
 1311POPC   C1A19455  42.408  29.664   8.748
 1311POPC   D2A19456  42.556  29.830   8.359
 1311POPC   C3A19457  42.354  29.723   8.063
 1311POPC   C4A19458  42.323  29.622   7.691
 1311POPC   C1B19459  42.417  30.208   8.681
 1311POPC   C2B19460  42.300  30.333   8.260
 1311POPC   C3B19461  42.285  30.179   7.840
 1311POPC   C4B19462  42.638  30.031   7.649
 1312POPC   NC319463  38.505  35.669   9.473
 1312POPC   PO419464  38.415  35.021   9.526
 1312POPC   GL119465  38.345  35.260   9.159
 1312POPC   GL219466  38.150  35.568   9.124
 1312POPC   C1A19467  38.369  35.097   8.769
 1312POPC   D2A19468  38.632  35.123   8.440
 1312POPC   C3A19469  38.437  35.050   8.066
 1312POPC   C4A19470  38.588  35.174   7.703
 1312POPC   C1B19471  38.383  35.601   8.720
 1312POPC   C2B19472  38.500  35.629   8.288
 1312POPC   C3B19473  38.321  35.604   7.864
 1312POPC   C4B19474  38.174  35.662   7.413
 1313POPC   NC319475   0.210  39.625   9.639
 1313POPC   PO419476   0.487  40.270   9.479
 1313POPC   GL119477   0.582  40.012   9.145
 1313POPC   GL219478   0.339  39.740   9.163
 1313POPC   C1A19479   0.537  40.175   8.740
 1313POPC   D2A19480   0.256  40.485   8.513
 1313POPC   C3A19481   0.295  40.466   8.051
 1313POPC   C4A19482   0.087  40.504   7.644
 1313POPC   C1B19483   0.168  39.834   8.747
 1313POPC   C2B19484   0.275  40.016   8.321
 1313POPC   C3B19485   0.282  39.761   7.960
 1313POPC   C4B19486   0.600  39.471   7.760
 1314POPC   NC319487  11.587  11.535   9.474
 1314POPC   PO419488  11.334  10.927   9.639
 1314POPC   GL119489  11.408  11.100   9.229
 1314POPC   GL219490  11.731  11.129   9.152
 1314POPC   C1A19491  11.354  11.064   8.770
 1314POPC   D2A19492  11.035  11.181   8.444
 1314POPC   C3A19493  11.165  11.244   8.026
 1314POPC   C4A19494  11.433  11.574   7.867
 1314POPC   C1B19495  11.725  11.437   8.798
 1314POPC   C2B19496  11.555  11.382   8.381
 1314POPC   C3B19497  11.654  11.119   8.055
 1314POPC   C4B19498  11.858  11.319   7.727
 1315POPC   NC319499  13.637  31.149   9.516
 1315POPC   PO419500  13.636  30.506   9.647
 1315POPC   GL119501  13.583  30.701   9.245
 1315POPC   GL219502  13.912  30.862   9.156
 1315POPC   C1A19503  13.501  30.800   8.819
 1315POPC   D2A19504  13.640  30.850   8.425
 1315POPC   C3A19505  13.353  30.895   8.112
 1315POPC   C4A19506  13.304  31.226   7.838
 1315POPC   C1B19507  13.901  30.484   8.876
 1315POPC   C2B19508  13.879  30.367   8.432
 1315POPC   C3B19509  13.802  30.562   8.047
 1315POPC   C4B19510  13.809  30.965   7.877
 1316POPC   NC319511  40.692   3.192   9.480
 1316POPC   PO419512  40.867   3.858   9.639
 1316POPC   GL119513  40.796   3.609   9.224
 1316POPC   GL219514  41.116   3.504   9.140
 1316POPC   C1A19515  40.555   3.404   8.814
 1316POPC   D2A19516  40.723   3.397   8.323
 1316POPC   C3A19517  40.510   3.444   7.875
 1316POPC   C4A19518  40.617   3.581   7.420
 1316POPC   C1B19519  40.977   3.662   8.731
 1316POPC   C2B19520  40.979   3.903   8.358
 1316POPC   C3B19521  41.103   3.993   7.976
 1316POPC   C4B19522  41.009   3.595   7.868
 1317POPC   NC319523   4.188   7.772   9.443
 1317POPC   PO419524   4.373   7.146   9.508
 1317POPC   GL119525   4.361   7.371   9.129
 1317POPC   GL219526   4.686   7.292   9.087
 1317POPC   C1A19527   4.310   7.516   8.691
 1317POPC   D2A19528   4.124   7.762   8.346
 1317POPC   C3A19529   4.107   7.521   7.969
 1317POPC   C4A19530   4.476   7.424   7.759
 1317POPC   C1B19531   4.581   7.079   8.715
 1317POPC   C2B19532   4.403   7.178   8.299
 1317POPC   C3B19533   4.641   7.010   7.970
 1317POPC   C4B19534   4.524   6.889   7.556
 1318POPC   NC319535  34.652  11.466   9.738
 1318POPC   PO419536  34.018  11.594   9.444
 1318POPC   GL119537  34.385  11.570   9.107
 1318POPC   GL219538  34.653  11.464   9.208
 1318POPC   C1A19539  34.675  11.636   8.733
 1318POPC   D2A19540  34.806  11.400   8.405
 1318POPC   C3A19541  34.539  11.225   8.100
 1318POPC   C4A19542  34.668  11.394   7.721
 1318POPC   C1B19543  34.675  11.144   8.833
 1318POPC   C2B19544  34.806  10.890   8.483
 1318POPC   C3B19545  35.040  11.026   8.130
 1318POPC   C4B19546  34.806  10.905   7.769
 1319POPC   NC319547  24.735   1.363   9.364
 1319POPC   PO419548  25.303   1.020   9.571
 1319POPC   GL119549  25.209   1.240   9.182
 1319POPC   GL219550  24.985   1.041   8.986
 1319POPC   C1A19551  25.448   1.353   8.826
 1319POPC   D2A19552  25.486   1.001   8.536
 1319POPC   C3A19553  25.317   1.122   8.151
 1319POPC   C4A19554  25.537   1.186   7.768
 1319POPC   C1B19555  24.963   1.366   8.646
 1319POPC   C2B19556  24.902   1.465   8.204
 1319POPC   C3B19557  25.075   1.422   7.799
 1319POPC   C4B19558  25.031   1.365   7.373
 1320POPC   NC319559  23.454   5.696   9.325
 1320POPC   PO419560  23.883   5.952   9.732
 1320POPC   GL119561  23.987   5.896   9.254
 1320POPC   GL219562  23.755   6.083   9.085
 1320POPC   C1A19563  23.990   5.802   8.747
 1320POPC   D2A19564  23.811   5.533   8.390
 1320POPC   C3A19565  23.538   5.630   8.013
 1320POPC   C4A19566  23.723   5.655   7.570
 1320POPC   C1B19567  23.631   6.211   8.690
 1320POPC   C2B19568  23.700   6.043   8.287
 1320POPC   C3B19569  23.983   5.886   7.972
 1320POPC   C4B19570  23.958   6.094   7.582
 1321POPC   NC319571  33.809  12.848   9.493
 1321POPC   PO419572  33.198  12.468   9.518
 1321POPC   GL119573  33.438  12.635   9.165
 1321POPC   GL219574  33.569  13.000   9.064
 1321POPC   C1A19575  33.320  12.713   8.732
 1321POPC   D2A19576  33.576  12.977   8.432
 1321POPC   C3A19577  33.621  12.777   7.998
 1321POPC   C4A19578  33.889  12.454   7.772
 1321POPC   C1B19579  33.999  13.131   8.904
 1321POPC   C2B19580  34.173  13.288   8.520
 1321POPC   C3B19581  34.218  13.314   8.058
 1321POPC   C4B19582  34.015  12.993   7.752
 1322POPC   NC319583  28.067  16.215   9.751
 1322POPC   PO419584  28.522  15.761   9.441
 1322POPC   GL119585  28.535  15.839   9.056
 1322POPC   GL219586  28.724  16.109   9.075
 1322POPC   C1A19587  28.281  15.814   8.713
 1322POPC   D2A19588  28.151  16.031   8.365
 1322POPC   C3A19589  28.222  15.857   7.993
 1322POPC   C4A19590  28.437  15.819   7.605
 1322POPC   C1B19591  28.540  16.237   8.688
 1322POPC   C2B19592  28.614  16.238   8.260
 1322POPC   C3B19593  28.515  16.279   7.837
 1322POPC   C4B19594  28.553  16.271   7.391
 1323POPC   NC319595  39.915   2.774   9.387
 1323POPC   PO419596  40.447   2.444   9.363
 1323POPC   GL119597  40.220   2.636   8.986
 1323POPC   GL219598  40.173   3.010   8.922
 1323POPC   C1A19599  40.020   2.665   8.563
 1323POPC   D2A19600  40.113   2.994   8.239
 1323POPC   C3A19601  40.143   2.931   7.797
 1323POPC   C4A19602  39.823   2.659   7.582
 1323POPC   C1B19603  40.475   2.906   8.614
 1323POPC   C2B19604  40.507   2.509   8.428
 1323POPC   C3B19605  40.469   2.631   8.058
 1323POPC   C4B19606  40.232   2.425   7.772
 1324POPC   NC319607  28.037   3.433   9.591
 1324POPC   PO419608  28.686   3.485   9.727
 1324POPC   GL119609  28.471   3.480   9.272
 1324POPC   GL219610  28.162   3.703   9.195
 1324POPC   C1A19611  28.469   3.622   8.802
 1324POPC   D2A19612  28.504   3.529   8.364
 1324POPC   C3A19613  28.246   3.761   8.103
 1324POPC   C4A19614  28.294   3.705   7.629
 1324POPC   C1B19615  28.027   3.409   8.873
 1324POPC   C2B19616  27.974   3.383   8.390
 1324POPC   C3B19617  28.102   3.329   7.915
 1324POPC   C4B19618  28.081   3.270   7.415
 1325POPC   NC319619  19.609  44.274   9.537
 1325POPC   PO419620  20.021  44.761   9.588
 1325POPC   GL119621  19.982  44.673   9.156
 1325POPC   GL219622  19.928  44.313   9.101
 1325POPC   C1A19623  19.844  44.773   8.725
 1325POPC   D2A19624  20.030  44.618   8.340
 1325POPC   C3A19625  20.071  44.803   7.933
 1325POPC   C4A19626  19.910   0.193   7.799
 1325POPC   C1B19627  19.695  44.263   8.685
 1325POPC   C2B19628  19.574  44.263   8.236
 1325POPC   C3B19629  19.819  44.333   7.880
 1325POPC   C4B19630  20.093  44.404   7.573
 1326POPC   NC319631   9.457  17.927   9.434
 1326POPC   PO419632   9.771  18.555   9.496
 1326POPC   GL119633   9.754  18.257   9.170
 1326POPC   GL219634  10.103  18.177   9.108
 1326POPC   C1A19635   9.720  18.083   8.748
 1326POPC   D2A19636   9.487  18.201   8.379
 1326POPC   C3A19637   9.633  18.096   7.970
 1326POPC   C4A19638   9.885  18.126   7.617
 1326POPC   C1B19639  10.001  18.522   8.796
 1326POPC   C2B19640   9.866  18.553   8.377
 1326POPC   C3B19641   9.942  18.554   7.960
 1326POPC   C4B19642  10.075  18.922   7.806
 1327POPC   NC319643  10.953  11.187   9.450
 1327POPC   PO419644  10.430  11.516   9.665
 1327POPC   GL119645  10.446  11.294   9.281
 1327POPC   GL219646  10.687  11.521   9.135
 1327POPC   C1A19647  10.347  11.276   8.834
 1327POPC   D2A19648  10.550  11.378   8.446
 1327POPC   C3A19649  10.345  11.177   8.118
 1327POPC   C4A19650  10.215  11.071   7.677
 1327POPC   C1B19651  10.929  11.578   8.754
 1327POPC   C2B19652  10.925  11.753   8.314
 1327POPC   C3B19653  10.841  11.605   7.893
 1327POPC   C4B19654  10.717  11.136   7.764
 1328POPC   NC319655  44.086  12.566   9.247
 1328POPC   PO419656  43.970  13.186   9.540
 1328POPC   GL119657  43.846  13.161   9.137
 1328POPC   GL219658  43.541  12.979   9.207
 1328POPC   C1A19659  44.061  13.043   8.753
 1328POPC   D2A19660  43.918  12.975   8.336
 1328POPC   C3A19661  44.166  13.019   7.941
 1328POPC   C4A19662  44.137  12.689   7.601
 1328POPC   C1B19663  43.487  12.921   8.773
 1328POPC   C2B19664  43.274  12.799   8.377
 1328POPC   C3B19665  43.424  12.487   8.096
 1328POPC   C4B19666  43.723  12.753   7.901
 1329POPC   NC319667  38.146  17.228   9.883
 1329POPC   PO419668  37.744  17.600   9.517
 1329POPC   GL119669  37.601  17.437   9.145
 1329POPC   GL219670  37.436  17.740   9.086
 1329POPC   C1A19671  37.699  17.216   8.744
 1329POPC   D2A19672  37.695  17.427   8.348
 1329POPC   C3A19673  37.792  17.246   7.981
 1329POPC   C4A19674  37.499  17.402   7.756
 1329POPC   C1B19675  37.797  17.732   8.786
 1329POPC   C2B19676  37.987  17.852   8.392
 1329POPC   C3B19677  37.904  17.740   7.970
 1329POPC   C4B19678  37.778  17.760   7.549
 1330POPC   NC319679  13.356  34.172   9.321
 1330POPC   PO419680  13.389  34.780   9.579
 1330POPC   GL119681  13.613  34.623   9.259
 1330POPC   GL219682  13.900  34.836   9.220
 1330POPC   C1A19683  13.728  34.494   8.854
 1330POPC   D2A19684  13.758  34.736   8.478
 1330POPC   C3A19685  13.820  34.413   8.193
 1330POPC   C4A19686  13.680  34.325   7.783
 1330POPC   C1B19687  14.147  34.790   8.839
 1330POPC   C2B19688  14.281  34.719   8.420
 1330POPC   C3B19689  14.088  34.848   8.056
 1330POPC   C4B19690  13.722  34.832   7.795
 1331POPC   NC319691   6.056  11.613   9.624
 1331POPC   PO419692   5.680  11.094   9.542
 1331POPC   GL119693   5.990  11.239   9.238
 1331POPC   GL219694   5.915  11.599   9.154
 1331POPC   C1A19695   6.042  11.272   8.793
 1331POPC   D2A19696   6.118  11.177   8.373
 1331POPC   C3A19697   5.790  11.127   8.085
 1331POPC   C4A19698   6.068  10.975   7.789
 1331POPC   C1B19699   6.156  11.774   8.826
 1331POPC   C2B19700   6.006  11.667   8.439
 1331POPC   C3B19701   6.017  11.799   8.028
 1331POPC   C4B19702   5.906  11.487   7.766
 1332POPC   NC319703   3.181  30.424   9.641
 1332POPC   PO419704   3.780  30.822   9.410
 1332POPC   GL119705   3.691  30.964   8.982
 1332POPC   GL219706   3.658  30.571   8.915
 1332POPC   C1A19707   3.464  30.857   8.593
 1332POPC   D2A19708   3.544  30.519   8.319
 1332POPC   C3A19709   3.594  30.703   7.934
 1332POPC   C4A19710   3.338  30.980   7.744
 1332POPC   C1B19711   3.251  30.384   8.740
 1332POPC   C2B19712   3.029  30.348   8.341
 1332POPC   C3B19713   3.192  30.370   7.928
 1332POPC   C4B19714   3.451  30.421   7.524
 1333POPC   NC319715  37.271  17.570   9.539
 1333POPC   PO419716  36.675  17.373   9.571
 1333POPC   GL119717  36.879  17.593   9.214
 1333POPC   GL219718  37.087  17.325   9.118
 1333POPC   C1A19719  37.043  17.721   8.801
 1333POPC   D2A19720  37.233  17.411   8.548
 1333POPC   C3A19721  37.154  17.565   8.099
 1333POPC   C4A19722  36.993  17.437   7.677
 1333POPC   C1B19723  36.760  17.309   8.809
 1333POPC   C2B19724  36.757  17.486   8.417
 1333POPC   C3B19725  36.645  17.357   8.037
 1333POPC   C4B19726  36.435  17.565   7.717
 1334POPC   NC319727   2.123  25.723  10.084
 1334POPC   PO419728   1.712  25.987   9.585
 1334POPC   GL119729   1.875  25.979   9.180
 1334POPC   GL219730   1.632  25.742   9.070
 1334POPC   C1A19731   2.149  26.004   8.829
 1334POPC   D2A19732   2.282  25.806   8.462
 1334POPC   C3A19733   2.086  25.963   8.135
 1334POPC   C4A19734   2.133  26.151   7.767
 1334POPC   C1B19735   1.653  26.077   8.745
 1334POPC   C2B19736   1.599  25.914   8.312
 1334POPC   C3B19737   1.651  25.952   7.853
 1334POPC   C4B19738   1.684  26.376   7.729
 1335POPC   NC319739   8.677  23.472   9.519
 1335POPC   PO419740   8.097  23.904   9.726
 1335POPC   GL119741   7.981  23.698   9.341
 1335POPC   GL219742   8.244  23.786   9.123
 1335POPC   C1A19743   7.828  23.711   8.889
 1335POPC   D2A19744   8.032  23.760   8.490
 1335POPC   C3A19745   7.926  23.973   8.152
 1335POPC   C4A19746   7.956  23.785   7.759
 1335POPC   C1B19747   8.473  23.832   8.733
 1335POPC   C2B19748   8.554  23.538   8.429
 1335POPC   C3B19749   8.351  23.645   8.066
 1335POPC   C4B19750   8.380  23.541   7.654
 1336POPC   NC319751  43.429   5.017   9.439
 1336POPC   PO419752  44.090   5.196   9.549
 1336POPC   GL119753  44.113   4.985   9.188
 1336POPC   GL219754  43.821   4.795   9.169
 1336POPC   C1A19755  43.934   5.181   8.825
 1336POPC   D2A19756  43.820   5.060   8.414
 1336POPC   C3A19757  44.139   5.050   8.085
 1336POPC   C4A19758  44.091   5.278   7.678
 1336POPC   C1B19759  43.537   4.811   8.829
 1336POPC   C2B19760  43.387   4.752   8.435
 1336POPC   C3B19761  43.571   4.804   8.036
 1336POPC   C4B19762  43.847   4.804   7.717
 1337POPC   NC319763  21.672   2.669   9.588
 1337POPC   PO419764  21.220   3.102   9.646
 1337POPC   GL119765  21.503   3.050   9.226
 1337POPC   GL219766  21.526   2.670   9.121
 1337POPC   C1A19767  21.549   2.992   8.745
 1337POPC   D2A19768  21.170   2.949   8.440
 1337POPC   C3A19769  21.241   3.084   8.018
 1337POPC   C4A19770  21.627   3.197   7.814
 1337POPC   C1B19771  21.331   2.546   8.749
 1337POPC   C2B19772  21.555   2.557   8.347
 1337POPC   C3B19773  21.427   2.573   7.912
 1337POPC   C4B19774  21.039   2.560   7.727
 1338POPC   NC319775  31.828   5.501   9.546
 1338POPC   PO419776  32.325   6.081   9.511
 1338POPC   GL119777  32.077   5.852   9.205
 1338POPC   GL219778  32.183   5.486   9.187
 1338POPC   C1A19779  32.171   5.944   8.777
 1338POPC   D2A19780  32.207   6.214   8.445
 1338POPC   C3A19781  32.326   6.036   8.047
 1338POPC   C4A19782  32.115   5.646   7.914
 1338POPC   C1B19783  32.089   5.430   8.758
 1338POPC   C2B19784  32.305   5.603   8.396
 1338POPC   C3B19785  32.615   5.614   8.087
 1338POPC   C4B19786  32.606   5.526   7.651
 1339POPC   NC319787   7.085  12.890   9.510
 1339POPC   PO419788   7.744  12.616   9.529
 1339POPC   GL119789   7.450  12.681   9.209
 1339POPC   GL219790   7.510  13.030   9.226
 1339POPC   C1A19791   7.317  12.666   8.773
 1339POPC   D2A19792   7.471  12.775   8.365
 1339POPC   C3A19793   7.234  12.698   8.010
 1339POPC   C4A19794   7.179  12.615   7.605
 1339POPC   C1B19795   7.415  13.184   8.830
 1339POPC   C2B19796   7.129  13.129   8.494
 1339POPC   C3B19797   7.319  13.202   8.074
 1339POPC   C4B19798   7.253  13.106   7.640
 1340POPC   NC319799  36.865  26.617   9.511
 1340POPC   PO419800  36.880  27.295   9.432
 1340POPC   GL119801  37.003  26.966   9.115
 1340POPC   GL219802  37.096  26.623   9.060
 1340POPC   C1A19803  37.078  26.997   8.687
 1340POPC   D2A19804  36.879  26.894   8.326
 1340POPC   C3A19805  36.953  27.083   7.929
 1340POPC   C4A19806  36.853  26.731   7.634
 1340POPC   C1B19807  37.369  26.577   8.722
 1340POPC   C2B19808  37.410  26.812   8.343
 1340POPC   C3B19809  37.289  26.713   7.931
 1340POPC   C4B19810  37.356  26.557   7.526
 1341POPC   NC319811  42.994  20.452   9.565
 1341POPC   PO419812  43.137  21.108   9.625
 1341POPC   GL119813  43.075  20.849   9.242
 1341POPC   GL219814  42.824  20.594   9.099
 1341POPC   C1A19815  43.240  20.740   8.824
 1341POPC   D2A19816  42.932  20.621   8.503
 1341POPC   C3A19817  43.016  20.727   8.081
 1341POPC   C4A19818  43.295  20.960   7.822
 1341POPC   C1B19819  43.048  20.255   8.834
 1341POPC   C2B19820  43.215  20.209   8.379
 1341POPC   C3B19821  42.950  20.201   7.995
 1341POPC   C4B19822  42.691  20.515   7.768
 1342POPC   NC319823  20.532   7.162   9.588
 1342POPC   PO419824  21.237   7.252   9.632
 1342POPC   GL119825  20.909   7.392   9.278
 1342POPC   GL219826  20.546   7.578   9.255
 1342POPC   C1A19827  20.776   7.409   8.830
 1342POPC   D2A19828  20.700   7.666   8.449
 1342POPC   C3A19829  20.703   7.468   8.024
 1342POPC   C4A19830  20.405   7.220   7.739
 1342POPC   C1B19831  20.322   7.641   8.822
 1342POPC   C2B19832  20.188   7.633   8.370
 1342POPC   C3B19833  20.277   7.710   7.925
 1342POPC   C4B19834  20.369   7.767   7.473
 1343POPC   NC319835  32.376  32.149   9.569
 1343POPC   PO419836  32.162  32.831   9.549
 1343POPC   GL119837  32.160  32.522   9.178
 1343POPC   GL219838  32.437  32.342   9.104
 1343POPC   C1A19839  32.105  32.285   8.728
 1343POPC   D2A19840  32.268  32.191   8.309
 1343POPC   C3A19841  32.072  32.359   7.897
 1343POPC   C4A19842  32.094  32.270   7.447
 1343POPC   C1B19843  32.704  32.599   8.837
 1343POPC   C2B19844  32.706  32.654   8.376
 1343POPC   C3B19845  32.565  32.453   7.992
 1343POPC   C4B19846  32.604  32.266   7.584
 1344POPC   NC319847  12.226  35.803   9.659
 1344POPC   PO419848  12.155  35.104   9.471
 1344POPC   GL119849  12.071  35.286   9.099
 1344POPC   GL219850  12.187  35.574   9.209
 1344POPC   C1A19851  12.216  35.184   8.696
 1344POPC   D2A19852  12.031  35.059   8.329
 1344POPC   C3A19853  12.264  35.174   8.014
 1344POPC   C4A19854  12.133  35.072   7.655
 1344POPC   C1B19855  12.413  35.662   8.818
 1344POPC   C2B19856  12.185  35.704   8.433
 1344POPC   C3B19857  11.964  35.564   8.071
 1344POPC   C4B19858  12.217  35.587   7.674
 1345POPC   NC319859  36.387  35.623   9.432
 1345POPC   PO419860  35.814  35.229   9.480
 1345POPC   GL119861  36.009  35.417   9.140
 1345POPC   GL219862  36.326  35.233   9.104
 1345POPC   C1A19863  36.047  35.599   8.732
 1345POPC   D2A19864  36.229  35.755   8.343
 1345POPC   C3A19865  36.324  35.469   7.965
 1345POPC   C4A19866  36.509  35.047   7.836
 1345POPC   C1B19867  36.146  35.088   8.726
 1345POPC   C2B19868  35.981  35.259   8.336
 1345POPC   C3B19869  35.977  35.075   7.922
 1345POPC   C4B19870  36.111  35.206   7.527
 1346POPC   NC319871   5.814  17.752   9.322
 1346POPC   PO419872   6.082  18.338   9.544
 1346POPC   GL119873   6.197  18.312   9.140
 1346POPC   GL219874   6.457  18.043   9.142
 1346POPC   C1A19875   5.957  18.405   8.769
 1346POPC   D2A19876   5.813  18.312   8.383
 1346POPC   C3A19877   5.961  18.521   8.019
 1346POPC   C4A19878   5.852  18.329   7.634
 1346POPC   C1B19879   6.174  17.922   8.795
 1346POPC   C2B19880   6.010  17.801   8.412
 1346POPC   C3B19881   5.922  17.976   8.022
 1346POPC   C4B19882   6.265  18.093   7.781
 1347POPC   NC319883  16.418  28.071   9.509
 1347POPC   PO419884  16.854  27.472   9.478
 1347POPC   GL119885  16.716  27.796   9.174
 1347POPC   GL219886  16.468  27.504   9.139
 1347POPC   C1A19887  16.950  27.967   8.769
 1347POPC   D2A19888  17.186  27.812   8.371
 1347POPC   C3A19889  16.910  27.871   8.072
 1347POPC   C4A19890  16.800  28.071   7.747
 1347POPC   C1B19891  16.862  27.465   8.834
 1347POPC   C2B19892  16.855  27.441   8.401
 1347POPC   C3B19893  16.983  27.367   8.003
 1347POPC   C4B19894  16.654  27.508   7.813
 1348POPC   NC319895   8.090  18.672   9.552
 1348POPC   PO419896   8.215  18.025   9.464
 1348POPC   GL119897   8.354  18.092   9.096
 1348POPC   GL219898   8.266  18.448   9.103
 1348POPC   C1A19899   8.353  18.129   8.686
 1348POPC   D2A19900   8.009  18.280   8.466
 1348POPC   C3A19901   8.103  18.199   8.040
 1348POPC   C4A19902   7.976  18.438   7.712
 1348POPC   C1B19903   8.342  18.651   8.708
 1348POPC   C2B19904   8.466  18.480   8.326
 1348POPC   C3B19905   8.355  18.688   7.968
 1348POPC   C4B19906   8.409  18.623   7.534
 1349POPC   NC319907  32.270  25.633   9.459
 1349POPC   PO419908  32.081  24.904   9.373
 1349POPC   GL119909  32.382  25.199   9.131
 1349POPC   GL219910  32.629  25.529   9.100
 1349POPC   C1A19911  32.248  25.369   8.737
 1349POPC   D2A19912  32.274  25.185   8.320
 1349POPC   C3A19913  32.125  25.388   7.975
 1349POPC   C4A19914  31.993  25.198   7.610
 1349POPC   C1B19915  32.764  25.302   8.753
 1349POPC   C2B19916  32.630  25.526   8.397
 1349POPC   C3B19917  32.573  25.609   7.986
 1349POPC   C4B19918  32.443  25.457   7.590
 1350POPC   NC319919   4.133  39.850   9.496
 1350POPC   PO419920   4.482  40.370   9.397
 1350POPC   GL119921   4.257  40.127   9.079
 1350POPC   GL219922   4.414  40.315   8.807
 1350POPC   C1A19923   4.173  39.839   8.725
 1350POPC   D2A19924   4.367  40.030   8.366
 1350POPC   C3A19925   4.126  40.154   8.050
 1350POPC   C4A19926   4.307  40.083   7.670
 1350POPC   C1B19927   3.984  40.270   8.590
 1350POPC   C2B19928   3.759  39.961   8.362
 1350POPC   C3B19929   3.727  39.776   7.967
 1350POPC   C4B19930   3.805  40.058   7.655
 1351POPC   NC319931   7.631  31.167   9.827
 1351POPC   PO419932   7.216  30.717   9.554
 1351POPC   GL119933   7.325  30.644   9.149
 1351POPC   GL219934   7.706  30.615   9.178
 1351POPC   C1A19935   7.198  30.811   8.726
 1351POPC   D2A19936   7.437  30.782   8.341
 1351POPC   C3A19937   7.334  31.018   7.994
 1351POPC   C4A19938   7.423  30.761   7.693
 1351POPC   C1B19939   7.634  30.556   8.754
 1351POPC   C2B19940   7.431  30.266   8.456
 1351POPC   C3B19941   7.392  30.349   8.012
 1351POPC   C4B19942   7.628  30.320   7.618
 1352POPC   NC319943  35.536  15.457   9.869
 1352POPC   PO419944  35.021  15.159   9.670
 1352POPC   GL119945  35.210  15.264   9.220
 1352POPC   GL219946  35.556  15.280   9.197
 1352POPC   C1A19947  35.298  15.478   8.816
 1352POPC   D2A19948  35.513  15.330   8.461
 1352POPC   C3A19949  35.242  15.377   8.103
 1352POPC   C4A19950  35.516  15.269   7.769
 1352POPC   C1B19951  35.364  14.966   8.845
 1352POPC   C2B19952  35.242  14.763   8.474
 1352POPC   C3B19953  35.328  14.866   8.060
 1352POPC   C4B19954  35.105  14.946   7.697
 1353POPC   NC319955  39.213   2.571   9.555
 1353POPC   PO419956  39.475   3.189   9.407
 1353POPC   GL119957  39.255   2.877   9.145
 1353POPC   GL219958  39.498   2.599   9.108
 1353POPC   C1A19959  39.121   2.674   8.770
 1353POPC   D2A19960  39.310   2.596   8.377
 1353POPC   C3A19961  39.025   2.698   8.091
 1353POPC   C4A19962  39.033   2.959   7.748
 1353POPC   C1B19963  39.626   2.919   8.806
 1353POPC   C2B19964  39.613   3.029   8.398
 1353POPC   C3B19965  39.559   2.924   7.971
 1353POPC   C4B19966  39.731   3.171   7.654
 1354POPC   NC319967  15.976  18.436   9.519
 1354POPC   PO419968  15.521  18.072   9.119
 1354POPC   GL119969  15.816  18.332   9.052
 1354POPC   GL219970  15.592  18.592   9.188
 1354POPC   C1A19971  16.091  18.231   8.729
 1354POPC   D2A19972  16.034  17.949   8.374
 1354POPC   C3A19973  16.094  18.310   8.127
 1354POPC   C4A19974  16.167  18.365   7.721
 1354POPC   C1B19975  15.500  18.570   8.723
 1354POPC   C2B19976  15.633  18.265   8.436
 1354POPC   C3B19977  15.634  18.136   8.011
 1354POPC   C4B19978  15.610  18.454   7.710
 1355POPC   NC319979   1.723  37.038   9.442
 1355POPC   PO419980   1.107  36.961   9.492
 1355POPC   GL119981   1.280  36.769   9.129
 1355POPC   GL219982   1.442  37.057   9.015
 1355POPC   C1A19983   1.119  36.748   8.698
 1355POPC   D2A19984   1.178  36.945   8.283
 1355POPC   C3A19985   0.913  36.851   7.893
 1355POPC   C4A19986   0.921  36.830   7.418
 1355POPC   C1B19987   1.639  36.794   8.711
 1355POPC   C2B19988   1.575  36.617   8.310
 1355POPC   C3B19989   1.542  36.831   7.926
 1355POPC   C4B19990   1.699  36.733   7.525
 1356POPC   NC319991  21.022  41.194   9.364
 1356POPC   PO419992  20.811  40.575   9.529
 1356POPC   GL119993  20.746  40.787   9.157
 1356POPC   GL219994  20.486  41.044   9.148
 1356POPC   C1A19995  20.676  40.852   8.729
 1356POPC   D2A19996  20.606  40.621   8.404
 1356POPC   C3A19997  20.695  40.827   8.068
 1356POPC   C4A19998  20.628  40.655   7.708
 1356POPC   C1B19999  20.221  41.109   8.775
 1356POPC   C2B20000  20.354  41.180   8.380
 1356POPC   C3B20001  20.219  41.031   8.017
 1356POPC   C4B20002  20.167  40.831   7.619
 1357POPC   NC320003   3.920  36.713   9.779
 1357POPC   PO420004   3.344  36.645   9.431
 1357POPC   GL120005   3.373  36.921   9.120
 1357POPC   GL220006   3.722  36.965   9.060
 1357POPC   C1A20007   3.266  36.821   8.725
 1357POPC   D2A20008   2.997  36.673   8.425
 1357POPC   C3A20009   3.216  36.751   8.034
 1357POPC   C4A20010   3.297  36.910   7.599
 1357POPC   C1B20011   3.761  36.739   8.665
 1357POPC   C2B20012   3.631  36.909   8.300
 1357POPC   C3B20013   3.732  36.845   7.893
 1357POPC   C4B20014   4.080  36.639   7.725
 1358POPC   NC320015  17.576  43.339   9.543
 1358POPC   PO420016  17.068  43.007   9.620
 1358POPC   GL120017  17.174  43.244   9.235
 1358POPC   GL220018  17.089  42.955   9.043
 1358POPC   C1A20019  17.497  43.222   8.881
 1358POPC   D2A20020  17.704  42.922   8.586
 1358POPC   C3A20021  17.627  42.895   8.133
 1358POPC   C4A20022  17.693  43.156   7.759
 1358POPC   C1B20023  17.126  42.988   8.602
 1358POPC   C2B20024  16.980  42.845   8.237
 1358POPC   C3B20025  17.139  42.668   7.944
 1358POPC   C4B20026  17.315  42.852   7.701
 1359POPC   NC320027  43.194  42.845   9.477
 1359POPC   PO420028  42.855  43.346   9.713
 1359POPC   GL120029  42.975  43.141   9.169
 1359POPC   GL220030  43.355  43.214   9.159
 1359POPC   C1A20031  43.099  43.273   8.717
 1359POPC   D2A20032  42.955  43.306   8.299
 1359POPC   C3A20033  43.118  43.027   7.984
 1359POPC   C4A20034  42.938  42.941   7.561
 1359POPC   C1B20035  43.607  43.315   8.805
 1359POPC   C2B20036  43.484  43.525   8.436
 1359POPC   C3B20037  43.342  43.498   7.994
 1359POPC   C4B20038  43.361  43.253   7.600
 1360POPC   NC320039   8.012  29.667   9.251
 1360POPC   PO420040   8.428  30.144   9.386
 1360POPC   GL120041   8.305  30.021   9.027
 1360POPC   GL220042   7.956  30.125   9.029
 1360POPC   C1A20043   8.241  29.841   8.647
 1360POPC   D2A20044   8.288  30.035   8.242
 1360POPC   C3A20045   8.245  29.812   7.870
 1360POPC   C4A20046   8.326  29.395   7.786
 1360POPC   C1B20047   8.020  30.292   8.607
 1360POPC   C2B20048   7.879  30.354   8.186
 1360POPC   C3B20049   8.087  30.287   7.787
 1360POPC   C4B20050   8.047  30.271   7.308
 1361POPC   NC320051  20.741  36.751   9.271
 1361POPC   PO420052  20.301  37.082   9.631
 1361POPC   GL120053  20.186  37.022   9.196
 1361POPC   GL220054  20.011  36.723   9.185
 1361POPC   C1A20055  20.396  37.080   8.796
 1361POPC   D2A20056  20.706  37.028   8.438
 1361POPC   C3A20057  20.650  36.855   8.035
 1361POPC   C4A20058  20.638  37.007   7.625
 1361POPC   C1B20059  20.123  36.664   8.783
 1361POPC   C2B20060  20.207  36.855   8.367
 1361POPC   C3B20061  20.145  36.640   7.969
 1361POPC   C4B20062  20.419  36.552   7.678
 1362POPC   NC320063  23.333  42.569   9.676
 1362POPC   PO420064  23.823  43.080   9.527
 1362POPC   GL120065  23.644  43.101   9.157
 1362POPC   GL220066  23.649  43.454   9.076
 1362POPC   C1A20067  23.518  42.846   8.791
 1362POPC   D2A20068  23.345  42.946   8.390
 1362POPC   C3A20069  23.558  42.773   8.105
 1362POPC   C4A20070  23.809  42.890   7.783
 1362POPC   C1B20071  23.876  43.240   8.747
 1362POPC   C2B20072  23.844  43.163   8.336
 1362POPC   C3B20073  24.059  43.480   8.117
 1362POPC   C4B20074  23.940  43.537   7.703
 1363POPC   NC320075  13.856  16.156   9.661
 1363POPC   PO420076  14.595  15.941   9.713
 1363POPC   GL120077  14.468  16.235   9.220
 1363POPC   GL220078  14.149  16.212   9.107
 1363POPC   C1A20079  14.463  16.009   8.770
 1363POPC   D2A20080  14.296  15.958   8.384
 1363POPC   C3A20081  14.613  16.005   8.110
 1363POPC   C4A20082  14.423  15.947   7.738
 1363POPC   C1B20083  13.946  16.183   8.725
 1363POPC   C2B20084  13.909  16.295   8.296
 1363POPC   C3B20085  13.972  16.056   7.919
 1363POPC   C4B20086  14.035  16.045   7.434
 1364POPC   NC320087  13.483  11.368   9.532
 1364POPC   PO420088  13.462  10.714   9.375
 1364POPC   GL120089  13.678  11.072   9.102
 1364POPC   GL220090  13.790  11.463   9.131
 1364POPC   C1A20091  13.611  11.284   8.703
 1364POPC   D2A20092  13.760  11.324   8.313
 1364POPC   C3A20093  13.574  10.971   8.131
 1364POPC   C4A20094  13.593  10.880   7.727
 1364POPC   C1B20095  13.893  11.712   8.766
 1364POPC   C2B20096  13.926  11.871   8.364
 1364POPC   C3B20097  13.788  11.711   7.968
 1364POPC   C4B20098  13.539  11.386   7.808
 1365POPC   NC320099  24.414  19.417   9.590
 1365POPC   PO420100  24.831  18.902   9.811
 1365POPC   GL120101  24.715  19.005   9.342
 1365POPC   GL220102  24.503  19.279   9.121
 1365POPC   C1A20103  24.766  18.929   8.879
 1365POPC   D2A20104  24.866  18.995   8.441
 1365POPC   C3A20105  24.541  19.045   8.140
 1365POPC   C4A20106  24.389  18.773   7.832
 1365POPC   C1B20107  24.294  19.465   8.735
 1365POPC   C2B20108  24.118  19.198   8.411
 1365POPC   C3B20109  24.016  19.094   8.002
 1365POPC   C4B20110  24.200  19.170   7.593
 1366POPC   NC320111  33.047  19.679   9.467
 1366POPC   PO420112  32.760  20.229   9.670
 1366POPC   GL120113  32.776  20.082   9.227
 1366POPC   GL220114  33.146  20.057   9.150
 1366POPC   C1A20115  32.847  20.024   8.769
 1366POPC   D2A20116  32.966  20.194   8.407
 1366POPC   C3A20117  32.766  19.985   8.089
 1366POPC   C4A20118  32.741  20.107   7.705
 1366POPC   C1B20119  33.383  19.989   8.781
 1366POPC   C2B20120  33.450  20.037   8.342
 1366POPC   C3B20121  33.280  19.949   7.937
 1366POPC   C4B20122  33.236  19.553   7.688
 1367POPC   NC320123  39.799  38.388   9.410
 1367POPC   PO420124  40.288  38.807   9.474
 1367POPC   GL120125  40.057  38.721   9.086
 1367POPC   GL220126  40.173  38.359   9.065
 1367POPC   C1A20127  39.854  38.517   8.695
 1367POPC   D2A20128  40.046  38.388   8.279
 1367POPC   C3A20129  39.964  38.599   7.878
 1367POPC   C4A20130  39.847  38.509   7.390
 1367POPC   C1B20131  40.360  38.535   8.671
 1367POPC   C2B20132  40.577  38.678   8.298
 1367POPC   C3B20133  40.524  38.763   7.874
 1367POPC   C4B20134  40.338  38.563   7.542
 1368POPC   NC320135  24.028  25.574   9.913
 1368POPC   PO420136  23.596  26.014   9.617
 1368POPC   GL120137  23.550  25.995   9.182
 1368POPC   GL220138  23.448  25.668   9.109
 1368POPC   C1A20139  23.639  26.185   8.762
 1368POPC   D2A20140  23.659  25.989   8.362
 1368POPC   C3A20141  23.635  26.283   8.047
 1368POPC   C4A20142  23.961  26.458   7.769
 1368POPC   C1B20143  23.345  25.778   8.743
 1368POPC   C2B20144  23.265  25.651   8.365
 1368POPC   C3B20145  23.269  25.805   7.975
 1368POPC   C4B20146  23.306  26.097   7.696
 1369POPC   NC320147  13.657   6.413   9.565
 1369POPC   PO420148  13.593   7.108   9.481
 1369POPC   GL120149  13.484   6.754   9.164
 1369POPC   GL220150  13.673   6.430   9.069
 1369POPC   C1A20151  13.590   6.799   8.734
 1369POPC   D2A20152  13.827   6.637   8.423
 1369POPC   C3A20153  13.651   6.619   8.014
 1369POPC   C4A20154  13.250   6.670   7.825
 1369POPC   C1B20155  13.384   6.308   8.744
 1369POPC   C2B20156  13.517   6.207   8.318
 1369POPC   C3B20157  13.354   6.204   7.895
 1369POPC   C4B20158  13.310   6.195   7.401
 1370POPC   NC320159  44.210   5.671   9.480
 1370POPC   PO420160  43.675   6.097   9.673
 1370POPC   GL120161  43.731   6.084   9.168
 1370POPC   GL220162  44.032   6.248   9.005
 1370POPC   C1A20163  43.784   5.945   8.682
 1370POPC   D2A20164  43.941   6.101   8.227
 1370POPC   C3A20165  43.683   6.005   7.867
 1370POPC   C4A20166  43.468   5.619   7.881
 1370POPC   C1B20167  44.265   6.033   8.610
 1370POPC   C2B20168  44.178   5.603   8.458
 1370POPC   C3B20169  43.975   5.575   8.077
 1370POPC   C4B20170  44.143   5.837   7.758
 1371POPC   NC320171  10.691  35.491   9.522
 1371POPC   PO420172   9.974  35.498   9.387
 1371POPC   GL120173  10.334  35.437   9.144
 1371POPC   GL220174  10.514  35.747   9.133
 1371POPC   C1A20175  10.542  35.236   8.804
 1371POPC   D2A20176  10.500  35.155   8.369
 1371POPC   C3A20177  10.159  35.295   8.149
 1371POPC   C4A20178  10.091  35.415   7.747
 1371POPC   C1B20179  10.834  35.656   8.838
 1371POPC   C2B20180  10.923  35.823   8.424
 1371POPC   C3B20181  10.927  35.651   8.052
 1371POPC   C4B20182  10.624  35.366   7.876
 1372POPC   NC320183   6.545  18.406   9.518
 1372POPC   PO420184   6.935  17.868   9.317
 1372POPC   GL120185   6.965  18.250   9.109
 1372POPC   GL220186   6.700  18.502   9.056
 1372POPC   C1A20187   6.954  18.182   8.687
 1372POPC   D2A20188   6.647  17.919   8.479
 1372POPC   C3A20189   6.709  18.044   8.048
 1372POPC   C4A20190   7.061  18.253   7.856
 1372POPC   C1B20191   6.468  18.337   8.713
 1372POPC   C2B20192   6.320  18.269   8.312
 1372POPC   C3B20193   6.485  18.502   7.979
 1372POPC   C4B20194   6.270  18.625   7.618
 1373POPC   NC320195  22.600  42.818   9.474
 1373POPC   PO420196  23.080  42.287   9.422
 1373POPC   GL120197  22.873  42.521   9.123
 1373POPC   GL220198  22.527  42.372   9.180
 1373POPC   C1A20199  22.987  42.698   8.705
 1373POPC   D2A20200  22.873  42.792   8.269
 1373POPC   C3A20201  23.065  42.479   8.044
 1373POPC   C4A20202  23.004  42.273   7.649
 1373POPC   C1B20203  22.724  42.080   8.873
 1373POPC   C2B20204  22.931  42.124   8.463
 1373POPC   C3B20205  22.702  42.139   8.058
 1373POPC   C4B20206  22.484  42.094   7.681
 1374POPC   NC320207   3.517  24.184   9.525
 1374POPC   PO420208   3.737  24.849   9.438
 1374POPC   GL120209   3.585  24.560   9.150
 1374POPC   GL220210   3.784  24.253   9.116
 1374POPC   C1A20211   3.330  24.387   8.819
 1374POPC   D2A20212   3.087  24.324   8.430
 1374POPC   C3A20213   3.316  24.315   8.028
 1374POPC   C4A20214   3.333  24.506   7.571
 1374POPC   C1B20215   3.881  24.442   8.751
 1374POPC   C2B20216   3.665  24.355   8.429
 1374POPC   C3B20217   3.774  24.136   8.144
 1374POPC   C4B20218   3.755  24.338   7.778
 1375POPC   NC320219   6.748  14.297   9.637
 1375POPC   PO420220   6.507  14.880   9.575
 1375POPC   GL120221   6.573  14.544   9.212
 1375POPC   GL220222   6.730  14.150   9.174
 1375POPC   C1A20223   6.678  14.452   8.778
 1375POPC   D2A20224   6.380  14.311   8.464
 1375POPC   C3A20225   6.396  14.468   8.047
 1375POPC   C4A20226   6.601  14.603   7.664
 1375POPC   C1B20227   6.614  13.953   8.798
 1375POPC   C2B20228   6.767  13.990   8.433
 1375POPC   C3B20229   6.563  13.953   8.074
 1375POPC   C4B20230   6.505  14.116   7.698
 1376POPC   NC320231  27.986  18.777   9.543
 1376POPC   PO420232  27.516  19.291   9.601
 1376POPC   GL120233  27.472  19.219   9.189
 1376POPC   GL220234  27.816  19.154   9.167
 1376POPC   C1A20235  27.437  19.316   8.761
 1376POPC   D2A20236  27.247  19.258   8.366
 1376POPC   C3A20237  27.439  19.062   8.035
 1376POPC   C4A20238  27.627  19.337   7.779
 1376POPC   C1B20239  27.855  18.855   8.857
 1376POPC   C2B20240  27.757  18.965   8.461
 1376POPC   C3B20241  27.968  19.047   8.109
 1376POPC   C4B20242  27.820  18.834   7.756
 1377POPC   NC320243  40.574  34.204   9.637
 1377POPC   PO420244  40.903  33.604   9.675
 1377POPC   GL120245  40.785  33.605   9.237
 1377POPC   GL220246  41.092  33.388   9.226
 1377POPC   C1A20247  40.612  33.840   8.853
 1377POPC   D2A20248  40.512  33.815   8.379
 1377POPC   C3A20249  40.746  34.128   8.152
 1377POPC   C4A20250  40.905  34.048   7.749
 1377POPC   C1B20251  41.119  33.626   8.853
 1377POPC   C2B20252  41.008  33.843   8.513
 1377POPC   C3B20253  40.986  33.684   8.128
 1377POPC   C4B20254  41.236  33.620   7.787
 1378POPC   NC320255  22.758   3.577   9.687
 1378POPC   PO420256  23.397   3.526   9.603
 1378POPC   GL120257  23.063   3.385   9.284
 1378POPC   GL220258  22.726   3.560   9.192
 1378POPC   C1A20259  22.990   3.311   8.839
 1378POPC   D2A20260  23.216   3.321   8.457
 1378POPC   C3A20261  22.948   3.428   8.102
 1378POPC   C4A20262  23.121   3.534   7.705
 1378POPC   C1B20263  22.658   3.771   8.797
 1378POPC   C2B20264  22.471   3.642   8.406
 1378POPC   C3B20265  22.465   3.694   7.980
 1378POPC   C4B20266  22.711   3.817   7.607
 1379POPC   NC320267  22.973  29.879   9.474
 1379POPC   PO420268  22.855  29.320   9.864
 1379POPC   GL120269  22.582  29.573   9.415
 1379POPC   GL220270  22.521  29.968   9.273
 1379POPC   C1A20271  22.619  29.620   8.930
 1379POPC   D2A20272  22.744  29.666   8.512
 1379POPC   C3A20273  22.700  29.837   8.102
 1379POPC   C4A20274  22.774  29.780   7.645
 1379POPC   C1B20275  22.744  30.116   8.866
 1379POPC   C2B20276  23.120  29.994   8.555
 1379POPC   C3B20277  23.197  30.001   8.080
 1379POPC   C4B20278  23.280  29.981   7.638
 1380POPC   NC320279  33.944   5.305   9.468
 1380POPC   PO420280  33.821   4.699   9.610
 1380POPC   GL120281  33.797   4.883   9.193
 1380POPC   GL220282  33.541   5.126   9.162
 1380POPC   C1A20283  33.949   5.077   8.781
 1380POPC   D2A20284  34.315   5.169   8.488
 1380POPC   C3A20285  34.039   5.138   8.134
 1380POPC   C4A20286  33.839   5.270   7.749
 1380POPC   C1B20287  33.489   4.796   8.801
 1380POPC   C2B20288  33.627   4.632   8.438
 1380POPC   C3B20289  33.625   4.800   8.036
 1380POPC   C4B20290  33.457   4.925   7.652
 1381POPC   NC320291   6.749  30.800   9.536
 1381POPC   PO420292   6.375  30.284   9.866
 1381POPC   GL120293   6.525  30.338   9.386
 1381POPC   GL220294   6.893  30.384   9.299
 1381POPC   C1A20295   6.508  30.564   8.957
 1381POPC   D2A20296   6.660  30.834   8.615
 1381POPC   C3A20297   6.484  30.781   8.214
 1381POPC   C4A20298   6.588  30.780   7.776
 1381POPC   C1B20299   6.994  30.354   8.867
 1381POPC   C2B20300   6.937  30.422   8.448
 1381POPC   C3B20301   6.982  30.652   8.081
 1381POPC   C4B20302   6.978  30.408   7.710
 1382POPC   NC320303  19.695  16.427   9.575
 1382POPC   PO420304  19.810  15.737   9.450
 1382POPC   GL120305  19.860  16.007   9.123
 1382POPC   GL220306  19.606  16.241   9.123
 1382POPC   C1A20307  19.960  15.860   8.736
 1382POPC   D2A20308  20.292  15.810   8.440
 1382POPC   C3A20309  20.170  15.869   8.022
 1382POPC   C4A20310  19.817  15.733   7.809
 1382POPC   C1B20311  19.746  16.313   8.725
 1382POPC   C2B20312  19.845  16.136   8.305
 1382POPC   C3B20313  19.854  16.266   7.848
 1382POPC   C4B20314  19.684  16.425   7.448
 1383POPC   NC320315  10.702  41.847   9.400
 1383POPC   PO420316  10.363  42.452   9.629
 1383POPC   GL120317  10.291  42.517   9.156
 1383POPC   GL220318  10.556  42.443   9.042
 1383POPC   C1A20319  10.183  42.283   8.749
 1383POPC   D2A20320  10.329  42.081   8.374
 1383POPC   C3A20321  10.337  42.286   7.938
 1383POPC   C4A20322  10.209  42.277   7.467
 1383POPC   C1B20323  10.721  42.325   8.648
 1383POPC   C2B20324  10.776  42.322   8.215
 1383POPC   C3B20325  10.812  42.522   7.837
 1383POPC   C4B20326  10.694  42.564   7.417
 1384POPC   NC320327   0.988  13.447   9.528
 1384POPC   PO420328   1.595  13.838   9.475
 1384POPC   GL120329   1.417  13.660   9.111
 1384POPC   GL220330   1.070  13.520   9.046
 1384POPC   C1A20331   1.365  13.683   8.679
 1384POPC   D2A20332   1.425  13.441   8.327
 1384POPC   C3A20333   1.331  13.647   7.978
 1384POPC   C4A20334   1.514  13.524   7.598
 1384POPC   C1B20335   0.816  13.366   8.696
 1384POPC   C2B20336   0.972  13.187   8.305
 1384POPC   C3B20337   0.878  13.300   7.880
 1384POPC   C4B20338   0.649  13.202   7.481
 1385POPC   NC320339   9.115  14.610   9.642
 1385POPC   PO420340   8.522  14.433   9.683
 1385POPC   GL120341   8.770  14.391   9.260
 1385POPC   GL220342   9.012  14.643   9.138
 1385POPC   C1A20343   8.823  14.303   8.773
 1385POPC   D2A20344   8.571  14.312   8.382
 1385POPC   C3A20345   8.698  14.198   7.993
 1385POPC   C4A20346   8.934  14.392   7.662
 1385POPC   C1B20347   9.284  14.535   8.776
 1385POPC   C2B20348   9.472  14.435   8.400
 1385POPC   C3B20349   9.316  14.502   7.997
 1385POPC   C4B20350   9.437  14.814   7.688
 1386POPC   NC320351  19.503  43.501   9.619
 1386POPC   PO420352  19.280  44.143   9.851
 1386POPC   GL120353  19.288  43.922   9.399
 1386POPC   GL220354  19.001  43.791   9.289
 1386POPC   C1A20355  19.328  43.966   8.911
 1386POPC   D2A20356  19.021  44.018   8.527
 1386POPC   C3A20357  19.092  43.989   8.096
 1386POPC   C4A20358  18.878  43.880   7.695
 1386POPC   C1B20359  18.937  43.625   8.859
 1386POPC   C2B20360  19.128  43.503   8.484
 1386POPC   C3B20361  18.977  43.500   8.058
 1386POPC   C4B20362  19.167  43.465   7.701
 1387POPC   NC320363  15.098  27.177   9.533
 1387POPC   PO420364  14.835  26.701   9.153
 1387POPC   GL120365  15.184  26.917   8.996
 1387POPC   GL220366  15.466  26.724   9.110
 1387POPC   C1A20367  15.141  26.969   8.536
 1387POPC   D2A20368  15.054  26.597   8.254
 1387POPC   C3A20369  15.158  26.707   7.848
 1387POPC   C4A20370  14.948  27.091   7.808
 1387POPC   C1B20371  15.327  26.517   8.697
 1387POPC   C2B20372  15.425  26.247   8.341
 1387POPC   C3B20373  15.542  26.346   7.927
 1387POPC   C4B20374  15.484  26.522   7.476
 1388POPC   NC320375  29.860   3.673   9.591
 1388POPC   PO420376  29.304   3.926   9.423
 1388POPC   GL120377  29.708   3.769   9.103
 1388POPC   GL220378  30.107   3.620   9.156
 1388POPC   C1A20379  29.863   3.522   8.716
 1388POPC   D2A20380  29.694   3.296   8.364
 1388POPC   C3A20381  29.730   3.503   7.986
 1388POPC   C4A20382  29.563   3.563   7.580
 1388POPC   C1B20383  30.200   3.882   8.800
 1388POPC   C2B20384  30.026   3.903   8.377
 1388POPC   C3B20385  30.166   3.751   7.995
 1388POPC   C4B20386  30.096   3.531   7.586
 1389POPC   NC320387  18.254  36.302   9.568
 1389POPC   PO420388  18.896  36.066   9.712
 1389POPC   GL120389  18.559  36.030   9.301
 1389POPC   GL220390  18.549  36.364   9.143
 1389POPC   C1A20391  18.280  36.000   8.900
 1389POPC   D2A20392  18.159  35.903   8.447
 1389POPC   C3A20393  18.374  35.967   8.056
 1389POPC   C4A20394  18.244  35.779   7.675
 1389POPC   C1B20395  18.346  36.553   8.810
 1389POPC   C2B20396  18.365  36.483   8.377
 1389POPC   C3B20397  18.422  36.474   7.953
 1389POPC   C4B20398  18.550  36.216   7.593
 1390POPC   NC320399  11.872   1.192   9.608
 1390POPC   PO420400  12.517   1.369   9.529
 1390POPC   GL120401  12.165   1.315   9.203
 1390POPC   GL220402  11.968   0.959   9.168
 1390POPC   C1A20403  12.208   1.191   8.783
 1390POPC   D2A20404  12.459   0.895   8.563
 1390POPC   C3A20405  12.547   1.035   8.144
 1390POPC   C4A20406  12.244   1.252   7.913
 1390POPC   C1B20407  11.968   0.747   8.761
 1390POPC   C2B20408  12.004   0.942   8.341
 1390POPC   C3B20409  11.847   0.898   7.926
 1390POPC   C4B20410  11.636   1.042   7.562
 1391POPC   NC320411  29.580   0.235   9.482
 1391POPC   PO420412  30.251   0.364   9.388
 1391POPC   GL120413  30.010   0.617   9.105
 1391POPC   GL220414  29.672   0.706   9.208
 1391POPC   C1A20415  29.904   0.822   8.706
 1391POPC   D2A20416  29.841   0.727   8.262
 1391POPC   C3A20417  29.927   0.329   8.176
 1391POPC   C4A20418  29.756   0.124   7.861
 1391POPC   C1B20419  29.436   0.460   8.877
 1391POPC   C2B20420  29.491   0.221   8.482
 1391POPC   C3B20421  29.363   0.352   8.080
 1391POPC   C4B20422  29.574   0.613   7.810
 1392POPC   NC320423  18.147  24.713   9.760
 1392POPC   PO420424  17.947  24.184   9.523
 1392POPC   GL120425  18.164  24.343   9.195
 1392POPC   GL220426  18.233  24.687   9.227
 1392POPC   C1A20427  18.184  24.359   8.763
 1392POPC   D2A20428  18.254  24.624   8.426
 1392POPC   C3A20429  18.391  24.386   8.102
 1392POPC   C4A20430  18.162  24.234   7.734
 1392POPC   C1B20431  18.451  24.852   8.850
 1392POPC   C2B20432  18.676  24.911   8.445
 1392POPC   C3B20433  18.509  24.907   8.053
 1392POPC   C4B20434  18.357  24.697   7.705
 1393POPC   NC320435  33.134  37.895   9.656
 1393POPC   PO420436  33.087  37.187   9.535
 1393POPC   GL120437  33.059  37.581   9.256
 1393POPC   GL220438  32.749  37.756   9.350
 1393POPC   C1A20439  33.149  37.689   8.816
 1393POPC   D2A20440  33.148  37.571   8.360
 1393POPC   C3A20441  33.110  37.824   7.983
 1393POPC   C4A20442  32.957  37.730   7.576
 1393POPC   C1B20443  32.649  37.803   8.906
 1393POPC   C2B20444  32.551  37.991   8.497
 1393POPC   C3B20445  32.591  37.941   8.028
 1393POPC   C4B20446  32.849  38.208   7.730
 1394POPC   NC320447  27.624   2.582   9.266
 1394POPC   PO420448  27.495   1.964   9.709
 1394POPC   GL120449  27.479   1.884   9.242
 1394POPC   GL220450  27.767   2.076   9.248
 1394POPC   C1A20451  27.407   1.833   8.843
 1394POPC   D2A20452  27.641   1.802   8.440
 1394POPC   C3A20453  27.468   1.736   8.047
 1394POPC   C4A20454  27.560   2.068   7.772
 1394POPC   C1B20455  27.889   2.020   8.832
 1394POPC   C2B20456  27.949   2.216   8.431
 1394POPC   C3B20457  28.010   2.095   8.021
 1394POPC   C4B20458  28.042   1.871   7.650
 1395POPC   NC320459   8.597  27.246   9.645
 1395POPC   PO420460   8.190  26.678   9.546
 1395POPC   GL120461   8.104  26.787   9.141
 1395POPC   GL220462   8.283  27.114   9.223
 1395POPC   C1A20463   8.208  26.609   8.734
 1395POPC   D2A20464   8.421  26.503   8.324
 1395POPC   C3A20465   8.186  26.648   7.955
 1395POPC   C4A20466   8.279  26.782   7.519
 1395POPC   C1B20467   8.396  27.088   8.794
 1395POPC   C2B20468   8.206  26.980   8.385
 1395POPC   C3B20469   8.443  27.086   8.042
 1395POPC   C4B20470   8.363  27.268   7.644
 1396POPC   NC320471  17.489  23.249   9.506
 1396POPC   PO420472  17.526  22.585   9.637
 1396POPC   GL120473  17.499  22.816   9.245
 1396POPC   GL220474  17.857  22.781   9.193
 1396POPC   C1A20475  17.397  23.061   8.827
 1396POPC   D2A20476  17.580  23.270   8.474
 1396POPC   C3A20477  17.389  23.146   8.100
 1396POPC   C4A20478  17.168  22.934   7.794
 1396POPC   C1B20479  17.999  22.720   8.802
 1396POPC   C2B20480  18.060  22.989   8.478
 1396POPC   C3B20481  17.886  23.023   8.098
 1396POPC   C4B20482  17.701  22.969   7.717
 1397POPC   NC320483  29.612   6.427   9.552
 1397POPC   PO420484  29.015   6.645   9.532
 1397POPC   GL120485  29.110   6.771   9.153
 1397POPC   GL220486  29.472   6.779   9.112
 1397POPC   C1A20487  28.880   6.772   8.789
 1397POPC   D2A20488  28.950   6.937   8.392
 1397POPC   C3A20489  29.212   6.735   8.117
 1397POPC   C4A20490  29.138   6.709   7.683
 1397POPC   C1B20491  29.399   6.708   8.658
 1397POPC   C2B20492  29.541   6.368   8.408
 1397POPC   C3B20493  29.437   6.254   7.998
 1397POPC   C4B20494  29.453   6.365   7.537
 1398POPC   NC320495  35.384  16.971   9.541
 1398POPC   PO420496  35.512  16.228   9.564
 1398POPC   GL120497  35.251  16.395   9.196
 1398POPC   GL220498  35.306  16.738   9.106
 1398POPC   C1A20499  35.306  16.420   8.730
 1398POPC   D2A20500  35.458  16.578   8.336
 1398POPC   C3A20501  35.171  16.483   7.991
 1398POPC   C4A20502  35.087  16.589   7.571
 1398POPC   C1B20503  35.218  16.947   8.719
 1398POPC   C2B20504  35.041  16.890   8.298
 1398POPC   C3B20505  35.135  17.001   7.869
 1398POPC   C4B20506  34.874  17.031   7.440
 1399POPC   NC320507  15.917  36.595   9.375
 1399POPC   PO420508  15.656  37.244   9.532
 1399POPC   GL120509  15.728  37.025   9.144
 1399POPC   GL220510  16.098  36.938   9.060
 1399POPC   C1A20511  15.745  36.779   8.728
 1399POPC   D2A20512  15.658  36.516   8.359
 1399POPC   C3A20513  15.767  36.811   8.043
 1399POPC   C4A20514  15.586  37.053   7.691
 1399POPC   C1B20515  16.219  36.593   8.761
 1399POPC   C2B20516  16.167  36.682   8.339
 1399POPC   C3B20517  16.337  36.682   7.940
 1399POPC   C4B20518  16.102  36.924   7.691
 1400POPC   NC320519  43.707  19.262   9.579
 1400POPC   PO420520  44.179  18.792   9.557
 1400POPC   GL120521  44.023  18.960   9.151
 1400POPC   GL220522  43.888  19.275   9.109
 1400POPC   C1A20523  43.871  18.958   8.707
 1400POPC   D2A20524  43.992  19.025   8.302
 1400POPC   C3A20525  43.873  18.869   7.881
 1400POPC   C4A20526  43.799  18.812   7.418
 1400POPC   C1B20527  43.599  19.386   8.795
 1400POPC   C2B20528  43.509  19.272   8.380
 1400POPC   C3B20529  43.732  19.384   8.000
 1400POPC   C4B20530  43.613  19.656   7.655
 1401POPC   NC320531  33.457   6.423   9.848
 1401POPC   PO420532  33.933   6.729   9.422
 1401POPC   GL120533  33.794   6.606   9.029
 1401POPC   GL220534  33.559   6.829   9.030
 1401POPC   C1A20535  33.799   6.439   8.604
 1401POPC   D2A20536  33.638   6.419   8.184
 1401POPC   C3A20537  33.859   6.696   7.933
 1401POPC   C4A20538  34.105   7.063   7.932
 1401POPC   C1B20539  33.767   7.004   8.698
 1401POPC   C2B20540  33.682   7.047   8.261
 1401POPC   C3B20541  33.419   6.913   7.917
 1401POPC   C4B20542  33.455   6.469   7.694
 1402POPC   NC320543  14.110  27.237   9.673
 1402POPC   PO420544  14.458  27.611   9.176
 1402POPC   GL120545  14.527  27.677   8.808
 1402POPC   GL220546  14.609  28.028   8.872
 1402POPC   C1A20547  14.395  27.380   8.512
 1402POPC   D2A20548  14.097  27.260   8.217
 1402POPC   C3A20549  14.268  27.516   7.912
 1402POPC   C4A20550  14.587  27.524   7.637
 1402POPC   C1B20551  14.244  27.992   8.529
 1402POPC   C2B20552  13.960  27.846   8.198
 1402POPC   C3B20553  13.965  27.921   7.749
 1402POPC   C4B20554  14.343  27.972   7.474
 1403POPC   NC320555   6.442  20.823   9.376
 1403POPC   PO420556   6.546  21.564   9.438
 1403POPC   GL120557   6.555  21.418   9.050
 1403POPC   GL220558   6.306  21.158   9.029
 1403POPC   C1A20559   6.720  21.496   8.659
 1403POPC   D2A20560   6.561  21.716   8.315
 1403POPC   C3A20561   6.779  21.573   7.987
 1403POPC   C4A20562   6.740  21.424   7.634
 1403POPC   C1B20563   6.472  21.049   8.644
 1403POPC   C2B20564   6.644  21.159   8.250
 1403POPC   C3B20565   6.465  21.049   7.823
 1403POPC   C4B20566   6.519  21.106   7.343
 1404POPC   NC320567  29.211  20.014   9.447
 1404POPC   PO420568  29.588  19.473   9.371
 1404POPC   GL120569  29.448  19.755   9.068
 1404POPC   GL220570  29.087  19.774   9.016
 1404POPC   C1A20571  29.484  20.087   8.771
 1404POPC   D2A20572  29.341  20.196   8.353
 1404POPC   C3A20573  29.320  19.853   8.070
 1404POPC   C4A20574  29.383  19.726   7.649
 1404POPC   C1B20575  28.998  19.880   8.604
 1404POPC   C2B20576  28.848  19.673   8.233
 1404POPC   C3B20577  28.900  19.754   7.782
 1404POPC   C4B20578  28.809  19.717   7.310
 1405POPC   NC320579  19.784  33.173   9.636
 1405POPC   PO420580  20.320  32.916   9.579
 1405POPC   GL120581  20.023  32.854   9.257
 1405POPC   GL220582  19.986  33.182   9.130
 1405POPC   C1A20583  20.029  32.770   8.800
 1405POPC   D2A20584  20.003  32.908   8.359
 1405POPC   C3A20585  19.736  32.835   7.991
 1405POPC   C4A20586  19.766  32.917   7.531
 1405POPC   C1B20587  19.924  33.276   8.696
 1405POPC   C2B20588  19.666  33.285   8.277
 1405POPC   C3B20589  19.552  33.318   7.795
 1405POPC   C4B20590  19.559  33.329   7.297
 1406POPC   NC320591  25.113   5.393   9.435
 1406POPC   PO420592  25.533   5.912   9.502
 1406POPC   GL120593  25.556   5.722   9.119
 1406POPC   GL220594  25.270   5.561   8.979
 1406POPC   C1A20595  25.433   6.019   8.788
 1406POPC   D2A20596  25.319   5.899   8.396
 1406POPC   C3A20597  25.340   6.081   8.013
 1406POPC   C4A20598  24.956   6.267   7.823
 1406POPC   C1B20599  25.016   5.525   8.601
 1406POPC   C2B20600  24.844   5.634   8.191
 1406POPC   C3B20601  24.883   5.738   7.746
 1406POPC   C4B20602  25.060   5.553   7.333
 1407POPC   NC320603  44.672  42.220   9.525
 1407POPC   PO420604  44.652  42.892   9.531
 1407POPC   GL120605  44.573  42.575   9.170
 1407POPC   GL220606  44.403  42.198   9.111
 1407POPC   C1A20607  44.787  42.386   8.839
 1407POPC   D2A20608  44.709  42.608   8.501
 1407POPC   C3A20609  44.872  42.529   8.148
 1407POPC   C4A20610  44.710  42.537   7.752
 1407POPC   C1B20611  44.535  41.913   8.819
 1407POPC   C2B20612  44.692  42.041   8.432
 1407POPC   C3B20613  44.607  42.080   8.015
 1407POPC   C4B20614  44.849  42.009   7.684
 1408POPC   NC320615  44.012  24.466   9.804
 1408POPC   PO420616  43.426  24.857   9.664
 1408POPC   GL120617  43.726  24.597   9.343
 1408POPC   GL220618  44.094  24.638   9.317
 1408POPC   C1A20619  43.843  24.494   8.885
 1408POPC   D2A20620  44.081  24.303   8.527
 1408POPC   C3A20621  43.899  24.191   8.119
 1408POPC   C4A20622  43.725  24.356   7.745
 1408POPC   C1B20623  44.279  24.813   8.929
 1408POPC   C2B20624  44.086  24.824   8.507
 1408POPC   C3B20625  44.163  24.629   8.116
 1408POPC   C4B20626  44.107  24.707   7.680
 1409POPC   NC320627  11.122  40.951   9.399
 1409POPC   PO420628  11.148  41.653   9.475
 1409POPC   GL120629  11.285  41.399   9.143
 1409POPC   GL220630  11.658  41.412   9.111
 1409POPC   C1A20631  11.126  41.491   8.730
 1409POPC   D2A20632  11.253  41.637   8.333
 1409POPC   C3A20633  11.357  41.374   8.023
 1409POPC   C4A20634  11.191  41.476   7.606
 1409POPC   C1B20635  11.569  41.801   8.825
 1409POPC   C2B20636  11.678  41.920   8.376
 1409POPC   C3B20637  11.559  41.851   7.938
 1409POPC   C4B20638  11.506  41.862   7.481
 1410POPC   NC320639  32.525  13.426   9.431
 1410POPC   PO420640  31.850  13.370   9.532
 1410POPC   GL120641  32.091  13.482   9.160
 1410POPC   GL220642  32.165  13.836   9.215
 1410POPC   C1A20643  32.431  13.356   8.824
 1410POPC   D2A20644  32.454  13.543   8.441
 1410POPC   C3A20645  32.504  13.370   8.076
 1410POPC   C4A20646  32.248  13.377   7.767
 1410POPC   C1B20647  32.390  13.874   8.828
 1410POPC   C2B20648  32.478  14.033   8.401
 1410POPC   C3B20649  32.297  13.842   8.038
 1410POPC   C4B20650  32.461  13.816   7.654
 1411POPC   NC320651   9.704  10.326   9.743
 1411POPC   PO420652   9.821   9.702   9.622
 1411POPC   GL120653   9.955   9.673   9.192
 1411POPC   GL220654   9.874   9.999   9.156
 1411POPC   C1A20655   9.842   9.676   8.713
 1411POPC   D2A20656   9.631   9.904   8.351
 1411POPC   C3A20657   9.808   9.878   7.921
 1411POPC   C4A20658   9.783   9.553   7.576
 1411POPC   C1B20659   9.789  10.196   8.764
 1411POPC   C2B20660  10.004  10.292   8.409
 1411POPC   C3B20661  10.156  10.256   8.008
 1411POPC   C4B20662  10.186  10.015   7.611
 1412POPC   NC320663  34.985  16.253   9.620
 1412POPC   PO420664  35.262  15.651   9.552
 1412POPC   GL120665  35.329  15.871   9.135
 1412POPC   GL220666  35.630  16.084   9.080
 1412POPC   C1A20667  35.090  15.949   8.740
 1412POPC   D2A20668  34.875  15.869   8.344
 1412POPC   C3A20669  35.115  15.940   7.983
 1412POPC   C4A20670  35.235  15.676   7.674
 1412POPC   C1B20671  35.600  16.005   8.697
 1412POPC   C2B20672  35.423  16.067   8.351
 1412POPC   C3B20673  35.574  16.175   7.965
 1412POPC   C4B20674  35.488  16.298   7.562
 1413POPC   NC320675  29.464  19.047   9.482
 1413POPC   PO420676  28.787  18.938   9.398
 1413POPC   GL120677  29.081  18.953   9.072
 1413POPC   GL220678  29.197  19.281   9.085
 1413POPC   C1A20679  29.276  18.942   8.660
 1413POPC   D2A20680  29.610  18.986   8.354
 1413POPC   C3A20681  29.504  18.927   7.919
 1413POPC   C4A20682  29.509  18.601   7.589
 1413POPC   C1B20683  28.974  19.358   8.685
 1413POPC   C2B20684  28.982  19.168   8.284
 1413POPC   C3B20685  29.124  19.307   7.927
 1413POPC   C4B20686  29.047  19.321   7.524
 1414POPC   NC320687  10.227  18.614   9.399
 1414POPC   PO420688  10.580  17.967   9.506
 1414POPC   GL120689  10.615  18.265   9.171
 1414POPC   GL220690  10.860  18.094   9.031
 1414POPC   C1A20691  10.464  18.313   8.750
 1414POPC   D2A20692  10.163  18.135   8.460
 1414POPC   C3A20693  10.251  18.148   8.017
 1414POPC   C4A20694  10.452  18.477   7.774
 1414POPC   C1B20695  10.948  18.236   8.645
 1414POPC   C2B20696  10.706  18.164   8.301
 1414POPC   C3B20697  10.780  18.096   7.892
 1414POPC   C4B20698  10.890  18.250   7.549
 1415POPC   NC320699  23.104  32.597   9.472
 1415POPC   PO420700  22.873  31.933   9.486
 1415POPC   GL120701  22.873  32.136   9.112
 1415POPC   GL220702  22.902  32.504   9.017
 1415POPC   C1A20703  22.758  32.150   8.677
 1415POPC   D2A20704  22.545  32.278   8.318
 1415POPC   C3A20705  22.486  31.997   7.951
 1415POPC   C4A20706  22.576  31.993   7.473
 1415POPC   C1B20707  23.241  32.286   8.812
 1415POPC   C2B20708  23.175  32.246   8.401
 1415POPC   C3B20709  23.073  32.418   8.032
 1415POPC   C4B20710  22.997  32.070   7.770
 1416POPC   NC320711  42.167   4.288   9.673
 1416POPC   PO420712  42.175   4.754   9.153
 1416POPC   GL120713  42.172   4.422   8.919
 1416POPC   GL220714  42.175   4.173   9.156
 1416POPC   C1A20715  42.500   4.335   8.620
 1416POPC   D2A20716  42.479   4.081   8.267
 1416POPC   C3A20717  42.193   4.353   8.098
 1416POPC   C4A20718  42.274   4.601   7.765
 1416POPC   C1B20719  42.237   3.934   8.728
 1416POPC   C2B20720  41.976   3.936   8.337
 1416POPC   C3B20721  42.045   3.860   7.925
 1416POPC   C4B20722  42.360   4.054   7.725
 1417POPC   NC320723  28.960  20.981   9.483
 1417POPC   PO420724  29.432  20.446   9.539
 1417POPC   GL120725  29.145  20.524   9.195
 1417POPC   GL220726  28.784  20.458   9.227
 1417POPC   C1A20727  29.053  20.380   8.778
 1417POPC   D2A20728  29.014  20.616   8.402
 1417POPC   C3A20729  28.970  20.468   8.003
 1417POPC   C4A20730  29.294  20.280   7.805
 1417POPC   C1B20731  28.730  20.773   8.874
 1417POPC   C2B20732  28.541  20.796   8.463
 1417POPC   C3B20733  28.798  20.978   8.119
 1417POPC   C4B20734  29.038  20.900   7.717
 1418POPC   NC320735  17.548  38.517   9.551
 1418POPC   PO420736  18.246  38.436   9.535
 1418POPC   GL120737  18.102  38.532   9.147
 1418POPC   GL220738  17.853  38.309   9.185
 1418POPC   C1A20739  18.313  38.516   8.732
 1418POPC   D2A20740  18.347  38.286   8.336
 1418POPC   C3A20741  18.202  38.557   8.039
 1418POPC   C4A20742  18.505  38.763   7.820
 1418POPC   C1B20743  17.916  38.184   8.783
 1418POPC   C2B20744  17.848  38.385   8.393
 1418POPC   C3B20745  17.657  38.247   8.040
 1418POPC   C4B20746  17.871  38.330   7.686
 1419POPC   NC320747   3.908  12.391   9.679
 1419POPC   PO420748   4.419  12.779   9.667
 1419POPC   GL120749   4.469  12.887   9.191
 1419POPC   GL220750   4.125  12.963   9.144
 1419POPC   C1A20751   4.638  13.138   8.808
 1419POPC   D2A20752   4.638  12.962   8.382
 1419POPC   C3A20753   4.459  12.871   7.987
 1419POPC   C4A20754   4.632  13.245   7.879
 1419POPC   C1B20755   4.143  13.050   8.769
 1419POPC   C2B20756   4.147  12.881   8.390
 1419POPC   C3B20757   3.910  12.819   8.043
 1419POPC   C4B20758   4.074  12.714   7.656
 1420POPC   NC320759   0.102  21.240   9.465
 1420POPC   PO420760   0.602  21.669   9.557
 1420POPC   GL120761   0.471  21.452   9.133
 1420POPC   GL220762   0.164  21.244   8.963
 1420POPC   C1A20763   0.418  21.578   8.690
 1420POPC   D2A20764   0.426  21.300   8.299
 1420POPC   C3A20765   0.451  21.507   7.904
 1420POPC   C4A20766   0.255  21.868   7.723
 1420POPC   C1B20767   0.592  21.090   8.750
 1420POPC   C2B20768   0.888  21.066   8.369
 1420POPC   C3B20769   0.763  21.106   7.914
 1420POPC   C4B20770   0.393  21.149   7.550
 1421POPC   NC320771  16.964  28.670   9.323
 1421POPC   PO420772  16.476  28.566   9.795
 1421POPC   GL120773  16.468  28.543   9.267
 1421POPC   GL220774  16.599  28.782   8.979
 1421POPC   C1A20775  16.489  28.290   8.843
 1421POPC   D2A20776  16.603  28.122   8.415
 1421POPC   C3A20777  16.638  28.422   8.075
 1421POPC   C4A20778  16.487  28.457   7.631
 1421POPC   C1B20779  16.915  28.515   8.698
 1421POPC   C2B20780  17.089  28.313   8.339
 1421POPC   C3B20781  17.154  28.393   7.899
 1421POPC   C4B20782  16.958  28.616   7.519
 1422POPC   NC320783  37.940  10.352   9.577
 1422POPC   PO420784  38.565  10.611   9.853
 1422POPC   GL120785  38.447  10.670   9.341
 1422POPC   GL220786  38.314  10.371   9.138
 1422POPC   C1A20787  38.660  10.735   8.900
 1422POPC   D2A20788  38.789  10.699   8.439
 1422POPC   C3A20789  38.457  10.589   8.120
 1422POPC   C4A20790  38.289  10.555   7.688
 1422POPC   C1B20791  38.529  10.265   8.711
 1422POPC   C2B20792  38.781  10.192   8.314
 1422POPC   C3B20793  38.720  10.208   7.871
 1422POPC   C4B20794  38.316  10.035   7.780
 1423POPC   NC320795  25.403  44.259   9.473
 1423POPC   PO420796  25.632  43.685   9.440
 1423POPC   GL120797  25.347  43.825   9.130
 1423POPC   GL220798  25.027  43.933   9.267
 1423POPC   C1A20799  25.289  44.142   8.796
 1423POPC   D2A20800  25.264  44.330   8.368
 1423POPC   C3A20801  25.363  44.003   8.114
 1423POPC   C4A20802  25.430  43.989   7.700
 1423POPC   C1B20803  24.901  43.765   8.863
 1423POPC   C2B20804  24.959  43.914   8.463
 1423POPC   C3B20805  24.862  44.039   8.075
 1423POPC   C4B20806  24.938  43.936   7.672
 1424POPC   NC320807  20.616   8.462   9.979
 1424POPC   PO420808  20.566   9.039   9.669
 1424POPC   GL120809  20.459   8.985   9.231
 1424POPC   GL220810  20.783   8.854   9.187
 1424POPC   C1A20811  20.490   9.049   8.776
 1424POPC   D2A20812  20.360   8.810   8.413
 1424POPC   C3A20813  20.516   8.975   8.013
 1424POPC   C4A20814  20.414   8.896   7.571
 1424POPC   C1B20815  20.994   9.025   8.827
 1424POPC   C2B20816  20.858   9.031   8.406
 1424POPC   C3B20817  21.012   8.847   8.051
 1424POPC   C4B20818  20.916   8.867   7.660
 1425POPC   NC320819   3.018   0.187   9.527
 1425POPC   PO420820   2.647  44.642   9.683
 1425POPC   GL120821   2.877  44.747   9.278
 1425POPC   GL220822   2.824   0.053   9.093
 1425POPC   C1A20823   2.981  44.653   8.818
 1425POPC   D2A20824   2.927  44.856   8.434
 1425POPC   C3A20825   2.672  44.634   8.151
 1425POPC   C4A20826   2.766  44.626   7.739
 1425POPC   C1B20827   2.556  44.985   8.766
 1425POPC   C2B20828   2.423   0.042   8.343
 1425POPC   C3B20829   2.509   0.062   7.913
 1425POPC   C4B20830   2.907   0.117   7.766
 1426POPC   NC320831  12.624  37.832   9.308
 1426POPC   PO420832  12.992  37.282   9.530
 1426POPC   GL120833  12.968  37.500   9.123
 1426POPC   GL220834  13.242  37.732   9.018
 1426POPC   C1A20835  12.866  37.636   8.687
 1426POPC   D2A20836  12.994  37.667   8.254
 1426POPC   C3A20837  12.879  38.020   7.969
 1426POPC   C4A20838  12.611  38.068   7.587
 1426POPC   C1B20839  13.337  37.348   8.789
 1426POPC   C2B20840  13.265  37.067   8.434
 1426POPC   C3B20841  13.286  37.307   8.073
 1426POPC   C4B20842  13.060  37.562   7.745
 1427POPC   NC320843  42.101  39.300   9.534
 1427POPC   PO420844  42.714  38.956   9.488
 1427POPC   GL120845  42.527  39.247   9.208
 1427POPC   GL220846  42.791  39.496   9.171
 1427POPC   C1A20847  42.287  39.333   8.810
 1427POPC   D2A20848  42.161  39.579   8.426
 1427POPC   C3A20849  42.193  39.369   8.032
 1427POPC   C4A20850  42.090  39.186   7.629
 1427POPC   C1B20851  42.820  39.266   8.796
 1427POPC   C2B20852  42.630  39.256   8.419
 1427POPC   C3B20853  42.694  39.511   8.107
 1427POPC   C4B20854  42.580  39.431   7.710
 1428POPC   NC320855  20.016  12.877   9.477
 1428POPC   PO420856  19.316  12.753   9.479
 1428POPC   GL120857  19.544  12.788   9.092
 1428POPC   GL220858  19.867  12.597   9.082
 1428POPC   C1A20859  19.591  12.663   8.649
 1428POPC   D2A20860  19.543  12.626   8.207
 1428POPC   C3A20861  19.698  12.865   7.886
 1428POPC   C4A20862  19.578  13.281   7.799
 1428POPC   C1B20863  20.022  12.909   8.793
 1428POPC   C2B20864  20.018  12.749   8.382
 1428POPC   C3B20865  20.134  12.616   8.008
 1428POPC   C4B20866  20.133  12.805   7.609
 1429POPC   NC320867   2.438  37.191   9.463
 1429POPC   PO420868   1.993  36.655   9.488
 1429POPC   GL120869   2.128  36.884   9.135
 1429POPC   GL220870   1.971  37.165   8.990
 1429POPC   C1A20871   2.146  36.757   8.707
 1429POPC   D2A20872   2.051  36.903   8.310
 1429POPC   C3A20873   2.086  36.694   7.947
 1429POPC   C4A20874   1.807  36.383   7.885
 1429POPC   C1B20875   1.705  37.367   8.695
 1429POPC   C2B20876   1.634  37.194   8.299
 1429POPC   C3B20877   1.869  37.218   7.914
 1429POPC   C4B20878   1.808  37.357   7.506
 1430POPC   NC320879  18.357  17.277   9.518
 1430POPC   PO420880  18.631  17.822   9.300
 1430POPC   GL120881  18.373  17.525   9.074
 1430POPC   GL220882  18.615  17.261   9.014
 1430POPC   C1A20883  18.174  17.217   8.779
 1430POPC   D2A20884  18.244  17.078   8.360
 1430POPC   C3A20885  18.325  17.295   8.029
 1430POPC   C4A20886  18.211  17.399   7.643
 1430POPC   C1B20887  18.733  17.649   8.703
 1430POPC   C2B20888  18.630  17.970   8.383
 1430POPC   C3B20889  18.723  17.948   7.980
 1430POPC   C4B20890  18.647  17.642   7.688
 1431POPC   NC320891  13.085  36.053   9.521
 1431POPC   PO420892  12.405  36.237   9.650
 1431POPC   GL120893  12.647  36.163   9.240
 1431POPC   GL220894  12.494  36.450   9.115
 1431POPC   C1A20895  12.862  35.976   8.836
 1431POPC   D2A20896  12.703  35.869   8.390
 1431POPC   C3A20897  12.950  35.973   7.983
 1431POPC   C4A20898  13.377  35.808   7.836
 1431POPC   C1B20899  12.443  36.222   8.709
 1431POPC   C2B20900  12.521  36.328   8.259
 1431POPC   C3B20901  12.538  36.281   7.806
 1431POPC   C4B20902  12.705  36.287   7.371
 1432POPC   NC320903  32.836  24.223   9.877
 1432POPC   PO420904  33.059  23.672   9.568
 1432POPC   GL120905  32.902  23.604   9.182
 1432POPC   GL220906  33.127  23.804   9.066
 1432POPC   C1A20907  32.737  23.741   8.739
 1432POPC   D2A20908  32.742  23.555   8.311
 1432POPC   C3A20909  32.841  23.711   7.878
 1432POPC   C4A20910  32.895  24.107   7.661
 1432POPC   C1B20911  33.167  23.480   8.738
 1432POPC   C2B20912  33.201  23.318   8.331
 1432POPC   C3B20913  33.329  23.524   7.968
 1432POPC   C4B20914  33.602  23.388   7.665
 1433POPC   NC320915  40.028  36.894   9.631
 1433POPC   PO420916  39.962  37.527   9.479
 1433POPC   GL120917  40.030  37.154   9.180
 1433POPC   GL220918  39.839  36.833   9.178
 1433POPC   C1A20919  40.039  36.970   8.737
 1433POPC   D2A20920  40.239  36.784   8.353
 1433POPC   C3A20921  40.234  36.941   7.954
 1433POPC   C4A20922  39.998  36.986   7.587
 1433POPC   C1B20923  39.644  36.619   8.860
 1433POPC   C2B20924  39.676  36.679   8.418
 1433POPC   C3B20925  39.724  36.816   7.990
 1433POPC   C4B20926  39.658  36.594   7.580
 1434POPC   NC320927  18.756   8.599   9.450
 1434POPC   PO420928  19.186   9.081   9.589
 1434POPC   GL120929  19.171   8.907   9.223
 1434POPC   GL220930  18.830   8.998   9.124
 1434POPC   C1A20931  19.162   8.615   8.910
 1434POPC   D2A20932  18.941   8.630   8.526
 1434POPC   C3A20933  19.091   8.786   8.160
 1434POPC   C4A20934  19.191   8.683   7.748
 1434POPC   C1B20935  19.054   9.090   8.748
 1434POPC   C2B20936  19.282   9.241   8.440
 1434POPC   C3B20937  19.168   9.286   8.038
 1434POPC   C4B20938  18.850   9.057   7.792
 1435POPC   NC320939  41.954  34.257   9.296
 1435POPC   PO420940  42.505  34.554   9.583
 1435POPC   GL120941  42.325  34.578   9.142
 1435POPC   GL220942  42.140  34.879   9.011
 1435POPC   C1A20943  42.383  34.296   8.778
 1435POPC   D2A20944  42.313  34.176   8.348
 1435POPC   C3A20945  42.493  34.432   7.998
 1435POPC   C4A20946  42.536  34.918   7.932
 1435POPC   C1B20947  42.017  34.639   8.655
 1435POPC   C2B20948  42.144  34.710   8.252
 1435POPC   C3B20949  42.038  34.674   7.831
 1435POPC   C4B20950  41.949  34.821   7.425
 1436POPC   NC320951  20.777   3.238   9.596
 1436POPC   PO420952  20.264   2.817   9.714
 1436POPC   GL120953  20.358   2.876   9.229
 1436POPC   GL220954  20.664   3.095   9.114
 1436POPC   C1A20955  20.443   2.791   8.744
 1436POPC   D2A20956  20.335   2.641   8.304
 1436POPC   C3A20957  20.578   2.606   7.912
 1436POPC   C4A20958  20.388   2.535   7.492
 1436POPC   C1B20959  20.698   3.219   8.666
 1436POPC   C2B20960  20.678   3.089   8.207
 1436POPC   C3B20961  20.803   3.128   7.743
 1436POPC   C4B20962  20.861   3.272   7.273
 1437POPC   NC320963  29.374   2.806   9.512
 1437POPC   PO420964  28.842   2.534   9.460
 1437POPC   GL120965  28.857   2.614   9.097
 1437POPC   GL220966  29.020   2.911   9.173
 1437POPC   C1A20967  28.832   2.807   8.727
 1437POPC   D2A20968  28.867   2.944   8.371
 1437POPC   C3A20969  29.043   2.608   8.149
 1437POPC   C4A20970  29.013   2.583   7.720
 1437POPC   C1B20971  29.316   2.984   8.860
 1437POPC   C2B20972  29.377   2.860   8.473
 1437POPC   C3B20973  29.438   2.967   8.059
 1437POPC   C4B20974  29.428   2.880   7.644
 1438POPC   NC320975  42.123  37.391   9.640
 1438POPC   PO420976  41.894  38.042   9.686
 1438POPC   GL120977  42.018  37.821   9.272
 1438POPC   GL220978  42.008  37.473   9.157
 1438POPC   C1A20979  42.256  37.856   8.865
 1438POPC   D2A20980  42.092  37.823   8.443
 1438POPC   C3A20981  42.303  37.837   8.046
 1438POPC   C4A20982  42.119  37.731   7.631
 1438POPC   C1B20983  42.395  37.374   8.907
 1438POPC   C2B20984  42.522  37.546   8.525
 1438POPC   C3B20985  42.525  37.380   8.150
 1438POPC   C4B20986  42.581  37.487   7.748
 1439POPC   NC320987  39.529  21.492   9.750
 1439POPC   PO420988  40.059  21.673   9.325
 1439POPC   GL120989  40.047  21.277   9.161
 1439POPC   GL220990  40.413  21.236   9.093
 1439POPC   C1A20991  39.970  21.308   8.736
 1439POPC   D2A20992  40.153  21.446   8.328
 1439POPC   C3A20993  39.905  21.543   7.980
 1439POPC   C4A20994  39.534  21.736   7.882
 1439POPC   C1B20995  40.450  21.182   8.652
 1439POPC   C2B20996  40.577  21.179   8.239
 1439POPC   C3B20997  40.301  21.236   7.876
 1439POPC   C4B20998  40.275  21.238   7.420
 1440POPC   NC320999  25.840  13.907   9.770
 1440POPC   PO421000  26.199  13.433   9.455
 1440POPC   GL121001  26.032  13.611   9.116
 1440POPC   GL221002  25.888  13.917   9.165
 1440POPC   C1A21003  25.884  13.541   8.731
 1440POPC   D2A21004  26.019  13.393   8.343
 1440POPC   C3A21005  25.727  13.354   8.011
 1440POPC   C4A21006  25.959  13.414   7.634
 1440POPC   C1B21007  26.041  14.036   8.758
 1440POPC   C2B21008  25.936  13.893   8.318
 1440POPC   C3B21009  25.986  13.858   7.852
 1440POPC   C4B21010  25.713  13.782   7.414
 1441POPC   NC321011  36.189  34.906   9.484
 1441POPC   PO421012  35.654  34.442   9.514
 1441POPC   GL121013  36.017  34.455   9.249
 1441POPC   GL221014  35.893  34.787   9.106
 1441POPC   C1A21015  36.265  34.504   8.858
 1441POPC   D2A21016  36.191  34.609   8.409
 1441POPC   C3A21017  36.237  34.237   8.155
 1441POPC   C4A21018  36.517  34.133   7.792
 1441POPC   C1B21019  35.760  34.739   8.708
 1441POPC   C2B21020  35.708  34.822   8.292
 1441POPC   C3B21021  35.866  34.550   7.961
 1441POPC   C4B21022  36.216  34.613   7.749
 1442POPC   NC321023   7.679  39.671   9.550
 1442POPC   PO421024   8.187  40.103   9.540
 1442POPC   GL121025   8.210  40.071   9.112
 1442POPC   GL221026   7.830  39.991   9.115
 1442POPC   C1A21027   8.422  40.062   8.692
 1442POPC   D2A21028   8.480  39.848   8.287
 1442POPC   C3A21029   8.203  39.920   7.943
 1442POPC   C4A21030   8.205  40.131   7.584
 1442POPC   C1B21031   7.927  40.228   8.737
 1442POPC   C2B21032   8.065  40.231   8.321
 1442POPC   C3B21033   7.802  40.231   7.925
 1442POPC   C4B21034   7.743  40.233   7.463
 1443POPC   NC321035   7.018  23.038   9.674
 1443POPC   PO421036   7.572  22.745   9.383
 1443POPC   GL121037   7.435  23.099   9.128
 1443POPC   GL221038   7.114  23.140   9.188
 1443POPC   C1A21039   7.507  23.106   8.681
 1443POPC   D2A21040   7.723  22.741   8.455
 1443POPC   C3A21041   7.641  22.704   8.012
 1443POPC   C4A21042   7.742  22.939   7.636
 1443POPC   C1B21043   6.987  23.239   8.799
 1443POPC   C2B21044   7.129  23.421   8.443
 1443POPC   C3B21045   7.161  23.341   8.064
 1443POPC   C4B21046   7.266  23.064   7.766
 1444POPC   NC321047  40.045  28.727   9.907
 1444POPC   PO421048  39.982  29.283   9.558
 1444POPC   GL121049  39.931  29.234   9.155
 1444POPC   GL221050  40.252  29.366   9.111
 1444POPC   C1A21051  39.986  28.972   8.779
 1444POPC   D2A21052  40.194  28.983   8.348
 1444POPC   C3A21053  39.917  29.050   7.983
 1444POPC   C4A21054  39.857  28.821   7.598
 1444POPC   C1B21055  40.123  29.464   8.708
 1444POPC   C2B21056  40.283  29.506   8.292
 1444POPC   C3B21057  40.344  29.316   7.895
 1444POPC   C4B21058  40.264  29.147   7.484
 1445POPC   NC321059   3.478   0.671   9.553
 1445POPC   PO421060   4.000   0.980   9.263
 1445POPC   GL121061   3.723   0.611   9.104
 1445POPC   GL221062   3.347   0.433   9.121
 1445POPC   C1A21063   3.647   0.414   8.711
 1445POPC   D2A21064   3.447   0.547   8.360
 1445POPC   C3A21065   3.710   0.508   8.024
 1445POPC   C4A21066   3.543   0.707   7.706
 1445POPC   C1B21067   3.238   0.115   8.808
 1445POPC   C2B21068   3.406   0.042   8.430
 1445POPC   C3B21069   3.317   0.147   8.056
 1445POPC   C4B21070   3.463   0.191   7.693
 1446POPC   NC321071   9.935   3.300   9.713
 1446POPC   PO421072   9.494   3.795   9.562
 1446POPC   GL121073   9.467   3.490   9.272
 1446POPC   GL221074   9.782   3.490   9.184
 1446POPC   C1A21075   9.388   3.539   8.842
 1446POPC   D2A21076   9.499   3.359   8.452
 1446POPC   C3A21077   9.616   3.546   8.074
 1446POPC   C4A21078   9.773   3.467   7.657
 1446POPC   C1B21079   9.958   3.385   8.775
 1446POPC   C2B21080  10.113   3.411   8.392
 1446POPC   C3B21081  10.133   3.569   8.020
 1446POPC   C4B21082  10.284   3.417   7.665
 1447POPC   NC321083  21.044  35.161   9.456
 1447POPC   PO421084  20.532  35.502   9.611
 1447POPC   GL121085  20.699  35.568   9.215
 1447POPC   GL221086  20.450  35.866   9.201
 1447POPC   C1A21087  20.849  35.381   8.817
 1447POPC   D2A21088  20.764  35.481   8.379
 1447POPC   C3A21089  20.550  35.306   8.026
 1447POPC   C4A21090  20.869  35.211   7.745
 1447POPC   C1B21091  20.615  35.853   8.800
 1447POPC   C2B21092  20.620  35.986   8.415
 1447POPC   C3B21093  20.560  35.830   8.050
 1447POPC   C4B21094  20.397  35.692   7.706
 1448POPC   NC321095  44.982  37.519   9.607
 1448POPC   PO421096  44.311  37.598   9.526
 1448POPC   GL121097  44.393  37.775   9.140
 1448POPC   GL221098  44.750  37.757   9.200
 1448POPC   C1A21099  44.519  37.745   8.700
 1448POPC   D2A21100  44.834  37.534   8.428
 1448POPC   C3A21101  44.794  37.734   8.038
 1448POPC   C4A21102  44.389  37.745   7.859
 1448POPC   C1B21103  44.840  38.093   8.928
 1448POPC   C2B21104  44.889  38.062   8.483
 1448POPC   C3B21105  44.953  38.251   8.084
 1448POPC   C4B21106  44.967  38.059   7.678
 1449POPC   NC321107  37.291  20.795   9.344
 1449POPC   PO421108  36.675  20.706   9.562
 1449POPC   GL121109  36.871  20.565   9.168
 1449POPC   GL221110  36.821  20.898   9.100
 1449POPC   C1A21111  37.078  20.679   8.731
 1449POPC   D2A21112  36.833  20.646   8.344
 1449POPC   C3A21113  37.043  20.617   7.950
 1449POPC   C4A21114  37.074  20.609   7.501
 1449POPC   C1B21115  36.621  21.082   8.765
 1449POPC   C2B21116  36.466  21.085   8.361
 1449POPC   C3B21117  36.761  21.045   8.030
 1449POPC   C4B21118  36.806  21.083   7.607
 1450POPC   NC321119  15.620  38.412   9.503
 1450POPC   PO421120  16.148  38.115   9.548
 1450POPC   GL121121  16.080  38.469   9.266
 1450POPC   GL221122  15.814  38.755   9.205
 1450POPC   C1A21123  16.163  38.475   8.837
 1450POPC   D2A21124  16.063  38.235   8.459
 1450POPC   C3A21125  16.144  38.350   8.031
 1450POPC   C4A21126  15.806  38.170   7.791
 1450POPC   C1B21127  15.869  38.872   8.799
 1450POPC   C2B21128  16.003  38.749   8.398
 1450POPC   C3B21129  15.776  38.715   8.012
 1450POPC   C4B21130  15.952  38.700   7.622
 1451POPC   NC321131   6.882  23.560   9.393
 1451POPC   PO421132   6.540  24.083   9.659
 1451POPC   GL121133   6.544  23.870   9.192
 1451POPC   GL221134   6.397  23.525   9.145
 1451POPC   C1A21135   6.583  23.877   8.734
 1451POPC   D2A21136   6.700  23.664   8.331
 1451POPC   C3A21137   6.644  23.798   7.903
 1451POPC   C4A21138   6.892  24.093   7.667
 1451POPC   C1B21139   6.495  23.364   8.722
 1451POPC   C2B21140   6.652  23.165   8.341
 1451POPC   C3B21141   6.702  23.287   7.893
 1451POPC   C4B21142   6.569  23.466   7.473
 1452POPC   NC321143  40.084  18.001   9.666
 1452POPC   PO421144  40.259  17.301   9.576
 1452POPC   GL121145  39.992  17.502   9.277
 1452POPC   GL221146  40.209  17.776   9.154
 1452POPC   C1A21147  39.896  17.445   8.829
 1452POPC   D2A21148  39.877  17.337   8.399
 1452POPC   C3A21149  39.556  17.537   8.140
 1452POPC   C4A21150  39.822  17.584   7.801
 1452POPC   C1B21151  40.273  17.797   8.689
 1452POPC   C2B21152  40.346  17.643   8.274
 1452POPC   C3B21153  40.244  17.340   7.971
 1452POPC   C4B21154  40.238  17.450   7.527
 1453POPC   NC321155  37.912  39.492   9.506
 1453POPC   PO421156  37.750  38.838   9.444
 1453POPC   GL121157  37.572  39.038   9.126
 1453POPC   GL221158  37.241  38.901   9.065
 1453POPC   C1A21159  37.563  39.352   8.813
 1453POPC   D2A21160  37.306  39.416   8.423
 1453POPC   C3A21161  37.539  39.496   8.094
 1453POPC   C4A21162  37.758  39.495   7.742
 1453POPC   C1B21163  37.444  38.872   8.654
 1453POPC   C2B21164  37.426  38.980   8.221
 1453POPC   C3B21165  37.397  39.086   7.798
 1453POPC   C4B21166  37.610  39.095   7.438
 1454POPC   NC321167  41.254   1.523   9.397
 1454POPC   PO421168  41.161   2.137   9.371
 1454POPC   GL121169  40.832   1.829   9.207
 1454POPC   GL221170  40.656   2.095   9.075
 1454POPC   C1A21171  40.605   1.624   8.817
 1454POPC   D2A21172  40.745   1.431   8.390
 1454POPC   C3A21173  40.641   1.639   7.989
 1454POPC   C4A21174  40.593   1.632   7.502
 1454POPC   C1B21175  40.869   2.052   8.733
 1454POPC   C2B21176  40.615   1.982   8.403
 1454POPC   C3B21177  40.602   2.143   8.026
 1454POPC   C4B21178  40.857   2.035   7.706
 1455POPC   NC321179  27.964   7.262   9.445
 1455POPC   PO421180  28.599   7.531   9.556
 1455POPC   GL121181  28.463   7.304   9.196
 1455POPC   GL221182  28.777   7.237   9.036
 1455POPC   C1A21183  28.204   7.451   8.834
 1455POPC   D2A21184  28.051   7.718   8.482
 1455POPC   C3A21185  28.163   7.494   8.118
 1455POPC   C4A21186  28.029   7.479   7.714
 1455POPC   C1B21187  28.699   7.653   8.865
 1455POPC   C2B21188  28.552   7.580   8.459
 1455POPC   C3B21189  28.668   7.539   8.052
 1455POPC   C4B21190  28.485   7.276   7.754
 1456POPC   NC321191  12.693   4.090   9.574
 1456POPC   PO421192  13.177   4.562   9.587
 1456POPC   GL121193  13.032   4.438   9.184
 1456POPC   GL221194  12.983   4.113   9.165
 1456POPC   C1A21195  12.696   4.412   8.838
 1456POPC   D2A21196  12.421   4.519   8.506
 1456POPC   C3A21197  12.514   4.298   8.129
 1456POPC   C4A21198  12.489   4.491   7.728
 1456POPC   C1B21199  12.950   3.977   8.750
 1456POPC   C2B21200  12.779   3.862   8.355
 1456POPC   C3B21201  12.980   3.830   7.968
 1456POPC   C4B21202  12.851   4.128   7.741
 1457POPC   NC321203   7.051  28.480   9.610
 1457POPC   PO421204   6.425  28.404   9.640
 1457POPC   GL121205   6.541  28.389   9.206
 1457POPC   GL221206   6.876  28.364   9.127
 1457POPC   C1A21207   6.483  28.593   8.813
 1457POPC   D2A21208   6.415  28.385   8.427
 1457POPC   C3A21209   6.660  28.375   8.067
 1457POPC   C4A21210   6.400  28.426   7.718
 1457POPC   C1B21211   6.856  28.277   8.688
 1457POPC   C2B21212   6.796  27.939   8.386
 1457POPC   C3B21213   6.965  27.945   7.973
 1457POPC   C4B21214   6.819  28.144   7.614
 1458POPC   NC321215  36.180   2.340   9.520
 1458POPC   PO421216  36.424   1.699   9.524
 1458POPC   GL121217  36.333   1.926   9.148
 1458POPC   GL221218  36.008   2.082   9.089
 1458POPC   C1A21219  36.250   1.853   8.703
 1458POPC   D2A21220  36.033   1.805   8.306
 1458POPC   C3A21221  36.349   1.860   7.993
 1458POPC   C4A21222  36.378   2.149   7.656
 1458POPC   C1B21223  35.710   2.308   8.817
 1458POPC   C2B21224  35.433   2.261   8.465
 1458POPC   C3B21225  35.651   2.313   8.066
 1458POPC   C4B21226  35.898   2.032   7.842
 1459POPC   NC321227   8.578  26.633   9.289
 1459POPC   PO421228   9.058  26.856   9.724
 1459POPC   GL121229   9.069  26.879   9.283
 1459POPC   GL221230   8.804  27.094   9.193
 1459POPC   C1A21231   9.079  26.751   8.851
 1459POPC   D2A21232   9.153  26.905   8.424
 1459POPC   C3A21233   8.950  26.682   8.103
 1459POPC   C4A21234   9.120  26.572   7.686
 1459POPC   C1B21235   8.906  27.239   8.784
 1459POPC   C2B21236   8.817  27.280   8.371
 1459POPC   C3B21237   9.004  27.176   7.983
 1459POPC   C4B21238   8.754  26.920   7.692
 1460POPC   NC321239  41.307  36.313   9.700
 1460POPC   PO421240  41.918  36.237   9.558
 1460POPC   GL121241  41.622  36.214   9.216
 1460POPC   GL221242  41.358  35.955   9.314
 1460POPC   C1A21243  41.558  36.394   8.774
 1460POPC   D2A21244  41.518  36.117   8.407
 1460POPC   C3A21245  41.661  36.168   7.999
 1460POPC   C4A21246  41.573  36.519   7.783
 1460POPC   C1B21247  41.326  35.948   8.859
 1460POPC   C2B21248  41.131  35.772   8.440
 1460POPC   C3B21249  41.307  35.795   8.042
 1460POPC   C4B21250  41.113  35.940   7.678
 1461POPC   NC321251  38.937  13.144   9.575
 1461POPC   PO421252  39.010  12.464   9.473
 1461POPC   GL121253  39.236  12.699   9.164
 1461POPC   GL221254  39.191  13.062   9.141
 1461POPC   C1A21255  39.242  12.556   8.753
 1461POPC   D2A21256  39.236  12.812   8.416
 1461POPC   C3A21257  39.034  12.592   8.105
 1461POPC   C4A21258  39.174  12.683   7.717
 1461POPC   C1B21259  39.273  13.285   8.774
 1461POPC   C2B21260  39.179  13.325   8.356
 1461POPC   C3B21261  39.297  13.130   7.991
 1461POPC   C4B21262  39.168  13.244   7.606
 1462POPC   NC321263   8.702  29.000   9.318
 1462POPC   PO421264   9.109  29.514   9.452
 1462POPC   GL121265   9.277  29.346   9.061
 1462POPC   GL221266   9.023  29.090   8.924
 1462POPC   C1A21267   9.276  29.441   8.636
 1462POPC   D2A21268   8.973  29.208   8.408
 1462POPC   C3A21269   9.165  28.968   8.129
 1462POPC   C4A21270   9.235  29.225   7.790
 1462POPC   C1B21271   8.619  28.953   8.679
 1462POPC   C2B21272   8.738  28.730   8.311
 1462POPC   C3B21273   8.874  28.612   7.889
 1462POPC   C4B21274   8.760  28.807   7.462
 1463POPC   NC321275  37.115  44.123   9.550
 1463POPC   PO421276  36.660  43.618   9.595
 1463POPC   GL121277  36.732  43.694   9.174
 1463POPC   GL221278  36.839  44.059   9.126
 1463POPC   C1A21279  36.700  43.460   8.766
 1463POPC   D2A21280  36.637  43.548   8.319
 1463POPC   C3A21281  36.931  43.797   8.050
 1463POPC   C4A21282  36.832  43.855   7.603
 1463POPC   C1B21283  37.209  44.208   8.828
 1463POPC   C2B21284  37.390  44.195   8.396
 1463POPC   C3B21285  37.356  44.346   7.984
 1463POPC   C4B21286  37.188  44.223   7.583
 1464POPC   NC321287  24.027  40.087   9.496
 1464POPC   PO421288  23.421  39.794   9.390
 1464POPC   GL121289  23.665  40.044   9.091
 1464POPC   GL221290  24.027  40.185   9.006
 1464POPC   C1A21291  23.557  40.157   8.684
 1464POPC   D2A21292  23.473  40.373   8.296
 1464POPC   C3A21293  23.455  40.081   7.944
 1464POPC   C4A21294  23.547  40.006   7.509
 1464POPC   C1B21295  24.020  39.864   8.709
 1464POPC   C2B21296  23.794  39.847   8.325
 1464POPC   C3B21297  23.948  39.985   7.954
 1464POPC   C4B21298  24.020  39.821   7.562
 1465POPC   NC321299  23.083  14.707   9.252
 1465POPC   PO421300  22.504  14.420   9.471
 1465POPC   GL121301  22.693  14.435   9.093
 1465POPC   GL221302  22.546  14.779   9.086
 1465POPC   C1A21303  22.986  14.287   8.716
 1465POPC   D2A21304  23.090  14.207   8.245
 1465POPC   C3A21305  23.035  14.493   7.854
 1465POPC   C4A21306  23.025  14.335   7.377
 1465POPC   C1B21307  22.645  14.671   8.653
 1465POPC   C2B21308  22.699  14.886   8.276
 1465POPC   C3B21309  22.530  14.860   7.871
 1465POPC   C4B21310  22.611  14.555   7.522
 1466POPC   NC321311  10.707  39.141   9.403
 1466POPC   PO421312  10.147  38.779   9.524
 1466POPC   GL121313  10.288  38.988   9.139
 1466POPC   GL221314  10.381  39.338   9.075
 1466POPC   C1A21315  10.276  39.021   8.703
 1466POPC   D2A21316  10.498  39.209   8.381
 1466POPC   C3A21317  10.372  39.182   7.961
 1466POPC   C4A21318  10.435  39.501   7.641
 1466POPC   C1B21319  10.786  39.334   8.804
 1466POPC   C2B21320  10.928  39.501   8.409
 1466POPC   C3B21321  10.840  39.395   8.022
 1466POPC   C4B21322  10.943  39.333   7.645
 1467POPC   NC321323   4.134  26.461   9.483
 1467POPC   PO421324   4.063  25.760   9.506
 1467POPC   GL121325   4.202  26.082   9.147
 1467POPC   GL221326   4.542  26.105   9.022
 1467POPC   C1A21327   4.214  26.263   8.689
 1467POPC   D2A21328   3.986  26.338   8.330
 1467POPC   C3A21329   4.192  26.251   7.959
 1467POPC   C4A21330   4.085  25.998   7.631
 1467POPC   C1B21331   4.432  25.803   8.745
 1467POPC   C2B21332   4.289  25.863   8.328
 1467POPC   C3B21333   4.423  25.701   7.925
 1467POPC   C4B21334   4.858  25.683   7.793
 1468POPC   NC321335  17.537  13.124   9.566
 1468POPC   PO421336  17.472  12.519   9.802
 1468POPC   GL121337  17.372  12.685   9.286
 1468POPC   GL221338  17.620  12.892   9.120
 1468POPC   C1A21339  17.215  12.579   8.836
 1468POPC   D2A21340  17.301  12.605   8.387
 1468POPC   C3A21341  17.063  12.600   7.999
 1468POPC   C4A21342  17.168  12.871   7.654
 1468POPC   C1B21343  17.680  12.748   8.712
 1468POPC   C2B21344  17.794  12.585   8.287
 1468POPC   C3B21345  17.684  12.762   7.894
 1468POPC   C4B21346  17.912  12.755   7.473
 1469POPC   NC321347  44.942  12.142   9.543
 1469POPC   PO421348  44.284  12.237   9.521
 1469POPC   GL121349  44.430  12.049   9.151
 1469POPC   GL221350  44.706  11.910   9.182
 1469POPC   C1A21351  44.652  12.175   8.752
 1469POPC   D2A21352  44.763  12.382   8.380
 1469POPC   C3A21353  44.731  12.050   8.115
 1469POPC   C4A21354  44.927  12.189   7.800
 1469POPC   C1B21355  44.977  11.777   8.865
 1469POPC   C2B21356   0.125  12.013   8.528
 1469POPC   C3B21357   0.256  11.926   8.116
 1469POPC   C4B21358   0.033  11.698   7.793
 1470POPC   NC321359  15.550  27.871   9.486
 1470POPC   PO421360  15.051  28.284   9.558
 1470POPC   GL121361  15.163  28.404   9.163
 1470POPC   GL221362  15.273  28.077   9.102
 1470POPC   C1A21363  15.251  28.739   8.825
 1470POPC   D2A21364  15.022  28.781   8.430
 1470POPC   C3A21365  15.211  28.771   8.024
 1470POPC   C4A21366  14.969  28.697   7.640
 1470POPC   C1B21367  15.402  28.261   8.713
 1470POPC   C2B21368  15.170  28.290   8.359
 1470POPC   C3B21369  15.168  27.976   8.050
 1470POPC   C4B21370  15.334  27.998   7.587
 1471POPC   NC321371  37.059  11.711   9.476
 1471POPC   PO421372  36.742  12.389   9.463
 1471POPC   GL121373  36.953  12.179   9.157
 1471POPC   GL221374  36.730  11.943   9.192
 1471POPC   C1A21375  37.035  12.139   8.732
 1471POPC   D2A21376  37.088  12.374   8.349
 1471POPC   C3A21377  37.131  12.188   7.931
 1471POPC   C4A21378  36.912  12.322   7.555
 1471POPC   C1B21379  36.626  11.777   8.835
 1471POPC   C2B21380  36.857  11.729   8.476
 1471POPC   C3B21381  36.793  11.589   8.092
 1471POPC   C4B21382  36.770  11.795   7.734
 1472POPC   NC321383   6.795  27.052   9.457
 1472POPC   PO421384   6.249  26.643   9.459
 1472POPC   GL121385   6.524  26.799   9.118
 1472POPC   GL221386   6.490  27.159   9.034
 1472POPC   C1A21387   6.777  26.645   8.730
 1472POPC   D2A21388   7.038  26.689   8.324
 1472POPC   C3A21389   6.875  26.507   7.960
 1472POPC   C4A21390   6.507  26.671   7.752
 1472POPC   C1B21391   6.333  26.900   8.672
 1472POPC   C2B21392   6.518  26.807   8.281
 1472POPC   C3B21393   6.794  27.030   8.007
 1472POPC   C4B21394   6.585  27.167   7.664
 1473POPC   NC321395   4.905  21.535   9.961
 1473POPC   PO421396   4.332  21.327   9.667
 1473POPC   GL121397   4.184  21.366   9.236
 1473POPC   GL221398   4.090  21.058   9.038
 1473POPC   C1A21399   4.376  21.432   8.813
 1473POPC   D2A21400   4.621  21.550   8.457
 1473POPC   C3A21401   4.319  21.559   8.126
 1473POPC   C4A21402   4.306  21.453   7.705
 1473POPC   C1B21403   4.099  21.057   8.589
 1473POPC   C2B21404   4.200  21.072   8.156
 1473POPC   C3B21405   4.358  20.963   7.736
 1473POPC   C4B21406   4.167  21.121   7.332
 1474POPC   NC321407  27.037  22.159   9.381
 1474POPC   PO421408  26.446  21.833   9.470
 1474POPC   GL121409  26.622  22.096   9.115
 1474POPC   GL221410  26.583  22.444   9.095
 1474POPC   C1A21411  26.809  22.173   8.702
 1474POPC   D2A21412  26.987  22.063   8.308
 1474POPC   C3A21413  26.734  21.964   7.959
 1474POPC   C4A21414  26.819  22.267   7.661
 1474POPC   C1B21415  26.405  22.476   8.740
 1474POPC   C2B21416  26.396  22.209   8.399
 1474POPC   C3B21417  26.420  22.350   7.984
 1474POPC   C4B21418  26.371  22.508   7.587
 1475POPC   NC321419  11.999  13.173   9.444
 1475POPC   PO421420  11.968  12.573   9.498
 1475POPC   GL121421  12.173  12.764   9.142
 1475POPC   GL221422  12.443  12.546   9.091
 1475POPC   C1A21423  11.989  12.894   8.731
 1475POPC   D2A21424  11.999  12.676   8.311
 1475POPC   C3A21425  12.019  12.896   7.918
 1475POPC   C4A21426  12.241  12.904   7.520
 1475POPC   C1B21427  12.381  12.604   8.646
 1475POPC   C2B21428  12.511  12.486   8.225
 1475POPC   C3B21429  12.351  12.500   7.812
 1475POPC   C4B21430  12.445  12.492   7.313
 1476POPC   NC321431  14.463   7.672   9.796
 1476POPC   PO421432  14.520   8.299   9.592
 1476POPC   GL121433  14.714   8.368   9.203
 1476POPC   GL221434  14.514   8.617   9.037
 1476POPC   C1A21435  14.729   8.076   8.847
 1476POPC   D2A21436  14.510   7.939   8.479
 1476POPC   C3A21437  14.619   8.162   8.135
 1476POPC   C4A21438  14.628   7.960   7.773
 1476POPC   C1B21439  14.235   8.349   8.764
 1476POPC   C2B21440  14.058   8.216   8.343
 1476POPC   C3B21441  14.172   8.238   7.898
 1476POPC   C4B21442  14.171   8.562   7.567
 1477POPC   NC321443  36.045  26.052   9.604
 1477POPC   PO421444  36.268  25.447   9.589
 1477POPC   GL121445  36.132  25.737   9.191
 1477POPC   GL221446  36.158  26.130   9.092
 1477POPC   C1A21447  36.050  25.797   8.707
 1477POPC   D2A21448  36.005  26.092   8.351
 1477POPC   C3A21449  36.108  26.070   7.913
 1477POPC   C4A21450  36.178  25.767   7.563
 1477POPC   C1B21451  36.410  26.156   8.658
 1477POPC   C2B21452  36.473  25.880   8.249
 1477POPC   C3B21453  36.611  25.939   7.781
 1477POPC   C4B21454  36.626  25.933   7.294
 1478POPC   NC321455  36.772   7.911   9.587
 1478POPC   PO421456  36.894   8.628   9.619
 1478POPC   GL121457  36.979   8.267   9.278
 1478POPC   GL221458  36.653   8.123   9.152
 1478POPC   C1A21459  37.070   8.122   8.837
 1478POPC   D2A21460  37.104   8.313   8.430
 1478POPC   C3A21461  37.083   8.121   8.024
 1478POPC   C4A21462  36.880   8.420   7.802
 1478POPC   C1B21463  36.615   7.876   8.800
 1478POPC   C2B21464  36.457   8.060   8.452
 1478POPC   C3B21465  36.583   8.051   8.058
 1478POPC   C4B21466  36.724   7.957   7.627
 1479POPC   NC321467  25.224  37.438   9.366
 1479POPC   PO421468  25.589  37.919   9.663
 1479POPC   GL121469  25.538  37.819   9.195
 1479POPC   GL221470  25.184  37.838   9.077
 1479POPC   C1A21471  25.477  37.592   8.764
 1479POPC   D2A21472  25.185  37.513   8.473
 1479POPC   C3A21473  25.387  37.415   8.117
 1479POPC   C4A21474  25.206  37.602   7.785
 1479POPC   C1B21475  24.960  38.114   8.772
 1479POPC   C2B21476  24.799  38.026   8.366
 1479POPC   C3B21477  24.814  37.880   7.939
 1479POPC   C4B21478  24.950  37.958   7.499
 1480POPC   NC321479  25.710  38.226   9.994
 1480POPC   PO421480  25.292  38.560   9.614
 1480POPC   GL121481  25.171  38.610   9.198
 1480POPC   GL221482  25.297  38.315   9.113
 1480POPC   C1A21483  25.287  38.614   8.726
 1480POPC   D2A21484  25.223  38.364   8.359
 1480POPC   C3A21485  25.355  38.577   8.004
 1480POPC   C4A21486  25.111  38.862   7.821
 1480POPC   C1B21487  25.473  38.098   8.733
 1480POPC   C2B21488  25.474  37.929   8.279
 1480POPC   C3B21489  25.333  38.089   7.867
 1480POPC   C4B21490  25.592  38.244   7.508
 1481POPC   NC321491  23.365  37.017   9.444
 1481POPC   PO421492  23.962  37.059   9.641
 1481POPC   GL121493  23.837  37.080   9.179
 1481POPC   GL221494  23.507  37.215   8.988
 1481POPC   C1A21495  23.873  36.981   8.728
 1481POPC   D2A21496  23.720  37.255   8.386
 1481POPC   C3A21497  23.823  37.200   7.936
 1481POPC   C4A21498  23.862  37.105   7.488
 1481POPC   C1B21499  23.373  36.902   8.629
 1481POPC   C2B21500  23.592  36.751   8.236
 1481POPC   C3B21501  23.636  36.741   7.778
 1481POPC   C4B21502  23.531  36.753   7.340
 1482POPC   NC321503   8.175  12.471   9.461
 1482POPC   PO421504   7.909  11.856   9.506
 1482POPC   GL121505   8.185  11.949   9.133
 1482POPC   GL221506   8.509  12.184   9.131
 1482POPC   C1A21507   8.349  11.888   8.699
 1482POPC   D2A21508   8.232  12.158   8.348
 1482POPC   C3A21509   8.411  12.143   7.947
 1482POPC   C4A21510   8.250  11.891   7.650
 1482POPC   C1B21511   8.276  12.377   8.805
 1482POPC   C2B21512   8.349  12.665   8.472
 1482POPC   C3B21513   8.377  12.636   8.039
 1482POPC   C4B21514   8.471  12.542   7.597
 1483POPC   NC321515   4.824   2.807   9.452
 1483POPC   PO421516   5.304   2.438   9.275
 1483POPC   GL121517   5.162   2.756   9.079
 1483POPC   GL221518   5.278   3.061   9.216
 1483POPC   C1A21519   4.955   2.785   8.723
 1483POPC   D2A21520   5.002   2.785   8.299
 1483POPC   C3A21521   5.144   2.504   8.042
 1483POPC   C4A21522   4.882   2.697   7.737
 1483POPC   C1B21523   5.436   3.019   8.758
 1483POPC   C2B21524   5.346   3.156   8.346
 1483POPC   C3B21525   5.326   2.980   7.883
 1483POPC   C4B21526   5.178   2.990   7.429
 1484POPC   NC321527  31.834  39.441   9.857
 1484POPC   PO421528  32.407  39.350   9.629
 1484POPC   GL121529  32.137  39.181   9.336
 1484POPC   GL221530  32.339  38.900   9.209
 1484POPC   C1A21531  32.088  39.226   8.902
 1484POPC   D2A21532  32.267  39.204   8.496
 1484POPC   C3A21533  32.167  39.495   8.185
 1484POPC   C4A21534  32.090  39.480   7.780
 1484POPC   C1B21535  32.603  38.965   8.816
 1484POPC   C2B21536  32.654  38.930   8.333
 1484POPC   C3B21537  32.488  39.140   7.937
 1484POPC   C4B21538  32.542  39.028   7.462
 1485POPC   NC321539  29.650  40.485   9.424
 1485POPC   PO421540  30.109  39.933   9.412
 1485POPC   GL121541  29.968  40.204   9.124
 1485POPC   GL221542  29.601  40.107   9.055
 1485POPC   C1A21543  30.183  40.260   8.752
 1485POPC   D2A21544  30.522  40.159   8.505
 1485POPC   C3A21545  30.437  40.434   8.167
 1485POPC   C4A21546  30.088  40.346   7.897
 1485POPC   C1B21547  29.840  39.861   8.744
 1485POPC   C2B21548  30.014  40.002   8.340
 1485POPC   C3B21549  29.838  39.899   7.951
 1485POPC   C4B21550  29.849  39.708   7.543
 1486POPC   NC321551   2.929  34.900   9.451
 1486POPC   PO421552   3.613  34.867   9.576
 1486POPC   GL121553   3.567  34.648   9.181
 1486POPC   GL221554   3.252  34.659   9.120
 1486POPC   C1A21555   3.635  34.428   8.787
 1486POPC   D2A21556   3.769  34.182   8.419
 1486POPC   C3A21557   3.739  34.333   7.971
 1486POPC   C4A21558   3.693  34.484   7.521
 1486POPC   C1B21559   3.181  34.661   8.686
 1486POPC   C2B21560   3.387  34.561   8.286
 1486POPC   C3B21561   3.305  34.598   7.824
 1486POPC   C4B21562   3.157  34.590   7.385
 1487POPC   NC321563   8.209  28.785   9.623
 1487POPC   PO421564   8.391  29.363   9.342
 1487POPC   GL121565   8.138  29.162   9.080
 1487POPC   GL221566   8.229  28.824   9.111
 1487POPC   C1A21567   8.183  29.300   8.658
 1487POPC   D2A21568   8.190  29.505   8.273
 1487POPC   C3A21569   7.859  29.449   8.009
 1487POPC   C4A21570   7.876  29.051   7.856
 1487POPC   C1B21571   8.035  28.808   8.703
 1487POPC   C2B21572   8.230  28.933   8.297
 1487POPC   C3B21573   8.489  28.961   7.951
 1487POPC   C4B21574   8.288  28.769   7.679
 1488POPC   NC321575  28.283   4.527   9.426
 1488POPC   PO421576  28.552   3.970   9.370
 1488POPC   GL121577  28.335   4.160   9.039
 1488POPC   GL221578  28.076   4.423   8.967
 1488POPC   C1A21579  28.245   4.056   8.638
 1488POPC   D2A21580  28.192   4.281   8.317
 1488POPC   C3A21581  28.546   4.162   8.111
 1488POPC   C4A21582  28.554   4.113   7.694
 1488POPC   C1B21583  28.442   4.582   8.731
 1488POPC   C2B21584  28.614   4.626   8.302
 1488POPC   C3B21585  28.355   4.604   7.924
 1488POPC   C4B21586  28.115   4.779   7.594
 1489POPC   NC321587  40.484   4.135   9.592
 1489POPC   PO421588  41.096   4.437   9.562
 1489POPC   GL121589  40.891   4.451   9.190
 1489POPC   GL221590  40.807   4.131   9.181
 1489POPC   C1A21591  40.657   4.443   8.803
 1489POPC   D2A21592  40.481   4.369   8.400
 1489POPC   C3A21593  40.736   4.355   8.068
 1489POPC   C4A21594  40.692   4.478   7.691
 1489POPC   C1B21595  40.539   3.923   8.939
 1489POPC   C2B21596  40.514   3.850   8.539
 1489POPC   C3B21597  40.522   3.878   8.127
 1489POPC   C4B21598  40.610   3.976   7.738
 1490POPC   NC321599  29.993  34.169   9.597
 1490POPC   PO421600  30.001  34.803   9.468
 1490POPC   GL121601  30.057  34.537   9.128
 1490POPC   GL221602  29.699  34.451   9.175
 1490POPC   C1A21603  30.167  34.604   8.680
 1490POPC   D2A21604  29.923  34.501   8.286
 1490POPC   C3A21605  29.932  34.568   7.839
 1490POPC   C4A21606  30.092  34.224   7.583
 1490POPC   C1B21607  29.633  34.652   8.792
 1490POPC   C2B21608  29.578  34.846   8.412
 1490POPC   C3B21609  29.448  34.718   8.004
 1490POPC   C4B21610  29.519  34.913   7.599
 1491POPC   NC321611   3.967  18.129   9.272
 1491POPC   PO421612   4.521  18.361   9.609
 1491POPC   GL121613   4.489  18.314   9.185
 1491POPC   GL221614   4.237  18.527   9.123
 1491POPC   C1A21615   4.427  18.166   8.752
 1491POPC   D2A21616   4.654  18.198   8.376
 1491POPC   C3A21617   4.456  18.260   8.012
 1491POPC   C4A21618   4.480  18.364   7.581
 1491POPC   C1B21619   4.026  18.487   8.728
 1491POPC   C2B21620   4.040  18.265   8.356
 1491POPC   C3B21621   4.031  18.574   8.074
 1491POPC   C4B21622   4.158  18.726   7.720
 1492POPC   NC321623  34.713  14.402   9.503
 1492POPC   PO421624  34.088  14.630   9.529
 1492POPC   GL121625  34.315  14.339   9.176
 1492POPC   GL221626  34.660  14.263   9.046
 1492POPC   C1A21627  34.291  14.385   8.716
 1492POPC   D2A21628  34.466  14.655   8.359
 1492POPC   C3A21629  34.322  14.388   8.053
 1492POPC   C4A21630  34.435  14.233   7.713
 1492POPC   C1B21631  34.800  14.476   8.700
 1492POPC   C2B21632  34.674  14.206   8.393
 1492POPC   C3B21633  34.850  14.240   8.003
 1492POPC   C4B21634  34.895  14.416   7.592
 1493POPC   NC321635  28.681  18.574   9.675
 1493POPC   PO421636  28.372  18.010   9.749
 1493POPC   GL121637  28.437  18.140   9.312
 1493POPC   GL221638  28.350  18.500   9.281
 1493POPC   C1A21639  28.501  18.025   8.847
 1493POPC   D2A21640  28.437  18.313   8.464
 1493POPC   C3A21641  28.407  18.155   8.038
 1493POPC   C4A21642  28.604  18.453   7.749
 1493POPC   C1B21643  28.133  18.393   8.872
 1493POPC   C2B21644  27.917  18.460   8.481
 1493POPC   C3B21645  28.097  18.551   8.072
 1493POPC   C4B21646  28.112  18.421   7.626
 1494POPC   NC321647  25.756  23.976   9.330
 1494POPC   PO421648  26.321  23.597   9.453
 1494POPC   GL121649  26.270  23.472   9.079
 1494POPC   GL221650  25.934  23.593   9.054
 1494POPC   C1A21651  26.231  23.459   8.655
 1494POPC   D2A21652  26.114  23.759   8.348
 1494POPC   C3A21653  26.375  23.864   8.026
 1494POPC   C4A21654  26.220  23.783   7.662
 1494POPC   C1B21655  25.754  23.766   8.702
 1494POPC   C2B21656  25.592  23.665   8.315
 1494POPC   C3B21657  25.743  23.612   7.910
 1494POPC   C4B21658  25.561  23.603   7.513
 1495POPC   NC321659   0.912  40.121   9.558
 1495POPC   PO421660   1.464  39.842   9.519
 1495POPC   GL121661   1.202  40.029   9.158
 1495POPC   GL221662   0.976  40.341   9.093
 1495POPC   C1A21663   1.003  39.972   8.732
 1495POPC   D2A21664   1.146  39.960   8.297
 1495POPC   C3A21665   0.945  39.890   7.889
 1495POPC   C4A21666   1.245  39.885   7.568
 1495POPC   C1B21667   1.352  40.340   8.797
 1495POPC   C2B21668   1.318  40.476   8.376
 1495POPC   C3B21669   1.110  40.388   7.989
 1495POPC   C4B21670   1.351  40.504   7.671
 1496POPC   NC321671  20.123  15.331   9.459
 1496POPC   PO421672  19.525  15.056   9.532
 1496POPC   GL121673  19.694  15.191   9.155
 1496POPC   GL221674  19.995  15.024   9.084
 1496POPC   C1A21675  19.756  15.396   8.761
 1496POPC   D2A21676  19.806  15.598   8.342
 1496POPC   C3A21677  20.044  15.375   8.089
 1496POPC   C4A21678  19.963  15.254   7.681
 1496POPC   C1B21679  20.255  14.810   8.796
 1496POPC   C2B21680  20.321  14.917   8.381
 1496POPC   C3B21681  20.239  14.924   7.964
 1496POPC   C4B21682  20.001  14.757   7.608
 1497POPC   NC321683  39.682  30.869   9.345
 1497POPC   PO421684  39.032  30.689   9.524
 1497POPC   GL121685  39.238  30.701   9.146
 1497POPC   GL221686  39.205  31.027   9.076
 1497POPC   C1A21687  39.455  30.686   8.731
 1497POPC   D2A21688  39.303  30.547   8.327
 1497POPC   C3A21689  39.396  30.707   7.951
 1497POPC   C4A21690  39.234  30.708   7.545
 1497POPC   C1B21691  38.956  30.996   8.730
 1497POPC   C2B21692  38.788  31.047   8.331
 1497POPC   C3B21693  38.983  31.028   7.933
 1497POPC   C4B21694  38.913  31.229   7.560
 1498POPC   NC321695   1.066  11.019   9.691
 1498POPC   PO421696   1.539  11.521   9.569
 1498POPC   GL121697   1.474  11.290   9.187
 1498POPC   GL221698   1.129  11.233   9.146
 1498POPC   C1A21699   1.422  11.396   8.748
 1498POPC   D2A21700   1.478  11.268   8.333
 1498POPC   C3A21701   1.319  11.446   7.946
 1498POPC   C4A21702   1.606  11.301   7.631
 1498POPC   C1B21703   0.890  11.451   8.787
 1498POPC   C2B21704   0.832  11.289   8.356
 1498POPC   C3B21705   1.099  11.005   8.105
 1498POPC   C4B21706   1.114  10.830   7.691
 1499POPC   NC321707  43.373   3.127   9.595
 1499POPC   PO421708  42.915   2.700   9.607
 1499POPC   GL121709  43.185   2.713   9.233
 1499POPC   GL221710  43.537   2.721   9.281
 1499POPC   C1A21711  43.092   2.850   8.804
 1499POPC   D2A21712  42.993   2.705   8.391
 1499POPC   C3A21713  42.888   2.956   8.045
 1499POPC   C4A21714  43.102   2.811   7.698
 1499POPC   C1B21715  43.586   2.751   8.848
 1499POPC   C2B21716  43.498   2.661   8.441
 1499POPC   C3B21717  43.450   2.911   8.063
 1499POPC   C4B21718  43.625   2.986   7.637
 1500POPC   NC321719  19.536  23.470   9.939
 1500POPC   PO421720  19.470  24.010   9.554
 1500POPC   GL121721  19.677  23.883   9.156
 1500POPC   GL221722  19.958  24.120   9.072
 1500POPC   C1A21723  19.704  23.637   8.777
 1500POPC   D2A21724  20.000  23.557   8.447
 1500POPC   C3A21725  19.756  23.598   8.064
 1500POPC   C4A21726  19.375  23.598   7.820
 1500POPC   C1B21727  19.855  24.107   8.638
 1500POPC   C2B21728  20.009  24.022   8.235
 1500POPC   C3B21729  20.067  23.961   7.827
 1500POPC   C4B21730  20.340  24.114   7.548
 1501POPC   NC321731  36.185  40.599   9.403
 1501POPC   PO421732  35.697  41.052   9.473
 1501POPC   GL121733  35.730  40.824   9.116
 1501POPC   GL221734  35.914  40.554   8.950
 1501POPC   C1A21735  35.788  41.011   8.737
 1501POPC   D2A21736  36.029  40.876   8.371
 1501POPC   C3A21737  35.966  40.939   7.948
 1501POPC   C4A21738  36.073  40.536   7.716
 1501POPC   C1B21739  36.312  40.773   8.796
 1501POPC   C2B21740  36.566  40.920   8.445
 1501POPC   C3B21741  36.442  40.811   8.029
 1501POPC   C4B21742  36.344  40.975   7.602
 1502POPC   NC321743   7.376  43.141   9.614
 1502POPC   PO421744   7.723  42.622   9.289
 1502POPC   GL121745   7.497  42.963   9.128
 1502POPC   GL221746   7.618  43.297   9.204
 1502POPC   C1A21747   7.234  43.243   8.871
 1502POPC   D2A21748   7.254  43.496   8.507
 1502POPC   C3A21749   7.132  43.273   8.134
 1502POPC   C4A21750   7.297  43.035   7.789
 1502POPC   C1B21751   7.646  43.572   8.883
 1502POPC   C2B21752   7.781  43.624   8.494
 1502POPC   C3B21753   7.598  43.501   8.136
 1502POPC   C4B21754   7.411  43.514   7.748
 1503POPC   NC321755  30.334   6.108   9.424
 1503POPC   PO421756  29.751   5.987   9.631
 1503POPC   GL121757  29.833   5.995   9.207
 1503POPC   GL221758  29.703   6.306   9.057
 1503POPC   C1A21759  29.849   5.752   8.817
 1503POPC   D2A21760  29.640   5.685   8.408
 1503POPC   C3A21761  29.856   5.721   8.034
 1503POPC   C4A21762  29.683   5.931   7.685
 1503POPC   C1B21763  30.081   6.224   8.817
 1503POPC   C2B21764  30.017   6.065   8.435
 1503POPC   C3B21765  29.956   6.228   8.075
 1503POPC   C4B21766  30.176   6.060   7.770
 1504POPC   NC321767   3.272  16.543   9.549
 1504POPC   PO421768   2.630  16.413   9.461
 1504POPC   GL121769   2.801  16.684   9.137
 1504POPC   GL221770   3.190  16.660   9.075
 1504POPC   C1A21771   2.545  16.616   8.753
 1504POPC   D2A21772   2.350  16.613   8.360
 1504POPC   C3A21773   2.596  16.852   8.091
 1504POPC   C4A21774   2.613  16.811   7.673
 1504POPC   C1B21775   3.062  16.652   8.696
 1504POPC   C2B21776   3.046  16.820   8.291
 1504POPC   C3B21777   3.095  16.854   7.840
 1504POPC   C4B21778   2.993  16.960   7.369
 1505POPC   NC321779  38.986  37.122   9.590
 1505POPC   PO421780  39.631  37.127   9.575
 1505POPC   GL121781  39.334  36.973   9.244
 1505POPC   GL221782  39.152  37.246   9.067
 1505POPC   C1A21783  39.167  36.784   8.850
 1505POPC   D2A21784  39.204  36.973   8.434
 1505POPC   C3A21785  39.236  36.711   8.078
 1505POPC   C4A21786  39.149  36.746   7.657
 1505POPC   C1B21787  39.548  37.140   8.805
 1505POPC   C2B21788  39.693  37.183   8.389
 1505POPC   C3B21789  39.431  37.228   8.017
 1505POPC   C4B21790  39.514  37.142   7.609
 1506POPC   NC321791  34.068  22.715   9.626
 1506POPC   PO421792  33.468  23.048   9.498
 1506POPC   GL121793  33.443  22.861   9.139
 1506POPC   GL221794  33.774  22.794   9.171
 1506POPC   C1A21795  33.348  22.973   8.728
 1506POPC   D2A21796  33.601  22.988   8.338
 1506POPC   C3A21797  33.466  22.975   7.910
 1506POPC   C4A21798  33.701  22.880   7.510
 1506POPC   C1B21799  33.891  22.896   8.774
 1506POPC   C2B21800  34.004  22.701   8.390
 1506POPC   C3B21801  33.790  22.552   8.062
 1506POPC   C4B21802  33.970  22.496   7.699
 1507POPC   NC321803  31.723  22.061   9.575
 1507POPC   PO421804  31.600  22.682   9.427
 1507POPC   GL121805  31.513  22.295   9.154
 1507POPC   GL221806  31.723  21.979   9.084
 1507POPC   C1A21807  31.214  22.031   8.910
 1507POPC   D2A21808  31.062  21.994   8.485
 1507POPC   C3A21809  31.248  22.275   8.167
 1507POPC   C4A21810  31.510  22.165   7.808
 1507POPC   C1B21811  31.726  21.822   8.677
 1507POPC   C2B21812  31.645  21.906   8.246
 1507POPC   C3B21813  31.927  21.865   7.885
 1507POPC   C4B21814  31.750  21.778   7.496
 1508POPC   NC321815  13.171  30.498   9.548
 1508POPC   PO421816  12.648  30.951   9.733
 1508POPC   GL121817  12.766  30.783   9.340
 1508POPC   GL221818  12.595  30.998   9.133
 1508POPC   C1A21819  13.004  30.667   8.946
 1508POPC   D2A21820  13.080  30.750   8.523
 1508POPC   C3A21821  12.882  30.569   8.162
 1508POPC   C4A21822  13.126  30.577   7.786
 1508POPC   C1B21823  12.532  30.733   8.771
 1508POPC   C2B21824  12.392  30.574   8.385
 1508POPC   C3B21825  12.394  30.731   7.978
 1508POPC   C4B21826  12.616  30.614   7.620
 1509POPC   NC321827   4.900  40.285   9.553
 1509POPC   PO421828   5.421  40.372   9.176
 1509POPC   GL121829   5.121  40.028   9.094
 1509POPC   GL221830   4.769  40.007   9.140
 1509POPC   C1A21831   5.176  39.792   8.716
 1509POPC   D2A21832   5.351  39.695   8.333
 1509POPC   C3A21833   5.232  39.873   7.944
 1509POPC   C4A21834   5.166  40.089   7.585
 1509POPC   C1B21835   4.687  39.860   8.732
 1509POPC   C2B21836   4.842  39.872   8.296
 1509POPC   C3B21837   4.758  40.086   7.881
 1509POPC   C4B21838   4.715  40.147   7.373
 1510POPC   NC321839  13.089   5.001   9.736
 1510POPC   PO421840  12.462   4.916   9.607
 1510POPC   GL121841  12.718   4.815   9.248
 1510POPC   GL221842  12.913   5.075   9.227
 1510POPC   C1A21843  12.976   4.807   8.815
 1510POPC   D2A21844  12.793   4.930   8.419
 1510POPC   C3A21845  12.874   4.744   8.023
 1510POPC   C4A21846  12.814   4.979   7.664
 1510POPC   C1B21847  12.854   5.283   8.794
 1510POPC   C2B21848  13.034   5.462   8.433
 1510POPC   C3B21849  12.923   5.295   8.061
 1510POPC   C4B21850  12.961   5.473   7.679
 1511POPC   NC321851   0.988  15.607   9.554
 1511POPC   PO421852   1.100  16.301   9.517
 1511POPC   GL121853   1.285  15.926   9.246
 1511POPC   GL221854   1.642  15.762   9.135
 1511POPC   C1A21855   1.249  15.799   8.814
 1511POPC   D2A21856   0.924  15.931   8.582
 1511POPC   C3A21857   0.931  15.891   8.157
 1511POPC   C4A21858   1.107  15.766   7.800
 1511POPC   C1B21859   1.734  15.973   8.739
 1511POPC   C2B21860   1.495  16.001   8.354
 1511POPC   C3B21861   1.582  15.868   7.929
 1511POPC   C4B21862   1.564  16.179   7.615
 1512POPC   NC321863   3.739  31.280   9.483
 1512POPC   PO421864   3.095  31.176   9.329
 1512POPC   GL121865   3.443  31.433   9.074
 1512POPC   GL221866   3.787  31.582   9.089
 1512POPC   C1A21867   3.667  31.352   8.643
 1512POPC   D2A21868   3.740  31.103   8.264
 1512POPC   C3A21869   3.714  31.285   7.870
 1512POPC   C4A21870   3.557  31.323   7.422
 1512POPC   C1B21871   3.763  31.836   8.741
 1512POPC   C2B21872   3.558  31.811   8.352
 1512POPC   C3B21873   3.545  31.910   7.920
 1512POPC   C4B21874   3.808  31.710   7.628
 1513POPC   NC321875  35.166  10.638   9.606
 1513POPC   PO421876  35.784  11.069   9.512
 1513POPC   GL121877  35.448  10.861   9.230
 1513POPC   GL221878  35.535  10.556   9.084
 1513POPC   C1A21879  35.100  10.712   8.902
 1513POPC   D2A21880  35.253  10.633   8.461
 1513POPC   C3A21881  34.979  10.519   8.122
 1513POPC   C4A21882  35.060  10.440   7.700
 1513POPC   C1B21883  35.795  10.380   8.762
 1513POPC   C2B21884  35.743  10.498   8.341
 1513POPC   C3B21885  35.488  10.491   7.954
 1513POPC   C4B21886  35.524  10.510   7.458
 1514POPC   NC321887  13.035  16.716   9.545
 1514POPC   PO421888  12.355  16.583   9.552
 1514POPC   GL121889  12.669  16.578   9.213
 1514POPC   GL221890  12.854  16.924   9.130
 1514POPC   C1A21891  12.746  16.562   8.788
 1514POPC   D2A21892  12.461  16.667   8.483
 1514POPC   C3A21893  12.600  16.581   8.073
 1514POPC   C4A21894  12.777  16.810   7.740
 1514POPC   C1B21895  12.905  17.148   8.740
 1514POPC   C2B21896  12.922  16.911   8.377
 1514POPC   C3B21897  13.191  16.848   8.040
 1514POPC   C4B21898  13.129  17.195   7.753
 1515POPC   NC321899   6.616  40.973   9.325
 1515POPC   PO421900   6.788  41.489   9.752
 1515POPC   GL121901   6.472  41.473   9.316
 1515POPC   GL221902   6.683  41.739   9.090
 1515POPC   C1A21903   6.312  41.435   8.877
 1515POPC   D2A21904   6.508  41.306   8.476
 1515POPC   C3A21905   6.317  41.309   8.062
 1515POPC   C4A21906   6.333  41.355   7.638
 1515POPC   C1B21907   6.763  41.732   8.640
 1515POPC   C2B21908   6.734  41.710   8.201
 1515POPC   C3B21909   6.780  41.433   7.862
 1515POPC   C4B21910   6.744  41.568   7.428
 1516POPC   NC321911  41.028  13.259   9.776
 1516POPC   PO421912  40.450  13.486   9.472
 1516POPC   GL121913  40.629  13.604   9.050
 1516POPC   GL221914  40.431  13.914   8.971
 1516POPC   C1A21915  40.954  13.669   8.698
 1516POPC   D2A21916  40.805  13.631   8.253
 1516POPC   C3A21917  40.984  13.784   7.890
 1516POPC   C4A21918  40.941  13.368   7.688
 1516POPC   C1B21919  40.487  13.869   8.562
 1516POPC   C2B21920  40.358  13.881   8.133
 1516POPC   C3B21921  40.508  13.657   7.760
 1516POPC   C4B21922  40.629  13.619   7.320
 1517POPC   NC321923  36.420   6.622   9.533
 1517POPC   PO421924  35.784   6.316   9.399
 1517POPC   GL121925  36.159   6.419   9.116
 1517POPC   GL221926  36.332   6.764   9.066
 1517POPC   C1A21927  36.108   6.553   8.682
 1517POPC   D2A21928  36.004   6.374   8.321
 1517POPC   C3A21929  35.773   6.575   8.044
 1517POPC   C4A21930  35.662   6.389   7.653
 1517POPC   C1B21931  36.562   6.786   8.689
 1517POPC   C2B21932  36.329   6.820   8.294
 1517POPC   C3B21933  36.223   6.715   7.855
 1517POPC   C4B21934  36.305   6.934   7.441
 1518POPC   NC321935   0.207  35.952   9.412
 1518POPC   PO421936   0.570  36.580   9.482
 1518POPC   GL121937   0.421  36.315   9.116
 1518POPC   GL221938   0.505  35.969   9.001
 1518POPC   C1A21939   0.227  36.175   8.658
 1518POPC   D2A21940   0.263  35.870   8.320
 1518POPC   C3A21941   0.303  36.133   7.952
 1518POPC   C4A21942   0.298  36.149   7.490
 1518POPC   C1B21943   0.743  36.269   8.751
 1518POPC   C2B21944   0.690  36.171   8.347
 1518POPC   C3B21945   0.843  35.953   8.036
 1518POPC   C4B21946   0.776  36.218   7.706
 1519POPC   NC321947  14.758  27.929   9.417
 1519POPC   PO421948  14.084  28.119   9.559
 1519POPC   GL121949  14.300  28.359   9.236
 1519POPC   GL221950  14.645  28.438   9.266
 1519POPC   C1A21951  14.289  28.420   8.803
 1519POPC   D2A21952  14.123  28.489   8.373
 1519POPC   C3A21953  14.261  28.251   8.025
 1519POPC   C4A21954  14.052  28.410   7.661
 1519POPC   C1B21955  14.784  28.523   8.842
 1519POPC   C2B21956  14.642  28.423   8.426
 1519POPC   C3B21957  14.782  28.409   8.015
 1519POPC   C4B21958  14.796  28.058   7.725
 1520POPC   NC321959  23.165  17.151   9.539
 1520POPC   PO421960  22.719  16.669   9.543
 1520POPC   GL121961  22.995  16.630   9.186
 1520POPC   GL221962  23.022  16.973   9.082
 1520POPC   C1A21963  22.938  16.596   8.728
 1520POPC   D2A21964  22.677  16.600   8.357
 1520POPC   C3A21965  22.862  16.549   7.941
 1520POPC   C4A21966  22.823  16.318   7.539
 1520POPC   C1B21967  23.096  17.082   8.659
 1520POPC   C2B21968  23.111  16.900   8.257
 1520POPC   C3B21969  23.000  17.046   7.844
 1520POPC   C4B21970  23.036  17.151   7.388
 1521POPC   NC321971  31.213   7.881   9.554
 1521POPC   PO421972  30.680   8.259   9.558
 1521POPC   GL121973  30.850   8.148   9.183
 1521POPC   GL221974  30.856   7.840   9.179
 1521POPC   C1A21975  30.658   8.222   8.764
 1521POPC   D2A21976  30.467   8.372   8.370
 1521POPC   C3A21977  30.662   8.477   8.012
 1521POPC   C4A21978  30.786   8.135   7.771
 1521POPC   C1B21979  30.981   7.825   8.757
 1521POPC   C2B21980  30.867   8.023   8.354
 1521POPC   C3B21981  31.109   7.903   8.061
 1521POPC   C4B21982  31.277   8.040   7.672
 1522POPC   NC321983  24.287   4.248   9.954
 1522POPC   PO421984  24.715   3.949   9.564
 1522POPC   GL121985  24.421   4.056   9.176
 1522POPC   GL221986  24.727   4.146   8.908
 1522POPC   C1A21987  24.298   4.387   8.863
 1522POPC   D2A21988  24.370   4.236   8.461
 1522POPC   C3A21989  24.445   4.033   8.070
 1522POPC   C4A21990  24.288   4.036   7.646
 1522POPC   C1B21991  24.739   4.596   8.726
 1522POPC   C2B21992  24.582   4.673   8.305
 1522POPC   C3B21993  24.494   4.548   7.909
 1522POPC   C4B21994  24.801   4.787   7.681
 1523POPC   NC321995   8.526  33.702   9.722
 1523POPC   PO421996   7.914  34.070   9.863
 1523POPC   GL121997   8.027  33.808   9.417
 1523POPC   GL221998   8.342  33.873   9.257
 1523POPC   C1A21999   7.970  33.766   8.916
 1523POPC   D2A22000   8.184  33.742   8.444
 1523POPC   C3A22001   8.087  33.740   7.993
 1523POPC   C4A22002   7.877  33.901   7.607
 1523POPC   C1B22003   8.494  33.781   8.838
 1523POPC   C2B22004   8.710  33.547   8.525
 1523POPC   C3B22005   8.516  33.472   8.109
 1523POPC   C4B22006   8.536  33.803   7.757
 1524POPC   NC322007   2.401  10.334   9.806
 1524POPC   PO422008   1.822  10.616   9.462
 1524POPC   GL122009   1.820  10.584   9.061
 1524POPC   GL222010   2.024  10.856   8.957
 1524POPC   C1A22011   1.959  10.412   8.679
 1524POPC   D2A22012   1.746  10.296   8.310
 1524POPC   C3A22013   1.977  10.284   7.939
 1524POPC   C4A22014   1.767  10.315   7.570
 1524POPC   C1B22015   2.342  10.799   8.669
 1524POPC   C2B22016   2.230  10.677   8.276
 1524POPC   C3B22017   1.963  10.794   7.947
 1524POPC   C4B22018   2.131  10.683   7.553
 1525POPC   NC322019  42.463   2.671   9.500
 1525POPC   PO422020  42.098   3.242   9.411
 1525POPC   GL122021  42.230   2.961   9.103
 1525POPC   GL222022  42.128   2.614   9.120
 1525POPC   C1A22023  42.345   2.838   8.691
 1525POPC   D2A22024  42.470   2.693   8.301
 1525POPC   C3A22025  42.339   2.881   7.928
 1525POPC   C4A22026  42.609   2.619   7.701
 1525POPC   C1B22027  41.861   2.551   8.774
 1525POPC   C2B22028  41.958   2.654   8.361
 1525POPC   C3B22029  41.989   2.478   7.970
 1525POPC   C4B22030  42.128   2.495   7.542
 1526POPC   NC322031  43.900  22.918   9.555
 1526POPC   PO422032  43.375  23.284   9.462
 1526POPC   GL122033  43.708  23.206   9.133
 1526POPC   GL222034  44.089  23.255   9.165
 1526POPC   C1A22035  43.845  22.972   8.745
 1526POPC   D2A22036  43.924  22.668   8.389
 1526POPC   C3A22037  43.844  22.827   7.984
 1526POPC   C4A22038  43.561  22.939   7.673
 1526POPC   C1B22039  44.160  23.374   8.713
 1526POPC   C2B22040  44.015  23.236   8.275
 1526POPC   C3B22041  43.905  23.311   7.811
 1526POPC   C4B22042  44.171  23.313   7.409
 1527POPC   NC322043  33.779   2.578   9.578
 1527POPC   PO422044  34.005   3.194   9.726
 1527POPC   GL122045  33.956   2.985   9.298
 1527POPC   GL222046  33.599   2.833   9.200
 1527POPC   C1A22047  33.971   2.906   8.853
 1527POPC   D2A22048  33.905   2.704   8.457
 1527POPC   C3A22049  34.075   2.702   8.051
 1527POPC   C4A22050  33.959   2.976   7.735
 1527POPC   C1B22051  33.546   2.595   8.844
 1527POPC   C2B22052  33.395   2.744   8.452
 1527POPC   C3B22053  33.532   2.748   8.039
 1527POPC   C4B22054  33.408   3.039   7.721
 1528POPC   NC322055  32.649   9.558   9.495
 1528POPC   PO422056  33.019  10.121   9.428
 1528POPC   GL122057  32.839   9.858   9.125
 1528POPC   GL222058  33.105   9.588   9.105
 1528POPC   C1A22059  32.855   9.883   8.700
 1528POPC   D2A22060  33.068   9.616   8.434
 1528POPC   C3A22061  33.162   9.773   8.072
 1528POPC   C4A22062  32.880   9.698   7.752
 1528POPC   C1B22063  33.333   9.334   8.753
 1528POPC   C2B22064  33.279   9.143   8.348
 1528POPC   C3B22065  33.337   9.306   7.936
 1528POPC   C4B22066  33.368   9.622   7.617
 1529POPC   NC322067  41.730  23.959   9.472
 1529POPC   PO422068  41.495  23.309   9.488
 1529POPC   GL122069  41.469  23.604   9.180
 1529POPC   GL222070  41.241  23.869   9.294
 1529POPC   C1A22071  41.641  23.686   8.758
 1529POPC   D2A22072  41.635  23.504   8.337
 1529POPC   C3A22073  41.692  23.713   7.946
 1529POPC   C4A22074  42.026  23.921   7.763
 1529POPC   C1B22075  41.166  23.841   8.852
 1529POPC   C2B22076  41.315  23.929   8.418
 1529POPC   C3B22077  41.217  23.883   7.972
 1529POPC   C4B22078  41.286  23.669   7.571
 1530POPC   NC322079  41.012  29.622   9.500
 1530POPC   PO422080  40.467  30.090   9.543
 1530POPC   GL122081  40.698  30.078   9.167
 1530POPC   GL222082  40.800  29.761   9.062
 1530POPC   C1A22083  40.688  30.103   8.702
 1530POPC   D2A22084  40.732  29.765   8.368
 1530POPC   C3A22085  40.540  29.815   7.946
 1530POPC   C4A22086  40.578  30.147   7.631
 1530POPC   C1B22087  41.117  29.817   8.744
 1530POPC   C2B22088  41.111  30.118   8.394
 1530POPC   C3B22089  40.928  30.149   8.014
 1530POPC   C4B22090  41.012  29.835   7.703
 1531POPC   NC322091  35.876   3.944   9.250
 1531POPC   PO422092  36.342   3.567   9.601
 1531POPC   GL122093  36.206   3.293   9.134
 1531POPC   GL222094  35.866   3.411   9.016
 1531POPC   C1A22095  36.279   3.333   8.663
 1531POPC   D2A22096  36.107   3.382   8.258
 1531POPC   C3A22097  36.209   3.424   7.880
 1531POPC   C4A22098  35.896   3.498   7.566
 1531POPC   C1B22099  35.879   3.663   8.622
 1531POPC   C2B22100  36.273   3.827   8.445
 1531POPC   C3B22101  36.268   3.935   8.047
 1531POPC   C4B22102  36.368   3.829   7.649
 1532POPC   NC322103  28.651  34.482   9.442
 1532POPC   PO422104  28.237  34.952   9.559
 1532POPC   GL122105  28.497  34.918   9.181
 1532POPC   GL222106  28.220  34.723   9.073
 1532POPC   C1A22107  28.641  34.725   8.779
 1532POPC   D2A22108  28.344  34.512   8.484
 1532POPC   C3A22109  28.450  34.463   8.044
 1532POPC   C4A22110  28.763  34.262   7.818
 1532POPC   C1B22111  28.198  34.983   8.700
 1532POPC   C2B22112  28.335  34.964   8.245
 1532POPC   C3B22113  28.080  34.772   7.885
 1532POPC   C4B22114  28.089  34.760   7.420
 1533POPC   NC322115  43.650  15.813   9.575
 1533POPC   PO422116  44.193  16.333   9.546
 1533POPC   GL122117  43.837  16.290   9.229
 1533POPC   GL222118  43.609  15.986   9.108
 1533POPC   C1A22119  43.931  16.179   8.789
 1533POPC   D2A22120  43.850  15.867   8.472
 1533POPC   C3A22121  43.895  16.060   8.078
 1533POPC   C4A22122  44.029  15.919   7.692
 1533POPC   C1B22123  43.419  16.084   8.709
 1533POPC   C2B22124  43.348  15.836   8.341
 1533POPC   C3B22125  43.511  15.721   7.937
 1533POPC   C4B22126  43.546  16.084   7.696
 1534POPC   NC322127   9.514  26.873   9.782
 1534POPC   PO422128   9.868  26.484   9.369
 1534POPC   GL122129   9.663  26.760   9.103
 1534POPC   GL222130   9.866  27.045   8.963
 1534POPC   C1A22131   9.555  26.764   8.682
 1534POPC   D2A22132   9.677  26.979   8.328
 1534POPC   C3A22133   9.436  26.869   7.976
 1534POPC   C4A22134   9.568  26.801   7.582
 1534POPC   C1B22135  10.048  26.698   8.705
 1534POPC   C2B22136  10.057  26.595   8.256
 1534POPC   C3B22137   9.985  26.872   7.884
 1534POPC   C4B22138  10.054  26.841   7.405
 1535POPC   NC322139   2.015   3.364   9.591
 1535POPC   PO422140   1.676   3.858   9.368
 1535POPC   GL122141   1.855   3.581   9.122
 1535POPC   GL222142   1.605   3.334   9.198
 1535POPC   C1A22143   1.975   3.713   8.707
 1535POPC   D2A22144   2.160   3.855   8.327
 1535POPC   C3A22145   2.209   3.480   8.132
 1535POPC   C4A22146   2.110   3.313   7.750
 1535POPC   C1B22147   1.547   3.408   8.741
 1535POPC   C2B22148   1.685   3.489   8.318
 1535POPC   C3B22149   1.704   3.607   7.857
 1535POPC   C4B22150   1.781   3.495   7.374
 1536POPC   NC322151   1.516  34.694   9.941
 1536POPC   PO422152   1.087  34.317   9.526
 1536POPC   GL122153   1.162  34.498   9.146
 1536POPC   GL222154   1.446  34.734   9.189
 1536POPC   C1A22155   0.932  34.606   8.784
 1536POPC   D2A22156   0.744  34.526   8.379
 1536POPC   C3A22157   1.048  34.504   8.048
 1536POPC   C4A22158   1.038  34.374   7.596
 1536POPC   C1B22159   1.450  34.584   8.746
 1536POPC   C2B22160   1.466  34.688   8.319
 1536POPC   C3B22161   1.491  34.659   7.872
 1536POPC   C4B22162   1.306  34.899   7.559
 1537POPC   NC322163  14.753  33.116   9.676
 1537POPC   PO422164  14.128  32.934   9.604
 1537POPC   GL122165  14.392  32.991   9.259
 1537POPC   GL222166  14.484  33.301   9.274
 1537POPC   C1A22167  14.350  32.855   8.830
 1537POPC   D2A22168  14.187  32.751   8.420
 1537POPC   C3A22169  14.271  32.837   7.970
 1537POPC   C4A22170  14.298  32.714   7.487
 1537POPC   C1B22171  14.299  33.353   8.859
 1537POPC   C2B22172  14.431  33.251   8.421
 1537POPC   C3B22173  14.312  33.344   7.996
 1537POPC   C4B22174  14.136  33.192   7.614
 1538POPC   NC322175  34.242   4.569   9.438
 1538POPC   PO422176  34.886   4.601   9.477
 1538POPC   GL122177  34.632   4.379   9.141
 1538POPC   GL222178  34.358   4.107   9.163
 1538POPC   C1A22179  34.463   4.383   8.719
 1538POPC   D2A22180  34.356   4.230   8.276
 1538POPC   C3A22181  34.496   4.407   7.841
 1538POPC   C4A22182  34.447   4.519   7.382
 1538POPC   C1B22183  34.342   3.885   8.751
 1538POPC   C2B22184  34.138   3.718   8.395
 1538POPC   C3B22185  34.089   3.859   8.001
 1538POPC   C4B22186  34.263   3.778   7.640
 1539POPC   NC322187  35.356  20.258   9.683
 1539POPC   PO422188  35.393  19.554   9.564
 1539POPC   GL122189  35.562  19.673   9.127
 1539POPC   GL222190  35.242  19.758   8.949
 1539POPC   C1A22191  35.648  19.927   8.720
 1539POPC   D2A22192  35.424  19.897   8.342
 1539POPC   C3A22193  35.639  19.823   7.982
 1539POPC   C4A22194  35.480  19.863   7.584
 1539POPC   C1B22195  35.387  19.481   8.666
 1539POPC   C2B22196  35.221  19.407   8.278
 1539POPC   C3B22197  35.137  19.660   7.930
 1539POPC   C4B22198  35.169  19.459   7.549
 1540POPC   NC322199  31.340  28.734   9.834
 1540POPC   PO422200  31.290  28.188   9.364
 1540POPC   GL122201  31.207  28.316   8.998
 1540POPC   GL222202  31.549  28.409   8.954
 1540POPC   C1A22203  31.258  28.359   8.555
 1540POPC   D2A22204  31.701  28.302   8.384
 1540POPC   C3A22205  31.641  28.162   7.980
 1540POPC   C4A22206  31.209  28.202   7.842
 1540POPC   C1B22207  31.885  28.622   8.765
 1540POPC   C2B22208  32.072  28.721   8.392
 1540POPC   C3B22209  31.906  28.840   8.003
 1540POPC   C4B22210  31.573  28.639   7.796
 1541POPC   NC322211  24.693  12.249   9.471
 1541POPC   PO422212  24.163  11.915   9.266
 1541POPC   GL122213  24.513  12.051   9.032
 1541POPC   GL222214  24.860  11.894   9.113
 1541POPC   C1A22215  24.589  12.299   8.644
 1541POPC   D2A22216  24.642  12.391   8.186
 1541POPC   C3A22217  24.519  12.138   7.834
 1541POPC   C4A22218  24.135  11.865   7.826
 1541POPC   C1B22219  24.720  11.771   8.677
 1541POPC   C2B22220  24.557  11.885   8.279
 1541POPC   C3B22221  24.591  11.644   7.885
 1541POPC   C4B22222  24.710  11.717   7.457
 1542POPC   NC322223  17.070  37.971   9.618
 1542POPC   PO422224  16.777  38.505   9.887
 1542POPC   GL122225  16.612  38.452   9.356
 1542POPC   GL222226  16.484  38.153   9.168
 1542POPC   C1A22227  16.672  38.577   8.899
 1542POPC   D2A22228  16.493  38.568   8.455
 1542POPC   C3A22229  16.770  38.538   8.133
 1542POPC   C4A22230  16.814  38.869   7.879
 1542POPC   C1B22231  16.490  38.114   8.705
 1542POPC   C2B22232  16.526  38.052   8.261
 1542POPC   C3B22233  16.593  38.164   7.849
 1542POPC   C4B22234  16.901  38.400   7.600
 1543POPC   NC322235  10.785   4.484   9.503
 1543POPC   PO422236  10.451   3.867   9.540
 1543POPC   GL122237  10.429   4.142   9.217
 1543POPC   GL222238  10.769   4.056   9.129
 1543POPC   C1A22239  10.329   4.290   8.797
 1543POPC   D2A22240  10.535   4.484   8.441
 1543POPC   C3A22241  10.473   4.382   8.005
 1543POPC   C4A22242  10.106   4.516   7.754
 1543POPC   C1B22243  10.773   4.028   8.672
 1543POPC   C2B22244  10.876   4.076   8.236
 1543POPC   C3B22245  11.004   4.027   7.806
 1543POPC   C4B22246  10.934   3.974   7.376
 1544POPC   NC322247  19.925   3.202   9.564
 1544POPC   PO422248  19.421   3.805   9.537
 1544POPC   GL122249  19.744   3.597   9.280
 1544POPC   GL222250  19.649   3.281   9.146
 1544POPC   C1A22251  19.846   3.632   8.839
 1544POPC   D2A22252  19.687   3.905   8.515
 1544POPC   C3A22253  19.801   3.768   8.118
 1544POPC   C4A22254  19.611   3.599   7.740
 1544POPC   C1B22255  20.034   3.150   8.891
 1544POPC   C2B22256  20.178   3.138   8.460
 1544POPC   C3B22257  19.970   3.301   8.091
 1544POPC   C4B22258  20.058   3.341   7.640
 1545POPC   NC322259  15.302  16.077   9.259
 1545POPC   PO422260  15.287  16.704   9.531
 1545POPC   GL122261  15.176  16.677   9.111
 1545POPC   GL222262  15.413  16.915   9.039
 1545POPC   C1A22263  14.973  16.924   8.752
 1545POPC   D2A22264  15.098  17.033   8.313
 1545POPC   C3A22265  15.003  16.717   7.978
 1545POPC   C4A22266  15.063  16.661   7.538
 1545POPC   C1B22267  15.406  16.699   8.610
 1545POPC   C2B22268  15.468  16.642   8.171
 1545POPC   C3B22269  15.510  16.671   7.753
 1545POPC   C4B22270  15.467  16.543   7.276
 1546POPC   NC322271   1.575   8.322   9.794
 1546POPC   PO422272   2.252   8.433   9.576
 1546POPC   GL122273   2.114   8.505   9.125
 1546POPC   GL222274   1.775   8.327   9.181
 1546POPC   C1A22275   2.163   8.427   8.700
 1546POPC   D2A22276   2.045   8.204   8.331
 1546POPC   C3A22277   2.270   8.223   7.945
 1546POPC   C4A22278   2.062   8.275   7.555
 1546POPC   C1B22279   1.691   8.110   8.776
 1546POPC   C2B22280   1.563   8.042   8.348
 1546POPC   C3B22281   1.776   8.006   7.885
 1546POPC   C4B22282   1.776   7.914   7.373
 1547POPC   NC322283  22.118  22.293   9.635
 1547POPC   PO422284  21.676  21.757   9.529
 1547POPC   GL122285  21.954  22.067   9.227
 1547POPC   GL222286  22.026  22.420   9.161
 1547POPC   C1A22287  22.222  22.019   8.846
 1547POPC   D2A22288  22.093  22.018   8.398
 1547POPC   C3A22289  22.311  21.955   8.003
 1547POPC   C4A22290  22.198  21.901   7.574
 1547POPC   C1B22291  21.857  22.399   8.770
 1547POPC   C2B22292  21.969  22.540   8.375
 1547POPC   C3B22293  21.973  22.351   7.982
 1547POPC   C4B22294  21.885  22.323   7.565
 1548POPC   NC322295   4.541  14.099   9.554
 1548POPC   PO422296   4.203  14.664   9.757
 1548POPC   GL122297   4.183  14.633   9.277
 1548POPC   GL222298   4.086  14.293   9.163
 1548POPC   C1A22299   4.367  14.701   8.858
 1548POPC   D2A22300   4.203  14.563   8.463
 1548POPC   C3A22301   4.356  14.610   8.056
 1548POPC   C4A22302   4.223  14.594   7.607
 1548POPC   C1B22303   4.470  14.205   8.913
 1548POPC   C2B22304   4.658  14.359   8.528
 1548POPC   C3B22305   4.667  14.202   8.141
 1548POPC   C4B22306   4.529  14.219   7.746
 1549POPC   NC322307   6.404  40.388   9.662
 1549POPC   PO422308   6.242  40.674   9.229
 1549POPC   GL122309   6.458  40.499   8.943
 1549POPC   GL222310   6.734  40.543   9.085
 1549POPC   C1A22311   6.516  40.500   8.514
 1549POPC   D2A22312   6.429  40.847   8.263
 1549POPC   C3A22313   6.499  40.870   7.815
 1549POPC   C4A22314   6.405  40.492   7.574
 1549POPC   C1B22315   6.890  40.744   8.750
 1549POPC   C2B22316   7.028  40.694   8.332
 1549POPC   C3B22317   6.871  40.544   7.926
 1549POPC   C4B22318   6.886  40.533   7.444
 1550POPC   NC322319  11.662  35.269   9.437
 1550POPC   PO422320  11.133  35.598   9.639
 1550POPC   GL122321  11.303  35.585   9.202
 1550POPC   GL222322  11.654  35.627   9.055
 1550POPC   C1A22323  11.253  35.339   8.803
 1550POPC   D2A22324  10.975  35.309   8.446
 1550POPC   C3A22325  11.129  35.204   8.031
 1550POPC   C4A22326  11.286  35.285   7.625
 1550POPC   C1B22327  11.754  35.407   8.676
 1550POPC   C2B22328  11.544  35.196   8.335
 1550POPC   C3B22329  11.679  35.139   7.925
 1550POPC   C4B22330  11.764  35.437   7.610
 1551POPC   NC322331   8.623  43.786   9.559
 1551POPC   PO422332   9.225  43.646   9.714
 1551POPC   GL122333   9.068  43.758   9.273
 1551POPC   GL222334   8.910  44.109   9.263
 1551POPC   C1A22335   9.007  43.887   8.806
 1551POPC   D2A22336   9.145  44.111   8.416
 1551POPC   C3A22337   9.036  43.870   8.034
 1551POPC   C4A22338   9.173  44.048   7.666
 1551POPC   C1B22339   8.554  44.058   8.951
 1551POPC   C2B22340   8.546  43.970   8.497
 1551POPC   C3B22341   8.532  44.042   8.049
 1551POPC   C4B22342   8.670  44.040   7.643
 1552POPC   NC322343  12.586  25.959   9.392
 1552POPC   PO422344  13.182  26.123   9.531
 1552POPC   GL122345  13.011  26.231   9.113
 1552POPC   GL222346  12.685  26.395   9.069
 1552POPC   C1A22347  12.945  26.036   8.698
 1552POPC   D2A22348  12.939  25.807   8.325
 1552POPC   C3A22349  13.053  26.035   7.953
 1552POPC   C4A22350  12.865  26.041   7.512
 1552POPC   C1B22351  12.594  26.383   8.632
 1552POPC   C2B22352  12.613  26.207   8.215
 1552POPC   C3B22353  12.488  26.279   7.769
 1552POPC   C4B22354  12.379  26.449   7.327
 1553POPC   NC322355  13.327   3.331   9.717
 1553POPC   PO422356  13.818   3.796   9.521
 1553POPC   GL122357  13.668   3.735   9.149
 1553POPC   GL222358  13.311   3.729   9.143
 1553POPC   C1A22359  13.790   3.535   8.768
 1553POPC   D2A22360  13.570   3.226   8.548
 1553POPC   C3A22361  13.639   3.402   8.175
 1553POPC   C4A22362  13.585   3.399   7.757
 1553POPC   C1B22363  13.453   3.915   8.732
 1553POPC   C2B22364  13.685   3.915   8.358
 1553POPC   C3B22365  13.714   3.871   7.917
 1553POPC   C4B22366  14.080   3.957   7.657
 1554POPC   NC322367  32.966   3.023   9.422
 1554POPC   PO422368  33.284   2.415   9.481
 1554POPC   GL122369  33.111   2.626   9.133
 1554POPC   GL222370  32.758   2.613   9.149
 1554POPC   C1A22371  33.017   2.893   8.781
 1554POPC   D2A22372  32.840   3.046   8.419
 1554POPC   C3A22373  33.036   2.856   8.094
 1554POPC   C4A22374  32.864   2.803   7.746
 1554POPC   C1B22375  32.624   2.458   8.751
 1554POPC   C2B22376  32.722   2.529   8.322
 1554POPC   C3B22377  32.627   2.367   7.891
 1554POPC   C4B22378  32.715   2.450   7.417
 1555POPC   NC322379  27.031  44.187   9.334
 1555POPC   PO422380  26.710  44.699   9.687
 1555POPC   GL122381  26.889  44.735   9.233
 1555POPC   GL222382  27.279  44.832   9.220
 1555POPC   C1A22383  26.686  44.707   8.771
 1555POPC   D2A22384  26.699  44.448   8.332
 1555POPC   C3A22385  26.636  44.674   7.899
 1555POPC   C4A22386  26.313  44.851   7.620
 1555POPC   C1B22387  27.189  44.679   8.800
 1555POPC   C2B22388  27.006  44.852   8.378
 1555POPC   C3B22389  27.126  44.773   7.930
 1555POPC   C4B22390  27.117  44.447   7.596
 1556POPC   NC322391  42.258  34.944   9.516
 1556POPC   PO422392  42.474  35.553   9.572
 1556POPC   GL122393  42.308  35.373   9.172
 1556POPC   GL222394  41.954  35.310   9.242
 1556POPC   C1A22395  42.331  35.249   8.702
 1556POPC   D2A22396  42.191  35.400   8.274
 1556POPC   C3A22397  42.484  35.527   7.937
 1556POPC   C4A22398  42.694  35.297   7.615
 1556POPC   C1B22399  41.910  35.509   8.818
 1556POPC   C2B22400  41.745  35.655   8.409
 1556POPC   C3B22401  41.741  35.461   7.998
 1556POPC   C4B22402  42.092  35.213   7.775
 1557POPC   NC322403   5.628  20.739   9.466
 1557POPC   PO422404   6.210  20.379   9.368
 1557POPC   GL122405   6.073  20.681   9.050
 1557POPC   GL222406   5.789  20.513   9.056
 1557POPC   C1A22407   5.919  20.984   8.720
 1557POPC   D2A22408   5.667  20.919   8.309
 1557POPC   C3A22409   5.928  20.726   8.021
 1557POPC   C4A22410   6.280  20.540   7.852
 1557POPC   C1B22411   5.595  20.582   8.696
 1557POPC   C2B22412   5.636  20.371   8.311
 1557POPC   C3B22413   5.448  20.525   7.959
 1557POPC   C4B22414   5.499  20.897   7.790
 1558POPC   NC322415  38.637  20.480   9.603
 1558POPC   PO422416  37.957  20.693   9.570
 1558POPC   GL122417  38.355  20.661   9.231
 1558POPC   GL222418  38.532  20.334   9.130
 1558POPC   C1A22419  38.602  20.675   8.796
 1558POPC   D2A22420  38.722  20.926   8.487
 1558POPC   C3A22421  38.630  20.785   8.093
 1558POPC   C4A22422  38.280  20.862   7.846
 1558POPC   C1B22423  38.836  20.215   8.780
 1558POPC   C2B22424  38.890  20.224   8.340
 1558POPC   C3B22425  38.842  20.320   7.924
 1558POPC   C4B22426  38.470  20.402   7.768
 1559POPC   NC322427  12.020  15.465   9.528
 1559POPC   PO422428  12.145  14.824   9.495
 1559POPC   GL122429  11.993  15.085   9.144
 1559POPC   GL222430  11.813  15.426   9.084
 1559POPC   C1A22431  12.145  15.222   8.734
 1559POPC   D2A22432  12.271  15.517   8.367
 1559POPC   C3A22433  12.463  15.273   8.063
 1559POPC   C4A22434  12.217  15.006   7.796
 1559POPC   C1B22435  11.620  15.401   8.730
 1559POPC   C2B22436  11.804  15.266   8.372
 1559POPC   C3B22437  11.911  15.366   8.004
 1559POPC   C4B22438  11.700  15.074   7.812
 1560POPC   NC322439   0.994  34.818   9.498
 1560POPC   PO422440   0.425  34.364   9.537
 1560POPC   GL122441   0.645  34.524   9.205
 1560POPC   GL222442   0.654  34.870   9.127
 1560POPC   C1A22443   0.412  34.524   8.826
 1560POPC   D2A22444   0.306  34.261   8.484
 1560POPC   C3A22445   0.299  34.430   8.104
 1560POPC   C4A22446   0.616  34.301   7.883
 1560POPC   C1B22447   0.566  35.018   8.747
 1560POPC   C2B22448   0.351  34.841   8.422
 1560POPC   C3B22449   0.517  34.946   8.062
 1560POPC   C4B22450   0.739  34.778   7.754
 1561POPC   NC322451  32.184  34.392   9.548
 1561POPC   PO422452  32.091  35.003   9.732
 1561POPC   GL122453  32.335  34.796   9.273
 1561POPC   GL222454  32.111  34.527   9.077
 1561POPC   C1A22455  32.532  34.596   8.851
 1561POPC   D2A22456  32.374  34.517   8.409
 1561POPC   C3A22457  32.533  34.697   8.013
 1561POPC   C4A22458  32.441  34.630   7.544
 1561POPC   C1B22459  31.913  34.531   8.657
 1561POPC   C2B22460  31.897  34.708   8.239
 1561POPC   C3B22461  32.040  34.536   7.863
 1561POPC   C4B22462  31.907  34.529   7.446
 1562POPC   NC322463  39.722  17.943   9.225
 1562POPC   PO422464  40.282  18.277   9.359
 1562POPC   GL122465  39.949  18.399   9.084
 1562POPC   GL222466  40.052  18.201   8.895
 1562POPC   C1A22467  39.614  18.493   8.766
 1562POPC   D2A22468  39.598  18.634   8.326
 1562POPC   C3A22469  39.818  18.402   8.041
 1562POPC   C4A22470  39.731  18.078   7.761
 1562POPC   C1B22471  39.964  18.210   8.505
 1562POPC   C2B22472  39.907  17.910   8.229
 1562POPC   C3B22473  40.190  18.022   7.950
 1562POPC   C4B22474  40.372  17.921   7.626
 1563POPC   NC322475   8.075  24.217   9.382
 1563POPC   PO422476   7.470  24.440   9.567
 1563POPC   GL122477   7.491  24.509   9.119
 1563POPC   GL222478   7.842  24.523   9.045
 1563POPC   C1A22479   7.233  24.497   8.733
 1563POPC   D2A22480   7.052  24.608   8.364
 1563POPC   C3A22481   7.163  24.380   7.999
 1563POPC   C4A22482   7.405  24.410   7.632
 1563POPC   C1B22483   7.642  24.185   8.774
 1563POPC   C2B22484   7.504  24.267   8.359
 1563POPC   C3B22485   7.727  24.462   8.036
 1563POPC   C4B22486   7.895  24.260   7.689
 1564POPC   NC322487  32.385   0.480   9.439
 1564POPC   PO422488  31.774   0.121   9.392
 1564POPC   GL122489  32.108   0.163   9.077
 1564POPC   GL222490  32.417   0.030   9.184
 1564POPC   C1A22491  32.267   0.484   8.769
 1564POPC   D2A22492  32.434   0.663   8.382
 1564POPC   C3A22493  32.244   0.517   7.993
 1564POPC   C4A22494  32.077   0.414   7.588
 1564POPC   C1B22495  32.501  44.895   8.784
 1564POPC   C2B22496  32.457   0.125   8.390
 1564POPC   C3B22497  32.712   0.303   8.066
 1564POPC   C4B22498  32.701   0.150   7.632
 1565POPC   NC322499   9.318  21.096   9.574
 1565POPC   PO422500   9.762  21.558   9.644
 1565POPC   GL122501   9.663  21.493   9.218
 1565POPC   GL222502   9.408  21.679   9.191
 1565POPC   C1A22503   9.899  21.375   8.833
 1565POPC   D2A22504   9.920  21.124   8.460
 1565POPC   C3A22505  10.090  21.290   8.078
 1565POPC   C4A22506   9.771  21.326   7.765
 1565POPC   C1B22507   9.402  21.510   8.772
 1565POPC   C2B22508   9.206  21.545   8.411
 1565POPC   C3B22509   9.487  21.646   8.091
 1565POPC   C4B22510   9.352  21.739   7.700
 1566POPC   NC322511  42.919  28.335   9.499
 1566POPC   PO422512  42.256  28.335   9.576
 1566POPC   GL122513  42.327  28.317   9.152
 1566POPC   GL222514  42.072  28.597   9.163
 1566POPC   C1A22515  42.534  28.179   8.714
 1566POPC   D2A22516  42.685  28.091   8.253
 1566POPC   C3A22517  42.414  28.123   7.893
 1566POPC   C4A22518  42.507  28.299   7.470
 1566POPC   C1B22519  42.247  28.630   8.765
 1566POPC   C2B22520  42.053  28.839   8.462
 1566POPC   C3B22521  42.034  28.745   8.068
 1566POPC   C4B22522  42.212  28.621   7.715
 1567POPC   NC322523  33.196  20.292   9.818
 1567POPC   PO422524  33.399  20.939   9.588
 1567POPC   GL122525  33.075  20.838   9.276
 1567POPC   GL222526  33.020  20.527   9.264
 1567POPC   C1A22527  32.823  20.791   8.840
 1567POPC   D2A22528  32.896  20.695   8.424
 1567POPC   C3A22529  32.779  20.508   8.037
 1567POPC   C4A22530  32.928  20.603   7.662
 1567POPC   C1B22531  33.193  20.458   8.823
 1567POPC   C2B22532  33.386  20.562   8.437
 1567POPC   C3B22533  33.302  20.469   8.033
 1567POPC   C4B22534  33.418  20.725   7.705
 1568POPC   NC322535  21.087  21.495   9.499
 1568POPC   PO422536  20.437  21.149   9.556
 1568POPC   GL122537  20.610  21.385   9.214
 1568POPC   GL222538  20.280  21.380   9.108
 1568POPC   C1A22539  20.844  21.314   8.817
 1568POPC   D2A22540  20.816  21.079   8.428
 1568POPC   C3A22541  20.851  21.291   8.052
 1568POPC   C4A22542  20.936  21.550   7.723
 1568POPC   C1B22543  20.301  21.461   8.684
 1568POPC   C2B22544  20.395  21.348   8.295
 1568POPC   C3B22545  20.209  21.471   7.962
 1568POPC   C4B22546  20.234  21.566   7.559
 1569POPC   NC322547  35.609  39.782   9.373
 1569POPC   PO422548  35.138  40.223   9.472
 1569POPC   GL122549  35.400  40.161   9.106
 1569POPC   GL222550  35.182  39.856   9.041
 1569POPC   C1A22551  35.537  39.939   8.701
 1569POPC   D2A22552  35.428  40.031   8.278
 1569POPC   C3A22553  35.258  39.811   7.949
 1569POPC   C4A22554  34.833  39.719   7.917
 1569POPC   C1B22555  35.089  40.222   8.718
 1569POPC   C2B22556  35.167  40.463   8.347
 1569POPC   C3B22557  35.232  40.353   7.934
 1569POPC   C4B22558  35.626  40.189   7.821
 1570POPC   NC322559   8.894  38.305   9.645
 1570POPC   PO422560   8.660  38.855   9.555
 1570POPC   GL122561   9.011  38.639   9.252
 1570POPC   GL222562   9.008  38.283   9.131
 1570POPC   C1A22563   9.174  38.673   8.803
 1570POPC   D2A22564   9.234  38.493   8.346
 1570POPC   C3A22565   8.893  38.579   8.019
 1570POPC   C4A22566   8.440  38.645   7.913
 1570POPC   C1B22567   9.240  38.139   8.741
 1570POPC   C2B22568   9.363  37.994   8.307
 1570POPC   C3B22569   9.270  38.199   7.894
 1570POPC   C4B22570   9.282  38.100   7.430
 1571POPC   NC322571  39.556  19.539   9.452
 1571POPC   PO422572  40.005  20.054   9.480
 1571POPC   GL122573  39.831  19.989   9.092
 1571POPC   GL222574  39.968  19.658   9.133
 1571POPC   C1A22575  39.965  19.923   8.656
 1571POPC   D2A22576  39.898  20.011   8.238
 1571POPC   C3A22577  40.230  19.919   7.948
 1571POPC   C4A22578  39.880  19.968   7.675
 1571POPC   C1B22579  39.711  19.527   8.813
 1571POPC   C2B22580  39.827  19.504   8.378
 1571POPC   C3B22581  39.924  19.516   7.970
 1571POPC   C4B22582  40.180  19.542   7.585
 1572POPC   NC322583  11.808  39.550   9.515
 1572POPC   PO422584  12.057  38.901   9.627
 1572POPC   GL122585  11.896  39.101   9.239
 1572POPC   GL222586  12.118  39.373   9.136
 1572POPC   C1A22587  11.725  39.124   8.826
 1572POPC   D2A22588  11.973  39.056   8.456
 1572POPC   C3A22589  11.936  39.204   8.030
 1572POPC   C4A22590  12.256  38.985   7.791
 1572POPC   C1B22591  12.322  39.345   8.726
 1572POPC   C2B22592  12.279  39.464   8.337
 1572POPC   C3B22593  12.447  39.440   7.932
 1572POPC   C4B22594  12.398  39.557   7.495
 1573POPC   NC322595  44.703  22.743   9.577
 1573POPC   PO422596  44.730  22.087   9.649
 1573POPC   GL122597  44.805  22.118   9.235
 1573POPC   GL222598   0.056  22.410   9.287
 1573POPC   C1A22599  44.624  21.998   8.802
 1573POPC   D2A22600  44.548  22.237   8.389
 1573POPC   C3A22601  44.589  21.995   7.976
 1573POPC   C4A22602  44.365  22.093   7.582
 1573POPC   C1B22603  44.915  22.418   8.854
 1573POPC   C2B22604   0.048  22.251   8.485
 1573POPC   C3B22605  44.985  22.479   8.134
 1573POPC   C4B22606  44.941  22.336   7.762
 1574POPC   NC322607   6.100  39.542   9.384
 1574POPC   PO422608   5.613  39.995   9.609
 1574POPC   GL122609   5.613  39.879   9.144
 1574POPC   GL222610   5.949  39.871   9.004
 1574POPC   C1A22611   5.621  40.014   8.668
 1574POPC   D2A22612   5.932  39.920   8.374
 1574POPC   C3A22613   5.744  39.889   8.000
 1574POPC   C4A22614   5.671  40.080   7.613
 1574POPC   C1B22615   6.063  40.277   8.709
 1574POPC   C2B22616   6.097  40.396   8.248
 1574POPC   C3B22617   6.170  40.165   7.888
 1574POPC   C4B22618   6.204  39.741   7.808
 1575POPC   NC322619  32.029  11.920   9.495
 1575POPC   PO422620  32.277  11.288   9.571
 1575POPC   GL122621  32.242  11.312   9.164
 1575POPC   GL222622  31.923  11.482   9.162
 1575POPC   C1A22623  32.325  11.415   8.754
 1575POPC   D2A22624  32.160  11.590   8.406
 1575POPC   C3A22625  32.244  11.282   8.114
 1575POPC   C4A22626  32.231  11.250   7.685
 1575POPC   C1B22627  31.859  11.169   8.815
 1575POPC   C2B22628  31.868  11.029   8.370
 1575POPC   C3B22629  31.803  11.091   7.896
 1575POPC   C4B22630  31.891  10.956   7.460
 1576POPC   NC322631   0.505   5.650   9.469
 1576POPC   PO422632   0.181   5.030   9.543
 1576POPC   GL122633   0.297   5.252   9.180
 1576POPC   GL222634   0.035   5.478   9.104
 1576POPC   C1A22635   0.463   5.243   8.768
 1576POPC   D2A22636   0.628   5.409   8.405
 1576POPC   C3A22637   0.583   5.168   8.037
 1576POPC   C4A22638   0.454   5.386   7.681
 1576POPC   C1B22639  44.940   5.150   8.776
 1576POPC   C2B22640   0.119   4.965   8.362
 1576POPC   C3B22641   0.075   5.108   7.917
 1576POPC   C4B22642  44.946   5.224   7.455
 1577POPC   NC322643  35.043  28.128   9.332
 1577POPC   PO422644  35.065  28.742   9.311
 1577POPC   GL122645  35.339  28.509   9.009
 1577POPC   GL222646  35.178  28.259   8.882
 1577POPC   C1A22647  35.625  28.343   8.673
 1577POPC   D2A22648  35.492  28.081   8.331
 1577POPC   C3A22649  35.561  28.235   7.928
 1577POPC   C4A22650  35.159  28.305   7.743
 1577POPC   C1B22651  34.940  28.606   8.701
 1577POPC   C2B22652  35.021  28.838   8.374
 1577POPC   C3B22653  34.878  28.626   8.046
 1577POPC   C4B22654  34.777  28.682   7.654
 1578POPC   NC322655  30.802  10.879   9.443
 1578POPC   PO422656  30.513  10.378   9.849
 1578POPC   GL122657  30.497  10.478   9.318
 1578POPC   GL222658  30.157  10.378   9.220
 1578POPC   C1A22659  30.756  10.598   8.873
 1578POPC   D2A22660  31.049  10.628   8.571
 1578POPC   C3A22661  30.926  10.671   8.149
 1578POPC   C4A22662  31.068  10.872   7.774
 1578POPC   C1B22663  30.267  10.605   8.853
 1578POPC   C2B22664  30.504  10.770   8.454
 1578POPC   C3B22665  30.411  10.660   8.016
 1578POPC   C4B22666  30.638  10.622   7.597
 1579POPC   NC322667  21.544  35.969   9.445
 1579POPC   PO422668  21.039  36.428   9.466
 1579POPC   GL122669  21.297  36.307   9.156
 1579POPC   GL222670  21.218  35.962   9.053
 1579POPC   C1A22671  21.461  36.406   8.790
 1579POPC   D2A22672  21.376  36.215   8.409
 1579POPC   C3A22673  21.501  36.348   8.057
 1579POPC   C4A22674  21.208  36.190   7.762
 1579POPC   C1B22675  21.557  35.884   8.765
 1579POPC   C2B22676  21.550  35.680   8.339
 1579POPC   C3B22677  21.539  35.828   7.890
 1579POPC   C4B22678  21.463  35.855   7.412
 1580POPC   NC322679   6.440  43.493   9.601
 1580POPC   PO422680   6.058  42.871   9.492
 1580POPC   GL122681   5.944  43.228   9.223
 1580POPC   GL222682   5.643  43.452   9.281
 1580POPC   C1A22683   6.041  43.202   8.784
 1580POPC   D2A22684   6.247  43.138   8.407
 1580POPC   C3A22685   6.004  43.133   8.057
 1580POPC   C4A22686   5.803  42.933   7.693
 1580POPC   C1B22687   5.546  43.222   8.882
 1580POPC   C2B22688   5.675  43.311   8.427
 1580POPC   C3B22689   5.512  43.213   8.009
 1580POPC   C4B22690   5.468  43.289   7.556
 1581POPC   NC322691   0.477   4.658   9.515
 1581POPC   PO422692   0.210   4.063   9.510
 1581POPC   GL122693   0.393   4.264   9.127
 1581POPC   GL222694   0.737   4.329   9.177
 1581POPC   C1A22695   0.560   4.307   8.677
 1581POPC   D2A22696   0.770   4.161   8.280
 1581POPC   C3A22697   0.428   4.237   8.008
 1581POPC   C4A22698   0.297   4.648   7.882
 1581POPC   C1B22699   0.766   4.727   8.896
 1581POPC   C2B22700   0.664   4.848   8.472
 1581POPC   C3B22701   0.765   4.672   8.096
 1581POPC   C4B22702   0.808   4.786   7.672
 1582POPC   NC322703   9.940  31.887   9.456
 1582POPC   PO422704  10.426  31.458   9.519
 1582POPC   GL122705  10.552  31.475   9.125
 1582POPC   GL222706  10.858  31.662   9.200
 1582POPC   C1A22707  10.365  31.445   8.731
 1582POPC   D2A22708  10.449  31.225   8.396
 1582POPC   C3A22709  10.487  31.499   8.066
 1582POPC   C4A22710  10.461  31.511   7.627
 1582POPC   C1B22711  10.712  31.863   8.845
 1582POPC   C2B22712  10.607  31.878   8.441
 1582POPC   C3B22713  10.815  32.032   8.101
 1582POPC   C4B22714  10.807  31.903   7.683
 1583POPC   NC322715  19.264  44.348  10.259
 1583POPC   PO422716  19.266  44.615   9.601
 1583POPC   GL122717  19.216  44.406   9.237
 1583POPC   GL222718  19.480  44.566   9.072
 1583POPC   C1A22719  19.044  44.390   8.864
 1583POPC   D2A22720  19.260  44.502   8.549
 1583POPC   C3A22721  19.098  44.495   8.177
 1583POPC   C4A22722  19.313  44.356   7.803
 1583POPC   C1B22723  19.348  44.931   8.809
 1583POPC   C2B22724  19.292  44.969   8.349
 1583POPC   C3B22725  19.573  44.751   8.088
 1583POPC   C4B22726  19.615  44.746   7.647
 1584POPC   NC322727   4.034   6.785   9.482
 1584POPC   PO422728   4.619   6.526   9.537
 1584POPC   GL122729   4.369   6.540   9.162
 1584POPC   GL222730   4.299   6.866   9.072
 1584POPC   C1A22731   4.293   6.482   8.724
 1584POPC   D2A22732   4.525   6.675   8.370
 1584POPC   C3A22733   4.366   6.584   7.940
 1584POPC   C4A22734   4.250   6.465   7.496
 1584POPC   C1B22735   4.094   6.955   8.700
 1584POPC   C2B22736   4.024   6.802   8.267
 1584POPC   C3B22737   4.107   7.024   7.876
 1584POPC   C4B22738   3.766   7.208   7.672
 1585POPC   NC322739   6.456  20.294   9.743
 1585POPC   PO422740   6.941  20.653   9.469
 1585POPC   GL122741   6.835  20.645   9.060
 1585POPC   GL222742   6.775  20.956   9.024
 1585POPC   C1A22743   6.487  20.556   8.771
 1585POPC   D2A22744   6.316  20.652   8.368
 1585POPC   C3A22745   6.698  20.669   8.132
 1585POPC   C4A22746   6.760  20.665   7.693
 1585POPC   C1B22747   6.990  21.017   8.657
 1585POPC   C2B22748   7.174  20.873   8.282
 1585POPC   C3B22749   7.022  21.045   7.902
 1585POPC   C4B22750   7.012  21.034   7.439
 1586POPC   NC322751  14.275   3.611   9.563
 1586POPC   PO422752  14.379   2.959   9.679
 1586POPC   GL122753  14.355   3.211   9.245
 1586POPC   GL222754  14.013   3.346   9.199
 1586POPC   C1A22755  14.361   3.554   8.882
 1586POPC   D2A22756  14.180   3.733   8.484
 1586POPC   C3A22757  14.434   3.797   8.125
 1586POPC   C4A22758  14.551   3.565   7.773
 1586POPC   C1B22759  14.081   3.107   8.801
 1586POPC   C2B22760  14.082   3.234   8.354
 1586POPC   C3B22761  14.070   3.507   7.961
 1586POPC   C4B22762  14.127   3.429   7.525
 1587POPC   NC322763  10.943  29.747   9.370
 1587POPC   PO422764  11.557  29.994   9.331
 1587POPC   GL122765  11.451  30.080   8.933
 1587POPC   GL222766  11.093  30.088   8.996
 1587POPC   C1A22767  11.452  29.964   8.505
 1587POPC   D2A22768  11.625  29.575   8.397
 1587POPC   C3A22769  11.538  29.438   7.994
 1587POPC   C4A22770  11.581  29.740   7.663
 1587POPC   C1B22771  11.113  29.674   8.744
 1587POPC   C2B22772  11.120  29.617   8.298
 1587POPC   C3B22773  11.232  29.905   7.988
 1587POPC   C4B22774  10.968  29.967   7.615
 1588POPC   NC322775  10.852  42.667   9.418
 1588POPC   PO422776  10.391  43.092   9.602
 1588POPC   GL122777  10.350  43.038   9.163
 1588POPC   GL222778  10.207  43.366   9.173
 1588POPC   C1A22779  10.423  42.830   8.758
 1588POPC   D2A22780  10.359  42.608   8.351
 1588POPC   C3A22781  10.391  42.813   7.926
 1588POPC   C4A22782  10.599  43.078   7.571
 1588POPC   C1B22783  10.387  43.373   8.778
 1588POPC   C2B22784  10.343  43.146   8.367
 1588POPC   C3B22785  10.388  43.341   7.964
 1588POPC   C4B22786  10.493  43.608   7.594
 1589POPC   NC322787  23.906  28.024   9.446
 1589POPC   PO422788  23.273  28.379   9.515
 1589POPC   GL122789  23.482  28.535   9.131
 1589POPC   GL222790  23.794  28.337   9.056
 1589POPC   C1A22791  23.518  28.578   8.697
 1589POPC   D2A22792  23.447  28.210   8.491
 1589POPC   C3A22793  23.347  28.413   8.134
 1589POPC   C4A22794  23.517  28.299   7.775
 1589POPC   C1B22795  23.968  28.174   8.624
 1589POPC   C2B22796  23.870  28.224   8.166
 1589POPC   C3B22797  23.959  28.073   7.739
 1589POPC   C4B22798  24.126  27.952   7.309
 1590POPC   NC322799   7.924  32.920   9.559
 1590POPC   PO422800   8.466  33.242   9.843
 1590POPC   GL122801   8.324  33.066   9.332
 1590POPC   GL222802   8.022  33.303   9.226
 1590POPC   C1A22803   8.381  32.862   8.888
 1590POPC   D2A22804   8.522  33.074   8.500
 1590POPC   C3A22805   8.387  32.951   8.107
 1590POPC   C4A22806   8.243  32.902   7.707
 1590POPC   C1B22807   8.194  33.332   8.806
 1590POPC   C2B22808   8.052  33.246   8.395
 1590POPC   C3B22809   7.964  33.249   7.964
 1590POPC   C4B22810   8.203  33.423   7.612
 1591POPC   NC322811  21.533  28.630   9.368
 1591POPC   PO422812  21.451  27.871   9.261
 1591POPC   GL122813  21.535  28.220   9.075
 1591POPC   GL222814  21.208  28.333   9.072
 1591POPC   C1A22815  21.513  28.415   8.694
 1591POPC   D2A22816  21.245  28.248   8.422
 1591POPC   C3A22817  21.493  28.307   8.101
 1591POPC   C4A22818  21.830  28.486   7.865
 1591POPC   C1B22819  21.024  28.622   8.754
 1591POPC   C2B22820  20.805  28.500   8.379
 1591POPC   C3B22821  21.001  28.431   8.003
 1591POPC   C4B22822  21.304  28.625   7.758
 1592POPC   NC322823   0.806   7.409   9.571
 1592POPC   PO422824   0.193   7.568   9.306
 1592POPC   GL122825   0.306   7.268   8.999
 1592POPC   GL222826   0.617   7.309   9.124
 1592POPC   C1A22827   0.430   7.249   8.554
 1592POPC   D2A22828   0.626   7.635   8.310
 1592POPC   C3A22829   0.481   7.617   7.889
 1592POPC   C4A22830   0.254   7.228   7.789
 1592POPC   C1B22831   0.840   7.467   8.770
 1592POPC   C2B22832   0.935   7.232   8.424
 1592POPC   C3B22833   0.731   7.161   8.061
 1592POPC   C4B22834   0.842   7.311   7.666
 1593POPC   NC322835  31.843   1.298   9.447
 1593POPC   PO422836  32.430   0.951   9.448
 1593POPC   GL122837  32.284   1.235   9.147
 1593POPC   GL222838  32.558   1.484   9.082
 1593POPC   C1A22839  32.111   1.086   8.740
 1593POPC   D2A22840  31.993   1.312   8.367
 1593POPC   C3A22841  32.079   1.149   7.980
 1593POPC   C4A22842  32.056   1.423   7.630
 1593POPC   C1B22843  32.625   1.174   8.777
 1593POPC   C2B22844  32.489   1.179   8.365
 1593POPC   C3B22845  32.539   1.369   7.991
 1593POPC   C4B22846  32.501   1.154   7.614
 1594POPC   NC322847  21.087  27.492   9.270
 1594POPC   PO422848  20.548  27.765   9.629
 1594POPC   GL122849  20.505  27.766   9.216
 1594POPC   GL222850  20.544  27.388   9.246
 1594POPC   C1A22851  20.628  27.686   8.800
 1594POPC   D2A22852  20.961  27.636   8.487
 1594POPC   C3A22853  20.971  27.898   8.107
 1594POPC   C4A22854  20.705  27.772   7.757
 1594POPC   C1B22855  20.354  27.255   8.840
 1594POPC   C2B22856  20.431  27.385   8.430
 1594POPC   C3B22857  20.579  27.309   8.038
 1594POPC   C4B22858  20.293  27.467   7.755
 1595POPC   NC322859  29.681   7.727   9.460
 1595POPC   PO422860  30.273   7.345   9.551
 1595POPC   GL122861  30.063   7.525   9.188
 1595POPC   GL222862  29.807   7.325   9.122
 1595POPC   C1A22863  29.979   7.664   8.759
 1595POPC   D2A22864  29.898   7.425   8.395
 1595POPC   C3A22865  30.064   7.505   8.014
 1595POPC   C4A22866  30.044   7.854   7.703
 1595POPC   C1B22867  29.714   7.129   8.763
 1595POPC   C2B22868  29.492   7.113   8.355
 1595POPC   C3B22869  29.485   7.102   7.874
 1595POPC   C4B22870  29.641   6.885   7.479
 1596POPC   NC322871  23.595  32.798   9.840
 1596POPC   PO422872  24.131  33.114   9.661
 1596POPC   GL122873  23.916  33.085   9.293
 1596POPC   GL222874  24.074  33.353   9.138
 1596POPC   C1A22875  23.721  33.001   8.883
 1596POPC   D2A22876  23.408  33.204   8.573
 1596POPC   C3A22877  23.300  32.957   8.163
 1596POPC   C4A22878  23.549  32.747   7.815
 1596POPC   C1B22879  24.111  33.241   8.695
 1596POPC   C2B22880  23.854  33.042   8.389
 1596POPC   C3B22881  23.761  33.165   7.998
 1596POPC   C4B22882  24.116  33.077   7.764
 1597POPC   NC322883  43.859   3.535   9.637
 1597POPC   PO422884  44.206   2.941   9.562
 1597POPC   GL122885  44.110   3.355   9.098
 1597POPC   GL222886  43.954   3.677   9.162
 1597POPC   C1A22887  43.834   3.440   8.744
 1597POPC   D2A22888  43.854   3.757   8.431
 1597POPC   C3A22889  44.031   3.603   8.043
 1597POPC   C4A22890  43.933   3.385   7.699
 1597POPC   C1B22891  43.599   3.856   8.898
 1597POPC   C2B22892  43.351   3.812   8.495
 1597POPC   C3B22893  43.398   3.870   8.012
 1597POPC   C4B22894  43.673   3.842   7.643
 1598POPC   NC322895  30.171  21.429   9.580
 1598POPC   PO422896  29.483  21.337   9.533
 1598POPC   GL122897  29.639  21.423   9.157
 1598POPC   GL222898  29.911  21.576   9.162
 1598POPC   C1A22899  29.720  21.213   8.788
 1598POPC   D2A22900  29.909  21.262   8.394
 1598POPC   C3A22901  29.644  21.426   8.076
 1598POPC   C4A22902  29.720  21.425   7.628
 1598POPC   C1B22903  29.846  21.728   8.754
 1598POPC   C2B22904  30.112  21.738   8.386
 1598POPC   C3B22905  30.012  21.754   7.959
 1598POPC   C4B22906  30.207  21.589   7.618
 1599POPC   NC322907  22.637  25.594   9.375
 1599POPC   PO422908  23.276  25.473   9.580
 1599POPC   GL122909  23.306  25.195   9.232
 1599POPC   GL222910  23.014  25.037   9.187
 1599POPC   C1A22911  23.178  25.303   8.791
 1599POPC   D2A22912  22.873  25.349   8.478
 1599POPC   C3A22913  23.032  25.330   8.047
 1599POPC   C4A22914  23.096  25.455   7.613
 1599POPC   C1B22915  22.845  24.897   8.774
 1599POPC   C2B22916  22.657  24.917   8.382
 1599POPC   C3B22917  22.803  24.862   7.992
 1599POPC   C4B22918  22.671  25.155   7.738
 1600POPC   NC322919  29.649  15.043   9.743
 1600POPC   PO422920  28.998  15.228   9.505
 1600POPC   GL122921  28.949  15.071   9.120
 1600POPC   GL222922  28.757  15.380   9.018
 1600POPC   C1A22923  29.111  14.853   8.749
 1600POPC   D2A22924  28.935  14.887   8.339
 1600POPC   C3A22925  29.100  14.985   7.911
 1600POPC   C4A22926  28.918  14.963   7.487
 1600POPC   C1B22927  29.057  15.355   8.692
 1600POPC   C2B22928  29.041  15.396   8.250
 1600POPC   C3B22929  29.245  15.508   7.893
 1600POPC   C4B22930  29.579  15.415   7.640
 1601POPC   NC322931  16.432  21.833   9.929
 1601POPC   PO422932  16.797  21.340   9.632
 1601POPC   GL122933  16.730  21.201   9.239
 1601POPC   GL222934  17.016  21.343   9.130
 1601POPC   C1A22935  16.692  21.039   8.814
 1601POPC   D2A22936  16.522  20.959   8.391
 1601POPC   C3A22937  16.422  21.352   8.151
 1601POPC   C4A22938  16.555  21.464   7.743
 1601POPC   C1B22939  17.174  21.128   8.788
 1601POPC   C2B22940  16.996  21.274   8.410
 1601POPC   C3B22941  16.870  21.134   8.004
 1601POPC   C4B22942  17.039  21.325   7.634
 1602POPC   NC322943  35.946   1.670   9.453
 1602POPC   PO422944  36.105   0.997   9.483
 1602POPC   GL122945  36.049   1.114   9.080
 1602POPC   GL222946  35.729   0.934   9.050
 1602POPC   C1A22947  36.101   1.353   8.680
 1602POPC   D2A22948  36.368   1.399   8.304
 1602POPC   C3A22949  36.267   1.367   7.871
 1602POPC   C4A22950  36.170   1.268   7.456
 1602POPC   C1B22951  35.872   0.900   8.641
 1602POPC   C2B22952  35.893   1.134   8.229
 1602POPC   C3B22953  35.869   1.028   7.787
 1602POPC   C4B22954  36.007   0.800   7.439
 1603POPC   NC322955  22.565  29.092   9.554
 1603POPC   PO422956  22.053  28.771   9.627
 1603POPC   GL122957  22.289  28.808   9.192
 1603POPC   GL222958  22.439  29.156   9.069
 1603POPC   C1A22959  22.145  28.898   8.719
 1603POPC   D2A22960  21.953  29.052   8.299
 1603POPC   C3A22961  22.175  28.945   7.892
 1603POPC   C4A22962  22.403  28.949   7.479
 1603POPC   C1B22963  22.561  29.196   8.631
 1603POPC   C2B22964  22.455  29.316   8.222
 1603POPC   C3B22965  22.555  29.338   7.815
 1603POPC   C4B22966  22.432  29.450   7.419
 1604POPC   NC322967  27.974  40.369   9.780
 1604POPC   PO422968  28.352  39.864   9.486
 1604POPC   GL122969  28.491  39.994   9.067
 1604POPC   GL222970  28.522  40.339   9.121
 1604POPC   C1A22971  28.740  39.868   8.701
 1604POPC   D2A22972  28.874  39.807   8.251
 1604POPC   C3A22973  28.536  39.894   7.939
 1604POPC   C4A22974  28.510  40.025   7.480
 1604POPC   C1B22975  28.705  40.386   8.702
 1604POPC   C2B22976  28.788  40.319   8.244
 1604POPC   C3B22977  28.566  40.383   7.848
 1604POPC   C4B22978  28.188  40.400   7.573
 1605POPC   NC322979  12.456   8.768   9.875
 1605POPC   PO422980  12.996   8.823   9.461
 1605POPC   GL122981  12.928   8.916   9.062
 1605POPC   GL222982  12.751   9.215   9.097
 1605POPC   C1A22983  12.773   8.900   8.670
 1605POPC   D2A22984  12.864   8.599   8.377
 1605POPC   C3A22985  12.602   8.611   8.040
 1605POPC   C4A22986  12.712   8.533   7.612
 1605POPC   C1B22987  13.150   9.294   8.834
 1605POPC   C2B22988  13.083   9.298   8.414
 1605POPC   C3B22989  13.193   9.259   8.003
 1605POPC   C4B22990  12.861   9.207   7.728
 1606POPC   NC322991   5.193  36.172   9.710
 1606POPC   PO422992   4.743  35.734   9.595
 1606POPC   GL122993   4.907  36.046   9.282
 1606POPC   GL222994   5.263  35.977   9.244
 1606POPC   C1A22995   4.964  36.264   8.871
 1606POPC   D2A22996   4.894  36.078   8.436
 1606POPC   C3A22997   5.063  36.263   8.071
 1606POPC   C4A22998   4.926  36.436   7.733
 1606POPC   C1B22999   5.438  36.050   8.837
 1606POPC   C2B23000   5.422  36.168   8.420
 1606POPC   C3B23001   5.463  35.944   8.039
 1606POPC   C4B23002   5.255  36.010   7.647
 1607POPC   NC323003   6.541  12.466   9.436
 1607POPC   PO423004   6.691  13.179   9.530
 1607POPC   GL123005   6.689  12.956   9.190
 1607POPC   GL223006   6.979  13.184   9.087
 1607POPC   C1A23007   6.823  12.774   8.809
 1607POPC   D2A23008   6.898  12.663   8.388
 1607POPC   C3A23009   6.733  12.821   7.987
 1607POPC   C4A23010   6.767  12.886   7.546
 1607POPC   C1B23011   6.630  13.236   8.769
 1607POPC   C2B23012   6.624  13.122   8.379
 1607POPC   C3B23013   6.414  13.222   8.021
 1607POPC   C4B23014   6.337  13.129   7.596
 1608POPC   NC323015  11.582  43.316   9.636
 1608POPC   PO423016  11.308  42.747   9.399
 1608POPC   GL123017  11.184  43.131   9.187
 1608POPC   GL223018  10.831  43.224   9.245
 1608POPC   C1A23019  11.306  43.350   8.788
 1608POPC   D2A23020  11.186  43.426   8.346
 1608POPC   C3A23021  11.435  43.490   7.944
 1608POPC   C4A23022  11.393  43.470   7.472
 1608POPC   C1B23023  10.834  43.135   8.793
 1608POPC   C2B23024  10.828  42.857   8.441
 1608POPC   C3B23025  10.832  43.033   8.047
 1608POPC   C4B23026  11.091  43.154   7.705
 1609POPC   NC323027   1.998  36.152   9.567
 1609POPC   PO423028   1.331  36.008   9.488
 1609POPC   GL123029   1.751  35.941   9.194
 1609POPC   GL223030   2.135  35.934   9.120
 1609POPC   C1A23031   1.863  36.279   8.840
 1609POPC   D2A23032   2.005  36.335   8.388
 1609POPC   C3A23033   2.011  35.935   8.135
 1609POPC   C4A23034   1.810  35.900   7.733
 1609POPC   C1B23035   2.258  35.974   8.691
 1609POPC   C2B23036   2.465  36.109   8.311
 1609POPC   C3B23037   2.320  36.227   7.882
 1609POPC   C4B23038   2.279  35.926   7.512
 1610POPC   NC323039  19.383  11.464   9.506
 1610POPC   PO423040  18.977  10.960   9.622
 1610POPC   GL123041  18.931  11.159   9.202
 1610POPC   GL223042  18.871  11.538   9.227
 1610POPC   C1A23043  18.883  11.150   8.730
 1610POPC   D2A23044  19.143  11.294   8.374
 1610POPC   C3A23045  19.122  11.252   7.930
 1610POPC   C4A23046  18.821  11.112   7.618
 1610POPC   C1B23047  19.137  11.578   8.857
 1610POPC   C2B23048  19.327  11.785   8.528
 1610POPC   C3B23049  19.353  11.704   8.121
 1610POPC   C4B23050  19.419  11.923   7.749
 1611POPC   NC323051  19.612   7.112   9.309
 1611POPC   PO423052  20.154   7.452   9.577
 1611POPC   GL123053  20.075   7.330   9.143
 1611POPC   GL223054  20.026   6.987   9.021
 1611POPC   C1A23055  19.853   7.442   8.748
 1611POPC   D2A23056  19.693   7.471   8.336
 1611POPC   C3A23057  19.770   7.682   7.959
 1611POPC   C4A23058  19.964   7.510   7.594
 1611POPC   C1B23059  20.261   7.144   8.635
 1611POPC   C2B23060  20.130   7.173   8.172
 1611POPC   C3B23061  19.917   7.055   7.765
 1611POPC   C4B23062  20.099   6.868   7.400
 1612POPC   NC323063  19.773  16.925   9.976
 1612POPC   PO423064  20.174  16.478   9.583
 1612POPC   GL123065  20.030  16.510   9.155
 1612POPC   GL223066  19.749  16.756   9.169
 1612POPC   C1A23067  20.070  16.726   8.756
 1612POPC   D2A23068  19.879  16.650   8.380
 1612POPC   C3A23069  20.104  16.706   8.038
 1612POPC   C4A23070  19.982  16.928   7.671
 1612POPC   C1B23071  19.525  16.803   8.780
 1612POPC   C2B23072  19.533  17.052   8.405
 1612POPC   C3B23073  19.588  16.868   8.013
 1612POPC   C4B23074  19.354  16.722   7.690
 1613POPC   NC323075  20.355  43.983   9.416
 1613POPC   PO423076  20.713  43.400   9.477
 1613POPC   GL123077  20.516  43.533   9.105
 1613POPC   GL223078  20.806  43.588   8.950
 1613POPC   C1A23079  20.408  43.612   8.625
 1613POPC   D2A23080  20.512  43.930   8.318
 1613POPC   C3A23081  20.354  43.874   7.889
 1613POPC   C4A23082  20.387  44.007   7.464
 1613POPC   C1B23083  20.715  44.011   8.799
 1613POPC   C2B23084  20.941  44.179   8.495
 1613POPC   C3B23085  20.978  43.933   8.136
 1613POPC   C4B23086  20.855  43.985   7.713
 1614POPC   NC323087   1.248  25.736   9.620
 1614POPC   PO423088   0.902  26.290   9.549
 1614POPC   GL123089   1.071  25.984   9.229
 1614POPC   GL223090   1.362  26.141   9.205
 1614POPC   C1A23091   1.217  25.832   8.800
 1614POPC   D2A23092   1.085  25.709   8.405
 1614POPC   C3A23093   1.212  25.747   8.020
 1614POPC   C4A23094   0.980  25.691   7.666
 1614POPC   C1B23095   1.111  26.333   8.867
 1614POPC   C2B23096   1.270  26.257   8.478
 1614POPC   C3B23097   1.297  26.302   8.074
 1614POPC   C4B23098   1.176  26.169   7.712
 1615POPC   NC323099  27.169  33.348   9.788
 1615POPC   PO423100  26.788  33.847   9.541
 1615POPC   GL123101  26.727  34.068   9.119
 1615POPC   GL223102  27.078  34.133   9.001
 1615POPC   C1A23103  26.749  33.903   8.670
 1615POPC   D2A23104  26.530  33.813   8.268
 1615POPC   C3A23105  26.746  33.699   7.851
 1615POPC   C4A23106  26.967  33.317   7.662
 1615POPC   C1B23107  27.256  33.951   8.628
 1615POPC   C2B23108  27.108  33.767   8.233
 1615POPC   C3B23109  27.324  33.678   7.843
 1615POPC   C4B23110  27.436  33.430   7.463
 1616POPC   NC323111  15.569  30.540   9.522
 1616POPC   PO423112  14.909  30.864   9.543
 1616POPC   GL123113  15.209  30.766   9.225
 1616POPC   GL223114  15.370  31.067   9.110
 1616POPC   C1A23115  15.280  30.687   8.799
 1616POPC   D2A23116  15.226  30.512   8.407
 1616POPC   C3A23117  15.041  30.722   8.044
 1616POPC   C4A23118  15.112  30.510   7.651
 1616POPC   C1B23119  15.593  31.115   8.770
 1616POPC   C2B23120  15.398  31.021   8.406
 1616POPC   C3B23121  15.549  30.780   8.109
 1616POPC   C4B23122  15.497  30.812   7.718
 1617POPC   NC323123  23.952  11.578   9.504
 1617POPC   PO423124  24.571  11.395   9.650
 1617POPC   GL123125  24.473  11.518   9.206
 1617POPC   GL223126  24.726  11.397   9.050
 1617POPC   C1A23127  24.276  11.537   8.742
 1617POPC   D2A23128  24.381  11.420   8.307
 1617POPC   C3A23129  24.271  11.221   7.900
 1617POPC   C4A23130  24.258  11.476   7.504
 1617POPC   C1B23131  24.630  11.161   8.681
 1617POPC   C2B23132  24.628  10.967   8.262
 1617POPC   C3B23133  24.755  10.995   7.826
 1617POPC   C4B23134  24.512  11.010   7.446
 1618POPC   NC323135  24.753  25.494   9.579
 1618POPC   PO423136  24.132  25.250   9.587
 1618POPC   GL123137  24.419  25.348   9.217
 1618POPC   GL223138  24.696  25.150   9.148
 1618POPC   C1A23139  24.337  25.452   8.772
 1618POPC   D2A23140  24.517  25.291   8.390
 1618POPC   C3A23141  24.419  25.210   7.950
 1618POPC   C4A23142  24.439  25.533   7.647
 1618POPC   C1B23143  24.861  25.012   8.726
 1618POPC   C2B23144  24.899  24.975   8.272
 1618POPC   C3B23145  25.114  25.018   7.883
 1618POPC   C4B23146  24.786  25.135   7.578
 1619POPC   NC323147  17.826  25.567   9.361
 1619POPC   PO423148  18.262  25.162   9.703
 1619POPC   GL123149  18.226  25.233   9.268
 1619POPC   GL223150  17.929  25.089   9.199
 1619POPC   C1A23151  18.294  25.355   8.835
 1619POPC   D2A23152  18.246  25.187   8.428
 1619POPC   C3A23153  18.386  25.414   8.075
 1619POPC   C4A23154  18.363  25.256   7.688
 1619POPC   C1B23155  17.897  25.003   8.760
 1619POPC   C2B23156  17.831  24.871   8.334
 1619POPC   C3B23157  18.018  25.020   7.973
 1619POPC   C4B23158  17.986  24.997   7.514
 1620POPC   NC323159  30.447  39.576   9.383
 1620POPC   PO423160  30.921  39.071   9.428
 1620POPC   GL123161  30.863  39.319   9.065
 1620POPC   GL223162  30.521  39.370   8.934
 1620POPC   C1A23163  30.879  39.172   8.646
 1620POPC   D2A23164  30.565  39.185   8.342
 1620POPC   C3A23165  30.718  39.068   7.935
 1620POPC   C4A23166  30.683  39.240   7.526
 1620POPC   C1B23167  30.337  39.671   8.620
 1620POPC   C2B23168  30.221  39.544   8.204
 1620POPC   C3B23169  30.255  39.488   7.752
 1620POPC   C4B23170  30.193  39.410   7.319
 1621POPC   NC323171  21.006  31.830   9.681
 1621POPC   PO423172  20.477  32.063   9.603
 1621POPC   GL123173  20.745  32.235   9.247
 1621POPC   GL223174  20.748  32.590   9.206
 1621POPC   C1A23175  20.543  32.323   8.822
 1621POPC   D2A23176  20.259  32.313   8.435
 1621POPC   C3A23177  20.368  32.260   7.974
 1621POPC   C4A23178  20.647  32.144   7.625
 1621POPC   C1B23179  20.931  32.662   8.788
 1621POPC   C2B23180  20.811  32.443   8.412
 1621POPC   C3B23181  20.829  32.486   8.003
 1621POPC   C4B23182  20.573  32.641   7.694
 1622POPC   NC323183  40.327  27.202   9.829
 1622POPC   PO423184  40.950  27.249   9.484
 1622POPC   GL123185  40.798  27.564   9.241
 1622POPC   GL223186  41.097  27.757   9.179
 1622POPC   C1A23187  40.617  27.675   8.840
 1622POPC   D2A23188  40.428  27.814   8.462
 1622POPC   C3A23189  40.720  27.826   8.101
 1622POPC   C4A23190  40.492  27.881   7.743
 1622POPC   C1B23191  41.093  27.468   8.831
 1622POPC   C2B23192  40.837  27.311   8.499
 1622POPC   C3B23193  40.945  27.345   8.093
 1622POPC   C4B23194  41.180  27.591   7.860
 1623POPC   NC323195  27.421  21.503   9.583
 1623POPC   PO423196  27.926  21.135   9.466
 1623POPC   GL123197  27.645  21.366   9.148
 1623POPC   GL223198  27.345  21.636   9.115
 1623POPC   C1A23199  27.792  21.313   8.740
 1623POPC   D2A23200  27.911  21.172   8.347
 1623POPC   C3A23201  27.682  21.361   8.036
 1623POPC   C4A23202  27.807  21.340   7.643
 1623POPC   C1B23203  27.257  21.301   8.838
 1623POPC   C2B23204  27.393  21.199   8.435
 1623POPC   C3B23205  27.228  21.097   8.056
 1623POPC   C4B23206  27.286  21.365   7.709
 1624POPC   NC323207   4.104  42.017   9.545
 1624POPC   PO423208   4.242  41.336   9.493
 1624POPC   GL123209   4.481  41.356   9.135
 1624POPC   GL223210   4.205  41.321   8.945
 1624POPC   C1A23211   4.708  41.361   8.750
 1624POPC   D2A23212   4.863  41.269   8.341
 1624POPC   C3A23213   4.613  41.461   8.028
 1624POPC   C4A23214   4.405  41.387   7.620
 1624POPC   C1B23215   4.346  41.735   8.803
 1624POPC   C2B23216   4.253  41.527   8.426
 1624POPC   C3B23217   4.091  41.498   8.035
 1624POPC   C4B23218   4.314  41.828   7.836
 1625POPC   NC323219  27.364   5.649   9.583
 1625POPC   PO423220  27.988   5.804   9.322
 1625POPC   GL123221  27.566   5.995   9.179
 1625POPC   GL223222  27.340   5.752   9.085
 1625POPC   C1A23223  27.422   6.116   8.736
 1625POPC   D2A23224  27.627   5.959   8.322
 1625POPC   C3A23225  27.403   5.980   7.921
 1625POPC   C4A23226  27.146   5.737   7.680
 1625POPC   C1B23227  27.656   5.651   8.751
 1625POPC   C2B23228  27.763   5.376   8.404
 1625POPC   C3B23229  27.789   5.581   7.989
 1625POPC   C4B23230  27.917   6.015   7.855
 1626POPC   NC323231  30.347  43.839   9.461
 1626POPC   PO423232  31.007  43.754   9.386
 1626POPC   GL123233  30.713  43.996   9.118
 1626POPC   GL223234  30.372  44.139   9.046
 1626POPC   C1A23235  30.625  43.758   8.751
 1626POPC   D2A23236  30.976  43.809   8.483
 1626POPC   C3A23237  30.880  43.942   8.078
 1626POPC   C4A23238  30.645  43.616   7.868
 1626POPC   C1B23239  30.392  44.173   8.597
 1626POPC   C2B23240  30.377  43.960   8.198
 1626POPC   C3B23241  30.441  44.057   7.739
 1626POPC   C4B23242  30.541  44.238   7.325
 1627POPC   NC323243  44.411  11.130   9.455
 1627POPC   PO423244  44.935  11.629   9.576
 1627POPC   GL123245  44.751  11.413   9.205
 1627POPC   GL223246  44.372  11.515   9.136
 1627POPC   C1A23247  44.686  11.201   8.815
 1627POPC   D2A23248  44.460  10.978   8.504
 1627POPC   C3A23249  44.633  11.085   8.112
 1627POPC   C4A23250  44.880  11.207   7.758
 1627POPC   C1B23251  44.495  11.683   8.748
 1627POPC   C2B23252  44.735  11.595   8.360
 1627POPC   C3B23253  44.545  11.575   7.922
 1627POPC   C4B23254  44.377  11.234   7.663
 1628POPC   NC323255  25.098  32.601   9.430
 1628POPC   PO423256  25.452  33.137   9.585
 1628POPC   GL123257  25.275  33.074   9.217
 1628POPC   GL223258  24.925  33.075   9.296
 1628POPC   C1A23259  25.354  33.187   8.808
 1628POPC   D2A23260  25.511  33.118   8.418
 1628POPC   C3A23261  25.284  33.166   8.055
 1628POPC   C4A23262  25.352  33.315   7.657
 1628POPC   C1B23263  24.935  32.884   8.874
 1628POPC   C2B23264  25.016  32.955   8.446
 1628POPC   C3B23265  24.939  32.761   8.049
 1628POPC   C4B23266  25.064  32.913   7.646
 1629POPC   NC323267   9.983   2.194   9.692
 1629POPC   PO423268   9.970   2.860   9.823
 1629POPC   GL123269   9.896   2.653   9.423
 1629POPC   GL223270   9.853   2.986   9.271
 1629POPC   C1A23271   9.750   2.559   8.981
 1629POPC   D2A23272   9.788   2.385   8.568
 1629POPC   C3A23273   9.548   2.527   8.183
 1629POPC   C4A23274   9.797   2.647   7.829
 1629POPC   C1B23275   9.612   3.049   8.877
 1629POPC   C2B23276   9.777   2.943   8.421
 1629POPC   C3B23277   9.945   3.098   7.994
 1629POPC   C4B23278   9.930   3.012   7.500
 1630POPC   NC323279  30.773  36.509   9.401
 1630POPC   PO423280  30.403  35.873   9.481
 1630POPC   GL123281  30.540  36.076   9.092
 1630POPC   GL223282  30.831  35.933   8.900
 1630POPC   C1A23283  30.457  36.281   8.696
 1630POPC   D2A23284  30.307  36.032   8.354
 1630POPC   C3A23285  30.367  36.162   7.973
 1630POPC   C4A23286  30.526  36.494   7.782
 1630POPC   C1B23287  30.793  35.959   8.482
 1630POPC   C2B23288  30.774  36.338   8.235
 1630POPC   C3B23289  30.971  36.251   7.857
 1630POPC   C4B23290  31.105  35.853   7.762
 1631POPC   NC323291   7.887   3.209   9.684
 1631POPC   PO423292   8.564   3.429   9.539
 1631POPC   GL123293   8.232   3.566   9.201
 1631POPC   GL223294   7.872   3.460   9.218
 1631POPC   C1A23295   8.241   3.532   8.782
 1631POPC   D2A23296   8.417   3.619   8.392
 1631POPC   C3A23297   8.201   3.586   8.037
 1631POPC   C4A23298   8.027   3.708   7.661
 1631POPC   C1B23299   7.767   3.759   8.900
 1631POPC   C2B23300   7.891   3.798   8.463
 1631POPC   C3B23301   7.714   3.720   8.044
 1631POPC   C4B23302   7.731   4.121   7.795
 1632POPC   NC323303   2.516   2.355   9.600
 1632POPC   PO423304   3.018   1.872   9.554
 1632POPC   GL123305   2.867   2.105   9.196
 1632POPC   GL223306   2.992   1.831   9.033
 1632POPC   C1A23307   2.657   2.075   8.749
 1632POPC   D2A23308   2.690   2.385   8.387
 1632POPC   C3A23309   2.829   2.226   7.971
 1632POPC   C4A23310   2.574   2.138   7.597
 1632POPC   C1B23311   2.737   1.575   8.838
 1632POPC   C2B23312   2.576   1.627   8.447
 1632POPC   C3B23313   2.398   1.631   8.060
 1632POPC   C4B23314   2.587   1.638   7.682
 1633POPC   NC323315  24.104  35.939   9.449
 1633POPC   PO423316  23.421  35.944   9.442
 1633POPC   GL123317  23.726  36.077   9.124
 1633POPC   GL223318  23.974  35.860   8.976
 1633POPC   C1A23319  23.740  36.221   8.705
 1633POPC   D2A23320  23.494  36.151   8.374
 1633POPC   C3A23321  23.648  36.263   8.002
 1633POPC   C4A23322  23.425  36.030   7.731
 1633POPC   C1B23323  24.209  35.992   8.647
 1633POPC   C2B23324  24.062  36.034   8.231
 1633POPC   C3B23325  23.882  35.822   7.856
 1633POPC   C4B23326  23.740  35.833   7.380
 1634POPC   NC323327  29.699   8.623   9.204
 1634POPC   PO423328  30.349   8.860   9.492
 1634POPC   GL123329  30.161   8.885   9.144
 1634POPC   GL223330  30.202   8.518   9.106
 1634POPC   C1A23331  29.980   9.133   8.796
 1634POPC   D2A23332  29.690   9.031   8.468
 1634POPC   C3A23333  29.781   9.096   8.013
 1634POPC   C4A23334  29.684   8.705   7.769
 1634POPC   C1B23335  30.290   8.709   8.697
 1634POPC   C2B23336  30.184   8.930   8.304
 1634POPC   C3B23337  30.183   8.804   7.859
 1634POPC   C4B23338  30.079   8.720   7.389
 1635POPC   NC323339  38.651  32.348   9.544
 1635POPC   PO423340  38.041  32.029   9.688
 1635POPC   GL123341  38.160  32.359   9.322
 1635POPC   GL223342  38.457  32.252   9.083
 1635POPC   C1A23343  38.102  32.517   8.848
 1635POPC   D2A23344  38.365  32.519   8.433
 1635POPC   C3A23345  38.144  32.351   8.072
 1635POPC   C4A23346  38.150  32.260   7.634
 1635POPC   C1B23347  38.841  32.353   8.806
 1635POPC   C2B23348  38.909  32.637   8.448
 1635POPC   C3B23349  38.820  32.486   8.033
 1635POPC   C4B23350  38.578  32.126   7.893
 1636POPC   NC323351  22.702  26.592   9.311
 1636POPC   PO423352  22.171  26.884   9.631
 1636POPC   GL123353  22.145  26.923   9.191
 1636POPC   GL223354  22.449  27.074   9.140
 1636POPC   C1A23355  22.007  26.755   8.791
 1636POPC   D2A23356  22.282  26.711   8.440
 1636POPC   C3A23357  22.100  26.668   8.047
 1636POPC   C4A23358  22.330  26.516   7.730
 1636POPC   C1B23359  22.352  27.158   8.725
 1636POPC   C2B23360  22.521  27.148   8.315
 1636POPC   C3B23361  22.349  27.089   7.937
 1636POPC   C4B23362  22.559  26.940   7.588
 1637POPC   NC323363   0.307  41.656   9.694
 1637POPC   PO423364  44.649  41.571   9.685
 1637POPC   GL123365  44.721  41.716   9.274
 1637POPC   GL223366  44.477  41.472   9.180
 1637POPC   C1A23367  44.874  41.537   8.850
 1637POPC   D2A23368  44.625  41.501   8.450
 1637POPC   C3A23369  44.805  41.584   7.996
 1637POPC   C4A23370   0.042  41.557   7.552
 1637POPC   C1B23371  44.215  41.469   8.822
 1637POPC   C2B23372  44.021  41.406   8.438
 1637POPC   C3B23373  44.268  41.437   8.088
 1637POPC   C4B23374  44.357  41.214   7.703
 1638POPC   NC323375  35.207   9.794   9.562
 1638POPC   PO423376  35.578  10.404   9.560
 1638POPC   GL123377  35.487  10.072   9.237
 1638POPC   GL223378  35.147  10.201   9.220
 1638POPC   C1A23379  35.277   9.743   8.930
 1638POPC   D2A23380  35.158   9.667   8.500
 1638POPC   C3A23381  35.431   9.640   8.141
 1638POPC   C4A23382  35.292   9.578   7.709
 1638POPC   C1B23383  35.305  10.227   8.781
 1638POPC   C2B23384  35.410  10.113   8.384
 1638POPC   C3B23385  35.210  10.061   8.007
 1638POPC   C4B23386  35.404  10.054   7.614
 1639POPC   NC323387   3.717   3.845   9.785
 1639POPC   PO423388   3.342   4.382   9.532
 1639POPC   GL123389   3.456   4.299   9.126
 1639POPC   GL223390   3.812   4.381   9.201
 1639POPC   C1A23391   3.319   4.458   8.717
 1639POPC   D2A23392   3.479   4.444   8.310
 1639POPC   C3A23393   3.168   4.531   8.001
 1639POPC   C4A23394   3.192   4.435   7.517
 1639POPC   C1B23395   3.805   4.290   8.728
 1639POPC   C2B23396   4.056   4.181   8.361
 1639POPC   C3B23397   3.937   4.320   7.955
 1639POPC   C4B23398   3.606   4.450   7.802
 1640POPC   NC323399   4.938  12.053   9.694
 1640POPC   PO423400   5.290  12.452   9.301
 1640POPC   GL123401   4.945  12.316   9.102
 1640POPC   GL223402   4.814  11.997   9.193
 1640POPC   C1A23403   4.988  12.239   8.665
 1640POPC   D2A23404   4.867  12.033   8.315
 1640POPC   C3A23405   5.186  12.038   8.006
 1640POPC   C4A23406   5.189  12.225   7.624
 1640POPC   C1B23407   5.128  11.818   8.923
 1640POPC   C2B23408   5.209  11.683   8.519
 1640POPC   C3B23409   5.026  11.583   8.133
 1640POPC   C4B23410   4.915  11.711   7.697
 1641POPC   NC323411  44.360   1.596   9.304
 1641POPC   PO423412  44.838   1.081   9.407
 1641POPC   GL123413  44.583   1.173   9.084
 1641POPC   GL223414  44.230   1.111   9.224
 1641POPC   C1A23415  44.741   1.250   8.660
 1641POPC   D2A23416  44.978   1.447   8.309
 1641POPC   C3A23417  44.897   1.210   7.914
 1641POPC   C4A23418  44.916   0.761   7.793
 1641POPC   C1B23419  44.195   1.170   8.754
 1641POPC   C2B23420  44.145   1.187   8.305
 1641POPC   C3B23421  44.422   0.992   7.998
 1641POPC   C4B23422  44.527   0.990   7.566
 1642POPC   NC323423   6.335  25.429   9.562
 1642POPC   PO423424   6.850  24.950   9.481
 1642POPC   GL123425   6.761  25.348   9.204
 1642POPC   GL223426   6.429  25.501   9.091
 1642POPC   C1A23427   6.845  25.588   8.806
 1642POPC   D2A23428   7.029  25.613   8.379
 1642POPC   C3A23429   6.972  25.196   8.186
 1642POPC   C4A23430   6.909  25.113   7.773
 1642POPC   C1B23431   6.433  25.191   8.797
 1642POPC   C2B23432   6.549  25.353   8.424
 1642POPC   C3B23433   6.472  25.228   8.016
 1642POPC   C4B23434   6.347  25.528   7.779
 1643POPC   NC323435  25.081  20.236   9.380
 1643POPC   PO423436  25.361  19.748   9.758
 1643POPC   GL123437  25.356  19.818   9.248
 1643POPC   GL223438  25.053  19.856   9.054
 1643POPC   C1A23439  25.478  19.994   8.812
 1643POPC   D2A23440  25.628  19.752   8.456
 1643POPC   C3A23441  25.367  19.820   8.132
 1643POPC   C4A23442  25.464  19.899   7.735
 1643POPC   C1B23443  25.005  20.200   8.731
 1643POPC   C2B23444  25.190  20.310   8.316
 1643POPC   C3B23445  25.035  20.169   7.897
 1643POPC   C4B23446  24.988  19.885   7.549
 1644POPC   NC323447  36.437  15.562   9.448
 1644POPC   PO423448  36.763  14.943   9.558
 1644POPC   GL123449  36.896  15.098   9.163
 1644POPC   GL223450  36.664  15.317   9.022
 1644POPC   C1A23451  37.067  15.330   8.762
 1644POPC   D2A23452  36.708  15.322   8.435
 1644POPC   C3A23453  36.852  15.346   8.011
 1644POPC   C4A23454  37.207  15.289   7.735
 1644POPC   C1B23455  36.791  14.910   8.726
 1644POPC   C2B23456  37.056  14.943   8.391
 1644POPC   C3B23457  37.044  14.823   8.007
 1644POPC   C4B23458  36.840  14.943   7.689
 1645POPC   NC323459  39.684  37.829   9.711
 1645POPC   PO423460  39.076  37.569   9.467
 1645POPC   GL123461  39.197  37.879   9.171
 1645POPC   GL223462  39.590  37.979   9.167
 1645POPC   C1A23463  39.084  37.680   8.772
 1645POPC   D2A23464  39.300  37.505   8.437
 1645POPC   C3A23465  39.099  37.618   8.035
 1645POPC   C4A23466  39.260  37.616   7.630
 1645POPC   C1B23467  39.448  38.059   8.757
 1645POPC   C2B23468  39.265  38.002   8.351
 1645POPC   C3B23469  39.467  37.980   7.944
 1645POPC   C4B23470  39.528  38.366   7.765
 1646POPC   NC323471   6.961  13.572   9.593
 1646POPC   PO423472   6.365  13.890   9.567
 1646POPC   GL123473   6.327  13.799   9.170
 1646POPC   GL223474   6.646  13.579   9.135
 1646POPC   C1A23475   6.236  13.607   8.802
 1646POPC   D2A23476   6.425  13.587   8.425
 1646POPC   C3A23477   6.168  13.650   8.069
 1646POPC   C4A23478   6.439  13.616   7.695
 1646POPC   C1B23479   6.971  13.585   8.722
 1646POPC   C2B23480   6.935  13.548   8.250
 1646POPC   C3B23481   6.864  13.327   7.860
 1646POPC   C4B23482   6.814  13.373   7.395
 1647POPC   NC323483  12.082  36.306  10.012
 1647POPC   PO423484  11.780  35.797   9.505
 1647POPC   GL123485  12.017  36.161   9.306
 1647POPC   GL223486  12.071  36.010   9.001
 1647POPC   C1A23487  12.030  36.493   8.927
 1647POPC   D2A23488  12.016  36.370   8.480
 1647POPC   C3A23489  11.816  36.505   8.090
 1647POPC   C4A23490  12.067  36.505   7.715
 1647POPC   C1B23491  11.779  35.942   8.677
 1647POPC   C2B23492  11.762  35.995   8.258
 1647POPC   C3B23493  12.109  36.062   8.009
 1647POPC   C4B23494  11.845  35.946   7.712
 1648POPC   NC323495   4.785  41.410   9.537
 1648POPC   PO423496   5.392  41.200   9.282
 1648POPC   GL123497   5.096  41.304   9.064
 1648POPC   GL223498   4.997  41.598   9.129
 1648POPC   C1A23499   5.225  41.435   8.665
 1648POPC   D2A23500   5.402  41.249   8.302
 1648POPC   C3A23501   5.198  41.435   7.969
 1648POPC   C4A23502   4.926  41.320   7.664
 1648POPC   C1B23503   4.905  41.828   8.813
 1648POPC   C2B23504   4.710  41.779   8.416
 1648POPC   C3B23505   4.838  41.910   7.990
 1648POPC   C4B23506   5.003  41.795   7.598
 1649POPC   NC323507  11.981   9.369   9.580
 1649POPC   PO423508  11.800  10.058   9.650
 1649POPC   GL123509  11.773   9.766   9.304
 1649POPC   GL223510  12.131   9.733   9.223
 1649POPC   C1A23511  11.794   9.534   8.896
 1649POPC   D2A23512  11.911   9.671   8.475
 1649POPC   C3A23513  11.836   9.544   8.047
 1649POPC   C4A23514  11.951   9.237   7.736
 1649POPC   C1B23515  12.278   9.849   8.787
 1649POPC   C2B23516  12.380   9.748   8.327
 1649POPC   C3B23517  12.298   9.731   7.883
 1649POPC   C4B23518  12.561   9.860   7.546
 1650POPC   NC323519  42.942  35.651   9.697
 1650POPC   PO423520  43.356  35.223   9.418
 1650POPC   GL123521  43.206  35.580   9.144
 1650POPC   GL223522  43.493  35.688   8.944
 1650POPC   C1A23523  43.032  35.614   8.707
 1650POPC   D2A23524  42.738  35.429   8.396
 1650POPC   C3A23525  42.966  35.294   8.039
 1650POPC   C4A23526  43.269  35.526   7.749
 1650POPC   C1B23527  43.423  35.276   8.747
 1650POPC   C2B23528  43.398  35.303   8.311
 1650POPC   C3B23529  43.465  35.068   7.942
 1650POPC   C4B23530  43.162  35.013   7.656
 1651POPC   NC323531  18.608  27.201   9.321
 1651POPC   PO423532  18.165  26.752   9.517
 1651POPC   GL123533  18.259  26.818   9.135
 1651POPC   GL223534  18.135  27.113   9.060
 1651POPC   C1A23535  18.125  26.617   8.777
 1651POPC   D2A23536  18.113  26.776   8.403
 1651POPC   C3A23537  18.030  26.595   8.047
 1651POPC   C4A23538  18.381  26.546   7.823
 1651POPC   C1B23539  18.438  27.034   8.689
 1651POPC   C2B23540  18.591  26.902   8.256
 1651POPC   C3B23541  18.503  27.028   7.833
 1651POPC   C4B23542  18.156  27.077   7.517
 1652POPC   NC323543   1.890   1.575   9.608
 1652POPC   PO423544   1.741   0.854   9.588
 1652POPC   GL123545   1.825   1.118   9.183
 1652POPC   GL223546   2.123   1.334   9.151
 1652POPC   C1A23547   1.861   1.298   8.724
 1652POPC   D2A23548   1.944   1.630   8.408
 1652POPC   C3A23549   1.910   1.470   8.015
 1652POPC   C4A23550   1.735   1.171   7.733
 1652POPC   C1B23551   2.363   1.243   8.792
 1652POPC   C2B23552   2.265   1.222   8.366
 1652POPC   C3B23553   2.243   1.046   7.954
 1652POPC   C4B23554   2.204   1.330   7.615
 1653POPC   NC323555   9.346  40.702   9.784
 1653POPC   PO423556   8.843  41.151   9.643
 1653POPC   GL123557   8.882  40.816   9.342
 1653POPC   GL223558   9.224  40.788   9.273
 1653POPC   C1A23559   8.876  40.850   8.883
 1653POPC   D2A23560   8.877  41.043   8.473
 1653POPC   C3A23561   9.078  40.940   8.110
 1653POPC   C4A23562   9.219  40.831   7.734
 1653POPC   C1B23563   9.298  40.566   8.886
 1653POPC   C2B23564   9.203  40.578   8.462
 1653POPC   C3B23565   9.388  40.501   8.083
 1653POPC   C4B23566   9.360  40.319   7.683
 1654POPC   NC323567  31.628   4.750   9.430
 1654POPC   PO423568  32.207   5.090   9.574
 1654POPC   GL123569  32.184   4.950   9.155
 1654POPC   GL223570  31.861   5.073   9.090
 1654POPC   C1A23571  32.401   4.996   8.753
 1654POPC   D2A23572  32.651   5.154   8.401
 1654POPC   C3A23573  32.449   5.129   7.994
 1654POPC   C4A23574  32.442   5.048   7.557
 1654POPC   C1B23575  31.838   4.990   8.663
 1654POPC   C2B23576  32.020   5.167   8.286
 1654POPC   C3B23577  31.959   5.172   7.835
 1654POPC   C4B23578  31.981   4.912   7.437
 1655POPC   NC323579  14.100  38.247   9.652
 1655POPC   PO423580  13.665  38.759   9.522
 1655POPC   GL123581  13.705  38.445   9.234
 1655POPC   GL223582  14.071  38.473   9.181
 1655POPC   C1A23583  13.701  38.417   8.792
 1655POPC   D2A23584  13.525  38.259   8.404
 1655POPC   C3A23585  13.540  38.610   8.129
 1655POPC   C4A23586  13.664  38.770   7.753
 1655POPC   C1B23587  14.221  38.554   8.745
 1655POPC   C2B23588  14.126  38.593   8.274
 1655POPC   C3B23589  14.181  38.753   7.813
 1655POPC   C4B23590  14.244  38.660   7.322
 1656POPC   NC323591  27.040  34.230   9.498
 1656POPC   PO423592  26.518  34.604   9.590
 1656POPC   GL123593  26.657  34.810   9.197
 1656POPC   GL223594  26.902  34.594   9.134
 1656POPC   C1A23595  26.775  34.947   8.769
 1656POPC   D2A23596  26.601  34.904   8.366
 1656POPC   C3A23597  26.707  34.582   8.036
 1656POPC   C4A23598  26.800  34.667   7.618
 1656POPC   C1B23599  26.790  34.434   8.708
 1656POPC   C2B23600  26.944  34.244   8.342
 1656POPC   C3B23601  27.166  34.212   7.961
 1656POPC   C4B23602  26.866  34.169   7.661
 1657POPC   NC323603  25.492  12.509   9.451
 1657POPC   PO423604  25.354  13.161   9.392
 1657POPC   GL123605  25.419  12.873   9.056
 1657POPC   GL223606  25.591  13.143   8.877
 1657POPC   C1A23607  25.477  12.732   8.613
 1657POPC   D2A23608  25.385  13.012   8.255
 1657POPC   C3A23609  25.430  12.823   7.832
 1657POPC   C4A23610  25.141  12.532   7.541
 1657POPC   C1B23611  25.138  13.164   8.717
 1657POPC   C2B23612  24.819  13.114   8.395
 1657POPC   C3B23613  24.948  12.983   7.980
 1657POPC   C4B23614  25.032  13.023   7.528
 1658POPC   NC323615  33.749  14.452   9.788
 1658POPC   PO423616  33.896  13.791   9.504
 1658POPC   GL123617  33.748  13.511   9.180
 1658POPC   GL223618  33.688  13.841   9.046
 1658POPC   C1A23619  33.606  13.436   8.745
 1658POPC   D2A23620  33.781  13.589   8.355
 1658POPC   C3A23621  33.710  13.300   8.045
 1658POPC   C4A23622  33.634  13.360   7.636
 1658POPC   C1B23623  33.980  13.932   8.709
 1658POPC   C2B23624  33.992  14.059   8.264
 1658POPC   C3B23625  34.047  13.765   7.879
 1658POPC   C4B23626  34.200  13.846   7.426
 1659POPC   NC323627  40.574  40.907   9.431
 1659POPC   PO423628  41.059  40.429   9.444
 1659POPC   GL123629  40.824  40.568   9.114
 1659POPC   GL223630  40.954  40.877   9.077
 1659POPC   C1A23631  40.601  40.704   8.747
 1659POPC   D2A23632  40.447  40.703   8.325
 1659POPC   C3A23633  40.749  40.653   8.014
 1659POPC   C4A23634  40.584  40.786   7.620
 1659POPC   C1B23635  40.963  41.098   8.721
 1659POPC   C2B23636  40.835  41.079   8.328
 1659POPC   C3B23637  40.733  41.178   7.936
 1659POPC   C4B23638  40.941  41.339   7.568
 1660POPC   NC323639   1.584  20.768   9.486
 1660POPC   PO423640   1.182  20.257   9.542
 1660POPC   GL123641   1.238  20.545   9.162
 1660POPC   GL223642   0.906  20.681   9.070
 1660POPC   C1A23643   1.261  20.789   8.734
 1660POPC   D2A23644   1.509  20.809   8.356
 1660POPC   C3A23645   1.308  21.043   7.993
 1660POPC   C4A23646   1.264  20.775   7.612
 1660POPC   C1B23647   1.001  20.321   8.789
 1660POPC   C2B23648   1.181  20.392   8.415
 1660POPC   C3B23649   1.033  20.623   8.089
 1660POPC   C4B23650   0.916  20.347   7.778
 1661POPC   NC323651   7.717  26.669   9.525
 1661POPC   PO423652   7.249  27.138   9.467
 1661POPC   GL123653   7.165  26.819   9.153
 1661POPC   GL223654   7.420  26.536   9.114
 1661POPC   C1A23655   7.245  26.906   8.725
 1661POPC   D2A23656   7.308  27.152   8.343
 1661POPC   C3A23657   7.444  27.071   7.906
 1661POPC   C4A23658   7.889  27.040   7.762
 1661POPC   C1B23659   7.692  26.637   8.769
 1661POPC   C2B23660   7.591  26.706   8.335
 1661POPC   C3B23661   7.566  26.580   7.922
 1661POPC   C4B23662   7.843  26.525   7.586
 1662POPC   NC323663  40.724  28.032   9.444
 1662POPC   PO423664  40.283  28.465   9.615
 1662POPC   GL123665  40.366  28.417   9.197
 1662POPC   GL223666  40.708  28.502   9.208
 1662POPC   C1A23667  40.564  28.202   8.823
 1662POPC   D2A23668  40.794  28.218   8.435
 1662POPC   C3A23669  40.573  28.316   8.039
 1662POPC   C4A23670  40.668  28.475   7.656
 1662POPC   C1B23671  40.925  28.618   8.813
 1662POPC   C2B23672  41.162  28.633   8.433
 1662POPC   C3B23673  41.052  28.494   8.045
 1662POPC   C4B23674  41.139  28.670   7.687
 1663POPC   NC323675  28.742  19.383   9.296
 1663POPC   PO423676  28.365  18.972   9.737
 1663POPC   GL123677  28.312  19.075   9.283
 1663POPC   GL223678  28.251  19.426   9.195
 1663POPC   C1A23679  28.381  18.854   8.896
 1663POPC   D2A23680  28.268  18.816   8.481
 1663POPC   C3A23681  28.544  18.825   8.110
 1663POPC   C4A23682  28.327  18.889   7.701
 1663POPC   C1B23683  28.184  19.297   8.757
 1663POPC   C2B23684  28.505  19.262   8.421
 1663POPC   C3B23685  28.529  19.332   7.979
 1663POPC   C4B23686  28.131  19.357   7.753
 1664POPC   NC323687  13.664  17.889   9.556
 1664POPC   PO423688  13.786  18.561   9.476
 1664POPC   GL123689  13.764  18.235   9.168
 1664POPC   GL223690  13.479  18.124   9.161
 1664POPC   C1A23691  13.841  18.307   8.738
 1664POPC   D2A23692  13.862  18.491   8.351
 1664POPC   C3A23693  13.822  18.257   7.992
 1664POPC   C4A23694  13.655  18.542   7.678
 1664POPC   C1B23695  13.382  18.079   8.785
 1664POPC   C2B23696  13.448  18.176   8.388
 1664POPC   C3B23697  13.324  18.318   8.011
 1664POPC   C4B23698  13.396  18.082   7.648
 1665POPC   NC323699   0.639   6.424   9.536
 1665POPC   PO423700   0.485   7.053   9.620
 1665POPC   GL123701   0.468   6.826   9.246
 1665POPC   GL223702   0.839   6.822   9.241
 1665POPC   C1A23703   0.262   6.778   8.838
 1665POPC   D2A23704   0.179   6.722   8.407
 1665POPC   C3A23705   0.314   6.383   8.156
 1665POPC   C4A23706   0.295   6.513   7.741
 1665POPC   C1B23707   0.765   6.952   8.820
 1665POPC   C2B23708   0.705   6.750   8.433
 1665POPC   C3B23709   0.732   6.643   8.008
 1665POPC   C4B23710   0.604   6.874   7.640
 1666POPC   NC323711  12.818  33.418   9.444
 1666POPC   PO423712  12.446  32.849   9.509
 1666POPC   GL123713  12.690  32.975   9.191
 1666POPC   GL223714  13.031  32.977   9.173
 1666POPC   C1A23715  12.634  33.107   8.802
 1666POPC   D2A23716  12.890  33.091   8.484
 1666POPC   C3A23717  12.690  33.098   8.138
 1666POPC   C4A23718  12.802  33.036   7.734
 1666POPC   C1B23719  13.263  32.865   8.780
 1666POPC   C2B23720  13.390  33.058   8.363
 1666POPC   C3B23721  13.239  33.181   7.955
 1666POPC   C4B23722  13.201  33.209   7.468
 1667POPC   NC323723   3.424  15.555   9.581
 1667POPC   PO423724   3.858  15.034   9.421
 1667POPC   GL123725   3.686  15.224   9.066
 1667POPC   GL223726   3.399  15.469   9.066
 1667POPC   C1A23727   3.548  15.011   8.715
 1667POPC   D2A23728   3.613  15.075   8.303
 1667POPC   C3A23729   3.422  14.768   8.044
 1667POPC   C4A23730   3.327  14.832   7.657
 1667POPC   C1B23731   3.512  15.499   8.617
 1667POPC   C2B23732   3.889  15.525   8.337
 1667POPC   C3B23733   3.890  15.429   7.897
 1667POPC   C4B23734   3.451  15.315   7.779
 1668POPC   NC323735  29.530  21.801   9.543
 1668POPC   PO423736  28.875  21.439   9.459
 1668POPC   GL123737  29.108  21.289   9.080
 1668POPC   GL223738  29.347  21.008   9.137
 1668POPC   C1A23739  29.010  21.298   8.614
 1668POPC   D2A23740  29.160  21.542   8.260
 1668POPC   C3A23741  29.157  21.393   7.844
 1668POPC   C4A23742  28.998  21.391   7.436
 1668POPC   C1B23743  29.280  20.887   8.729
 1668POPC   C2B23744  29.316  21.039   8.258
 1668POPC   C3B23745  29.510  21.004   7.809
 1668POPC   C4B23746  29.370  21.077   7.340
 1669POPC   NC323747  27.170  20.637   9.524
 1669POPC   PO423748  26.515  20.438   9.633
 1669POPC   GL123749  26.652  20.409   9.240
 1669POPC   GL223750  26.739  20.780   9.242
 1669POPC   C1A23751  26.612  20.485   8.809
 1669POPC   D2A23752  26.992  20.472   8.586
 1669POPC   C3A23753  26.990  20.528   8.142
 1669POPC   C4A23754  27.115  20.707   7.749
 1669POPC   C1B23755  26.909  20.912   8.831
 1669POPC   C2B23756  26.686  20.851   8.425
 1669POPC   C3B23757  26.713  21.015   7.999
 1669POPC   C4B23758  26.679  20.903   7.539
 1670POPC   NC323759  10.960  44.858   9.569
 1670POPC   PO423760  11.536   0.147   9.479
 1670POPC   GL123761  11.442  44.847   9.147
 1670POPC   GL223762  11.225  44.548   9.215
 1670POPC   C1A23763  11.518  44.854   8.705
 1670POPC   D2A23764  11.484   0.043   8.297
 1670POPC   C3A23765  11.319  44.708   8.042
 1670POPC   C4A23766  11.608  44.429   7.833
 1670POPC   C1B23767  11.408  44.359   8.845
 1670POPC   C2B23768  11.322  44.309   8.408
 1670POPC   C3B23769  10.913  44.419   8.227
 1670POPC   C4B23770  10.794  44.683   7.873
 1671POPC   NC323771  28.083   8.643   9.426
 1671POPC   PO423772  28.433   9.161   9.817
 1671POPC   GL123773  28.368   9.128   9.271
 1671POPC   GL223774  28.504   8.773   9.140
 1671POPC   C1A23775  28.235   9.027   8.816
 1671POPC   D2A23776  28.444   8.914   8.415
 1671POPC   C3A23777  28.278   8.938   8.009
 1671POPC   C4A23778  28.153   9.255   7.690
 1671POPC   C1B23779  28.766   8.727   8.772
 1671POPC   C2B23780  28.800   8.534   8.339
 1671POPC   C3B23781  28.650   8.575   7.909
 1671POPC   C4B23782  28.445   8.729   7.512
 1672POPC   NC323783  39.248  22.435   9.570
 1672POPC   PO423784  39.174  21.703   9.411
 1672POPC   GL123785  39.242  21.927   9.078
 1672POPC   GL223786  39.235  22.244   9.105
 1672POPC   C1A23787  39.341  21.815   8.694
 1672POPC   D2A23788  39.258  21.600   8.337
 1672POPC   C3A23789  39.084  21.873   8.099
 1672POPC   C4A23790  39.254  22.148   7.821
 1672POPC   C1B23791  39.148  22.358   8.700
 1672POPC   C2B23792  39.244  22.408   8.266
 1672POPC   C3B23793  38.968  22.541   7.941
 1672POPC   C4B23794  38.970  22.448   7.490
 1673POPC   NC323795  20.408   9.418   9.486
 1673POPC   PO423796  20.312  10.095   9.512
 1673POPC   GL123797  20.319   9.835   9.137
 1673POPC   GL223798  20.649   9.781   9.100
 1673POPC   C1A23799  20.326   9.566   8.745
 1673POPC   D2A23800  20.564   9.456   8.337
 1673POPC   C3A23801  20.402   9.615   7.916
 1673POPC   C4A23802  20.520   9.755   7.436
 1673POPC   C1B23803  20.740   9.865   8.650
 1673POPC   C2B23804  20.702   9.935   8.202
 1673POPC   C3B23805  20.896   9.807   7.798
 1673POPC   C4B23806  21.248   9.875   7.513
 1674POPC   NC323807  35.993   0.559   9.404
 1674POPC   PO423808  36.482   0.099   9.570
 1674POPC   GL123809  36.406   0.320   9.139
 1674POPC   GL223810  36.433   0.711   9.153
 1674POPC   C1A23811  36.132   0.421   8.732
 1674POPC   D2A23812  35.925   0.272   8.308
 1674POPC   C3A23813  36.009   0.455   7.891
 1674POPC   C4A23814  35.926   0.305   7.466
 1674POPC   C1B23815  36.382   0.888   8.726
 1674POPC   C2B23816  36.218   0.739   8.303
 1674POPC   C3B23817  36.327   0.849   7.883
 1674POPC   C4B23818  36.427   0.551   7.539
 1675POPC   NC323819  40.442  32.246   9.533
 1675POPC   PO423820  39.756  32.270   9.510
 1675POPC   GL123821  39.867  32.119   9.129
 1675POPC   GL223822  40.115  32.397   9.103
 1675POPC   C1A23823  39.975  31.994   8.723
 1675POPC   D2A23824  40.012  32.264   8.374
 1675POPC   C3A23825  39.808  32.192   7.978
 1675POPC   C4A23826  39.904  32.381   7.606
 1675POPC   C1B23827  40.422  32.271   8.786
 1675POPC   C2B23828  40.504  32.100   8.384
 1675POPC   C3B23829  40.360  32.201   7.955
 1675POPC   C4B23830  40.145  31.887   7.707
 1676POPC   NC323831  39.124  26.658   9.631
 1676POPC   PO423832  39.590  26.271   9.345
 1676POPC   GL123833  39.456  26.678   9.187
 1676POPC   GL223834  39.119  26.846   9.165
 1676POPC   C1A23835  39.490  26.953   8.828
 1676POPC   D2A23836  39.576  26.823   8.425
 1676POPC   C3A23837  39.671  27.080   8.096
 1676POPC   C4A23838  39.501  27.024   7.715
 1676POPC   C1B23839  38.945  26.853   8.773
 1676POPC   C2B23840  39.098  26.975   8.385
 1676POPC   C3B23841  39.162  26.802   8.010
 1676POPC   C4B23842  38.999  27.031   7.639
 1677POPC   NC323843  40.326   6.697   9.585
 1677POPC   PO423844  39.725   6.272   9.465
 1677POPC   GL123845  39.907   6.549   9.146
 1677POPC   GL223846  40.117   6.871   9.160
 1677POPC   C1A23847  40.058   6.435   8.739
 1677POPC   D2A23848  40.048   6.591   8.298
 1677POPC   C3A23849  40.063   6.422   7.873
 1677POPC   C4A23850  39.780   6.526   7.540
 1677POPC   C1B23851  39.951   6.936   8.747
 1677POPC   C2B23852  39.761   7.017   8.351
 1677POPC   C3B23853  39.845   6.933   7.913
 1677POPC   C4B23854  39.735   7.034   7.469
 1678POPC   NC323855  36.777  13.766   9.543
 1678POPC   PO423856  37.333  13.732   9.136
 1678POPC   GL123857  36.970  13.482   9.139
 1678POPC   GL223858  36.804  13.759   9.008
 1678POPC   C1A23859  36.910  13.305   8.743
 1678POPC   D2A23860  37.096  13.551   8.422
 1678POPC   C3A23861  37.049  13.494   8.000
 1678POPC   C4A23862  36.966  13.879   7.758
 1678POPC   C1B23863  36.470  13.466   8.950
 1678POPC   C2B23864  36.316  13.421   8.547
 1678POPC   C3B23865  36.581  13.541   8.203
 1678POPC   C4B23866  36.530  13.575   7.772
 1679POPC   NC323867   7.805  23.185   9.477
 1679POPC   PO423868   8.521  23.018   9.541
 1679POPC   GL123869   8.203  22.936   9.261
 1679POPC   GL223870   8.236  23.274   9.188
 1679POPC   C1A23871   8.119  22.877   8.831
 1679POPC   D2A23872   8.356  22.949   8.467
 1679POPC   C3A23873   8.145  22.872   8.090
 1679POPC   C4A23874   8.283  23.017   7.680
 1679POPC   C1B23875   8.208  23.371   8.772
 1679POPC   C2B23876   7.950  23.256   8.399
 1679POPC   C3B23877   7.966  23.314   7.931
 1679POPC   C4B23878   7.958  23.361   7.448
 1680POPC   NC323879  11.567  12.272   9.405
 1680POPC   PO423880  11.103  11.652   9.418
 1680POPC   GL123881  11.364  11.772   9.046
 1680POPC   GL223882  11.509  12.134   8.932
 1680POPC   C1A23883  11.364  11.800   8.599
 1680POPC   D2A23884  11.374  12.153   8.339
 1680POPC   C3A23885  11.214  12.035   7.941
 1680POPC   C4A23886  11.180  11.858   7.506
 1680POPC   C1B23887  11.660  12.492   8.677
 1680POPC   C2B23888  11.485  12.650   8.273
 1680POPC   C3B23889  11.520  12.493   7.853
 1680POPC   C4B23890  11.559  12.160   7.544
 1681POPC   NC323891  35.688  37.090   9.916
 1681POPC   PO423892  35.168  36.708   9.711
 1681POPC   GL123893  35.432  36.724   9.288
 1681POPC   GL223894  35.534  37.055   9.187
 1681POPC   C1A23895  35.444  36.786   8.798
 1681POPC   D2A23896  35.537  37.081   8.449
 1681POPC   C3A23897  35.411  36.915   8.082
 1681POPC   C4A23898  35.493  36.798   7.687
 1681POPC   C1B23899  35.217  37.232   8.806
 1681POPC   C2B23900  35.018  37.117   8.437
 1681POPC   C3B23901  34.973  37.192   8.024
 1681POPC   C4B23902  34.726  37.306   7.658
 1682POPC   NC323903   7.690  15.546   9.259
 1682POPC   PO423904   7.177  15.042   9.417
 1682POPC   GL123905   7.267  15.283   9.093
 1682POPC   GL223906   7.024  15.530   9.170
 1682POPC   C1A23907   7.426  15.245   8.663
 1682POPC   D2A23908   7.170  15.039   8.346
 1682POPC   C3A23909   7.446  14.894   7.998
 1682POPC   C4A23910   7.412  14.919   7.536
 1682POPC   C1B23911   6.976  15.448   8.716
 1682POPC   C2B23912   7.181  15.635   8.373
 1682POPC   C3B23913   7.296  15.413   8.026
 1682POPC   C4B23914   6.972  15.423   7.738
 1683POPC   NC323915   8.986  28.148   9.734
 1683POPC   PO423916   8.571  28.562   9.430
 1683POPC   GL123917   8.947  28.373   9.269
 1683POPC   GL223918   8.758  28.262   9.035
 1683POPC   C1A23919   9.227  28.293   8.890
 1683POPC   D2A23920   9.186  28.536   8.497
 1683POPC   C3A23921   9.170  28.236   8.198
 1683POPC   C4A23922   9.236  28.212   7.791
 1683POPC   C1B23923   8.739  28.446   8.721
 1683POPC   C2B23924   8.719  28.217   8.388
 1683POPC   C3B23925   8.757  28.077   7.927
 1683POPC   C4B23926   8.789  28.297   7.501
 1684POPC   NC323927  42.625  30.770   9.427
 1684POPC   PO423928  43.304  30.524   9.424
 1684POPC   GL123929  43.024  30.660   9.137
 1684POPC   GL223930  42.782  30.353   9.191
 1684POPC   C1A23931  43.021  30.877   8.722
 1684POPC   D2A23932  43.298  30.937   8.375
 1684POPC   C3A23933  43.181  31.092   7.963
 1684POPC   C4A23934  43.156  30.863   7.576
 1684POPC   C1B23935  42.874  30.395   8.754
 1684POPC   C2B23936  42.840  30.248   8.365
 1684POPC   C3B23937  43.114  30.270   8.066
 1684POPC   C4B23938  43.126  30.332   7.658
 1685POPC   NC323939  23.998  44.953   9.532
 1685POPC   PO423940  24.634   0.312   9.801
 1685POPC   GL123941  24.605   0.286   9.347
 1685POPC   GL223942  24.298   0.178   9.166
 1685POPC   C1A23943  24.570   0.577   8.986
 1685POPC   D2A23944  24.495   0.506   8.546
 1685POPC   C3A23945  24.551   0.746   8.175
 1685POPC   C4A23946  24.739   0.635   7.789
 1685POPC   C1B23947  24.076   0.418   8.842
 1685POPC   C2B23948  24.012   0.366   8.412
 1685POPC   C3B23949  24.326   0.252   8.077
 1685POPC   C4B23950  24.120   0.137   7.695
 1686POPC   NC323951  14.260  25.560   9.577
 1686POPC   PO423952  14.419  26.147   9.729
 1686POPC   GL123953  14.369  25.876   9.219
 1686POPC   GL223954  14.598  25.697   9.143
 1686POPC   C1A23955  14.122  25.929   8.776
 1686POPC   D2A23956  14.199  26.079   8.340
 1686POPC   C3A23957  14.219  25.802   7.944
 1686POPC   C4A23958  14.513  25.675   7.592
 1686POPC   C1B23959  14.632  25.940   8.765
 1686POPC   C2B23960  14.696  26.230   8.453
 1686POPC   C3B23961  14.596  26.167   8.029
 1686POPC   C4B23962  14.674  26.527   7.719
 1687POPC   NC323963   3.185   3.069   9.446
 1687POPC   PO423964   3.688   2.612   9.488
 1687POPC   GL123965   3.559   2.866   9.144
 1687POPC   GL223966   3.305   2.618   9.094
 1687POPC   C1A23967   3.476   2.912   8.684
 1687POPC   D2A23968   3.661   3.035   8.287
 1687POPC   C3A23969   3.573   2.758   7.907
 1687POPC   C4A23970   3.388   2.771   7.439
 1687POPC   C1B23971   3.644   2.448   8.836
 1687POPC   C2B23972   3.651   2.254   8.452
 1687POPC   C3B23973   3.791   2.258   8.049
 1687POPC   C4B23974   3.983   2.453   7.724
 1688POPC   NC323975   5.762   7.883   9.547
 1688POPC   PO423976   5.906   7.302   9.550
 1688POPC   GL123977   5.929   7.538   9.189
 1688POPC   GL223978   5.609   7.670   9.110
 1688POPC   C1A23979   5.967   7.347   8.796
 1688POPC   D2A23980   5.841   7.385   8.367
 1688POPC   C3A23981   6.045   7.217   7.986
 1688POPC   C4A23982   6.013   7.433   7.628
 1688POPC   C1B23983   5.772   7.799   8.706
 1688POPC   C2B23984   5.614   7.917   8.336
 1688POPC   C3B23985   5.722   7.711   7.959
 1688POPC   C4B23986   5.514   7.588   7.582
 1689POPC   NC323987   0.784  29.237   9.526
 1689POPC   PO423988   0.146  28.835   9.515
 1689POPC   GL123989   0.437  28.985   9.215
 1689POPC   GL223990   0.395  29.337   9.183
 1689POPC   C1A23991   0.533  29.049   8.767
 1689POPC   D2A23992   0.649  28.847   8.385
 1689POPC   C3A23993   0.462  28.940   8.000
 1689POPC   C4A23994   0.588  29.218   7.700
 1689POPC   C1B23995   0.108  29.549   8.907
 1689POPC   C2B23996   0.283  29.444   8.534
 1689POPC   C3B23997   0.438  29.434   8.142
 1689POPC   C4B23998   0.184  29.531   7.814
 1690POPC   NC323999  37.086  21.331   9.818
 1690POPC   PO424000  36.499  21.275   9.582
 1690POPC   GL124001  36.697  21.390   9.203
 1690POPC   GL224002  37.083  21.332   9.224
 1690POPC   C1A24003  36.794  21.582   8.803
 1690POPC   D2A24004  36.895  21.384   8.427
 1690POPC   C3A24005  37.026  21.574   8.090
 1690POPC   C4A24006  36.914  21.589   7.680
 1690POPC   C1B24007  37.180  21.177   8.791
 1690POPC   C2B24008  37.251  21.054   8.324
 1690POPC   C3B24009  37.255  21.159   7.870
 1690POPC   C4B24010  37.236  21.266   7.420
 1691POPC   NC324011   1.134  22.346   9.677
 1691POPC   PO424012   1.440  21.839   9.357
 1691POPC   GL124013   1.214  21.888   9.037
 1691POPC   GL224014   1.092  22.198   9.179
 1691POPC   C1A24015   1.277  21.809   8.601
 1691POPC   D2A24016   1.326  22.018   8.218
 1691POPC   C3A24017   1.326  21.899   7.776
 1691POPC   C4A24018   1.426  22.184   7.439
 1691POPC   C1B24019   1.176  22.326   8.767
 1691POPC   C2B24020   0.954  22.335   8.394
 1691POPC   C3B24021   0.992  22.285   7.936
 1691POPC   C4B24022   0.920  22.292   7.470
 1692POPC   NC324023  11.708   6.951   9.475
 1692POPC   PO424024  12.031   7.491   9.641
 1692POPC   GL124025  12.297   7.624   9.289
 1692POPC   GL224026  12.045   7.533   9.071
 1692POPC   C1A24027  12.498   7.649   8.859
 1692POPC   D2A24028  12.642   7.668   8.427
 1692POPC   C3A24029  12.344   7.424   8.176
 1692POPC   C4A24030  12.043   7.279   7.859
 1692POPC   C1B24031  12.046   7.472   8.610
 1692POPC   C2B24032  11.789   7.542   8.202
 1692POPC   C3B24033  11.530   7.326   7.844
 1692POPC   C4B24034  11.515   7.183   7.391
 1693POPC   NC324035  20.116  23.757   9.406
 1693POPC   PO424036  20.721  23.489   9.596
 1693POPC   GL124037  20.644  23.630   9.193
 1693POPC   GL224038  20.739  23.307   9.099
 1693POPC   C1A24039  20.469  23.743   8.788
 1693POPC   D2A24040  20.502  23.969   8.419
 1693POPC   C3A24041  20.465  23.716   8.060
 1693POPC   C4A24042  20.616  23.704   7.646
 1693POPC   C1B24043  20.896  23.358   8.709
 1693POPC   C2B24044  20.904  23.606   8.370
 1693POPC   C3B24045  21.015  23.590   7.968
 1693POPC   C4B24046  20.925  23.266   7.697
 1694POPC   NC324047   8.494   1.976   9.532
 1694POPC   PO424048   7.826   1.898   9.510
 1694POPC   GL124049   8.093   1.972   9.135
 1694POPC   GL224050   8.297   2.247   9.152
 1694POPC   C1A24051   8.154   2.138   8.686
 1694POPC   D2A24052   8.181   1.888   8.330
 1694POPC   C3A24053   8.308   2.025   7.936
 1694POPC   C4A24054   8.022   1.813   7.701
 1694POPC   C1B24055   8.632   2.242   8.822
 1694POPC   C2B24056   8.640   2.090   8.394
 1694POPC   C3B24057   8.709   2.347   8.043
 1694POPC   C4B24058   8.612   2.364   7.630
 1695POPC   NC324059   9.058  30.766   9.495
 1695POPC   PO424060   9.420  30.249   9.304
 1695POPC   GL124061   9.164  30.539   9.053
 1695POPC   GL224062   8.770  30.601   9.124
 1695POPC   C1A24063   9.012  30.442   8.675
 1695POPC   D2A24064   9.022  30.745   8.334
 1695POPC   C3A24065   9.017  30.517   7.979
 1695POPC   C4A24066   9.188  30.519   7.599
 1695POPC   C1B24067   8.744  30.859   8.766
 1695POPC   C2B24068   8.549  30.944   8.369
 1695POPC   C3B24069   8.687  30.907   7.945
 1695POPC   C4B24070   9.135  30.991   7.823
 1696POPC   NC324071   2.166  37.986   9.465
 1696POPC   PO424072   2.011  37.385   9.447
 1696POPC   GL124073   1.953  37.677   9.120
 1696POPC   GL224074   1.679  37.937   9.214
 1696POPC   C1A24075   2.199  37.624   8.753
 1696POPC   D2A24076   2.121  37.395   8.371
 1696POPC   C3A24077   2.348  37.396   7.989
 1696POPC   C4A24078   2.088  37.709   7.759
 1696POPC   C1B24079   1.824  38.068   8.809
 1696POPC   C2B24080   1.921  37.878   8.409
 1696POPC   C3B24081   1.686  37.696   8.080
 1696POPC   C4B24082   1.631  37.936   7.707
 1697POPC   NC324083  16.726  23.427   9.708
 1697POPC   PO424084  17.099  23.979   9.506
 1697POPC   GL124085  16.882  23.893   9.131
 1697POPC   GL224086  16.702  23.577   9.213
 1697POPC   C1A24087  16.955  23.999   8.701
 1697POPC   D2A24088  16.772  23.843   8.311
 1697POPC   C3A24089  16.704  23.982   7.875
 1697POPC   C4A24090  16.620  23.983   7.413
 1697POPC   C1B24091  16.590  23.643   8.778
 1697POPC   C2B24092  16.503  23.425   8.406
 1697POPC   C3B24093  16.465  23.503   7.968
 1697POPC   C4B24094  16.701  23.426   7.611
 1698POPC   NC324095   9.609  36.397  10.173
 1698POPC   PO424096   9.958  36.430   9.749
 1698POPC   GL124097   9.911  36.242   9.275
 1698POPC   GL224098  10.045  35.932   9.060
 1698POPC   C1A24099   9.790  36.320   8.799
 1698POPC   D2A24100   9.958  36.494   8.357
 1698POPC   C3A24101   9.795  36.277   7.974
 1698POPC   C4A24102   9.356  36.138   7.892
 1698POPC   C1B24103  10.340  35.803   8.680
 1698POPC   C2B24104  10.456  35.708   8.247
 1698POPC   C3B24105  10.210  35.879   7.909
 1698POPC   C4B24106   9.749  35.792   7.818
 1699POPC   NC324107  32.643   4.923   9.552
 1699POPC   PO424108  33.308   5.070   9.631
 1699POPC   GL124109  33.046   4.960   9.214
 1699POPC   GL224110  32.973   5.277   9.068
 1699POPC   C1A24111  32.960   4.877   8.753
 1699POPC   D2A24112  33.176   4.887   8.341
 1699POPC   C3A24113  32.954   5.058   7.986
 1699POPC   C4A24114  32.968   5.178   7.561
 1699POPC   C1B24115  33.303   5.259   8.744
 1699POPC   C2B24116  33.577   5.187   8.403
 1699POPC   C3B24117  33.412   5.275   7.998
 1699POPC   C4B24118  33.412   5.425   7.517
 1700POPC   NC324119  29.852  15.926   9.526
 1700POPC   PO424120  30.321  16.306   9.413
 1700POPC   GL124121  30.073  16.061   9.085
 1700POPC   GL224122  30.153  15.705   9.143
 1700POPC   C1A24123  29.667  15.908   8.888
 1700POPC   D2A24124  29.616  15.886   8.424
 1700POPC   C3A24125  29.717  16.268   8.164
 1700POPC   C4A24126  29.884  16.222   7.741
 1700POPC   C1B24127  30.015  15.595   8.699
 1700POPC   C2B24128  29.966  15.537   8.263
 1700POPC   C3B24129  29.876  15.747   7.899
 1700POPC   C4B24130  29.834  15.799   7.436
 1701POPC   NC324131  21.905  15.708   9.530
 1701POPC   PO424132  22.545  15.830   9.432
 1701POPC   GL124133  22.203  15.812   9.133
 1701POPC   GL224134  21.958  16.091   9.188
 1701POPC   C1A24135  22.128  15.937   8.719
 1701POPC   D2A24136  22.072  15.746   8.344
 1701POPC   C3A24137  22.288  15.992   8.043
 1701POPC   C4A24138  22.503  15.915   7.674
 1701POPC   C1B24139  21.679  16.165   8.825
 1701POPC   C2B24140  21.726  16.148   8.400
 1701POPC   C3B24141  21.771  15.998   8.011
 1701POPC   C4B24142  21.985  16.138   7.640
 1702POPC   NC324143  21.754  12.734   9.508
 1702POPC   PO424144  21.075  12.687   9.536
 1702POPC   GL124145  21.317  12.911   9.173
 1702POPC   GL224146  21.644  13.101   9.134
 1702POPC   C1A24147  21.499  12.765   8.755
 1702POPC   D2A24148  21.350  12.651   8.315
 1702POPC   C3A24149  21.490  12.747   7.883
 1702POPC   C4A24150  21.354  12.701   7.439
 1702POPC   C1B24151  21.393  13.264   8.751
 1702POPC   C2B24152  21.414  13.174   8.281
 1702POPC   C3B24153  21.578  13.255   7.842
 1702POPC   C4B24154  21.726  13.011   7.461
 1703POPC   NC324155  21.730  26.840   9.494
 1703POPC   PO424156  21.032  27.013   9.382
 1703POPC   GL124157  21.263  26.783   9.068
 1703POPC   GL224158  21.393  26.519   9.268
 1703POPC   C1A24159  21.478  26.841   8.628
 1703POPC   D2A24160  21.182  26.859   8.257
 1703POPC   C3A24161  21.322  26.964   7.809
 1703POPC   C4A24162  21.137  26.999   7.373
 1703POPC   C1B24163  21.581  26.426   8.879
 1703POPC   C2B24164  21.402  26.369   8.465
 1703POPC   C3B24165  21.576  26.593   8.107
 1703POPC   C4B24166  21.545  26.492   7.687
 1704POPC   NC324167  37.980  42.630   9.779
 1704POPC   PO424168  37.494  42.241   9.544
 1704POPC   GL124169  37.701  42.182   9.121
 1704POPC   GL224170  37.805  41.855   9.084
 1704POPC   C1A24171  37.759  42.292   8.656
 1704POPC   D2A24172  37.723  42.673   8.374
 1704POPC   C3A24173  37.763  42.610   7.956
 1704POPC   C4A24174  38.003  42.339   7.658
 1704POPC   C1B24175  37.468  41.838   8.781
 1704POPC   C2B24176  37.417  41.994   8.409
 1704POPC   C3B24177  37.722  42.115   8.128
 1704POPC   C4B24178  37.647  41.961   7.741
 1705POPC   NC324179  17.462  18.608   9.442
 1705POPC   PO424180  17.749  17.957   9.549
 1705POPC   GL124181  17.514  18.192   9.184
 1705POPC   GL224182  17.761  18.469   9.064
 1705POPC   C1A24183  17.395  18.355   8.746
 1705POPC   D2A24184  17.420  18.165   8.361
 1705POPC   C3A24185  17.489  18.490   8.055
 1705POPC   C4A24186  17.204  18.592   7.718
 1705POPC   C1B24187  17.833  18.124   8.788
 1705POPC   C2B24188  17.978  18.066   8.374
 1705POPC   C3B24189  17.737  18.011   7.991
 1705POPC   C4B24190  17.324  18.099   7.778
 1706POPC   NC324191  44.825  26.775   9.492
 1706POPC   PO424192  44.383  27.318   9.507
 1706POPC   GL124193  44.445  26.990   9.163
 1706POPC   GL224194  44.743  26.777   9.010
 1706POPC   C1A24195  44.347  26.853   8.736
 1706POPC   D2A24196  44.615  26.903   8.401
 1706POPC   C3A24197  44.425  26.918   8.015
 1706POPC   C4A24198  44.483  26.601   7.668
 1706POPC   C1B24199   0.058  26.835   8.713
 1706POPC   C2B24200   0.105  26.742   8.342
 1706POPC   C3B24201   0.126  26.659   7.958
 1706POPC   C4B24202  44.892  26.888   7.795
 1707POPC   NC324203  11.820  25.864   9.586
 1707POPC   PO424204  12.274  26.348   9.392
 1707POPC   GL124205  12.110  26.008   9.169
 1707POPC   GL224206  11.861  25.742   9.105
 1707POPC   C1A24207  12.248  25.983   8.782
 1707POPC   D2A24208  12.139  26.195   8.439
 1707POPC   C3A24209  12.151  25.984   8.038
 1707POPC   C4A24210  12.105  25.961   7.607
 1707POPC   C1B24211  11.723  25.854   8.705
 1707POPC   C2B24212  11.682  25.993   8.281
 1707POPC   C3B24213  11.720  25.729   7.912
 1707POPC   C4B24214  11.619  25.764   7.484
 1708POPC   NC324215  36.896  31.271   9.578
 1708POPC   PO424216  36.560  31.629   9.148
 1708POPC   GL124217  36.782  31.291   9.019
 1708POPC   GL224218  37.111  31.243   9.119
 1708POPC   C1A24219  36.922  31.450   8.623
 1708POPC   D2A24220  36.984  31.814   8.344
 1708POPC   C3A24221  37.036  31.593   7.965
 1708POPC   C4A24222  36.727  31.281   7.834
 1708POPC   C1B24223  37.256  31.087   8.749
 1708POPC   C2B24224  37.087  31.063   8.336
 1708POPC   C3B24225  37.237  31.125   7.931
 1708POPC   C4B24226  37.133  31.341   7.518
 1709POPC   NC324227  35.321  14.852   9.481
 1709POPC   PO424228  35.576  14.182   9.644
 1709POPC   GL124229  35.469  14.378   9.270
 1709POPC   GL224230  35.139  14.252   9.254
 1709POPC   C1A24231  35.491  14.436   8.813
 1709POPC   D2A24232  35.691  14.267   8.424
 1709POPC   C3A24233  35.680  14.495   8.041
 1709POPC   C4A24234  35.395  14.526   7.664
 1709POPC   C1B24235  35.087  14.086   8.830
 1709POPC   C2B24236  35.175  14.252   8.415
 1709POPC   C3B24237  35.342  14.145   8.023
 1709POPC   C4B24238  35.564  14.038   7.644
 1710POPC   NC324239  40.890  12.310   9.537
 1710POPC   PO424240  40.540  11.693   9.697
 1710POPC   GL124241  40.688  11.741   9.268
 1710POPC   GL224242  40.863  12.050   9.083
 1710POPC   C1A24243  40.674  11.672   8.812
 1710POPC   D2A24244  40.475  11.879   8.458
 1710POPC   C3A24245  40.731  11.796   8.102
 1710POPC   C4A24246  40.690  11.914   7.683
 1710POPC   C1B24247  40.941  12.477   8.863
 1710POPC   C2B24248  40.963  12.585   8.403
 1710POPC   C3B24249  40.816  12.424   7.997
 1710POPC   C4B24250  40.876  12.370   7.554
 1711POPC   NC324251  41.618  31.834   9.565
 1711POPC   PO424252  41.154  32.217   9.527
 1711POPC   GL124253  41.464  32.125   9.163
 1711POPC   GL224254  41.791  31.911   9.101
 1711POPC   C1A24255  41.648  32.347   8.814
 1711POPC   D2A24256  41.415  32.425   8.448
 1711POPC   C3A24257  41.623  32.440   8.067
 1711POPC   C4A24258  41.579  32.555   7.680
 1711POPC   C1B24259  41.809  31.888   8.658
 1711POPC   C2B24260  41.588  31.964   8.272
 1711POPC   C3B24261  41.799  31.979   7.864
 1711POPC   C4B24262  41.973  31.852   7.425
 1712POPC   NC324263  11.159  27.985   9.845
 1712POPC   PO424264  11.525  28.459   9.611
 1712POPC   GL124265  11.307  28.375   9.252
 1712POPC   GL224266  11.402  28.077   9.196
 1712POPC   C1A24267  11.224  28.543   8.842
 1712POPC   D2A24268  10.918  28.486   8.506
 1712POPC   C3A24269  11.114  28.599   8.099
 1712POPC   C4A24270  11.335  28.456   7.726
 1712POPC   C1B24271  11.170  28.043   8.783
 1712POPC   C2B24272  11.228  28.122   8.337
 1712POPC   C3B24273  11.199  27.977   7.914
 1712POPC   C4B24274  11.521  27.975   7.635
 1713POPC   NC324275   2.035   5.647   9.694
 1713POPC   PO424276   1.742   6.195   9.476
 1713POPC   GL124277   1.917   5.949   9.188
 1713POPC   GL224278   2.129   5.663   9.197
 1713POPC   C1A24279   2.117   6.054   8.822
 1713POPC   D2A24280   1.948   6.113   8.424
 1713POPC   C3A24281   2.109   6.007   8.049
 1713POPC   C4A24282   1.902   5.784   7.820
 1713POPC   C1B24283   2.049   5.541   8.781
 1713POPC   C2B24284   2.019   5.598   8.345
 1713POPC   C3B24285   2.301   5.535   7.992
 1713POPC   C4B24286   2.237   5.545   7.525
 1714POPC   NC324287   9.330  27.582   9.583
 1714POPC   PO424288   8.698  27.788   9.762
 1714POPC   GL124289   8.983  27.853   9.299
 1714POPC   GL224290   9.065  27.538   9.155
 1714POPC   C1A24291   8.911  27.855   8.784
 1714POPC   D2A24292   8.960  27.772   8.322
 1714POPC   C3A24293   8.674  27.569   7.977
 1714POPC   C4A24294   8.851  27.403   7.547
 1714POPC   C1B24295   9.394  27.765   8.943
 1714POPC   C2B24296   9.464  27.937   8.556
 1714POPC   C3B24297   9.473  27.840   8.128
 1714POPC   C4B24298   9.152  27.694   7.855
 1715POPC   NC324299  19.657   5.241   9.561
 1715POPC   PO424300  20.202   4.982   9.534
 1715POPC   GL124301  20.038   4.988   9.120
 1715POPC   GL224302  19.920   5.309   9.124
 1715POPC   C1A24303  20.019   4.907   8.659
 1715POPC   D2A24304  20.221   5.021   8.261
 1715POPC   C3A24305  19.915   4.983   7.983
 1715POPC   C4A24306  19.521   4.938   7.779
 1715POPC   C1B24307  20.189   5.365   8.804
 1715POPC   C2B24308  19.988   5.424   8.452
 1715POPC   C3B24309  20.029   5.496   8.063
 1715POPC   C4B24310  19.677   5.434   7.874
 1716POPC   NC324311  33.792  35.108   9.532
 1716POPC   PO424312  33.625  35.716   9.585
 1716POPC   GL124313  33.821  35.516   9.173
 1716POPC   GL224314  33.827  35.132   9.037
 1716POPC   C1A24315  33.670  35.501   8.730
 1716POPC   D2A24316  33.753  35.184   8.380
 1716POPC   C3A24317  33.906  35.287   7.947
 1716POPC   C4A24318  33.917  35.465   7.543
 1716POPC   C1B24319  34.137  35.289   8.725
 1716POPC   C2B24320  34.281  35.203   8.322
 1716POPC   C3B24321  34.254  34.913   7.991
 1716POPC   C4B24322  34.179  35.016   7.551
 1717POPC   NC324323   2.810  32.860   9.270
 1717POPC   PO424324   3.091  33.444   9.502
 1717POPC   GL124325   2.803  33.362   9.121
 1717POPC   GL224326   2.450  33.237   9.107
 1717POPC   C1A24327   2.710  33.256   8.683
 1717POPC   D2A24328   2.533  33.225   8.309
 1717POPC   C3A24329   2.835  32.963   8.210
 1717POPC   C4A24330   2.984  32.885   7.848
 1717POPC   C1B24331   2.321  32.929   8.769
 1717POPC   C2B24332   2.399  32.729   8.385
 1717POPC   C3B24333   2.424  32.831   7.936
 1717POPC   C4B24334   2.440  33.235   7.740
 1718POPC   NC324335  33.616  41.037   9.457
 1718POPC   PO424336  33.465  40.347   9.446
 1718POPC   GL124337  33.548  40.647   9.116
 1718POPC   GL224338  33.402  40.978   9.012
 1718POPC   C1A24339  33.852  40.688   8.798
 1718POPC   D2A24340  33.968  40.699   8.354
 1718POPC   C3A24341  33.823  40.667   7.938
 1718POPC   C4A24342  33.728  40.715   7.483
 1718POPC   C1B24343  33.582  41.061   8.615
 1718POPC   C2B24344  33.485  40.876   8.248
 1718POPC   C3B24345  33.467  41.012   7.824
 1718POPC   C4B24346  33.551  41.201   7.398
 1719POPC   NC324347  26.775  24.814   9.491
 1719POPC   PO424348  27.018  25.535   9.507
 1719POPC   GL124349  26.952  25.254   9.205
 1719POPC   GL224350  26.617  25.207   9.189
 1719POPC   C1A24351  26.923  25.294   8.764
 1719POPC   D2A24352  26.806  25.066   8.408
 1719POPC   C3A24353  26.918  25.234   8.026
 1719POPC   C4A24354  26.717  25.548   7.821
 1719POPC   C1B24355  26.541  24.940   8.851
 1719POPC   C2B24356  26.287  24.917   8.494
 1719POPC   C3B24357  26.391  25.048   8.116
 1719POPC   C4B24358  26.552  25.037   7.743
 1720POPC   NC324359  12.736  18.808   9.495
 1720POPC   PO424360  12.711  19.441   9.677
 1720POPC   GL124361  12.732  19.241   9.225
 1720POPC   GL224362  12.466  18.994   9.110
 1720POPC   C1A24363  13.004  19.067   8.826
 1720POPC   D2A24364  13.211  19.213   8.454
 1720POPC   C3A24365  12.979  19.207   8.067
 1720POPC   C4A24366  12.896  18.987   7.659
 1720POPC   C1B24367  12.596  18.756   8.781
 1720POPC   C2B24368  12.756  18.880   8.396
 1720POPC   C3B24369  12.838  18.631   8.032
 1720POPC   C4B24370  12.615  18.584   7.669
 1721POPC   NC324371   0.987   9.146   9.906
 1721POPC   PO424372   1.420   8.715   9.606
 1721POPC   GL124373   1.307   8.672   9.141
 1721POPC   GL224374   1.185   8.978   9.145
 1721POPC   C1A24375   1.329   8.917   8.675
 1721POPC   D2A24376   1.411   9.207   8.318
 1721POPC   C3A24377   1.439   8.945   7.956
 1721POPC   C4A24378   1.138   8.683   7.750
 1721POPC   C1B24379   0.857   8.841   8.842
 1721POPC   C2B24380   0.652   8.824   8.438
 1721POPC   C3B24381   0.803   8.930   8.035
 1721POPC   C4B24382   0.941   9.222   7.732
 1722POPC   NC324383   1.681  15.980   9.571
 1722POPC   PO424384   2.264  15.589   9.658
 1722POPC   GL124385   2.159  15.797   9.264
 1722POPC   GL224386   2.089  16.145   9.254
 1722POPC   C1A24387   2.260  15.894   8.830
 1722POPC   D2A24388   2.200  16.092   8.414
 1722POPC   C3A24389   2.281  15.792   8.064
 1722POPC   C4A24390   2.536  15.763   7.666
 1722POPC   C1B24391   2.046  16.375   8.855
 1722POPC   C2B24392   1.845  16.492   8.459
 1722POPC   C3B24393   1.804  16.320   8.042
 1722POPC   C4B24394   2.055  16.065   7.702
 1723POPC   NC324395  12.557  41.624   9.582
 1723POPC   PO424396  13.228  41.303   9.475
 1723POPC   GL124397  13.005  41.378   9.109
 1723POPC   GL224398  12.737  41.565   9.121
 1723POPC   C1A24399  13.067  41.534   8.721
 1723POPC   D2A24400  12.826  41.487   8.380
 1723POPC   C3A24401  13.000  41.633   8.013
 1723POPC   C4A24402  13.200  41.891   7.689
 1723POPC   C1B24403  12.600  41.765   8.777
 1723POPC   C2B24404  12.644  41.965   8.409
 1723POPC   C3B24405  12.543  41.930   7.989
 1723POPC   C4B24406  12.618  41.661   7.664
 1724POPC   NC324407   9.660  23.287   9.512
 1724POPC   PO424408   9.736  23.959   9.535
 1724POPC   GL124409   9.651  23.736   9.152
 1724POPC   GL224410   9.400  23.479   9.136
 1724POPC   C1A24411   9.835  23.716   8.727
 1724POPC   D2A24412   9.977  23.977   8.347
 1724POPC   C3A24413   9.800  23.830   7.943
 1724POPC   C4A24414   9.553  24.001   7.593
 1724POPC   C1B24415   9.462  23.305   8.757
 1724POPC   C2B24416   9.618  23.429   8.361
 1724POPC   C3B24417   9.441  23.441   7.983
 1724POPC   C4B24418   9.607  23.499   7.593
 1725POPC   NC324419  16.039  11.505   9.628
 1725POPC   PO424420  15.583  11.057   9.591
 1725POPC   GL124421  15.865  11.258   9.218
 1725POPC   GL224422  16.216  11.108   9.172
 1725POPC   C1A24423  16.143  11.527   8.878
 1725POPC   D2A24424  16.133  11.476   8.431
 1725POPC   C3A24425  16.283  11.494   8.005
 1725POPC   C4A24426  15.967  11.669   7.744
 1725POPC   C1B24427  15.989  11.077   8.752
 1725POPC   C2B24428  16.084  10.963   8.342
 1725POPC   C3B24429  15.893  11.025   7.955
 1725POPC   C4B24430  15.936  11.195   7.552
 1726POPC   NC324431  39.060  31.178   9.529
 1726POPC   PO424432  39.503  31.556   9.758
 1726POPC   GL124433  39.159  31.569   9.223
 1726POPC   GL224434  39.455  31.625   8.940
 1726POPC   C1A24435  39.027  31.501   8.734
 1726POPC   D2A24436  39.266  31.550   8.333
 1726POPC   C3A24437  39.194  31.585   7.884
 1726POPC   C4A24438  39.010  31.961   7.664
 1726POPC   C1B24439  39.468  31.215   8.702
 1726POPC   C2B24440  39.330  31.046   8.353
 1726POPC   C3B24441  39.513  31.199   8.009
 1726POPC   C4B24442  39.410  31.197   7.591
 1727POPC   NC324443  25.969  37.384   9.521
 1727POPC   PO424444  26.556  37.700   9.537
 1727POPC   GL124445  26.216  37.697   9.193
 1727POPC   GL224446  26.021  37.407   9.025
 1727POPC   C1A24447  25.937  37.876   8.884
 1727POPC   D2A24448  25.878  37.691   8.488
 1727POPC   C3A24449  26.009  37.889   8.110
 1727POPC   C4A24450  25.748  37.818   7.782
 1727POPC   C1B24451  26.293  37.401   8.725
 1727POPC   C2B24452  26.300  37.503   8.320
 1727POPC   C3B24453  26.012  37.403   7.987
 1727POPC   C4B24454  26.097  37.495   7.574
 1728POPC   NC324455  20.407   2.393   9.542
 1728POPC   PO424456  20.741   1.797   9.609
 1728POPC   GL124457  20.574   2.005   9.256
 1728POPC   GL224458  20.515   1.736   9.129
 1728POPC   C1A24459  20.764   2.055   8.827
 1728POPC   D2A24460  20.837   1.886   8.422
 1728POPC   C3A24461  20.625   2.154   8.155
 1728POPC   C4A24462  20.619   2.117   7.708
 1728POPC   C1B24463  20.586   1.559   8.734
 1728POPC   C2B24464  20.397   1.604   8.363
 1728POPC   C3B24465  20.592   1.665   7.992
 1728POPC   C4B24466  20.361   1.620   7.667
 1729POPC   NC324467  10.117  10.417   9.312
 1729POPC   PO424468   9.759  10.785   9.784
 1729POPC   GL124469   9.755  10.808   9.306
 1729POPC   GL224470   9.951  11.080   9.166
 1729POPC   C1A24471   9.554  10.639   8.904
 1729POPC   D2A24472   9.629  10.639   8.451
 1729POPC   C3A24473   9.572  10.357   8.107
 1729POPC   C4A24474   9.759  10.352   7.706
 1729POPC   C1B24475   9.981  10.906   8.755
 1729POPC   C2B24476   9.889  11.042   8.340
 1729POPC   C3B24477   9.890  10.781   7.962
 1729POPC   C4B24478   9.820  10.804   7.483
 1730POPC   NC324479   2.389  40.326   9.588
 1730POPC   PO424480   2.957  39.970   9.593
 1730POPC   GL124481   2.631  39.961   9.253
 1730POPC   GL224482   2.747  39.632   9.151
 1730POPC   C1A24483   2.585  39.961   8.805
 1730POPC   D2A24484   2.767  40.270   8.525
 1730POPC   C3A24485   2.713  40.229   8.081
 1730POPC   C4A24486   2.964  40.284   7.710
 1730POPC   C1B24487   3.025  39.735   8.804
 1730POPC   C2B24488   2.903  39.761   8.372
 1730POPC   C3B24489   2.798  39.744   7.942
 1730POPC   C4B24490   2.469  39.702   7.666
 1731POPC   NC324491  18.319  12.947   9.392
 1731POPC   PO424492  17.826  12.488   9.361
 1731POPC   GL124493  18.147  12.552   9.043
 1731POPC   GL224494  18.484  12.723   8.995
 1731POPC   C1A24495  18.170  12.715   8.617
 1731POPC   D2A24496  17.990  13.061   8.376
 1731POPC   C3A24497  18.138  13.010   7.959
 1731POPC   C4A24498  18.341  12.654   7.751
 1731POPC   C1B24499  18.624  12.982   8.704
 1731POPC   C2B24500  18.569  12.829   8.315
 1731POPC   C3B24501  18.676  13.032   7.980
 1731POPC   C4B24502  18.540  13.104   7.622
 1732POPC   NC324503  34.252  32.239   9.523
 1732POPC   PO424504  33.560  32.116   9.571
 1732POPC   GL124505  33.815  32.160   9.193
 1732POPC   GL224506  34.131  31.957   9.119
 1732POPC   C1A24507  33.697  32.191   8.766
 1732POPC   D2A24508  33.853  32.187   8.351
 1732POPC   C3A24509  33.804  32.008   7.966
 1732POPC   C4A24510  33.829  32.351   7.685
 1732POPC   C1B24511  34.171  31.917   8.670
 1732POPC   C2B24512  34.282  31.934   8.223
 1732POPC   C3B24513  34.268  31.988   7.759
 1732POPC   C4B24514  34.035  32.051   7.340
 1733POPC   NC324515  27.981  23.977   9.486
 1733POPC   PO424516  28.252  23.489   9.731
 1733POPC   GL124517  28.371  23.454   9.285
 1733POPC   GL224518  28.091  23.605   9.126
 1733POPC   C1A24519  28.454  23.410   8.810
 1733POPC   D2A24520  28.560  23.654   8.434
 1733POPC   C3A24521  28.320  23.492   8.110
 1733POPC   C4A24522  28.363  23.501   7.677
 1733POPC   C1B24523  28.234  23.895   8.780
 1733POPC   C2B24524  28.144  23.964   8.321
 1733POPC   C3B24525  28.140  23.907   7.878
 1733POPC   C4B24526  28.290  24.058   7.485
 1734POPC   NC324527  38.888  27.726   9.506
 1734POPC   PO424528  38.235  27.554   9.350
 1734POPC   GL124529  38.359  27.718   9.013
 1734POPC   GL224530  38.732  27.742   9.015
 1734POPC   C1A24531  38.403  27.625   8.590
 1734POPC   D2A24532  38.556  27.920   8.338
 1734POPC   C3A24533  38.395  27.978   7.983
 1734POPC   C4A24534  38.325  27.637   7.740
 1734POPC   C1B24535  38.667  27.292   8.889
 1734POPC   C2B24536  38.637  27.170   8.457
 1734POPC   C3B24537  38.706  27.465   8.123
 1734POPC   C4B24538  38.826  27.536   7.722
 1735POPC   NC324539   5.403  43.947   9.514
 1735POPC   PO424540   6.087  43.785   9.498
 1735POPC   GL124541   6.010  43.931   9.115
 1735POPC   GL224542   5.669  43.957   9.096
 1735POPC   C1A24543   5.951  44.141   8.725
 1735POPC   D2A24544   6.165  44.321   8.412
 1735POPC   C3A24545   6.062  44.073   8.082
 1735POPC   C4A24546   5.957  43.961   7.684
 1735POPC   C1B24547   5.790  43.664   8.774
 1735POPC   C2B24548   5.696  43.824   8.375
 1735POPC   C3B24549   5.807  43.627   8.038
 1735POPC   C4B24550   5.921  43.458   7.678
 1736POPC   NC324551  24.282  27.110   9.720
 1736POPC   PO424552  24.839  26.722   9.542
 1736POPC   GL124553  24.528  26.877   9.208
 1736POPC   GL224554  24.597  27.211   9.167
 1736POPC   C1A24555  24.382  26.878   8.728
 1736POPC   D2A24556  24.387  26.661   8.308
 1736POPC   C3A24557  24.238  26.867   7.928
 1736POPC   C4A24558  24.342  26.740   7.505
 1736POPC   C1B24559  24.869  27.032   8.829
 1736POPC   C2B24560  24.780  27.013   8.355
 1736POPC   C3B24561  24.754  26.787   7.942
 1736POPC   C4B24562  25.025  26.858   7.574
 1737POPC   NC324563  19.609   4.242   9.537
 1737POPC   PO424564  20.264   4.338   9.467
 1737POPC   GL124565  19.927   4.413   9.165
 1737POPC   GL224566  19.709   4.076   9.072
 1737POPC   C1A24567  19.742   4.486   8.768
 1737POPC   D2A24568  19.432   4.598   8.491
 1737POPC   C3A24569  19.617   4.535   8.082
 1737POPC   C4A24570  19.882   4.564   7.720
 1737POPC   C1B24571  20.077   4.084   8.804
 1737POPC   C2B24572  20.204   3.996   8.396
 1737POPC   C3B24573  20.103   4.155   7.975
 1737POPC   C4B24574  19.725   4.095   7.749
 1738POPC   NC324575   0.061   7.130   9.430
 1738POPC   PO424576  44.566   7.690   9.510
 1738POPC   GL124577  44.723   7.528   9.107
 1738POPC   GL224578  44.599   7.195   9.228
 1738POPC   C1A24579  44.995   7.537   8.675
 1738POPC   D2A24580   0.109   7.481   8.225
 1738POPC   C3A24581  44.761   7.443   7.926
 1738POPC   C4A24582  44.454   7.521   7.615
 1738POPC   C1B24583  44.816   7.095   8.840
 1738POPC   C2B24584  44.714   7.171   8.424
 1738POPC   C3B24585  44.915   6.999   8.084
 1738POPC   C4B24586  44.755   6.939   7.708
 1739POPC   NC324587   0.903   1.733   9.592
 1739POPC   PO424588   1.200   2.377   9.497
 1739POPC   GL124589   1.183   2.308   9.054
 1739POPC   GL224590   1.167   1.960   9.060
 1739POPC   C1A24591   1.260   2.301   8.661
 1739POPC   D2A24592   1.131   2.103   8.322
 1739POPC   C3A24593   1.345   2.299   8.019
 1739POPC   C4A24594   1.532   2.208   7.620
 1739POPC   C1B24595   1.067   1.656   8.756
 1739POPC   C2B24596   0.933   1.633   8.329
 1739POPC   C3B24597   1.037   1.744   7.935
 1739POPC   C4B24598   1.134   1.580   7.549
 1740POPC   NC324599  18.172  37.982   9.628
 1740POPC   PO424600  17.975  37.427   9.491
 1740POPC   GL124601  18.214  37.674   9.162
 1740POPC   GL224602  18.301  38.050   9.148
 1740POPC   C1A24603  18.312  37.487   8.791
 1740POPC   D2A24604  18.559  37.547   8.460
 1740POPC   C3A24605  18.327  37.473   8.115
 1740POPC   C4A24606  18.362  37.677   7.727
 1740POPC   C1B24607  18.410  37.980   8.748
 1740POPC   C2B24608  18.117  37.840   8.432
 1740POPC   C3B24609  18.076  37.968   8.013
 1740POPC   C4B24610  18.360  38.205   7.713
 1741POPC   NC324611  21.915  13.360   9.528
 1741POPC   PO424612  22.415  13.743   9.528
 1741POPC   GL124613  22.071  13.747   9.237
 1741POPC   GL224614  22.284  13.734   8.993
 1741POPC   C1A24615  21.836  13.522   8.883
 1741POPC   D2A24616  21.886  13.270   8.518
 1741POPC   C3A24617  21.972  13.473   8.104
 1741POPC   C4A24618  21.938  13.702   7.684
 1741POPC   C1B24619  22.212  13.701   8.562
 1741POPC   C2B24620  22.335  13.822   8.161
 1741POPC   C3B24621  22.416  13.591   7.797
 1741POPC   C4B24622  22.322  13.683   7.348
 1742POPC   NC324623  27.354   4.126   9.559
 1742POPC   PO424624  27.823   4.652   9.484
 1742POPC   GL124625  27.597   4.429   9.205
 1742POPC   GL224626  27.785   4.121   9.255
 1742POPC   C1A24627  27.609   4.371   8.771
 1742POPC   D2A24628  27.525   4.329   8.359
 1742POPC   C3A24629  27.815   4.524   8.066
 1742POPC   C4A24630  27.603   4.350   7.734
 1742POPC   C1B24631  27.824   3.914   8.884
 1742POPC   C2B24632  27.759   3.865   8.470
 1742POPC   C3B24633  27.770   3.991   8.071
 1742POPC   C4B24634  28.066   4.142   7.831
 1743POPC   NC324635  15.369  11.482   9.570
 1743POPC   PO424636  14.721  11.678   9.446
 1743POPC   GL124637  15.035  11.479   9.190
 1743POPC   GL224638  15.340  11.633   9.072
 1743POPC   C1A24639  15.090  11.223   8.815
 1743POPC   D2A24640  15.170  11.377   8.429
 1743POPC   C3A24641  14.950  11.209   8.113
 1743POPC   C4A24642  15.011  11.420   7.757
 1743POPC   C1B24643  15.580  11.374   8.799
 1743POPC   C2B24644  15.656  11.237   8.375
 1743POPC   C3B24645  15.489  11.362   7.978
 1743POPC   C4B24646  15.419  11.229   7.529
 1744POPC   NC324647  38.892  23.973   9.638
 1744POPC   PO424648  39.584  23.748   9.461
 1744POPC   GL124649  39.376  23.860   9.114
 1744POPC   GL224650  39.085  24.038   9.165
 1744POPC   C1A24651  39.332  23.609   8.710
 1744POPC   D2A24652  39.226  23.400   8.312
 1744POPC   C3A24653  39.382  23.622   7.969
 1744POPC   C4A24654  39.619  23.509   7.631
 1744POPC   C1B24655  39.179  24.106   8.719
 1744POPC   C2B24656  39.177  23.933   8.312
 1744POPC   C3B24657  39.015  24.054   7.912
 1744POPC   C4B24658  38.922  24.341   7.557
 1745POPC   NC324659   0.088   8.900   9.543
 1745POPC   PO424660   0.781   8.908   9.496
 1745POPC   GL124661   0.488   9.060   9.160
 1745POPC   GL224662   0.153   9.218   9.135
 1745POPC   C1A24663   0.458   9.241   8.727
 1745POPC   D2A24664   0.203   9.168   8.352
 1745POPC   C3A24665   0.393   9.252   7.951
 1745POPC   C4A24666   0.439   8.898   7.680
 1745POPC   C1B24667   0.132   8.816   8.887
 1745POPC   C2B24668   0.147   8.660   8.490
 1745POPC   C3B24669   0.212   8.614   8.057
 1745POPC   C4B24670  44.963   8.719   7.678
 1746POPC   NC324671   8.715  21.851   9.834
 1746POPC   PO424672   8.103  21.902   9.472
 1746POPC   GL124673   8.217  22.075   9.115
 1746POPC   GL224674   8.255  22.419   9.177
 1746POPC   C1A24675   8.404  22.087   8.715
 1746POPC   D2A24676   8.247  21.916   8.339
 1746POPC   C3A24677   8.530  21.967   8.019
 1746POPC   C4A24678   8.254  21.967   7.700
 1746POPC   C1B24679   7.972  22.400   8.816
 1746POPC   C2B24680   8.164  22.463   8.438
 1746POPC   C3B24681   8.266  22.388   8.028
 1746POPC   C4B24682   8.064  22.544   7.691
 1747POPC   NC324683  32.073  31.577   9.481
 1747POPC   PO424684  32.642  31.432   9.748
 1747POPC   GL124685  32.538  31.465   9.290
 1747POPC   GL224686  32.501  31.801   9.208
 1747POPC   C1A24687  32.376  31.333   8.865
 1747POPC   D2A24688  32.147  31.279   8.469
 1747POPC   C3A24689  32.230  31.443   8.071
 1747POPC   C4A24690  32.043  31.423   7.708
 1747POPC   C1B24691  32.375  31.844   8.777
 1747POPC   C2B24692  32.478  31.722   8.397
 1747POPC   C3B24693  32.582  31.876   8.000
 1747POPC   C4B24694  32.358  31.829   7.641
 1748POPC   NC324695  36.203  39.799   9.616
 1748POPC   PO424696  35.798  40.315   9.399
 1748POPC   GL124697  36.061  40.074   9.169
 1748POPC   GL224698  36.351  40.276   9.033
 1748POPC   C1A24699  36.025  40.076   8.729
 1748POPC   D2A24700  35.866  40.251   8.386
 1748POPC   C3A24701  35.913  39.892   8.127
 1748POPC   C4A24702  36.085  39.996   7.741
 1748POPC   C1B24703  36.431  39.819   8.911
 1748POPC   C2B24704  36.447  39.675   8.458
 1748POPC   C3B24705  36.467  39.877   8.038
 1748POPC   C4B24706  36.521  39.847   7.543
 1749POPC   NC324707  38.033  11.641   9.361
 1749POPC   PO424708  37.442  11.483   9.749
 1749POPC   GL124709  37.565  11.330   9.278
 1749POPC   GL224710  37.568  11.588   9.152
 1749POPC   C1A24711  37.813  11.228   8.847
 1749POPC   D2A24712  38.006  11.386   8.464
 1749POPC   C3A24713  37.757  11.413   8.098
 1749POPC   C4A24714  37.710  11.230   7.694
 1749POPC   C1B24715  37.603  11.669   8.696
 1749POPC   C2B24716  37.317  11.572   8.371
 1749POPC   C3B24717  37.290  11.694   7.972
 1749POPC   C4B24718  37.620  11.755   7.721
 1750POPC   NC324719  28.854  42.812   9.840
 1750POPC   PO424720  28.958  43.409   9.654
 1750POPC   GL124721  29.042  43.100   9.330
 1750POPC   GL224722  28.939  43.328   9.094
 1750POPC   C1A24723  29.354  42.994   8.968
 1750POPC   D2A24724  29.500  42.958   8.521
 1750POPC   C3A24725  29.364  43.248   8.181
 1750POPC   C4A24726  29.272  43.155   7.749
 1750POPC   C1B24727  28.862  43.015   8.778
 1750POPC   C2B24728  28.970  42.920   8.365
 1750POPC   C3B24729  28.859  43.135   8.015
 1750POPC   C4B24730  28.797  43.299   7.634
 1751POPC   NC324731  31.618  25.044   9.512
 1751POPC   PO424732  31.798  25.694   9.437
 1751POPC   GL124733  31.500  25.411   9.159
 1751POPC   GL224734  31.332  25.059   9.073
 1751POPC   C1A24735  31.698  25.253   8.794
 1751POPC   D2A24736  31.798  25.368   8.413
 1751POPC   C3A24737  31.782  25.051   8.131
 1751POPC   C4A24738  31.533  25.099   7.794
 1751POPC   C1B24739  31.178  25.334   8.739
 1751POPC   C2B24740  31.289  25.458   8.304
 1751POPC   C3B24741  31.126  25.385   7.895
 1751POPC   C4B24742  31.136  25.199   7.470
 1752POPC   NC324743  13.302  39.308   9.531
 1752POPC   PO424744  13.840  39.720   9.529
 1752POPC   GL124745  13.736  39.405   9.162
 1752POPC   GL224746  13.536  39.083   9.145
 1752POPC   C1A24747  13.771  39.272   8.708
 1752POPC   D2A24748  13.937  39.393   8.282
 1752POPC   C3A24749  13.818  39.259   7.836
 1752POPC   C4A24750  13.796  39.343   7.372
 1752POPC   C1B24751  13.275  39.153   8.789
 1752POPC   C2B24752  13.244  39.177   8.351
 1752POPC   C3B24753  13.234  39.034   7.921
 1752POPC   C4B24754  13.344  39.300   7.587
 1753POPC   NC324755  33.428  13.684   9.536
 1753POPC   PO424756  32.710  13.870   9.429
 1753POPC   GL124757  32.845  13.644   9.084
 1753POPC   GL224758  33.210  13.662   9.068
 1753POPC   C1A24759  32.875  13.720   8.667
 1753POPC   D2A24760  32.948  13.476   8.329
 1753POPC   C3A24761  32.834  13.743   8.003
 1753POPC   C4A24762  32.860  13.409   7.700
 1753POPC   C1B24763  33.355  13.898   8.696
 1753POPC   C2B24764  33.323  13.807   8.295
 1753POPC   C3B24765  33.311  13.595   7.950
 1753POPC   C4B24766  33.221  13.757   7.579
 1754POPC   NC324767  30.644  42.505   9.550
 1754POPC   PO424768  30.531  41.848   9.428
 1754POPC   GL124769  30.462  42.182   9.187
 1754POPC   GL224770  30.817  42.247   9.162
 1754POPC   C1A24771  30.556  42.275   8.748
 1754POPC   D2A24772  30.665  42.232   8.334
 1754POPC   C3A24773  30.575  42.637   8.108
 1754POPC   C4A24774  30.425  42.702   7.677
 1754POPC   C1B24775  30.968  42.568   8.899
 1754POPC   C2B24776  31.093  42.493   8.493
 1754POPC   C3B24777  31.054  42.442   8.080
 1754POPC   C4B24778  30.921  42.619   7.704
 1755POPC   NC324779   5.247  44.619   9.348
 1755POPC   PO424780   4.630  44.839   9.409
 1755POPC   GL124781   4.799  44.558   9.078
 1755POPC   GL224782   5.118  44.381   8.931
 1755POPC   C1A24783   4.670  44.469   8.693
 1755POPC   D2A24784   4.943  44.500   8.360
 1755POPC   C3A24785   5.029  44.888   8.124
 1755POPC   C4A24786   4.790  44.605   7.877
 1755POPC   C1B24787   5.315  44.679   8.652
 1755POPC   C2B24788   5.445  44.580   8.226
 1755POPC   C3B24789   5.297  44.561   7.792
 1755POPC   C4B24790   5.416  44.723   7.393
 1756POPC   NC324791  15.426   9.037   9.482
 1756POPC   PO424792  15.362   8.427   9.455
 1756POPC   GL124793  15.085   8.746   9.188
 1756POPC   GL224794  15.166   9.140   9.062
 1756POPC   C1A24795  14.963   8.802   8.755
 1756POPC   D2A24796  15.064   9.226   8.561
 1756POPC   C3A24797  15.123   9.282   8.126
 1756POPC   C4A24798  14.902   9.124   7.791
 1756POPC   C1B24799  15.477   8.875   8.849
 1756POPC   C2B24800  15.630   8.861   8.459
 1756POPC   C3B24801  15.383   8.840   8.132
 1756POPC   C4B24802  15.406   9.026   7.759
 1757POPC   NC324803  41.952  23.161   9.537
 1757POPC   PO424804  42.504  22.755   9.342
 1757POPC   GL124805  42.241  23.028   9.144
 1757POPC   GL224806  42.406  23.303   9.256
 1757POPC   C1A24807  42.103  22.983   8.744
 1757POPC   D2A24808  42.110  22.612   8.496
 1757POPC   C3A24809  42.255  22.774   8.129
 1757POPC   C4A24810  42.059  22.961   7.790
 1757POPC   C1B24811  42.552  23.246   8.807
 1757POPC   C2B24812  42.401  23.215   8.377
 1757POPC   C3B24813  42.552  23.215   7.953
 1757POPC   C4B24814  42.439  23.138   7.516
 1758POPC   NC324815   7.099  19.916   9.445
 1758POPC   PO424816   6.449  19.815   9.650
 1758POPC   GL124817   6.618  19.850   9.265
 1758POPC   GL224818   6.691  20.197   9.265
 1758POPC   C1A24819   6.580  19.690   8.852
 1758POPC   D2A24820   6.796  19.745   8.473
 1758POPC   C3A24821   6.536  19.705   8.109
 1758POPC   C4A24822   6.644  19.754   7.672
 1758POPC   C1B24823   6.801  20.153   8.814
 1758POPC   C2B24824   6.581  20.200   8.386
 1758POPC   C3B24825   6.683  20.188   7.941
 1758POPC   C4B24826   6.859  20.209   7.509
 1759POPC   NC324827   0.651  37.969   9.982
 1759POPC   PO424828   0.134  38.297   9.577
 1759POPC   GL124829   0.171  38.418   9.156
 1759POPC   GL224830   0.517  38.540   9.136
 1759POPC   C1A24831   0.158  38.444   8.697
 1759POPC   D2A24832   0.551  38.565   8.485
 1759POPC   C3A24833   0.576  38.497   8.053
 1759POPC   C4A24834   0.271  38.466   7.730
 1759POPC   C1B24835   0.388  38.840   8.888
 1759POPC   C2B24836   0.165  38.921   8.471
 1759POPC   C3B24837   0.041  38.847   8.005
 1759POPC   C4B24838   0.068  38.885   7.511
 1760POPC   NC324839   1.550  12.719   9.518
 1760POPC   PO424840   2.158  13.012   9.465
 1760POPC   GL124841   1.851  12.973   9.186
 1760POPC   GL224842   1.895  12.624   9.135
 1760POPC   C1A24843   1.732  12.940   8.770
 1760POPC   D2A24844   1.810  12.703   8.402
 1760POPC   C3A24845   1.854  12.931   8.023
 1760POPC   C4A24846   2.250  12.887   7.786
 1760POPC   C1B24847   1.584  12.428   8.846
 1760POPC   C2B24848   1.579  12.243   8.437
 1760POPC   C3B24849   1.638  12.394   8.004
 1760POPC   C4B24850   1.845  12.609   7.641
 1761POPC   NC324851  11.630  30.442   9.492
 1761POPC   PO424852  11.056  30.834   9.562
 1761POPC   GL124853  11.385  30.855   9.261
 1761POPC   GL224854  11.318  30.554   9.097
 1761POPC   C1A24855  11.550  30.935   8.840
 1761POPC   D2A24856  11.584  30.803   8.395
 1761POPC   C3A24857  11.255  30.858   8.061
 1761POPC   C4A24858  11.315  31.077   7.665
 1761POPC   C1B24859  11.283  30.470   8.654
 1761POPC   C2B24860  11.350  30.369   8.221
 1761POPC   C3B24861  11.126  30.395   7.840
 1761POPC   C4B24862  11.351  30.596   7.505
 1762POPC   NC324863  28.745   8.961   9.536
 1762POPC   PO424864  29.400   8.875   9.437
 1762POPC   GL124865  29.230   9.216   9.199
 1762POPC   GL224866  28.922   9.110   9.100
 1762POPC   C1A24867  29.294   9.357   8.753
 1762POPC   D2A24868  29.381   9.390   8.291
 1762POPC   C3A24869  29.304   8.959   8.105
 1762POPC   C4A24870  29.114   8.800   7.743
 1762POPC   C1B24871  28.732   9.244   8.768
 1762POPC   C2B24872  28.925   9.118   8.423
 1762POPC   C3B24873  28.791   9.045   8.041
 1762POPC   C4B24874  28.669   9.200   7.658
 1763POPC   NC324875  15.930   7.601   9.706
 1763POPC   PO424876  16.356   7.848   9.248
 1763POPC   GL124877  16.292   7.528   8.972
 1763POPC   GL224878  16.046   7.260   9.066
 1763POPC   C1A24879  16.160   7.468   8.554
 1763POPC   D2A24880  16.264   7.094   8.296
 1763POPC   C3A24881  16.275   7.143   7.861
 1763POPC   C4A24882  16.334   7.540   7.637
 1763POPC   C1B24883  15.909   7.028   8.698
 1763POPC   C2B24884  15.777   7.232   8.317
 1763POPC   C3B24885  15.910   7.486   7.990
 1763POPC   C4B24886  15.824   7.249   7.621
 1764POPC   NC324887  38.065  18.954   9.506
 1764POPC   PO424888  37.659  19.358   9.375
 1764POPC   GL124889  37.630  19.058   9.091
 1764POPC   GL224890  37.937  18.876   9.024
 1764POPC   C1A24891  37.694  19.176   8.680
 1764POPC   D2A24892  37.982  19.127   8.381
 1764POPC   C3A24893  37.738  19.115   8.001
 1764POPC   C4A24894  37.283  19.238   7.878
 1764POPC   C1B24895  37.644  18.678   8.738
 1764POPC   C2B24896  37.410  18.791   8.387
 1764POPC   C3B24897  37.487  18.612   8.005
 1764POPC   C4B24898  37.468  18.826   7.635
 1765POPC   NC324899  23.191  28.843   9.410
 1765POPC   PO424900  23.685  29.172   9.787
 1765POPC   GL124901  23.604  29.154   9.310
 1765POPC   GL224902  23.742  29.453   9.162
 1765POPC   C1A24903  23.548  29.075   8.836
 1765POPC   D2A24904  23.818  29.017   8.453
 1765POPC   C3A24905  23.743  28.837   8.017
 1765POPC   C4A24906  23.559  29.124   7.729
 1765POPC   C1B24907  23.941  29.427   8.769
 1765POPC   C2B24908  23.980  29.577   8.407
 1765POPC   C3B24909  23.841  29.368   8.067
 1765POPC   C4B24910  23.926  29.459   7.653
 1766POPC   NC324911   3.263  24.886   9.423
 1766POPC   PO424912   3.256  25.558   9.649
 1766POPC   GL124913   3.486  25.296   9.226
 1766POPC   GL224914   3.808  25.134   9.038
 1766POPC   C1A24915   3.566  25.448   8.756
 1766POPC   D2A24916   3.648  25.340   8.335
 1766POPC   C3A24917   3.302  25.235   8.150
 1766POPC   C4A24918   3.329  25.352   7.763
 1766POPC   C1B24919   3.464  24.926   8.780
 1766POPC   C2B24920   3.362  24.755   8.368
 1766POPC   C3B24921   3.521  24.795   7.953
 1766POPC   C4B24922   3.784  25.126   7.839
 1767POPC   NC324923  19.414  21.894   9.458
 1767POPC   PO424924  20.023  21.939   9.696
 1767POPC   GL124925  19.869  22.213   9.353
 1767POPC   GL224926  20.134  22.301   9.144
 1767POPC   C1A24927  19.686  22.224   8.906
 1767POPC   D2A24928  19.698  22.036   8.478
 1767POPC   C3A24929  19.524  22.192   8.082
 1767POPC   C4A24930  19.685  22.108   7.687
 1767POPC   C1B24931  20.157  21.994   8.782
 1767POPC   C2B24932  20.195  21.875   8.336
 1767POPC   C3B24933  20.138  21.981   7.877
 1767POPC   C4B24934  20.114  22.010   7.391
 1768POPC   NC324935   9.912  19.533   9.665
 1768POPC   PO424936   9.546  20.047   9.517
 1768POPC   GL124937   9.817  19.920   9.200
 1768POPC   GL224938   9.771  19.568   9.181
 1768POPC   C1A24939   9.713  19.939   8.774
 1768POPC   D2A24940   9.817  20.126   8.403
 1768POPC   C3A24941   9.904  19.870   8.056
 1768POPC   C4A24942   9.793  19.984   7.649
 1768POPC   C1B24943   9.863  19.445   8.787
 1768POPC   C2B24944   9.711  19.563   8.404
 1768POPC   C3B24945   9.468  19.548   8.018
 1768POPC   C4B24946   9.769  19.451   7.714
 1769POPC   NC324947  41.386  33.621   9.609
 1769POPC   PO424948  41.541  34.302   9.492
 1769POPC   GL124949  41.549  33.914   9.252
 1769POPC   GL224950  41.188  33.946   9.233
 1769POPC   C1A24951  41.637  33.642   8.913
 1769POPC   D2A24952  41.481  33.630   8.483
 1769POPC   C3A24953  41.597  33.416   8.105
 1769POPC   C4A24954  41.742  33.725   7.831
 1769POPC   C1B24955  41.038  34.240   8.879
 1769POPC   C2B24956  41.248  34.284   8.466
 1769POPC   C3B24957  41.402  34.012   8.135
 1769POPC   C4B24958  41.399  34.091   7.697
 1770POPC   NC324959  12.306  44.102   9.891
 1770POPC   PO424960  11.873  43.702   9.512
 1770POPC   GL124961  11.996  44.055   9.243
 1770POPC   GL224962  12.354  44.056   9.268
 1770POPC   C1A24963  11.960  43.995   8.792
 1770POPC   D2A24964  12.283  43.818   8.511
 1770POPC   C3A24965  12.075  43.711   8.148
 1770POPC   C4A24966  11.909  43.655   7.739
 1770POPC   C1B24967  12.379  44.275   8.848
 1770POPC   C2B24968  12.202  44.316   8.413
 1770POPC   C3B24969  12.093  44.268   7.983
 1770POPC   C4B24970  12.300  43.988   7.754
 1771POPC   NC324971   5.737  13.056   9.748
 1771POPC   PO424972   6.186  12.769   9.420
 1771POPC   GL124973   5.943  12.947   9.131
 1771POPC   GL224974   6.234  13.163   9.063
 1771POPC   C1A24975   5.775  12.786   8.714
 1771POPC   D2A24976   5.586  12.990   8.329
 1771POPC   C3A24977   5.655  12.803   7.903
 1771POPC   C4A24978   5.619  12.964   7.446
 1771POPC   C1B24979   6.304  12.828   8.758
 1771POPC   C2B24980   6.355  12.686   8.334
 1771POPC   C3B24981   6.171  12.796   7.959
 1771POPC   C4B24982   6.047  12.709   7.558
 1772POPC   NC324983  19.249  13.238   9.407
 1772POPC   PO424984  19.106  13.921   9.624
 1772POPC   GL124985  19.234  13.779   9.229
 1772POPC   GL224986  18.906  13.680   9.113
 1772POPC   C1A24987  19.360  13.737   8.787
 1772POPC   D2A24988  19.134  13.796   8.390
 1772POPC   C3A24989  19.304  13.645   8.005
 1772POPC   C4A24990  19.192  13.732   7.581
 1772POPC   C1B24991  18.982  13.366   8.783
 1772POPC   C2B24992  18.970  13.270   8.340
 1772POPC   C3B24993  18.814  13.551   8.005
 1772POPC   C4B24994  18.708  13.555   7.538
 1773POPC   NC324995  42.680  35.806   9.235
 1773POPC   PO424996  43.295  35.924   9.534
 1773POPC   GL124997  43.287  36.146   9.154
 1773POPC   GL224998  43.072  36.453   9.185
 1773POPC   C1A24999  43.464  36.276   8.762
 1773POPC   D2A25000  43.686  36.137   8.388
 1773POPC   C3A25001  43.508  36.263   7.985
 1773POPC   C4A25002  43.249  36.072   7.673
 1773POPC   C1B25003  42.887  36.270   8.784
 1773POPC   C2B25004  42.781  35.971   8.424
 1773POPC   C3B25005  42.858  35.913   7.981
 1773POPC   C4B25006  42.825  36.311   7.716
 1774POPC   NC325007  44.011   2.527   9.417
 1774POPC   PO425008  43.781   3.157   9.402
 1774POPC   GL125009  44.009   2.879   9.081
 1774POPC   GL225010  44.292   2.618   9.031
 1774POPC   C1A25011  44.123   2.997   8.716
 1774POPC   D2A25012  43.810   3.047   8.447
 1774POPC   C3A25013  43.950   3.063   8.077
 1774POPC   C4A25014  44.113   2.897   7.728
 1774POPC   C1B25015  43.998   2.483   8.726
 1774POPC   C2B25016  44.099   2.638   8.354
 1774POPC   C3B25017  44.327   2.559   8.051
 1774POPC   C4B25018  44.106   2.382   7.754
 1775POPC   NC325019  26.370  12.184   9.803
 1775POPC   PO425020  25.910  12.330   9.371
 1775POPC   GL125021  26.243  12.101   9.187
 1775POPC   GL225022  25.991  12.022   8.960
 1775POPC   C1A25023  26.453  11.886   8.846
 1775POPC   D2A25024  26.215  11.985   8.470
 1775POPC   C3A25025  26.381  11.847   8.080
 1775POPC   C4A25026  26.551  12.090   7.754
 1775POPC   C1B25027  25.708  11.986   8.656
 1775POPC   C2B25028  25.513  12.115   8.304
 1775POPC   C3B25029  25.866  12.045   8.078
 1775POPC   C4B25030  25.980  12.042   7.705
 1776POPC   NC325031   1.312   4.982   9.564
 1776POPC   PO425032   1.014   5.583   9.547
 1776POPC   GL125033   1.043   5.248   9.174
 1776POPC   GL225034   1.343   5.030   9.078
 1776POPC   C1A25035   1.018   5.141   8.701
 1776POPC   D2A25036   1.118   5.348   8.291
 1776POPC   C3A25037   1.095   5.149   7.909
 1776POPC   C4A25038   1.415   5.309   7.651
 1776POPC   C1B25039   1.361   4.756   8.728
 1776POPC   C2B25040   1.257   4.824   8.305
 1776POPC   C3B25041   1.528   4.875   7.944
 1776POPC   C4B25042   1.683   4.571   7.671
 1777POPC   NC325043  23.899  33.522   9.643
 1777POPC   PO425044  23.447  33.964   9.802
 1777POPC   GL125045  23.440  33.816   9.340
 1777POPC   GL225046  23.780  33.782   9.201
 1777POPC   C1A25047  23.377  33.892   8.866
 1777POPC   D2A25048  23.384  33.701   8.447
 1777POPC   C3A25049  23.550  33.909   8.091
 1777POPC   C4A25050  23.716  34.096   7.711
 1777POPC   C1B25051  23.733  33.544   8.801
 1777POPC   C2B25052  23.893  33.565   8.353
 1777POPC   C3B25053  23.923  33.629   7.888
 1777POPC   C4B25054  23.555  33.605   7.644
 1778POPC   NC325055  14.085   8.214   9.441
 1778POPC   PO425056  13.418   8.087   9.596
 1778POPC   GL125057  13.347   8.171   9.179
 1778POPC   GL225058  13.678   8.328   9.148
 1778POPC   C1A25059  13.470   8.083   8.742
 1778POPC   D2A25060  13.518   8.299   8.326
 1778POPC   C3A25061  13.686   8.042   8.004
 1778POPC   C4A25062  13.458   7.912   7.652
 1778POPC   C1B25063  13.738   8.533   8.745
 1778POPC   C2B25064  13.849   8.708   8.364
 1778POPC   C3B25065  13.798   8.581   7.945
 1778POPC   C4B25066  13.435   8.421   7.762
 1779POPC   NC325067  36.370  44.682   9.702
 1779POPC   PO425068  35.893  44.253   9.507
 1779POPC   GL125069  36.018  44.448   9.139
 1779POPC   GL225070  36.247  44.741   9.221
 1779POPC   C1A25071  35.960  44.413   8.684
 1779POPC   D2A25072  36.101  44.216   8.301
 1779POPC   C3A25073  36.078  44.549   8.007
 1779POPC   C4A25074  35.895  44.944   7.861
 1779POPC   C1B25075  36.299  44.769   8.797
 1779POPC   C2B25076  36.471  44.681   8.393
 1779POPC   C3B25077  36.368   0.001   8.108
 1779POPC   C4B25078  36.344   0.087   7.685
 1780POPC   NC325079  23.475  26.471   9.645
 1780POPC   PO425080  23.874  26.972   9.547
 1780POPC   GL125081  23.620  26.972   9.182
 1780POPC   GL225082  23.321  26.793   9.287
 1780POPC   C1A25083  23.759  26.885   8.745
 1780POPC   D2A25084  23.895  26.581   8.446
 1780POPC   C3A25085  23.757  26.786   8.091
 1780POPC   C4A25086  23.759  26.949   7.696
 1780POPC   C1B25087  23.360  26.605   8.899
 1780POPC   C2B25088  23.391  26.619   8.445
 1780POPC   C3B25089  23.256  26.748   8.046
 1780POPC   C4B25090  23.426  26.583   7.678
 1781POPC   NC325091  28.742  38.504   9.878
 1781POPC   PO425092  28.426  38.643   9.298
 1781POPC   GL125093  28.374  38.328   9.053
 1781POPC   GL225094  28.688  38.423   8.894
 1781POPC   C1A25095  28.366  38.112   8.691
 1781POPC   D2A25096  28.162  38.277   8.385
 1781POPC   C3A25097  28.301  38.219   7.992
 1781POPC   C4A25098  28.136  38.551   7.769
 1781POPC   C1B25099  28.498  38.627   8.593
 1781POPC   C2B25100  28.548  38.628   8.185
 1781POPC   C3B25101  28.638  38.594   7.786
 1781POPC   C4B25102  28.639  38.333   7.493
 1782POPC   NC325103  42.165  22.500   9.164
 1782POPC   PO425104  42.238  21.968   9.582
 1782POPC   GL125105  42.141  21.915   9.142
 1782POPC   GL225106  42.487  21.930   9.095
 1782POPC   C1A25107  42.207  21.862   8.665
 1782POPC   D2A25108  42.292  21.682   8.243
 1782POPC   C3A25109  42.337  22.036   7.909
 1782POPC   C4A25110  42.225  22.440   7.742
 1782POPC   C1B25111  42.612  22.155   8.726
 1782POPC   C2B25112  42.683  22.040   8.317
 1782POPC   C3B25113  42.787  22.282   7.960
 1782POPC   C4B25114  42.713  22.336   7.520
 1783POPC   NC325115  23.034  39.564   9.376
 1783POPC   PO425116  22.762  39.030   9.491
 1783POPC   GL125117  22.929  39.077   9.094
 1783POPC   GL225118  23.278  39.108   9.211
 1783POPC   C1A25119  23.018  39.380   8.747
 1783POPC   D2A25120  22.919  39.576   8.344
 1783POPC   C3A25121  22.903  39.337   7.972
 1783POPC   C4A25122  22.611  39.007   7.848
 1783POPC   C1B25123  23.462  39.127   8.812
 1783POPC   C2B25124  23.226  39.011   8.453
 1783POPC   C3B25125  23.240  38.731   8.146
 1783POPC   C4B25126  23.102  38.897   7.798
 1784POPC   NC325127   2.372  42.702   9.280
 1784POPC   PO425128   1.925  42.303   9.653
 1784POPC   GL125129   2.052  42.299   9.244
 1784POPC   GL225130   1.762  42.490   9.161
 1784POPC   C1A25131   2.017  42.258   8.799
 1784POPC   D2A25132   2.094  42.114   8.394
 1784POPC   C3A25133   2.196  42.405   8.090
 1784POPC   C4A25134   1.950  42.315   7.727
 1784POPC   C1B25135   1.575  42.543   8.754
 1784POPC   C2B25136   1.760  42.527   8.358
 1784POPC   C3B25137   1.852  42.788   8.016
 1784POPC   C4B25138   1.760  42.767   7.598
 1785POPC   NC325139  39.311  20.702   9.542
 1785POPC   PO425140  38.642  20.958   9.550
 1785POPC   GL125141  38.884  20.784   9.226
 1785POPC   GL225142  39.038  20.438   9.185
 1785POPC   C1A25143  39.108  20.815   8.854
 1785POPC   D2A25144  39.250  20.555   8.520
 1785POPC   C3A25145  39.155  20.680   8.109
 1785POPC   C4A25146  38.986  20.781   7.713
 1785POPC   C1B25147  39.474  20.392   8.968
 1785POPC   C2B25148  39.748  20.434   8.590
 1785POPC   C3B25149  39.662  20.556   8.170
 1785POPC   C4B25150  39.645  20.432   7.725
 1786POPC   NC325151  16.544  10.231   9.509
 1786POPC   PO425152  16.779   9.594   9.569
 1786POPC   GL125153  16.562   9.753   9.189
 1786POPC   GL225154  16.531   9.430   9.026
 1786POPC   C1A25155  16.664   9.835   8.727
 1786POPC   D2A25156  16.909   9.732   8.325
 1786POPC   C3A25157  16.712   9.773   7.902
 1786POPC   C4A25158  16.763   9.998   7.515
 1786POPC   C1B25159  16.829   9.330   8.671
 1786POPC   C2B25160  16.718   9.255   8.206
 1786POPC   C3B25161  16.926   9.277   7.792
 1786POPC   C4B25162  16.811   9.503   7.432
 1787POPC   NC325163  14.829   2.319   9.801
 1787POPC   PO425164  14.462   1.837   9.652
 1787POPC   GL125165  14.440   1.759   9.220
 1787POPC   GL225166  14.504   2.125   9.199
 1787POPC   C1A25167  14.376   1.900   8.762
 1787POPC   D2A25168  14.480   1.920   8.302
 1787POPC   C3A25169  14.201   1.741   7.995
 1787POPC   C4A25170  14.519   1.588   7.732
 1787POPC   C1B25171  14.586   2.361   8.817
 1787POPC   C2B25172  14.554   2.409   8.409
 1787POPC   C3B25173  14.650   2.339   8.020
 1787POPC   C4B25174  14.481   2.088   7.770
 1788POPC   NC325175  26.289  18.124   9.967
 1788POPC   PO425176  25.878  18.522   9.605
 1788POPC   GL125177  25.964  18.319   9.229
 1788POPC   GL225178  25.768  18.572   9.092
 1788POPC   C1A25179  26.014  18.140   8.809
 1788POPC   D2A25180  26.212  18.264   8.406
 1788POPC   C3A25181  26.021  18.062   8.062
 1788POPC   C4A25182  26.078  17.845   7.675
 1788POPC   C1B25183  26.092  18.647   8.792
 1788POPC   C2B25184  26.128  18.775   8.369
 1788POPC   C3B25185  26.107  18.572   7.968
 1788POPC   C4B25186  26.045  18.606   7.533
 1789POPC   NC325187  33.494  30.921   9.547
 1789POPC   PO425188  33.728  30.318   9.654
 1789POPC   GL125189  33.703  30.595   9.224
 1789POPC   GL225190  33.713  30.973   9.099
 1789POPC   C1A25191  33.540  30.584   8.802
 1789POPC   D2A25192  33.733  30.326   8.494
 1789POPC   C3A25193  33.665  30.438   8.069
 1789POPC   C4A25194  33.890  30.541   7.707
 1789POPC   C1B25195  33.965  30.890   8.721
 1789POPC   C2B25196  34.036  30.722   8.305
 1789POPC   C3B25197  33.806  30.949   7.997
 1789POPC   C4B25198  33.954  31.104   7.649
 1790POPC   NC325199  25.319   2.251   9.537
 1790POPC   PO425200  25.022   1.716   9.390
 1790POPC   GL125201  25.143   2.011   9.115
 1790POPC   GL225202  25.531   2.038   9.084
 1790POPC   C1A25203  25.169   1.976   8.696
 1790POPC   D2A25204  25.333   1.722   8.383
 1790POPC   C3A25205  25.167   1.891   8.006
 1790POPC   C4A25206  25.046   1.879   7.560
 1790POPC   C1B25207  25.642   2.146   8.644
 1790POPC   C2B25208  25.422   2.259   8.298
 1790POPC   C3B25209  25.442   2.321   7.890
 1790POPC   C4B25210  25.538   2.009   7.670
 1791POPC   NC325211   5.535  25.613   9.470
 1791POPC   PO425212   5.987  25.079   9.532
 1791POPC   GL125213   6.032  25.152   9.134
 1791POPC   GL225214   5.916  25.470   9.136
 1791POPC   C1A25215   5.910  25.157   8.719
 1791POPC   D2A25216   6.106  25.086   8.363
 1791POPC   C3A25217   5.798  25.201   8.084
 1791POPC   C4A25218   5.791  24.983   7.750
 1791POPC   C1B25219   5.670  25.621   8.805
 1791POPC   C2B25220   5.533  25.566   8.373
 1791POPC   C3B25221   5.645  25.713   7.976
 1791POPC   C4B25222   5.863  25.545   7.667
 1792POPC   NC325223  34.231  12.002   9.313
 1792POPC   PO425224  34.835  12.146   9.538
 1792POPC   GL125225  34.921  12.062   9.065
 1792POPC   GL225226  34.565  12.070   8.949
 1792POPC   C1A25227  34.900  12.095   8.570
 1792POPC   D2A25228  34.700  12.418   8.257
 1792POPC   C3A25229  34.596  12.268   7.790
 1792POPC   C4A25230  34.257  12.262   7.408
 1792POPC   C1B25231  34.209  11.837   8.689
 1792POPC   C2B25232  34.326  11.658   8.301
 1792POPC   C3B25233  34.418  11.795   7.890
 1792POPC   C4B25234  34.569  11.848   7.450
 1793POPC   NC325235  11.104  17.161   9.420
 1793POPC   PO425236  11.466  17.794   9.524
 1793POPC   GL125237  11.362  17.527   9.186
 1793POPC   GL225238  11.038  17.644   9.199
 1793POPC   C1A25239  11.177  17.337   8.800
 1793POPC   D2A25240  11.245  17.184   8.404
 1793POPC   C3A25241  11.129  17.264   8.023
 1793POPC   C4A25242  11.467  17.271   7.744
 1793POPC   C1B25243  11.250  17.861   8.808
 1793POPC   C2B25244  11.217  17.937   8.320
 1793POPC   C3B25245  11.150  17.749   7.861
 1793POPC   C4B25246  11.335  17.667   7.405
 1794POPC   NC325247  33.835  34.126   9.713
 1794POPC   PO425248  33.734  34.745   9.797
 1794POPC   GL125249  33.816  34.635   9.337
 1794POPC   GL225250  33.527  34.656   9.110
 1794POPC   C1A25251  34.063  34.593   8.933
 1794POPC   D2A25252  34.074  34.771   8.496
 1794POPC   C3A25253  33.919  34.519   8.104
 1794POPC   C4A25254  33.866  34.646   7.661
 1794POPC   C1B25255  33.387  34.407   8.744
 1794POPC   C2B25256  33.390  34.360   8.275
 1794POPC   C3B25257  33.421  34.457   7.818
 1794POPC   C4B25258  33.181  34.464   7.412
 1795POPC   NC325259  38.459   2.346   9.455
 1795POPC   PO425260  38.129   1.744   9.502
 1795POPC   GL125261  38.386   1.900   9.193
 1795POPC   GL225262  38.108   2.153   9.148
 1795POPC   C1A25263  38.556   2.037   8.799
 1795POPC   D2A25264  38.573   1.879   8.374
 1795POPC   C3A25265  38.788   1.801   7.961
 1795POPC   C4A25266  38.578   1.721   7.581
 1795POPC   C1B25267  38.061   1.933   8.780
 1795POPC   C2B25268  38.166   2.145   8.416
 1795POPC   C3B25269  38.278   1.989   7.965
 1795POPC   C4B25270  38.073   1.703   7.653
 1796POPC   NC325271  22.429  39.363   9.418
 1796POPC   PO425272  22.005  38.833   9.413
 1796POPC   GL125273  22.352  38.913   9.129
 1796POPC   GL225274  22.162  39.223   9.010
 1796POPC   C1A25275  22.335  38.880   8.665
 1796POPC   D2A25276  21.986  38.860   8.373
 1796POPC   C3A25277  22.118  39.033   7.995
 1796POPC   C4A25278  21.930  39.343   7.769
 1796POPC   C1B25279  22.506  39.348   8.746
 1796POPC   C2B25280  22.513  39.258   8.315
 1796POPC   C3B25281  22.384  39.463   7.946
 1796POPC   C4B25282  22.355  39.304   7.536
 1797POPC   NC325283  19.529  26.213   9.158
 1797POPC   PO425284  19.929  25.703   9.309
 1797POPC   GL125285  19.997  26.039   9.062
 1797POPC   GL225286  20.178  26.334   9.206
 1797POPC   C1A25287  19.885  26.091   8.623
 1797POPC   D2A25288  19.512  26.287   8.392
 1797POPC   C3A25289  19.574  26.207   7.945
 1797POPC   C4A25290  19.531  26.141   7.495
 1797POPC   C1B25291  20.352  26.262   8.791
 1797POPC   C2B25292  20.396  26.092   8.367
 1797POPC   C3B25293  20.320  26.227   7.950
 1797POPC   C4B25294  20.017  26.097   7.665
 1798POPC   NC325295  20.167  13.633   9.424
 1798POPC   PO425296  20.778  13.862   9.533
 1798POPC   GL125297  20.593  13.736   9.172
 1798POPC   GL225298  20.600  13.371   9.246
 1798POPC   C1A25299  20.381  13.764   8.778
 1798POPC   D2A25300  20.284  13.487   8.427
 1798POPC   C3A25301  20.282  13.691   8.032
 1798POPC   C4A25302  20.507  13.583   7.675
 1798POPC   C1B25303  20.694  13.110   8.886
 1798POPC   C2B25304  20.912  13.182   8.486
 1798POPC   C3B25305  20.733  13.357   8.105
 1798POPC   C4B25306  20.993  13.175   7.782
 1799POPC   NC325307   8.624  32.240   9.342
 1799POPC   PO425308   9.158  32.673   9.398
 1799POPC   GL125309   9.122  32.347   9.088
 1799POPC   GL225310   9.102  31.984   9.144
 1799POPC   C1A25311   8.843  32.344   8.723
 1799POPC   D2A25312   8.544  32.560   8.432
 1799POPC   C3A25313   8.743  32.568   8.035
 1799POPC   C4A25314   9.143  32.390   7.901
 1799POPC   C1B25315   8.880  31.814   8.772
 1799POPC   C2B25316   8.750  31.976   8.378
 1799POPC   C3B25317   8.958  31.874   8.006
 1799POPC   C4B25318   9.027  31.820   7.576
 1800POPC   NC325319  39.679  34.253   9.866
 1800POPC   PO425320  40.028  34.732   9.515
 1800POPC   GL125321  39.999  34.730   9.101
 1800POPC   GL225322  39.696  34.926   9.111
 1800POPC   C1A25323  39.943  34.414   8.749
 1800POPC   D2A25324  39.769  34.423   8.310
 1800POPC   C3A25325  40.014  34.415   7.900
 1800POPC   C4A25326  40.202  34.806   7.705
 1800POPC   C1B25327  39.635  34.824   8.709
 1800POPC   C2B25328  39.638  34.928   8.319
 1800POPC   C3B25329  39.705  34.809   7.918
 1800POPC   C4B25330  39.748  34.733   7.483
 1801POPC   NC325331   8.377  44.401   9.782
 1801POPC   PO425332   8.012  44.905   9.630
 1801POPC   GL125333   8.051  44.733   9.152
 1801POPC   GL225334   8.198   0.017   8.933
 1801POPC   C1A25335   8.337  44.577   8.767
 1801POPC   D2A25336   8.149  44.662   8.388
 1801POPC   C3A25337   8.349  44.794   8.026
 1801POPC   C4A25338   8.467  44.505   7.771
 1801POPC   C1B25339   7.877   0.067   8.609
 1801POPC   C2B25340   7.832  44.989   8.172
 1801POPC   C3B25341   7.733   0.073   7.760
 1801POPC   C4B25342   7.945   0.162   7.361
 1802POPC   NC325343   7.734  19.527   9.389
 1802POPC   PO425344   7.460  20.144   9.589
 1802POPC   GL125345   7.526  19.970   9.195
 1802POPC   GL225346   7.812  20.218   9.171
 1802POPC   C1A25347   7.236  19.825   8.805
 1802POPC   D2A25348   7.301  19.696   8.389
 1802POPC   C3A25349   7.050  19.785   8.030
 1802POPC   C4A25350   7.215  19.518   7.728
 1802POPC   C1B25351   7.593  20.176   8.763
 1802POPC   C2B25352   7.704  20.015   8.403
 1802POPC   C3B25353   7.478  20.089   8.057
 1802POPC   C4B25354   7.317  20.041   7.661
 1803POPC   NC325355  10.695  10.245   9.639
 1803POPC   PO425356  10.370  10.788   9.393
 1803POPC   GL125357  10.669  10.792   9.098
 1803POPC   GL225358  10.638  10.422   9.152
 1803POPC   C1A25359  10.640  10.866   8.643
 1803POPC   D2A25360  10.305  10.713   8.368
 1803POPC   C3A25361  10.421  10.703   7.954
 1803POPC   C4A25362  10.239  10.541   7.592
 1803POPC   C1B25363  10.491  10.381   8.739
 1803POPC   C2B25364  10.736  10.361   8.381
 1803POPC   C3B25365  10.666  10.271   7.966
 1803POPC   C4B25366  10.754  10.491   7.609
 1804POPC   NC325367  44.214   6.609   9.333
 1804POPC   PO425368  44.873   6.674   9.389
 1804POPC   GL125369  44.640   6.605   9.050
 1804POPC   GL225370  44.376   6.840   8.923
 1804POPC   C1A25371  44.749   6.633   8.655
 1804POPC   D2A25372  44.595   6.671   8.286
 1804POPC   C3A25373  44.844   6.499   7.956
 1804POPC   C4A25374  44.873   6.504   7.476
 1804POPC   C1B25375  44.212   6.551   8.637
 1804POPC   C2B25376  44.093   6.601   8.217
 1804POPC   C3B25377  44.362   6.589   7.841
 1804POPC   C4B25378  44.370   6.457   7.424
 1805POPC   NC325379   4.476  11.169   9.633
 1805POPC   PO425380   4.003  11.559   9.263
 1805POPC   GL125381   4.237  11.211   9.134
 1805POPC   GL225382   4.623  11.160   9.155
 1805POPC   C1A25383   4.350  11.215   8.711
 1805POPC   D2A25384   4.176  11.489   8.417
 1805POPC   C3A25385   4.141  11.205   8.120
 1805POPC   C4A25386   4.253  11.103   7.676
 1805POPC   C1B25387   4.607  11.583   8.989
 1805POPC   C2B25388   4.690  11.631   8.582
 1805POPC   C3B25389   4.633  11.317   8.278
 1805POPC   C4B25390   4.476  11.509   7.906
 1806POPC   NC325391  26.110  17.221   9.577
 1806POPC   PO425392  26.065  17.927   9.563
 1806POPC   GL125393  26.021  17.596   9.241
 1806POPC   GL225394  25.748  17.356   9.180
 1806POPC   C1A25395  26.203  17.481   8.840
 1806POPC   D2A25396  26.147  17.742   8.486
 1806POPC   C3A25397  26.115  17.497   8.154
 1806POPC   C4A25398  26.340  17.392   7.804
 1806POPC   C1B25399  25.727  17.685   8.833
 1806POPC   C2B25400  25.664  17.926   8.454
 1806POPC   C3B25401  25.594  17.797   8.031
 1806POPC   C4B25402  25.776  17.473   7.792
 1807POPC   NC325403  40.286  20.908   9.460
 1807POPC   PO425404  40.640  20.357   9.517
 1807POPC   GL125405  40.602  20.389   9.072
 1807POPC   GL225406  40.909  20.430   8.806
 1807POPC   C1A25407  40.522  20.724   8.816
 1807POPC   D2A25408  40.676  20.671   8.401
 1807POPC   C3A25409  40.441  20.735   8.023
 1807POPC   C4A25410  40.515  20.806   7.612
 1807POPC   C1B25411  41.005  20.876   8.748
 1807POPC   C2B25412  41.068  21.020   8.371
 1807POPC   C3B25413  40.928  20.871   8.004
 1807POPC   C4B25414  41.152  20.984   7.703
 1808POPC   NC325415  20.867  27.288   9.725
 1808POPC   PO425416  20.629  26.610   9.639
 1808POPC   GL125417  20.643  26.565   9.182
 1808POPC   GL225418  20.625  26.903   9.105
 1808POPC   C1A25419  20.871  26.624   8.768
 1808POPC   D2A25420  20.734  26.967   8.481
 1808POPC   C3A25421  20.690  26.775   8.075
 1808POPC   C4A25422  21.049  26.521   7.886
 1808POPC   C1B25423  20.372  26.755   8.792
 1808POPC   C2B25424  20.218  26.899   8.440
 1808POPC   C3B25425  20.137  27.034   8.067
 1808POPC   C4B25426  20.296  26.969   7.679
 1809POPC   NC325427   4.708  43.458   9.826
 1809POPC   PO425428   4.177  43.075   9.703
 1809POPC   GL125429   4.188  43.195   9.227
 1809POPC   GL225430   4.529  43.078   9.161
 1809POPC   C1A25431   4.193  42.950   8.791
 1809POPC   D2A25432   4.487  42.705   8.531
 1809POPC   C3A25433   4.457  42.801   8.102
 1809POPC   C4A25434   4.296  43.031   7.736
 1809POPC   C1B25435   4.532  43.308   8.757
 1809POPC   C2B25436   4.618  43.190   8.382
 1809POPC   C3B25437   4.587  43.358   7.991
 1809POPC   C4B25438   4.619  43.401   7.519
 1810POPC   NC325439  12.373  37.516   9.769
 1810POPC   PO425440  11.676  37.351   9.716
 1810POPC   GL125441  11.956  37.464   9.303
 1810POPC   GL225442  12.306  37.469   9.113
 1810POPC   C1A25443  11.941  37.752   8.939
 1810POPC   D2A25444  11.887  37.805   8.506
 1810POPC   C3A25445  12.087  37.689   8.136
 1810POPC   C4A25446  12.208  38.015   7.906
 1810POPC   C1B25447  12.336  37.567   8.669
 1810POPC   C2B25448  12.521  37.820   8.335
 1810POPC   C3B25449  12.557  37.645   7.905
 1810POPC   C4B25450  12.300  37.618   7.549
 1811POPC   NC325451  28.676  24.578   9.459
 1811POPC   PO425452  28.035  24.392   9.308
 1811POPC   GL125453  28.150  24.620   8.957
 1811POPC   GL225454  28.470  24.748   9.038
 1811POPC   C1A25455  28.418  24.425   8.627
 1811POPC   D2A25456  28.627  24.198   8.288
 1811POPC   C3A25457  28.405  24.337   7.922
 1811POPC   C4A25458  28.208  24.710   7.793
 1811POPC   C1B25459  28.431  24.972   8.649
 1811POPC   C2B25460  28.416  24.952   8.205
 1811POPC   C3B25461  28.707  24.764   7.913
 1811POPC   C4B25462  28.907  24.374   7.849
 1812POPC   NC325463  43.620  39.782   9.582
 1812POPC   PO425464  42.953  39.785   9.634
 1812POPC   GL125465  43.059  39.928   9.240
 1812POPC   GL225466  43.386  39.963   9.175
 1812POPC   C1A25467  43.016  39.845   8.840
 1812POPC   D2A25468  42.897  40.145   8.544
 1812POPC   C3A25469  43.015  39.917   8.217
 1812POPC   C4A25470  42.895  39.913   7.818
 1812POPC   C1B25471  43.366  40.199   8.786
 1812POPC   C2B25472  43.354  40.315   8.374
 1812POPC   C3B25473  43.047  40.374   8.055
 1812POPC   C4B25474  43.248  40.269   7.737
 1813POPC   NC325475   0.547  30.701   9.433
 1813POPC   PO425476   0.342  31.086  10.001
 1813POPC   GL125477   0.234  31.097   9.415
 1813POPC   GL225478   0.577  31.120   9.192
 1813POPC   C1A25479   0.199  30.958   8.899
 1813POPC   D2A25480   0.368  30.748   8.473
 1813POPC   C3A25481   0.340  30.811   8.007
 1813POPC   C4A25482   0.282  31.168   7.716
 1813POPC   C1B25483   0.714  30.830   8.833
 1813POPC   C2B25484   0.914  30.750   8.459
 1813POPC   C3B25485   0.843  30.803   8.050
 1813POPC   C4B25486   0.710  30.917   7.646
 1814POPC   NC325487  15.984  15.149   9.498
 1814POPC   PO425488  16.491  15.525   9.720
 1814POPC   GL125489  16.115  15.569   9.262
 1814POPC   GL225490  16.047  15.150   9.017
 1814POPC   C1A25491  15.854  15.548   8.850
 1814POPC   D2A25492  16.115  15.496   8.483
 1814POPC   C3A25493  16.003  15.392   8.066
 1814POPC   C4A25494  15.642  15.411   7.789
 1814POPC   C1B25495  16.263  14.990   8.674
 1814POPC   C2B25496  16.002  14.938   8.318
 1814POPC   C3B25497  15.854  14.935   7.915
 1814POPC   C4B25498  16.153  15.091   7.644
 1815POPC   NC325499  14.102  19.669   9.579
 1815POPC   PO425500  14.736  19.771   9.424
 1815POPC   GL125501  14.464  19.942   9.097
 1815POPC   GL225502  14.109  19.970   9.132
 1815POPC   C1A25503  14.342  20.091   8.693
 1815POPC   D2A25504  14.193  19.873   8.370
 1815POPC   C3A25505  14.269  19.971   7.972
 1815POPC   C4A25506  14.406  19.800   7.582
 1815POPC   C1B25507  13.955  19.687   8.800
 1815POPC   C2B25508  14.107  19.384   8.467
 1815POPC   C3B25509  14.030  19.490   8.037
 1815POPC   C4B25510  13.863  19.790   7.759
 1816POPC   NC325511  34.835  15.525   9.392
 1816POPC   PO425512  34.504  16.077   9.622
 1816POPC   GL125513  34.539  15.917   9.224
 1816POPC   GL225514  34.852  16.017   9.189
 1816POPC   C1A25515  34.558  15.895   8.763
 1816POPC   D2A25516  34.362  16.047   8.361
 1816POPC   C3A25517  34.464  15.806   8.010
 1816POPC   C4A25518  34.781  15.577   7.865
 1816POPC   C1B25519  34.817  16.356   8.897
 1816POPC   C2B25520  34.891  16.379   8.431
 1816POPC   C3B25521  34.708  16.259   8.019
 1816POPC   C4B25522  34.847  16.128   7.594
 1817POPC   NC325523  39.666  23.280   9.440
 1817POPC   PO425524  40.024  22.667   9.434
 1817POPC   GL125525  39.887  22.889   9.095
 1817POPC   GL225526  40.097  23.172   9.105
 1817POPC   C1A25527  39.752  22.796   8.656
 1817POPC   D2A25528  39.863  22.976   8.238
 1817POPC   C3A25529  39.919  22.720   7.861
 1817POPC   C4A25530  39.842  22.478   7.466
 1817POPC   C1B25531  39.996  23.242   8.720
 1817POPC   C2B25532  40.087  23.419   8.378
 1817POPC   C3B25533  39.870  23.479   8.066
 1817POPC   C4B25534  40.035  23.223   7.777
 1818POPC   NC325535  30.678  10.061   9.550
 1818POPC   PO425536  30.691   9.410   9.530
 1818POPC   GL125537  30.746   9.592   9.142
 1818POPC   GL225538  30.869   9.918   9.094
 1818POPC   C1A25539  30.909   9.465   8.769
 1818POPC   D2A25540  31.063   9.670   8.433
 1818POPC   C3A25541  30.785   9.768   8.118
 1818POPC   C4A25542  30.690   9.533   7.759
 1818POPC   C1B25543  30.548  10.143   8.810
 1818POPC   C2B25544  30.619  10.284   8.380
 1818POPC   C3B25545  30.701  10.242   7.936
 1818POPC   C4B25546  30.644  10.064   7.543
 1819POPC   NC325547  22.678   0.737   9.535
 1819POPC   PO425548  23.224   0.839   9.227
 1819POPC   GL125549  22.886   0.668   9.067
 1819POPC   GL225550  23.044   0.348   9.102
 1819POPC   C1A25551  22.758   0.812   8.667
 1819POPC   D2A25552  22.872   0.574   8.313
 1819POPC   C3A25553  23.208   0.642   8.050
 1819POPC   C4A25554  23.147   0.657   7.621
 1819POPC   C1B25555  22.969   0.092   8.744
 1819POPC   C2B25556  23.085   0.053   8.313
 1819POPC   C3B25557  23.080   0.161   7.902
 1819POPC   C4B25558  22.817  44.948   7.644
 1820POPC   NC325559  16.404   9.241   9.528
 1820POPC   PO425560  16.755   8.662   9.460
 1820POPC   GL125561  16.683   8.961   9.177
 1820POPC   GL225562  16.980   9.162   9.190
 1820POPC   C1A25563  16.520   8.940   8.747
 1820POPC   D2A25564  16.410   8.730   8.378
 1820POPC   C3A25565  16.374   8.903   7.962
 1820POPC   C4A25566  16.432   8.575   7.663
 1820POPC   C1B25567  17.028   8.816   8.856
 1820POPC   C2B25568  16.965   8.873   8.443
 1820POPC   C3B25569  16.868   8.788   8.016
 1820POPC   C4B25570  17.057   8.775   7.606
 1821POPC   NC325571  43.979   6.383   9.885
 1821POPC   PO425572  43.913   6.933   9.501
 1821POPC   GL125573  43.734   6.714   9.174
 1821POPC   GL225574  43.554   6.984   9.037
 1821POPC   C1A25575  43.641   6.491   8.803
 1821POPC   D2A25576  43.460   6.648   8.450
 1821POPC   C3A25577  43.564   6.476   8.072
 1821POPC   C4A25578  43.874   6.590   7.752
 1821POPC   C1B25579  43.881   6.958   8.712
 1821POPC   C2B25580  44.105   7.182   8.363
 1821POPC   C3B25581  44.377   7.090   8.022
 1821POPC   C4B25582  44.267   7.014   7.577
 1822POPC   NC325583  17.380  39.502   9.554
 1822POPC   PO425584  17.765  38.973   9.518
 1822POPC   GL125585  17.608  39.217   9.170
 1822POPC   GL225586  17.255  39.180   9.161
 1822POPC   C1A25587  17.773  39.287   8.758
 1822POPC   D2A25588  17.579  39.325   8.359
 1822POPC   C3A25589  17.683  39.310   7.922
 1822POPC   C4A25590  17.495  39.466   7.550
 1822POPC   C1B25591  17.355  38.986   8.753
 1822POPC   C2B25592  17.400  38.833   8.371
 1822POPC   C3B25593  17.264  39.049   8.044
 1822POPC   C4B25594  17.212  39.048   7.634
 1823POPC   NC325595   0.634  32.214   9.518
 1823POPC   PO425596   0.010  32.413   9.327
 1823POPC   GL125597   0.238  32.109   9.025
 1823POPC   GL225598   0.625  32.065   9.032
 1823POPC   C1A25599   0.334  31.879   8.641
 1823POPC   D2A25600   0.636  32.065   8.346
 1823POPC   C3A25601   0.448  32.298   8.017
 1823POPC   C4A25602   0.226  32.068   7.742
 1823POPC   C1B25603   0.777  32.380   8.732
 1823POPC   C2B25604   1.000  32.484   8.342
 1823POPC   C3B25605   0.916  32.438   7.908
 1823POPC   C4B25606   0.575  32.584   7.606
 1824POPC   NC325607   4.170  42.721   9.416
 1824POPC   PO425608   4.555  42.168   9.519
 1824POPC   GL125609   4.295  42.288   9.151
 1824POPC   GL225610   4.466  42.569   9.025
 1824POPC   C1A25611   4.145  42.231   8.724
 1824POPC   D2A25612   4.260  42.038   8.360
 1824POPC   C3A25613   4.008  42.162   8.057
 1824POPC   C4A25614   4.090  42.236   7.629
 1824POPC   C1B25615   4.650  42.253   8.751
 1824POPC   C2B25616   4.712  42.283   8.330
 1824POPC   C3B25617   4.499  42.304   7.965
 1824POPC   C4B25618   4.498  42.559   7.629
 1825POPC   NC325619  13.420   3.232   9.207
 1825POPC   PO425620  13.087   3.732   9.609
 1825POPC   GL125621  12.773   3.649   9.249
 1825POPC   GL225622  12.898   3.324   9.128
 1825POPC   C1A25623  12.617   3.607   8.794
 1825POPC   D2A25624  12.756   3.349   8.405
 1825POPC   C3A25625  12.658   3.424   7.998
 1825POPC   C4A25626  12.627   3.621   7.596
 1825POPC   C1B25627  13.108   3.490   8.743
 1825POPC   C2B25628  13.231   3.625   8.380
 1825POPC   C3B25629  13.155   3.357   8.076
 1825POPC   C4B25630  13.062   3.301   7.691
 1826POPC   NC325631  15.629  40.284   9.417
 1826POPC   PO425632  15.903  39.680   9.463
 1826POPC   GL125633  15.876  39.781   9.064
 1826POPC   GL225634  15.947  40.108   9.059
 1826POPC   C1A25635  15.694  39.885   8.658
 1826POPC   D2A25636  15.898  40.004   8.268
 1826POPC   C3A25637  15.863  39.743   7.912
 1826POPC   C4A25638  15.824  39.966   7.518
 1826POPC   C1B25639  15.760  40.379   8.752
 1826POPC   C2B25640  15.508  40.334   8.369
 1826POPC   C3B25641  15.552  40.207   7.909
 1826POPC   C4B25642  15.399  40.222   7.429
 1827POPC   NC325643  24.885  17.528   9.448
 1827POPC   PO425644  24.291  17.820   9.501
 1827POPC   GL125645  24.413  17.589   9.140
 1827POPC   GL225646  24.716  17.382   8.995
 1827POPC   C1A25647  24.242  17.427   8.809
 1827POPC   D2A25648  24.387  17.609   8.462
 1827POPC   C3A25649  24.258  17.449   8.100
 1827POPC   C4A25650  24.451  17.345   7.734
 1827POPC   C1B25651  24.717  17.822   8.812
 1827POPC   C2B25652  24.765  17.953   8.384
 1827POPC   C3B25653  24.682  17.730   8.032
 1827POPC   C4B25654  24.809  17.692   7.614
 1828POPC   NC325655  20.668  14.939   9.588
 1828POPC   PO425656  21.228  15.164   9.609
 1828POPC   GL125657  20.890  15.158   9.186
 1828POPC   GL225658  20.512  15.115   9.109
 1828POPC   C1A25659  20.825  15.144   8.696
 1828POPC   D2A25660  20.815  14.933   8.270
 1828POPC   C3A25661  20.738  15.113   7.845
 1828POPC   C4A25662  20.766  15.363   7.419
 1828POPC   C1B25663  20.323  15.324   8.699
 1828POPC   C2B25664  20.530  15.391   8.248
 1828POPC   C3B25665  20.423  15.507   7.773
 1828POPC   C4B25666  20.255  15.518   7.327
 1829POPC   NC325667  17.549  41.134   9.533
 1829POPC   PO425668  17.102  40.672   9.492
 1829POPC   GL125669  17.455  40.708   9.190
 1829POPC   GL225670  17.675  40.415   9.172
 1829POPC   C1A25671  17.511  40.866   8.767
 1829POPC   D2A25672  17.477  41.094   8.405
 1829POPC   C3A25673  17.372  40.908   8.022
 1829POPC   C4A25674  17.747  40.889   7.774
 1829POPC   C1B25675  17.553  40.345   8.761
 1829POPC   C2B25676  17.396  40.498   8.352
 1829POPC   C3B25677  17.624  40.398   7.963
 1829POPC   C4B25678  17.587  40.448   7.533
 1830POPC   NC325679  16.324   4.428   9.604
 1830POPC   PO425680  16.953   4.311   9.630
 1830POPC   GL125681  16.823   4.170   9.240
 1830POPC   GL225682  16.486   4.174   9.193
 1830POPC   C1A25683  16.806   4.341   8.824
 1830POPC   D2A25684  17.049   4.336   8.457
 1830POPC   C3A25685  16.921   4.551   8.092
 1830POPC   C4A25686  16.714   4.241   7.866
 1830POPC   C1B25687  16.314   4.228   8.767
 1830POPC   C2B25688  16.494   4.339   8.370
 1830POPC   C3B25689  16.240   4.187   8.061
 1830POPC   C4B25690  16.251   4.213   7.636
 1831POPC   NC325691  26.678  27.093   9.977
 1831POPC   PO425692  26.968  26.780   9.478
 1831POPC   GL125693  26.908  26.475   9.188
 1831POPC   GL225694  26.575  26.495   9.167
 1831POPC   C1A25695  27.046  26.535   8.804
 1831POPC   D2A25696  26.878  26.545   8.459
 1831POPC   C3A25697  27.142  26.747   8.193
 1831POPC   C4A25698  27.009  26.815   7.823
 1831POPC   C1B25699  26.697  26.898   8.893
 1831POPC   C2B25700  26.882  27.054   8.528
 1831POPC   C3B25701  26.656  26.902   8.158
 1831POPC   C4B25702  26.506  26.794   7.732
 1832POPC   NC325703  35.081  27.283   9.485
 1832POPC   PO425704  34.683  27.854   9.514
 1832POPC   GL125705  34.660  27.517   9.238
 1832POPC   GL225706  34.528  27.204   9.343
 1832POPC   C1A25707  34.684  27.587   8.806
 1832POPC   D2A25708  34.662  27.713   8.381
 1832POPC   C3A25709  34.326  27.910   8.172
 1832POPC   C4A25710  34.265  27.809   7.753
 1832POPC   C1B25711  34.679  27.086   8.902
 1832POPC   C2B25712  34.563  27.204   8.468
 1832POPC   C3B25713  34.395  27.369   8.071
 1832POPC   C4B25714  34.500  27.252   7.656
 1833POPC   NC325715  18.102  10.210   9.854
 1833POPC   PO425716  18.321  10.713   9.241
 1833POPC   GL125717  18.439  10.413   8.951
 1833POPC   GL225718  18.137  10.315   8.882
 1833POPC   C1A25719  18.467  10.387   8.498
 1833POPC   D2A25720  18.416  10.786   8.297
 1833POPC   C3A25721  18.615  10.760   7.924
 1833POPC   C4A25722  18.487  10.387   7.664
 1833POPC   C1B25723  17.992  10.657   8.616
 1833POPC   C2B25724  17.891  10.701   8.190
 1833POPC   C3B25725  18.114  10.393   7.989
 1833POPC   C4B25726  18.019  10.148   7.601
 1834POPC   NC325727  24.781  42.413   9.421
 1834POPC   PO425728  24.080  42.283   9.385
 1834POPC   GL125729  24.334  42.213   9.030
 1834POPC   GL225730  24.529  42.539   8.993
 1834POPC   C1A25731  24.281  42.324   8.602
 1834POPC   D2A25732  24.494  42.639   8.403
 1834POPC   C3A25733  24.452  42.508   8.029
 1834POPC   C4A25734  24.299  42.100   8.020
 1834POPC   C1B25735  24.780  42.257   8.707
 1834POPC   C2B25736  25.001  42.060   8.378
 1834POPC   C3B25737  24.786  42.048   8.021
 1834POPC   C4B25738  24.717  42.293   7.678
 1835POPC   NC325739   2.959  25.805   9.372
 1835POPC   PO425740   2.339  25.917   9.709
 1835POPC   GL125741   2.436  25.911   9.241
 1835POPC   GL225742   2.662  26.210   9.193
 1835POPC   C1A25743   2.664  25.866   8.804
 1835POPC   D2A25744   2.929  26.125   8.521
 1835POPC   C3A25745   2.900  26.057   8.075
 1835POPC   C4A25746   2.528  25.874   7.892
 1835POPC   C1B25747   2.515  26.358   8.784
 1835POPC   C2B25748   2.455  26.291   8.329
 1835POPC   C3B25749   2.551  26.455   7.914
 1835POPC   C4B25750   2.609  26.266   7.524
 1836POPC   NC325751  10.856   3.719   9.779
 1836POPC   PO425752  10.373   3.318   9.575
 1836POPC   GL125753  10.265   3.314   9.172
 1836POPC   GL225754  10.258   3.658   9.117
 1836POPC   C1A25755  10.480   3.310   8.764
 1836POPC   D2A25756  10.636   3.551   8.423
 1836POPC   C3A25757  10.567   3.293   8.073
 1836POPC   C4A25758  10.798   3.220   7.688
 1836POPC   C1B25759  10.289   3.794   8.712
 1836POPC   C2B25760  10.380   3.980   8.319
 1836POPC   C3B25761  10.529   3.855   7.910
 1836POPC   C4B25762  10.490   4.117   7.556
 1837POPC   NC325763  22.405  28.446   9.604
 1837POPC   PO425764  21.670  28.295   9.702
 1837POPC   GL125765  21.957  28.315   9.355
 1837POPC   GL225766  21.978  27.987   9.187
 1837POPC   C1A25767  21.996  28.460   8.916
 1837POPC   D2A25768  21.940  28.488   8.423
 1837POPC   C3A25769  22.299  28.483   8.121
 1837POPC   C4A25770  22.305  28.500   7.666
 1837POPC   C1B25771  21.892  28.014   8.713
 1837POPC   C2B25772  22.182  28.008   8.336
 1837POPC   C3B25773  22.138  28.045   7.878
 1837POPC   C4B25774  21.999  28.161   7.440
 1838POPC   NC325775   5.745  12.534   9.392
 1838POPC   PO425776   6.204  12.022   9.463
 1838POPC   GL125777   5.919  12.119   9.144
 1838POPC   GL225778   5.568  12.011   9.203
 1838POPC   C1A25779   6.007  12.292   8.753
 1838POPC   D2A25780   6.214  12.116   8.410
 1838POPC   C3A25781   6.153  12.305   8.042
 1838POPC   C4A25782   6.058  12.199   7.617
 1838POPC   C1B25783   5.640  11.845   8.779
 1838POPC   C2B25784   5.688  12.069   8.386
 1838POPC   C3B25785   5.653  12.248   7.989
 1838POPC   C4B25786   5.622  11.939   7.706
 1839POPC   NC325787  37.432  10.969   9.584
 1839POPC   PO425788  38.051  11.177   9.435
 1839POPC   GL125789  37.768  10.826   9.206
 1839POPC   GL225790  37.804  10.453   9.107
 1839POPC   C1A25791  37.636  10.759   8.756
 1839POPC   D2A25792  37.936  10.874   8.424
 1839POPC   C3A25793  37.718  10.863   8.050
 1839POPC   C4A25794  37.460  10.600   7.868
 1839POPC   C1B25795  38.009  10.412   8.674
 1839POPC   C2B25796  37.768  10.403   8.251
 1839POPC   C3B25797  37.845  10.283   7.797
 1839POPC   C4B25798  37.971  10.204   7.367
 1840POPC   NC325799  17.611  28.670   9.574
 1840POPC   PO425800  17.078  28.236   9.398
 1840POPC   GL125801  17.327  28.185   9.068
 1840POPC   GL225802  17.589  28.443   9.120
 1840POPC   C1A25803  17.479  28.106   8.661
 1840POPC   D2A25804  17.619  28.344   8.292
 1840POPC   C3A25805  17.636  28.246   7.833
 1840POPC   C4A25806  17.743  28.333   7.372
 1840POPC   C1B25807  17.418  28.593   8.754
 1840POPC   C2B25808  17.333  28.760   8.369
 1840POPC   C3B25809  17.531  28.754   7.972
 1840POPC   C4B25810  17.457  28.704   7.565
 1841POPC   NC325811   3.251  40.276  10.091
 1841POPC   PO425812   3.661  39.918   9.614
 1841POPC   GL125813   3.741  39.959   9.181
 1841POPC   GL225814   3.762  40.312   9.193
 1841POPC   C1A25815   3.536  39.853   8.803
 1841POPC   D2A25816   3.263  40.085   8.506
 1841POPC   C3A25817   3.258  40.002   8.069
 1841POPC   C4A25818   3.316  39.918   7.631
 1841POPC   C1B25819   3.549  40.382   8.804
 1841POPC   C2B25820   3.555  40.467   8.321
 1841POPC   C3B25821   3.467  40.419   7.829
 1841POPC   C4B25822   3.370  40.628   7.410
 1842POPC   NC325823   8.588  24.099   9.800
 1842POPC   PO425824   8.189  24.653   9.527
 1842POPC   GL125825   8.381  24.575   9.152
 1842POPC   GL225826   8.460  24.244   9.049
 1842POPC   C1A25827   8.465  24.636   8.742
 1842POPC   D2A25828   8.501  24.844   8.397
 1842POPC   C3A25829   8.192  24.807   8.078
 1842POPC   C4A25830   8.444  24.723   7.767
 1842POPC   C1B25831   8.149  24.222   8.729
 1842POPC   C2B25832   8.210  24.363   8.322
 1842POPC   C3B25833   8.352  24.220   7.919
 1842POPC   C4B25834   8.330  24.035   7.499
 1843POPC   NC325835  43.480  10.995   9.792
 1843POPC   PO425836  43.145  11.531   9.523
 1843POPC   GL125837  43.106  11.270   9.199
 1843POPC   GL225838  43.455  11.397   9.073
 1843POPC   C1A25839  43.075  11.260   8.770
 1843POPC   D2A25840  43.173  11.507   8.437
 1843POPC   C3A25841  43.030  11.320   8.054
 1843POPC   C4A25842  42.876  10.960   7.801
 1843POPC   C1B25843  43.586  11.201   8.658
 1843POPC   C2B25844  43.484  11.154   8.223
 1843POPC   C3B25845  43.483  11.421   7.857
 1843POPC   C4B25846  43.423  11.403   7.395
 1844POPC   NC325847  13.931  10.750   9.427
 1844POPC   PO425848  14.665  10.676   9.478
 1844POPC   GL125849  14.665  10.507   9.106
 1844POPC   GL225850  14.308  10.494   9.110
 1844POPC   C1A25851  14.628  10.389   8.688
 1844POPC   D2A25852  14.352  10.481   8.353
 1844POPC   C3A25853  14.485  10.374   7.940
 1844POPC   C4A25854  14.462  10.308   7.501
 1844POPC   C1B25855  14.192  10.745   8.787
 1844POPC   C2B25856  14.045  10.907   8.398
 1844POPC   C3B25857  14.027  10.708   8.015
 1844POPC   C4B25858  14.296  10.788   7.656
 1845POPC   NC325859  12.980   7.982   9.550
 1845POPC   PO425860  12.465   8.391   9.595
 1845POPC   GL125861  12.828   8.369   9.258
 1845POPC   GL225862  12.743   8.049   9.107
 1845POPC   C1A25863  13.031   8.394   8.837
 1845POPC   D2A25864  13.047   8.106   8.457
 1845POPC   C3A25865  13.030   8.254   8.023
 1845POPC   C4A25866  12.996   8.115   7.584
 1845POPC   C1B25867  12.578   8.158   8.720
 1845POPC   C2B25868  12.577   8.175   8.292
 1845POPC   C3B25869  12.549   8.122   7.880
 1845POPC   C4B25870  12.674   7.751   7.790
 1846POPC   NC325871  19.570  40.213   9.456
 1846POPC   PO425872  20.232  40.230   9.381
 1846POPC   GL125873  19.982  39.942   9.098
 1846POPC   GL225874  19.612  40.018   9.001
 1846POPC   C1A25875  19.917  39.938   8.641
 1846POPC   D2A25876  19.788  40.257   8.407
 1846POPC   C3A25877  19.938  40.129   8.050
 1846POPC   C4A25878  19.875  39.895   7.727
 1846POPC   C1B25879  19.459  39.725   8.661
 1846POPC   C2B25880  19.498  39.824   8.225
 1846POPC   C3B25881  19.421  39.639   7.832
 1846POPC   C4B25882  19.524  39.684   7.414
 1847POPC   NC325883  34.992  19.555   9.325
 1847POPC   PO425884  34.467  19.932   9.582
 1847POPC   GL125885  34.642  19.909   9.192
 1847POPC   GL225886  34.476  19.590   9.189
 1847POPC   C1A25887  34.810  19.966   8.771
 1847POPC   D2A25888  34.658  20.145   8.367
 1847POPC   C3A25889  34.504  19.904   8.012
 1847POPC   C4A25890  34.100  19.981   7.826
 1847POPC   C1B25891  34.364  19.713   8.774
 1847POPC   C2B25892  34.635  19.606   8.439
 1847POPC   C3B25893  34.719  19.402   8.084
 1847POPC   C4B25894  34.681  19.527   7.681
 1848POPC   NC325895  16.171  41.416   9.599
 1848POPC   PO425896  15.542  41.409   9.778
 1848POPC   GL125897  15.688  41.511   9.288
 1848POPC   GL225898  16.039  41.672   9.184
 1848POPC   C1A25899  15.671  41.712   8.831
 1848POPC   D2A25900  15.708  41.483   8.424
 1848POPC   C3A25901  15.830  41.589   7.992
 1848POPC   C4A25902  15.772  41.798   7.568
 1848POPC   C1B25903  16.085  41.396   8.816
 1848POPC   C2B25904  16.285  41.478   8.423
 1848POPC   C3B25905  16.472  41.492   8.013
 1848POPC   C4B25906  16.239  41.669   7.699
 1849POPC   NC325907   8.957  22.770   9.523
 1849POPC   PO425908   9.144  23.428   9.569
 1849POPC   GL125909   9.006  23.157   9.187
 1849POPC   GL225910   8.681  22.993   9.065
 1849POPC   C1A25911   9.081  22.920   8.777
 1849POPC   D2A25912   8.860  23.005   8.392
 1849POPC   C3A25913   9.054  23.048   7.999
 1849POPC   C4A25914   9.279  23.115   7.621
 1849POPC   C1B25915   8.614  22.621   8.785
 1849POPC   C2B25916   8.655  22.529   8.338
 1849POPC   C3B25917   8.638  22.741   7.906
 1849POPC   C4B25918   8.696  22.818   7.395
 1850POPC   NC325919  16.557  40.679   9.489
 1850POPC   PO425920  16.539  41.322   9.342
 1850POPC   GL125921  16.818  40.998   9.156
 1850POPC   GL225922  16.579  40.754   9.001
 1850POPC   C1A25923  17.010  40.786   8.779
 1850POPC   D2A25924  16.717  40.616   8.470
 1850POPC   C3A25925  16.861  40.692   8.065
 1850POPC   C4A25926  17.141  40.524   7.770
 1850POPC   C1B25927  16.524  41.070   8.676
 1850POPC   C2B25928  16.487  41.026   8.225
 1850POPC   C3B25929  16.338  41.031   7.794
 1850POPC   C4B25930  16.416  40.929   7.320
 1851POPC   NC325931  20.383  22.201   9.604
 1851POPC   PO425932  20.951  21.921   9.623
 1851POPC   GL125933  20.718  22.028   9.266
 1851POPC   GL225934  20.389  21.860   9.229
 1851POPC   C1A25935  20.586  22.294   8.915
 1851POPC   D2A25936  20.611  22.199   8.476
 1851POPC   C3A25937  20.970  22.399   8.264
 1851POPC   C4A25938  20.914  22.342   7.808
 1851POPC   C1B25939  20.647  21.786   8.840
 1851POPC   C2B25940  20.779  21.662   8.435
 1851POPC   C3B25941  20.602  21.766   8.048
 1851POPC   C4B25942  20.590  21.916   7.650
 1852POPC   NC325943  20.456  38.465   9.504
 1852POPC   PO425944  21.126  38.726   9.427
 1852POPC   GL125945  20.832  38.474   9.153
 1852POPC   GL225946  20.492  38.653   9.039
 1852POPC   C1A25947  20.663  38.276   8.774
 1852POPC   D2A25948  20.476  38.503   8.425
 1852POPC   C3A25949  20.623  38.393   8.008
 1852POPC   C4A25950  20.724  38.102   7.701
 1852POPC   C1B25951  20.451  38.965   8.710
 1852POPC   C2B25952  20.275  39.028   8.303
 1852POPC   C3B25953  20.186  38.709   7.990
 1852POPC   C4B25954  20.345  38.503   7.593
 1853POPC   NC325955  36.004  18.529   9.407
 1853POPC   PO425956  36.482  18.503   8.999
 1853POPC   GL125957  36.119  18.184   9.011
 1853POPC   GL225958  35.801  18.080   9.227
 1853POPC   C1A25959  36.098  18.065   8.592
 1853POPC   D2A25960  36.428  18.362   8.404
 1853POPC   C3A25961  36.397  18.458   7.949
 1853POPC   C4A25962  36.234  18.523   7.504
 1853POPC   C1B25963  35.619  18.092   8.832
 1853POPC   C2B25964  35.623  17.971   8.421
 1853POPC   C3B25965  35.587  18.134   8.032
 1853POPC   C4B25966  35.970  18.180   7.809
 1854POPC   NC325967  18.906   3.931   9.527
 1854POPC   PO425968  19.290   4.574   9.563
 1854POPC   GL125969  19.210   4.229   9.199
 1854POPC   GL225970  18.873   4.071   9.045
 1854POPC   C1A25971  19.292   4.141   8.748
 1854POPC   D2A25972  19.088   4.188   8.331
 1854POPC   C3A25973  19.246   4.224   7.914
 1854POPC   C4A25974  19.392   4.493   7.595
 1854POPC   C1B25975  18.825   4.395   8.737
 1854POPC   C2B25976  18.643   4.461   8.318
 1854POPC   C3B25977  18.758   4.410   7.866
 1854POPC   C4B25978  18.866   4.041   7.607
 1855POPC   NC325979  15.462   6.240   9.355
 1855POPC   PO425980  14.836   5.978   9.609
 1855POPC   GL125981  15.083   5.927   9.247
 1855POPC   GL225982  15.049   6.208   9.064
 1855POPC   C1A25983  15.282   5.710   8.919
 1855POPC   D2A25984  15.238   5.857   8.517
 1855POPC   C3A25985  15.030   5.813   8.140
 1855POPC   C4A25986  15.345   5.734   7.850
 1855POPC   C1B25987  15.313   6.332   8.708
 1855POPC   C2B25988  15.301   6.295   8.266
 1855POPC   C3B25989  15.277   6.241   7.828
 1855POPC   C4B25990  15.542   6.243   7.466
 1856POPC   NC325991  25.994   2.325   9.610
 1856POPC   PO425992  26.326   2.917   9.529
 1856POPC   GL125993  26.230   2.630   9.241
 1856POPC   GL225994  25.907   2.708   9.284
 1856POPC   C1A25995  26.217   2.734   8.836
 1856POPC   D2A25996  26.072   2.914   8.469
 1856POPC   C3A25997  26.230   2.710   8.082
 1856POPC   C4A25998  26.292   2.963   7.723
 1856POPC   C1B25999  25.764   2.521   8.958
 1856POPC   C2B26000  25.613   2.665   8.580
 1856POPC   C3B26001  25.723   2.661   8.175
 1856POPC   C4B26002  25.819   2.626   7.758
 1857POPC   NC326003   0.050   2.256   9.601
 1857POPC   PO426004  44.402   1.961   9.592
 1857POPC   GL126005  44.779   1.945   9.277
 1857POPC   GL226006  44.904   1.644   9.090
 1857POPC   C1A26007  44.797   2.189   8.890
 1857POPC   D2A26008  44.456   2.272   8.564
 1857POPC   C3A26009  44.443   2.080   8.166
 1857POPC   C4A26010  44.595   2.196   7.762
 1857POPC   C1B26011  44.604   1.738   8.722
 1857POPC   C2B26012  44.492   1.589   8.304
 1857POPC   C3B26013  44.701   1.692   7.909
 1857POPC   C4B26014  44.709   1.468   7.498
 1858POPC   NC326015  15.357  13.085   9.662
 1858POPC   PO426016  15.177  12.486   9.668
 1858POPC   GL126017  15.214  12.721   9.285
 1858POPC   GL226018  14.942  12.939   9.231
 1858POPC   C1A26019  15.199  12.788   8.823
 1858POPC   D2A26020  15.033  12.668   8.434
 1858POPC   C3A26021  15.379  12.697   8.141
 1858POPC   C4A26022  15.376  12.903   7.771
 1858POPC   C1B26023  14.716  13.022   8.840
 1858POPC   C2B26024  14.821  13.175   8.424
 1858POPC   C3B26025  14.944  12.996   8.034
 1858POPC   C4B26026  14.862  13.203   7.655
 1859POPC   NC326027  31.210  14.208   9.588
 1859POPC   PO426028  31.803  14.542   9.776
 1859POPC   GL126029  31.577  14.484   9.336
 1859POPC   GL226030  31.210  14.557   9.219
 1859POPC   C1A26031  31.578  14.493   8.873
 1859POPC   D2A26032  31.544  14.223   8.509
 1859POPC   C3A26033  31.429  14.416   8.119
 1859POPC   C4A26034  31.366  14.216   7.734
 1859POPC   C1B26035  31.096  14.296   8.840
 1859POPC   C2B26036  31.033  14.188   8.379
 1859POPC   C3B26037  30.926  14.413   7.972
 1859POPC   C4B26038  31.048  14.831   7.803
 1860POPC   NC326039  23.201  30.488   9.531
 1860POPC   PO426040  23.854  30.755   9.579
 1860POPC   GL126041  23.537  30.782   9.241
 1860POPC   GL226042  23.560  30.472   9.153
 1860POPC   C1A26043  23.398  30.848   8.810
 1860POPC   D2A26044  23.461  30.777   8.381
 1860POPC   C3A26045  23.514  31.023   8.050
 1860POPC   C4A26046  23.765  30.858   7.757
 1860POPC   C1B26047  23.473  30.320   8.764
 1860POPC   C2B26048  23.583  30.228   8.349
 1860POPC   C3B26049  23.579  30.370   7.906
 1860POPC   C4B26050  23.662  30.465   7.454
 1861POPC   NC326051  44.186  11.772   9.551
 1861POPC   PO426052  43.769  12.313   9.494
 1861POPC   GL126053  43.920  12.046   9.167
 1861POPC   GL226054  43.878  11.693   9.147
 1861POPC   C1A26055  44.121  12.043   8.758
 1861POPC   D2A26056  43.970  12.017   8.353
 1861POPC   C3A26057  44.205  11.965   7.982
 1861POPC   C4A26058  43.963  12.319   7.904
 1861POPC   C1B26059  43.713  11.705   8.734
 1861POPC   C2B26060  43.659  11.627   8.299
 1861POPC   C3B26061  43.701  11.876   7.910
 1861POPC   C4B26062  43.708  11.821   7.450
 1862POPC   NC326063  31.462  13.527   9.297
 1862POPC   PO426064  31.455  12.861   9.700
 1862POPC   GL126065  31.547  12.785   9.195
 1862POPC   GL226066  31.705  13.103   9.112
 1862POPC   C1A26067  31.646  12.677   8.730
 1862POPC   D2A26068  31.566  12.453   8.300
 1862POPC   C3A26069  31.493  12.677   7.889
 1862POPC   C4A26070  31.691  12.454   7.531
 1862POPC   C1B26071  31.566  13.194   8.706
 1862POPC   C2B26072  31.669  13.038   8.296
 1862POPC   C3B26073  31.423  13.230   7.953
 1862POPC   C4B26074  31.216  13.139   7.553
 1863POPC   NC326075  28.398   8.021   9.569
 1863POPC   PO426076  27.889   8.079   9.143
 1863POPC   GL126077  28.269   8.312   9.087
 1863POPC   GL226078  28.616   8.197   9.125
 1863POPC   C1A26079  28.320   8.504   8.700
 1863POPC   D2A26080  28.203   8.473   8.268
 1863POPC   C3A26081  28.110   8.045   8.065
 1863POPC   C4A26082  28.244   8.314   7.744
 1863POPC   C1B26083  28.721   8.197   8.735
 1863POPC   C2B26084  28.503   8.088   8.399
 1863POPC   C3B26085  28.625   8.062   7.993
 1863POPC   C4B26086  28.434   7.797   7.691
 1864POPC   NC326087  24.359  36.906   9.432
 1864POPC   PO426088  24.944  37.262   9.683
 1864POPC   GL126089  24.814  37.102   9.237
 1864POPC   GL226090  24.852  36.741   9.195
 1864POPC   C1A26091  24.612  37.131   8.783
 1864POPC   D2A26092  24.258  37.170   8.463
 1864POPC   C3A26093  24.358  37.175   8.022
 1864POPC   C4A26094  24.662  36.910   7.823
 1864POPC   C1B26095  24.798  36.640   8.746
 1864POPC   C2B26096  24.592  36.779   8.351
 1864POPC   C3B26097  24.163  36.724   8.168
 1864POPC   C4B26098  24.140  36.768   7.735
 1865POPC   NC326099  29.555  28.742   9.422
 1865POPC   PO426100  29.137  29.217   9.404
 1865POPC   GL126101  29.365  29.061   9.046
 1865POPC   GL226102  29.222  28.756   9.019
 1865POPC   C1A26103  29.414  29.166   8.601
 1865POPC   D2A26104  29.179  29.428   8.291
 1865POPC   C3A26105  29.192  29.262   7.894
 1865POPC   C4A26106  29.557  29.062   7.788
 1865POPC   C1B26107  28.940  28.986   8.721
 1865POPC   C2B26108  28.845  29.032   8.296
 1865POPC   C3B26109  28.791  28.899   7.890
 1865POPC   C4B26110  28.855  28.970   7.487
 1866POPC   NC326111  23.934  29.642   9.620
 1866POPC   PO426112  23.389  30.067   9.453
 1866POPC   GL126113  23.676  29.964   9.130
 1866POPC   GL226114  23.939  30.139   9.240
 1866POPC   C1A26115  23.608  29.814   8.708
 1866POPC   D2A26116  23.471  29.643   8.312
 1866POPC   C3A26117  23.701  29.851   7.983
 1866POPC   C4A26118  23.780  29.979   7.571
 1866POPC   C1B26119  23.980  30.185   8.762
 1866POPC   C2B26120  24.063  30.075   8.319
 1866POPC   C3B26121  24.110  30.177   7.903
 1866POPC   C4B26122  24.167  30.301   7.465
 1867POPC   NC326123  40.297  18.730   9.260
 1867POPC   PO426124  39.746  19.108   9.508
 1867POPC   GL126125  40.011  19.149   9.180
 1867POPC   GL226126  39.812  18.888   9.028
 1867POPC   C1A26127  40.085  19.208   8.742
 1867POPC   D2A26128  39.721  19.056   8.553
 1867POPC   C3A26129  39.878  19.009   8.132
 1867POPC   C4A26130  40.243  19.106   7.886
 1867POPC   C1B26131  40.073  18.695   8.663
 1867POPC   C2B26132  40.312  18.597   8.308
 1867POPC   C3B26133  40.255  18.585   7.896
 1867POPC   C4B26134  39.933  18.765   7.661
 1868POPC   NC326135  29.887   7.064   9.546
 1868POPC   PO426136  30.045   6.474   9.428
 1868POPC   GL126137  29.988   6.761   9.118
 1868POPC   GL226138  30.231   7.013   9.168
 1868POPC   C1A26139  29.903   6.679   8.695
 1868POPC   D2A26140  29.957   6.896   8.313
 1868POPC   C3A26141  29.726   6.676   7.993
 1868POPC   C4A26142  29.915   6.481   7.628
 1868POPC   C1B26143  30.230   7.215   8.778
 1868POPC   C2B26144  30.385   7.220   8.361
 1868POPC   C3B26145  30.429   6.932   8.036
 1868POPC   C4B26146  30.070   6.977   7.778
 1869POPC   NC326147  38.873  21.386   9.562
 1869POPC   PO426148  38.252  21.646   9.496
 1869POPC   GL126149  38.486  21.388   9.186
 1869POPC   GL226150  38.817  21.444   9.061
 1869POPC   C1A26151  38.339  21.090   8.876
 1869POPC   D2A26152  38.211  20.944   8.461
 1869POPC   C3A26153  38.381  21.245   8.148
 1869POPC   C4A26154  38.194  21.331   7.714
 1869POPC   C1B26155  38.674  21.431   8.631
 1869POPC   C2B26156  38.592  21.718   8.291
 1869POPC   C3B26157  38.616  21.612   7.867
 1869POPC   C4B26158  38.680  21.181   7.716
 1870POPC   NC326159  32.566  37.082   9.531
 1870POPC   PO426160  32.108  36.508   9.648
 1870POPC   GL126161  32.088  36.661   9.185
 1870POPC   GL226162  32.189  36.991   9.199
 1870POPC   C1A26163  32.349  36.659   8.751
 1870POPC   D2A26164  32.629  36.591   8.358
 1870POPC   C3A26165  32.590  36.847   7.980
 1870POPC   C4A26166  32.182  36.848   7.814
 1870POPC   C1B26167  32.279  37.163   8.825
 1870POPC   C2B26168  32.176  37.347   8.499
 1870POPC   C3B26169  32.287  37.252   8.103
 1870POPC   C4B26170  32.012  37.348   7.786
 1871POPC   NC326171  15.138  18.977   9.583
 1871POPC   PO426172  14.314  19.139   9.530
 1871POPC   GL126173  14.376  19.082   9.127
 1871POPC   GL226174  14.264  19.440   9.129
 1871POPC   C1A26175  14.404  18.950   8.753
 1871POPC   D2A26176  14.156  18.892   8.406
 1871POPC   C3A26177  14.331  19.077   8.072
 1871POPC   C4A26178  14.640  18.862   7.899
 1871POPC   C1B26179  14.462  19.549   8.792
 1871POPC   C2B26180  14.590  19.519   8.401
 1871POPC   C3B26181  14.553  19.542   8.019
 1871POPC   C4B26182  14.612  19.336   7.683
 1872POPC   NC326183  22.270   3.442   9.496
 1872POPC   PO426184  21.691   3.857   9.526
 1872POPC   GL126185  21.870   3.510   9.200
 1872POPC   GL226186  22.231   3.586   9.032
 1872POPC   C1A26187  21.834   3.460   8.757
 1872POPC   D2A26188  21.958   3.599   8.344
 1872POPC   C3A26189  22.079   3.358   7.996
 1872POPC   C4A26190  22.039   3.525   7.595
 1872POPC   C1B26191  22.462   3.300   8.795
 1872POPC   C2B26192  22.403   3.131   8.394
 1872POPC   C3B26193  22.529   3.107   7.997
 1872POPC   C4B26194  22.508   3.324   7.649
 1873POPC   NC326195  11.140  40.568   9.807
 1873POPC   PO426196  11.595  40.914   9.456
 1873POPC   GL126197  11.490  40.576   9.167
 1873POPC   GL226198  11.120  40.566   9.053
 1873POPC   C1A26199  11.484  40.592   8.705
 1873POPC   D2A26200  11.131  40.586   8.398
 1873POPC   C3A26201  11.290  40.716   8.000
 1873POPC   C4A26202  11.572  40.563   7.703
 1873POPC   C1B26203  11.139  40.969   8.755
 1873POPC   C2B26204  10.987  41.140   8.343
 1873POPC   C3B26205  10.978  41.086   7.872
 1873POPC   C4B26206  10.974  40.753   7.583
 1874POPC   NC326207  25.162  35.099   9.482
 1874POPC   PO426208  25.136  35.726   9.394
 1874POPC   GL126209  25.330  35.450   9.131
 1874POPC   GL226210  25.662  35.533   9.139
 1874POPC   C1A26211  25.342  35.228   8.737
 1874POPC   D2A26212  25.044  35.318   8.422
 1874POPC   C3A26213  25.107  35.185   8.024
 1874POPC   C4A26214  24.911  35.313   7.661
 1874POPC   C1B26215  25.602  35.663   8.739
 1874POPC   C2B26216  25.474  35.604   8.352
 1874POPC   C3B26217  25.550  35.507   7.963
 1874POPC   C4B26218  25.466  35.202   7.678
 1875POPC   NC326219   0.730  37.254   9.490
 1875POPC   PO426220   0.965  37.941   9.630
 1875POPC   GL126221   1.120  37.808   9.220
 1875POPC   GL226222   1.091  37.430   9.171
 1875POPC   C1A26223   1.127  37.911   8.772
 1875POPC   D2A26224   0.900  38.162   8.447
 1875POPC   C3A26225   0.931  38.106   8.043
 1875POPC   C4A26226   1.196  37.818   7.896
 1875POPC   C1B26227   1.148  37.346   8.721
 1875POPC   C2B26228   1.235  37.514   8.318
 1875POPC   C3B26229   1.310  37.316   7.909
 1875POPC   C4B26230   0.955  37.293   7.640
 1876POPC   NC326231  25.020  40.195   9.462
 1876POPC   PO426232  24.409  39.900   9.280
 1876POPC   GL126233  24.554  40.230   9.076
 1876POPC   GL226234  24.884  40.288   8.978
 1876POPC   C1A26235  24.470  40.264   8.663
 1876POPC   D2A26236  24.417  39.970   8.359
 1876POPC   C3A26237  24.686  40.118   8.059
 1876POPC   C4A26238  24.454  40.067   7.698
 1876POPC   C1B26239  24.875  39.937   8.681
 1876POPC   C2B26240  24.831  39.643   8.322
 1876POPC   C3B26241  24.775  39.670   7.864
 1876POPC   C4B26242  24.892  39.754   7.365
 1877POPC   NC326243  42.212  31.100   9.431
 1877POPC   PO426244  42.317  30.369   9.476
 1877POPC   GL126245  42.145  30.666   9.185
 1877POPC   GL226246  42.399  30.623   8.979
 1877POPC   C1A26247  42.013  30.925   8.801
 1877POPC   D2A26248  41.991  30.803   8.383
 1877POPC   C3A26249  42.309  30.820   8.085
 1877POPC   C4A26250  42.268  30.659   7.688
 1877POPC   C1B26251  42.498  30.730   8.569
 1877POPC   C2B26252  42.800  30.754   8.245
 1877POPC   C3B26253  42.693  30.472   7.910
 1877POPC   C4B26254  42.712  30.516   7.445
 1878POPC   NC326255  30.983  41.794   9.340
 1878POPC   PO426256  30.734  41.276   9.638
 1878POPC   GL126257  30.642  41.432   9.170
 1878POPC   GL226258  30.627  41.779   8.940
 1878POPC   C1A26259  30.926  41.422   8.793
 1878POPC   D2A26260  30.749  41.679   8.445
 1878POPC   C3A26261  30.791  41.469   8.049
 1878POPC   C4A26262  30.912  41.575   7.655
 1878POPC   C1B26263  30.996  42.032   8.736
 1878POPC   C2B26264  31.205  42.011   8.349
 1878POPC   C3B26265  30.959  41.953   7.999
 1878POPC   C4B26266  30.631  42.204   7.806
 1879POPC   NC326267   2.843   5.543   9.473
 1879POPC   PO426268   2.491   4.900   9.443
 1879POPC   GL126269   2.818   5.027   9.115
 1879POPC   GL226270   3.041   5.320   9.044
 1879POPC   C1A26271   2.743   5.138   8.664
 1879POPC   D2A26272   2.349   5.203   8.430
 1879POPC   C3A26273   2.481   5.055   8.064
 1879POPC   C4A26274   2.588   5.223   7.701
 1879POPC   C1B26275   3.226   5.010   8.765
 1879POPC   C2B26276   3.203   4.913   8.345
 1879POPC   C3B26277   2.991   5.143   8.042
 1879POPC   C4B26278   3.085   5.309   7.631
 1880POPC   NC326279  33.922  38.254   9.474
 1880POPC   PO426280  33.487  38.753   9.429
 1880POPC   GL126281  33.789  38.652   9.102
 1880POPC   GL226282  34.106  38.467   9.074
 1880POPC   C1A26283  33.820  38.544   8.669
 1880POPC   D2A26284  33.747  38.353   8.314
 1880POPC   C3A26285  33.796  38.605   7.991
 1880POPC   C4A26286  33.835  38.288   7.728
 1880POPC   C1B26287  34.341  38.411   8.749
 1880POPC   C2B26288  34.265  38.557   8.374
 1880POPC   C3B26289  34.239  38.346   8.031
 1880POPC   C4B26290  34.319  38.227   7.637
 1881POPC   NC326291   4.318  20.896   9.464
 1881POPC   PO426292   4.551  20.228   9.463
 1881POPC   GL126293   4.421  20.485   9.142
 1881POPC   GL226294   4.078  20.509   9.222
 1881POPC   C1A26295   4.492  20.786   8.818
 1881POPC   D2A26296   4.579  20.805   8.390
 1881POPC   C3A26297   4.663  20.429   8.182
 1881POPC   C4A26298   4.588  20.502   7.749
 1881POPC   C1B26299   4.023  20.596   8.813
 1881POPC   C2B26300   4.181  20.483   8.446
 1881POPC   C3B26301   4.180  20.586   8.047
 1881POPC   C4B26302   3.913  20.732   7.737
 1882POPC   NC326303  38.916  10.566   9.537
 1882POPC   PO426304  39.525  10.343   9.523
 1882POPC   GL126305  39.411  10.619   9.186
 1882POPC   GL226306  39.645  10.900   9.177
 1882POPC   C1A26307  39.160  10.567   8.798
 1882POPC   D2A26308  39.255  10.346   8.419
 1882POPC   C3A26309  39.129  10.484   8.024
 1882POPC   C4A26310  39.289  10.270   7.666
 1882POPC   C1B26311  39.504  10.931   8.750
 1882POPC   C2B26312  39.285  10.879   8.335
 1882POPC   C3B26313  39.483  10.852   7.913
 1882POPC   C4B26314  39.385  10.750   7.461
 1883POPC   NC326315  21.700  31.115   9.766
 1883POPC   PO426316  22.214  31.544   9.480
 1883POPC   GL126317  22.405  31.739   9.143
 1883POPC   GL226318  22.095  31.922   9.067
 1883POPC   C1A26319  22.464  31.745   8.724
 1883POPC   D2A26320  22.285  31.749   8.346
 1883POPC   C3A26321  22.223  31.382   8.095
 1883POPC   C4A26322  22.472  31.542   7.750
 1883POPC   C1B26323  21.927  31.676   8.721
 1883POPC   C2B26324  21.785  31.705   8.300
 1883POPC   C3B26325  21.959  31.773   7.911
 1883POPC   C4B26326  21.990  31.463   7.624
 1884POPC   NC326327  35.320   4.466   9.603
 1884POPC   PO426328  35.984   4.401   9.465
 1884POPC   GL126329  35.692   4.388   9.090
 1884POPC   GL226330  35.362   4.505   9.101
 1884POPC   C1A26331  35.464   4.186   8.701
 1884POPC   D2A26332  35.398   3.954   8.258
 1884POPC   C3A26333  35.385   4.219   7.878
 1884POPC   C4A26334  35.515   4.659   7.874
 1884POPC   C1B26335  35.007   4.471   8.802
 1884POPC   C2B26336  34.900   4.238   8.414
 1884POPC   C3B26337  34.965   4.476   8.021
 1884POPC   C4B26338  34.936   4.500   7.578
 1885POPC   NC326339  20.565  34.285   9.525
 1885POPC   PO426340  21.081  34.705   9.394
 1885POPC   GL126341  20.798  34.604   9.134
 1885POPC   GL226342  20.886  34.258   9.106
 1885POPC   C1A26343  20.678  34.823   8.745
 1885POPC   D2A26344  20.864  34.824   8.319
 1885POPC   C3A26345  20.553  34.788   7.997
 1885POPC   C4A26346  20.274  34.916   7.681
 1885POPC   C1B26347  20.504  34.320   8.839
 1885POPC   C2B26348  20.445  34.466   8.425
 1885POPC   C3B26349  20.509  34.270   8.033
 1885POPC   C4B26350  20.378  34.421   7.673
 1886POPC   NC326351   3.797  43.643   9.489
 1886POPC   PO426352   3.297  44.136   9.533
 1886POPC   GL126353   3.580  44.047   9.194
 1886POPC   GL226354   3.469  43.683   9.080
 1886POPC   C1A26355   3.775  43.986   8.790
 1886POPC   D2A26356   3.719  43.591   8.525
 1886POPC   C3A26357   3.659  43.620   8.082
 1886POPC   C4A26358   3.873  43.976   7.894
 1886POPC   C1B26359   3.298  43.830   8.665
 1886POPC   C2B26360   3.532  44.069   8.329
 1886POPC   C3B26361   3.382  44.182   7.918
 1886POPC   C4B26362   3.184  43.800   7.847
 1887POPC   NC326363   5.265  24.018   9.671
 1887POPC   PO426364   4.953  23.411   9.476
 1887POPC   GL126365   5.200  23.569   9.200
 1887POPC   GL226366   4.959  23.662   8.916
 1887POPC   C1A26367   5.407  23.423   8.837
 1887POPC   D2A26368   5.256  23.607   8.472
 1887POPC   C3A26369   5.416  23.456   8.117
 1887POPC   C4A26370   5.230  23.638   7.741
 1887POPC   C1B26371   4.741  23.925   8.569
 1887POPC   C2B26372   4.771  24.232   8.249
 1887POPC   C3B26373   4.925  23.994   7.958
 1887POPC   C4B26374   4.909  24.041   7.564
 1888POPC   NC326375   2.573  33.444   9.578
 1888POPC   PO426376   1.934  33.790   9.455
 1888POPC   GL126377   2.034  33.821   9.071
 1888POPC   GL226378   2.382  33.737   9.160
 1888POPC   C1A26379   1.848  33.882   8.665
 1888POPC   D2A26380   1.660  33.623   8.322
 1888POPC   C3A26381   1.819  33.767   7.952
 1888POPC   C4A26382   2.051  34.121   7.822
 1888POPC   C1B26383   2.359  33.613   8.755
 1888POPC   C2B26384   2.167  33.563   8.411
 1888POPC   C3B26385   2.312  33.640   8.021
 1888POPC   C4B26386   2.154  33.661   7.582
 1889POPC   NC326387  19.828  18.570   9.508
 1889POPC   PO426388  19.565  18.047   9.763
 1889POPC   GL126389  19.959  18.166   9.244
 1889POPC   GL226390  20.036  18.492   9.073
 1889POPC   C1A26391  19.882  18.196   8.737
 1889POPC   D2A26392  19.944  18.038   8.351
 1889POPC   C3A26393  19.703  18.266   8.044
 1889POPC   C4A26394  19.927  18.184   7.699
 1889POPC   C1B26395  20.151  18.712   8.708
 1889POPC   C2B26396  19.976  18.622   8.327
 1889POPC   C3B26397  20.173  18.550   7.944
 1889POPC   C4B26398  20.212  18.621   7.517
 1890POPC   NC326399  38.620  16.426   9.543
 1890POPC   PO426400  38.616  17.111   9.536
 1890POPC   GL126401  38.451  16.861   9.171
 1890POPC   GL226402  38.482  16.522   9.074
 1890POPC   C1A26403  38.397  16.948   8.736
 1890POPC   D2A26404  38.513  16.814   8.306
 1890POPC   C3A26405  38.176  16.695   8.040
 1890POPC   C4A26406  38.090  16.835   7.620
 1890POPC   C1B26407  38.585  16.468   8.680
 1890POPC   C2B26408  38.574  16.227   8.351
 1890POPC   C3B26409  38.677  16.426   7.967
 1890POPC   C4B26410  38.595  16.831   7.776
 1891POPC   NC326411  17.845  25.437   9.862
 1891POPC   PO426412  17.324  25.490   9.431
 1891POPC   GL126413  17.419  25.104   9.280
 1891POPC   GL226414  17.536  25.341   8.986
 1891POPC   C1A26415  17.373  24.880   8.892
 1891POPC   D2A26416  17.432  25.122   8.522
 1891POPC   C3A26417  17.374  24.930   8.117
 1891POPC   C4A26418  17.506  25.034   7.708
 1891POPC   C1B26419  17.818  25.507   8.665
 1891POPC   C2B26420  17.838  25.433   8.217
 1891POPC   C3B26421  17.879  25.461   7.755
 1891POPC   C4B26422  17.958  25.471   7.309
 1892POPC   NC326423  43.952  44.971   9.652
 1892POPC   PO426424  44.201   0.566   9.707
 1892POPC   GL126425  44.070   0.472   9.294
 1892POPC   GL226426  44.212   0.656   9.027
 1892POPC   C1A26427  43.733   0.459   8.999
 1892POPC   D2A26428  43.687   0.315   8.567
 1892POPC   C3A26429  43.530   0.558   8.212
 1892POPC   C4A26430  43.677   0.407   7.782
 1892POPC   C1B26431  44.178   0.280   8.789
 1892POPC   C2B26432  44.156   0.185   8.365
 1892POPC   C3B26433  44.156   0.218   7.918
 1892POPC   C4B26434  44.079   0.212   7.506
 1893POPC   NC326435   4.372   8.778   9.298
 1893POPC   PO426436   4.389   8.172   9.596
 1893POPC   GL126437   4.244   8.244   9.180
 1893POPC   GL226438   3.979   8.480   9.172
 1893POPC   C1A26439   4.330   8.039   8.767
 1893POPC   D2A26440   4.606   8.090   8.398
 1893POPC   C3A26441   4.518   7.872   8.003
 1893POPC   C4A26442   4.164   7.950   7.735
 1893POPC   C1B26443   4.118   8.500   8.731
 1893POPC   C2B26444   4.063   8.282   8.361
 1893POPC   C3B26445   4.294   8.354   8.002
 1893POPC   C4B26446   4.129   8.434   7.573
 1894POPC   NC326447  40.851  31.933   9.725
 1894POPC   PO426448  40.239  31.859   9.382
 1894POPC   GL126449  40.682  32.030   9.166
 1894POPC   GL226450  41.001  31.871   9.173
 1894POPC   C1A26451  40.938  32.355   8.920
 1894POPC   D2A26452  40.892  32.420   8.461
 1894POPC   C3A26453  41.080  32.529   8.061
 1894POPC   C4A26454  40.828  32.380   7.687
 1894POPC   C1B26455  40.888  31.906   8.701
 1894POPC   C2B26456  40.991  31.941   8.251
 1894POPC   C3B26457  41.200  32.079   7.862
 1894POPC   C4B26458  41.027  31.984   7.398
 1895POPC   NC326459  30.487  34.734   9.453
 1895POPC   PO426460  31.091  34.389   9.555
 1895POPC   GL126461  30.870  34.509   9.201
 1895POPC   GL226462  30.560  34.313   9.173
 1895POPC   C1A26463  30.715  34.585   8.774
 1895POPC   D2A26464  30.611  34.665   8.365
 1895POPC   C3A26465  30.935  34.806   8.061
 1895POPC   C4A26466  30.702  34.725   7.722
 1895POPC   C1B26467  30.479  34.115   8.799
 1895POPC   C2B26468  30.321  34.188   8.408
 1895POPC   C3B26469  30.379  34.378   8.007
 1895POPC   C4B26470  30.613  34.222   7.672
 1896POPC   NC326471  40.019  29.742   9.490
 1896POPC   PO426472  39.787  30.404   9.385
 1896POPC   GL126473  39.884  30.014   9.106
 1896POPC   GL226474  40.231  29.877   9.028
 1896POPC   C1A26475  39.742  29.820   8.723
 1896POPC   D2A26476  39.758  30.013   8.305
 1896POPC   C3A26477  39.667  29.833   7.885
 1896POPC   C4A26478  39.790  29.912   7.394
 1896POPC   C1B26479  40.223  29.955   8.568
 1896POPC   C2B26480  40.224  30.178   8.166
 1896POPC   C3B26481  40.118  30.010   7.753
 1896POPC   C4B26482  40.269  29.689   7.433
 1897POPC   NC326483   5.004  18.339   9.536
 1897POPC   PO426484   4.785  17.788   9.446
 1897POPC   GL126485   4.938  18.060   9.094
 1897POPC   GL226486   5.019  18.432   9.035
 1897POPC   C1A26487   5.062  18.101   8.659
 1897POPC   D2A26488   5.093  18.431   8.341
 1897POPC   C3A26489   4.961  18.342   7.880
 1897POPC   C4A26490   5.025  18.031   7.528
 1897POPC   C1B26491   5.419  18.498   8.759
 1897POPC   C2B26492   5.522  18.716   8.355
 1897POPC   C3B26493   5.465  18.398   7.992
 1897POPC   C4B26494   5.380  18.426   7.541
 1898POPC   NC326495  27.778  34.959   9.559
 1898POPC   PO426496  27.310  34.583   9.489
 1898POPC   GL126497  27.510  34.764   9.169
 1898POPC   GL226498  27.252  34.975   9.127
 1898POPC   C1A26499  27.781  34.644   8.807
 1898POPC   D2A26500  27.878  34.753   8.373
 1898POPC   C3A26501  27.627  34.570   8.035
 1898POPC   C4A26502  27.745  34.445   7.618
 1898POPC   C1B26503  27.239  34.725   8.742
 1898POPC   C2B26504  27.103  34.733   8.328
 1898POPC   C3B26505  27.204  34.805   7.897
 1898POPC   C4B26506  27.260  34.489   7.535
 1899POPC   NC326507  21.758  18.552   9.436
 1899POPC   PO426508  21.119  18.387   9.541
 1899POPC   GL126509  21.260  18.195   9.184
 1899POPC   GL226510  20.977  18.377   9.054
 1899POPC   C1A26511  21.543  18.323   8.860
 1899POPC   D2A26512  21.485  18.273   8.433
 1899POPC   C3A26513  21.542  18.523   8.095
 1899POPC   C4A26514  21.732  18.390   7.743
 1899POPC   C1B26515  21.007  18.218   8.678
 1899POPC   C2B26516  21.012  18.452   8.322
 1899POPC   C3B26517  21.028  18.222   7.993
 1899POPC   C4B26518  21.212  18.341   7.665
 1900POPC   NC326519  27.382  26.615   9.368
 1900POPC   PO426520  27.863  27.102   9.416
 1900POPC   GL126521  27.853  26.828   9.076
 1900POPC   GL226522  27.514  26.866   8.958
 1900POPC   C1A26523  27.974  26.674   8.657
 1900POPC   D2A26524  27.774  26.487   8.271
 1900POPC   C3A26525  27.626  26.767   7.963
 1900POPC   C4A26526  27.679  26.592   7.571
 1900POPC   C1B26527  27.495  26.875   8.533
 1900POPC   C2B26528  27.760  27.141   8.322
 1900POPC   C3B26529  27.803  27.244   7.904
 1900POPC   C4B26530  27.719  27.084   7.477
 1901POPC   NC326531   6.135  23.941   9.484
 1901POPC   PO426532   5.578  23.677   9.620
 1901POPC   GL126533   5.682  23.744   9.147
 1901POPC   GL226534   6.016  23.843   9.014
 1901POPC   C1A26535   5.630  23.875   8.706
 1901POPC   D2A26536   5.805  23.784   8.341
 1901POPC   C3A26537   5.616  23.905   7.993
 1901POPC   C4A26538   5.752  23.596   7.695
 1901POPC   C1B26539   6.115  24.078   8.640
 1901POPC   C2B26540   6.296  23.969   8.290
 1901POPC   C3B26541   6.134  23.879   7.932
 1901POPC   C4B26542   5.939  24.129   7.669
 1902POPC   NC326543   9.188  33.713   9.612
 1902POPC   PO426544   8.621  33.450   9.355
 1902POPC   GL126545   8.936  33.608   9.157
 1902POPC   GL226546   8.856  33.901   9.235
 1902POPC   C1A26547   9.232  33.660   8.845
 1902POPC   D2A26548   9.211  33.846   8.427
 1902POPC   C3A26549   8.959  33.733   8.102
 1902POPC   C4A26550   9.079  33.876   7.696
 1902POPC   C1B26551   8.915  34.044   8.818
 1902POPC   C2B26552   8.672  34.060   8.414
 1902POPC   C3B26553   8.793  34.202   7.997
 1902POPC   C4B26554   8.761  34.245   7.569
 1903POPC   NC326555  20.498  25.468   9.601
 1903POPC   PO426556  20.549  24.825   9.450
 1903POPC   GL126557  20.603  25.176   9.196
 1903POPC   GL226558  20.914  25.396   9.293
 1903POPC   C1A26559  20.527  25.158   8.780
 1903POPC   D2A26560  20.641  24.937   8.438
 1903POPC   C3A26561  20.443  25.117   8.078
 1903POPC   C4A26562  20.422  24.958   7.677
 1903POPC   C1B26563  20.771  25.567   8.910
 1903POPC   C2B26564  20.759  25.476   8.478
 1903POPC   C3B26565  20.697  25.574   8.073
 1903POPC   C4B26566  20.740  25.365   7.722
 1904POPC   NC326567   1.116  41.692   9.726
 1904POPC   PO426568   1.717  41.432   9.644
 1904POPC   GL126569   1.443  41.469   9.245
 1904POPC   GL226570   1.149  41.727   9.209
 1904POPC   C1A26571   1.406  41.603   8.792
 1904POPC   D2A26572   1.465  41.594   8.361
 1904POPC   C3A26573   1.173  41.386   8.140
 1904POPC   C4A26574   1.295  41.466   7.764
 1904POPC   C1B26575   0.911  41.664   8.790
 1904POPC   C2B26576   0.968  41.803   8.348
 1904POPC   C3B26577   0.837  41.719   7.897
 1904POPC   C4B26578   0.993  41.710   7.455
 1905POPC   NC326579  37.066  42.480   9.454
 1905POPC   PO426580  36.636  42.001   9.341
 1905POPC   GL126581  36.877  42.179   9.072
 1905POPC   GL226582  37.205  42.056   9.159
 1905POPC   C1A26583  36.820  42.351   8.684
 1905POPC   D2A26584  36.923  42.134   8.337
 1905POPC   C3A26585  36.810  42.318   8.013
 1905POPC   C4A26586  36.844  42.120   7.672
 1905POPC   C1B26587  37.300  42.362   8.837
 1905POPC   C2B26588  37.276  42.475   8.408
 1905POPC   C3B26589  37.306  42.347   7.963
 1905POPC   C4B26590  37.074  42.603   7.669
 1906POPC   NC326591  35.695  15.776   9.460
 1906POPC   PO426592  36.315  16.036   9.505
 1906POPC   GL126593  36.135  16.141   9.143
 1906POPC   GL226594  36.074  15.794   9.118
 1906POPC   C1A26595  36.163  16.061   8.707
 1906POPC   D2A26596  36.368  15.984   8.331
 1906POPC   C3A26597  36.114  15.959   7.978
 1906POPC   C4A26598  35.973  16.207   7.658
 1906POPC   C1B26599  35.817  15.578   8.828
 1906POPC   C2B26600  35.888  15.721   8.406
 1906POPC   C3B26601  35.650  15.681   8.074
 1906POPC   C4B26602  35.729  15.764   7.682
 1907POPC   NC326603   2.563  22.487   9.272
 1907POPC   PO426604   2.953  22.045   9.583
 1907POPC   GL126605   2.922  21.982   9.167
 1907POPC   GL226606   3.179  22.232   9.076
 1907POPC   C1A26607   2.677  21.975   8.797
 1907POPC   D2A26608   2.782  22.121   8.413
 1907POPC   C3A26609   2.719  21.925   8.038
 1907POPC   C4A26610   2.627  22.064   7.696
 1907POPC   C1B26611   2.933  22.485   8.756
 1907POPC   C2B26612   2.882  22.606   8.341
 1907POPC   C3B26613   3.001  22.355   8.012
 1907POPC   C4B26614   2.943  22.556   7.686
 1908POPC   NC326615  26.323   1.623   9.547
 1908POPC   PO426616  25.701   1.948   9.564
 1908POPC   GL126617  26.039   1.930   9.237
 1908POPC   GL226618  26.041   1.562   9.134
 1908POPC   C1A26619  26.172   2.173   8.866
 1908POPC   D2A26620  26.064   2.395   8.472
 1908POPC   C3A26621  25.923   2.196   8.066
 1908POPC   C4A26622  26.057   2.203   7.637
 1908POPC   C1B26623  25.866   1.723   8.792
 1908POPC   C2B26624  26.058   1.865   8.430
 1908POPC   C3B26625  26.246   1.740   8.054
 1908POPC   C4B26626  25.945   1.718   7.739
 1909POPC   NC326627  32.919   7.103   9.829
 1909POPC   PO426628  33.050   7.501   9.307
 1909POPC   GL126629  33.123   7.147   9.050
 1909POPC   GL226630  33.461   7.316   9.041
 1909POPC   C1A26631  32.865   7.045   8.646
 1909POPC   D2A26632  32.562   7.297   8.384
 1909POPC   C3A26633  32.796   7.668   8.229
 1909POPC   C4A26634  32.853   7.810   7.823
 1909POPC   C1B26635  33.349   7.285   8.598
 1909POPC   C2B26636  33.101   7.226   8.217
 1909POPC   C3B26637  33.153   7.357   7.793
 1909POPC   C4B26638  33.347   7.168   7.415
 1910POPC   NC326639  33.929   6.277   9.392
 1910POPC   PO426640  33.842   5.705   9.692
 1910POPC   GL126641  33.824   5.774   9.237
 1910POPC   GL226642  33.649   6.047   9.047
 1910POPC   C1A26643  33.732   5.554   8.856
 1910POPC   D2A26644  33.949   5.518   8.490
 1910POPC   C3A26645  33.774   5.622   8.110
 1910POPC   C4A26646  33.969   5.800   7.753
 1910POPC   C1B26647  34.018   5.989   8.783
 1910POPC   C2B26648  34.002   6.013   8.345
 1910POPC   C3B26649  34.089   6.237   8.002
 1910POPC   C4B26650  33.945   6.329   7.596
 1911POPC   NC326651  20.245  15.999   9.453
 1911POPC   PO426652  20.578  15.405   9.528
 1911POPC   GL126653  20.448  15.612   9.126
 1911POPC   GL226654  20.377  15.946   8.981
 1911POPC   C1A26655  20.703  15.663   8.747
 1911POPC   D2A26656  20.772  16.003   8.472
 1911POPC   C3A26657  20.683  15.863   8.072
 1911POPC   C4A26658  20.931  15.634   7.824
 1911POPC   C1B26659  20.282  16.267   8.698
 1911POPC   C2B26660  20.502  16.415   8.348
 1911POPC   C3B26661  20.804  16.343   8.014
 1911POPC   C4B26662  20.417  16.268   7.822
 1912POPC   NC326663  36.378  39.088   9.531
 1912POPC   PO426664  35.818  39.479   9.681
 1912POPC   GL126665  36.123  39.488   9.238
 1912POPC   GL226666  36.119  39.146   9.095
 1912POPC   C1A26667  36.033  39.562   8.745
 1912POPC   D2A26668  36.056  39.301   8.392
 1912POPC   C3A26669  36.170  39.442   8.001
 1912POPC   C4A26670  35.997  39.101   7.760
 1912POPC   C1B26671  36.408  39.207   8.769
 1912POPC   C2B26672  36.468  38.964   8.363
 1912POPC   C3B26673  36.473  39.039   7.914
 1912POPC   C4B26674  36.413  38.909   7.466
 1913POPC   NC326675  32.239   4.169   9.576
 1913POPC   PO426676  32.664   3.704   9.453
 1913POPC   GL126677  32.503   4.044   9.142
 1913POPC   GL226678  32.337   4.415   9.149
 1913POPC   C1A26679  32.197   4.044   8.805
 1913POPC   D2A26680  32.129   3.796   8.436
 1913POPC   C3A26681  32.409   3.899   8.099
 1913POPC   C4A26682  32.338   4.230   7.799
 1913POPC   C1B26683  32.096   4.566   8.786
 1913POPC   C2B26684  32.237   4.709   8.356
 1913POPC   C3B26685  32.155   4.703   7.897
 1913POPC   C4B26686  31.886   4.444   7.614
 1914POPC   NC326687  22.689  34.683   9.516
 1914POPC   PO426688  23.199  34.263   9.385
 1914POPC   GL126689  22.950  34.564   9.099
 1914POPC   GL226690  22.670  34.864   9.046
 1914POPC   C1A26691  23.092  34.731   8.714
 1914POPC   D2A26692  23.312  34.794   8.331
 1914POPC   C3A26693  23.031  34.788   7.930
 1914POPC   C4A26694  22.855  34.383   7.772
 1914POPC   C1B26695  22.607  34.571   8.720
 1914POPC   C2B26696  22.704  34.714   8.331
 1914POPC   C3B26697  22.474  34.670   7.977
 1914POPC   C4B26698  22.386  34.709   7.542
 1915POPC   NC326699  23.747  25.525   9.468
 1915POPC   PO426700  23.625  24.922   9.718
 1915POPC   GL126701  23.765  24.973   9.236
 1915POPC   GL226702  23.944  25.277   9.090
 1915POPC   C1A26703  23.634  25.088   8.777
 1915POPC   D2A26704  23.638  25.318   8.397
 1915POPC   C3A26705  23.949  25.215   8.141
 1915POPC   C4A26706  23.918  24.985   7.806
 1915POPC   C1B26707  23.845  25.601   8.761
 1915POPC   C2B26708  24.059  25.670   8.343
 1915POPC   C3B26709  23.835  25.706   7.938
 1915POPC   C4B26710  23.534  25.379   7.876
 1916POPC   NC326711  24.697  44.867   9.684
 1916POPC   PO426712  24.198  44.469   9.485
 1916POPC   GL126713  24.275  44.667   9.118
 1916POPC   GL226714  24.621  44.767   9.186
 1916POPC   C1A26715  24.502  44.648   8.715
 1916POPC   D2A26716  24.694  44.359   8.433
 1916POPC   C3A26717  24.759  44.583   8.076
 1916POPC   C4A26718  24.459  44.787   7.842
 1916POPC   C1B26719  24.758   0.095   8.861
 1916POPC   C2B26720  24.923   0.238   8.434
 1916POPC   C3B26721  24.875   0.118   7.990
 1916POPC   C4B26722  24.936  44.836   7.616
 1917POPC   NC326723  41.957  13.008   9.502
 1917POPC   PO426724  41.338  13.086   9.480
 1917POPC   GL126725  41.420  12.927   9.089
 1917POPC   GL226726  41.774  12.923   8.958
 1917POPC   C1A26727  41.301  12.855   8.676
 1917POPC   D2A26728  41.515  13.036   8.335
 1917POPC   C3A26729  41.367  13.040   7.910
 1917POPC   C4A26730  41.756  13.184   7.673
 1917POPC   C1B26731  41.676  12.508   8.746
 1917POPC   C2B26732  41.639  12.451   8.295
 1917POPC   C3B26733  41.747  12.702   7.915
 1917POPC   C4B26734  41.492  12.774   7.490
 1918POPC   NC326735  40.761  17.274   9.550
 1918POPC   PO426736  41.122  17.803   9.624
 1918POPC   GL126737  40.928  17.580   9.164
 1918POPC   GL226738  40.976  17.173   9.074
 1918POPC   C1A26739  40.557  17.409   8.901
 1918POPC   D2A26740  40.425  17.190   8.505
 1918POPC   C3A26741  40.728  17.320   8.184
 1918POPC   C4A26742  40.679  17.558   7.792
 1918POPC   C1B26743  41.121  17.367   8.687
 1918POPC   C2B26744  41.248  17.212   8.255
 1918POPC   C3B26745  41.097  17.239   7.835
 1918POPC   C4B26746  41.072  17.461   7.474
 1919POPC   NC326747  22.878  23.491   9.674
 1919POPC   PO426748  23.156  24.164   9.632
 1919POPC   GL126749  22.950  23.866   9.263
 1919POPC   GL226750  22.788  23.499   9.156
 1919POPC   C1A26751  22.896  23.861   8.804
 1919POPC   D2A26752  23.058  23.965   8.371
 1919POPC   C3A26753  22.862  23.651   8.089
 1919POPC   C4A26754  22.879  23.544   7.639
 1919POPC   C1B26755  22.952  23.235   8.797
 1919POPC   C2B26756  23.054  23.221   8.346
 1919POPC   C3B26757  23.119  23.206   7.896
 1919POPC   C4B26758  23.353  23.404   7.527
 1920POPC   NC326759  14.657  42.509   9.501
 1920POPC   PO426760  14.252  42.022   9.343
 1920POPC   GL126761  14.237  42.372   9.137
 1920POPC   GL226762  14.567  42.403   9.023
 1920POPC   C1A26763  14.099  42.529   8.751
 1920POPC   D2A26764  14.269  42.509   8.335
 1920POPC   C3A26765  14.031  42.621   7.967
 1920POPC   C4A26766  14.106  42.514   7.523
 1920POPC   C1B26767  14.477  42.138   8.707
 1920POPC   C2B26768  14.653  42.125   8.322
 1920POPC   C3B26769  14.463  42.194   7.954
 1920POPC   C4B26770  14.547  41.930   7.662
 1921POPC   NC326771  28.441  44.351   9.230
 1921POPC   PO426772  28.948  44.756   9.582
 1921POPC   GL126773  28.610  44.830   9.239
 1921POPC   GL226774  28.207  44.770   9.153
 1921POPC   C1A26775  28.624  44.773   8.779
 1921POPC   D2A26776  28.489  44.846   8.377
 1921POPC   C3A26777  28.505  44.550   8.057
 1921POPC   C4A26778  28.460  44.721   7.628
 1921POPC   C1B26779  28.114  44.619   8.737
 1921POPC   C2B26780  27.986  44.848   8.393
 1921POPC   C3B26781  28.114  44.854   7.992
 1921POPC   C4B26782  28.038  44.442   7.790
 1922POPC   NC326783  18.228  38.912   9.476
 1922POPC   PO426784  18.575  39.498   9.442
 1922POPC   GL126785  18.216  39.336   9.182
 1922POPC   GL226786  17.941  39.588   9.136
 1922POPC   C1A26787  18.292  39.107   8.780
 1922POPC   D2A26788  18.686  39.145   8.499
 1922POPC   C3A26789  18.521  39.218   8.076
 1922POPC   C4A26790  18.132  39.084   7.916
 1922POPC   C1B26791  18.181  39.627   8.773
 1922POPC   C2B26792  18.105  39.416   8.391
 1922POPC   C3B26793  18.109  39.590   8.030
 1922POPC   C4B26794  18.291  39.533   7.673
 1923POPC   NC326795  36.994  39.871   9.623
 1923POPC   PO426796  36.425  40.217   9.534
 1923POPC   GL126797  36.758  40.052   9.234
 1923POPC   GL226798  37.129  40.170   9.247
 1923POPC   C1A26799  36.930  39.846   8.898
 1923POPC   D2A26800  36.904  39.965   8.486
 1923POPC   C3A26801  37.165  39.863   8.169
 1923POPC   C4A26802  36.922  39.965   7.834
 1923POPC   C1B26803  37.166  40.297   8.817
 1923POPC   C2B26804  37.147  40.462   8.410
 1923POPC   C3B26805  37.214  40.360   7.986
 1923POPC   C4B26806  37.047  40.358   7.553
 1924POPC   NC326807  35.922  13.899   9.857
 1924POPC   PO426808  36.250  14.342   9.477
 1924POPC   GL126809  36.020  14.569   9.184
 1924POPC   GL226810  35.826  14.848   9.285
 1924POPC   C1A26811  36.009  14.510   8.755
 1924POPC   D2A26812  36.217  14.323   8.416
 1924POPC   C3A26813  36.192  14.513   8.039
 1924POPC   C4A26814  36.021  14.212   7.766
 1924POPC   C1B26815  35.858  15.006   8.832
 1924POPC   C2B26816  35.764  14.846   8.418
 1924POPC   C3B26817  35.875  14.956   7.979
 1924POPC   C4B26818  35.875  14.712   7.618
 1925POPC   NC326819  35.527  28.761   9.389
 1925POPC   PO426820  35.186  29.293   9.531
 1925POPC   GL126821  35.289  29.155   9.094
 1925POPC   GL226822  35.641  29.105   9.020
 1925POPC   C1A26823  35.343  29.342   8.659
 1925POPC   D2A26824  35.472  29.165   8.260
 1925POPC   C3A26825  35.274  29.260   7.879
 1925POPC   C4A26826  34.994  29.138   7.511
 1925POPC   C1B26827  35.475  28.846   8.675
 1925POPC   C2B26828  35.458  28.619   8.279
 1925POPC   C3B26829  35.370  28.751   7.871
 1925POPC   C4B26830  35.677  28.624   7.583
 1926POPC   NC326831  33.881  44.946   9.857
 1926POPC   PO426832  33.718   0.528   9.550
 1926POPC   GL126833  33.706   0.401   9.158
 1926POPC   GL226834  33.900   0.694   9.095
 1926POPC   C1A26835  33.685   0.150   8.777
 1926POPC   D2A26836  33.639   0.319   8.368
 1926POPC   C3A26837  33.928   0.259   8.041
 1926POPC   C4A26838  33.886   0.165   7.620
 1926POPC   C1B26839  33.986   0.551   8.693
 1926POPC   C2B26840  33.942   0.754   8.312
 1926POPC   C3B26841  34.059   0.722   7.910
 1926POPC   C4B26842  34.301   0.947   7.616
 1927POPC   NC326843   7.184   3.137   9.533
 1927POPC   PO426844   7.647   3.615   9.671
 1927POPC   GL126845   7.376   3.685   9.279
 1927POPC   GL226846   7.363   3.354   9.117
 1927POPC   C1A26847   7.164   3.715   8.847
 1927POPC   D2A26848   7.388   3.601   8.467
 1927POPC   C3A26849   7.204   3.626   8.077
 1927POPC   C4A26850   7.260   3.926   7.759
 1927POPC   C1B26851   7.586   3.241   8.765
 1927POPC   C2B26852   7.442   3.048   8.388
 1927POPC   C3B26853   7.353   3.123   7.936
 1927POPC   C4B26854   7.483   3.446   7.648
 1928POPC   NC326855  22.628   1.766   9.425
 1928POPC   PO426856  23.310   1.707   9.487
 1928POPC   GL126857  23.053   1.936   9.179
 1928POPC   GL226858  22.858   2.232   9.213
 1928POPC   C1A26859  22.831   1.859   8.788
 1928POPC   D2A26860  23.050   1.979   8.420
 1928POPC   C3A26861  23.114   2.053   7.979
 1928POPC   C4A26862  22.946   1.822   7.634
 1928POPC   C1B26863  22.762   2.362   8.785
 1928POPC   C2B26864  22.639   2.272   8.327
 1928POPC   C3B26865  22.600   2.067   7.894
 1928POPC   C4B26866  22.614   2.057   7.368
 1929POPC   NC326867   2.527   6.957   9.867
 1929POPC   PO426868   2.663   7.522   9.542
 1929POPC   GL126869   2.806   7.438   9.160
 1929POPC   GL226870   2.887   7.080   9.234
 1929POPC   C1A26871   2.627   7.553   8.751
 1929POPC   D2A26872   2.614   7.448   8.292
 1929POPC   C3A26873   2.670   7.769   7.943
 1929POPC   C4A26874   2.975   7.656   7.602
 1929POPC   C1B26875   2.745   7.075   8.813
 1929POPC   C2B26876   2.702   6.909   8.444
 1929POPC   C3B26877   2.921   7.019   8.094
 1929POPC   C4B26878   2.710   7.277   7.799
 1930POPC   NC326879  43.063   4.099   9.592
 1930POPC   PO426880  43.405   3.562   9.741
 1930POPC   GL126881  43.438   3.529   9.262
 1930POPC   GL226882  43.407   3.203   9.063
 1930POPC   C1A26883  43.117   3.649   8.930
 1930POPC   D2A26884  42.823   3.664   8.564
 1930POPC   C3A26885  43.030   3.511   8.199
 1930POPC   C4A26886  42.909   3.418   7.793
 1930POPC   C1B26887  43.357   3.277   8.608
 1930POPC   C2B26888  43.547   3.409   8.211
 1930POPC   C3B26889  43.399   3.388   7.808
 1930POPC   C4B26890  43.152   3.196   7.387
 1931POPC   NC326891  42.776   7.333   9.370
 1931POPC   PO426892  42.175   7.694   9.475
 1931POPC   GL126893  42.345   7.506   9.149
 1931POPC   GL226894  42.268   7.175   9.203
 1931POPC   C1A26895  42.453   7.328   8.763
 1931POPC   D2A26896  42.370   7.483   8.387
 1931POPC   C3A26897  42.389   7.231   8.057
 1931POPC   C4A26898  42.346   7.367   7.679
 1931POPC   C1B26899  42.024   7.071   8.808
 1931POPC   C2B26900  41.941   7.218   8.366
 1931POPC   C3B26901  41.909   7.185   7.901
 1931POPC   C4B26902  41.974   7.176   7.409
 1932POPC   NC326903  39.456  18.738   9.488
 1932POPC   PO426904  39.103  19.388   9.504
 1932POPC   GL126905  39.287  19.150   9.164
 1932POPC   GL226906  39.253  19.473   9.025
 1932POPC   C1A26907  39.249  18.870   8.764
 1932POPC   D2A26908  38.956  18.808   8.380
 1932POPC   C3A26909  39.151  18.777   7.976
 1932POPC   C4A26910  39.492  19.000   7.796
 1932POPC   C1B26911  39.282  19.370   8.621
 1932POPC   C2B26912  39.309  19.166   8.270
 1932POPC   C3B26913  39.227  19.402   7.944
 1932POPC   C4B26914  39.459  19.726   7.820
 1933POPC   NC326915  29.163  14.170   9.721
 1933POPC   PO426916  29.443  13.554   9.571
 1933POPC   GL126917  29.243  13.742   9.189
 1933POPC   GL226918  28.880  13.856   9.192
 1933POPC   C1A26919  29.042  13.606   8.781
 1933POPC   D2A26920  29.006  13.827   8.368
 1933POPC   C3A26921  28.868  13.601   8.012
 1933POPC   C4A26922  29.041  13.360   7.687
 1933POPC   C1B26923  28.682  13.964   8.780
 1933POPC   C2B26924  28.590  14.092   8.348
 1933POPC   C3B26925  28.776  14.115   7.917
 1933POPC   C4B26926  28.940  14.101   7.474
 1934POPC   NC326927  39.629   9.869   9.464
 1934POPC   PO426928  38.987   9.506   9.427
 1934POPC   GL126929  39.268   9.685   9.140
 1934POPC   GL226930  39.012   9.606   8.897
 1934POPC   C1A26931  39.312   9.997   8.797
 1934POPC   D2A26932  39.117   9.811   8.431
 1934POPC   C3A26933  39.198   9.953   8.040
 1934POPC   C4A26934  39.242   9.739   7.632
 1934POPC   C1B26935  39.407   9.445   8.701
 1934POPC   C2B26936  39.599   9.373   8.295
 1934POPC   C3B26937  39.470   9.318   7.841
 1934POPC   C4B26938  39.590   9.427   7.411
 1935POPC   NC326939   8.033  41.921   9.236
 1935POPC   PO426940   8.286  41.352   9.397
 1935POPC   GL126941   8.240  41.509   9.041
 1935POPC   GL226942   8.520  41.749   9.043
 1935POPC   C1A26943   8.174  41.522   8.621
 1935POPC   D2A26944   8.070  41.342   8.218
 1935POPC   C3A26945   8.092  41.538   7.867
 1935POPC   C4A26946   7.895  41.881   7.853
 1935POPC   C1B26947   8.412  41.966   8.698
 1935POPC   C2B26948   8.178  41.984   8.353
 1935POPC   C3B26949   8.383  41.931   8.003
 1935POPC   C4B26950   8.578  41.667   7.702
 1936POPC   NC326951  11.695  14.725   9.468
 1936POPC   PO426952  11.159  14.336   9.592
 1936POPC   GL126953  11.339  14.493   9.205
 1936POPC   GL226954  11.106  14.341   9.053
 1936POPC   C1A26955  11.519  14.466   8.751
 1936POPC   D2A26956  11.566  14.514   8.264
 1936POPC   C3A26957  11.472  14.247   7.864
 1936POPC   C4A26958  11.629  14.120   7.407
 1936POPC   C1B26959  11.074  14.709   8.830
 1936POPC   C2B26960  11.097  14.460   8.471
 1936POPC   C3B26961  10.994  14.378   8.079
 1936POPC   C4B26962  11.002  14.406   7.657
 1937POPC   NC326963   9.284   0.565   9.551
 1937POPC   PO426964   9.995   0.662   9.564
 1937POPC   GL126965   9.674   0.617   9.225
 1937POPC   GL226966   9.612   0.256   9.188
 1937POPC   C1A26967   9.558   0.584   8.800
 1937POPC   D2A26968   9.871   0.408   8.554
 1937POPC   C3A26969   9.846   0.341   8.127
 1937POPC   C4A26970   9.635   0.468   7.768
 1937POPC   C1B26971   9.571   0.048   8.767
 1937POPC   C2B26972   9.401   0.124   8.324
 1937POPC   C3B26973   9.534  44.978   7.893
 1937POPC   C4B26974   9.857   0.038   7.579
 1938POPC   NC326975   3.204  33.906   9.609
 1938POPC   PO426976   2.536  33.892   9.665
 1938POPC   GL126977   2.812  33.973   9.268
 1938POPC   GL226978   3.086  33.781   9.127
 1938POPC   C1A26979   2.746  33.939   8.798
 1938POPC   D2A26980   2.750  33.703   8.421
 1938POPC   C3A26981   2.750  33.937   8.071
 1938POPC   C4A26982   2.576  33.909   7.682
 1938POPC   C1B26983   3.110  33.546   8.759
 1938POPC   C2B26984   3.135  33.353   8.354
 1938POPC   C3B26985   2.892  33.433   7.990
 1938POPC   C4B26986   3.067  33.739   7.738
 1939POPC   NC326987   3.288   7.448   9.422
 1939POPC   PO426988   3.559   6.832   9.456
 1939POPC   GL126989   3.699   7.034   9.109
 1939POPC   GL226990   3.361   7.098   9.038
 1939POPC   C1A26991   3.711   7.302   8.746
 1939POPC   D2A26992   3.887   7.286   8.362
 1939POPC   C3A26993   3.604   7.440   8.099
 1939POPC   C4A26994   3.486   7.675   7.744
 1939POPC   C1B26995   3.158   7.425   8.790
 1939POPC   C2B26996   3.241   7.686   8.456
 1939POPC   C3B26997   3.103   7.533   8.080
 1939POPC   C4B26998   3.245   7.230   7.770
 1940POPC   NC326999  30.495  19.740  10.109
 1940POPC   PO427000  30.366  20.092   9.560
 1940POPC   GL127001  30.583  20.079   9.166
 1940POPC   GL227002  30.905  20.263   9.170
 1940POPC   C1A27003  30.522  20.085   8.730
 1940POPC   D2A27004  30.297  19.982   8.374
 1940POPC   C3A27005  30.509  20.031   7.979
 1940POPC   C4A27006  30.438  19.762   7.605
 1940POPC   C1B27007  31.001  19.934   8.821
 1940POPC   C2B27008  30.808  19.729   8.444
 1940POPC   C3B27009  30.860  19.671   7.993
 1940POPC   C4B27010  31.062  19.764   7.615
 1941POPC   NC327011  37.335  27.248   9.363
 1941POPC   PO427012  37.773  27.617   9.749
 1941POPC   GL127013  37.709  27.586   9.265
 1941POPC   GL227014  37.531  27.866   9.158
 1941POPC   C1A27015  37.851  27.650   8.804
 1941POPC   D2A27016  37.984  27.860   8.407
 1941POPC   C3A27017  37.889  27.716   7.990
 1941POPC   C4A27018  37.922  27.341   7.723
 1941POPC   C1B27019  37.342  27.823   8.762
 1941POPC   C2B27020  37.481  27.713   8.348
 1941POPC   C3B27021  37.461  27.417   8.010
 1941POPC   C4B27022  37.514  27.647   7.627
 1942POPC   NC327023   5.923  33.935   9.498
 1942POPC   PO427024   5.395  33.460   9.595
 1942POPC   GL127025   5.557  33.623   9.183
 1942POPC   GL227026   5.930  33.632   9.131
 1942POPC   C1A27027   5.701  33.640   8.709
 1942POPC   D2A27028   5.811  33.760   8.275
 1942POPC   C3A27029   5.721  33.703   7.833
 1942POPC   C4A27030   5.526  33.987   7.559
 1942POPC   C1B27031   6.183  33.795   8.815
 1942POPC   C2B27032   6.294  33.780   8.383
 1942POPC   C3B27033   6.197  33.933   7.960
 1942POPC   C4B27034   6.077  34.189   7.617
 1943POPC   NC327035  34.685  44.180   9.419
 1943POPC   PO427036  34.302  43.700   9.533
 1943POPC   GL127037  34.649  43.676   9.198
 1943POPC   GL227038  34.992  43.855   9.144
 1943POPC   C1A27039  34.616  43.868   8.776
 1943POPC   D2A27040  34.588  43.802   8.327
 1943POPC   C3A27041  34.393  44.013   7.974
 1943POPC   C4A27042  34.242  43.836   7.589
 1943POPC   C1B27043  35.101  43.755   8.676
 1943POPC   C2B27044  35.043  43.591   8.219
 1943POPC   C3B27045  34.846  43.758   7.836
 1943POPC   C4B27046  34.879  44.166   7.638
 1944POPC   NC327047  39.458  24.866   9.508
 1944POPC   PO427048  38.871  24.470   9.587
 1944POPC   GL127049  39.176  24.544   9.206
 1944POPC   GL227050  39.472  24.368   9.042
 1944POPC   C1A27051  39.136  24.641   8.743
 1944POPC   D2A27052  39.077  24.437   8.321
 1944POPC   C3A27053  39.167  24.630   7.922
 1944POPC   C4A27054  39.302  24.721   7.469
 1944POPC   C1B27055  39.575  24.402   8.587
 1944POPC   C2B27056  39.555  24.373   8.125
 1944POPC   C3B27057  39.431  24.276   7.683
 1944POPC   C4B27058  39.301  24.242   7.226
 1945POPC   NC327059  37.239  12.536   9.427
 1945POPC   PO427060  37.814  12.991   9.402
 1945POPC   GL127061  37.584  12.815   9.126
 1945POPC   GL227062  37.680  12.488   9.150
 1945POPC   C1A27063  37.830  12.771   8.743
 1945POPC   D2A27064  37.831  13.038   8.400
 1945POPC   C3A27065  37.823  12.909   7.976
 1945POPC   C4A27066  37.445  13.156   7.828
 1945POPC   C1B27067  37.389  12.523   8.765
 1945POPC   C2B27068  37.549  12.583   8.311
 1945POPC   C3B27069  37.406  12.639   7.856
 1945POPC   C4B27070  37.288  12.579   7.356
 1946POPC   NC327071   5.413  27.888   9.541
 1946POPC   PO427072   4.970  28.414   9.438
 1946POPC   GL127073   5.165  28.244   9.096
 1946POPC   GL227074   5.528  28.250   9.191
 1946POPC   C1A27075   4.915  28.168   8.723
 1946POPC   D2A27076   4.952  27.996   8.309
 1946POPC   C3A27077   5.024  28.343   8.035
 1946POPC   C4A27078   5.133  28.308   7.607
 1946POPC   C1B27079   5.574  28.524   8.833
 1946POPC   C2B27080   5.414  28.526   8.394
 1946POPC   C3B27081   5.535  28.415   7.978
 1946POPC   C4B27082   5.387  27.998   7.960
 1947POPC   NC327083  34.677   8.541   9.521
 1947POPC   PO427084  34.583   7.927   9.622
 1947POPC   GL127085  34.702   8.082   9.227
 1947POPC   GL227086  34.926   8.370   9.128
 1947POPC   C1A27087  34.507   8.245   8.848
 1947POPC   D2A27088  34.454   8.510   8.505
 1947POPC   C3A27089  34.504   8.300   8.117
 1947POPC   C4A27090  34.327   8.368   7.735
 1947POPC   C1B27091  34.964   8.486   8.697
 1947POPC   C2B27092  34.937   8.524   8.257
 1947POPC   C3B27093  34.947   8.316   7.864
 1947POPC   C4B27094  34.762   8.318   7.481
 1948POPC   NC327095  25.764  21.580   9.373
 1948POPC   PO427096  26.133  21.043   9.458
 1948POPC   GL127097  26.099  21.290   9.112
 1948POPC   GL227098  26.250  21.584   9.084
 1948POPC   C1A27099  26.014  21.288   8.691
 1948POPC   D2A27100  26.273  21.153   8.348
 1948POPC   C3A27101  26.058  21.158   7.955
 1948POPC   C4A27102  25.753  21.314   7.646
 1948POPC   C1B27103  26.424  21.814   8.757
 1948POPC   C2B27104  26.587  21.719   8.393
 1948POPC   C3B27105  26.419  21.536   8.023
 1948POPC   C4B27106  26.227  21.547   7.622
 1949POPC   NC327107  40.620  30.540   9.446
 1949POPC   PO427108  41.294  30.640   9.425
 1949POPC   GL127109  40.961  30.819   9.163
 1949POPC   GL227110  40.817  30.530   8.975
 1949POPC   C1A27111  40.817  30.966   8.746
 1949POPC   D2A27112  41.090  31.042   8.417
 1949POPC   C3A27113  40.956  30.752   8.079
 1949POPC   C4A27114  41.000  30.852   7.658
 1949POPC   C1B27115  40.437  30.598   8.700
 1949POPC   C2B27116  40.321  30.691   8.260
 1949POPC   C3B27117  40.477  30.822   7.834
 1949POPC   C4B27118  40.571  30.626   7.424
 1950POPC   NC327119  27.512  28.076   9.306
 1950POPC   PO427120  27.393  28.697   9.482
 1950POPC   GL127121  27.560  28.602   9.107
 1950POPC   GL227122  27.863  28.471   9.229
 1950POPC   C1A27123  27.496  28.383   8.727
 1950POPC   D2A27124  27.413  28.198   8.335
 1950POPC   C3A27125  27.516  28.425   8.000
 1950POPC   C4A27126  27.375  28.463   7.623
 1950POPC   C1B27127  27.984  28.580   8.801
 1950POPC   C2B27128  27.782  28.652   8.398
 1950POPC   C3B27129  27.950  28.729   8.038
 1950POPC   C4B27130  27.871  28.605   7.646
 1951POPC   NC327131  27.343   4.851   9.538
 1951POPC   PO427132  27.665   5.379   9.815
 1951POPC   GL127133  27.558   5.286   9.298
 1951POPC   GL227134  27.817   5.321   9.096
 1951POPC   C1A27135  27.315   5.294   8.877
 1951POPC   D2A27136  27.290   5.185   8.447
 1951POPC   C3A27137  27.299   5.440   8.094
 1951POPC   C4A27138  27.447   5.301   7.721
 1951POPC   C1B27139  27.626   4.906   8.910
 1951POPC   C2B27140  27.639   4.816   8.467
 1951POPC   C3B27141  27.417   4.837   8.063
 1951POPC   C4B27142  27.618   4.834   7.671
 1952POPC   NC327143  17.548   5.332   9.209
 1952POPC   PO427144  17.571   5.876   9.634
 1952POPC   GL127145  17.575   5.881   9.199
 1952POPC   GL227146  17.231   5.743   9.180
 1952POPC   C1A27147  17.741   5.874   8.763
 1952POPC   D2A27148  17.531   5.972   8.371
 1952POPC   C3A27149  17.608   5.867   7.959
 1952POPC   C4A27150  17.319   5.752   7.634
 1952POPC   C1B27151  17.223   5.956   8.797
 1952POPC   C2B27152  17.007   5.946   8.399
 1952POPC   C3B27153  17.136   6.067   8.030
 1952POPC   C4B27154  17.340   6.300   7.744
 1953POPC   NC327155   1.942  23.953   9.461
 1953POPC   PO427156   1.709  23.276   9.494
 1953POPC   GL127157   1.928  23.509   9.170
 1953POPC   GL227158   2.273  23.401   9.020
 1953POPC   C1A27159   1.913  23.656   8.769
 1953POPC   D2A27160   2.201  23.491   8.468
 1953POPC   C3A27161   2.093  23.400   8.043
 1953POPC   C4A27162   1.948  23.682   7.743
 1953POPC   C1B27163   2.375  23.835   8.830
 1953POPC   C2B27164   2.148  24.053   8.524
 1953POPC   C3B27165   2.198  23.974   8.112
 1953POPC   C4B27166   2.163  24.181   7.715
 1954POPC   NC327167  10.043  14.203   9.587
 1954POPC   PO427168   9.482  14.478   9.404
 1954POPC   GL127169   9.781  14.407   9.140
 1954POPC   GL227170   9.909  14.732   9.155
 1954POPC   C1A27171   9.734  14.167   8.781
 1954POPC   D2A27172   9.741  13.890   8.441
 1954POPC   C3A27173   9.581  14.045   8.094
 1954POPC   C4A27174   9.583  14.183   7.706
 1954POPC   C1B27175   9.750  14.733   8.721
 1954POPC   C2B27176   9.713  14.899   8.311
 1954POPC   C3B27177   9.816  14.653   7.983
 1954POPC   C4B27178  10.023  14.656   7.610
 1955POPC   NC327179  38.541   5.571   9.492
 1955POPC   PO427180  38.246   6.172   9.641
 1955POPC   GL127181  38.369   5.987   9.241
 1955POPC   GL227182  38.734   6.038   9.285
 1955POPC   C1A27183  38.305   5.932   8.787
 1955POPC   D2A27184  38.243   6.092   8.362
 1955POPC   C3A27185  38.286   5.742   8.081
 1955POPC   C4A27186  38.466   5.626   7.700
 1955POPC   C1B27187  38.817   5.843   8.874
 1955POPC   C2B27188  38.689   5.793   8.449
 1955POPC   C3B27189  38.820   5.636   8.051
 1955POPC   C4B27190  38.993   5.536   7.638
 1956POPC   NC327191   0.925  19.883   9.612
 1956POPC   PO427192   1.483  19.565   9.569
 1956POPC   GL127193   1.225  19.643   9.203
 1956POPC   GL227194   1.194  19.999   9.122
 1956POPC   C1A27195   1.323  19.712   8.745
 1956POPC   D2A27196   1.542  19.802   8.355
 1956POPC   C3A27197   1.366  19.668   7.955
 1956POPC   C4A27198   1.010  19.853   7.753
 1956POPC   C1B27199   1.522  20.222   8.819
 1956POPC   C2B27200   1.674  20.293   8.355
 1956POPC   C3B27201   1.462  20.374   7.924
 1956POPC   C4B27202   1.319  20.269   7.465
 1957POPC   NC327203   5.233   4.699   9.512
 1957POPC   PO427204   4.884   4.066   9.592
 1957POPC   GL127205   5.116   4.188   9.245
 1957POPC   GL227206   4.929   4.489   9.168
 1957POPC   C1A27207   5.283   4.293   8.830
 1957POPC   D2A27208   5.109   4.235   8.423
 1957POPC   C3A27209   5.292   4.302   8.015
 1957POPC   C4A27210   5.020   4.136   7.672
 1957POPC   C1B27211   4.774   4.372   8.808
 1957POPC   C2B27212   4.700   4.555   8.453
 1957POPC   C3B27213   4.804   4.460   8.035
 1957POPC   C4B27214   4.894   4.621   7.637
 1958POPC   NC327215  33.428  31.675   9.461
 1958POPC   PO427216  33.972  31.133   9.523
 1958POPC   GL127217  33.963  31.455   9.190
 1958POPC   GL227218  33.698  31.682   9.031
 1958POPC   C1A27219  34.051  31.425   8.765
 1958POPC   D2A27220  33.975  31.275   8.365
 1958POPC   C3A27221  34.044  31.533   8.005
 1958POPC   C4A27222  33.982  31.605   7.569
 1958POPC   C1B27223  33.708  31.713   8.571
 1958POPC   C2B27224  33.519  31.525   8.230
 1958POPC   C3B27225  33.550  31.478   7.809
 1958POPC   C4B27226  33.517  31.806   7.473
 1959POPC   NC327227  41.660   3.127   9.547
 1959POPC   PO427228  41.936   2.500   9.577
 1959POPC   GL127229  41.601   2.650   9.277
 1959POPC   GL227230  41.716   2.912   9.098
 1959POPC   C1A27231  41.360   2.656   8.867
 1959POPC   D2A27232  41.453   2.720   8.431
 1959POPC   C3A27233  41.453   2.537   8.003
 1959POPC   C4A27234  41.216   2.812   7.679
 1959POPC   C1B27235  41.886   3.064   8.716
 1959POPC   C2B27236  41.711   3.137   8.313
 1959POPC   C3B27237  41.771   2.923   7.929
 1959POPC   C4B27238  41.993   3.004   7.525
 1960POPC   NC327239  25.265  36.854   9.681
 1960POPC   PO427240  25.615  37.242   9.263
 1960POPC   GL127241  25.314  36.978   9.173
 1960POPC   GL227242  25.403  36.656   9.229
 1960POPC   C1A27243  25.123  37.049   8.806
 1960POPC   D2A27244  25.342  36.998   8.444
 1960POPC   C3A27245  25.071  36.915   8.133
 1960POPC   C4A27246  25.162  37.081   7.748
 1960POPC   C1B27247  25.522  36.668   8.815
 1960POPC   C2B27248  25.734  36.621   8.439
 1960POPC   C3B27249  25.488  36.614   8.099
 1960POPC   C4B27250  25.547  36.693   7.695
 1961POPC   NC327251  42.723   6.586   9.588
 1961POPC   PO427252  42.123   6.701   9.377
 1961POPC   GL127253  42.563   6.759   9.144
 1961POPC   GL227254  42.713   6.420   9.108
 1961POPC   C1A27255  42.668   6.803   8.713
 1961POPC   D2A27256  42.368   6.919   8.452
 1961POPC   C3A27257  42.304   6.728   8.083
 1961POPC   C4A27258  42.142   6.787   7.723
 1961POPC   C1B27259  42.374   6.385   8.836
 1961POPC   C2B27260  42.442   6.373   8.425
 1961POPC   C3B27261  42.557   6.288   8.048
 1961POPC   C4B27262  42.376   6.252   7.676
 1962POPC   NC327263  32.069  29.394   9.755
 1962POPC   PO427264  32.619  29.039   9.575
 1962POPC   GL127265  32.334  29.230   9.275
 1962POPC   GL227266  31.979  29.349   9.259
 1962POPC   C1A27267  32.212  29.024   8.881
 1962POPC   D2A27268  32.262  29.199   8.486
 1962POPC   C3A27269  32.375  29.028   8.111
 1962POPC   C4A27270  32.217  29.116   7.692
 1962POPC   C1B27271  31.973  29.492   8.831
 1962POPC   C2B27272  31.992  29.621   8.397
 1962POPC   C3B27273  31.972  29.398   8.028
 1962POPC   C4B27274  31.900  29.494   7.584
 1963POPC   NC327275  13.329  27.342   9.576
 1963POPC   PO427276  13.850  26.842   9.721
 1963POPC   GL127277  13.727  27.020   9.348
 1963POPC   GL227278  13.831  26.710   9.203
 1963POPC   C1A27279  13.638  27.087   8.900
 1963POPC   D2A27280  13.726  27.003   8.477
 1963POPC   C3A27281  13.366  26.960   8.205
 1963POPC   C4A27282  13.474  27.033   7.790
 1963POPC   C1B27283  13.799  26.591   8.777
 1963POPC   C2B27284  13.582  26.521   8.388
 1963POPC   C3B27285  13.450  26.473   7.982
 1963POPC   C4B27286  13.775  26.634   7.750
 1964POPC   NC327287   5.598   5.909   9.443
 1964POPC   PO427288   4.893   5.858   9.541
 1964POPC   GL127289   5.155   5.874   9.184
 1964POPC   GL227290   5.182   5.526   9.037
 1964POPC   C1A27291   5.043   5.933   8.758
 1964POPC   D2A27292   5.079   5.799   8.337
 1964POPC   C3A27293   4.701   5.902   8.107
 1964POPC   C4A27294   4.605   6.140   7.737
 1964POPC   C1B27295   5.489   5.662   8.745
 1964POPC   C2B27296   5.627   5.632   8.336
 1964POPC   C3B27297   5.461   5.857   7.989
 1964POPC   C4B27298   5.063   5.862   7.744
 1965POPC   NC327299  14.496  13.586   9.583
 1965POPC   PO427300  14.036  13.324   9.158
 1965POPC   GL127301  14.315  13.712   9.121
 1965POPC   GL227302  14.645  13.924   9.174
 1965POPC   C1A27303  14.448  13.763   8.734
 1965POPC   D2A27304  14.375  13.459   8.439
 1965POPC   C3A27305  14.238  13.606   8.074
 1965POPC   C4A27306  14.454  13.484   7.734
 1965POPC   C1B27307  14.905  14.010   8.767
 1965POPC   C2B27308  15.003  13.708   8.449
 1965POPC   C3B27309  14.769  13.634   8.096
 1965POPC   C4B27310  14.662  13.957   7.761
 1966POPC   NC327311  10.232   9.543   9.785
 1966POPC   PO427312  10.219  10.230   9.709
 1966POPC   GL127313  10.387   9.984   9.282
 1966POPC   GL227314  10.469   9.615   9.211
 1966POPC   C1A27315  10.278   9.924   8.823
 1966POPC   D2A27316  10.398   9.975   8.368
 1966POPC   C3A27317  10.627   9.778   7.999
 1966POPC   C4A27318  10.705   9.953   7.573
 1966POPC   C1B27319  10.575   9.513   8.748
 1966POPC   C2B27320  10.377   9.465   8.319
 1966POPC   C3B27321  10.218   9.520   7.855
 1966POPC   C4B27322  10.223   9.342   7.422
 1967POPC   NC327323  31.998  14.206   9.546
 1967POPC   PO427324  32.563  14.677   9.480
 1967POPC   GL127325  32.379  14.378   9.200
 1967POPC   GL227326  32.050  14.509   9.122
 1967POPC   C1A27327  32.399  14.382   8.764
 1967POPC   D2A27328  32.156  14.444   8.388
 1967POPC   C3A27329  32.367  14.350   7.999
 1967POPC   C4A27330  32.339  14.395   7.558
 1967POPC   C1B27331  31.960  14.159   8.839
 1967POPC   C2B27332  31.969  13.953   8.439
 1967POPC   C3B27333  31.868  14.130   8.056
 1967POPC   C4B27334  31.985  14.070   7.654
 1968POPC   NC327335   1.696   0.321   9.526
 1968POPC   PO427336   1.014   0.408   9.518
 1968POPC   GL127337   1.313   0.395   9.182
 1968POPC   GL227338   1.458   0.737   9.098
 1968POPC   C1A27339   1.346   0.186   8.789
 1968POPC   D2A27340   0.987   0.273   8.571
 1968POPC   C3A27341   0.984   0.465   8.193
 1968POPC   C4A27342   0.833   0.365   7.782
 1968POPC   C1B27343   1.252   0.740   8.665
 1968POPC   C2B27344   1.314   0.881   8.204
 1968POPC   C3B27345   1.274   0.635   7.813
 1968POPC   C4B27346   1.313   0.212   7.779
 1969POPC   NC327347  17.938  43.848   9.566
 1969POPC   PO427348  17.258  43.711   9.541
 1969POPC   GL127349  17.520  43.682   9.161
 1969POPC   GL227350  17.711  43.988   9.108
 1969POPC   C1A27351  17.900  43.560   8.922
 1969POPC   D2A27352  18.013  43.542   8.459
 1969POPC   C3A27353  17.824  43.525   8.059
 1969POPC   C4A27354  17.639  43.617   7.559
 1969POPC   C1B27355  17.892  44.009   8.676
 1969POPC   C2B27356  17.735  44.012   8.259
 1969POPC   C3B27357  17.889  43.990   7.863
 1969POPC   C4B27358  18.114  43.697   7.683
 1970POPC   NC327359  14.182  32.473   9.638
 1970POPC   PO427360  14.616  32.012   9.847
 1970POPC   GL127361  14.490  32.150   9.355
 1970POPC   GL227362  14.510  32.499   9.229
 1970POPC   C1A27363  14.144  32.192   8.987
 1970POPC   D2A27364  14.073  32.078   8.508
 1970POPC   C3A27365  14.065  32.346   8.122
 1970POPC   C4A27366  14.195  32.258   7.698
 1970POPC   C1B27367  14.560  32.381   8.781
 1970POPC   C2B27368  14.540  32.326   8.336
 1970POPC   C3B27369  14.618  32.487   7.909
 1970POPC   C4B27370  14.679  32.394   7.497
 1971POPC   NC327371  17.582  19.279   9.475
 1971POPC   PO427372  17.125  18.821   9.693
 1971POPC   GL127373  17.134  19.129   9.266
 1971POPC   GL227374  17.422  18.988   9.072
 1971POPC   C1A27375  17.088  19.159   8.762
 1971POPC   D2A27376  17.255  18.836   8.436
 1971POPC   C3A27377  17.378  18.994   8.019
 1971POPC   C4A27378  17.222  19.111   7.618
 1971POPC   C1B27379  17.701  18.913   8.713
 1971POPC   C2B27380  17.949  18.999   8.335
 1971POPC   C3B27381  17.886  18.956   7.906
 1971POPC   C4B27382  17.730  19.017   7.486
 1972POPC   NC327383  30.226  12.216   9.438
 1972POPC   PO427384  30.201  11.564   9.556
 1972POPC   GL127385  29.919  11.819   9.207
 1972POPC   GL227386  29.948  12.151   9.009
 1972POPC   C1A27387  29.948  11.726   8.742
 1972POPC   D2A27388  29.747  11.860   8.335
 1972POPC   C3A27389  29.945  11.663   7.959
 1972POPC   C4A27390  29.889  11.799   7.536
 1972POPC   C1B27391  30.082  12.436   8.666
 1972POPC   C2B27392  30.160  12.362   8.224
 1972POPC   C3B27393  29.899  12.180   7.879
 1972POPC   C4B27394  29.815  12.283   7.405
 1973POPC   NC327395  25.419  14.423   9.507
 1973POPC   PO427396  24.760  14.387   9.388
 1973POPC   GL127397  25.074  14.339   9.061
 1973POPC   GL227398  25.399  14.459   9.016
 1973POPC   C1A27399  25.140  14.254   8.635
 1973POPC   D2A27400  25.179  14.030   8.300
 1973POPC   C3A27401  25.191  14.277   7.944
 1973POPC   C4A27402  25.018  14.369   7.563
 1973POPC   C1B27403  25.650  14.406   8.653
 1973POPC   C2B27404  25.627  14.289   8.230
 1973POPC   C3B27405  25.666  14.246   7.799
 1973POPC   C4B27406  25.496  14.262   7.376
 1974POPC   NC327407  44.471  39.372   9.718
 1974POPC   PO427408  44.854  38.898   9.497
 1974POPC   GL127409  44.652  39.147   9.198
 1974POPC   GL227410  44.299  39.200   9.282
 1974POPC   C1A27411  44.770  39.153   8.756
 1974POPC   D2A27412  44.942  39.446   8.453
 1974POPC   C3A27413  44.730  39.470   8.055
 1974POPC   C4A27414  44.646  39.168   7.718
 1974POPC   C1B27415  44.274  39.289   8.861
 1974POPC   C2B27416  44.345  39.099   8.464
 1974POPC   C3B27417  44.271  39.234   8.076
 1974POPC   C4B27418  44.140  39.464   7.746
 1975POPC   NC327419  40.967  13.270   9.266
 1975POPC   PO427420  40.709  12.757   9.635
 1975POPC   GL127421  40.676  12.822   9.181
 1975POPC   GL227422  40.464  13.093   9.172
 1975POPC   C1A27423  40.772  12.963   8.733
 1975POPC   D2A27424  40.978  13.131   8.363
 1975POPC   C3A27425  40.837  12.944   7.977
 1975POPC   C4A27426  40.998  12.854   7.569
 1975POPC   C1B27427  40.342  13.260   8.791
 1975POPC   C2B27428  40.182  13.094   8.425
 1975POPC   C3B27429  40.344  13.249   8.047
 1975POPC   C4B27430  40.486  13.160   7.659
 1976POPC   NC327431  29.387  44.516   9.508
 1976POPC   PO427432  28.884  44.286   9.180
 1976POPC   GL127433  29.066  44.700   9.078
 1976POPC   GL227434  29.402  44.816   9.092
 1976POPC   C1A27435  29.116  44.923   8.677
 1976POPC   D2A27436  29.190  44.677   8.308
 1976POPC   C3A27437  29.265  44.846   7.895
 1976POPC   C4A27438  28.910  44.600   7.769
 1976POPC   C1B27439  29.367  44.427   8.781
 1976POPC   C2B27440  29.448  44.232   8.397
 1976POPC   C3B27441  29.172  44.150   8.062
 1976POPC   C4B27442  29.324  44.364   7.721
 1977POPC   NC327443  25.982  43.465   9.663
 1977POPC   PO427444  26.485  43.044   9.477
 1977POPC   GL127445  26.191  43.067   9.143
 1977POPC   GL227446  25.923  43.023   9.342
 1977POPC   C1A27447  26.036  43.277   8.742
 1977POPC   D2A27448  25.800  43.310   8.357
 1977POPC   C3A27449  26.035  43.317   7.974
 1977POPC   C4A27450  26.331  43.005   7.815
 1977POPC   C1B27451  25.757  42.898   8.935
 1977POPC   C2B27452  26.005  42.825   8.542
 1977POPC   C3B27453  25.928  42.849   8.120
 1977POPC   C4B27454  25.932  42.690   7.687
 1978POPC   NC327455  16.850  43.402   9.640
 1978POPC   PO427456  16.442  42.769   9.616
 1978POPC   GL127457  16.629  42.845   9.241
 1978POPC   GL227458  16.662  43.213   9.197
 1978POPC   C1A27459  16.612  42.891   8.794
 1978POPC   D2A27460  16.346  43.066   8.454
 1978POPC   C3A27461  16.508  42.944   8.045
 1978POPC   C4A27462  16.474  43.063   7.619
 1978POPC   C1B27463  16.837  43.364   8.788
 1978POPC   C2B27464  16.793  43.300   8.321
 1978POPC   C3B27465  16.898  43.232   7.884
 1978POPC   C4B27466  17.222  43.342   7.644
 1979POPC   NC327467  38.315  41.540   9.957
 1979POPC   PO427468  38.731  41.219   9.504
 1979POPC   GL127469  38.580  41.443   9.127
 1979POPC   GL227470  38.226  41.528   9.132
 1979POPC   C1A27471  38.729  41.496   8.689
 1979POPC   D2A27472  38.826  41.281   8.317
 1979POPC   C3A27473  38.825  41.505   7.952
 1979POPC   C4A27474  38.543  41.563   7.631
 1979POPC   C1B27475  38.258  41.681   8.695
 1979POPC   C2B27476  38.443  41.715   8.257
 1979POPC   C3B27477  38.170  41.865   7.909
 1979POPC   C4B27478  38.048  41.809   7.468
 1980POPC   NC327479  18.861  33.958   9.633
 1980POPC   PO427480  19.405  34.348   9.453
 1980POPC   GL127481  19.230  33.956   9.273
 1980POPC   GL227482  18.880  33.969   9.125
 1980POPC   C1A27483  19.258  33.835   8.832
 1980POPC   D2A27484  19.198  34.095   8.480
 1980POPC   C3A27485  19.303  33.928   8.069
 1980POPC   C4A27486  18.984  33.937   7.773
 1980POPC   C1B27487  18.740  33.789   8.711
 1980POPC   C2B27488  18.875  33.719   8.260
 1980POPC   C3B27489  19.012  33.432   7.891
 1980POPC   C4B27490  18.726  33.262   7.531
 1981POPC   NC327491  36.884   0.328   9.599
 1981POPC   PO427492  36.857   0.938   9.410
 1981POPC   GL127493  36.990   0.571   9.142
 1981POPC   GL227494  37.052   0.180   9.154
 1981POPC   C1A27495  36.749   0.511   8.772
 1981POPC   D2A27496  36.722   0.725   8.350
 1981POPC   C3A27497  36.604   0.446   8.016
 1981POPC   C4A27498  36.838   0.211   7.716
 1981POPC   C1B27499  37.201   0.244   8.766
 1981POPC   C2B27500  37.180   0.544   8.477
 1981POPC   C3B27501  37.106   0.413   8.099
 1981POPC   C4B27502  37.153   0.658   7.751
 1982POPC   NC327503  10.050  42.782   9.496
 1982POPC   PO427504   9.564  43.274   9.395
 1982POPC   GL127505   9.789  43.074   9.109
 1982POPC   GL227506   9.662  42.726   9.153
 1982POPC   C1A27507   9.899  43.230   8.681
 1982POPC   D2A27508   9.679  43.544   8.402
 1982POPC   C3A27509   9.602  43.365   7.979
 1982POPC   C4A27510   9.543  42.964   7.749
 1982POPC   C1B27511   9.932  42.717   8.801
 1982POPC   C2B27512   9.850  42.671   8.385
 1982POPC   C3B27513   9.920  42.994   8.118
 1982POPC   C4B27514  10.022  43.101   7.710
 1983POPC   NC327515  34.669  44.615   9.951
 1983POPC   PO427516  34.494  44.923   9.366
 1983POPC   GL127517  34.485  44.549   9.099
 1983POPC   GL227518  34.682  44.693   8.860
 1983POPC   C1A27519  34.400  44.329   8.656
 1983POPC   D2A27520  34.651  44.361   8.266
 1983POPC   C3A27521  34.522  44.501   7.834
 1983POPC   C4A27522  34.162  44.332   7.607
 1983POPC   C1B27523  34.226  44.805   8.735
 1983POPC   C2B27524  34.218  44.971   8.336
 1983POPC   C3B27525  34.497   0.035   7.963
 1983POPC   C4B27526  34.454  44.930   7.520
 1984POPC   NC327527   7.878  18.017   9.768
 1984POPC   PO427528   8.381  17.514   9.679
 1984POPC   GL127529   8.274  17.569   9.203
 1984POPC   GL227530   7.932  17.681   9.192
 1984POPC   C1A27531   8.213  17.437   8.722
 1984POPC   D2A27532   7.983  17.246   8.369
 1984POPC   C3A27533   8.240  17.140   8.000
 1984POPC   C4A27534   8.188  17.349   7.596
 1984POPC   C1B27535   7.931  17.839   8.762
 1984POPC   C2B27536   8.030  17.756   8.338
 1984POPC   C3B27537   7.957  17.717   7.898
 1984POPC   C4B27538   7.838  17.980   7.553
 1985POPC   NC327539   0.901  17.400   9.784
 1985POPC   PO427540   0.320  17.445   9.425
 1985POPC   GL127541   0.176  17.556   9.070
 1985POPC   GL227542   0.033  17.309   8.898
 1985POPC   C1A27543   0.382  17.658   8.689
 1985POPC   D2A27544   0.436  17.591   8.250
 1985POPC   C3A27545   0.170  17.593   7.925
 1985POPC   C4A27546   0.409  17.742   7.562
 1985POPC   C1B27547   0.247  17.176   8.536
 1985POPC   C2B27548   0.695  17.253   8.526
 1985POPC   C3B27549   0.836  17.300   8.126
 1985POPC   C4B27550   0.581  17.315   7.781
 1986POPC   NC327551   4.169  39.184   9.569
 1986POPC   PO427552   4.647  39.740   9.565
 1986POPC   GL127553   4.519  39.374   9.266
 1986POPC   GL227554   4.421  39.630   9.106
 1986POPC   C1A27555   4.305  38.988   8.956
 1986POPC   D2A27556   4.186  38.774   8.525
 1986POPC   C3A27557   4.090  38.915   8.085
 1986POPC   C4A27558   4.239  39.205   7.768
 1986POPC   C1B27559   4.471  39.407   8.747
 1986POPC   C2B27560   4.450  39.511   8.358
 1986POPC   C3B27561   4.270  39.662   8.017
 1986POPC   C4B27562   4.570  39.626   7.728
 1987POPC   NC327563   3.495   9.148   9.605
 1987POPC   PO427564   3.862   8.630   9.653
 1987POPC   GL127565   3.625   8.829   9.251
 1987POPC   GL227566   3.322   8.727   9.129
 1987POPC   C1A27567   3.502   9.132   8.902
 1987POPC   D2A27568   3.325   8.948   8.518
 1987POPC   C3A27569   3.533   8.983   8.101
 1987POPC   C4A27570   3.348   9.069   7.673
 1987POPC   C1B27571   3.621   8.611   8.783
 1987POPC   C2B27572   3.559   8.496   8.334
 1987POPC   C3B27573   3.772   8.504   7.950
 1987POPC   C4B27574   3.708   8.717   7.576
 1988POPC   NC327575  10.474  16.319   9.437
 1988POPC   PO427576  10.725  15.646   9.486
 1988POPC   GL127577  10.658  15.921   9.152
 1988POPC   GL227578  10.290  15.925   9.156
 1988POPC   C1A27579  10.575  16.190   8.793
 1988POPC   D2A27580  10.281  16.147   8.466
 1988POPC   C3A27581  10.457  16.171   8.076
 1988POPC   C4A27582  10.640  16.057   7.704
 1988POPC   C1B27583  10.374  15.705   8.757
 1988POPC   C2B27584  10.699  15.812   8.464
 1988POPC   C3B27585  10.775  15.720   8.077
 1988POPC   C4B27586  10.507  15.548   7.787
 1989POPC   NC327587  32.688  27.847   9.490
 1989POPC   PO427588  32.067  27.628   9.499
 1989POPC   GL127589  32.229  27.607   9.114
 1989POPC   GL227590  32.589  27.475   9.146
 1989POPC   C1A27591  31.966  27.555   8.743
 1989POPC   D2A27592  31.821  27.776   8.381
 1989POPC   C3A27593  32.060  27.848   8.030
 1989POPC   C4A27594  31.891  27.817   7.639
 1989POPC   C1B27595  32.448  27.328   8.735
 1989POPC   C2B27596  32.270  27.428   8.325
 1989POPC   C3B27597  32.448  27.523   7.925
 1989POPC   C4B27598  32.252  27.333   7.599
 1990POPC   NC327599  12.099  42.571   9.726
 1990POPC   PO427600  11.882  42.060   9.434
 1990POPC   GL127601  11.980  42.251   9.074
 1990POPC   GL227602  12.143  42.525   9.198
 1990POPC   C1A27603  11.903  42.285   8.651
 1990POPC   D2A27604  11.697  42.441   8.267
 1990POPC   C3A27605  11.888  42.235   7.915
 1990POPC   C4A27606  12.087  41.850   7.758
 1990POPC   C1B27607  11.953  42.760   8.858
 1990POPC   C2B27608  12.062  42.862   8.425
 1990POPC   C3B27609  12.062  42.713   8.000
 1990POPC   C4B27610  11.935  42.656   7.553
 1991POPC   NC327611  37.210  15.186   9.586
 1991POPC   PO427612  37.842  15.235   9.369
 1991POPC   GL127613  37.724  15.118   9.009
 1991POPC   GL227614  37.394  15.087   9.126
 1991POPC   C1A27615  37.548  15.246   8.624
 1991POPC   D2A27616  37.307  15.395   8.288
 1991POPC   C3A27617  37.619  15.304   8.003
 1991POPC   C4A27618  37.969  15.250   7.785
 1991POPC   C1B27619  37.315  14.826   8.818
 1991POPC   C2B27620  37.642  14.740   8.564
 1991POPC   C3B27621  37.522  14.839   8.178
 1991POPC   C4B27622  37.494  14.862   7.745
 1992POPC   NC327623  28.232  16.222   9.276
 1992POPC   PO427624  28.075  16.695   9.799
 1992POPC   GL127625  28.076  16.756   9.269
 1992POPC   GL227626  28.399  16.682   8.989
 1992POPC   C1A27627  27.936  16.677   8.805
 1992POPC   D2A27628  28.266  16.588   8.450
 1992POPC   C3A27629  28.120  16.562   8.019
 1992POPC   C4A27630  28.200  16.659   7.585
 1992POPC   C1B27631  28.715  16.976   8.731
 1992POPC   C2B27632  28.677  17.139   8.311
 1992POPC   C3B27633  28.569  16.822   8.014
 1992POPC   C4B27634  28.697  16.717   7.622
 1993POPC   NC327635  27.096   0.021   9.665
 1993POPC   PO427636  26.811   0.603   9.412
 1993POPC   GL127637  26.956   0.253   9.195
 1993POPC   GL227638  26.601   0.170   9.144
 1993POPC   C1A27639  27.157   0.188   8.779
 1993POPC   D2A27640  27.197   0.544   8.482
 1993POPC   C3A27641  27.009   0.596   8.076
 1993POPC   C4A27642  26.935   0.664   7.634
 1993POPC   C1B27643  26.733   0.463   8.777
 1993POPC   C2B27644  26.717   0.301   8.376
 1993POPC   C3B27645  26.765   0.157   7.962
 1993POPC   C4B27646  26.622   0.262   7.557
 1994POPC   NC327647  41.745   7.928   9.494
 1994POPC   PO427648  41.489   8.548   9.381
 1994POPC   GL127649  41.394   8.173   9.183
 1994POPC   GL227650  41.728   8.122   9.026
 1994POPC   C1A27651  41.312   8.055   8.755
 1994POPC   D2A27652  41.146   8.320   8.440
 1994POPC   C3A27653  41.397   8.400   8.069
 1994POPC   C4A27654  41.312   8.252   7.667
 1994POPC   C1B27655  42.003   8.458   8.856
 1994POPC   C2B27656  42.183   8.496   8.444
 1994POPC   C3B27657  42.024   8.257   8.115
 1994POPC   C4B27658  41.840   8.277   7.759
 1995POPC   NC327659  29.431   1.814   9.398
 1995POPC   PO427660  29.717   2.412   9.623
 1995POPC   GL127661  29.385   2.374   9.238
 1995POPC   GL227662  29.080   2.129   9.159
 1995POPC   C1A27663  29.248   2.476   8.813
 1995POPC   D2A27664  29.006   2.206   8.544
 1995POPC   C3A27665  29.148   2.091   8.132
 1995POPC   C4A27666  29.118   2.104   7.708
 1995POPC   C1B27667  29.118   1.772   8.840
 1995POPC   C2B27668  29.305   1.430   8.617
 1995POPC   C3B27669  29.329   1.433   8.173
 1995POPC   C4B27670  29.294   1.620   7.783
 1996POPC   NC327671   5.631  22.443   9.792
 1996POPC   PO427672   6.162  22.113   9.568
 1996POPC   GL127673   5.912  22.095   9.179
 1996POPC   GL227674   5.746  22.426   9.233
 1996POPC   C1A27675   5.929  21.957   8.701
 1996POPC   D2A27676   6.046  21.791   8.250
 1996POPC   C3A27677   5.849  22.030   7.922
 1996POPC   C4A27678   5.510  22.326   7.973
 1996POPC   C1B27679   5.961  22.502   8.824
 1996POPC   C2B27680   6.023  22.344   8.378
 1996POPC   C3B27681   5.988  22.542   7.989
 1996POPC   C4B27682   6.218  22.503   7.640
 1997POPC   NC327683  25.035   0.632   9.677
 1997POPC   PO427684  25.507   0.390   9.319
 1997POPC   GL127685  25.108   0.346   9.222
 1997POPC   GL227686  25.073  44.993   9.251
 1997POPC   C1A27687  25.050   0.538   8.826
 1997POPC   D2A27688  24.973   0.805   8.481
 1997POPC   C3A27689  25.159   0.629   8.101
 1997POPC   C4A27690  25.195   0.829   7.680
 1997POPC   C1B27691  25.287   0.061   8.826
 1997POPC   C2B27692  25.507   0.339   8.527
 1997POPC   C3B27693  25.597   0.300   8.082
 1997POPC   C4B27694  25.306   0.275   7.748
 1998POPC   NC327695  19.675  42.089   9.570
 1998POPC   PO427696  19.601  42.791   9.476
 1998POPC   GL127697  19.782  42.457   9.204
 1998POPC   GL227698  19.554  42.224   9.112
 1998POPC   C1A27699  20.016  42.216   8.877
 1998POPC   D2A27700  20.211  42.373   8.496
 1998POPC   C3A27701  20.001  42.401   8.114
 1998POPC   C4A27702  20.205  42.241   7.777
 1998POPC   C1B27703  19.566  42.369   8.708
 1998POPC   C2B27704  19.760  42.074   8.412
 1998POPC   C3B27705  19.630  42.059   7.966
 1998POPC   C4B27706  19.644  42.016   7.512
 1999POPC   NC327707  16.217  33.792   9.281
 1999POPC   PO427708  16.797  33.593   9.452
 1999POPC   GL127709  16.654  33.642   9.044
 1999POPC   GL227710  16.403  33.377   9.000
 1999POPC   C1A27711  16.871  33.791   8.688
 1999POPC   D2A27712  16.986  34.104   8.393
 1999POPC   C3A27713  16.973  33.874   8.010
 1999POPC   C4A27714  16.932  33.544   7.656
 1999POPC   C1B27715  16.335  33.533   8.609
 1999POPC   C2B27716  16.590  33.592   8.247
 1999POPC   C3B27717  16.521  33.714   7.848
 1999POPC   C4B27718  16.403  33.472   7.486
 2000POPC   NC327719  34.267  29.939   9.526
 2000POPC   PO427720  34.816  29.759   9.756
 2000POPC   GL127721  34.780  29.862   9.286
 2000POPC   GL227722  35.002  30.108   9.137
 2000POPC   C1A27723  34.516  29.866   8.874
 2000POPC   D2A27724  34.619  29.780   8.420
 2000POPC   C3A27725  34.449  29.867   8.000
 2000POPC   C4A27726  34.461  29.920   7.522
 2000POPC   C1B27727  34.878  30.176   8.680
 2000POPC   C2B27728  34.881  30.206   8.206
 2000POPC   C3B27729  34.832  30.138   7.774
 2000POPC   C4B27730  35.027  30.080   7.380
 2001POPC   NC327731  32.832  44.623   9.647
 2001POPC   PO427732  33.547  44.740   9.629
 2001POPC   GL127733  33.215  44.615   9.280
 2001POPC   GL227734  32.937  44.860   9.203
 2001POPC   C1A27735  33.061  44.531   8.835
 2001POPC   D2A27736  33.318  44.346   8.494
 2001POPC   C3A27737  33.265  44.449   8.075
 2001POPC   C4A27738  32.908  44.396   7.798
 2001POPC   C1B27739  33.140   0.038   8.847
 2001POPC   C2B27740  32.924  44.935   8.486
 2001POPC   C3B27741  32.896  44.814   8.096
 2001POPC   C4B27742  33.138  44.846   7.748
 2002POPC   NC327743  12.272  10.144   9.649
 2002POPC   PO427744  12.884  10.283   9.584
 2002POPC   GL127745  12.899  10.343   9.169
 2002POPC   GL227746  12.523  10.262   9.206
 2002POPC   C1A27747  12.977  10.633   8.846
 2002POPC   D2A27748  12.778  10.656   8.481
 2002POPC   C3A27749  12.993  10.772   8.120
 2002POPC   C4A27750  13.176  10.620   7.764
 2002POPC   C1B27751  12.435  10.563   8.878
 2002POPC   C2B27752  12.247  10.655   8.487
 2002POPC   C3B27753  12.445  10.623   8.088
 2002POPC   C4B27754  12.297  10.555   7.695
 2003POPC   NC327755  29.504   4.429   9.365
 2003POPC   PO427756  30.139   4.055   9.502
 2003POPC   GL127757  29.986   4.228   9.143
 2003POPC   GL227758  30.139   4.557   9.128
 2003POPC   C1A27759  29.783   4.188   8.748
 2003POPC   D2A27760  29.767   4.425   8.360
 2003POPC   C3A27761  29.972   4.266   7.985
 2003POPC   C4A27762  29.819   3.971   7.721
 2003POPC   C1B27763  30.207   4.484   8.695
 2003POPC   C2B27764  30.250   4.595   8.269
 2003POPC   C3B27765  30.448   4.430   7.898
 2003POPC   C4B27766  30.448   4.507   7.439
 2004POPC   NC327767  44.031  37.973   9.511
 2004POPC   PO427768  43.527  37.550   9.636
 2004POPC   GL127769  43.772  37.626   9.229
 2004POPC   GL227770  43.540  37.892   9.135
 2004POPC   C1A27771  44.015  37.568   8.812
 2004POPC   D2A27772  44.097  37.729   8.361
 2004POPC   C3A27773  43.985  37.473   8.003
 2004POPC   C4A27774  43.931  37.630   7.566
 2004POPC   C1B27775  43.451  37.607   8.768
 2004POPC   C2B27776  43.578  37.596   8.316
 2004POPC   C3B27777  43.483  37.582   7.855
 2004POPC   C4B27778  43.472  37.456   7.383
 2005POPC   NC327779  21.065  12.208   9.585
 2005POPC   PO427780  21.768  12.265   9.543
 2005POPC   GL127781  21.499  12.121   9.203
 2005POPC   GL227782  21.261  12.396   9.133
 2005POPC   C1A27783  21.596  11.892   8.802
 2005POPC   D2A27784  21.736  11.979   8.369
 2005POPC   C3A27785  21.651  11.792   7.936
 2005POPC   C4A27786  21.695  11.764   7.463
 2005POPC   C1B27787  21.285  12.289   8.696
 2005POPC   C2B27788  21.269  12.147   8.265
 2005POPC   C3B27789  21.353  12.240   7.826
 2005POPC   C4B27790  21.057  12.305   7.496
 2006POPC   NC327791  13.940  43.966   9.304
 2006POPC   PO427792  13.618  43.518   9.710
 2006POPC   GL127793  13.535  43.616   9.255
 2006POPC   GL227794  13.516  43.939   9.037
 2006POPC   C1A27795  13.677  43.489   8.848
 2006POPC   D2A27796  13.904  43.416   8.508
 2006POPC   C3A27797  13.847  43.646   8.103
 2006POPC   C4A27798  13.843  43.449   7.680
 2006POPC   C1B27799  13.755  43.930   8.638
 2006POPC   C2B27800  13.729  44.137   8.261
 2006POPC   C3B27801  13.768  44.196   7.842
 2006POPC   C4B27802  13.611  43.886   7.623
 2007POPC   NC327803  18.731  38.297   9.389
 2007POPC   PO427804  19.419  38.106   9.353
 2007POPC   GL127805  19.248  38.396   9.001
 2007POPC   GL227806  19.430  38.733   8.938
 2007POPC   C1A27807  18.979  38.618   8.683
 2007POPC   D2A27808  18.698  38.665   8.312
 2007POPC   C3A27809  18.787  38.389   7.968
 2007POPC   C4A27810  19.025  38.521   7.603
 2007POPC   C1B27811  19.496  38.518   8.567
 2007POPC   C2B27812  19.208  38.397   8.255
 2007POPC   C3B27813  19.244  38.162   7.884
 2007POPC   C4B27814  19.489  38.320   7.496
 2008POPC   NC327815  14.824  40.877   9.412
 2008POPC   PO427816  15.297  40.443   9.688
 2008POPC   GL127817  15.232  40.582   9.229
 2008POPC   GL227818  14.899  40.513   9.041
 2008POPC   C1A27819  15.323  40.657   8.773
 2008POPC   D2A27820  15.100  40.701   8.381
 2008POPC   C3A27821  15.254  40.742   7.963
 2008POPC   C4A27822  15.099  40.586   7.556
 2008POPC   C1B27823  14.842  40.907   8.767
 2008POPC   C2B27824  14.782  41.149   8.385
 2008POPC   C3B27825  14.786  40.944   8.032
 2008POPC   C4B27826  14.881  41.014   7.635
 2009POPC   NC327827   5.091  21.357   9.441
 2009POPC   PO427828   5.499  21.865   9.508
 2009POPC   GL127829   5.179  21.747   9.133
 2009POPC   GL227830   4.781  21.601   9.071
 2009POPC   C1A27831   5.111  21.575   8.704
 2009POPC   D2A27832   5.198  21.590   8.290
 2009POPC   C3A27833   5.230  21.252   8.034
 2009POPC   C4A27834   5.209  21.477   7.654
 2009POPC   C1B27835   4.821  21.182   8.870
 2009POPC   C2B27836   4.943  21.144   8.454
 2009POPC   C3B27837   4.710  21.208   8.077
 2009POPC   C4B27838   4.839  21.140   7.690
 2010POPC   NC327839   5.734   0.644   9.478
 2010POPC   PO427840   5.349   0.076   9.288
 2010POPC   GL127841   5.751   0.311   9.115
 2010POPC   GL227842   6.096   0.148   9.192
 2010POPC   C1A27843   5.898   0.628   8.805
 2010POPC   D2A27844   5.919   0.856   8.391
 2010POPC   C3A27845   5.993   0.692   8.000
 2010POPC   C4A27846   5.719   0.428   7.883
 2010POPC   C1B27847   6.119   0.158   8.771
 2010POPC   C2B27848   6.010   0.338   8.386
 2010POPC   C3B27849   6.145   0.182   8.018
 2010POPC   C4B27850   6.108  44.984   7.659
 2011POPC   NC327851  25.829   8.838   9.638
 2011POPC   PO427852  26.392   9.067   9.525
 2011POPC   GL127853  26.102   8.913   9.184
 2011POPC   GL227854  25.829   9.136   9.130
 2011POPC   C1A27855  25.962   8.706   8.764
 2011POPC   D2A27856  25.971   8.774   8.295
 2011POPC   C3A27857  26.221   9.092   8.059
 2011POPC   C4A27858  26.224   9.104   7.627
 2011POPC   C1B27859  26.036   9.204   8.712
 2011POPC   C2B27860  25.852   9.310   8.309
 2011POPC   C3B27861  25.759   9.085   7.892
 2011POPC   C4B27862  25.640   9.261   7.470
 2012POPC   NC327863  12.025  38.469   9.793
 2012POPC   PO427864  12.208  37.901   9.574
 2012POPC   GL127865  11.974  38.144   9.274
 2012POPC   GL227866  11.983  38.514   9.269
 2012POPC   C1A27867  12.179  38.203   8.858
 2012POPC   D2A27868  12.015  38.294   8.450
 2012POPC   C3A27869  12.068  38.639   8.175
 2012POPC   C4A27870  12.175  38.492   7.774
 2012POPC   C1B27871  11.993  38.678   8.832
 2012POPC   C2B27872  11.638  38.673   8.538
 2012POPC   C3B27873  11.545  38.853   8.161
 2012POPC   C4B27874  11.748  38.778   7.771
 2013POPC   NC327875   0.040  30.124   9.469
 2013POPC   PO427876   0.520  29.641   9.566
 2013POPC   GL127877   0.402  29.872   9.209
 2013POPC   GL227878   0.577  30.193   9.240
 2013POPC   C1A27879   0.401  29.937   8.770
 2013POPC   D2A27880   0.650  29.811   8.445
 2013POPC   C3A27881   0.434  29.937   8.114
 2013POPC   C4A27882   0.555  29.846   7.737
 2013POPC   C1B27883   0.752  30.304   8.824
 2013POPC   C2B27884   0.679  30.319   8.365
 2013POPC   C3B27885   0.632  30.360   7.916
 2013POPC   C4B27886   0.271  30.325   7.659
 2014POPC   NC327887   1.955  11.727   9.709
 2014POPC   PO427888   1.676  12.271   9.488
 2014POPC   GL127889   1.940  12.120   9.170
 2014POPC   GL227890   2.286  12.011   9.164
 2014POPC   C1A27891   2.031  12.168   8.739
 2014POPC   D2A27892   2.087  12.256   8.341
 2014POPC   C3A27893   1.993  12.037   7.998
 2014POPC   C4A27894   2.210  12.153   7.650
 2014POPC   C1B27895   2.379  11.778   8.769
 2014POPC   C2B27896   2.226  11.693   8.324
 2014POPC   C3B27897   2.338  11.681   7.845
 2014POPC   C4B27898   2.357  11.526   7.368
 2015POPC   NC327899   2.636  19.163   9.416
 2015POPC   PO427900   3.098  18.581   9.370
 2015POPC   GL127901   2.947  18.899   9.006
 2015POPC   GL227902   2.672  19.159   8.913
 2015POPC   C1A27903   2.884  18.868   8.534
 2015POPC   D2A27904   2.889  19.233   8.243
 2015POPC   C3A27905   2.837  19.196   7.802
 2015POPC   C4A27906   2.876  18.806   7.591
 2015POPC   C1B27907   2.401  18.806   8.837
 2015POPC   C2B27908   2.393  18.611   8.428
 2015POPC   C3B27909   2.598  18.787   8.053
 2015POPC   C4B27910   2.387  18.925   7.678
 2016POPC   NC327911   2.788  19.987   9.548
 2016POPC   PO427912   3.127  19.363   9.417
 2016POPC   GL127913   2.843  19.591   9.140
 2016POPC   GL227914   2.882  19.950   9.056
 2016POPC   C1A27915   2.854  19.613   8.682
 2016POPC   D2A27916   3.058  19.721   8.302
 2016POPC   C3A27917   2.773  19.689   7.983
 2016POPC   C4A27918   2.437  19.828   7.743
 2016POPC   C1B27919   2.759  20.143   8.655
 2016POPC   C2B27920   2.737  20.168   8.229
 2016POPC   C3B27921   2.581  20.316   7.866
 2016POPC   C4B27922   2.750  20.194   7.488
 2017POPC   NC327923  14.989  28.743   9.529
 2017POPC   PO427924  15.578  29.039   9.388
 2017POPC   GL127925  15.304  29.208   9.105
 2017POPC   GL227926  14.979  29.194   9.241
 2017POPC   C1A27927  15.208  29.410   8.718
 2017POPC   D2A27928  15.301  29.211   8.323
 2017POPC   C3A27929  15.319  29.360   7.918
 2017POPC   C4A27930  15.270  29.090   7.588
 2017POPC   C1B27931  14.838  29.052   8.837
 2017POPC   C2B27932  14.794  29.237   8.427
 2017POPC   C3B27933  14.820  29.086   8.028
 2017POPC   C4B27934  14.814  29.382   7.738
 2018POPC   NC327935  35.528  35.652   9.520
 2018POPC   PO427936  35.019  35.214   9.479
 2018POPC   GL127937  35.362  35.300   9.181
 2018POPC   GL227938  35.235  35.632   9.122
 2018POPC   C1A27939  35.640  35.250   8.822
 2018POPC   D2A27940  35.468  35.318   8.439
 2018POPC   C3A27941  35.541  35.322   8.038
 2018POPC   C4A27942  35.279  35.336   7.709
 2018POPC   C1B27943  35.095  35.497   8.759
 2018POPC   C2B27944  35.147  35.710   8.370
 2018POPC   C3B27945  34.972  35.599   7.996
 2018POPC   C4B27946  35.038  35.770   7.593
 2019POPC   NC327947   6.088  10.789   9.538
 2019POPC   PO427948   5.961  10.156   9.338
 2019POPC   GL127949   6.048  10.475   9.135
 2019POPC   GL227950   5.714  10.633   9.203
 2019POPC   C1A27951   6.018  10.772   8.828
 2019POPC   D2A27952   5.740  10.850   8.515
 2019POPC   C3A27953   5.975  10.671   8.190
 2019POPC   C4A27954   6.020  10.451   7.797
 2019POPC   C1B27955   5.569  10.429   8.783
 2019POPC   C2B27956   5.526  10.420   8.291
 2019POPC   C3B27957   5.555  10.638   7.860
 2019POPC   C4B27958   5.444  10.566   7.374
 2020POPC   NC327959  16.238   6.044   9.638
 2020POPC   PO427960  15.527   5.765   9.574
 2020POPC   GL127961  15.810   5.888   9.248
 2020POPC   GL227962  16.161   5.843   9.181
 2020POPC   C1A27963  15.721   5.990   8.819
 2020POPC   D2A27964  15.935   5.956   8.470
 2020POPC   C3A27965  15.709   6.007   8.106
 2020POPC   C4A27966  15.886   6.316   7.832
 2020POPC   C1B27967  16.296   5.607   8.800
 2020POPC   C2B27968  16.136   5.493   8.418
 2020POPC   C3B27969  16.156   5.713   8.065
 2020POPC   C4B27970  16.467   5.559   7.808
 2021POPC   NC327971  14.639  26.300   9.331
 2021POPC   PO427972  15.068  25.727   9.347
 2021POPC   GL127973  15.266  26.100   9.145
 2021POPC   GL227974  15.002  26.239   8.964
 2021POPC   C1A27975  15.594  26.087   8.810
 2021POPC   D2A27976  15.644  25.791   8.467
 2021POPC   C3A27977  15.444  25.822   8.004
 2021POPC   C4A27978  15.360  26.035   7.568
 2021POPC   C1B27979  15.137  25.888   8.691
 2021POPC   C2B27980  15.037  25.884   8.292
 2021POPC   C3B27981  15.070  26.175   7.944
 2021POPC   C4B27982  14.844  26.060   7.557
 2022POPC   NC327983  21.521  16.526   9.413
 2022POPC   PO427984  20.978  16.885   9.547
 2022POPC   GL127985  21.192  16.946   9.140
 2022POPC   GL227986  21.573  16.972   9.085
 2022POPC   C1A27987  21.103  16.958   8.698
 2022POPC   D2A27988  20.976  16.679   8.385
 2022POPC   C3A27989  21.099  16.761   7.974
 2022POPC   C4A27990  21.407  16.904   7.772
 2022POPC   C1B27991  21.537  16.674   8.718
 2022POPC   C2B27992  21.531  16.641   8.281
 2022POPC   C3B27993  21.467  16.406   7.946
 2022POPC   C4B27994  21.605  16.454   7.562
 2023POPC   NC327995  35.731  13.080   9.428
 2023POPC   PO427996  35.211  12.665   9.500
 2023POPC   GL127997  35.349  12.889   9.159
 2023POPC   GL227998  35.271  13.238   9.231
 2023POPC   C1A27999  35.554  12.777   8.799
 2023POPC   D2A28000  35.543  12.944   8.408
 2023POPC   C3A28001  35.493  12.756   8.030
 2023POPC   C4A28002  35.748  12.789   7.667
 2023POPC   C1B28003  35.455  13.363   8.835
 2023POPC   C2B28004  35.240  13.359   8.416
 2023POPC   C3B28005  35.247  13.199   8.025
 2023POPC   C4B28006  35.333  13.076   7.594
 2024POPC   NC328007  17.050  42.592   9.427
 2024POPC   PO428008  17.731  42.463   9.405
 2024POPC   GL128009  17.492  42.177   9.082
 2024POPC   GL228010  17.163  42.252   9.055
 2024POPC   C1A28011  17.407  42.068   8.638
 2024POPC   D2A28012  17.691  42.211   8.334
 2024POPC   C3A28013  17.579  42.394   7.945
 2024POPC   C4A28014  17.537  42.185   7.568
 2024POPC   C1B28015  17.380  42.588   8.823
 2024POPC   C2B28016  17.356  42.562   8.412
 2024POPC   C3B28017  17.127  42.236   8.210
 2024POPC   C4B28018  17.062  42.188   7.773
 2025POPC   NC328019  14.059  27.892   9.170
 2025POPC   PO428020  13.744  27.546   9.629
 2025POPC   GL128021  13.658  27.526   9.190
 2025POPC   GL228022  13.993  27.390   9.094
 2025POPC   C1A28023  13.453  27.667   8.785
 2025POPC   D2A28024  13.524  27.995   8.440
 2025POPC   C3A28025  13.469  27.877   7.989
 2025POPC   C4A28026  13.300  27.505   7.786
 2025POPC   C1B28027  13.903  27.478   8.651
 2025POPC   C2B28028  13.609  27.470   8.282
 2025POPC   C3B28029  13.776  27.459   7.852
 2025POPC   C4B28030  13.646  27.343   7.420
 2026POPC   NC328031   3.787  42.838   9.822
 2026POPC   PO428032   3.468  43.300   9.484
 2026POPC   GL128033   3.399  42.937   9.238
 2026POPC   GL228034   3.732  42.880   9.245
 2026POPC   C1A28035   3.356  42.900   8.791
 2026POPC   D2A28036   3.306  43.260   8.512
 2026POPC   C3A28037   3.357  43.156   8.076
 2026POPC   C4A28038   3.366  43.374   7.682
 2026POPC   C1B28039   3.757  43.200   8.913
 2026POPC   C2B28040   3.789  43.080   8.503
 2026POPC   C3B28041   4.010  43.086   8.162
 2026POPC   C4B28042   3.795  43.114   7.791
 2027POPC   NC328043  10.839  31.246   9.495
 2027POPC   PO428044  11.416  31.626   9.509
 2027POPC   GL128045  11.379  31.535   9.110
 2027POPC   GL228046  11.144  31.253   9.051
 2027POPC   C1A28047  11.361  31.605   8.698
 2027POPC   D2A28048  11.317  31.231   8.465
 2027POPC   C3A28049  11.409  31.343   8.079
 2027POPC   C4A28050  11.463  31.740   7.914
 2027POPC   C1B28051  10.882  31.396   8.708
 2027POPC   C2B28052  10.958  31.541   8.278
 2027POPC   C3B28053  10.956  31.427   7.834
 2027POPC   C4B28054  10.922  31.257   7.408
 2028POPC   NC328055  39.733   3.626   9.466
 2028POPC   PO428056  40.245   3.109   9.414
 2028POPC   GL128057  40.140   3.483   9.176
 2028POPC   GL228058  39.815   3.344   9.058
 2028POPC   C1A28059  40.078   3.673   8.768
 2028POPC   D2A28060  40.215   3.465   8.390
 2028POPC   C3A28061  40.007   3.477   7.998
 2028POPC   C4A28062  40.116   3.827   7.751
 2028POPC   C1B28063  39.583   3.452   8.711
 2028POPC   C2B28064  39.577   3.549   8.286
 2028POPC   C3B28065  39.668   3.889   8.013
 2028POPC   C4B28066  39.609   3.770   7.608
 2029POPC   NC328067  32.638   7.243   9.336
 2029POPC   PO428068  31.915   6.980   9.533
 2029POPC   GL128069  32.051   7.313   9.201
 2029POPC   GL228070  32.028   7.690   9.228
 2029POPC   C1A28071  31.859   7.403   8.791
 2029POPC   D2A28072  32.074   7.119   8.490
 2029POPC   C3A28073  32.071   7.256   8.074
 2029POPC   C4A28074  31.809   7.609   7.967
 2029POPC   C1B28075  32.288   7.665   8.815
 2029POPC   C2B28076  32.101   7.666   8.390
 2029POPC   C3B28077  32.340   7.670   7.964
 2029POPC   C4B28078  32.625   7.320   7.872
 2030POPC   NC328079   9.282  13.697   9.270
 2030POPC   PO428080   9.869  13.763   9.603
 2030POPC   GL128081   9.864  13.879   9.193
 2030POPC   GL228082  10.165  14.048   9.106
 2030POPC   C1A28083   9.860  13.599   8.842
 2030POPC   D2A28084   9.892  13.393   8.420
 2030POPC   C3A28085   9.537  13.436   8.115
 2030POPC   C4A28086   9.518  13.662   7.717
 2030POPC   C1B28087  10.235  13.942   8.691
 2030POPC   C2B28088  10.248  13.837   8.268
 2030POPC   C3B28089   9.946  13.709   7.987
 2030POPC   C4B28090   9.955  13.851   7.554
 2031POPC   NC328091  43.735  18.691   9.470
 2031POPC   PO428092  43.954  18.025   9.567
 2031POPC   GL128093  43.729  18.220   9.183
 2031POPC   GL228094  43.742  18.533   8.999
 2031POPC   C1A28095  43.622  18.077   8.766
 2031POPC   D2A28096  43.836  18.015   8.361
 2031POPC   C3A28097  43.796  18.350   8.037
 2031POPC   C4A28098  43.703  18.335   7.591
 2031POPC   C1B28099  44.169  18.572   8.826
 2031POPC   C2B28100  44.080  18.523   8.429
 2031POPC   C3B28101  44.292  18.603   8.080
 2031POPC   C4B28102  44.180  18.503   7.693
 2032POPC   NC328103   9.584  40.256   9.456
 2032POPC   PO428104  10.092  39.776   9.463
 2032POPC   GL128105   9.921  40.031   9.091
 2032POPC   GL228106   9.571  40.145   8.968
 2032POPC   C1A28107   9.961  40.114   8.649
 2032POPC   D2A28108  10.128  40.118   8.232
 2032POPC   C3A28109   9.905  40.066   7.845
 2032POPC   C4A28110  10.155  39.939   7.488
 2032POPC   C1B28111   9.591  39.741   8.754
 2032POPC   C2B28112   9.491  39.521   8.383
 2032POPC   C3B28113   9.553  39.656   7.972
 2032POPC   C4B28114   9.485  39.841   7.553
 2033POPC   NC328115   3.801  38.302   9.609
 2033POPC   PO428116   3.146  38.452   9.561
 2033POPC   GL128117   3.484  38.478   9.240
 2033POPC   GL228118   3.700  38.195   9.124
 2033POPC   C1A28119   3.486  38.643   8.843
 2033POPC   D2A28120   3.326  38.532   8.434
 2033POPC   C3A28121   3.661  38.616   8.144
 2033POPC   C4A28122   3.612  38.736   7.733
 2033POPC   C1B28123   3.424  38.154   8.773
 2033POPC   C2B28124   3.520  38.092   8.316
 2033POPC   C3B28125   3.352  38.270   7.957
 2033POPC   C4B28126   3.492  38.256   7.562
 2034POPC   NC328127  40.278   5.300   9.699
 2034POPC   PO428128  39.830   4.998   9.411
 2034POPC   GL128129  40.197   5.084   9.167
 2034POPC   GL228130  40.424   4.770   9.189
 2034POPC   C1A28131  40.142   5.234   8.742
 2034POPC   D2A28132  39.929   5.420   8.356
 2034POPC   C3A28133  40.076   5.200   7.974
 2034POPC   C4A28134  39.997   5.384   7.580
 2034POPC   C1B28135  40.230   4.724   8.772
 2034POPC   C2B28136  40.269   4.910   8.382
 2034POPC   C3B28137  40.404   4.757   8.033
 2034POPC   C4B28138  40.224   4.783   7.652
 2035POPC   NC328139   8.244  11.480   9.573
 2035POPC   PO428140   7.727  11.047   9.651
 2035POPC   GL128141   7.870  11.152   9.236
 2035POPC   GL228142   7.918  11.475   9.174
 2035POPC   C1A28143   8.288  11.211   8.961
 2035POPC   D2A28144   8.418  11.378   8.547
 2035POPC   C3A28145   8.258  11.120   8.203
 2035POPC   C4A28146   8.376  10.937   7.783
 2035POPC   C1B28147   7.861  11.443   8.753
 2035POPC   C2B28148   7.985  11.677   8.416
 2035POPC   C3B28149   8.296  11.671   8.124
 2035POPC   C4B28150   8.226  11.414   7.775
 2036POPC   NC328151  22.363  24.819   9.442
 2036POPC   PO428152  22.188  25.455   9.421
 2036POPC   GL128153  22.199  25.248   9.060
 2036POPC   GL228154  22.524  25.140   9.077
 2036POPC   C1A28155  22.310  25.308   8.620
 2036POPC   D2A28156  22.438  25.414   8.212
 2036POPC   C3A28157  22.162  25.441   7.877
 2036POPC   C4A28158  22.252  25.258   7.467
 2036POPC   C1B28159  22.336  24.824   8.774
 2036POPC   C2B28160  22.115  24.884   8.392
 2036POPC   C3B28161  22.286  24.953   8.008
 2036POPC   C4B28162  22.314  24.783   7.602
 2037POPC   NC328163  23.203  38.752   9.587
 2037POPC   PO428164  22.775  38.316   9.648
 2037POPC   GL128165  22.796  38.561   9.281
 2037POPC   GL228166  23.103  38.582   9.131
 2037POPC   C1A28167  22.666  38.549   8.883
 2037POPC   D2A28168  22.881  38.644   8.513
 2037POPC   C3A28169  22.735  38.596   8.098
 2037POPC   C4A28170  22.812  38.477   7.689
 2037POPC   C1B28171  23.325  38.635   8.785
 2037POPC   C2B28172  23.482  38.384   8.464
 2037POPC   C3B28173  23.448  38.257   8.057
 2037POPC   C4B28174  23.327  38.467   7.697
 2038POPC   NC328175   6.327   9.971   9.541
 2038POPC   PO428176   6.869   9.570   9.442
 2038POPC   GL128177   6.626   9.703   9.049
 2038POPC   GL228178   6.409  10.052   9.053
 2038POPC   C1A28179   6.867   9.664   8.629
 2038POPC   D2A28180   7.002   9.667   8.187
 2038POPC   C3A28181   6.734   9.659   7.854
 2038POPC   C4A28182   6.327   9.419   7.918
 2038POPC   C1B28183   6.514  10.027   8.632
 2038POPC   C2B28184   6.449   9.814   8.265
 2038POPC   C3B28185   6.313   9.943   7.877
 2038POPC   C4B28186   6.271  10.118   7.511
 2039POPC   NC328187  26.230  36.677   9.873
 2039POPC   PO428188  26.024  36.119   9.493
 2039POPC   GL128189  26.185  36.044   9.123
 2039POPC   GL228190  25.865  35.999   9.011
 2039POPC   C1A28191  26.408  35.989   8.767
 2039POPC   D2A28192  26.530  35.975   8.378
 2039POPC   C3A28193  26.248  36.082   8.080
 2039POPC   C4A28194  26.297  36.062   7.663
 2039POPC   C1B28195  25.649  36.176   8.687
 2039POPC   C2B28196  25.538  36.122   8.264
 2039POPC   C3B28197  25.788  36.226   7.902
 2039POPC   C4B28198  25.765  36.092   7.479
 2040POPC   NC328199   4.630  36.694   9.504
 2040POPC   PO428200   4.158  37.107   9.707
 2040POPC   GL128201   4.217  37.001   9.256
 2040POPC   GL228202   4.563  37.019   9.109
 2040POPC   C1A28203   4.155  37.057   8.800
 2040POPC   D2A28204   4.195  36.822   8.412
 2040POPC   C3A28205   4.217  37.044   8.039
 2040POPC   C4A28206   4.114  37.136   7.620
 2040POPC   C1B28207   4.438  36.618   8.849
 2040POPC   C2B28208   4.540  36.449   8.438
 2040POPC   C3B28209   4.470  36.562   8.038
 2040POPC   C4B28210   4.571  36.848   7.714
 2041POPC   NC328211  33.298  24.971   9.576
 2041POPC   PO428212  32.706  25.286   9.529
 2041POPC   GL128213  32.916  25.102   9.225
 2041POPC   GL228214  33.184  25.339   9.205
 2041POPC   C1A28215  33.098  24.919   8.893
 2041POPC   D2A28216  33.125  24.943   8.435
 2041POPC   C3A28217  32.789  25.116   8.149
 2041POPC   C4A28218  32.787  25.102   7.687
 2041POPC   C1B28219  33.353  25.346   8.784
 2041POPC   C2B28220  33.124  25.453   8.415
 2041POPC   C3B28221  33.075  25.535   7.995
 2041POPC   C4B28222  33.190  25.417   7.593
 2042POPC   NC328223  29.757  22.477   9.451
 2042POPC   PO428224  30.024  21.874   9.558
 2042POPC   GL128225  30.085  22.064   9.180
 2042POPC   GL228226  29.748  22.077   9.134
 2042POPC   C1A28227  30.125  22.153   8.735
 2042POPC   D2A28228  30.258  22.258   8.314
 2042POPC   C3A28229  30.029  22.260   7.919
 2042POPC   C4A28230  30.169  22.084   7.522
 2042POPC   C1B28231  29.622  22.235   8.752
 2042POPC   C2B28232  29.737  22.082   8.347
 2042POPC   C3B28233  29.545  22.046   7.944
 2042POPC   C4B28234  29.667  21.929   7.571
 2043POPC   NC328235  20.920  39.143   9.564
 2043POPC   PO428236  20.301  38.964   9.404
 2043POPC   GL128237  20.593  39.198   9.158
 2043POPC   GL228238  20.859  38.994   9.078
 2043POPC   C1A28239  20.685  39.437   8.785
 2043POPC   D2A28240  20.500  39.542   8.378
 2043POPC   C3A28241  20.724  39.515   7.999
 2043POPC   C4A28242  20.555  39.351   7.640
 2043POPC   C1B28243  20.926  38.738   8.707
 2043POPC   C2B28244  20.882  38.734   8.265
 2043POPC   C3B28245  20.649  38.929   7.927
 2043POPC   C4B28246  20.646  38.885   7.473
 2044POPC   NC328247   6.597  27.990   9.849
 2044POPC   PO428248   6.487  27.414   9.512
 2044POPC   GL128249   6.762  27.560   9.235
 2044POPC   GL228250   6.711  27.896   9.195
 2044POPC   C1A28251   6.732  27.578   8.787
 2044POPC   D2A28252   6.836  27.347   8.419
 2044POPC   C3A28253   6.634  27.540   8.061
 2044POPC   C4A28254   6.673  27.662   7.609
 2044POPC   C1B28255   6.447  28.017   8.808
 2044POPC   C2B28256   6.280  27.889   8.361
 2044POPC   C3B28257   6.381  27.957   7.901
 2044POPC   C4B28258   6.339  27.997   7.410
 2045POPC   NC328259  19.656   9.020   9.562
 2045POPC   PO428260  19.861   8.348   9.512
 2045POPC   GL128261  19.646   8.635   9.216
 2045POPC   GL228262  19.962   8.819   9.149
 2045POPC   C1A28263  19.551   8.943   8.861
 2045POPC   D2A28264  19.771   8.874   8.474
 2045POPC   C3A28265  19.572   8.944   8.115
 2045POPC   C4A28266  19.587   8.991   7.709
 2045POPC   C1B28267  20.012   9.159   8.828
 2045POPC   C2B28268  20.106   9.254   8.376
 2045POPC   C3B28269  20.061   9.191   7.905
 2045POPC   C4B28270  20.178   9.369   7.492
 2046POPC   NC328271  41.588  17.699   9.475
 2046POPC   PO428272  41.457  18.416   9.414
 2046POPC   GL128273  41.590  18.176   9.105
 2046POPC   GL228274  41.309  17.947   9.148
 2046POPC   C1A28275  41.670  18.407   8.707
 2046POPC   D2A28276  41.914  18.636   8.375
 2046POPC   C3A28277  41.813  18.507   7.959
 2046POPC   C4A28278  41.846  18.251   7.564
 2046POPC   C1B28279  41.288  17.929   8.728
 2046POPC   C2B28280  41.022  18.225   8.513
 2046POPC   C3B28281  41.117  18.352   8.127
 2046POPC   C4B28282  41.392  18.247   7.812
 2047POPC   NC328283  28.992  13.377   9.468
 2047POPC   PO428284  29.178  12.636   9.466
 2047POPC   GL128285  29.215  12.764   9.074
 2047POPC   GL228286  29.068  13.080   9.073
 2047POPC   C1A28287  29.224  12.861   8.629
 2047POPC   D2A28288  29.481  13.043   8.299
 2047POPC   C3A28289  29.309  12.956   7.912
 2047POPC   C4A28290  29.146  12.532   7.847
 2047POPC   C1B28291  28.782  13.152   8.737
 2047POPC   C2B28292  28.929  13.201   8.319
 2047POPC   C3B28293  28.787  12.979   7.949
 2047POPC   C4B28294  28.925  12.879   7.572
 2048POPC   NC328295  37.722  37.521   9.742
 2048POPC   PO428296  37.730  36.855   9.512
 2048POPC   GL128297  37.560  36.822   9.106
 2048POPC   GL228298  37.685  37.163   9.094
 2048POPC   C1A28299  37.417  36.641   8.709
 2048POPC   D2A28300  37.552  36.572   8.253
 2048POPC   C3A28301  37.313  36.679   7.844
 2048POPC   C4A28302  37.456  36.892   7.445
 2048POPC   C1B28303  37.708  37.106   8.665
 2048POPC   C2B28304  37.508  37.209   8.290
 2048POPC   C3B28305  37.643  37.041   7.923
 2048POPC   C4B28306  37.850  36.623   7.821
 2049POPC   NC328307  43.989   4.474   9.529
 2049POPC   PO428308  44.254   3.812   9.566
 2049POPC   GL128309  44.193   4.132   9.185
 2049POPC   GL228310  44.232   4.492   9.064
 2049POPC   C1A28311  44.009   4.160   8.753
 2049POPC   D2A28312  44.211   4.107   8.356
 2049POPC   C3A28313  43.923   4.093   8.030
 2049POPC   C4A28314  43.646   4.341   7.838
 2049POPC   C1B28315  44.077   4.694   8.713
 2049POPC   C2B28316  43.933   4.556   8.320
 2049POPC   C3B28317  44.182   4.522   7.962
 2049POPC   C4B28318  44.342   4.802   7.633
 2050POPC   NC328319   8.720  26.267   9.808
 2050POPC   PO428320   9.210  25.842   9.509
 2050POPC   GL128321   9.017  25.974   9.103
 2050POPC   GL228322   8.719  25.807   8.967
 2050POPC   C1A28323   8.845  26.262   8.766
 2050POPC   D2A28324   9.153  26.369   8.485
 2050POPC   C3A28325   9.174  26.228   8.046
 2050POPC   C4A28326   8.764  26.247   7.853
 2050POPC   C1B28327   8.988  25.788   8.635
 2050POPC   C2B28328   8.910  25.838   8.214
 2050POPC   C3B28329   9.206  25.726   7.889
 2050POPC   C4B28330   9.580  25.651   7.653
 2051POPC   NC328331  27.217  42.513   9.876
 2051POPC   PO428332  26.640  42.278   9.605
 2051POPC   GL128333  26.636  42.340   9.178
 2051POPC   GL228334  26.790  42.030   9.134
 2051POPC   C1A28335  26.739  42.639   8.892
 2051POPC   D2A28336  26.812  42.656   8.452
 2051POPC   C3A28337  26.840  42.453   8.065
 2051POPC   C4A28338  26.704  42.671   7.715
 2051POPC   C1B28339  26.845  42.185   8.716
 2051POPC   C2B28340  27.169  42.228   8.402
 2051POPC   C3B28341  27.146  42.042   8.002
 2051POPC   C4B28342  26.743  42.030   7.762
 2052POPC   NC328343  21.769  42.790   9.384
 2052POPC   PO428344  21.413  43.412   9.466
 2052POPC   GL128345  21.217  43.332   9.113
 2052POPC   GL228346  21.334  42.984   9.120
 2052POPC   C1A28347  21.179  43.237   8.705
 2052POPC   D2A28348  21.548  43.274   8.489
 2052POPC   C3A28349  21.564  43.230   8.030
 2052POPC   C4A28350  21.638  43.567   7.724
 2052POPC   C1B28351  21.512  42.835   8.761
 2052POPC   C2B28352  21.690  42.807   8.335
 2052POPC   C3B28353  21.528  42.717   7.932
 2052POPC   C4B28354  21.267  42.530   7.605
 2053POPC   NC328355  43.409   6.398   9.441
 2053POPC   PO428356  43.014   6.952   9.512
 2053POPC   GL128357  43.109   6.750   9.170
 2053POPC   GL228358  43.017   7.042   8.986
 2053POPC   C1A28359  43.094   6.531   8.788
 2053POPC   D2A28360  43.021   6.386   8.348
 2053POPC   C3A28361  42.813   6.727   8.164
 2053POPC   C4A28362  42.681   6.882   7.771
 2053POPC   C1B28363  43.280   7.123   8.620
 2053POPC   C2B28364  43.240   7.025   8.174
 2053POPC   C3B28365  43.221   6.803   7.781
 2053POPC   C4B28366  43.479   6.826   7.371
 2054POPC   NC328367  43.456  28.569   9.398
 2054POPC   PO428368  43.192  28.001   9.685
 2054POPC   GL128369  43.288  28.126   9.228
 2054POPC   GL228370  43.523  27.894   9.151
 2054POPC   C1A28371  43.078  28.420   8.839
 2054POPC   D2A28372  43.165  28.609   8.415
 2054POPC   C3A28373  43.182  28.376   8.007
 2054POPC   C4A28374  42.919  28.143   7.769
 2054POPC   C1B28375  43.366  28.017   8.759
 2054POPC   C2B28376  43.146  28.089   8.443
 2054POPC   C3B28377  43.250  27.851   8.122
 2054POPC   C4B28378  43.358  27.885   7.719
 2055POPC   NC328379   6.515  42.840   9.376
 2055POPC   PO428380   6.944  43.336   9.495
 2055POPC   GL128381   6.780  43.351   9.120
 2055POPC   GL228382   6.443  43.282   9.089
 2055POPC   C1A28383   6.778  43.534   8.720
 2055POPC   D2A28384   6.716  43.588   8.266
 2055POPC   C3A28385   6.818  43.506   7.810
 2055POPC   C4A28386   6.799  43.084   7.644
 2055POPC   C1B28387   6.603  42.977   8.751
 2055POPC   C2B28388   6.554  42.720   8.356
 2055POPC   C3B28389   6.457  42.925   7.971
 2055POPC   C4B28390   6.275  43.111   7.575
 2056POPC   NC328391  42.026  40.815   9.462
 2056POPC   PO428392  42.665  40.722   9.620
 2056POPC   GL128393  42.458  40.819   9.187
 2056POPC   GL228394  42.196  40.579   9.054
 2056POPC   C1A28395  42.455  40.918   8.743
 2056POPC   D2A28396  42.363  40.891   8.319
 2056POPC   C3A28397  42.523  40.578   8.039
 2056POPC   C4A28398  42.597  40.845   7.706
 2056POPC   C1B28399  41.945  40.777   8.731
 2056POPC   C2B28400  41.844  40.902   8.296
 2056POPC   C3B28401  42.065  40.788   7.892
 2056POPC   C4B28402  42.206  40.633   7.458
 2057POPC   NC328403  30.326   0.805   9.502
 2057POPC   PO428404  30.855   0.300   9.516
 2057POPC   GL128405  30.876   0.365   9.111
 2057POPC   GL228406  30.598   0.610   9.080
 2057POPC   C1A28407  30.899   0.429   8.694
 2057POPC   D2A28408  30.877   0.620   8.313
 2057POPC   C3A28409  30.723   0.455   7.951
 2057POPC   C4A28410  30.868   0.603   7.549
 2057POPC   C1B28411  30.377   0.495   8.731
 2057POPC   C2B28412  30.365   0.623   8.328
 2057POPC   C3B28413  30.249   0.677   7.915
 2057POPC   C4B28414  30.434   0.847   7.534
 2058POPC   NC328415   1.211  19.193   9.540
 2058POPC   PO428416   1.498  18.586   9.555
 2058POPC   GL128417   1.471  18.881   9.211
 2058POPC   GL228418   1.095  18.898   9.117
 2058POPC   C1A28419   1.444  19.215   8.905
 2058POPC   D2A28420   1.386  19.302   8.454
 2058POPC   C3A28421   1.176  19.022   8.187
 2058POPC   C4A28422   1.393  18.966   7.827
 2058POPC   C1B28423   0.949  19.316   8.912
 2058POPC   C2B28424   0.866  19.527   8.539
 2058POPC   C3B28425   0.778  19.578   8.128
 2058POPC   C4B28426   0.982  19.345   7.792
 2059POPC   NC328427   2.900   4.627   9.465
 2059POPC   PO428428   2.470   4.065   9.462
 2059POPC   GL128429   2.793   4.198   9.184
 2059POPC   GL228430   2.604   4.482   9.087
 2059POPC   C1A28431   2.893   4.133   8.743
 2059POPC   D2A28432   3.073   4.133   8.318
 2059POPC   C3A28433   2.944   4.105   7.861
 2059POPC   C4A28434   2.678   4.346   7.509
 2059POPC   C1B28435   2.847   4.644   8.777
 2059POPC   C2B28436   2.742   4.707   8.376
 2059POPC   C3B28437   2.658   4.563   7.990
 2059POPC   C4B28438   2.884   4.794   7.684
 2060POPC   NC328439  28.890   7.134   9.523
 2060POPC   PO428440  29.516   7.312   9.557
 2060POPC   GL128441  29.300   7.250   9.219
 2060POPC   GL228442  29.162   7.560   9.167
 2060POPC   C1A28443  29.216   7.150   8.819
 2060POPC   D2A28444  29.036   7.409   8.569
 2060POPC   C3A28445  29.123   7.368   8.151
 2060POPC   C4A28446  28.974   7.164   7.827
 2060POPC   C1B28447  29.478   7.580   8.829
 2060POPC   C2B28448  29.446   7.679   8.404
 2060POPC   C3B28449  29.555   7.612   7.976
 2060POPC   C4B28450  29.279   7.520   7.623
 2061POPC   NC328451  37.413   2.655   9.782
 2061POPC   PO428452  38.011   2.529   9.501
 2061POPC   GL128453  37.842   2.715   9.183
 2061POPC   GL228454  37.538   2.764   9.174
 2061POPC   C1A28455  37.951   2.841   8.817
 2061POPC   D2A28456  37.923   2.612   8.439
 2061POPC   C3A28457  37.793   2.708   8.016
 2061POPC   C4A28458  37.416   2.478   7.850
 2061POPC   C1B28459  37.451   2.727   8.728
 2061POPC   C2B28460  37.478   2.964   8.369
 2061POPC   C3B28461  37.373   2.979   7.970
 2061POPC   C4B28462  37.548   2.888   7.581
 2062POPC   NC328463  25.760  19.715   9.529
 2062POPC   PO428464  26.150  20.171   9.226
 2062POPC   GL128465  26.152  19.803   9.128
 2062POPC   GL228466  25.845  19.737   9.035
 2062POPC   C1A28467  26.339  19.710   8.775
 2062POPC   D2A28468  26.142  19.863   8.418
 2062POPC   C3A28469  26.243  20.103   8.057
 2062POPC   C4A28470  25.920  20.123   7.743
 2062POPC   C1B28471  25.915  19.440   8.750
 2062POPC   C2B28472  25.976  19.374   8.334
 2062POPC   C3B28473  25.921  19.653   7.986
 2062POPC   C4B28474  25.731  19.492   7.632
 2063POPC   NC328475   0.884   9.333   9.320
 2063POPC   PO428476   1.400   9.712   9.535
 2063POPC   GL128477   1.169   9.930   9.226
 2063POPC   GL228478   1.083   9.661   8.973
 2063POPC   C1A28479   1.341  10.107   8.847
 2063POPC   D2A28480   1.423   9.913   8.443
 2063POPC   C3A28481   1.301  10.118   8.068
 2063POPC   C4A28482   1.222   9.966   7.689
 2063POPC   C1B28483   0.968   9.328   8.666
 2063POPC   C2B28484   0.880   9.375   8.251
 2063POPC   C3B28485   1.165   9.595   8.031
 2063POPC   C4B28486   1.494   9.443   7.800
 2064POPC   NC328487  44.378   3.359   9.493
 2064POPC   PO428488   0.023   3.505   9.564
 2064POPC   GL128489  44.792   3.518   9.175
 2064POPC   GL228490  44.500   3.723   9.139
 2064POPC   C1A28491  44.805   3.666   8.743
 2064POPC   D2A28492  44.948   3.497   8.368
 2064POPC   C3A28493   0.126   3.816   8.105
 2064POPC   C4A28494  44.981   3.833   7.704
 2064POPC   C1B28495  44.282   3.701   8.753
 2064POPC   C2B28496  44.426   3.577   8.363
 2064POPC   C3B28497  44.609   3.465   7.964
 2064POPC   C4B28498  44.381   3.597   7.624
 2065POPC   NC328499  17.889  13.849   9.423
 2065POPC   PO428500  17.280  13.902   9.564
 2065POPC   GL128501  17.389  13.723   9.152
 2065POPC   GL228502  17.357  13.370   9.170
 2065POPC   C1A28503  17.528  13.568   8.722
 2065POPC   D2A28504  17.750  13.704   8.329
 2065POPC   C3A28505  17.435  13.764   8.009
 2065POPC   C4A28506  17.405  13.704   7.546
 2065POPC   C1B28507  17.234  13.089   8.844
 2065POPC   C2B28508  17.428  13.101   8.452
 2065POPC   C3B28509  17.581  13.248   8.091
 2065POPC   C4B28510  17.211  13.327   7.879
 2066POPC   NC328511  30.893  25.635   9.404
 2066POPC   PO428512  31.099  25.031   9.516
 2066POPC   GL128513  30.826  24.991   9.157
 2066POPC   GL228514  30.615  25.267   9.150
 2066POPC   C1A28515  30.742  25.015   8.702
 2066POPC   D2A28516  30.921  25.103   8.290
 2066POPC   C3A28517  30.656  25.156   7.929
 2066POPC   C4A28518  30.617  25.129   7.476
 2066POPC   C1B28519  30.693  25.509   8.772
 2066POPC   C2B28520  30.702  25.799   8.476
 2066POPC   C3B28521  30.707  25.655   8.073
 2066POPC   C4B28522  30.564  25.594   7.656
 2067POPC   NC328523   4.242  33.783   9.740
 2067POPC   PO428524   3.837  34.206   9.457
 2067POPC   GL128525   4.099  33.872   9.244
 2067POPC   GL228526   4.480  33.836   9.282
 2067POPC   C1A28527   4.055  33.747   8.830
 2067POPC   D2A28528   3.870  33.669   8.430
 2067POPC   C3A28529   4.041  33.880   8.082
 2067POPC   C4A28530   4.183  33.798   7.674
 2067POPC   C1B28531   4.541  33.877   8.844
 2067POPC   C2B28532   4.400  33.650   8.464
 2067POPC   C3B28533   4.556  33.807   8.084
 2067POPC   C4B28534   4.694  33.839   7.660
 2068POPC   NC328535   3.291  35.822   9.638
 2068POPC   PO428536   2.755  36.113   9.669
 2068POPC   GL128537   2.879  36.172   9.236
 2068POPC   GL228538   2.881  35.826   9.204
 2068POPC   C1A28539   2.756  36.122   8.785
 2068POPC   D2A28540   3.014  36.130   8.437
 2068POPC   C3A28541   2.880  35.921   8.099
 2068POPC   C4A28542   2.752  36.058   7.701
 2068POPC   C1B28543   3.144  35.820   8.883
 2068POPC   C2B28544   3.108  35.617   8.520
 2068POPC   C3B28545   3.158  35.502   8.108
 2068POPC   C4B28546   2.953  35.585   7.713
 2069POPC   NC328547  33.362  42.806   9.614
 2069POPC   PO428548  33.760  42.264   9.697
 2069POPC   GL128549  33.840  42.393   9.245
 2069POPC   GL228550  33.556  42.273   9.082
 2069POPC   C1A28551  33.996  42.439   8.809
 2069POPC   D2A28552  33.744  42.399   8.433
 2069POPC   C3A28553  33.904  42.333   7.999
 2069POPC   C4A28554  33.997  42.136   7.573
 2069POPC   C1B28555  33.553  42.686   8.850
 2069POPC   C2B28556  33.349  42.768   8.451
 2069POPC   C3B28557  33.540  42.703   8.066
 2069POPC   C4B28558  33.557  42.489   7.664
 2070POPC   NC328559  29.318   9.775   9.442
 2070POPC   PO428560  28.767   9.458   9.459
 2070POPC   GL128561  28.982   9.655   9.050
 2070POPC   GL228562  29.029  10.013   9.112
 2070POPC   C1A28563  29.316   9.877   8.727
 2070POPC   D2A28564  29.461  10.010   8.302
 2070POPC   C3A28565  29.225   9.784   7.984
 2070POPC   C4A28566  29.149   9.356   7.799
 2070POPC   C1B28567  28.810  10.062   8.739
 2070POPC   C2B28568  28.825   9.918   8.310
 2070POPC   C3B28569  28.792  10.178   7.946
 2070POPC   C4B28570  29.061  10.076   7.591
 2071POPC   NC328571  18.942  22.705   9.616
 2071POPC   PO428572  19.449  23.044   9.811
 2071POPC   GL128573  19.368  23.062   9.338
 2071POPC   GL228574  18.994  23.004   9.206
 2071POPC   C1A28575  19.347  23.179   8.878
 2071POPC   D2A28576  19.066  23.168   8.505
 2071POPC   C3A28577  19.287  23.099   8.100
 2071POPC   C4A28578  19.444  23.099   7.686
 2071POPC   C1B28579  19.050  22.729   8.832
 2071POPC   C2B28580  18.876  22.667   8.410
 2071POPC   C3B28581  19.038  22.631   7.996
 2071POPC   C4B28582  19.011  22.795   7.579
 2072POPC   NC328583  26.223  18.812   9.493
 2072POPC   PO428584  26.180  19.500   9.539
 2072POPC   GL128585  26.270  19.312   9.116
 2072POPC   GL228586  26.033  19.061   9.092
 2072POPC   C1A28587  26.341  19.166   8.652
 2072POPC   D2A28588  26.407  19.149   8.155
 2072POPC   C3A28589  26.058  19.124   7.875
 2072POPC   C4A28590  26.034  19.101   7.438
 2072POPC   C1B28591  25.703  18.996   8.817
 2072POPC   C2B28592  25.663  18.943   8.401
 2072POPC   C3B28593  25.654  18.822   7.985
 2072POPC   C4B28594  25.558  19.033   7.642
 2073POPC   NC328595  34.343  23.959   9.823
 2073POPC   PO428596  34.383  24.646   9.552
 2073POPC   GL128597  34.488  24.561   9.146
 2073POPC   GL228598  34.779  24.668   8.962
 2073POPC   C1A28599  34.318  24.478   8.762
 2073POPC   D2A28600  34.127  24.666   8.430
 2073POPC   C3A28601  34.437  24.703   8.157
 2073POPC   C4A28602  34.606  24.537   7.790
 2073POPC   C1B28603  34.764  24.500   8.505
 2073POPC   C2B28604  34.768  24.187   8.137
 2073POPC   C3B28605  34.981  24.198   7.733
 2073POPC   C4B28606  35.184  24.520   7.481
 2074POPC   NC328607  40.018  13.288   9.558
 2074POPC   PO428608  39.818  13.924   9.481
 2074POPC   GL128609  39.948  13.897   9.096
 2074POPC   GL228610  40.064  13.558   9.107
 2074POPC   C1A28611  39.989  13.845   8.633
 2074POPC   D2A28612  39.998  13.546   8.304
 2074POPC   C3A28613  39.998  13.624   7.862
 2074POPC   C4A28614  40.141  13.970   7.598
 2074POPC   C1B28615  39.836  13.341   8.772
 2074POPC   C2B28616  39.665  13.152   8.386
 2074POPC   C3B28617  39.819  13.157   7.965
 2074POPC   C4B28618  39.702  13.239   7.523
 2075POPC   NC328619  36.046  27.033   9.415
 2075POPC   PO428620  36.384  26.438   9.523
 2075POPC   GL128621  36.304  26.644   9.163
 2075POPC   GL228622  36.521  26.929   9.256
 2075POPC   C1A28623  36.117  26.605   8.734
 2075POPC   D2A28624  36.131  26.576   8.272
 2075POPC   C3A28625  35.998  26.838   7.917
 2075POPC   C4A28626  35.990  26.608   7.515
 2075POPC   C1B28627  36.589  26.875   8.809
 2075POPC   C2B28628  36.382  27.006   8.436
 2075POPC   C3B28629  36.474  26.956   8.008
 2075POPC   C4B28630  36.378  26.948   7.583
 2076POPC   NC328631  40.137  11.659   9.441
 2076POPC   PO428632  39.983  12.342   9.449
 2076POPC   GL128633  39.782  12.103   9.137
 2076POPC   GL228634  39.692  12.455   9.029
 2076POPC   C1A28635  39.919  11.800   8.757
 2076POPC   D2A28636  40.042  11.633   8.301
 2076POPC   C3A28637  40.217  11.931   7.984
 2076POPC   C4A28638  40.364  12.304   7.786
 2076POPC   C1B28639  40.005  12.313   8.738
 2076POPC   C2B28640  39.916  12.152   8.340
 2076POPC   C3B28641  39.850  12.283   7.909
 2076POPC   C4B28642  39.763  12.034   7.547
 2077POPC   NC328643  41.750  21.957   9.494
 2077POPC   PO428644  41.408  22.453   9.307
 2077POPC   GL128645  41.601  22.183   9.053
 2077POPC   GL228646  41.378  21.914   9.117
 2077POPC   C1A28647  41.798  22.188   8.666
 2077POPC   D2A28648  42.001  22.132   8.282
 2077POPC   C3A28649  41.777  22.267   7.918
 2077POPC   C4A28650  41.549  22.257   7.548
 2077POPC   C1B28651  41.359  21.905   8.674
 2077POPC   C2B28652  41.449  22.051   8.262
 2077POPC   C3B28653  41.238  22.034   7.876
 2077POPC   C4B28654  41.046  22.206   7.484
 2078POPC   NC328655  40.443  27.189   9.315
 2078POPC   PO428656  40.305  27.779   9.442
 2078POPC   GL128657  39.921  27.710   9.158
 2078POPC   GL228658  39.816  27.357   9.064
 2078POPC   C1A28659  39.795  27.775   8.710
 2078POPC   D2A28660  39.924  27.525   8.309
 2078POPC   C3A28661  39.711  27.656   7.913
 2078POPC   C4A28662  39.912  27.872   7.525
 2078POPC   C1B28663  40.159  27.427   8.787
 2078POPC   C2B28664  40.342  27.224   8.471
 2078POPC   C3B28665  40.415  27.426   8.114
 2078POPC   C4B28666  40.150  27.458   7.759
 2079POPC   NC328667  14.167   4.855   9.513
 2079POPC   PO428668  14.655   5.342   9.520
 2079POPC   GL128669  14.319   5.281   9.254
 2079POPC   GL228670  14.492   4.984   9.120
 2079POPC   C1A28671  14.137   5.239   8.837
 2079POPC   D2A28672  14.314   5.188   8.444
 2079POPC   C3A28673  14.115   5.384   8.116
 2079POPC   C4A28674  14.265   5.293   7.726
 2079POPC   C1B28675  14.642   5.355   8.843
 2079POPC   C2B28676  14.747   5.475   8.409
 2079POPC   C3B28677  14.686   5.215   8.031
 2079POPC   C4B28678  14.654   4.743   7.944
 2080POPC   NC328679  17.873   6.223   9.541
 2080POPC   PO428680  17.248   6.479   9.552
 2080POPC   GL128681  17.438   6.677   9.226
 2080POPC   GL228682  17.602   6.387   9.011
 2080POPC   C1A28683  17.267   6.730   8.840
 2080POPC   D2A28684  17.342   6.424   8.525
 2080POPC   C3A28685  17.326   6.601   8.142
 2080POPC   C4A28686  17.144   6.887   7.863
 2080POPC   C1B28687  17.742   6.734   8.690
 2080POPC   C2B28688  17.578   7.011   8.390
 2080POPC   C3B28689  17.642   6.991   7.963
 2080POPC   C4B28690  17.714   6.634   7.694
 2081POPC   NC328691   4.055   2.291   9.442
 2081POPC   PO428692   4.473   1.740   9.379
 2081POPC   GL128693   4.381   2.023   9.081
 2081POPC   GL228694   4.455   2.384   9.076
 2081POPC   C1A28695   4.449   1.887   8.675
 2081POPC   D2A28696   4.354   1.624   8.344
 2081POPC   C3A28697   4.509   1.784   8.004
 2081POPC   C4A28698   4.198   2.003   7.852
 2081POPC   C1B28699   4.155   2.329   8.733
 2081POPC   C2B28700   4.234   2.194   8.323
 2081POPC   C3B28701   4.416   2.436   7.990
 2081POPC   C4B28702   4.460   2.371   7.554
 2082POPC   NC328703   4.886   1.814   9.556
 2082POPC   PO428704   5.485   2.033   9.703
 2082POPC   GL128705   5.266   1.913   9.245
 2082POPC   GL228706   4.919   2.113   9.146
 2082POPC   C1A28707   5.072   1.744   8.835
 2082POPC   D2A28708   4.860   1.666   8.426
 2082POPC   C3A28709   5.038   1.758   8.024
 2082POPC   C4A28710   5.023   1.779   7.576
 2082POPC   C1B28711   4.804   2.266   8.717
 2082POPC   C2B28712   4.762   2.171   8.266
 2082POPC   C3B28713   4.842   2.181   7.803
 2082POPC   C4B28714   4.914   2.371   7.358
 2083POPC   NC328715  18.225  23.326   9.451
 2083POPC   PO428716  18.467  22.621   9.573
 2083POPC   GL128717  18.448  22.896   9.207
 2083POPC   GL228718  18.252  23.136   8.981
 2083POPC   C1A28719  18.532  22.771   8.796
 2083POPC   D2A28720  18.358  22.568   8.461
 2083POPC   C3A28721  18.437  22.850   8.121
 2083POPC   C4A28722  18.279  22.929   7.715
 2083POPC   C1B28723  18.276  23.442   8.626
 2083POPC   C2B28724  18.253  23.379   8.169
 2083POPC   C3B28725  18.031  23.358   7.745
 2083POPC   C4B28726  17.739  23.355   7.364
 2084POPC   NC328727  43.871  27.076   9.475
 2084POPC   PO428728  44.079  26.444   9.465
 2084POPC   GL128729  43.985  26.687   9.087
 2084POPC   GL228730  43.639  26.832   9.057
 2084POPC   C1A28731  43.915  26.595   8.638
 2084POPC   D2A28732  44.219  26.514   8.323
 2084POPC   C3A28733  44.053  26.595   7.917
 2084POPC   C4A28734  43.688  26.609   7.696
 2084POPC   C1B28735  43.862  27.094   8.780
 2084POPC   C2B28736  44.020  27.026   8.379
 2084POPC   C3B28737  43.736  26.935   8.103
 2084POPC   C4B28738  43.773  27.108   7.752
 2085POPC   NC328739  16.409  12.002   9.503
 2085POPC   PO428740  17.011  12.148   9.500
 2085POPC   GL128741  16.876  11.980   9.146
 2085POPC   GL228742  16.629  12.233   9.099
 2085POPC   C1A28743  17.002  12.104   8.736
 2085POPC   D2A28744  16.859  12.219   8.331
 2085POPC   C3A28745  17.051  11.989   7.999
 2085POPC   C4A28746  17.062  12.187   7.651
 2085POPC   C1B28747  16.529  11.890   8.776
 2085POPC   C2B28748  16.596  11.752   8.354
 2085POPC   C3B28749  16.551  11.959   7.932
 2085POPC   C4B28750  16.331  11.973   7.524
 2086POPC   NC328751  41.838   7.063   9.460
 2086POPC   PO428752  41.455   7.564   9.554
 2086POPC   GL128753  41.467   7.324   9.182
 2086POPC   GL228754  41.815   7.467   9.139
 2086POPC   C1A28755  41.545   7.235   8.744
 2086POPC   D2A28756  41.468   7.027   8.350
 2086POPC   C3A28757  41.497   7.394   8.090
 2086POPC   C4A28758  41.397   7.824   7.940
 2086POPC   C1B28759  41.993   7.600   8.746
 2086POPC   C2B28760  41.852   7.723   8.321
 2086POPC   C3B28761  41.902   7.702   7.877
 2086POPC   C4B28762  41.784   7.865   7.483
 2087POPC   NC328763  26.323  34.038   9.547
 2087POPC   PO428764  25.846  33.594   9.669
 2087POPC   GL128765  25.911  33.761   9.248
 2087POPC   GL228766  26.257  33.816   9.098
 2087POPC   C1A28767  25.837  33.910   8.842
 2087POPC   D2A28768  25.997  33.875   8.437
 2087POPC   C3A28769  25.729  33.974   8.119
 2087POPC   C4A28770  25.909  33.914   7.734
 2087POPC   C1B28771  26.309  34.121   8.755
 2087POPC   C2B28772  26.361  34.305   8.335
 2087POPC   C3B28773  26.415  34.146   7.896
 2087POPC   C4B28774  26.422  33.985   7.467
 2088POPC   NC328775  29.368  43.502   9.898
 2088POPC   PO428776  29.890  43.740   9.503
 2088POPC   GL128777  29.981  43.653   9.089
 2088POPC   GL228778  29.899  43.973   9.051
 2088POPC   C1A28779  30.101  43.747   8.640
 2088POPC   D2A28780  29.853  43.917   8.293
 2088POPC   C3A28781  29.987  43.806   7.885
 2088POPC   C4A28782  30.184  43.524   7.685
 2088POPC   C1B28783  29.878  44.227   8.699
 2088POPC   C2B28784  30.031  44.440   8.364
 2088POPC   C3B28785  30.062  44.301   7.963
 2088POPC   C4B28786  29.748  44.146   7.598
 2089POPC   NC328787  38.373  30.812   9.539
 2089POPC   PO428788  37.961  30.346   9.210
 2089POPC   GL128789  38.337  30.658   9.062
 2089POPC   GL228790  38.709  30.676   9.135
 2089POPC   C1A28791  38.489  30.757   8.679
 2089POPC   D2A28792  38.279  30.614   8.351
 2089POPC   C3A28793  38.458  30.794   8.002
 2089POPC   C4A28794  38.169  30.832   7.712
 2089POPC   C1B28795  38.960  30.497   8.759
 2089POPC   C2B28796  38.797  30.527   8.312
 2089POPC   C3B28797  38.873  30.507   7.846
 2089POPC   C4B28798  38.646  30.273   7.484
 2090POPC   NC328799  39.023  38.686   9.585
 2090POPC   PO428800  39.430  38.192   9.594
 2090POPC   GL128801  39.333  38.450   9.209
 2090POPC   GL228802  39.016  38.378   9.127
 2090POPC   C1A28803  39.337  38.551   8.743
 2090POPC   D2A28804  39.509  38.462   8.310
 2090POPC   C3A28805  39.344  38.777   8.035
 2090POPC   C4A28806  38.928  38.785   7.864
 2090POPC   C1B28807  38.844  38.654   8.799
 2090POPC   C2B28808  38.951  38.551   8.358
 2090POPC   C3B28809  39.073  38.320   8.002
 2090POPC   C4B28810  39.075  38.104   7.617
 2091POPC   NC328811  14.563  15.452   9.730
 2091POPC   PO428812  15.148  15.079   9.655
 2091POPC   GL128813  15.194  15.117   9.227
 2091POPC   GL228814  15.555  15.202   9.212
 2091POPC   C1A28815  15.015  15.245   8.857
 2091POPC   D2A28816  15.139  15.452   8.492
 2091POPC   C3A28817  14.977  15.259   8.118
 2091POPC   C4A28818  15.115  15.386   7.735
 2091POPC   C1B28819  15.524  15.167   8.746
 2091POPC   C2B28820  15.540  15.210   8.270
 2091POPC   C3B28821  15.359  14.966   7.896
 2091POPC   C4B28822  15.491  14.673   7.550
 2092POPC   NC328823  44.194  37.119   9.532
 2092POPC   PO428824  44.767  36.861   9.721
 2092POPC   GL128825  44.640  36.894   9.311
 2092POPC   GL228826  44.657  37.250   9.304
 2092POPC   C1A28827  44.808  36.886   8.896
 2092POPC   D2A28828  44.729  37.000   8.484
 2092POPC   C3A28829  44.878  36.799   8.137
 2092POPC   C4A28830  44.681  36.894   7.778
 2092POPC   C1B28831  44.454  37.272   8.900
 2092POPC   C2B28832  44.353  37.322   8.450
 2092POPC   C3B28833  44.498  37.289   8.038
 2092POPC   C4B28834  44.316  37.288   7.613
 2093POPC   NC328835  42.918  14.883   9.599
 2093POPC   PO428836  43.347  15.414   9.534
 2093POPC   GL128837  43.299  15.086   9.218
 2093POPC   GL228838  42.947  15.049   9.124
 2093POPC   C1A28839  43.291  15.217   8.789
 2093POPC   D2A28840  43.131  15.063   8.434
 2093POPC   C3A28841  43.415  15.190   8.115
 2093POPC   C4A28842  43.248  15.205   7.729
 2093POPC   C1B28843  42.759  15.300   8.802
 2093POPC   C2B28844  42.658  15.231   8.382
 2093POPC   C3B28845  42.816  15.080   7.999
 2093POPC   C4B28846  42.756  15.362   7.681
 2094POPC   NC328847  20.756  17.259   9.390
 2094POPC   PO428848  20.406  17.819   9.542
 2094POPC   GL128849  20.476  17.727   9.135
 2094POPC   GL228850  20.189  17.525   9.117
 2094POPC   C1A28851  20.680  17.810   8.748
 2094POPC   D2A28852  20.991  17.683   8.464
 2094POPC   C3A28853  20.933  17.706   8.016
 2094POPC   C4A28854  20.558  17.648   7.806
 2094POPC   C1B28855  20.245  17.552   8.667
 2094POPC   C2B28856  20.447  17.497   8.292
 2094POPC   C3B28857  20.348  17.219   7.971
 2094POPC   C4B28858  20.394  17.247   7.553
 2095POPC   NC328859  36.702  43.289   9.916
 2095POPC   PO428860  36.695  42.768   9.508
 2095POPC   GL128861  36.750  42.989   9.122
 2095POPC   GL228862  37.085  43.093   9.063
 2095POPC   C1A28863  36.729  42.920   8.698
 2095POPC   D2A28864  36.832  42.719   8.313
 2095POPC   C3A28865  36.766  42.949   7.933
 2095POPC   C4A28866  36.717  43.383   7.813
 2095POPC   C1B28867  37.222  42.958   8.629
 2095POPC   C2B28868  37.024  43.206   8.300
 2095POPC   C3B28869  37.223  43.374   7.934
 2095POPC   C4B28870  37.594  43.493   7.667
 2096POPC   NC328871   4.384  24.391   9.604
 2096POPC   PO428872   4.752  24.043   9.191
 2096POPC   GL128873   4.475  24.398   9.009
 2096POPC   GL228874   4.180  24.560   9.183
 2096POPC   C1A28875   4.377  24.455   8.563
 2096POPC   D2A28876   4.264  24.218   8.186
 2096POPC   C3A28877   4.508  24.279   7.800
 2096POPC   C4A28878   4.626  24.412   7.362
 2096POPC   C1B28879   4.177  24.840   8.862
 2096POPC   C2B28880   3.929  24.938   8.530
 2096POPC   C3B28881   3.983  24.682   8.193
 2096POPC   C4B28882   4.109  24.714   7.798
 2097POPC   NC328883  10.144  44.332   9.329
 2097POPC   PO428884  10.512  44.934   9.464
 2097POPC   GL128885  10.717  44.628   9.165
 2097POPC   GL228886  10.618  44.280   9.157
 2097POPC   C1A28887  10.875  44.730   8.730
 2097POPC   D2A28888  10.604   0.099   8.567
 2097POPC   C3A28889  10.464   0.132   8.120
 2097POPC   C4A28890  10.337  44.902   7.750
 2097POPC   C1B28891  10.449  44.465   8.759
 2097POPC   C2B28892  10.475  44.650   8.339
 2097POPC   C3B28893  10.351  44.436   7.983
 2097POPC   C4B28894  10.010  44.178   8.026
 2098POPC   NC328895  38.867  15.569   9.828
 2098POPC   PO428896  38.469  15.982   9.450
 2098POPC   GL128897  38.428  15.768   9.060
 2098POPC   GL228898  38.637  16.012   8.918
 2098POPC   C1A28899  38.382  15.665   8.612
 2098POPC   D2A28900  38.610  15.695   8.202
 2098POPC   C3A28901  38.374  15.586   7.818
 2098POPC   C4A28902  38.501  15.673   7.391
 2098POPC   C1B28903  38.206  16.136   8.790
 2098POPC   C2B28904  38.062  16.025   8.393
 2098POPC   C3B28905  38.263  16.078   7.990
 2098POPC   C4B28906  38.279  16.365   7.676
 2099POPC   NC328907  34.962  33.092   9.578
 2099POPC   PO428908  34.573  32.569   9.543
 2099POPC   GL128909  34.794  32.777   9.184
 2099POPC   GL228910  34.635  33.116   9.181
 2099POPC   C1A28911  34.640  32.739   8.746
 2099POPC   D2A28912  34.300  32.894   8.464
 2099POPC   C3A28913  34.390  32.932   8.044
 2099POPC   C4A28914  34.830  32.908   7.876
 2099POPC   C1B28915  34.824  33.236   8.824
 2099POPC   C2B28916  34.809  33.129   8.427
 2099POPC   C3B28917  34.860  33.389   8.094
 2099POPC   C4B28918  34.569  33.346   7.807
 2100POPC   NC328919  27.141  38.262   9.985
 2100POPC   PO428920  26.800  38.669   9.502
 2100POPC   GL128921  26.726  38.377   9.145
 2100POPC   GL228922  26.575  38.051   9.126
 2100POPC   C1A28923  26.842  38.226   8.721
 2100POPC   D2A28924  27.108  38.294   8.386
 2100POPC   C3A28925  26.940  38.220   8.017
 2100POPC   C4A28926  27.098  38.304   7.612
 2100POPC   C1B28927  26.422  37.920   8.724
 2100POPC   C2B28928  26.404  38.152   8.348
 2100POPC   C3B28929  26.471  38.056   7.937
 2100POPC   C4B28930  26.595  38.348   7.646
 2101POPC   NC328931  36.804  10.747   9.407
 2101POPC   PO428932  37.482  10.502   9.556
 2101POPC   GL128933  37.283  10.450   9.142
 2101POPC   GL228934  37.263  10.790   9.106
 2101POPC   C1A28935  36.923  10.375   8.827
 2101POPC   D2A28936  36.742  10.503   8.418
 2101POPC   C3A28937  36.786  10.239   8.050
 2101POPC   C4A28938  36.900  10.388   7.591
 2101POPC   C1B28939  37.119  10.820   8.708
 2101POPC   C2B28940  37.240  10.658   8.333
 2101POPC   C3B28941  36.993  10.697   7.976
 2101POPC   C4B28942  37.136  10.866   7.562
 2102POPC   NC328943  19.939  17.834   9.594
 2102POPC   PO428944  19.537  17.248   9.623
 2102POPC   GL128945  19.597  17.314   9.177
 2102POPC   GL228946  19.701  17.628   9.185
 2102POPC   C1A28947  19.860  17.201   8.805
 2102POPC   D2A28948  20.037  17.139   8.380
 2102POPC   C3A28949  19.853  17.319   7.989
 2102POPC   C4A28950  20.044  17.676   7.767
 2102POPC   C1B28951  19.788  17.708   8.804
 2102POPC   C2B28952  19.714  17.555   8.428
 2102POPC   C3B28953  19.597  17.756   8.069
 2102POPC   C4B28954  19.519  17.728   7.658
 2103POPC   NC328955   2.612  35.614   9.581
 2103POPC   PO428956   2.452  34.881   9.535
 2103POPC   GL128957   2.601  35.080   9.110
 2103POPC   GL228958   2.907  35.316   9.065
 2103POPC   C1A28959   2.765  35.022   8.691
 2103POPC   D2A28960   2.751  35.269   8.329
 2103POPC   C3A28961   2.763  35.158   7.914
 2103POPC   C4A28962   3.077  35.025   7.666
 2103POPC   C1B28963   2.630  35.560   8.774
 2103POPC   C2B28964   2.391  35.609   8.369
 2103POPC   C3B28965   2.460  35.687   7.943
 2103POPC   C4B28966   2.455  35.434   7.582
 2104POPC   NC328967  32.693  11.480   9.537
 2104POPC   PO428968  33.316  11.606   9.538
 2104POPC   GL128969  33.125  11.592   9.126
 2104POPC   GL228970  32.758  11.524   9.034
 2104POPC   C1A28971  33.192  11.390   8.729
 2104POPC   D2A28972  33.426  11.359   8.362
 2104POPC   C3A28973  33.174  11.177   8.057
 2104POPC   C4A28974  32.965  11.526   7.883
 2104POPC   C1B28975  32.756  11.124   8.770
 2104POPC   C2B28976  32.720  11.186   8.315
 2104POPC   C3B28977  32.676  11.108   7.865
 2104POPC   C4B28978  32.674  11.371   7.482
 2105POPC   NC328979   9.381  17.167   9.515
 2105POPC   PO428980   9.823  17.601   9.473
 2105POPC   GL128981   9.843  17.405   9.084
 2105POPC   GL228982   9.487  17.421   9.060
 2105POPC   C1A28983   9.831  17.532   8.621
 2105POPC   D2A28984   9.949  17.745   8.200
 2105POPC   C3A28985  10.038  17.636   7.742
 2105POPC   C4A28986   9.926  17.743   7.290
 2105POPC   C1B28987   9.469  17.169   8.688
 2105POPC   C2B28988   9.434  17.229   8.238
 2105POPC   C3B28989   9.535  17.528   7.901
 2105POPC   C4B28990   9.567  17.445   7.459
 2106POPC   NC328991  16.576   5.171   9.494
 2106POPC   PO428992  17.100   5.206   9.209
 2106POPC   GL128993  16.715   5.055   9.033
 2106POPC   GL228994  16.612   4.710   9.185
 2106POPC   C1A28995  16.624   5.190   8.648
 2106POPC   D2A28996  16.941   5.134   8.307
 2106POPC   C3A28997  16.814   5.078   7.879
 2106POPC   C4A28998  16.829   5.362   7.496
 2106POPC   C1B28999  16.460   4.716   8.745
 2106POPC   C2B29000  16.490   4.853   8.305
 2106POPC   C3B29001  16.422   4.663   7.938
 2106POPC   C4B29002  16.640   4.649   7.571
 2107POPC   NC329003  11.291  21.162   9.579
 2107POPC   PO429004  11.565  21.774   9.531
 2107POPC   GL129005  11.423  21.489   9.144
 2107POPC   GL229006  11.401  21.099   9.094
 2107POPC   C1A29007  11.205  21.600   8.717
 2107POPC   D2A29008  11.123  21.800   8.298
 2107POPC   C3A29009  11.382  21.626   7.995
 2107POPC   C4A29010  11.416  21.576   7.592
 2107POPC   C1B29011  11.085  21.104   8.744
 2107POPC   C2B29012  11.045  21.283   8.294
 2107POPC   C3B29013  11.013  21.338   7.825
 2107POPC   C4B29014  11.313  21.098   7.482
 2108POPC   NC329015  40.568  14.984   9.580
 2108POPC   PO429016  41.098  14.666   9.420
 2108POPC   GL129017  40.850  14.891   9.167
 2108POPC   GL229018  40.914  15.239   9.283
 2108POPC   C1A29019  40.502  14.996   8.890
 2108POPC   D2A29020  40.640  14.996   8.462
 2108POPC   C3A29021  40.590  15.300   8.130
 2108POPC   C4A29022  40.653  15.059   7.763
 2108POPC   C1B29023  40.932  15.285   8.839
 2108POPC   C2B29024  41.042  15.311   8.410
 2108POPC   C3B29025  41.060  15.060   8.081
 2108POPC   C4B29026  41.152  15.191   7.651
 2109POPC   NC329027   1.032  35.604   9.517
 2109POPC   PO429028   1.424  35.022   9.631
 2109POPC   GL129029   1.220  35.213   9.240
 2109POPC   GL229030   1.387  35.566   9.169
 2109POPC   C1A29031   1.234  35.066   8.812
 2109POPC   D2A29032   1.015  34.953   8.425
 2109POPC   C3A29033   1.140  35.050   8.023
 2109POPC   C4A29034   0.851  35.261   7.729
 2109POPC   C1B29035   1.592  35.467   8.793
 2109POPC   C2B29036   1.405  35.391   8.409
 2109POPC   C3B29037   1.504  35.584   8.030
 2109POPC   C4B29038   1.362  35.395   7.693
 2110POPC   NC329039   3.362  18.974   9.307
 2110POPC   PO429040   3.838  18.532   9.443
 2110POPC   GL129041   3.794  18.784   9.084
 2110POPC   GL229042   3.862  19.101   9.182
 2110POPC   C1A29043   3.657  18.878   8.653
 2110POPC   D2A29044   3.368  19.170   8.432
 2110POPC   C3A29045   3.301  19.045   8.004
 2110POPC   C4A29046   3.655  18.816   7.833
 2110POPC   C1B29047   3.752  19.345   8.844
 2110POPC   C2B29048   3.913  19.312   8.423
 2110POPC   C3B29049   3.727  19.306   8.026
 2110POPC   C4B29050   3.757  19.404   7.598
 2111POPC   NC329051  43.680  15.049   9.558
 2111POPC   PO429052  44.092  15.536   9.703
 2111POPC   GL129053  43.899  15.445   9.295
 2111POPC   GL229054  44.020  15.123   9.160
 2111POPC   C1A29055  43.741  15.491   8.863
 2111POPC   D2A29056  43.802  15.273   8.458
 2111POPC   C3A29057  43.946  15.498   8.085
 2111POPC   C4A29058  44.236  15.439   7.763
 2111POPC   C1B29059  43.718  14.941   8.879
 2111POPC   C2B29060  43.573  14.815   8.470
 2111POPC   C3B29061  43.776  14.728   8.117
 2111POPC   C4B29062  43.629  14.865   7.751
 2112POPC   NC329063  30.389  28.756   9.289
 2112POPC   PO429064  30.903  28.558   9.779
 2112POPC   GL129065  30.868  28.567   9.327
 2112POPC   GL229066  30.669  28.314   9.196
 2112POPC   C1A29067  30.906  28.721   8.885
 2112POPC   D2A29068  30.913  28.721   8.452
 2112POPC   C3A29069  30.745  28.508   8.068
 2112POPC   C4A29070  30.885  28.568   7.640
 2112POPC   C1B29071  30.774  28.242   8.765
 2112POPC   C2B29072  30.833  28.076   8.361
 2112POPC   C3B29073  30.516  27.996   8.071
 2112POPC   C4B29074  30.657  28.128   7.709
 2113POPC   NC329075  42.930  39.331   9.642
 2113POPC   PO429076  43.462  38.924   9.602
 2113POPC   GL129077  43.182  39.116   9.266
 2113POPC   GL229078  43.301  39.462   9.304
 2113POPC   C1A29079  43.187  38.914   8.864
 2113POPC   D2A29080  43.377  39.024   8.494
 2113POPC   C3A29081  43.055  39.048   8.185
 2113POPC   C4A29082  42.971  39.115   7.771
 2113POPC   C1B29083  43.306  39.432   8.865
 2113POPC   C2B29084  43.129  39.486   8.443
 2113POPC   C3B29085  43.207  39.517   7.969
 2113POPC   C4B29086  43.136  39.612   7.494
 2114POPC   NC329087   1.217   1.002   9.482
 2114POPC   PO429088   1.377   1.769   9.486
 2114POPC   GL129089   1.251   1.452   9.219
 2114POPC   GL229090   0.909   1.415   9.195
 2114POPC   C1A29091   1.370   1.246   8.848
 2114POPC   D2A29092   1.448   1.472   8.439
 2114POPC   C3A29093   1.356   1.363   8.038
 2114POPC   C4A29094   1.234   1.121   7.723
 2114POPC   C1B29095   0.852   1.111   8.889
 2114POPC   C2B29096   1.009   1.166   8.492
 2114POPC   C3B29097   0.878   1.116   8.080
 2114POPC   C4B29098   0.754   1.322   7.717
 2115POPC   NC329099  38.710  19.716   9.565
 2115POPC   PO429100  39.226  20.242   9.614
 2115POPC   GL129101  39.303  19.969   9.246
 2115POPC   GL229102  38.960  19.895   9.165
 2115POPC   C1A29103  39.337  19.911   8.780
 2115POPC   D2A29104  39.431  19.814   8.347
 2115POPC   C3A29105  39.351  20.163   8.065
 2115POPC   C4A29106  39.245  20.150   7.612
 2115POPC   C1B29107  38.837  19.693   8.794
 2115POPC   C2B29108  38.946  19.676   8.372
 2115POPC   C3B29109  38.965  19.835   7.978
 2115POPC   C4B29110  38.985  19.716   7.558
 2116POPC   NC329111  29.135  27.768   9.789
 2116POPC   PO429112  29.251  28.426   9.586
 2116POPC   GL129113  29.396  28.266   9.222
 2116POPC   GL229114  29.074  28.279   9.073
 2116POPC   C1A29115  29.487  28.019   8.866
 2116POPC   D2A29116  29.388  28.258   8.521
 2116POPC   C3A29117  29.234  28.100   8.152
 2116POPC   C4A29118  29.325  28.215   7.756
 2116POPC   C1B29119  28.937  28.464   8.688
 2116POPC   C2B29120  28.989  28.534   8.263
 2116POPC   C3B29121  29.246  28.693   7.972
 2116POPC   C4B29122  29.241  28.660   7.521
 2117POPC   NC329123   6.509   2.600   9.562
 2117POPC   PO429124   6.732   3.267   9.463
 2117POPC   GL129125   6.636   2.943   9.189
 2117POPC   GL229126   6.892   2.691   9.223
 2117POPC   C1A29127   6.431   2.799   8.826
 2117POPC   D2A29128   6.504   2.646   8.426
 2117POPC   C3A29129   6.450   2.856   8.042
 2117POPC   C4A29130   6.774   2.744   7.759
 2117POPC   C1B29131   6.854   2.504   8.816
 2117POPC   C2B29132   6.799   2.238   8.437
 2117POPC   C3B29133   6.640   2.287   8.044
 2117POPC   C4B29134   6.735   2.242   7.642
 2118POPC   NC329135  26.274   6.398   9.371
 2118POPC   PO429136  25.725   6.693   9.582
 2118POPC   GL129137  25.933   6.871   9.159
 2118POPC   GL229138  26.265   6.789   8.985
 2118POPC   C1A29139  25.904   6.963   8.683
 2118POPC   D2A29140  25.973   6.704   8.301
 2118POPC   C3A29141  25.985   6.901   7.913
 2118POPC   C4A29142  26.391   6.947   7.708
 2118POPC   C1B29143  26.098   6.424   8.749
 2118POPC   C2B29144  25.797   6.229   8.490
 2118POPC   C3B29145  25.903   6.222   8.122
 2118POPC   C4B29146  26.016   6.407   7.779
 2119POPC   NC329147  11.451  20.340   9.641
 2119POPC   PO429148  11.064  20.884   9.862
 2119POPC   GL129149  11.194  20.707   9.360
 2119POPC   GL229150  11.536  20.590   9.195
 2119POPC   C1A29151  11.142  20.555   8.879
 2119POPC   D2A29152  11.397  20.357   8.492
 2119POPC   C3A29153  11.236  20.478   8.067
 2119POPC   C4A29154  11.407  20.607   7.657
 2119POPC   C1B29155  11.597  20.744   8.758
 2119POPC   C2B29156  11.380  20.870   8.404
 2119POPC   C3B29157  11.332  20.980   7.991
 2119POPC   C4B29158  10.951  20.848   7.757
 2120POPC   NC329159  37.924   4.792   9.605
 2120POPC   PO429160  37.577   4.202   9.649
 2120POPC   GL129161  37.697   4.380   9.223
 2120POPC   GL229162  37.719   4.070   9.082
 2120POPC   C1A29163  37.468   4.445   8.776
 2120POPC   D2A29164  37.705   4.520   8.363
 2120POPC   C3A29165  37.613   4.575   7.921
 2120POPC   C4A29166  37.518   4.560   7.469
 2120POPC   C1B29167  37.943   4.258   8.753
 2120POPC   C2B29168  38.026   4.123   8.331
 2120POPC   C3B29169  37.941   4.186   7.885
 2120POPC   C4B29170  37.550   4.108   7.688
 2121POPC   NC329171   2.371   0.838   9.412
 2121POPC   PO429172   3.020   0.639   9.468
 2121POPC   GL129173   2.839   0.577   9.093
 2121POPC   GL229174   2.491   0.458   9.085
 2121POPC   C1A29175   3.027   0.577   8.705
 2121POPC   D2A29176   2.946   0.368   8.333
 2121POPC   C3A29177   3.072   0.617   7.964
 2121POPC   C4A29178   3.103   0.524   7.515
 2121POPC   C1B29179   2.469   0.478   8.625
 2121POPC   C2B29180   2.508   0.576   8.164
 2121POPC   C3B29181   2.605   0.544   7.727
 2121POPC   C4B29182   2.634   0.344   7.315
 2122POPC   NC329183   0.110   9.680   9.553
 2122POPC   PO429184  44.417  10.036   9.631
 2122POPC   GL129185  44.613   9.770   9.299
 2122POPC   GL229186  44.591  10.068   9.094
 2122POPC   C1A29187  44.796   9.621   8.893
 2122POPC   D2A29188  44.961   9.612   8.461
 2122POPC   C3A29189  44.819   9.713   8.036
 2122POPC   C4A29190  44.679   9.742   7.618
 2122POPC   C1B29191  44.385   9.922   8.737
 2122POPC   C2B29192  44.436   9.857   8.322
 2122POPC   C3B29193  44.355   9.995   7.916
 2122POPC   C4B29194  44.546  10.255   7.589
 2123POPC   NC329195  10.284  29.615   9.610
 2123POPC   PO429196  10.713  30.118   9.529
 2123POPC   GL129197  10.561  30.011   9.142
 2123POPC   GL229198  10.489  29.631   9.132
 2123POPC   C1A29199  10.692  29.975   8.715
 2123POPC   D2A29200  10.926  30.101   8.366
 2123POPC   C3A29201  10.688  29.912   8.030
 2123POPC   C4A29202  10.436  30.021   7.648
 2123POPC   C1B29203  10.219  29.822   8.833
 2123POPC   C2B29204  10.322  29.760   8.408
 2123POPC   C3B29205  10.167  29.815   8.040
 2123POPC   C4B29206   9.922  29.914   7.709
 2124POPC   NC329207  34.967   6.076   9.359
 2124POPC   PO429208  35.569   5.872   9.669
 2124POPC   GL129209  35.466   5.841   9.200
 2124POPC   GL229210  35.587   6.081   8.989
 2124POPC   C1A29211  35.601   5.635   8.754
 2124POPC   D2A29212  35.298   5.631   8.379
 2124POPC   C3A29213  35.323   5.619   7.970
 2124POPC   C4A29214  35.466   5.977   7.846
 2124POPC   C1B29215  35.177   5.909   8.778
 2124POPC   C2B29216  34.870   5.947   8.457
 2124POPC   C3B29217  34.836   5.856   8.028
 2124POPC   C4B29218  34.960   6.158   7.731
 2125POPC   NC329219  26.377  14.001   9.362
 2125POPC   PO429220  27.003  13.667   9.523
 2125POPC   GL129221  26.907  13.580   9.123
 2125POPC   GL229222  26.566  13.591   9.141
 2125POPC   C1A29223  26.830  13.820   8.744
 2125POPC   D2A29224  27.101  13.859   8.396
 2125POPC   C3A29225  26.969  13.649   8.035
 2125POPC   C4A29226  26.678  13.848   7.801
 2125POPC   C1B29227  26.422  13.441   8.758
 2125POPC   C2B29228  26.516  13.519   8.313
 2125POPC   C3B29229  26.420  13.416   7.880
 2125POPC   C4B29230  26.752  13.408   7.561
 2126POPC   NC329231  42.611  10.554   9.567
 2126POPC   PO429232  41.989  10.508   9.344
 2126POPC   GL129233  42.354  10.665   9.067
 2126POPC   GL229234  42.715  10.819   9.132
 2126POPC   C1A29235  42.370  10.701   8.603
 2126POPC   D2A29236  42.115  10.428   8.311
 2126POPC   C3A29237  42.260  10.331   7.934
 2126POPC   C4A29238  42.389  10.748   7.756
 2126POPC   C1B29239  42.745  10.398   8.891
 2126POPC   C2B29240  42.649  10.287   8.457
 2126POPC   C3B29241  42.726  10.544   8.120
 2126POPC   C4B29242  42.724  10.333   7.754
 2127POPC   NC329243  11.119  22.059   9.493
 2127POPC   PO429244  11.201  22.661   9.248
 2127POPC   GL129245  11.176  22.313   9.012
 2127POPC   GL229246  10.857  22.244   9.096
 2127POPC   C1A29247  11.396  22.076   8.678
 2127POPC   D2A29248  11.640  21.852   8.353
 2127POPC   C3A29249  11.676  22.069   7.920
 2127POPC   C4A29250  11.613  22.028   7.446
 2127POPC   C1B29251  10.863  22.059   8.701
 2127POPC   C2B29252  11.022  22.295   8.364
 2127POPC   C3B29253  11.039  22.375   7.945
 2127POPC   C4B29254  11.179  22.017   7.765
 2128POPC   NC329255  17.080  22.503   9.567
 2128POPC   PO429256  17.027  21.839   9.353
 2128POPC   GL129257  17.407  21.986   9.099
 2128POPC   GL229258  17.635  22.286   9.210
 2128POPC   C1A29259  17.452  22.077   8.658
 2128POPC   D2A29260  17.200  22.288   8.382
 2128POPC   C3A29261  17.257  22.111   8.000
 2128POPC   C4A29262  17.688  22.120   7.880
 2128POPC   C1B29263  17.507  22.540   8.836
 2128POPC   C2B29264  17.588  22.751   8.453
 2128POPC   C3B29265  17.509  22.611   8.050
 2128POPC   C4B29266  17.445  22.489   7.640
 2129POPC   NC329267   9.315   2.546   9.496
 2129POPC   PO429268   8.628   2.433   9.481
 2129POPC   GL129269   8.868   2.613   9.127
 2129POPC   GL229270   9.216   2.752   9.045
 2129POPC   C1A29271   8.824   2.718   8.687
 2129POPC   D2A29272   8.701   3.048   8.369
 2129POPC   C3A29273   8.748   2.890   7.947
 2129POPC   C4A29274   9.078   2.638   7.813
 2129POPC   C1B29275   9.337   2.718   8.619
 2129POPC   C2B29276   9.230   2.948   8.252
 2129POPC   C3B29277   9.441   3.048   7.861
 2129POPC   C4B29278   9.444   2.788   7.492
 2130POPC   NC329279  38.517   4.752  10.042
 2130POPC   PO429280  38.083   5.194   9.766
 2130POPC   GL129281  38.270   5.031   9.302
 2130POPC   GL229282  38.083   4.745   9.116
 2130POPC   C1A29283  38.332   5.134   8.822
 2130POPC   D2A29284  38.589   5.226   8.420
 2130POPC   C3A29285  38.414   5.197   8.017
 2130POPC   C4A29286  38.675   5.139   7.664
 2130POPC   C1B29287  38.196   4.679   8.682
 2130POPC   C2B29288  38.371   4.745   8.299
 2130POPC   C3B29289  38.142   4.654   7.969
 2130POPC   C4B29290  37.975   4.760   7.600
 2131POPC   NC329291   8.602  17.200   9.431
 2131POPC   PO429292   9.107  17.578   9.398
 2131POPC   GL129293   8.977  17.295   9.061
 2131POPC   GL229294   8.632  17.293   8.948
 2131POPC   C1A29295   9.001  17.327   8.610
 2131POPC   D2A29296   9.175  17.665   8.368
 2131POPC   C3A29297   9.028  17.591   7.952
 2131POPC   C4A29298   8.870  17.891   7.679
 2131POPC   C1B29299   8.658  17.714   8.742
 2131POPC   C2B29300   8.533  17.837   8.288
 2131POPC   C3B29301   8.498  17.601   7.909
 2131POPC   C4B29302   8.698  17.201   7.723
 2132POPC   NC329303  18.424  41.285   9.465
 2132POPC   PO429304  18.304  42.019   9.482
 2132POPC   GL129305  18.401  41.783   9.122
 2132POPC   GL229306  18.221  41.444   9.037
 2132POPC   C1A29307  18.484  41.757   8.697
 2132POPC   D2A29308  18.325  41.427   8.470
 2132POPC   C3A29309  18.362  41.308   8.035
 2132POPC   C4A29310  18.363  41.527   7.624
 2132POPC   C1B29311  17.971  41.709   8.800
 2132POPC   C2B29312  18.061  41.904   8.450
 2132POPC   C3B29313  18.191  41.789   8.065
 2132POPC   C4B29314  17.873  41.766   7.745
 2133POPC   NC329315  26.011  40.171   9.569
 2133POPC   PO429316  25.938  39.475   9.468
 2133POPC   GL129317  26.138  39.834   9.175
 2133POPC   GL229318  26.236  40.238   9.130
 2133POPC   C1A29319  26.048  39.957   8.743
 2133POPC   D2A29320  25.982  40.278   8.420
 2133POPC   C3A29321  25.937  39.995   8.075
 2133POPC   C4A29322  25.639  39.990   7.753
 2133POPC   C1B29323  26.447  40.283   8.766
 2133POPC   C2B29324  26.414  40.031   8.365
 2133POPC   C3B29325  26.392  40.166   7.933
 2133POPC   C4B29326  26.403  40.430   7.587
 2134POPC   NC329327  43.478  22.012   9.580
 2134POPC   PO429328  43.606  22.658   9.776
 2134POPC   GL129329  43.529  22.654   9.284
 2134POPC   GL229330  43.407  22.344   9.194
 2134POPC   C1A29331  43.634  22.507   8.795
 2134POPC   D2A29332  43.923  22.172   8.580
 2134POPC   C3A29333  44.088  22.184   8.140
 2134POPC   C4A29334  44.001  22.402   7.755
 2134POPC   C1B29335  43.508  22.013   8.886
 2134POPC   C2B29336  43.487  21.914   8.461
 2134POPC   C3B29337  43.666  21.909   8.046
 2134POPC   C4B29338  43.545  22.194   7.752
 2135POPC   NC329339  33.528  20.550   9.372
 2135POPC   PO429340  34.186  20.804   9.496
 2135POPC   GL129341  33.875  20.862   9.184
 2135POPC   GL229342  33.919  20.503   9.042
 2135POPC   C1A29343  33.647  20.856   8.791
 2135POPC   D2A29344  33.912  20.778   8.458
 2135POPC   C3A29345  33.727  20.823   8.094
 2135POPC   C4A29346  33.928  20.839   7.700
 2135POPC   C1B29347  33.782  20.319   8.630
 2135POPC   C2B29348  33.810  20.313   8.127
 2135POPC   C3B29349  33.624  20.241   7.670
 2135POPC   C4B29350  33.573  20.074   7.174
 2136POPC   NC329351  11.825  18.106   9.450
 2136POPC   PO429352  12.365  18.531   9.445
 2136POPC   GL129353  12.216  18.534   9.052
 2136POPC   GL229354  11.869  18.530   9.069
 2136POPC   C1A29355  12.105  18.625   8.631
 2136POPC   D2A29356  11.842  18.504   8.270
 2136POPC   C3A29357  11.894  18.630   7.799
 2136POPC   C4A29358  12.189  18.521   7.418
 2136POPC   C1B29359  11.918  18.177   8.790
 2136POPC   C2B29360  11.742  18.004   8.425
 2136POPC   C3B29361  11.984  18.023   8.052
 2136POPC   C4B29362  11.904  18.126   7.610
 2137POPC   NC329363  23.861   7.348   9.568
 2137POPC   PO429364  23.466   7.859   9.463
 2137POPC   GL129365  23.583   7.480   9.145
 2137POPC   GL229366  23.931   7.366   9.076
 2137POPC   C1A29367  23.556   7.249   8.732
 2137POPC   D2A29368  23.775   7.069   8.356
 2137POPC   C3A29369  23.759   7.263   7.914
 2137POPC   C4A29370  23.555   7.677   7.835
 2137POPC   C1B29371  24.027   7.395   8.652
 2137POPC   C2B29372  23.868   7.599   8.276
 2137POPC   C3B29373  24.046   7.720   7.861
 2137POPC   C4B29374  23.885   7.949   7.483
 2138POPC   NC329375  14.486  44.564   9.497
 2138POPC   PO429376  14.805   0.116   9.388
 2138POPC   GL129377  14.530  44.891   9.048
 2138POPC   GL229378  14.222  44.651   9.071
 2138POPC   C1A29379  14.389  44.755   8.617
 2138POPC   D2A29380  14.527  44.391   8.396
 2138POPC   C3A29381  14.648  44.494   7.979
 2138POPC   C4A29382  14.600  44.854   7.702
 2138POPC   C1B29383  14.053  44.385   8.715
 2138POPC   C2B29384  13.957  44.593   8.298
 2138POPC   C3B29385  14.135  44.682   7.879
 2138POPC   C4B29386  14.329  44.383   7.588
 2139POPC   NC329387  32.377  15.110   9.568
 2139POPC   PO429388  31.915  15.419   9.308
 2139POPC   GL129389  32.256  15.272   8.996
 2139POPC   GL229390  32.376  14.922   9.073
 2139POPC   C1A29391  32.360  15.397   8.532
 2139POPC   D2A29392  32.565  15.432   8.137
 2139POPC   C3A29393  32.350  15.417   7.786
 2139POPC   C4A29394  32.011  15.182   7.629
 2139POPC   C1B29395  32.290  14.880   8.647
 2139POPC   C2B29396  32.398  14.949   8.225
 2139POPC   C3B29397  32.344  14.847   7.817
 2139POPC   C4B29398  32.552  14.832   7.442
 2140POPC   NC329399  34.209  33.700   9.491
 2140POPC   PO429400  33.560  33.760   9.798
 2140POPC   GL129401  33.775  33.889   9.276
 2140POPC   GL229402  34.018  34.156   9.233
 2140POPC   C1A29403  33.752  33.955   8.805
 2140POPC   D2A29404  33.661  33.779   8.362
 2140POPC   C3A29405  33.603  33.992   7.971
 2140POPC   C4A29406  33.753  33.710   7.682
 2140POPC   C1B29407  34.263  34.033   8.875
 2140POPC   C2B29408  34.172  33.807   8.499
 2140POPC   C3B29409  34.083  33.985   8.093
 2140POPC   C4B29410  34.041  34.178   7.696
 2141POPC   NC329411   2.205  38.728   9.515
 2141POPC   PO429412   1.809  38.234   9.611
 2141POPC   GL129413   1.833  38.462   9.247
 2141POPC   GL229414   2.138  38.350   9.116
 2141POPC   C1A29415   1.834  38.597   8.818
 2141POPC   D2A29416   1.885  38.403   8.424
 2141POPC   C3A29417   1.947  38.642   8.052
 2141POPC   C4A29418   1.701  38.614   7.692
 2141POPC   C1B29419   2.328  38.384   8.729
 2141POPC   C2B29420   2.384  38.336   8.280
 2141POPC   C3B29421   2.078  38.154   7.987
 2141POPC   C4B29422   2.013  38.240   7.542
 2142POPC   NC329423  17.032  12.599   9.632
 2142POPC   PO429424  16.279  12.507   9.434
 2142POPC   GL129425  16.519  12.808   9.136
 2142POPC   GL229426  16.864  12.736   9.154
 2142POPC   C1A29427  16.715  13.059   8.772
 2142POPC   D2A29428  16.915  12.918   8.400
 2142POPC   C3A29429  16.778  13.049   7.988
 2142POPC   C4A29430  16.711  13.104   7.531
 2142POPC   C1B29431  16.717  12.555   8.733
 2142POPC   C2B29432  16.443  12.701   8.430
 2142POPC   C3B29433  16.550  12.538   8.045
 2142POPC   C4B29434  16.608  12.399   7.649
 2143POPC   NC329435   4.628  28.034   9.448
 2143POPC   PO429436   4.098  28.424   9.547
 2143POPC   GL129437   4.265  28.288   9.174
 2143POPC   GL229438   4.537  28.540   9.181
 2143POPC   C1A29439   4.417  28.347   8.730
 2143POPC   D2A29440   4.646  28.476   8.359
 2143POPC   C3A29441   4.535  28.214   8.002
 2143POPC   C4A29442   4.269  27.956   7.751
 2143POPC   C1B29443   4.191  28.748   8.955
 2143POPC   C2B29444   4.164  28.756   8.480
 2143POPC   C3B29445   4.287  28.696   8.030
 2143POPC   C4B29446   4.215  28.450   7.653
 2144POPC   NC329447  42.229  14.537   9.452
 2144POPC   PO429448  42.664  14.071   9.551
 2144POPC   GL129449  42.559  14.301   9.153
 2144POPC   GL229450  42.662  14.627   9.160
 2144POPC   C1A29451  42.309  14.480   8.781
 2144POPC   D2A29452  42.167  14.307   8.381
 2144POPC   C3A29453  42.225  14.526   8.010
 2144POPC   C4A29454  42.348  14.389   7.606
 2144POPC   C1B29455  42.746  14.751   8.734
 2144POPC   C2B29456  42.623  14.705   8.307
 2144POPC   C3B29457  42.736  14.593   7.866
 2144POPC   C4B29458  42.732  14.636   7.379
 2145POPC   NC329459  19.229  37.602   9.405
 2145POPC   PO429460  18.581  37.805   9.491
 2145POPC   GL129461  18.791  37.679   9.085
 2145POPC   GL229462  19.109  37.890   9.008
 2145POPC   C1A29463  19.020  37.480   8.707
 2145POPC   D2A29464  18.916  37.209   8.342
 2145POPC   C3A29465  18.812  37.413   7.979
 2145POPC   C4A29466  19.170  37.531   7.779
 2145POPC   C1B29467  19.220  37.993   8.596
 2145POPC   C2B29468  18.993  37.811   8.279
 2145POPC   C3B29469  18.632  37.910   8.083
 2145POPC   C4B29470  18.800  37.959   7.681
 2146POPC   NC329471  43.448   8.042   9.208
 2146POPC   PO429472  42.922   8.355   9.558
 2146POPC   GL129473  42.976   8.294   9.120
 2146POPC   GL229474  43.295   8.487   9.103
 2146POPC   C1A29475  42.931   8.038   8.714
 2146POPC   D2A29476  42.752   7.823   8.355
 2146POPC   C3A29477  42.880   7.938   7.949
 2146POPC   C4A29478  42.924   8.332   7.773
 2146POPC   C1B29479  43.238   8.434   8.673
 2146POPC   C2B29480  43.100   8.292   8.270
 2146POPC   C3B29481  43.341   8.483   8.003
 2146POPC   C4B29482  43.584   8.496   7.635
 2147POPC   NC329483  39.436   6.649   9.422
 2147POPC   PO429484  38.843   6.974   9.656
 2147POPC   GL129485  39.057   6.942   9.232
 2147POPC   GL229486  38.901   6.589   9.241
 2147POPC   C1A29487  39.402   6.898   8.833
 2147POPC   D2A29488  39.600   6.556   8.559
 2147POPC   C3A29489  39.503   6.611   8.111
 2147POPC   C4A29490  39.362   6.788   7.729
 2147POPC   C1B29491  38.914   6.738   8.807
 2147POPC   C2B29492  39.116   6.625   8.480
 2147POPC   C3B29493  38.969   6.690   8.128
 2147POPC   C4B29494  38.906   6.492   7.775
 2148POPC   NC329495  25.964  11.100   9.596
 2148POPC   PO429496  26.226  11.785   9.587
 2148POPC   GL129497  26.216  11.581   9.174
 2148POPC   GL229498  26.098  11.255   9.133
 2148POPC   C1A29499  26.064  11.568   8.729
 2148POPC   D2A29500  25.867  11.600   8.319
 2148POPC   C3A29501  25.995  11.568   7.889
 2148POPC   C4A29502  26.351  11.657   7.581
 2148POPC   C1B29503  26.118  11.054   8.720
 2148POPC   C2B29504  26.329  11.088   8.319
 2148POPC   C3B29505  26.257  11.128   7.892
 2148POPC   C4B29506  26.016  10.870   7.637
 2149POPC   NC329507   0.666  16.442   9.618
 2149POPC   PO429508  44.995  16.499   9.424
 2149POPC   GL129509   0.402  16.732   9.264
 2149POPC   GL229510   0.737  16.537   9.144
 2149POPC   C1A29511   0.528  16.882   8.856
 2149POPC   D2A29512   0.478  16.658   8.479
 2149POPC   C3A29513   0.491  16.913   8.121
 2149POPC   C4A29514   0.192  17.032   7.832
 2149POPC   C1B29515   0.896  16.465   8.736
 2149POPC   C2B29516   0.856  16.357   8.315
 2149POPC   C3B29517   0.810  16.551   7.933
 2149POPC   C4B29518   0.481  16.612   7.671
 2150POPC   NC329519  16.958   3.847   9.657
 2150POPC   PO429520  16.464   3.385   9.629
 2150POPC   GL129521  16.538   3.684   9.313
 2150POPC   GL229522  16.892   3.633   9.199
 2150POPC   C1A29523  16.549   3.788   8.867
 2150POPC   D2A29524  16.738   3.920   8.506
 2150POPC   C3A29525  16.567   3.813   8.120
 2150POPC   C4A29526  16.531   3.789   7.690
 2150POPC   C1B29527  16.958   3.498   8.752
 2150POPC   C2B29528  16.820   3.424   8.308
 2150POPC   C3B29529  16.882   3.459   7.865
 2150POPC   C4B29530  17.185   3.352   7.571
 2151POPC   NC329531  19.726  14.642   9.433
 2151POPC   PO429532  20.083  14.048   9.609
 2151POPC   GL129533  20.152  14.361   9.242
 2151POPC   GL229534  19.886  14.490   8.985
 2151POPC   C1A29535  20.288  14.291   8.781
 2151POPC   D2A29536  20.006  14.500   8.449
 2151POPC   C3A29537  19.861  14.285   8.088
 2151POPC   C4A29538  20.040  14.265   7.705
 2151POPC   C1B29539  19.723  14.831   8.735
 2151POPC   C2B29540  19.807  15.049   8.381
 2151POPC   C3B29541  19.695  14.906   7.991
 2151POPC   C4B29542  19.554  14.547   7.759
 2152POPC   NC329543   0.620   0.653   9.546
 2152POPC   PO429544   0.126   0.212   9.570
 2152POPC   GL129545   0.366   0.339   9.228
 2152POPC   GL229546   0.604   0.103   9.297
 2152POPC   C1A29547   0.575   0.582   8.885
 2152POPC   D2A29548   0.518   0.484   8.463
 2152POPC   C3A29549   0.538   0.690   8.074
 2152POPC   C4A29550   0.371   0.531   7.697
 2152POPC   C1B29551   0.588   0.050   8.859
 2152POPC   C2B29552   0.601  44.985   8.426
 2152POPC   C3B29553   0.448   0.155   8.065
 2152POPC   C4B29554   0.372   0.027   7.657
 2153POPC   NC329555  37.838  26.392   9.481
 2153POPC   PO429556  37.324  26.775   9.498
 2153POPC   GL129557  37.617  26.775   9.153
 2153POPC   GL229558  37.492  27.019   8.959
 2153POPC   C1A29559  37.852  26.762   8.730
 2153POPC   D2A29560  37.769  26.461   8.418
 2153POPC   C3A29561  37.820  26.491   8.009
 2153POPC   C4A29562  38.157  26.718   7.864
 2153POPC   C1B29563  37.507  27.303   8.646
 2153POPC   C2B29564  37.855  27.337   8.365
 2153POPC   C3B29565  37.806  27.011   8.096
 2153POPC   C4B29566  37.700  26.889   7.707
 2154POPC   NC329567  26.662   2.563   9.514
 2154POPC   PO429568  27.286   2.299   9.396
 2154POPC   GL129569  27.013   2.563   9.146
 2154POPC   GL229570  26.670   2.377   9.043
 2154POPC   C1A29571  26.740   2.843   8.895
 2154POPC   D2A29572  26.587   2.745   8.475
 2154POPC   C3A29573  26.887   2.938   8.178
 2154POPC   C4A29574  26.831   3.078   7.749
 2154POPC   C1B29575  26.954   2.410   8.668
 2154POPC   C2B29576  26.917   2.417   8.237
 2154POPC   C3B29577  26.712   2.570   7.873
 2154POPC   C4B29578  26.929   2.628   7.475
 2155POPC   NC329579   3.770  16.231   9.747
 2155POPC   PO429580   3.912  15.620   9.733
 2155POPC   GL129581   3.729  15.875   9.330
 2155POPC   GL229582   3.559  16.220   9.222
 2155POPC   C1A29583   3.749  15.876   8.882
 2155POPC   D2A29584   3.634  15.963   8.468
 2155POPC   C3A29585   3.299  15.819   8.243
 2155POPC   C4A29586   3.487  15.832   7.856
 2155POPC   C1B29587   3.292  16.152   8.811
 2155POPC   C2B29588   3.312  16.347   8.390
 2155POPC   C3B29589   3.342  16.411   7.976
 2155POPC   C4B29590   3.133  16.156   7.695
 2156POPC   NC329591  23.376   0.485   9.493
 2156POPC   PO429592  24.056   0.399   9.565
 2156POPC   GL129593  23.779   0.304   9.233
 2156POPC   GL229594  23.718   0.651   9.137
 2156POPC   C1A29595  23.522   0.245   8.879
 2156POPC   D2A29596  23.322   0.430   8.534
 2156POPC   C3A29597  23.526   0.253   8.169
 2156POPC   C4A29598  23.540   0.388   7.755
 2156POPC   C1B29599  23.685   0.739   8.683
 2156POPC   C2B29600  23.674   0.731   8.232
 2156POPC   C3B29601  23.965   0.583   7.943
 2156POPC   C4B29602  23.957   0.570   7.513
 2157POPC   NC329603  41.742  26.310   9.333
 2157POPC   PO429604  41.657  26.992   9.463
 2157POPC   GL129605  41.491  26.812   9.119
 2157POPC   GL229606  41.238  27.067   9.105
 2157POPC   C1A29607  41.451  26.580   8.762
 2157POPC   D2A29608  41.549  26.779   8.382
 2157POPC   C3A29609  41.734  26.527   8.076
 2157POPC   C4A29610  41.690  26.803   7.768
 2157POPC   C1B29611  41.123  26.952   8.742
 2157POPC   C2B29612  41.051  26.844   8.345
 2157POPC   C3B29613  41.185  26.784   7.942
 2157POPC   C4B29614  41.088  27.087   7.662
 2158POPC   NC329615  28.107  13.348   9.461
 2158POPC   PO429616  27.821  13.965   9.437
 2158POPC   GL129617  28.119  13.928   9.077
 2158POPC   GL229618  28.361  13.625   9.088
 2158POPC   C1A29619  28.234  13.777   8.641
 2158POPC   D2A29620  28.542  13.581   8.401
 2158POPC   C3A29621  28.369  13.771   8.013
 2158POPC   C4A29622  27.947  13.868   7.882
 2158POPC   C1B29623  28.254  13.279   8.736
 2158POPC   C2B29624  28.130  13.313   8.272
 2158POPC   C3B29625  28.385  13.294   7.854
 2158POPC   C4B29626  28.589  13.227   7.438
 2159POPC   NC329627  18.566  28.859   9.348
 2159POPC   PO429628  18.045  28.465   9.512
 2159POPC   GL129629  18.126  28.371   9.115
 2159POPC   GL229630  18.472  28.425   9.084
 2159POPC   C1A29631  17.976  28.445   8.719
 2159POPC   D2A29632  18.270  28.565   8.375
 2159POPC   C3A29633  18.032  28.524   7.998
 2159POPC   C4A29634  18.182  28.433   7.606
 2159POPC   C1B29635  18.694  28.539   8.710
 2159POPC   C2B29636  18.740  28.375   8.296
 2159POPC   C3B29637  18.574  28.561   7.919
 2159POPC   C4B29638  18.467  28.853   7.583
 2160POPC   NC329639   0.336  19.585   9.579
 2160POPC   PO429640   0.567  20.170   9.690
 2160POPC   GL129641   0.594  19.995   9.238
 2160POPC   GL229642   0.306  19.789   9.124
 2160POPC   C1A29643   0.663  19.929   8.768
 2160POPC   D2A29644   0.742  20.132   8.338
 2160POPC   C3A29645   0.542  20.017   7.919
 2160POPC   C4A29646   0.518  19.608   7.696
 2160POPC   C1B29647   0.154  19.844   8.721
 2160POPC   C2B29648   0.326  19.830   8.350
 2160POPC   C3B29649   0.133  19.708   8.013
 2160POPC   C4B29650   0.053  19.327   7.857
 2161POPC   NC329651  24.097  17.358   9.470
 2161POPC   PO429652  23.622  17.758   9.523
 2161POPC   GL129653  23.895  17.763   9.158
 2161POPC   GL229654  23.599  17.782   8.998
 2161POPC   C1A29655  23.993  17.883   8.730
 2161POPC   D2A29656  23.882  17.580   8.421
 2161POPC   C3A29657  23.749  17.597   8.009
 2161POPC   C4A29658  23.915  17.289   7.766
 2161POPC   C1B29659  23.710  17.348   8.845
 2161POPC   C2B29660  23.564  17.159   8.441
 2161POPC   C3B29661  23.292  17.391   8.149
 2161POPC   C4B29662  23.373  17.420   7.675
 2162POPC   NC329663  20.136   7.922   9.571
 2162POPC   PO429664  19.543   7.649   9.324
 2162POPC   GL129665  19.934   7.841   9.077
 2162POPC   GL229666  19.988   8.238   9.026
 2162POPC   C1A29667  19.887   7.963   8.624
 2162POPC   D2A29668  19.933   8.323   8.336
 2162POPC   C3A29669  20.019   8.149   7.950
 2162POPC   C4A29670  19.902   8.020   7.532
 2162POPC   C1B29671  19.640   8.435   8.740
 2162POPC   C2B29672  19.441   8.468   8.336
 2162POPC   C3B29673  19.624   8.471   7.891
 2162POPC   C4B29674  19.617   8.529   7.402
 2163POPC   NC329675  40.310  18.969   9.777
 2163POPC   PO429676  40.715  19.350   9.473
 2163POPC   GL129677  40.773  19.017   9.139
 2163POPC   GL229678  40.505  19.145   9.003
 2163POPC   C1A29679  40.747  18.826   8.688
 2163POPC   D2A29680  40.605  19.039   8.275
 2163POPC   C3A29681  40.706  18.840   7.865
 2163POPC   C4A29682  40.937  18.882   7.418
 2163POPC   C1B29683  40.786  19.331   8.677
 2163POPC   C2B29684  40.870  19.659   8.393
 2163POPC   C3B29685  41.155  19.555   8.096
 2163POPC   C4B29686  41.018  19.234   7.813
 2164POPC   NC329687  12.485  14.515   9.469
 2164POPC   PO429688  11.872  14.280   9.366
 2164POPC   GL129689  11.923  14.563   9.036
 2164POPC   GL229690  12.246  14.608   9.023
 2164POPC   C1A29691  12.008  14.468   8.580
 2164POPC   D2A29692  12.188  14.183   8.264
 2164POPC   C3A29693  11.975  14.173   7.897
 2164POPC   C4A29694  11.848  14.595   7.831
 2164POPC   C1B29695  12.460  14.699   8.637
 2164POPC   C2B29696  12.596  14.523   8.228
 2164POPC   C3B29697  12.353  14.520   7.842
 2164POPC   C4B29698  12.427  14.689   7.418
 2165POPC   NC329699  12.927  21.155   9.448
 2165POPC   PO429700  12.471  21.616   9.520
 2165POPC   GL129701  12.491  21.314   9.145
 2165POPC   GL229702  12.812  21.403   9.012
 2165POPC   C1A29703  12.559  21.105   8.694
 2165POPC   D2A29704  12.629  21.287   8.259
 2165POPC   C3A29705  12.964  21.115   7.987
 2165POPC   C4A29706  13.289  21.195   7.678
 2165POPC   C1B29707  12.585  21.626   8.671
 2165POPC   C2B29708  12.622  21.834   8.254
 2165POPC   C3B29709  12.614  21.773   7.794
 2165POPC   C4B29710  12.667  21.981   7.383
 2166POPC   NC329711  26.501   8.296   9.570
 2166POPC   PO429712  27.073   8.347   9.656
 2166POPC   GL129713  26.894   8.318   9.241
 2166POPC   GL229714  26.674   8.614   9.198
 2166POPC   C1A29715  26.871   8.108   8.846
 2166POPC   D2A29716  26.995   7.915   8.452
 2166POPC   C3A29717  26.804   7.985   8.074
 2166POPC   C4A29718  26.999   7.900   7.730
 2166POPC   C1B29719  26.872   8.615   8.787
 2166POPC   C2B29720  26.781   8.382   8.434
 2166POPC   C3B29721  26.921   8.458   8.073
 2166POPC   C4B29722  26.810   8.370   7.674
 2167POPC   NC329723  41.206  26.833   9.535
 2167POPC   PO429724  40.500  26.810   9.595
 2167POPC   GL129725  40.779  26.816   9.202
 2167POPC   GL229726  41.007  26.562   9.098
 2167POPC   C1A29727  40.624  26.906   8.769
 2167POPC   D2A29728  40.557  26.737   8.361
 2167POPC   C3A29729  40.674  26.944   8.020
 2167POPC   C4A29730  40.602  27.250   7.686
 2167POPC   C1B29731  40.887  26.470   8.679
 2167POPC   C2B29732  40.735  26.268   8.304
 2167POPC   C3B29733  40.807  26.445   7.891
 2167POPC   C4B29734  40.991  26.600   7.477
 2168POPC   NC329735   5.280  22.263   9.388
 2168POPC   PO429736   4.815  21.724   9.544
 2168POPC   GL129737   4.808  22.096   9.188
 2168POPC   GL229738   4.908  22.446   9.069
 2168POPC   C1A29739   5.038  22.076   8.761
 2168POPC   D2A29740   4.877  22.000   8.336
 2168POPC   C3A29741   5.106  21.986   7.953
 2168POPC   C4A29742   5.365  21.961   7.596
 2168POPC   C1B29743   4.747  22.469   8.618
 2168POPC   C2B29744   5.001  22.503   8.197
 2168POPC   C3B29745   5.104  22.511   7.731
 2168POPC   C4B29746   4.772  22.598   7.347
 2169POPC   NC329747  21.493  14.902   9.321
 2169POPC   PO429748  20.979  14.492   9.606
 2169POPC   GL129749  21.111  14.522   9.178
 2169POPC   GL229750  21.170  14.797   8.942
 2169POPC   C1A29751  21.283  14.297   8.835
 2169POPC   D2A29752  21.415  14.146   8.437
 2169POPC   C3A29753  21.111  14.076   8.135
 2169POPC   C4A29754  21.175  14.195   7.755
 2169POPC   C1B29755  21.600  14.685   8.732
 2169POPC   C2B29756  21.714  14.572   8.339
 2169POPC   C3B29757  21.598  14.469   7.954
 2169POPC   C4B29758  21.740  14.655   7.563
 2170POPC   NC329759   6.342   7.444   9.523
 2170POPC   PO429760   6.873   7.092   9.411
 2170POPC   GL129761   6.684   7.419   9.130
 2170POPC   GL229762   6.406   7.684   9.063
 2170POPC   C1A29763   6.459   7.241   8.798
 2170POPC   D2A29764   6.269   7.096   8.424
 2170POPC   C3A29765   6.571   7.091   8.073
 2170POPC   C4A29766   6.470   7.175   7.663
 2170POPC   C1B29767   6.285   7.943   8.698
 2170POPC   C2B29768   6.128   7.873   8.273
 2170POPC   C3B29769   6.382   7.588   8.007
 2170POPC   C4B29770   6.798   7.585   7.851
 2171POPC   NC329771  27.151  38.972   9.381
 2171POPC   PO429772  27.790  39.097   9.516
 2171POPC   GL129773  27.644  39.183   9.115
 2171POPC   GL229774  27.978  39.263   9.037
 2171POPC   C1A29775  27.544  39.121   8.656
 2171POPC   D2A29776  27.474  39.339   8.238
 2171POPC   C3A29777  27.376  39.085   7.893
 2171POPC   C4A29778  27.762  38.887   7.830
 2171POPC   C1B29779  27.767  39.575   8.778
 2171POPC   C2B29780  27.927  39.720   8.414
 2171POPC   C3B29781  28.023  39.525   8.054
 2171POPC   C4B29782  27.749  39.454   7.756
 2172POPC   NC329783  15.117  21.857   9.929
 2172POPC   PO429784  15.209  21.315   9.593
 2172POPC   GL129785  15.229  21.338   9.099
 2172POPC   GL229786  15.431  21.054   9.019
 2172POPC   C1A29787  15.247  21.572   8.654
 2172POPC   D2A29788  15.322  21.852   8.258
 2172POPC   C3A29789  15.306  21.646   7.843
 2172POPC   C4A29790  15.042  21.629   7.452
 2172POPC   C1B29791  15.297  21.061   8.560
 2172POPC   C2B29792  15.157  21.303   8.184
 2172POPC   C3B29793  14.810  21.366   7.834
 2172POPC   C4B29794  14.703  21.164   7.436
 2173POPC   NC329795  17.467  12.205   9.474
 2173POPC   PO429796  17.501  11.570   9.469
 2173POPC   GL129797  17.395  11.863   9.104
 2173POPC   GL229798  17.534  12.241   9.001
 2173POPC   C1A29799  17.502  11.873   8.682
 2173POPC   D2A29800  17.370  12.118   8.381
 2173POPC   C3A29801  17.469  12.290   8.004
 2173POPC   C4A29802  17.536  12.006   7.706
 2173POPC   C1B29803  17.842  12.272   8.733
 2173POPC   C2B29804  17.896  12.079   8.400
 2173POPC   C3B29805  17.920  12.083   8.044
 2173POPC   C4B29806  17.937  12.342   7.753
 2174POPC   NC329807   3.574  44.494   9.587
 2174POPC   PO429808   3.484   0.175   9.556
 2174POPC   GL129809   3.418  44.859   9.206
 2174POPC   GL229810   3.304  44.499   9.172
 2174POPC   C1A29811   3.659  44.760   8.808
 2174POPC   D2A29812   3.894  44.867   8.409
 2174POPC   C3A29813   3.689  44.777   8.009
 2174POPC   C4A29814   3.765  44.457   7.692
 2174POPC   C1B29815   3.374  44.323   8.783
 2174POPC   C2B29816   3.382  44.545   8.408
 2174POPC   C3B29817   3.183  44.651   8.038
 2174POPC   C4B29818   3.306  44.705   7.633
 2175POPC   NC329819  11.758   0.549   9.406
 2175POPC   PO429820  12.409   0.496   9.480
 2175POPC   GL129821  12.152   0.378   9.136
 2175POPC   GL229822  11.877   0.131   9.064
 2175POPC   C1A29823  12.272   0.330   8.753
 2175POPC   D2A29824  12.218   0.467   8.385
 2175POPC   C3A29825  12.146   0.231   8.052
 2175POPC   C4A29826  12.231   0.499   7.742
 2175POPC   C1B29827  11.746   0.308   8.665
 2175POPC   C2B29828  11.727   0.509   8.266
 2175POPC   C3B29829  11.710   0.413   7.837
 2175POPC   C4B29830  11.827   0.592   7.445
 2176POPC   NC329831  14.512  35.564   9.476
 2176POPC   PO429832  14.359  34.973   9.433
 2176POPC   GL129833  14.591  35.161   9.102
 2176POPC   GL229834  14.473  35.483   8.993
 2176POPC   C1A29835  14.520  35.104   8.666
 2176POPC   D2A29836  14.299  35.232   8.355
 2176POPC   C3A29837  14.473  35.268   7.983
 2176POPC   C4A29838  14.271  35.272   7.627
 2176POPC   C1B29839  14.702  35.734   8.721
 2176POPC   C2B29840  14.595  35.663   8.326
 2176POPC   C3B29841  14.204  35.694   8.126
 2176POPC   C4B29842  14.339  35.782   7.721
 2177POPC   NC329843  18.047   8.290   9.443
 2177POPC   PO429844  18.037   7.589   9.403
 2177POPC   GL129845  18.173   7.910   9.107
 2177POPC   GL229846  18.471   8.125   9.197
 2177POPC   C1A29847  18.144   8.215   8.763
 2177POPC   D2A29848  17.870   8.456   8.478
 2177POPC   C3A29849  18.070   8.412   8.086
 2177POPC   C4A29850  18.036   8.144   7.712
 2177POPC   C1B29851  18.646   8.325   8.827
 2177POPC   C2B29852  18.446   8.531   8.470
 2177POPC   C3B29853  18.649   8.508   8.090
 2177POPC   C4B29854  18.449   8.453   7.750
 2178POPC   NC329855  26.347  14.784   9.416
 2178POPC   PO429856  26.009  14.243   9.524
 2178POPC   GL129857  26.074  14.419   9.163
 2178POPC   GL229858  25.821  14.657   9.201
 2178POPC   C1A29859  26.133  14.575   8.771
 2178POPC   D2A29860  26.110  14.375   8.383
 2178POPC   C3A29861  26.116  14.525   7.989
 2178POPC   C4A29862  26.355  14.229   7.796
 2178POPC   C1B29863  25.676  14.880   8.821
 2178POPC   C2B29864  25.809  14.816   8.373
 2178POPC   C3B29865  25.659  14.756   7.943
 2178POPC   C4B29866  25.837  14.634   7.532
 2179POPC   NC329867  33.314  34.659   9.607
 2179POPC   PO429868  32.642  34.487   9.629
 2179POPC   GL129869  32.862  34.693   9.317
 2179POPC   GL229870  33.050  34.424   9.223
 2179POPC   C1A29871  32.988  34.818   8.904
 2179POPC   D2A29872  32.807  34.839   8.481
 2179POPC   C3A29873  33.069  34.814   8.115
 2179POPC   C4A29874  32.929  34.814   7.682
 2179POPC   C1B29875  32.907  34.247   8.847
 2179POPC   C2B29876  32.868  34.327   8.404
 2179POPC   C3B29877  32.946  34.334   7.965
 2179POPC   C4B29878  33.171  34.032   7.700
 2180POPC   NC329879  21.868  43.629   9.455
 2180POPC   PO429880  22.179  43.029   9.334
 2180POPC   GL129881  22.065  43.368   9.072
 2180POPC   GL229882  21.722  43.312   8.993
 2180POPC   C1A29883  22.092  43.471   8.657
 2180POPC   D2A29884  22.008  43.235   8.285
 2180POPC   C3A29885  22.092  43.345   7.864
 2180POPC   C4A29886  22.024  43.283   7.425
 2180POPC   C1B29887  21.987  42.980   8.734
 2180POPC   C2B29888  22.199  42.750   8.407
 2180POPC   C3B29889  22.233  42.881   7.993
 2180POPC   C4B29890  21.996  42.808   7.656
 2181POPC   NC329891  43.492  25.197   9.362
 2181POPC   PO429892  44.104  25.454   9.330
 2181POPC   GL129893  43.895  25.324   8.997
 2181POPC   GL229894  43.847  25.012   9.041
 2181POPC   C1A29895  44.001  25.445   8.579
 2181POPC   D2A29896  44.306  25.507   8.306
 2181POPC   C3A29897  44.129  25.203   8.059
 2181POPC   C4A29898  43.827  25.246   7.735
 2181POPC   C1B29899  43.659  25.069   8.624
 2181POPC   C2B29900  43.665  25.143   8.240
 2181POPC   C3B29901  43.703  24.815   7.993
 2181POPC   C4B29902  43.539  24.834   7.605
 2182POPC   NC329903  28.735  28.170   9.446
 2182POPC   PO429904  28.373  28.702   9.551
 2182POPC   GL129905  28.370  28.429   9.184
 2182POPC   GL229906  28.263  28.115   9.259
 2182POPC   C1A29907  28.529  28.191   8.822
 2182POPC   D2A29908  28.405  28.140   8.394
 2182POPC   C3A29909  28.724  28.113   8.086
 2182POPC   C4A29910  28.850  28.393   7.754
 2182POPC   C1B29911  28.029  28.080   8.863
 2182POPC   C2B29912  27.896  28.153   8.470
 2182POPC   C3B29913  27.974  28.215   8.060
 2182POPC   C4B29914  28.295  28.089   7.814
 2183POPC   NC329915  10.339  40.144   9.383
 2183POPC   PO429916  10.635  39.586   9.466
 2183POPC   GL129917  10.568  39.819   9.071
 2183POPC   GL229918  10.747  40.159   9.059
 2183POPC   C1A29919  10.560  39.769   8.631
 2183POPC   D2A29920  10.477  39.708   8.206
 2183POPC   C3A29921  10.730  39.859   7.862
 2183POPC   C4A29922  10.660  39.910   7.406
 2183POPC   C1B29923  10.469  40.259   8.694
 2183POPC   C2B29924  10.619  40.220   8.250
 2183POPC   C3B29925  10.421  40.251   7.814
 2183POPC   C4B29926  10.183  40.458   7.472
 2184POPC   NC329927  15.363  10.835   9.934
 2184POPC   PO429928  15.831  10.399   9.752
 2184POPC   GL129929  15.666  10.475   9.299
 2184POPC   GL229930  15.883  10.702   9.066
 2184POPC   C1A29931  15.654  10.310   8.841
 2184POPC   D2A29932  15.856  10.492   8.460
 2184POPC   C3A29933  15.634  10.438   8.047
 2184POPC   C4A29934  15.846  10.264   7.672
 2184POPC   C1B29935  16.279  10.683   8.771
 2184POPC   C2B29936  16.438  10.603   8.359
 2184POPC   C3B29937  16.141  10.559   8.010
 2184POPC   C4B29938  16.141  10.709   7.590
 2185POPC   NC329939  42.055  20.790   9.512
 2185POPC   PO429940  42.556  20.295   9.662
 2185POPC   GL129941  42.351  20.375   9.255
 2185POPC   GL229942  42.318  20.704   9.097
 2185POPC   C1A29943  42.513  20.280   8.829
 2185POPC   D2A29944  42.703  20.131   8.446
 2185POPC   C3A29945  42.416  20.224   8.080
 2185POPC   C4A29946  42.218  20.388   7.675
 2185POPC   C1B29947  42.501  20.807   8.703
 2185POPC   C2B29948  42.495  20.727   8.252
 2185POPC   C3B29949  42.158  20.792   7.988
 2185POPC   C4B29950  41.892  20.776   7.626
 2186POPC   NC329951  41.757   4.605   9.271
 2186POPC   PO429952  41.580   5.192   9.537
 2186POPC   GL129953  41.525   5.049   9.134
 2186POPC   GL229954  41.280   4.797   9.193
 2186POPC   C1A29955  41.619   5.267   8.760
 2186POPC   D2A29956  41.989   5.337   8.496
 2186POPC   C3A29957  41.846   5.441   8.062
 2186POPC   C4A29958  41.632   5.329   7.682
 2186POPC   C1B29959  41.106   4.748   8.822
 2186POPC   C2B29960  41.269   4.939   8.469
 2186POPC   C3B29961  41.397   5.073   8.066
 2186POPC   C4B29962  41.608   4.818   7.734
 2187POPC   NC329963  25.011  23.931   9.554
 2187POPC   PO429964  25.465  23.440   9.366
 2187POPC   GL129965  25.395  23.614   9.028
 2187POPC   GL229966  25.052  23.643   9.104
 2187POPC   C1A29967  25.247  23.858   8.684
 2187POPC   D2A29968  25.176  24.077   8.321
 2187POPC   C3A29969  25.363  23.956   7.939
 2187POPC   C4A29970  25.154  23.901   7.552
 2187POPC   C1B29971  25.049  23.374   8.732
 2187POPC   C2B29972  25.098  23.504   8.328
 2187POPC   C3B29973  25.269  23.425   7.952
 2187POPC   C4B29974  25.101  23.411   7.581
 2188POPC   NC329975  35.156   7.057   9.304
 2188POPC   PO429976  35.511   7.602   9.437
 2188POPC   GL129977  35.551   7.463   9.056
 2188POPC   GL229978  35.192   7.495   9.041
 2188POPC   C1A29979  35.462   7.187   8.706
 2188POPC   D2A29980  35.526   6.949   8.334
 2188POPC   C3A29981  35.548   7.273   8.025
 2188POPC   C4A29982  35.406   7.367   7.639
 2188POPC   C1B29983  35.337   7.703   8.666
 2188POPC   C2B29984  35.532   7.726   8.273
 2188POPC   C3B29985  35.551   7.801   7.849
 2188POPC   C4B29986  35.725   7.934   7.433
 2189POPC   NC329987  27.370  12.892   9.544
 2189POPC   PO429988  27.710  12.332   9.456
 2189POPC   GL129989  27.614  12.662   9.155
 2189POPC   GL229990  27.841  12.927   9.252
 2189POPC   C1A29991  27.476  13.052   8.910
 2189POPC   D2A29992  27.672  13.214   8.530
 2189POPC   C3A29993  27.528  12.980   8.208
 2189POPC   C4A29994  27.483  12.835   7.843
 2189POPC   C1B29995  27.943  12.877   8.824
 2189POPC   C2B29996  27.964  12.794   8.405
 2189POPC   C3B29997  27.838  12.546   8.052
 2189POPC   C4B29998  27.904  12.695   7.615
 2190POPC   NC329999  21.742  27.755   9.602
 2190POPC   PO430000  22.427  27.847   9.547
 2190POPC   GL130001  22.313  27.592   9.160
 2190POPC   GL230002  21.966  27.448   9.150
 2190POPC   C1A30003  22.225  27.640   8.730
 2190POPC   D2A30004  22.105  27.481   8.316
 2190POPC   C3A30005  22.399  27.619   8.009
 2190POPC   C4A30006  22.601  27.439   7.681
 2190POPC   C1B30007  21.849  27.243   8.736
 2190POPC   C2B30008  21.856  27.015   8.341
 2190POPC   C3B30009  21.829  27.152   7.930
 2190POPC   C4B30010  21.951  27.557   7.778
 2191POPC   NC330011  29.125  12.166   9.559
 2191POPC   PO430012  29.764  12.270   9.465
 2191POPC   GL130013  29.412  12.227   9.142
 2191POPC   GL230014  29.101  11.951   9.113
 2191POPC   C1A30015  29.173  12.348   8.778
 2191POPC   D2A30016  29.111  12.425   8.345
 2191POPC   C3A30017  29.449  12.224   8.105
 2191POPC   C4A30018  29.435  12.104   7.674
 2191POPC   C1B30019  28.908  11.901   8.714
 2191POPC   C2B30020  29.114  11.906   8.348
 2191POPC   C3B30021  28.997  12.037   7.960
 2191POPC   C4B30022  28.960  11.827   7.594
 2192POPC   NC330023  29.066   5.007   9.517
 2192POPC   PO430024  29.764   4.812   9.359
 2192POPC   GL130025  29.394   4.998   9.133
 2192POPC   GL230026  29.161   5.330   9.136
 2192POPC   C1A30027  29.206   4.950   8.734
 2192POPC   D2A30028  29.427   4.823   8.360
 2192POPC   C3A30029  29.205   4.784   8.007
 2192POPC   C4A30030  28.805   4.875   7.835
 2192POPC   C1B30031  29.018   5.464   8.720
 2192POPC   C2B30032  29.230   5.327   8.322
 2192POPC   C3B30033  29.145   5.272   7.877
 2192POPC   C4B30034  28.817   5.485   7.651
 2193POPC   NC330035   1.725  17.606   9.470
 2193POPC   PO430036   2.307  17.228   9.374
 2193POPC   GL130037   1.962  17.327   9.080
 2193POPC   GL230038   1.738  17.644   8.987
 2193POPC   C1A30039   1.910  17.337   8.656
 2193POPC   D2A30040   1.706  17.494   8.340
 2193POPC   C3A30041   1.834  17.338   7.944
 2193POPC   C4A30042   2.137  17.555   7.703
 2193POPC   C1B30043   1.479  17.835   8.681
 2193POPC   C2B30044   1.438  17.946   8.262
 2193POPC   C3B30045   1.762  17.858   7.950
 2193POPC   C4B30046   1.732  17.776   7.499
 2194POPC   NC330047  10.334  15.420   9.565
 2194POPC   PO430048  10.960  15.168   9.627
 2194POPC   GL130049  10.737  15.109   9.220
 2194POPC   GL230050  10.364  15.054   9.221
 2194POPC   C1A30051  10.647  15.012   8.774
 2194POPC   D2A30052  10.537  15.287   8.424
 2194POPC   C3A30053  10.766  15.202   8.064
 2194POPC   C4A30054  10.826  14.849   7.841
 2194POPC   C1B30055  10.146  15.043   8.830
 2194POPC   C2B30056  10.200  14.846   8.449
 2194POPC   C3B30057  10.255  14.975   8.031
 2194POPC   C4B30058  10.319  15.063   7.600
 2195POPC   NC330059  30.673  32.892   9.566
 2195POPC   PO430060  31.220  32.510   9.454
 2195POPC   GL130061  30.970  32.868   9.156
 2195POPC   GL230062  30.621  32.909   9.077
 2195POPC   C1A30063  30.951  33.139   8.762
 2195POPC   D2A30064  30.907  32.936   8.340
 2195POPC   C3A30065  30.859  33.185   7.976
 2195POPC   C4A30066  30.716  33.239   7.530
 2195POPC   C1B30067  30.557  32.796   8.688
 2195POPC   C2B30068  30.376  32.729   8.301
 2195POPC   C3B30069  30.414  32.911   7.922
 2195POPC   C4B30070  30.737  32.775   7.710
 2196POPC   NC330071  30.389  37.975   9.403
 2196POPC   PO430072  30.983  37.690   9.387
 2196POPC   GL130073  30.750  37.481   9.090
 2196POPC   GL230074  30.395  37.424   9.197
 2196POPC   C1A30075  30.762  37.607   8.670
 2196POPC   D2A30076  30.478  37.768   8.339
 2196POPC   C3A30077  30.781  37.862   8.021
 2196POPC   C4A30078  30.780  37.750   7.585
 2196POPC   C1B30079  30.285  37.479   8.764
 2196POPC   C2B30080  30.483  37.280   8.384
 2196POPC   C3B30081  30.609  37.385   7.962
 2196POPC   C4B30082  30.354  37.439   7.594
 2197POPC   NC330083  11.601   8.734   9.679
 2197POPC   PO430084  11.513   9.353   9.574
 2197POPC   GL130085  11.317   9.118   9.254
 2197POPC   GL230086  11.025   9.314   9.094
 2197POPC   C1A30087  11.363   9.033   8.822
 2197POPC   D2A30088  11.559   9.290   8.508
 2197POPC   C3A30089  11.609   9.092   8.134
 2197POPC   C4A30090  11.431   9.234   7.786
 2197POPC   C1B30091  11.071   9.411   8.627
 2197POPC   C2B30092  10.875   9.349   8.208
 2197POPC   C3B30093  10.925   9.124   7.784
 2197POPC   C4B30094  10.998   8.974   7.334
 2198POPC   NC330095  17.474   7.670   9.436
 2198POPC   PO430096  17.604   8.331   9.565
 2198POPC   GL130097  17.462   8.199   9.190
 2198POPC   GL230098  17.742   8.277   9.033
 2198POPC   C1A30099  17.434   7.937   8.808
 2198POPC   D2A30100  17.709   7.948   8.469
 2198POPC   C3A30101  17.482   8.098   8.120
 2198POPC   C4A30102  17.302   8.083   7.709
 2198POPC   C1B30103  17.497   8.583   8.824
 2198POPC   C2B30104  17.327   8.511   8.406
 2198POPC   C3B30105  17.356   8.627   8.013
 2198POPC   C4B30106  17.639   8.465   7.788
 2199POPC   NC330107  31.848  44.639   9.466
 2199POPC   PO430108  32.407  44.421   9.723
 2199POPC   GL130109  32.499  44.533   9.264
 2199POPC   GL230110  32.181  44.569   9.085
 2199POPC   C1A30111  32.591  44.342   8.849
 2199POPC   D2A30112  32.774  44.392   8.422
 2199POPC   C3A30113  32.448  44.595   8.187
 2199POPC   C4A30114  32.496  44.708   7.778
 2199POPC   C1B30115  31.867  44.772   8.810
 2199POPC   C2B30116  31.683  44.866   8.404
 2199POPC   C3B30117  31.822  44.761   7.963
 2199POPC   C4B30118  32.060  44.436   7.742
 2200POPC   NC330119  16.668  16.601   9.442
 2200POPC   PO430120  16.909  17.236   9.471
 2200POPC   GL130121  16.976  16.936   9.124
 2200POPC   GL230122  17.044  16.566   9.110
 2200POPC   C1A30123  16.714  16.810   8.754
 2200POPC   D2A30124  16.426  16.899   8.396
 2200POPC   C3A30125  16.586  16.998   7.989
 2200POPC   C4A30126  17.031  16.894   7.882
 2200POPC   C1B30127  16.978  16.351   8.700
 2200POPC   C2B30128  16.855  16.529   8.291
 2200POPC   C3B30129  16.713  16.523   7.857
 2200POPC   C4B30130  16.287  16.591   7.728
 2201POPC   NC330131  43.158  14.071   9.537
 2201POPC   PO430132  43.388  14.685   9.645
 2201POPC   GL130133  43.167  14.555   9.261
 2201POPC   GL230134  43.274  14.230   9.066
 2201POPC   C1A30135  43.236  14.697   8.845
 2201POPC   D2A30136  43.110  14.521   8.442
 2201POPC   C3A30137  43.218  14.715   8.054
 2201POPC   C4A30138  43.175  14.695   7.603
 2201POPC   C1B30139  42.886  14.184   8.802
 2201POPC   C2B30140  42.701  14.193   8.386
 2201POPC   C3B30141  42.977  14.175   8.021
 2201POPC   C4B30142  42.872  14.179   7.565
 2202POPC   NC330143  30.494  38.793   9.414
 2202POPC   PO430144  31.018  38.340   9.456
 2202POPC   GL130145  30.735  38.458   9.115
 2202POPC   GL230146  30.849  38.786   9.012
 2202POPC   C1A30147  30.412  38.382   8.778
 2202POPC   D2A30148  30.498  38.263   8.338
 2202POPC   C3A30149  30.896  38.359   8.100
 2202POPC   C4A30150  30.827  38.249   7.671
 2202POPC   C1B30151  30.470  38.883   8.764
 2202POPC   C2B30152  30.318  38.731   8.358
 2202POPC   C3B30153  30.484  38.607   7.934
 2202POPC   C4B30154  30.743  38.732   7.528
 2203POPC   NC330155   6.960   0.831   9.428
 2203POPC   PO430156   6.437   1.250   9.586
 2203POPC   GL130157   6.582   1.335   9.166
 2203POPC   GL230158   6.682   1.029   9.051
 2203POPC   C1A30159   6.518   1.419   8.736
 2203POPC   D2A30160   6.672   1.200   8.370
 2203POPC   C3A30161   6.567   1.390   7.987
 2203POPC   C4A30162   6.588   1.332   7.541
 2203POPC   C1B30163   6.840   0.836   8.678
 2203POPC   C2B30164   6.948   0.775   8.229
 2203POPC   C3B30165   6.778   0.948   7.856
 2203POPC   C4B30166   6.939   0.972   7.440
 2204POPC   NC330167   7.022  43.816   9.517
 2204POPC   PO430168   7.572  43.546   9.640
 2204POPC   GL130169   7.464  43.823   9.277
 2204POPC   GL230170   7.671  44.120   9.327
 2204POPC   C1A30171   7.192  43.830   8.884
 2204POPC   D2A30172   6.990  43.962   8.492
 2204POPC   C3A30173   7.172  43.805   8.108
 2204POPC   C4A30174   7.280  44.005   7.716
 2204POPC   C1B30175   7.634  44.077   8.862
 2204POPC   C2B30176   7.488  44.026   8.470
 2204POPC   C3B30177   7.626  44.047   8.085
 2204POPC   C4B30178   7.822  43.817   7.805
 2205POPC   NC330179  25.898  33.141   9.690
 2205POPC   PO430180  26.257  32.689   9.558
 2205POPC   GL130181  25.923  32.891   9.230
 2205POPC   GL230182  25.776  33.246   9.203
 2205POPC   C1A30183  25.838  32.898   8.751
 2205POPC   D2A30184  25.897  32.817   8.273
 2205POPC   C3A30185  26.133  33.073   7.931
 2205POPC   C4A30186  26.505  33.083   7.602
 2205POPC   C1B30187  25.837  33.407   8.799
 2205POPC   C2B30188  25.961  33.354   8.363
 2205POPC   C3B30189  25.756  33.458   7.974
 2205POPC   C4B30190  25.833  33.321   7.550
 2206POPC   NC330191  34.939  30.583   9.406
 2206POPC   PO430192  35.543  30.380   9.489
 2206POPC   GL130193  35.358  30.484   9.096
 2206POPC   GL230194  35.281  30.844   9.073
 2206POPC   C1A30195  35.240  30.552   8.664
 2206POPC   D2A30196  35.230  30.753   8.236
 2206POPC   C3A30197  35.455  30.532   7.911
 2206POPC   C4A30198  35.316  30.486   7.485
 2206POPC   C1B30199  35.179  31.061   8.647
 2206POPC   C2B30200  34.868  31.171   8.286
 2206POPC   C3B30201  34.899  31.168   7.836
 2206POPC   C4B30202  35.298  30.972   7.740
 2207POPC   NC330203  15.692   9.998   9.561
 2207POPC   PO430204  16.169  10.312   9.272
 2207POPC   GL130205  16.049   9.921   9.140
 2207POPC   GL230206  16.066   9.551   9.237
 2207POPC   C1A30207  15.931   9.792   8.759
 2207POPC   D2A30208  15.898   9.649   8.370
 2207POPC   C3A30209  15.875   9.950   8.078
 2207POPC   C4A30210  16.172   9.866   7.777
 2207POPC   C1B30211  15.682   9.418   9.000
 2207POPC   C2B30212  15.558   9.341   8.572
 2207POPC   C3B30213  15.655   9.273   8.125
 2207POPC   C4B30214  15.753   9.529   7.777
 2208POPC   NC330215  27.633  42.924   9.575
 2208POPC   PO430216  27.972  43.444   9.538
 2208POPC   GL130217  27.687  43.256   9.207
 2208POPC   GL230218  27.364  43.335   9.320
 2208POPC   C1A30219  27.620  42.957   8.835
 2208POPC   D2A30220  27.826  42.768   8.458
 2208POPC   C3A30221  27.675  42.929   8.019
 2208POPC   C4A30222  27.552  43.100   7.583
 2208POPC   C1B30223  27.366  43.400   8.847
 2208POPC   C2B30224  27.433  43.217   8.409
 2208POPC   C3B30225  27.487  43.407   7.974
 2208POPC   C4B30226  27.190  43.449   7.570
 2209POPC   NC330227   3.765  11.390   9.611
 2209POPC   PO430228   3.080  11.250   9.604
 2209POPC   GL130229   3.336  11.124   9.222
 2209POPC   GL230230   3.666  11.198   9.144
 2209POPC   C1A30231   3.292  11.157   8.769
 2209POPC   D2A30232   3.197  10.993   8.374
 2209POPC   C3A30233   3.203  11.268   7.997
 2209POPC   C4A30234   3.472  11.643   7.918
 2209POPC   C1B30235   3.800  11.264   8.708
 2209POPC   C2B30236   3.632  11.259   8.299
 2209POPC   C3B30237   3.718  11.212   7.866
 2209POPC   C4B30238   3.977  11.544   7.706
 2210POPC   NC330239  21.783  35.145   9.462
 2210POPC   PO430240  21.224  35.609   9.414
 2210POPC   GL130241  21.481  35.429   9.129
 2210POPC   GL230242  21.398  35.051   9.116
 2210POPC   C1A30243  21.363  35.395   8.718
 2210POPC   D2A30244  21.306  35.108   8.399
 2210POPC   C3A30245  21.318  35.338   8.033
 2210POPC   C4A30246  21.327  35.431   7.630
 2210POPC   C1B30247  21.708  35.034   8.819
 2210POPC   C2B30248  21.849  35.098   8.417
 2210POPC   C3B30249  21.676  34.935   8.072
 2210POPC   C4B30250  21.638  35.053   7.673
 2211POPC   NC330251  22.577  17.555   9.721
 2211POPC   PO430252  21.995  17.358   9.581
 2211POPC   GL130253  22.263  17.473   9.229
 2211POPC   GL230254  22.458  17.793   9.272
 2211POPC   C1A30255  22.114  17.378   8.816
 2211POPC   D2A30256  21.851  17.661   8.544
 2211POPC   C3A30257  21.858  17.537   8.137
 2211POPC   C4A30258  22.156  17.250   7.962
 2211POPC   C1B30259  22.387  17.806   8.816
 2211POPC   C2B30260  22.331  17.586   8.391
 2211POPC   C3B30261  22.329  17.717   7.973
 2211POPC   C4B30262  22.620  17.829   7.677
 2212POPC   NC330263  33.521   4.514   9.909
 2212POPC   PO430264  32.952   4.450   9.494
 2212POPC   GL130265  32.849   4.460   9.088
 2212POPC   GL230266  33.161   4.458   9.008
 2212POPC   C1A30267  32.615   4.506   8.696
 2212POPC   D2A30268  32.742   4.631   8.266
 2212POPC   C3A30269  32.802   4.256   8.018
 2212POPC   C4A30270  32.785   4.188   7.556
 2212POPC   C1B30271  33.136   4.424   8.582
 2212POPC   C2B30272  33.287   4.325   8.200
 2212POPC   C3B30273  33.164   4.590   7.890
 2212POPC   C4B30274  33.152   4.556   7.440
 2213POPC   NC330275  23.538  40.965   9.449
 2213POPC   PO430276  24.006  40.593   9.527
 2213POPC   GL130277  23.768  40.624   9.139
 2213POPC   GL230278  23.855  40.987   9.043
 2213POPC   C1A30279  23.617  40.667   8.700
 2213POPC   D2A30280  23.834  40.762   8.293
 2213POPC   C3A30281  23.705  40.584   7.885
 2213POPC   C4A30282  23.804  40.869   7.527
 2213POPC   C1B30283  23.479  41.165   8.796
 2213POPC   C2B30284  23.376  41.012   8.375
 2213POPC   C3B30285  23.541  41.058   7.942
 2213POPC   C4B30286  23.465  41.251   7.498
 2214POPC   NC330287  12.536   8.773   9.328
 2214POPC   PO430288  12.034   8.894   9.725
 2214POPC   GL130289  11.918   8.936   9.279
 2214POPC   GL230290  12.194   9.129   9.164
 2214POPC   C1A30291  11.888   9.019   8.797
 2214POPC   D2A30292  12.058   9.178   8.389
 2214POPC   C3A30293  12.082   8.863   8.076
 2214POPC   C4A30294  11.766   8.727   7.779
 2214POPC   C1B30295  12.324   9.339   8.800
 2214POPC   C2B30296  12.561   9.284   8.403
 2214POPC   C3B30297  12.424   9.253   8.006
 2214POPC   C4B30298  12.428   8.936   7.711
 2215POPC   NC330299   2.369  27.151   9.434
 2215POPC   PO430300   2.967  26.927   9.595
 2215POPC   GL130301   2.710  26.784   9.171
 2215POPC   GL230302   2.369  26.641   9.227
 2215POPC   C1A30303   2.840  26.723   8.678
 2215POPC   D2A30304   2.956  26.555   8.242
 2215POPC   C3A30305   2.968  26.787   7.834
 2215POPC   C4A30306   2.933  26.629   7.386
 2215POPC   C1B30307   2.360  26.892   8.820
 2215POPC   C2B30308   2.388  26.808   8.382
 2215POPC   C3B30309   2.385  26.986   7.964
 2215POPC   C4B30310   2.556  26.916   7.557
 2216POPC   NC330311  12.461  25.106   9.465
 2216POPC   PO430312  12.261  25.690   9.574
 2216POPC   GL130313  12.324  25.526   9.162
 2216POPC   GL230314  12.053  25.271   9.180
 2216POPC   C1A30315  12.130  25.494   8.725
 2216POPC   D2A30316  12.132  25.304   8.305
 2216POPC   C3A30317  12.210  25.484   7.900
 2216POPC   C4A30318  12.438  25.562   7.491
 2216POPC   C1B30319  11.977  24.991   8.806
 2216POPC   C2B30320  12.068  24.812   8.385
 2216POPC   C3B30321  12.142  24.779   7.946
 2216POPC   C4B30322  11.991  24.659   7.526
 2217POPC   NC330323  35.647  30.834   9.482
 2217POPC   PO430324  36.311  30.677   9.406
 2217POPC   GL130325  36.190  30.504   9.069
 2217POPC   GL230326  35.866  30.548   9.115
 2217POPC   C1A30327  36.214  30.650   8.673
 2217POPC   D2A30328  36.285  30.417   8.338
 2217POPC   C3A30329  36.170  30.610   7.983
 2217POPC   C4A30330  36.388  30.902   7.725
 2217POPC   C1B30331  35.705  30.735   8.786
 2217POPC   C2B30332  35.738  30.647   8.373
 2217POPC   C3B30333  35.708  30.956   8.093
 2217POPC   C4B30334  35.823  30.891   7.720
 2218POPC   NC330335  26.765  43.421   9.551
 2218POPC   PO430336  27.183  42.830   9.542
 2218POPC   GL130337  26.983  43.024   9.178
 2218POPC   GL230338  26.686  43.175   9.051
 2218POPC   C1A30339  27.066  43.009   8.743
 2218POPC   D2A30340  26.920  43.134   8.354
 2218POPC   C3A30341  27.139  43.016   8.015
 2218POPC   C4A30342  26.816  43.172   7.798
 2218POPC   C1B30343  26.479  43.012   8.700
 2218POPC   C2B30344  26.385  43.113   8.314
 2218POPC   C3B30345  26.501  43.464   8.075
 2218POPC   C4B30346  26.318  43.553   7.626
 2219POPC   NC330347   9.053  39.097   9.463
 2219POPC   PO430348   8.608  39.539   9.405
 2219POPC   GL130349   8.978  39.506   9.167
 2219POPC   GL230350   8.798  39.206   9.020
 2219POPC   C1A30351   9.229  39.374   8.804
 2219POPC   D2A30352   9.046  39.168   8.469
 2219POPC   C3A30353   9.198  39.255   8.082
 2219POPC   C4A30354   9.249  38.926   7.888
 2219POPC   C1B30355   8.751  39.587   8.723
 2219POPC   C2B30356   8.960  39.667   8.342
 2219POPC   C3B30357   8.761  39.486   7.972
 2219POPC   C4B30358   8.761  39.078   7.772
 2220POPC   NC330359   5.142  15.621   9.780
 2220POPC   PO430360   4.878  15.075   9.382
 2220POPC   GL130361   5.109  15.006   9.027
 2220POPC   GL230362   5.206  15.306   8.878
 2220POPC   C1A30363   5.127  14.918   8.579
 2220POPC   D2A30364   5.273  15.150   8.261
 2220POPC   C3A30365   5.042  15.068   7.921
 2220POPC   C4A30366   4.731  14.775   7.767
 2220POPC   C1B30367   5.429  15.597   8.639
 2220POPC   C2B30368   5.353  15.674   8.202
 2220POPC   C3B30369   5.379  15.459   7.845
 2220POPC   C4B30370   5.348  15.191   7.493
 2221POPC   NC330371  44.517  44.008   9.570
 2221POPC   PO430372   0.177  43.699   9.606
 2221POPC   GL130373  44.879  43.652   9.230
 2221POPC   GL230374  44.611  43.878   9.096
 2221POPC   C1A30375  44.734  43.506   8.780
 2221POPC   D2A30376  44.839  43.676   8.398
 2221POPC   C3A30377  44.684  43.665   7.990
 2221POPC   C4A30378  44.964  43.659   7.685
 2221POPC   C1B30379  44.411  43.901   8.695
 2221POPC   C2B30380  44.458  44.034   8.283
 2221POPC   C3B30381  44.200  43.863   7.941
 2221POPC   C4B30382  44.151  43.842   7.499
 2222POPC   NC330383  20.557  14.249   9.649
 2222POPC   PO430384  20.236  14.842   9.480
 2222POPC   GL130385  20.589  14.619   9.196
 2222POPC   GL230386  20.663  14.257   9.169
 2222POPC   C1A30387  20.745  14.579   8.758
 2222POPC   D2A30388  21.045  14.507   8.410
 2222POPC   C3A30389  20.806  14.478   7.989
 2222POPC   C4A30390  20.476  14.582   7.682
 2222POPC   C1B30391  20.835  14.054   8.833
 2222POPC   C2B30392  20.681  14.110   8.438
 2222POPC   C3B30393  20.381  14.212   8.123
 2222POPC   C4B30394  20.518  14.077   7.721
 2223POPC   NC330395  14.054   2.672   9.525
 2223POPC   PO430396  14.755   2.559   9.414
 2223POPC   GL130397  14.436   2.721   9.134
 2223POPC   GL230398  14.156   2.487   9.063
 2223POPC   C1A30399  14.513   2.851   8.677
 2223POPC   D2A30400  14.642   2.864   8.217
 2223POPC   C3A30401  14.377   3.110   7.944
 2223POPC   C4A30402  13.926   3.028   7.842
 2223POPC   C1B30403  14.088   2.476   8.628
 2223POPC   C2B30404  14.108   2.725   8.259
 2223POPC   C3B30405  14.257   2.626   7.859
 2223POPC   C4B30406  14.663   2.759   7.715
 2224POPC   NC330407  39.110  18.021   9.551
 2224POPC   PO430408  39.730  18.298   9.519
 2224POPC   GL130409  39.362  18.293   9.173
 2224POPC   GL230410  38.978  18.239   9.119
 2224POPC   C1A30411  39.262  18.111   8.739
 2224POPC   D2A30412  39.202  18.348   8.388
 2224POPC   C3A30413  39.322  18.277   7.976
 2224POPC   C4A30414  39.501  18.522   7.633
 2224POPC   C1B30415  38.847  18.498   8.782
 2224POPC   C2B30416  38.716  18.343   8.373
 2224POPC   C3B30417  38.826  18.382   7.960
 2224POPC   C4B30418  38.677  18.716   7.707
 2225POPC   NC330419  42.233   1.698   9.498
 2225POPC   PO430420  42.617   2.239   9.400
 2225POPC   GL130421  42.405   1.988   9.130
 2225POPC   GL230422  42.061   2.109   9.162
 2225POPC   C1A30423  42.324   1.780   8.757
 2225POPC   D2A30424  42.567   1.795   8.394
 2225POPC   C3A30425  42.396   1.687   8.036
 2225POPC   C4A30426  42.620   1.771   7.681
 2225POPC   C1B30427  42.296   2.295   8.749
 2225POPC   C2B30428  42.253   2.196   8.308
 2225POPC   C3B30429  42.378   2.178   7.870
 2225POPC   C4B30430  42.196   1.998   7.475
 2226POPC   NC330431  11.886  29.746   9.555
 2226POPC   PO430432  12.428  29.518   9.208
 2226POPC   GL130433  12.070  29.757   9.084
 2226POPC   GL230434  12.078  30.092   9.189
 2226POPC   C1A30435  11.922  29.860   8.706
 2226POPC   D2A30436  12.168  29.593   8.447
 2226POPC   C3A30437  12.020  29.563   8.074
 2226POPC   C4A30438  12.201  29.695   7.740
 2226POPC   C1B30439  12.280  30.220   8.755
 2226POPC   C2B30440  12.199  30.087   8.304
 2226POPC   C3B30441  11.797  30.010   8.091
 2226POPC   C4B30442  11.608  30.248   7.789
 2227POPC   NC330443   0.098  36.650   9.450
 2227POPC   PO430444   0.245  37.344   9.275
 2227POPC   GL130445   0.440  36.952   9.149
 2227POPC   GL230446   0.804  36.958   9.074
 2227POPC   C1A30447   0.458  36.689   8.780
 2227POPC   D2A30448   0.712  36.675   8.394
 2227POPC   C3A30449   0.445  36.655   8.035
 2227POPC   C4A30450   0.490  36.643   7.602
 2227POPC   C1B30451   0.685  37.136   8.684
 2227POPC   C2B30452   0.734  37.170   8.246
 2227POPC   C3B30453   0.473  37.187   7.891
 2227POPC   C4B30454   0.017  37.268   7.982
 2228POPC   NC330455  12.952   0.231   9.505
 2228POPC   PO430456  13.257   0.813   9.379
 2228POPC   GL130457  13.042   0.705   9.033
 2228POPC   GL230458  12.757   0.484   9.083
 2228POPC   C1A30459  12.912   0.685   8.616
 2228POPC   D2A30460  12.708   0.536   8.235
 2228POPC   C3A30461  12.979   0.427   7.898
 2228POPC   C4A30462  13.091   0.541   7.492
 2228POPC   C1B30463  12.730   0.133   8.794
 2228POPC   C2B30464  12.575   0.045   8.366
 2228POPC   C3B30465  12.613   0.046   7.888
 2228POPC   C4B30466  12.536   0.199   7.448
 2229POPC   NC330467  12.553  12.790   9.522
 2229POPC   PO430468  13.195  13.074   9.446
 2229POPC   GL130469  12.940  12.778   9.201
 2229POPC   GL230470  12.665  13.013   9.094
 2229POPC   C1A30471  12.855  12.664   8.786
 2229POPC   D2A30472  12.753  12.909   8.415
 2229POPC   C3A30473  12.961  12.749   8.053
 2229POPC   C4A30474  12.786  12.680   7.659
 2229POPC   C1B30475  12.437  13.142   8.753
 2229POPC   C2B30476  12.271  13.143   8.329
 2229POPC   C3B30477  12.519  13.044   7.945
 2229POPC   C4B30478  12.664  13.202   7.533
 2230POPC   NC330479  20.533  32.512   9.655
 2230POPC   PO430480  20.893  33.136   9.462
 2230POPC   GL130481  20.802  33.067   9.069
 2230POPC   GL230482  20.468  33.008   9.034
 2230POPC   C1A30483  20.833  33.192   8.650
 2230POPC   D2A30484  20.906  32.933   8.316
 2230POPC   C3A30485  20.717  33.121   7.994
 2230POPC   C4A30486  20.988  33.359   7.737
 2230POPC   C1B30487  20.486  32.814   8.612
 2230POPC   C2B30488  20.429  32.745   8.178
 2230POPC   C3B30489  20.209  32.954   7.818
 2230POPC   C4B30490  20.264  32.871   7.346
 2231POPC   NC330491  27.919   5.090   9.588
 2231POPC   PO430492  28.494   4.960   9.500
 2231POPC   GL130493  28.315   5.174   9.176
 2231POPC   GL230494  28.101   4.906   9.132
 2231POPC   C1A30495  28.503   5.258   8.774
 2231POPC   D2A30496  28.777   5.085   8.467
 2231POPC   C3A30497  28.689   5.293   8.116
 2231POPC   C4A30498  28.381   5.147   7.848
 2231POPC   C1B30499  28.088   4.966   8.714
 2231POPC   C2B30500  28.201   4.959   8.308
 2231POPC   C3B30501  27.907   5.066   8.008
 2231POPC   C4B30502  27.944   5.263   7.597
 2232POPC   NC330503  34.760  12.608   9.518
 2232POPC   PO430504  34.285  13.043   9.518
 2232POPC   GL130505  34.492  12.879   9.150
 2232POPC   GL230506  34.843  12.942   9.144
 2232POPC   C1A30507  34.595  12.814   8.699
 2232POPC   D2A30508  34.470  12.928   8.282
 2232POPC   C3A30509  34.336  12.670   7.972
 2232POPC   C4A30510  34.439  12.694   7.549
 2232POPC   C1B30511  35.056  13.037   8.766
 2232POPC   C2B30512  34.992  12.890   8.338
 2232POPC   C3B30513  34.828  12.877   7.905
 2232POPC   C4B30514  34.520  13.159   7.675
 2233POPC   NC330515  10.099  26.089   9.465
 2233POPC   PO430516  10.767  26.171   9.491
 2233POPC   GL130517  10.525  25.883   9.236
 2233POPC   GL230518  10.753  25.669   9.074
 2233POPC   C1A30519  10.321  25.848   8.833
 2233POPC   D2A30520  10.284  25.763   8.400
 2233POPC   C3A30521  10.313  26.110   8.124
 2233POPC   C4A30522  10.505  26.080   7.739
 2233POPC   C1B30523  10.814  26.061   8.840
 2233POPC   C2B30524  10.687  26.242   8.460
 2233POPC   C3B30525  10.867  26.207   8.066
 2233POPC   C4B30526  10.961  26.274   7.634
 2234POPC   NC330527  15.971  28.773   9.388
 2234POPC   PO430528  16.045  29.420   9.571
 2234POPC   GL130529  16.160  29.218   9.188
 2234POPC   GL230530  15.853  29.268   9.040
 2234POPC   C1A30531  16.160  28.979   8.772
 2234POPC   D2A30532  16.343  28.981   8.382
 2234POPC   C3A30533  16.121  29.150   8.056
 2234POPC   C4A30534  16.113  29.062   7.643
 2234POPC   C1B30535  15.633  29.081   8.701
 2234POPC   C2B30536  15.723  28.916   8.268
 2234POPC   C3B30537  15.683  28.860   7.808
 2234POPC   C4B30538  15.667  28.859   7.321
 2235POPC   NC330539  36.521  28.682   9.467
 2235POPC   PO430540  36.667  29.225   9.559
 2235POPC   GL130541  36.849  29.079   9.183
 2235POPC   GL230542  37.236  29.014   9.185
 2235POPC   C1A30543  36.956  29.315   8.818
 2235POPC   D2A30544  36.966  29.166   8.400
 2235POPC   C3A30545  37.160  29.411   8.080
 2235POPC   C4A30546  36.981  29.409   7.696
 2235POPC   C1B30547  37.102  28.809   8.779
 2235POPC   C2B30548  37.162  28.685   8.344
 2235POPC   C3B30549  37.095  28.919   7.948
 2235POPC   C4B30550  37.112  28.954   7.488
 2236POPC   NC330551  15.523  17.856   9.521
 2236POPC   PO430552  15.929  17.329   9.649
 2236POPC   GL130553  15.881  17.499   9.234
 2236POPC   GL230554  15.867  17.166   9.118
 2236POPC   C1A30555  15.949  17.550   8.754
 2236POPC   D2A30556  16.082  17.277   8.393
 2236POPC   C3A30557  16.016  17.415   7.980
 2236POPC   C4A30558  16.068  17.843   7.866
 2236POPC   C1B30559  15.723  17.085   8.688
 2236POPC   C2B30560  15.607  17.116   8.280
 2236POPC   C3B30561  15.515  17.185   7.875
 2236POPC   C4B30562  15.793  17.281   7.544
 2237POPC   NC330563  13.968   9.761   9.571
 2237POPC   PO430564  13.377   9.748   9.442
 2237POPC   GL130565  13.683   9.920   9.158
 2237POPC   GL230566  13.846   9.599   9.112
 2237POPC   C1A30567  13.668  10.042   8.714
 2237POPC   D2A30568  13.431   9.824   8.385
 2237POPC   C3A30569  13.591   9.882   7.988
 2237POPC   C4A30570  13.599  10.017   7.550
 2237POPC   C1B30571  13.761   9.562   8.710
 2237POPC   C2B30572  13.985   9.606   8.328
 2237POPC   C3B30573  13.965   9.536   7.911
 2237POPC   C4B30574  13.572   9.448   7.702
 2238POPC   NC330575  41.345  40.938   9.519
 2238POPC   PO430576  41.751  40.361   9.433
 2238POPC   GL130577  41.686  40.429   9.016
 2238POPC   GL230578  41.401  40.627   9.094
 2238POPC   C1A30579  41.597  40.434   8.556
 2238POPC   D2A30580  41.327  40.671   8.248
 2238POPC   C3A30581  41.547  40.738   7.845
 2238POPC   C4A30582  41.424  40.597   7.416
 2238POPC   C1B30583  41.423  40.876   8.730
 2238POPC   C2B30584  41.412  41.157   8.380
 2238POPC   C3B30585  41.248  41.155   7.982
 2238POPC   C4B30586  41.083  40.866   7.678
 2239POPC   NC330587   1.206  18.196   9.465
 2239POPC   PO430588   0.552  18.408   9.284
 2239POPC   GL130589   0.963  18.280   9.030
 2239POPC   GL230590   1.340  18.411   9.037
 2239POPC   C1A30591   1.135  18.219   8.619
 2239POPC   D2A30592   0.981  18.425   8.273
 2239POPC   C3A30593   0.997  18.200   7.911
 2239POPC   C4A30594   1.293  17.889   7.764
 2239POPC   C1B30595   1.398  18.730   8.721
 2239POPC   C2B30596   1.604  18.732   8.334
 2239POPC   C3B30597   1.455  18.441   8.038
 2239POPC   C4B30598   1.276  18.506   7.639
 2240POPC   NC330599   6.283  16.901   9.602
 2240POPC   PO430600   6.997  16.753   9.554
 2240POPC   GL130601   6.657  16.756   9.252
 2240POPC   GL230602   6.358  16.576   9.230
 2240POPC   C1A30603   6.474  16.853   8.842
 2240POPC   D2A30604   6.670  16.892   8.492
 2240POPC   C3A30605   6.451  17.022   8.137
 2240POPC   C4A30606   6.508  16.820   7.749
 2240POPC   C1B30607   6.186  16.429   8.834
 2240POPC   C2B30608   6.212  16.636   8.433
 2240POPC   C3B30609   6.168  16.494   8.014
 2240POPC   C4B30610   6.244  16.386   7.602
 2241POPC   NC330611   3.263  20.651   9.420
 2241POPC   PO430612   3.860  20.895   9.477
 2241POPC   GL130613   3.642  20.791   9.112
 2241POPC   GL230614   3.588  20.452   9.039
 2241POPC   C1A30615   3.600  20.855   8.700
 2241POPC   D2A30616   3.767  20.788   8.300
 2241POPC   C3A30617   3.470  20.728   7.995
 2241POPC   C4A30618   3.425  20.895   7.602
 2241POPC   C1B30619   3.650  20.340   8.579
 2241POPC   C2B30620   3.750  20.294   8.120
 2241POPC   C3B30621   3.596  20.355   7.689
 2241POPC   C4B30622   3.804  20.266   7.291
 2242POPC   NC330623   9.473  15.515   9.872
 2242POPC   PO430624   9.077  15.072   9.518
 2242POPC   GL130625   9.030  15.162   9.115
 2242POPC   GL230626   9.311  15.389   9.125
 2242POPC   C1A30627   8.856  14.950   8.726
 2242POPC   D2A30628   8.966  14.642   8.385
 2242POPC   C3A30629   8.905  14.809   7.981
 2242POPC   C4A30630   9.073  15.178   7.785
 2242POPC   C1B30631   9.056  15.447   8.720
 2242POPC   C2B30632   8.884  15.491   8.357
 2242POPC   C3B30633   9.101  15.624   8.027
 2242POPC   C4B30634   9.174  15.692   7.614
 2243POPC   NC330635   1.848   9.506   9.521
 2243POPC   PO430636   2.045  10.135   9.560
 2243POPC   GL130637   2.257   9.988   9.151
 2243POPC   GL230638   2.309   9.632   9.154
 2243POPC   C1A30639   2.143   9.796   8.705
 2243POPC   D2A30640   1.819   9.586   8.414
 2243POPC   C3A30641   1.728   9.833   8.027
 2243POPC   C4A30642   1.894   9.829   7.604
 2243POPC   C1B30643   2.422   9.345   8.805
 2243POPC   C2B30644   2.272   9.339   8.388
 2243POPC   C3B30645   2.162   9.552   8.022
 2243POPC   C4B30646   2.192   9.407   7.631
 2244POPC   NC330647  25.556  35.927   9.447
 2244POPC   PO430648  25.077  36.436   9.553
 2244POPC   GL130649  25.080  36.270   9.088
 2244POPC   GL230650  25.312  36.002   9.012
 2244POPC   C1A30651  25.173  36.328   8.598
 2244POPC   D2A30652  25.026  36.371   8.142
 2244POPC   C3A30653  25.291  36.239   7.783
 2244POPC   C4A30654  25.360  36.382   7.336
 2244POPC   C1B30655  25.086  35.733   8.742
 2244POPC   C2B30656  25.037  35.885   8.352
 2244POPC   C3B30657  25.047  35.684   8.000
 2244POPC   C4B30658  25.276  35.760   7.624
 2245POPC   NC330659  40.272  12.627   9.651
 2245POPC   PO430660  39.761  12.995   9.847
 2245POPC   GL130661  39.831  12.833   9.391
 2245POPC   GL230662  39.703  13.085   9.203
 2245POPC   C1A30663  40.082  12.821   8.971
 2245POPC   D2A30664  40.365  12.663   8.637
 2245POPC   C3A30665  40.146  12.605   8.233
 2245POPC   C4A30666  40.157  12.781   7.841
 2245POPC   C1B30667  39.596  12.900   8.833
 2245POPC   C2B30668  39.706  12.640   8.501
 2245POPC   C3B30669  39.597  12.693   8.074
 2245POPC   C4B30670  39.676  12.753   7.657
 2246POPC   NC330671  33.428   5.500   9.775
 2246POPC   PO430672  33.240   6.067   9.667
 2246POPC   GL130673  33.168   5.975   9.228
 2246POPC   GL230674  33.326   5.647   9.162
 2246POPC   C1A30675  32.912   6.129   8.880
 2246POPC   D2A30676  32.663   5.994   8.521
 2246POPC   C3A30677  32.840   6.104   8.132
 2246POPC   C4A30678  32.768   5.999   7.721
 2246POPC   C1B30679  33.240   5.756   8.707
 2246POPC   C2B30680  33.073   5.501   8.323
 2246POPC   C3B30681  33.074   5.619   7.866
 2246POPC   C4B30682  33.292   5.978   7.672
 2247POPC   NC330683  32.027  43.030   9.748
 2247POPC   PO430684  32.355  42.725   9.232
 2247POPC   GL130685  32.182  43.131   9.206
 2247POPC   GL230686  31.913  43.291   9.320
 2247POPC   C1A30687  32.255  43.303   8.842
 2247POPC   D2A30688  32.371  43.052   8.511
 2247POPC   C3A30689  32.236  43.184   8.115
 2247POPC   C4A30690  32.367  43.057   7.732
 2247POPC   C1B30691  31.764  43.384   8.905
 2247POPC   C2B30692  31.883  43.376   8.450
 2247POPC   C3B30693  31.853  43.493   7.999
 2247POPC   C4B30694  31.904  43.266   7.619
 2248POPC   NC330695  32.107  26.590   9.934
 2248POPC   PO430696  32.218  26.113   9.526
 2248POPC   GL130697  32.126  26.104   9.114
 2248POPC   GL230698  32.369  26.383   9.099
 2248POPC   C1A30699  31.985  25.855   8.761
 2248POPC   D2A30700  32.155  25.719   8.371
 2248POPC   C3A30701  32.094  25.943   8.020
 2248POPC   C4A30702  32.336  25.953   7.687
 2248POPC   C1B30703  32.254  26.366   8.675
 2248POPC   C2B30704  32.456  26.554   8.347
 2248POPC   C3B30705  32.393  26.392   7.971
 2248POPC   C4B30706  32.086  26.439   7.687
 2249POPC   NC330707   1.618  40.293   9.566
 2249POPC   PO430708   2.198  39.896   9.578
 2249POPC   GL130709   2.106  40.104   9.191
 2249POPC   GL230710   1.741  40.102   9.121
 2249POPC   C1A30711   2.083  39.946   8.764
 2249POPC   D2A30712   2.309  40.058   8.397
 2249POPC   C3A30713   2.145  39.910   8.048
 2249POPC   C4A30714   2.230  40.139   7.721
 2249POPC   C1B30715   1.867  40.394   8.801
 2249POPC   C2B30716   1.853  40.331   8.366
 2249POPC   C3B30717   1.593  40.156   8.027
 2249POPC   C4B30718   1.745  39.987   7.636
 2250POPC   NC330719   7.488  14.686   9.416
 2250POPC   PO430720   7.167  14.057   9.586
 2250POPC   GL130721   7.292  14.270   9.214
 2250POPC   GL230722   7.077  14.572   9.117
 2250POPC   C1A30723   7.576  14.275   8.828
 2250POPC   D2A30724   7.629  14.546   8.446
 2250POPC   C3A30725   7.581  14.364   8.070
 2250POPC   C4A30726   7.453  14.104   7.763
 2250POPC   C1B30727   7.171  14.563   8.662
 2250POPC   C2B30728   7.098  14.553   8.208
 2250POPC   C3B30729   7.182  14.518   7.769
 2250POPC   C4B30730   7.398  14.437   7.358
 2251POPC   NC330731  44.324  34.426   9.423
 2251POPC   PO430732  44.804  34.879   9.464
 2251POPC   GL130733  44.917  34.748   9.071
 2251POPC   GL230734  44.613  34.573   9.034
 2251POPC   C1A30735  44.932  34.589   8.662
 2251POPC   D2A30736  44.607  34.571   8.404
 2251POPC   C3A30737  44.818  34.598   8.026
 2251POPC   C4A30738  44.690  34.665   7.631
 2251POPC   C1B30739  44.491  34.220   8.807
 2251POPC   C2B30740  44.310  34.126   8.416
 2251POPC   C3B30741  44.436  34.259   8.029
 2251POPC   C4B30742  44.409  34.080   7.663
 2252POPC   NC330743   2.071  44.215   9.253
 2252POPC   PO430744   2.082  43.816   9.731
 2252POPC   GL130745   2.155  43.721   9.181
 2252POPC   GL230746   1.972  43.876   8.858
 2252POPC   C1A30747   2.353  43.576   8.734
 2252POPC   D2A30748   2.256  43.724   8.292
 2252POPC   C3A30749   1.868  43.955   8.191
 2252POPC   C4A30750   1.631  43.884   7.814
 2252POPC   C1B30751   2.331  44.086   8.663
 2252POPC   C2B30752   2.490  44.183   8.287
 2252POPC   C3B30753   2.280  44.223   7.920
 2252POPC   C4B30754   1.848  44.346   7.808
 2253POPC   NC330755   2.572   8.776   9.501
 2253POPC   PO430756   3.060   9.206   9.491
 2253POPC   GL130757   2.861   9.042   9.157
 2253POPC   GL230758   2.828   8.700   9.066
 2253POPC   C1A30759   2.941   9.195   8.786
 2253POPC   D2A30760   2.996   9.394   8.417
 2253POPC   C3A30761   3.018   9.096   8.098
 2253POPC   C4A30762   2.870   9.216   7.714
 2253POPC   C1B30763   2.493   8.827   8.823
 2253POPC   C2B30764   2.628   8.973   8.437
 2253POPC   C3B30765   2.499   9.054   8.037
 2253POPC   C4B30766   2.434   8.946   7.637
 2254POPC   NC330767  22.490  20.327   9.377
 2254POPC   PO430768  22.901  20.883   9.660
 2254POPC   GL130769  22.802  20.718   9.199
 2254POPC   GL230770  23.108  20.553   9.088
 2254POPC   C1A30771  22.818  20.594   8.706
 2254POPC   D2A30772  22.715  20.428   8.314
 2254POPC   C3A30773  22.721  20.818   8.069
 2254POPC   C4A30774  22.889  20.838   7.681
 2254POPC   C1B30775  23.337  20.707   8.796
 2254POPC   C2B30776  23.337  20.518   8.423
 2254POPC   C3B30777  23.144  20.507   8.022
 2254POPC   C4B30778  23.388  20.742   7.716
 2255POPC   NC330779  42.157  40.135   9.326
 2255POPC   PO430780  42.675  40.382   9.085
 2255POPC   GL130781  42.540  39.930   9.019
 2255POPC   GL230782  42.179  39.835   8.901
 2255POPC   C1A30783  42.592  39.736   8.609
 2255POPC   D2A30784  42.448  40.029   8.282
 2255POPC   C3A30785  42.388  39.875   7.883
 2255POPC   C4A30786  42.088  39.697   7.635
 2255POPC   C1B30787  42.107  40.238   8.682
 2255POPC   C2B30788  42.082  40.445   8.308
 2255POPC   C3B30789  42.100  40.289   7.899
 2255POPC   C4B30790  41.796  40.328   7.581
 2256POPC   NC330791  24.613  32.446   9.816
 2256POPC   PO430792  25.226  32.176   9.558
 2256POPC   GL130793  24.954  32.107   9.166
 2256POPC   GL230794  25.092  32.392   8.973
 2256POPC   C1A30795  25.012  31.988   8.688
 2256POPC   D2A30796  25.325  32.156   8.372
 2256POPC   C3A30797  25.685  32.182   8.035
 2256POPC   C4A30798  25.606  32.118   7.559
 2256POPC   C1B30799  25.362  32.652   8.693
 2256POPC   C2B30800  25.401  32.646   8.246
 2256POPC   C3B30801  25.253  32.395   7.908
 2256POPC   C4B30802  25.247  32.468   7.516
 2257POPC   NC330803  38.182  33.895   9.593
 2257POPC   PO430804  38.624  33.480   9.466
 2257POPC   GL130805  38.439  33.766   9.162
 2257POPC   GL230806  38.148  33.590   9.141
 2257POPC   C1A30807  38.562  34.052   8.813
 2257POPC   D2A30808  38.424  34.196   8.402
 2257POPC   C3A30809  38.576  33.949   8.075
 2257POPC   C4A30810  38.737  33.672   7.790
 2257POPC   C1B30811  38.082  33.844   8.757
 2257POPC   C2B30812  38.225  33.704   8.388
 2257POPC   C3B30813  38.415  33.428   8.114
 2257POPC   C4B30814  38.271  33.495   7.727
 2258POPC   NC330815  10.143  25.155   9.503
 2258POPC   PO430816  10.778  25.174   9.562
 2258POPC   GL130817  10.591  25.183   9.125
 2258POPC   GL230818  10.287  25.405   9.095
 2258POPC   C1A30819  10.572  25.416   8.681
 2258POPC   D2A30820  10.699  25.354   8.271
 2258POPC   C3A30821  10.773  24.951   8.112
 2258POPC   C4A30822  10.656  24.750   7.743
 2258POPC   C1B30823  10.239  25.044   8.758
 2258POPC   C2B30824  10.278  24.882   8.320
 2258POPC   C3B30825  10.300  25.152   7.956
 2258POPC   C4B30826  10.443  25.615   7.926
 2259POPC   NC330827  31.405  12.409   9.529
 2259POPC   PO430828  31.593  11.761   9.612
 2259POPC   GL130829  31.581  11.978   9.224
 2259POPC   GL230830  31.207  12.031   9.205
 2259POPC   C1A30831  31.531  12.187   8.829
 2259POPC   D2A30832  31.251  12.093   8.470
 2259POPC   C3A30833  31.404  11.949   8.063
 2259POPC   C4A30834  31.645  11.971   7.672
 2259POPC   C1B30835  31.069  12.389   8.918
 2259POPC   C2B30836  31.124  12.601   8.517
 2259POPC   C3B30837  31.084  12.408   8.094
 2259POPC   C4B30838  31.237  12.263   7.692
 2260POPC   NC330839  17.990  40.389   9.563
 2260POPC   PO430840  18.020  41.063   9.553
 2260POPC   GL130841  18.263  40.863   9.251
 2260POPC   GL230842  18.179  40.589   9.144
 2260POPC   C1A30843  18.380  40.990   8.845
 2260POPC   D2A30844  18.289  40.917   8.432
 2260POPC   C3A30845  18.594  40.851   8.125
 2260POPC   C4A30846  18.540  40.651   7.727
 2260POPC   C1B30847  17.974  40.672   8.804
 2260POPC   C2B30848  17.908  40.549   8.400
 2260POPC   C3B30849  18.111  40.653   8.031
 2260POPC   C4B30850  18.069  40.492   7.653
 2261POPC   NC330851  13.550  26.408   9.560
 2261POPC   PO430852  14.140  26.285   9.297
 2261POPC   GL130853  13.704  26.194   9.115
 2261POPC   GL230854  13.453  25.893   9.144
 2261POPC   C1A30855  13.402  26.248   8.778
 2261POPC   D2A30856  13.368  26.073   8.362
 2261POPC   C3A30857  13.729  26.044   8.143
 2261POPC   C4A30858  13.855  26.113   7.740
 2261POPC   C1B30859  13.353  25.706   8.709
 2261POPC   C2B30860  13.398  25.595   8.238
 2261POPC   C3B30861  13.476  25.727   7.816
 2261POPC   C4B30862  13.381  25.443   7.467
 2262POPC   NC330863  13.866  30.086   9.461
 2262POPC   PO430864  13.230  30.101   9.310
 2262POPC   GL130865  13.555  30.130   9.049
 2262POPC   GL230866  13.712  29.771   9.066
 2262POPC   C1A30867  13.415  30.320   8.673
 2262POPC   D2A30868  13.365  30.366   8.248
 2262POPC   C3A30869  13.436  29.999   7.986
 2262POPC   C4A30870  13.318  30.145   7.589
 2262POPC   C1B30871  13.763  29.919   8.635
 2262POPC   C2B30872  14.023  29.890   8.260
 2262POPC   C3B30873  14.176  30.205   8.003
 2262POPC   C4B30874  13.837  30.187   7.707
 2263POPC   NC330875  12.896   5.934   9.433
 2263POPC   PO430876  13.273   5.358   9.473
 2263POPC   GL130877  13.060   5.559   9.143
 2263POPC   GL230878  12.666   5.523   9.201
 2263POPC   C1A30879  12.871   5.801   8.790
 2263POPC   D2A30880  13.039   6.026   8.439
 2263POPC   C3A30881  12.962   5.845   8.044
 2263POPC   C4A30882  12.917   6.023   7.651
 2263POPC   C1B30883  12.415   5.513   8.817
 2263POPC   C2B30884  12.519   5.452   8.371
 2263POPC   C3B30885  12.521   5.558   7.919
 2263POPC   C4B30886  12.575   5.712   7.452
 2264POPC   NC330887  23.257  20.638   9.551
 2264POPC   PO430888  23.875  20.682   9.557
 2264POPC   GL130889  23.690  20.621   9.159
 2264POPC   GL230890  23.533  20.315   9.250
 2264POPC   C1A30891  23.833  20.551   8.708
 2264POPC   D2A30892  24.094  20.418   8.350
 2264POPC   C3A30893  24.080  20.635   7.941
 2264POPC   C4A30894  23.845  20.512   7.579
 2264POPC   C1B30895  23.479  20.187   8.826
 2264POPC   C2B30896  23.669  20.105   8.428
 2264POPC   C3B30897  23.661  20.323   8.046
 2264POPC   C4B30898  23.424  20.240   7.707
 2265POPC   NC330899  26.324  22.337   9.518
 2265POPC   PO430900  25.692  22.026   9.494
 2265POPC   GL130901  25.865  22.309   9.210
 2265POPC   GL230902  26.120  22.090   9.110
 2265POPC   C1A30903  25.911  22.406   8.776
 2265POPC   D2A30904  25.713  22.401   8.410
 2265POPC   C3A30905  25.959  22.176   8.154
 2265POPC   C4A30906  25.939  22.450   7.856
 2265POPC   C1B30907  25.920  21.864   8.765
 2265POPC   C2B30908  26.038  21.686   8.354
 2265POPC   C3B30909  25.834  21.717   7.935
 2265POPC   C4B30910  25.767  21.809   7.463
 2266POPC   NC330911  18.018  12.259   9.711
 2266POPC   PO430912  18.592  12.388   9.329
 2266POPC   GL130913  18.375  12.093   9.060
 2266POPC   GL230914  18.013  12.023   9.185
 2266POPC   C1A30915  18.340  12.229   8.636
 2266POPC   D2A30916  18.278  12.408   8.212
 2266POPC   C3A30917  18.427  12.137   7.880
 2266POPC   C4A30918  18.573  11.862   7.547
 2266POPC   C1B30919  18.056  11.785   8.778
 2266POPC   C2B30920  18.320  11.783   8.396
 2266POPC   C3B30921  18.192  11.673   8.011
 2266POPC   C4B30922  18.055  11.842   7.620
 2267POPC   NC330923   5.223   8.718   9.449
 2267POPC   PO430924   4.651   9.141   9.313
 2267POPC   GL130925   4.969   9.004   9.107
 2267POPC   GL230926   5.255   9.191   9.219
 2267POPC   C1A30927   4.964   8.843   8.711
 2267POPC   D2A30928   4.770   8.605   8.363
 2267POPC   C3A30929   5.024   8.752   8.040
 2267POPC   C4A30930   5.285   9.077   7.876
 2267POPC   C1B30931   5.418   9.090   8.810
 2267POPC   C2B30932   5.296   9.169   8.390
 2267POPC   C3B30933   5.427   9.507   8.127
 2267POPC   C4B30934   5.346   9.625   7.703
 2268POPC   NC330935  40.153  24.853   9.358
 2268POPC   PO430936  40.020  25.529   9.443
 2268POPC   GL130937  39.730  25.480   9.100
 2268POPC   GL230938  39.700  25.131   9.145
 2268POPC   C1A30939  39.795  25.342   8.648
 2268POPC   D2A30940  40.198  25.373   8.407
 2268POPC   C3A30941  40.158  25.528   7.995
 2268POPC   C4A30942  39.794  25.554   7.791
 2268POPC   C1B30943  39.586  24.877   8.801
 2268POPC   C2B30944  39.615  24.859   8.348
 2268POPC   C3B30945  39.856  25.117   8.098
 2268POPC   C4B30946  40.140  25.050   7.786
 2269POPC   NC330947  20.298  26.903   9.500
 2269POPC   PO430948  19.763  26.440   9.478
 2269POPC   GL130949  19.673  26.754   9.189
 2269POPC   GL230950  19.983  26.911   9.082
 2269POPC   C1A30951  19.486  26.942   8.814
 2269POPC   D2A30952  19.374  26.869   8.378
 2269POPC   C3A30953  19.617  27.135   8.094
 2269POPC   C4A30954  19.796  27.083   7.689
 2269POPC   C1B30955  19.881  26.606   8.720
 2269POPC   C2B30956  19.972  26.476   8.271
 2269POPC   C3B30957  19.960  26.588   7.829
 2269POPC   C4B30958  20.267  26.502   7.475
 2270POPC   NC330959  26.269  16.212   9.484
 2270POPC   PO430960  25.922  16.792   9.666
 2270POPC   GL130961  26.103  16.672   9.274
 2270POPC   GL230962  25.862  16.393   9.203
 2270POPC   C1A30963  26.295  16.885   8.905
 2270POPC   D2A30964  26.073  17.067   8.533
 2270POPC   C3A30965  26.214  16.960   8.122
 2270POPC   C4A30966  26.000  17.016   7.730
 2270POPC   C1B30967  25.985  16.498   8.784
 2270POPC   C2B30968  26.014  16.506   8.345
 2270POPC   C3B30969  25.733  16.724   8.078
 2270POPC   C4B30970  25.628  16.678   7.635
 2271POPC   NC330971  20.467  44.758   9.707
 2271POPC   PO430972  20.830  44.203   9.406
 2271POPC   GL130973  20.527  44.560   9.209
 2271POPC   GL230974  20.603  44.938   9.256
 2271POPC   C1A30975  20.363  44.674   8.786
 2271POPC   D2A30976  20.545  44.476   8.396
 2271POPC   C3A30977  20.396  44.392   8.001
 2271POPC   C4A30978  20.630  44.424   7.637
 2271POPC   C1B30979  20.668   0.086   8.859
 2271POPC   C2B30980  20.665  44.964   8.441
 2271POPC   C3B30981  20.690  44.842   8.022
 2271POPC   C4B30982  20.600  44.927   7.608
 2272POPC   NC330983  11.367   4.957   9.531
 2272POPC   PO430984  11.712   5.523   9.448
 2272POPC   GL130985  11.483   5.268   9.063
 2272POPC   GL230986  11.176   5.053   9.074
 2272POPC   C1A30987  11.277   5.238   8.611
 2272POPC   D2A30988  11.412   5.274   8.166
 2272POPC   C3A30989  11.160   5.140   7.838
 2272POPC   C4A30990  10.996   5.440   7.545
 2272POPC   C1B30991  11.408   4.773   8.789
 2272POPC   C2B30992  11.417   4.803   8.351
 2272POPC   C3B30993  11.525   4.572   8.036
 2272POPC   C4B30994  11.326   4.667   7.658
 2273POPC   NC330995  12.753   0.862   9.454
 2273POPC   PO430996  13.054   1.338   9.912
 2273POPC   GL130997  13.051   1.285   9.413
 2273POPC   GL230998  12.928   1.577   9.252
 2273POPC   C1A30999  13.027   1.206   8.931
 2273POPC   D2A31000  12.885   1.196   8.516
 2273POPC   C3A31001  13.065   0.941   8.184
 2273POPC   C4A31002  12.960   0.962   7.749
 2273POPC   C1B31003  12.603   1.500   8.899
 2273POPC   C2B31004  12.471   1.487   8.467
 2273POPC   C3B31005  12.762   1.600   8.176
 2273POPC   C4B31006  12.755   1.427   7.819
 2274POPC   NC331007  30.221  24.793   9.440
 2274POPC   PO431008  29.823  25.316   9.683
 2274POPC   GL131009  29.829  25.279   9.237
 2274POPC   GL231010  29.944  25.559   9.041
 2274POPC   C1A31011  29.779  25.087   8.820
 2274POPC   D2A31012  29.935  25.175   8.404
 2274POPC   C3A31013  29.696  25.088   8.060
 2274POPC   C4A31014  29.746  25.053   7.631
 2274POPC   C1B31015  30.239  25.298   8.803
 2274POPC   C2B31016  30.433  25.289   8.377
 2274POPC   C3B31017  30.200  25.357   7.976
 2274POPC   C4B31018  30.032  25.519   7.603
 2275POPC   NC331019  35.838  33.970   9.522
 2275POPC   PO431020  36.488  34.096   9.434
 2275POPC   GL131021  36.246  33.998   9.083
 2275POPC   GL231022  35.931  33.830   9.059
 2275POPC   C1A31023  36.169  33.995   8.638
 2275POPC   D2A31024  36.267  33.634   8.392
 2275POPC   C3A31025  36.204  33.733   7.995
 2275POPC   C4A31026  36.008  34.042   7.745
 2275POPC   C1B31027  35.976  33.463   8.811
 2275POPC   C2B31028  35.728  33.320   8.485
 2275POPC   C3B31029  35.874  33.330   8.118
 2275POPC   C4B31030  35.792  33.568   7.748
 2276POPC   NC331031  30.168   2.484   9.484
 2276POPC   PO431032  30.115   3.208   9.643
 2276POPC   GL131033  30.049   3.027   9.189
 2276POPC   GL231034  29.812   2.712   9.170
 2276POPC   C1A31035  29.839   3.005   8.750
 2276POPC   D2A31036  29.855   2.782   8.322
 2276POPC   C3A31037  29.962   3.039   7.974
 2276POPC   C4A31038  30.243   2.980   7.646
 2276POPC   C1B31039  29.787   2.496   8.743
 2276POPC   C2B31040  29.508   2.372   8.381
 2276POPC   C3B31041  29.520   2.433   7.939
 2276POPC   C4B31042  29.869   2.609   7.698
 2277POPC   NC331043  37.098  14.676   9.407
 2277POPC   PO431044  37.152  14.022   9.582
 2277POPC   GL131045  36.863  14.222   9.228
 2277POPC   GL231046  36.636  14.562   9.212
 2277POPC   C1A31047  36.989  14.226   8.772
 2277POPC   D2A31048  37.220  14.459   8.442
 2277POPC   C3A31049  37.177  14.315   8.027
 2277POPC   C4A31050  37.172  14.483   7.615
 2277POPC   C1B31051  36.545  14.454   8.780
 2277POPC   C2B31052  36.709  14.516   8.345
 2277POPC   C3B31053  36.687  14.470   7.893
 2277POPC   C4B31054  36.699  14.504   7.464
 2278POPC   NC331055  35.584  27.763   9.327
 2278POPC   PO431056  36.119  27.458   9.598
 2278POPC   GL131057  36.104  27.643   9.192
 2278POPC   GL231058  36.228  27.990   9.152
 2278POPC   C1A31059  36.314  27.647   8.774
 2278POPC   D2A31060  36.286  27.735   8.329
 2278POPC   C3A31061  36.144  27.361   8.099
 2278POPC   C4A31062  36.030  27.318   7.672
 2278POPC   C1B31063  35.893  27.932   8.811
 2278POPC   C2B31064  35.772  27.677   8.484
 2278POPC   C3B31065  35.794  27.742   8.053
 2278POPC   C4B31066  35.707  27.837   7.634
 2279POPC   NC331067  27.995  40.521   9.277
 2279POPC   PO431068  27.622  40.070   9.676
 2279POPC   GL131069  27.691  40.070   9.227
 2279POPC   GL231070  27.949  39.807   9.182
 2279POPC   C1A31071  27.518  40.059   8.785
 2279POPC   D2A31072  27.396  39.813   8.404
 2279POPC   C3A31073  27.549  39.902   7.973
 2279POPC   C4A31074  27.730  40.269   7.732
 2279POPC   C1B31075  28.057  40.040   8.812
 2279POPC   C2B31076  28.321  40.080   8.443
 2279POPC   C3B31077  28.089  40.093   8.059
 2279POPC   C4B31078  28.053  39.879   7.674
 2280POPC   NC331079  42.526  12.246   9.384
 2280POPC   PO431080  42.164  11.693   9.422
 2280POPC   GL131081  42.174  11.779   9.015
 2280POPC   GL231082  42.527  11.832   9.064
 2280POPC   C1A31083  42.245  12.113   8.725
 2280POPC   D2A31084  42.166  12.316   8.338
 2280POPC   C3A31085  42.284  11.981   8.080
 2280POPC   C4A31086  42.342  12.039   7.692
 2280POPC   C1B31087  42.720  11.669   8.704
 2280POPC   C2B31088  42.700  11.653   8.259
 2280POPC   C3B31089  42.738  11.784   7.843
 2280POPC   C4B31090  42.485  11.638   7.434
 2281POPC   NC331091   7.823  21.531   9.514
 2281POPC   PO431092   8.484  21.364   9.436
 2281POPC   GL131093   8.194  21.504   9.132
 2281POPC   GL231094   7.940  21.257   9.079
 2281POPC   C1A31095   8.260  21.476   8.694
 2281POPC   D2A31096   8.089  21.358   8.292
 2281POPC   C3A31097   8.333  21.511   7.973
 2281POPC   C4A31098   8.349  21.490   7.528
 2281POPC   C1B31099   7.748  21.423   8.720
 2281POPC   C2B31100   7.668  21.650   8.329
 2281POPC   C3B31101   7.818  21.604   7.889
 2281POPC   C4B31102   7.988  21.194   7.771
 2282POPC   NC331103  20.676  40.143   9.466
 2282POPC   PO431104  20.747  39.563   9.490
 2282POPC   GL131105  20.500  39.736   9.176
 2282POPC   GL231106  20.794  39.884   9.039
 2282POPC   C1A31107  20.391  39.872   8.756
 2282POPC   D2A31108  20.315  40.194   8.440
 2282POPC   C3A31109  20.470  40.029   8.061
 2282POPC   C4A31110  20.378  39.806   7.692
 2282POPC   C1B31111  20.679  40.288   8.820
 2282POPC   C2B31112  20.842  40.171   8.423
 2282POPC   C3B31113  20.901  40.324   8.010
 2282POPC   C4B31114  20.780  40.152   7.627
 2283POPC   NC331115   8.448  30.578   9.533
 2283POPC   PO431116   7.886  30.976   9.500
 2283POPC   GL131117   8.194  30.873   9.180
 2283POPC   GL231118   8.235  30.537   9.080
 2283POPC   C1A31119   8.229  30.919   8.766
 2283POPC   D2A31120   7.969  30.809   8.424
 2283POPC   C3A31121   8.197  30.739   8.045
 2283POPC   C4A31122   8.221  30.995   7.692
 2283POPC   C1B31123   8.493  30.413   8.739
 2283POPC   C2B31124   8.621  30.418   8.318
 2283POPC   C3B31125   8.593  30.260   7.895
 2283POPC   C4B31126   8.476  30.560   7.610
 2284POPC   NC331127  10.635  43.521   9.649
 2284POPC   PO431128  10.206  43.999   9.646
 2284POPC   GL131129  10.310  43.861   9.211
 2284POPC   GL231130  10.636  43.707   9.178
 2284POPC   C1A31131  10.454  43.941   8.773
 2284POPC   D2A31132  10.443  44.121   8.384
 2284POPC   C3A31133  10.482  43.892   8.039
 2284POPC   C4A31134  10.669  44.114   7.747
 2284POPC   C1B31135  10.845  43.630   8.780
 2284POPC   C2B31136  10.688  43.504   8.373
 2284POPC   C3B31137  10.856  43.543   7.964
 2284POPC   C4B31138  11.024  43.766   7.650
 2285POPC   NC331139   1.393  43.512   9.363
 2285POPC   PO431140   1.116  42.891   9.652
 2285POPC   GL131141   1.305  42.973   9.259
 2285POPC   GL231142   0.992  43.138   9.139
 2285POPC   C1A31143   1.432  43.073   8.835
 2285POPC   D2A31144   1.214  43.136   8.451
 2285POPC   C3A31145   1.363  42.841   8.204
 2285POPC   C4A31146   1.365  42.993   7.836
 2285POPC   C1B31147   1.016  43.435   8.801
 2285POPC   C2B31148   0.921  43.573   8.364
 2285POPC   C3B31149   0.952  43.328   7.979
 2285POPC   C4B31150   1.182  43.450   7.590
 2286POPC   NC331151  25.532  16.960   9.456
 2286POPC   PO431152  25.361  17.596   9.472
 2286POPC   GL131153  25.268  17.589   9.060
 2286POPC   GL231154  25.243  17.236   9.099
 2286POPC   C1A31155  25.083  17.475   8.668
 2286POPC   D2A31156  24.814  17.346   8.364
 2286POPC   C3A31157  25.137  17.490   8.080
 2286POPC   C4A31158  25.290  17.553   7.684
 2286POPC   C1B31159  25.531  17.227   8.711
 2286POPC   C2B31160  25.640  17.285   8.261
 2286POPC   C3B31161  25.458  17.102   7.862
 2286POPC   C4B31162  25.595  17.169   7.415
 2287POPC   NC331163  37.349  33.446   9.509
 2287POPC   PO431164  37.710  32.843   9.497
 2287POPC   GL131165  37.532  33.074   9.173
 2287POPC   GL231166  37.749  33.277   9.177
 2287POPC   C1A31167  37.353  33.124   8.789
 2287POPC   D2A31168  37.584  33.085   8.425
 2287POPC   C3A31169  37.448  33.132   8.024
 2287POPC   C4A31170  37.591  32.925   7.652
 2287POPC   C1B31171  37.758  33.444   8.791
 2287POPC   C2B31172  37.682  33.634   8.411
 2287POPC   C3B31173  37.738  33.579   7.982
 2287POPC   C4B31174  37.767  33.415   7.558
 2288POPC   NC331175  18.614  19.668   9.445
 2288POPC   PO431176  17.983  19.506   9.557
 2288POPC   GL131177  18.192  19.651   9.188
 2288POPC   GL231178  18.109  19.952   9.062
 2288POPC   C1A31179  18.419  19.642   8.794
 2288POPC   D2A31180  18.180  19.893   8.481
 2288POPC   C3A31181  18.151  19.727   8.071
 2288POPC   C4A31182  17.971  19.832   7.684
 2288POPC   C1B31183  18.441  20.149   8.818
 2288POPC   C2B31184  18.421  20.450   8.501
 2288POPC   C3B31185  18.373  20.238   8.121
 2288POPC   C4B31186  18.435  20.058   7.744
 2289POPC   NC331187  10.383  37.409   9.631
 2289POPC   PO431188  10.810  37.818   9.537
 2289POPC   GL131189  10.537  37.708   9.202
 2289POPC   GL231190  10.408  38.026   9.174
 2289POPC   C1A31191  10.531  37.623   8.742
 2289POPC   D2A31192  10.674  37.721   8.314
 2289POPC   C3A31193  10.637  37.615   7.865
 2289POPC   C4A31194  10.957  37.502   7.532
 2289POPC   C1B31195  10.223  38.013   8.785
 2289POPC   C2B31196  10.198  37.859   8.358
 2289POPC   C3B31197  10.281  38.012   7.946
 2289POPC   C4B31198  10.205  38.148   7.528
 2290POPC   NC331199   5.207  24.072   9.134
 2290POPC   PO431200   4.882  24.395   9.641
 2290POPC   GL131201   4.953  24.526   9.182
 2290POPC   GL231202   5.316  24.579   9.174
 2290POPC   C1A31203   4.899  24.416   8.701
 2290POPC   D2A31204   5.234  24.159   8.461
 2290POPC   C3A31205   5.306  24.313   8.037
 2290POPC   C4A31206   5.011  24.512   7.756
 2290POPC   C1B31207   5.312  24.686   8.737
 2290POPC   C2B31208   5.131  24.692   8.331
 2290POPC   C3B31209   5.339  24.858   7.982
 2290POPC   C4B31210   5.345  25.000   7.555
 2291POPC   NC331211   0.470   3.697   9.604
 2291POPC   PO431212   0.717   3.090   9.470
 2291POPC   GL131213   0.485   3.404   9.195
 2291POPC   GL231214   0.615   3.782   9.129
 2291POPC   C1A31215   0.296   3.489   8.801
 2291POPC   D2A31216   0.388   3.229   8.449
 2291POPC   C3A31217   0.357   3.368   8.047
 2291POPC   C4A31218   0.620   3.163   7.780
 2291POPC   C1B31219   0.779   3.839   8.704
 2291POPC   C2B31220   0.719   3.641   8.292
 2291POPC   C3B31221   0.628   3.754   7.857
 2291POPC   C4B31222   0.435   4.003   7.536
 2292POPC   NC331223  40.893   2.513   9.360
 2292POPC   PO431224  41.165   3.130   9.488
 2292POPC   GL131225  41.018   2.985   9.102
 2292POPC   GL231226  40.668   2.878   9.076
 2292POPC   C1A31227  40.946   3.092   8.686
 2292POPC   D2A31228  40.972   2.879   8.292
 2292POPC   C3A31229  40.791   3.014   7.905
 2292POPC   C4A31230  40.558   3.069   7.511
 2292POPC   C1B31231  40.878   2.586   8.743
 2292POPC   C2B31232  41.035   2.369   8.367
 2292POPC   C3B31233  40.959   2.479   7.951
 2292POPC   C4B31234  40.701   2.558   7.611
 2293POPC   NC331235  33.977   8.974   9.664
 2293POPC   PO431236  33.538   9.326   9.346
 2293POPC   GL131237  33.729   8.959   9.123
 2293POPC   GL231238  34.086   8.890   9.181
 2293POPC   C1A31239  33.550   8.836   8.717
 2293POPC   D2A31240  33.493   8.661   8.306
 2293POPC   C3A31241  33.673   8.904   7.968
 2293POPC   C4A31242  33.737   9.182   7.629
 2293POPC   C1B31243  34.065   8.710   8.801
 2293POPC   C2B31244  34.001   8.809   8.397
 2293POPC   C3B31245  34.268   8.760   8.066
 2293POPC   C4B31246  34.074   8.794   7.664
 2294POPC   NC331247   2.449  13.402   9.449
 2294POPC   PO431248   3.143  13.642   9.443
 2294POPC   GL131249   2.852  13.592   9.133
 2294POPC   GL231250   2.566  13.815   9.138
 2294POPC   C1A31251   2.804  13.437   8.723
 2294POPC   D2A31252   2.770  13.669   8.336
 2294POPC   C3A31253   2.830  13.400   7.998
 2294POPC   C4A31254   2.955  13.481   7.621
 2294POPC   C1B31255   2.355  13.732   8.726
 2294POPC   C2B31256   2.255  13.777   8.260
 2294POPC   C3B31257   2.452  13.741   7.821
 2294POPC   C4B31258   2.589  13.733   7.357
 2295POPC   NC331259  44.760  13.370   9.708
 2295POPC   PO431260  44.471  13.943   9.453
 2295POPC   GL131261  44.782  13.732   9.215
 2295POPC   GL231262  44.721  13.364   9.192
 2295POPC   C1A31263  44.809  13.859   8.788
 2295POPC   D2A31264  44.480  13.866   8.451
 2295POPC   C3A31265  44.612  13.957   8.028
 2295POPC   C4A31266  44.672  13.808   7.605
 2295POPC   C1B31267  44.500  13.453   8.800
 2295POPC   C2B31268  44.751  13.444   8.422
 2295POPC   C3B31269  44.542  13.429   8.050
 2295POPC   C4B31270  44.574  13.326   7.648
 2296POPC   NC331271   9.811   1.067   9.411
 2296POPC   PO431272   9.932   1.672   9.541
 2296POPC   GL131273   9.701   1.490   9.129
 2296POPC   GL231274   9.554   1.155   8.996
 2296POPC   C1A31275   9.839   1.498   8.731
 2296POPC   D2A31276  10.046   1.339   8.406
 2296POPC   C3A31277   9.818   1.364   8.036
 2296POPC   C4A31278   9.919   1.387   7.616
 2296POPC   C1B31279   9.864   0.974   8.732
 2296POPC   C2B31280   9.765   0.845   8.323
 2296POPC   C3B31281   9.886   0.878   7.922
 2296POPC   C4B31282   9.588   0.933   7.575
 2297POPC   NC331283  26.971  34.889   9.594
 2297POPC   PO431284  26.720  35.493   9.503
 2297POPC   GL131285  26.871  35.299   9.163
 2297POPC   GL231286  26.575  35.312   9.047
 2297POPC   C1A31287  27.129  35.347   8.787
 2297POPC   D2A31288  27.003  35.239   8.381
 2297POPC   C3A31289  27.225  35.336   8.000
 2297POPC   C4A31290  26.980  35.382   7.634
 2297POPC   C1B31291  26.638  35.508   8.696
 2297POPC   C2B31292  26.535  35.459   8.308
 2297POPC   C3B31293  26.571  35.696   7.934
 2297POPC   C4B31294  26.493  35.569   7.532
 2298POPC   NC331295  30.238   2.929  10.001
 2298POPC   PO431296  30.634   2.787   9.487
 2298POPC   GL131297  30.540   2.842   9.105
 2298POPC   GL231298  30.888   2.882   9.055
 2298POPC   C1A31299  30.277   2.755   8.762
 2298POPC   D2A31300  30.352   2.891   8.333
 2298POPC   C3A31301  30.302   2.605   8.013
 2298POPC   C4A31302  30.609   2.601   7.724
 2298POPC   C1B31303  30.759   2.898   8.648
 2298POPC   C2B31304  30.883   2.700   8.306
 2298POPC   C3B31305  31.163   2.956   8.143
 2298POPC   C4B31306  30.875   3.030   7.837
 2299POPC   NC331307   4.834   7.011   9.499
 2299POPC   PO431308   4.970   7.647   9.469
 2299POPC   GL131309   5.113   7.559   9.093
 2299POPC   GL231310   5.224   7.221   9.117
 2299POPC   C1A31311   4.922   7.524   8.695
 2299POPC   D2A31312   4.902   7.254   8.383
 2299POPC   C3A31313   4.880   7.468   8.052
 2299POPC   C4A31314   5.080   7.334   7.709
 2299POPC   C1B31315   5.428   7.387   8.720
 2299POPC   C2B31316   5.352   7.479   8.278
 2299POPC   C3B31317   5.537   7.237   7.963
 2299POPC   C4B31318   5.499   7.078   7.576
 2300POPC   NC331319  15.192  33.205   9.319
 2300POPC   PO431320  15.474  32.671   9.444
 2300POPC   GL131321  15.244  32.828   8.991
 2300POPC   GL231322  14.859  33.086   8.979
 2300POPC   C1A31323  15.252  33.153   8.666
 2300POPC   D2A31324  15.020  33.260   8.328
 2300POPC   C3A31325  15.264  33.056   8.036
 2300POPC   C4A31326  15.405  33.146   7.649
 2300POPC   C1B31327  14.825  32.833   8.675
 2300POPC   C2B31328  14.695  32.823   8.298
 2300POPC   C3B31329  14.754  33.019   7.933
 2300POPC   C4B31330  14.979  32.815   7.617
 2301POPC   NC331331  36.911  34.301   9.476
 2301POPC   PO431332  36.639  34.930   9.380
 2301POPC   GL131333  36.940  34.661   9.125
 2301POPC   GL231334  37.227  34.348   9.080
 2301POPC   C1A31335  36.998  34.766   8.716
 2301POPC   D2A31336  36.691  34.848   8.372
 2301POPC   C3A31337  36.627  34.561   8.033
 2301POPC   C4A31338  36.688  34.605   7.558
 2301POPC   C1B31339  36.937  34.260   8.765
 2301POPC   C2B31340  36.998  34.404   8.347
 2301POPC   C3B31341  37.040  34.197   7.973
 2301POPC   C4B31342  37.073  34.267   7.524
 2302POPC   NC331343  40.999   5.782   9.502
 2302POPC   PO431344  40.553   6.344   9.375
 2302POPC   GL131345  40.862   6.091   9.106
 2302POPC   GL231346  40.814   5.688   9.054
 2302POPC   C1A31347  40.785   6.011   8.661
 2302POPC   D2A31348  40.608   5.895   8.250
 2302POPC   C3A31349  40.915   5.988   7.943
 2302POPC   C4A31350  41.102   6.118   7.557
 2302POPC   C1B31351  40.546   5.550   8.716
 2302POPC   C2B31352  40.432   5.403   8.295
 2302POPC   C3B31353  40.440   5.560   7.845
 2302POPC   C4B31354  40.794   5.686   7.557
 2303POPC   NC331355   9.337  44.571   9.464
 2303POPC   PO431356   8.693  44.576   9.496
 2303POPC   GL131357   8.886  44.608   9.125
 2303POPC   GL231358   8.705  44.879   8.978
 2303POPC   C1A31359   8.852  44.412   8.726
 2303POPC   D2A31360   8.641  44.463   8.329
 2303POPC   C3A31361   8.922  44.366   7.991
 2303POPC   C4A31362   8.906  44.494   7.578
 2303POPC   C1B31363   9.089  44.875   8.738
 2303POPC   C2B31364   9.120  44.679   8.347
 2303POPC   C3B31365   9.056  44.847   7.944
 2303POPC   C4B31366   9.194  44.885   7.492
 2304POPC   NC331367  39.987  28.105   9.490
 2304POPC   PO431368  39.840  28.756   9.498
 2304POPC   GL131369  39.812  28.474   9.144
 2304POPC   GL231370  39.613  28.135   9.134
 2304POPC   C1A31371  40.047  28.254   8.824
 2304POPC   D2A31372  40.245  28.315   8.429
 2304POPC   C3A31373  40.120  28.055   8.070
 2304POPC   C4A31374  40.197  28.281   7.683
 2304POPC   C1B31375  39.542  28.286   8.736
 2304POPC   C2B31376  39.778  28.586   8.480
 2304POPC   C3B31377  39.919  28.545   8.066
 2304POPC   C4B31378  39.708  28.350   7.734
 2305POPC   NC331379  19.826  34.157   9.462
 2305POPC   PO431380  20.000  33.545   9.487
 2305POPC   GL131381  19.721  33.759   9.134
 2305POPC   GL231382  19.635  34.129   9.009
 2305POPC   C1A31383  19.752  33.767   8.679
 2305POPC   D2A31384  20.020  33.660   8.369
 2305POPC   C3A31385  19.778  33.714   8.028
 2305POPC   C4A31386  19.846  33.697   7.605
 2305POPC   C1B31387  19.967  34.239   8.730
 2305POPC   C2B31388  20.057  34.158   8.302
 2305POPC   C3B31389  20.075  34.071   7.867
 2305POPC   C4B31390  20.050  34.124   7.405
 2306POPC   NC331391  34.104  43.427   9.867
 2306POPC   PO431392  33.701  43.834   9.607
 2306POPC   GL131393  33.855  43.966   9.211
 2306POPC   GL231394  33.617  43.769   9.058
 2306POPC   C1A31395  34.109  43.903   8.836
 2306POPC   D2A31396  34.090  44.008   8.393
 2306POPC   C3A31397  33.728  44.095   8.107
 2306POPC   C4A31398  33.751  43.944   7.670
 2306POPC   C1B31399  33.628  43.965   8.683
 2306POPC   C2B31400  33.663  43.674   8.365
 2306POPC   C3B31401  33.467  43.613   7.997
 2306POPC   C4B31402  33.607  43.446   7.623
 2307POPC   NC331403  23.398  35.298   9.441
 2307POPC   PO431404  24.030  35.492   9.321
 2307POPC   GL131405  23.790  35.382   8.992
 2307POPC   GL231406  23.492  35.619   9.045
 2307POPC   C1A31407  24.069  35.488   8.641
 2307POPC   D2A31408  24.142  35.514   8.215
 2307POPC   C3A31409  23.860  35.307   7.952
 2307POPC   C4A31410  23.942  35.399   7.517
 2307POPC   C1B31411  23.597  35.689   8.627
 2307POPC   C2B31412  23.576  35.295   8.409
 2307POPC   C3B31413  23.320  35.207   8.050
 2307POPC   C4B31414  23.489  34.996   7.708
 2308POPC   NC331415  34.286  25.122   9.620
 2308POPC   PO431416  33.653  25.329   9.513
 2308POPC   GL131417  33.939  25.242   9.156
 2308POPC   GL231418  34.060  24.885   9.211
 2308POPC   C1A31419  33.911  25.409   8.709
 2308POPC   D2A31420  33.963  25.502   8.232
 2308POPC   C3A31421  33.653  25.405   7.885
 2308POPC   C4A31422  33.639  25.597   7.463
 2308POPC   C1B31423  33.853  24.868   8.814
 2308POPC   C2B31424  33.684  25.028   8.453
 2308POPC   C3B31425  33.897  24.986   8.092
 2308POPC   C4B31426  33.735  24.868   7.736
 2309POPC   NC331427   1.924  14.220   9.516
 2309POPC   PO431428   2.193  14.827   9.695
 2309POPC   GL131429   2.112  14.613   9.242
 2309POPC   GL231430   1.806  14.467   9.087
 2309POPC   C1A31431   2.153  14.492   8.750
 2309POPC   D2A31432   2.034  14.276   8.392
 2309POPC   C3A31433   2.044  14.560   8.057
 2309POPC   C4A31434   2.028  14.470   7.635
 2309POPC   C1B31435   1.603  14.585   8.728
 2309POPC   C2B31436   1.576  14.509   8.300
 2309POPC   C3B31437   1.567  14.463   7.866
 2309POPC   C4B31438   1.552  14.472   7.441
 2310POPC   NC331439   2.337   2.777   9.225
 2310POPC   PO431440   2.916   2.570   9.473
 2310POPC   GL131441   2.832   2.792   9.089
 2310POPC   GL231442   2.635   2.531   8.917
 2310POPC   C1A31443   2.995   2.744   8.649
 2310POPC   D2A31444   3.205   2.491   8.329
 2310POPC   C3A31445   3.089   2.688   7.990
 2310POPC   C4A31446   3.187   3.132   8.073
 2310POPC   C1B31447   2.320   2.720   8.582
 2310POPC   C2B31448   2.342   2.981   8.191
 2310POPC   C3B31449   2.585   2.751   7.920
 2310POPC   C4B31450   2.342   2.390   7.972
 2311POPC   NC331451  35.050  25.757   9.509
 2311POPC   PO431452  35.572  26.164   9.620
 2311POPC   GL131453  35.365  26.100   9.217
 2311POPC   GL231454  35.659  25.922   9.141
 2311POPC   C1A31455  35.208  26.078   8.758
 2311POPC   D2A31456  35.238  25.832   8.336
 2311POPC   C3A31457  35.060  25.903   7.912
 2311POPC   C4A31458  34.962  25.699   7.481
 2311POPC   C1B31459  35.716  26.194   8.784
 2311POPC   C2B31460  35.536  26.253   8.362
 2311POPC   C3B31461  35.580  26.046   7.957
 2311POPC   C4B31462  35.761  26.109   7.527
 2312POPC   NC331463  29.574  20.889   9.576
 2312POPC   PO431464  30.155  20.696   9.644
 2312POPC   GL131465  30.073  20.699   9.227
 2312POPC   GL231466  30.013  21.055   9.176
 2312POPC   C1A31467  29.724  20.677   8.934
 2312POPC   D2A31468  29.716  20.786   8.496
 2312POPC   C3A31469  29.542  20.603   8.127
 2312POPC   C4A31470  29.812  20.592   7.770
 2312POPC   C1B31471  30.172  20.900   8.750
 2312POPC   C2B31472  30.176  20.836   8.283
 2312POPC   C3B31473  30.136  21.028   7.870
 2312POPC   C4B31474  30.329  20.834   7.508
 2313POPC   NC331475  30.086  37.160   9.518
 2313POPC   PO431476  29.482  37.122   9.491
 2313POPC   GL131477  29.729  37.139   9.164
 2313POPC   GL231478  29.866  36.784   9.236
 2313POPC   C1A31479  29.982  37.083   8.825
 2313POPC   D2A31480  30.176  36.859   8.502
 2313POPC   C3A31481  29.949  36.841   8.118
 2313POPC   C4A31482  30.114  36.889   7.707
 2313POPC   C1B31483  29.750  36.623   8.827
 2313POPC   C2B31484  29.522  36.663   8.446
 2313POPC   C3B31485  29.438  36.817   8.045
 2313POPC   C4B31486  29.603  36.612   7.716
 2314POPC   NC331487  25.859  15.312   9.632
 2314POPC   PO431488  26.454  15.114   9.731
 2314POPC   GL131489  26.038  15.108   9.222
 2314POPC   GL231490  25.734  15.292   9.137
 2314POPC   C1A31491  26.119  15.095   8.720
 2314POPC   D2A31492  26.348  14.828   8.381
 2314POPC   C3A31493  26.395  14.981   7.960
 2314POPC   C4A31494  26.023  15.087   7.731
 2314POPC   C1B31495  25.782  15.535   8.772
 2314POPC   C2B31496  25.868  15.413   8.354
 2314POPC   C3B31497  25.776  15.545   7.922
 2314POPC   C4B31498  25.866  15.483   7.456
 2315POPC   NC331499  11.280  32.810   9.512
 2315POPC   PO431500  10.869  33.355   9.360
 2315POPC   GL131501  11.057  33.262   9.045
 2315POPC   GL231502  11.025  32.897   9.076
 2315POPC   C1A31503  11.092  33.296   8.634
 2315POPC   D2A31504  11.302  33.029   8.355
 2315POPC   C3A31505  11.125  33.070   7.979
 2315POPC   C4A31506  10.970  32.889   7.623
 2315POPC   C1B31507  11.276  32.678   8.756
 2315POPC   C2B31508  11.553  32.556   8.395
 2315POPC   C3B31509  11.483  32.686   7.978
 2315POPC   C4B31510  11.496  32.994   7.640
 2316POPC   NC331511  25.536   7.071   9.420
 2316POPC   PO431512  25.494   7.629   9.636
 2316POPC   GL131513  25.343   7.649   9.176
 2316POPC   GL231514  25.270   7.330   9.095
 2316POPC   C1A31515  25.204   7.621   8.711
 2316POPC   D2A31516  25.449   7.695   8.344
 2316POPC   C3A31517  25.192   7.590   7.996
 2316POPC   C4A31518  24.844   7.722   7.757
 2316POPC   C1B31519  25.390   7.061   8.764
 2316POPC   C2B31520  25.350   7.166   8.335
 2316POPC   C3B31521  25.434   7.144   7.898
 2316POPC   C4B31522  25.228   7.183   7.480
 2317POPC   NC331523  36.569  27.648   9.464
 2317POPC   PO431524  37.263  27.678   9.550
 2317POPC   GL131525  37.018  27.735   9.185
 2317POPC   GL231526  37.084  27.449   8.966
 2317POPC   C1A31527  36.791  27.862   8.813
 2317POPC   D2A31528  36.960  27.786   8.403
 2317POPC   C3A31529  36.775  27.846   7.989
 2317POPC   C4A31530  37.027  27.571   7.733
 2317POPC   C1B31531  36.739  27.367   8.665
 2317POPC   C2B31532  36.657  27.394   8.220
 2317POPC   C3B31533  36.544  27.412   7.773
 2317POPC   C4B31534  36.798  27.210   7.453
 2318POPC   NC331535  22.421  35.495   9.523
 2318POPC   PO431536  22.950  35.089   9.418
 2318POPC   GL131537  23.024  35.308   9.071
 2318POPC   GL231538  23.297  35.141   8.946
 2318POPC   C1A31539  22.759  35.568   8.834
 2318POPC   D2A31540  22.583  35.554   8.440
 2318POPC   C3A31541  22.790  35.357   8.095
 2318POPC   C4A31542  23.001  35.607   7.813
 2318POPC   C1B31543  23.058  35.222   8.558
 2318POPC   C2B31544  23.144  35.594   8.368
 2318POPC   C3B31545  23.458  35.700   8.107
 2318POPC   C4B31546  23.486  35.523   7.691
 2319POPC   NC331547  23.822  16.398   9.519
 2319POPC   PO431548  23.640  17.051   9.475
 2319POPC   GL131549  23.516  16.732   9.167
 2319POPC   GL231550  23.815  16.523   9.027
 2319POPC   C1A31551  23.454  16.715   8.724
 2319POPC   D2A31552  23.723  16.542   8.426
 2319POPC   C3A31553  23.544  16.633   8.045
 2319POPC   C4A31554  23.500  16.999   7.896
 2319POPC   C1B31555  24.024  16.911   8.870
 2319POPC   C2B31556  24.088  17.099   8.467
 2319POPC   C3B31557  23.971  16.913   8.125
 2319POPC   C4B31558  23.935  16.796   7.738
 2320POPC   NC331559  31.370  11.404   9.777
 2320POPC   PO431560  31.533  10.764   9.558
 2320POPC   GL131561  31.491  11.088   9.202
 2320POPC   GL231562  31.421  11.464   9.239
 2320POPC   C1A31563  31.340  11.182   8.767
 2320POPC   D2A31564  31.351  10.963   8.355
 2320POPC   C3A31565  31.324  11.212   8.024
 2320POPC   C4A31566  31.464  11.515   7.754
 2320POPC   C1B31567  31.324  11.693   8.844
 2320POPC   C2B31568  31.327  11.573   8.414
 2320POPC   C3B31569  31.707  11.495   8.196
 2320POPC   C4B31570  31.957  11.619   7.861
 2321POPC   NC331571  37.301  44.826   9.462
 2321POPC   PO431572  36.726  44.402   9.565
 2321POPC   GL131573  36.773  44.747   9.274
 2321POPC   GL231574  37.025  44.556   9.149
 2321POPC   C1A31575  36.755  44.961   8.839
 2321POPC   D2A31576  36.796   0.141   8.419
 2321POPC   C3A31577  36.901  44.867   8.092
 2321POPC   C4A31578  37.070  44.711   7.708
 2321POPC   C1B31579  36.754  44.450   8.798
 2321POPC   C2B31580  36.933  44.422   8.387
 2321POPC   C3B31581  36.826  44.325   7.975
 2321POPC   C4B31582  36.540  44.615   7.824
 2322POPC   NC331583  19.981   6.352   9.387
 2322POPC   PO431584  19.870   5.654   9.486
 2322POPC   GL131585  19.754   5.897   9.137
 2322POPC   GL231586  20.001   6.042   8.952
 2322POPC   C1A31587  19.674   5.632   8.787
 2322POPC   D2A31588  19.470   5.571   8.406
 2322POPC   C3A31589  19.619   5.865   8.162
 2322POPC   C4A31590  19.859   5.937   7.819
 2322POPC   C1B31591  19.682   6.115   8.625
 2322POPC   C2B31592  19.674   6.382   8.230
 2322POPC   C3B31593  19.460   6.267   7.844
 2322POPC   C4B31594  19.554   6.146   7.402
 2323POPC   NC331595   4.988   8.064   9.631
 2323POPC   PO431596   4.762   8.669   9.585
 2323POPC   GL131597   4.891   8.382   9.204
 2323POPC   GL231598   5.152   8.078   9.159
 2323POPC   C1A31599   5.028   8.345   8.744
 2323POPC   D2A31600   5.312   8.557   8.433
 2323POPC   C3A31601   5.287   8.319   8.064
 2323POPC   C4A31602   4.845   8.259   7.961
 2323POPC   C1B31603   5.275   7.900   8.750
 2323POPC   C2B31604   5.092   7.917   8.333
 2323POPC   C3B31605   5.175   7.842   7.892
 2323POPC   C4B31606   4.919   7.784   7.516
 2324POPC   NC331607   3.691  41.209   9.385
 2324POPC   PO431608   3.307  41.682   9.639
 2324POPC   GL131609   3.530  41.792   9.236
 2324POPC   GL231610   3.896  41.673   9.226
 2324POPC   C1A31611   3.393  41.857   8.778
 2324POPC   D2A31612   3.342  41.547   8.427
 2324POPC   C3A31613   3.557  41.427   8.024
 2324POPC   C4A31614   3.273  41.725   7.758
 2324POPC   C1B31615   3.841  41.631   8.798
 2324POPC   C2B31616   3.806  41.785   8.413
 2324POPC   C3B31617   3.581  41.917   8.096
 2324POPC   C4B31618   3.808  41.788   7.718
 2325POPC   NC331619  29.931  25.739   9.509
 2325POPC   PO431620  30.103  26.492   9.456
 2325POPC   GL131621  29.852  26.167   9.250
 2325POPC   GL231622  30.148  26.051   9.099
 2325POPC   C1A31623  29.670  25.982   8.878
 2325POPC   D2A31624  29.893  26.079   8.530
 2325POPC   C3A31625  29.863  26.125   8.124
 2325POPC   C4A31626  29.887  26.202   7.691
 2325POPC   C1B31627  30.263  25.811   8.739
 2325POPC   C2B31628  30.219  25.742   8.309
 2325POPC   C3B31629  30.265  25.913   7.898
 2325POPC   C4B31630  30.249  25.964   7.429
 2326POPC   NC331631  16.188  28.255  10.012
 2326POPC   PO431632  16.032  28.301   9.365
 2326POPC   GL131633  15.787  28.202   9.042
 2326POPC   GL231634  15.642  28.541   9.083
 2326POPC   C1A31635  16.013  28.131   8.632
 2326POPC   D2A31636  16.237  28.483   8.412
 2326POPC   C3A31637  16.107  28.598   7.990
 2326POPC   C4A31638  15.903  28.310   7.705
 2326POPC   C1B31639  15.801  28.600   8.681
 2326POPC   C2B31640  15.726  28.391   8.288
 2326POPC   C3B31641  15.477  28.353   7.947
 2326POPC   C4B31642  15.417  28.505   7.552
 2327POPC   NC331643   5.582  42.983   9.534
 2327POPC   PO431644   5.130  43.497   9.585
 2327POPC   GL131645   5.165  43.192   9.236
 2327POPC   GL231646   5.257  42.851   9.154
 2327POPC   C1A31647   5.035  43.172   8.804
 2327POPC   D2A31648   5.245  43.065   8.465
 2327POPC   C3A31649   5.046  43.081   8.141
 2327POPC   C4A31650   5.055  43.342   7.825
 2327POPC   C1B31651   5.455  42.717   8.759
 2327POPC   C2B31652   5.718  42.807   8.412
 2327POPC   C3B31653   5.517  42.683   8.040
 2327POPC   C4B31654   5.286  42.824   7.689
 2328POPC   NC331655  39.116   7.348   9.548
 2328POPC   PO431656  39.706   7.020   9.450
 2328POPC   GL131657  39.461   7.320   9.192
 2328POPC   GL231658  39.439   7.697   9.316
 2328POPC   C1A31659  39.155   7.345   8.843
 2328POPC   D2A31660  39.038   7.136   8.439
 2328POPC   C3A31661  39.146   7.386   8.068
 2328POPC   C4A31662  39.525   7.326   7.844
 2328POPC   C1B31663  39.409   7.794   8.876
 2328POPC   C2B31664  39.170   7.767   8.494
 2328POPC   C3B31665  39.267   7.913   8.085
 2328POPC   C4B31666  39.292   7.752   7.684
 2329POPC   NC331667  42.835  18.700   9.436
 2329POPC   PO431668  43.264  19.197   9.568
 2329POPC   GL131669  43.420  19.024   9.165
 2329POPC   GL231670  43.050  19.002   9.096
 2329POPC   C1A31671  43.378  18.891   8.726
 2329POPC   D2A31672  43.558  18.715   8.342
 2329POPC   C3A31673  43.387  18.941   8.000
 2329POPC   C4A31674  43.467  19.158   7.636
 2329POPC   C1B31675  42.878  18.800   8.703
 2329POPC   C2B31676  43.021  18.695   8.273
 2329POPC   C3B31677  42.935  18.784   7.838
 2329POPC   C4B31678  42.599  18.936   7.615
 2330POPC   NC331679  13.112  42.456  10.090
 2330POPC   PO431680  12.873  42.114   9.559
 2330POPC   GL131681  12.763  42.078   9.167
 2330POPC   GL231682  12.417  41.999   9.206
 2330POPC   C1A31683  12.933  42.214   8.785
 2330POPC   D2A31684  12.853  42.413   8.409
 2330POPC   C3A31685  12.993  42.176   8.089
 2330POPC   C4A31686  13.156  42.401   7.808
 2330POPC   C1B31687  12.413  42.253   8.809
 2330POPC   C2B31688  12.325  42.390   8.392
 2330POPC   C3B31689  12.519  42.443   8.012
 2330POPC   C4B31690  12.327  42.315   7.661
 2331POPC   NC331691  44.547  16.529   9.322
 2331POPC   PO431692  44.300  17.087   9.537
 2331POPC   GL131693  44.385  16.990   9.121
 2331POPC   GL231694  44.744  16.943   9.089
 2331POPC   C1A31695  44.442  16.743   8.721
 2331POPC   D2A31696  44.534  16.560   8.321
 2331POPC   C3A31697  44.542  16.777   7.949
 2331POPC   C4A31698  44.410  16.883   7.517
 2331POPC   C1B31699  44.991  16.747   8.736
 2331POPC   C2B31700   0.020  16.750   8.269
 2331POPC   C3B31701   0.004  16.572   7.859
 2331POPC   C4B31702  44.679  16.437   7.551
 2332POPC   NC331703  16.940   6.828   9.514
 2332POPC   PO431704  16.650   6.259   9.570
 2332POPC   GL131705  16.755   6.473   9.183
 2332POPC   GL231706  17.073   6.325   9.106
 2332POPC   C1A31707  16.772   6.792   8.828
 2332POPC   D2A31708  16.992   6.894   8.433
 2332POPC   C3A31709  16.695   6.882   8.120
 2332POPC   C4A31710  16.662   6.869   7.687
 2332POPC   C1B31711  16.875   6.326   8.707
 2332POPC   C2B31712  16.835   6.423   8.291
 2332POPC   C3B31713  16.862   6.442   7.854
 2332POPC   C4B31714  16.614   6.399   7.513
 2333POPC   NC331715  41.062  23.438   9.603
 2333POPC   PO431716  40.748  23.974   9.522
 2333POPC   GL131717  40.786  23.657   9.229
 2333POPC   GL231718  40.492  23.653   9.129
 2333POPC   C1A31719  40.917  23.386   8.890
 2333POPC   D2A31720  41.048  23.493   8.476
 2333POPC   C3A31721  40.802  23.409   8.116
 2333POPC   C4A31722  40.828  23.512   7.699
 2333POPC   C1B31723  40.671  23.800   8.728
 2333POPC   C2B31724  40.792  23.910   8.341
 2333POPC   C3B31725  40.730  23.966   7.941
 2333POPC   C4B31726  40.540  23.929   7.565
 2334POPC   NC331727   6.948   4.571   9.417
 2334POPC   PO431728   6.440   4.222   9.415
 2334POPC   GL131729   6.475   4.480   9.117
 2334POPC   GL231730   6.761   4.277   9.018
 2334POPC   C1A31731   6.358   4.410   8.719
 2334POPC   D2A31732   6.574   4.440   8.367
 2334POPC   C3A31733   6.501   4.101   8.261
 2334POPC   C4A31734   6.299   4.061   7.903
 2334POPC   C1B31735   6.945   4.195   8.636
 2334POPC   C2B31736   6.991   4.177   8.188
 2334POPC   C3B31737   6.756   4.299   7.840
 2334POPC   C4B31738   6.862   4.438   7.419
 2335POPC   NC331739  22.344  41.902   9.455
 2335POPC   PO431740  22.163  42.543   9.536
 2335POPC   GL131741  22.006  42.403   9.152
 2335POPC   GL231742  21.883  42.089   9.120
 2335POPC   C1A31743  21.875  42.461   8.741
 2335POPC   D2A31744  22.013  42.254   8.372
 2335POPC   C3A31745  22.190  42.376   7.985
 2335POPC   C4A31746  22.592  42.582   7.814
 2335POPC   C1B31747  22.184  42.001   8.805
 2335POPC   C2B31748  22.428  41.953   8.433
 2335POPC   C3B31749  22.307  41.792   8.044
 2335POPC   C4B31750  21.994  41.881   7.746
 2336POPC   NC331751  12.485  11.667   9.490
 2336POPC   PO431752  12.688  12.307   9.528
 2336POPC   GL131753  12.855  12.236   9.137
 2336POPC   GL231754  12.861  11.880   9.170
 2336POPC   C1A31755  13.044  12.183   8.735
 2336POPC   D2A31756  12.986  11.988   8.368
 2336POPC   C3A31757  13.077  12.254   8.050
 2336POPC   C4A31758  12.759  12.188   7.789
 2336POPC   C1B31759  12.804  11.717   8.767
 2336POPC   C2B31760  12.829  11.498   8.419
 2336POPC   C3B31761  12.734  11.680   8.030
 2336POPC   C4B31762  12.857  11.709   7.615
 2337POPC   NC331763  12.876  29.761   9.418
 2337POPC   PO431764  12.762  30.330   9.685
 2337POPC   GL131765  12.734  30.288   9.181
 2337POPC   GL231766  12.616  29.956   9.027
 2337POPC   C1A31767  12.804  30.264   8.682
 2337POPC   D2A31768  12.636  29.859   8.470
 2337POPC   C3A31769  12.617  29.841   8.022
 2337POPC   C4A31770  12.833  30.174   7.794
 2337POPC   C1B31771  13.015  29.785   8.800
 2337POPC   C2B31772  13.253  29.840   8.454
 2337POPC   C3B31773  13.079  29.613   8.120
 2337POPC   C4B31774  13.035  29.720   7.699
 2338POPC   NC331775  12.659  40.073   9.562
 2338POPC   PO431776  12.896  39.440   9.699
 2338POPC   GL131777  13.006  39.771   9.331
 2338POPC   GL231778  13.274  39.636   9.145
 2338POPC   C1A31779  12.925  39.967   8.889
 2338POPC   D2A31780  12.586  39.825   8.567
 2338POPC   C3A31781  12.627  39.882   8.140
 2338POPC   C4A31782  12.713  39.910   7.705
 2338POPC   C1B31783  13.366  39.678   8.730
 2338POPC   C2B31784  13.093  39.825   8.411
 2338POPC   C3B31785  13.144  39.999   8.012
 2338POPC   C4B31786  13.233  39.799   7.635
 2339POPC   NC331787  15.394  35.977   9.426
 2339POPC   PO431788  16.039  35.801   9.508
 2339POPC   GL131789  15.915  36.093   9.197
 2339POPC   GL231790  15.875  35.770   9.014
 2339POPC   C1A31791  15.773  36.201   8.766
 2339POPC   D2A31792  15.848  35.803   8.502
 2339POPC   C3A31793  15.733  35.873   8.092
 2339POPC   C4A31794  15.968  35.844   7.754
 2339POPC   C1B31795  16.235  35.991   8.791
 2339POPC   C2B31796  16.182  36.184   8.402
 2339POPC   C3B31797  16.006  36.301   8.009
 2339POPC   C4B31798  16.339  36.210   7.729
 2340POPC   NC331799   7.647  13.868   9.549
 2340POPC   PO431800   7.315  13.280   9.633
 2340POPC   GL131801   7.358  13.538   9.242
 2340POPC   GL231802   7.111  13.786   9.160
 2340POPC   C1A31803   7.496  13.724   8.840
 2340POPC   D2A31804   7.430  13.543   8.458
 2340POPC   C3A31805   7.398  13.727   8.089
 2340POPC   C4A31806   7.478  13.574   7.700
 2340POPC   C1B31807   7.106  14.071   8.809
 2340POPC   C2B31808   7.265  14.109   8.408
 2340POPC   C3B31809   7.035  14.084   8.011
 2340POPC   C4B31810   6.991  13.778   7.685
 2341POPC   NC331811   7.262  32.762   9.546
 2341POPC   PO431812   6.815  33.112   9.551
 2341POPC   GL131813   7.153  33.062   9.149
 2341POPC   GL231814   7.539  32.903   9.138
 2341POPC   C1A31815   7.361  33.030   8.703
 2341POPC   D2A31816   7.567  33.128   8.301
 2341POPC   C3A31817   7.350  33.017   7.937
 2341POPC   C4A31818   7.081  32.783   7.642
 2341POPC   C1B31819   7.844  32.815   8.803
 2341POPC   C2B31820   8.008  32.721   8.387
 2341POPC   C3B31821   7.808  32.754   7.969
 2341POPC   C4B31822   7.776  32.974   7.554
 2342POPC   NC331823  28.196  10.577   9.508
 2342POPC   PO431824  28.753  10.958   9.413
 2342POPC   GL131825  28.411  10.765   9.082
 2342POPC   GL231826  28.044  10.654   9.038
 2342POPC   C1A31827  28.337  10.634   8.649
 2342POPC   D2A31828  28.524  10.366   8.393
 2342POPC   C3A31829  28.391  10.595   8.083
 2342POPC   C4A31830  28.404  10.449   7.724
 2342POPC   C1B31831  27.825  10.353   8.804
 2342POPC   C2B31832  28.012  10.253   8.429
 2342POPC   C3B31833  28.022  10.246   8.026
 2342POPC   C4B31834  27.846  10.508   7.798
 2343POPC   NC331835  31.528   8.560   9.576
 2343POPC   PO431836  31.679   7.886   9.600
 2343POPC   GL131837  31.636   8.030   9.222
 2343POPC   GL231838  31.377   8.241   9.203
 2343POPC   C1A31839  31.483   7.913   8.825
 2343POPC   D2A31840  31.372   8.114   8.446
 2343POPC   C3A31841  31.587   8.085   8.068
 2343POPC   C4A31842  31.620   8.454   7.786
 2343POPC   C1B31843  31.155   8.346   8.835
 2343POPC   C2B31844  31.022   8.500   8.449
 2343POPC   C3B31845  31.167   8.407   8.059
 2343POPC   C4B31846  31.092   8.502   7.661
 2344POPC   NC331847  32.682  40.587   9.488
 2344POPC   PO431848  33.113  41.018   9.435
 2344POPC   GL131849  32.857  40.865   9.115
 2344POPC   GL231850  33.041  40.583   8.985
 2344POPC   C1A31851  32.601  40.702   8.725
 2344POPC   D2A31852  32.687  40.682   8.273
 2344POPC   C3A31853  33.102  40.542   8.098
 2344POPC   C4A31854  33.230  40.576   7.669
 2344POPC   C1B31855  33.047  40.962   8.663
 2344POPC   C2B31856  33.027  41.067   8.256
 2344POPC   C3B31857  32.914  40.937   7.865
 2344POPC   C4B31858  33.084  41.101   7.513
 2345POPC   NC331859  18.125  27.995   9.511
 2345POPC   PO431860  18.662  27.620   9.519
 2345POPC   GL131861  18.315  27.608   9.218
 2345POPC   GL231862  18.380  27.917   9.064
 2345POPC   C1A31863  18.281  27.510   8.789
 2345POPC   D2A31864  18.287  27.681   8.406
 2345POPC   C3A31865  18.415  27.433   8.124
 2345POPC   C4A31866  18.306  27.559   7.720
 2345POPC   C1B31867  18.366  28.127   8.667
 2345POPC   C2B31868  18.070  28.114   8.317
 2345POPC   C3B31869  18.167  28.029   7.910
 2345POPC   C4B31870  17.898  27.895   7.594
 2346POPC   NC331871  22.395  23.243   9.489
 2346POPC   PO431872  22.915  23.019   9.768
 2346POPC   GL131873  22.960  22.980   9.291
 2346POPC   GL231874  22.631  22.984   9.134
 2346POPC   C1A31875  22.949  22.710   8.876
 2346POPC   D2A31876  22.726  22.843   8.506
 2346POPC   C3A31877  22.906  22.784   8.097
 2346POPC   C4A31878  22.998  22.706   7.683
 2346POPC   C1B31879  22.421  23.262   8.837
 2346POPC   C2B31880  22.556  23.427   8.462
 2346POPC   C3B31881  22.585  23.213   8.108
 2346POPC   C4B31882  22.649  23.070   7.731
 2347POPC   NC331883  24.627  44.238   9.394
 2347POPC   PO431884  24.681  43.593   9.492
 2347POPC   GL131885  24.449  43.758   9.152
 2347POPC   GL231886  24.166  43.511   9.124
 2347POPC   C1A31887  24.460  44.036   8.768
 2347POPC   D2A31888  24.321  43.983   8.344
 2347POPC   C3A31889  24.405  44.186   7.960
 2347POPC   C4A31890  24.427  43.936   7.610
 2347POPC   C1B31891  24.298  43.547   8.699
 2347POPC   C2B31892  24.608  43.562   8.386
 2347POPC   C3B31893  24.564  43.628   7.980
 2347POPC   C4B31894  24.739  43.469   7.611
 2348POPC   NC331895  21.186   0.200   9.664
 2348POPC   PO431896  21.431   0.729   9.348
 2348POPC   GL131897  21.265   0.537   9.022
 2348POPC   GL231898  21.170   0.210   9.144
 2348POPC   C1A31899  21.460   0.480   8.625
 2348POPC   D2A31900  21.646   0.678   8.271
 2348POPC   C3A31901  21.526   0.417   7.955
 2348POPC   C4A31902  21.341   0.437   7.547
 2348POPC   C1B31903  21.154   0.069   8.728
 2348POPC   C2B31904  21.068   0.250   8.321
 2348POPC   C3B31905  21.191   0.027   7.974
 2348POPC   C4B31906  21.531  44.962   7.683
 2349POPC   NC331907   3.159  10.791   9.582
 2349POPC   PO431908   3.580  10.286   9.457
 2349POPC   GL131909   3.478  10.602   9.207
 2349POPC   GL231910   3.154  10.462   9.175
 2349POPC   C1A31911   3.683  10.772   8.847
 2349POPC   D2A31912   3.885  10.816   8.452
 2349POPC   C3A31913   3.590  10.776   8.122
 2349POPC   C4A31914   3.685  10.513   7.845
 2349POPC   C1B31915   3.200  10.616   8.783
 2349POPC   C2B31916   3.357  10.456   8.456
 2349POPC   C3B31917   3.189  10.335   8.108
 2349POPC   C4B31918   3.222  10.413   7.689
 2350POPC   NC331919  14.492  36.872   9.668
 2350POPC   PO431920  13.943  37.127   9.411
 2350POPC   GL131921  14.305  36.980   9.173
 2350POPC   GL231922  14.657  37.026   9.030
 2350POPC   C1A31923  14.251  36.883   8.748
 2350POPC   D2A31924  14.257  37.208   8.452
 2350POPC   C3A31925  14.499  37.080   8.134
 2350POPC   C4A31926  14.341  36.864   7.792
 2350POPC   C1B31927  14.741  36.765   8.628
 2350POPC   C2B31928  14.630  36.570   8.221
 2350POPC   C3B31929  14.821  36.779   7.864
 2350POPC   C4B31930  14.693  37.141   7.562
 2351POPC   NC331931  42.405  31.628   9.535
 2351POPC   PO431932  42.552  31.108   9.117
 2351POPC   GL131933  42.241  31.439   9.066
 2351POPC   GL231934  42.289  31.772   9.070
 2351POPC   C1A31935  42.043  31.441   8.712
 2351POPC   D2A31936  42.321  31.214   8.474
 2351POPC   C3A31937  42.211  31.320   8.117
 2351POPC   C4A31938  42.284  31.238   7.723
 2351POPC   C1B31939  42.316  31.926   8.660
 2351POPC   C2B31940  42.118  31.826   8.256
 2351POPC   C3B31941  42.273  31.748   7.855
 2351POPC   C4B31942  42.721  31.793   7.818
 2352POPC   NC331943   9.125  31.533   9.413
 2352POPC   PO431944   8.647  31.006   9.454
 2352POPC   GL131945   8.981  31.112   9.134
 2352POPC   GL231946   8.769  31.386   9.088
 2352POPC   C1A31947   9.213  31.320   8.768
 2352POPC   D2A31948   9.223  31.627   8.402
 2352POPC   C3A31949   9.325  31.518   7.935
 2352POPC   C4A31950   9.201  31.364   7.483
 2352POPC   C1B31951   8.600  31.335   8.741
 2352POPC   C2B31952   8.713  31.468   8.409
 2352POPC   C3B31953   8.888  31.342   8.108
 2352POPC   C4B31954   8.735  31.429   7.736
 2353POPC   NC331955  29.280  27.393   9.363
 2353POPC   PO431956  28.700  27.763   9.661
 2353POPC   GL131957  29.006  27.799   9.224
 2353POPC   GL231958  28.982  27.502   8.966
 2353POPC   C1A31959  29.008  27.924   8.720
 2353POPC   D2A31960  29.312  27.680   8.442
 2353POPC   C3A31961  29.281  27.626   7.982
 2353POPC   C4A31962  28.990  27.841   7.699
 2353POPC   C1B31963  29.243  27.229   8.720
 2353POPC   C2B31964  29.477  27.155   8.309
 2353POPC   C3B31965  29.361  27.140   7.852
 2353POPC   C4B31966  29.179  27.400   7.512
 2354POPC   NC331967   7.359  31.107   9.340
 2354POPC   PO431968   7.750  31.584   9.649
 2354POPC   GL131969   7.562  31.576   9.234
 2354POPC   GL231970   7.770  31.329   9.167
 2354POPC   C1A31971   7.342  31.507   8.802
 2354POPC   D2A31972   7.108  31.662   8.429
 2354POPC   C3A31973   7.176  31.498   8.012
 2354POPC   C4A31974   7.565  31.625   7.817
 2354POPC   C1B31975   7.752  31.138   8.786
 2354POPC   C2B31976   7.636  31.263   8.387
 2354POPC   C3B31977   7.837  31.140   8.021
 2354POPC   C4B31978   7.717  31.165   7.600
 2355POPC   NC331979   2.214  28.083   9.514
 2355POPC   PO431980   1.726  28.569   9.501
 2355POPC   GL131981   1.830  28.304   9.229
 2355POPC   GL231982   2.153  28.437   9.159
 2355POPC   C1A31983   1.703  28.212   8.840
 2355POPC   D2A31984   1.954  28.225   8.481
 2355POPC   C3A31985   1.863  28.273   8.065
 2355POPC   C4A31986   2.097  28.059   7.715
 2355POPC   C1B31987   2.072  28.629   8.769
 2355POPC   C2B31988   2.255  28.636   8.325
 2355POPC   C3B31989   2.152  28.643   7.876
 2355POPC   C4B31990   2.175  28.648   7.412
 2356POPC   NC331991   2.777  18.235   9.454
 2356POPC   PO431992   2.128  18.205   9.492
 2356POPC   GL131993   2.389  18.354   9.120
 2356POPC   GL231994   2.763  18.430   8.990
 2356POPC   C1A31995   2.477  18.164   8.692
 2356POPC   D2A31996   2.836  18.317   8.427
 2356POPC   C3A31997   2.680  18.276   8.023
 2356POPC   C4A31998   2.492  18.435   7.633
 2356POPC   C1B31999   3.045  18.069   8.844
 2356POPC   C2B32000   3.127  17.874   8.428
 2356POPC   C3B32001   3.162  18.083   8.010
 2356POPC   C4B32002   2.954  18.228   7.602
 2357POPC   NC332003  22.241  30.224   9.632
 2357POPC   PO432004  21.833  30.681   9.811
 2357POPC   GL132005  22.059  30.702   9.363
 2357POPC   GL232006  22.357  30.483   9.219
 2357POPC   C1A32007  21.997  30.686   8.890
 2357POPC   D2A32008  21.939  30.516   8.458
 2357POPC   C3A32009  21.942  30.794   8.113
 2357POPC   C4A32010  21.979  30.629   7.730
 2357POPC   C1B32011  22.517  30.657   8.825
 2357POPC   C2B32012  22.365  30.831   8.428
 2357POPC   C3B32013  22.416  30.656   8.015
 2357POPC   C4B32014  22.391  30.304   7.719
 2358POPC   NC332015   5.431  33.872   9.801
 2358POPC   PO432016   4.739  33.890   9.752
 2358POPC   GL132017   5.119  33.873   9.381
 2358POPC   GL232018   4.953  33.691   9.146
 2358POPC   C1A32019   5.281  33.932   8.864
 2358POPC   D2A32020   5.388  34.077   8.401
 2358POPC   C3A32021   5.248  33.883   8.003
 2358POPC   C4A32022   5.168  33.655   7.623
 2358POPC   C1B32023   4.785  33.429   8.839
 2358POPC   C2B32024   4.893  33.572   8.438
 2358POPC   C3B32025   4.918  33.451   8.018
 2358POPC   C4B32026   4.804  33.310   7.598
 2359POPC   NC332027  39.270   1.762   9.436
 2359POPC   PO432028  38.905   2.346   9.311
 2359POPC   GL132029  39.035   2.033   9.088
 2359POPC   GL232030  39.417   2.088   9.084
 2359POPC   C1A32031  38.982   1.776   8.764
 2359POPC   D2A32032  39.065   1.789   8.389
 2359POPC   C3A32033  39.258   2.047   8.173
 2359POPC   C4A32034  39.287   1.765   7.831
 2359POPC   C1B32035  39.298   2.178   8.679
 2359POPC   C2B32036  38.894   2.280   8.497
 2359POPC   C3B32037  38.736   2.278   8.088
 2359POPC   C4B32038  39.065   2.281   7.777
 2360POPC   NC332039   1.355  38.207   9.597
 2360POPC   PO432040   0.789  38.561   9.596
 2360POPC   GL132041   1.002  38.321   9.246
 2360POPC   GL232042   1.346  38.339   9.112
 2360POPC   C1A32043   0.907  38.423   8.862
 2360POPC   D2A32044   1.007  38.741   8.602
 2360POPC   C3A32045   1.101  38.581   8.203
 2360POPC   C4A32046   0.984  38.757   7.807
 2360POPC   C1B32047   1.384  38.363   8.681
 2360POPC   C2B32048   1.436  38.066   8.379
 2360POPC   C3B32049   1.546  38.271   8.058
 2360POPC   C4B32050   1.276  38.354   7.752
 2361POPC   NC332051  40.482  21.632   9.478
 2361POPC   PO432052  40.821  21.061   9.476
 2361POPC   GL132053  40.938  21.286   9.140
 2361POPC   GL232054  40.990  21.612   9.265
 2361POPC   C1A32055  40.908  21.367   8.703
 2361POPC   D2A32056  41.129  21.562   8.372
 2361POPC   C3A32057  40.997  21.373   8.008
 2361POPC   C4A32058  40.741  21.257   7.674
 2361POPC   C1B32059  40.876  21.829   8.872
 2361POPC   C2B32060  40.597  21.716   8.492
 2361POPC   C3B32061  40.597  21.668   8.031
 2361POPC   C4B32062  40.901  21.732   7.649
 2362POPC   NC332063  21.795  11.781   9.494
 2362POPC   PO432064  22.529  11.900   9.602
 2362POPC   GL132065  22.180  12.091   9.273
 2362POPC   GL232066  22.057  11.853   9.032
 2362POPC   C1A32067  21.905  12.320   8.899
 2362POPC   D2A32068  21.836  12.491   8.464
 2362POPC   C3A32069  22.047  12.292   8.108
 2362POPC   C4A32070  21.862  12.212   7.716
 2362POPC   C1B32071  22.196  11.969   8.586
 2362POPC   C2B32072  22.151  11.765   8.158
 2362POPC   C3B32073  22.189  11.832   7.705
 2362POPC   C4B32074  22.511  11.852   7.374
 2363POPC   NC332075   6.051   8.397   9.438
 2363POPC   PO432076   5.428   8.189   9.599
 2363POPC   GL132077   5.644   8.195   9.163
 2363POPC   GL232078   5.962   8.057   9.080
 2363POPC   C1A32079   5.617   8.291   8.737
 2363POPC   D2A32080   5.813   8.413   8.345
 2363POPC   C3A32081   5.786   8.221   7.972
 2363POPC   C4A32082   5.548   8.092   7.660
 2363POPC   C1B32083   6.115   8.414   8.793
 2363POPC   C2B32084   6.313   8.442   8.370
 2363POPC   C3B32085   6.271   8.351   7.907
 2363POPC   C4B32086   6.155   7.946   7.750
 2364POPC   NC332087  41.538  14.787   9.433
 2364POPC   PO432088  41.634  15.510   9.440
 2364POPC   GL132089  41.416  15.257   9.148
 2364POPC   GL232090  41.359  14.915   8.986
 2364POPC   C1A32091  41.421  15.354   8.740
 2364POPC   D2A32092  41.561  15.137   8.403
 2364POPC   C3A32093  41.463  15.352   8.029
 2364POPC   C4A32094  41.628  15.438   7.612
 2364POPC   C1B32095  41.805  14.840   8.819
 2364POPC   C2B32096  41.925  14.762   8.398
 2364POPC   C3B32097  41.791  14.922   7.989
 2364POPC   C4B32098  41.945  14.744   7.628
 2365POPC   NC332099  21.711  29.581   9.419
 2365POPC   PO432100  21.171  29.996   9.505
 2365POPC   GL132101  21.231  30.126   9.098
 2365POPC   GL232102  21.514  29.925   9.111
 2365POPC   C1A32103  21.268  29.923   8.670
 2365POPC   D2A32104  21.217  29.710   8.294
 2365POPC   C3A32105  21.226  30.039   8.015
 2365POPC   C4A32106  21.103  30.198   7.645
 2365POPC   C1B32107  21.766  29.838   8.777
 2365POPC   C2B32108  21.714  29.954   8.377
 2365POPC   C3B32109  21.702  29.825   7.966
 2365POPC   C4B32110  21.523  29.899   7.616
 2366POPC   NC332111   4.140  16.869   9.863
 2366POPC   PO432112   4.555  17.119   9.401
 2366POPC   GL132113   4.524  16.891   9.068
 2366POPC   GL232114   4.372  16.618   9.241
 2366POPC   C1A32115   4.445  16.919   8.648
 2366POPC   D2A32116   4.010  16.883   8.484
 2366POPC   C3A32117   4.040  16.974   8.051
 2366POPC   C4A32118   4.431  16.857   7.916
 2366POPC   C1B32119   4.182  16.515   8.835
 2366POPC   C2B32120   4.336  16.470   8.411
 2366POPC   C3B32121   4.319  16.346   7.997
 2366POPC   C4B32122   4.159  16.536   7.603
 2367POPC   NC332123   8.330  20.238   9.536
 2367POPC   PO432124   8.259  19.580   9.453
 2367POPC   GL132125   8.274  19.785   9.080
 2367POPC   GL232126   7.917  19.758   8.931
 2367POPC   C1A32127   8.346  19.701   8.640
 2367POPC   D2A32128   8.125  19.772   8.264
 2367POPC   C3A32129   8.369  20.005   7.983
 2367POPC   C4A32130   8.585  19.912   7.565
 2367POPC   C1B32131   8.100  20.139   8.755
 2367POPC   C2B32132   8.134  20.354   8.385
 2367POPC   C3B32133   7.954  20.291   8.026
 2367POPC   C4B32134   7.867  19.917   7.799
 2368POPC   NC332135  43.645  34.868   9.540
 2368POPC   PO432136  43.923  34.206   9.401
 2368POPC   GL132137  43.897  34.601   9.162
 2368POPC   GL232138  44.188  34.835   9.122
 2368POPC   C1A32139  43.752  34.857   8.812
 2368POPC   D2A32140  43.526  34.810   8.423
 2368POPC   C3A32141  43.649  34.600   8.031
 2368POPC   C4A32142  43.708  34.732   7.580
 2368POPC   C1B32143  44.193  34.620   8.719
 2368POPC   C2B32144  44.101  34.633   8.292
 2368POPC   C3B32145  44.147  34.686   7.866
 2368POPC   C4B32146  44.208  34.558   7.470
 2369POPC   NC332147  25.787  26.148   9.344
 2369POPC   PO432148  25.103  25.910   9.511
 2369POPC   GL132149  25.312  26.004   9.182
 2369POPC   GL232150  25.266  26.358   9.262
 2369POPC   C1A32151  25.247  25.861   8.775
 2369POPC   D2A32152  25.050  26.043   8.436
 2369POPC   C3A32153  25.203  25.866   8.072
 2369POPC   C4A32154  25.528  25.844   7.758
 2369POPC   C1B32155  25.281  26.378   8.814
 2369POPC   C2B32156  25.576  26.210   8.485
 2369POPC   C3B32157  25.529  26.269   8.046
 2369POPC   C4B32158  25.120  26.346   7.851
 2370POPC   NC332159  20.602  12.447   9.525
 2370POPC   PO432160  21.043  11.796   9.390
 2370POPC   GL132161  20.809  12.128   9.153
 2370POPC   GL232162  20.452  12.165   9.141
 2370POPC   C1A32163  20.755  12.258   8.733
 2370POPC   D2A32164  20.768  12.007   8.366
 2370POPC   C3A32165  20.860  12.148   7.955
 2370POPC   C4A32166  20.668  12.003   7.583
 2370POPC   C1B32167  20.215  12.254   8.793
 2370POPC   C2B32168  20.347  12.302   8.381
 2370POPC   C3B32169  20.352  12.144   7.984
 2370POPC   C4B32170  20.540  12.480   7.706
 2371POPC   NC332171  40.391  31.420   9.582
 2371POPC   PO432172  41.109  31.563   9.612
 2371POPC   GL132173  40.931  31.353   9.269
 2371POPC   GL232174  40.627  31.523   9.155
 2371POPC   C1A32175  41.012  31.406   8.841
 2371POPC   D2A32176  40.758  31.472   8.467
 2371POPC   C3A32177  40.749  31.233   8.097
 2371POPC   C4A32178  40.896  31.369   7.730
 2371POPC   C1B32179  40.428  31.710   8.796
 2371POPC   C2B32180  40.260  31.650   8.416
 2371POPC   C3B32181  40.474  31.690   8.071
 2371POPC   C4B32182  40.730  31.867   7.791
 2372POPC   NC332183  33.273  24.091   9.468
 2372POPC   PO432184  32.963  24.648   9.760
 2372POPC   GL132185  32.921  24.575   9.247
 2372POPC   GL232186  33.094  24.332   9.067
 2372POPC   C1A32187  32.793  24.549   8.747
 2372POPC   D2A32188  32.976  24.457   8.339
 2372POPC   C3A32189  32.883  24.650   7.969
 2372POPC   C4A32190  32.689  24.583   7.615
 2372POPC   C1B32191  33.098  24.106   8.683
 2372POPC   C2B32192  33.047  23.954   8.275
 2372POPC   C3B32193  33.304  24.057   7.946
 2372POPC   C4B32194  33.342  24.490   7.797
 2373POPC   NC332195  39.649  34.490   9.388
 2373POPC   PO432196  38.995  34.287   9.430
 2373POPC   GL132197  39.193  34.589   9.171
 2373POPC   GL232198  39.440  34.411   8.938
 2373POPC   C1A32199  39.133  34.806   8.797
 2373POPC   D2A32200  39.255  34.590   8.420
 2373POPC   C3A32201  39.206  34.766   8.025
 2373POPC   C4A32202  39.277  34.539   7.655
 2373POPC   C1B32203  39.022  34.307   8.787
 2373POPC   C2B32204  38.929  34.162   8.424
 2373POPC   C3B32205  39.008  34.289   8.045
 2373POPC   C4B32206  38.862  34.166   7.697
 2374POPC   NC332207  34.849   0.155   9.570
 2374POPC   PO432208  35.550   0.419   9.402
 2374POPC   GL132209  35.411   0.510   9.030
 2374POPC   GL232210  35.062   0.557   9.127
 2374POPC   C1A32211  35.513   0.328   8.635
 2374POPC   D2A32212  35.392   0.102   8.269
 2374POPC   C3A32213  35.505   0.333   7.913
 2374POPC   C4A32214  35.555   0.643   7.623
 2374POPC   C1B32215  34.965   0.521   8.696
 2374POPC   C2B32216  35.095   0.612   8.259
 2374POPC   C3B32217  35.062   0.693   7.823
 2374POPC   C4B32218  34.791   0.931   7.580
 2375POPC   NC332219  38.931  14.850   9.511
 2375POPC   PO432220  38.948  14.178   9.264
 2375POPC   GL132221  39.000  14.545   9.096
 2375POPC   GL232222  39.324  14.476   9.033
 2375POPC   C1A32223  38.973  14.573   8.670
 2375POPC   D2A32224  39.081  14.419   8.290
 2375POPC   C3A32225  39.393  14.555   8.052
 2375POPC   C4A32226  39.283  14.595   7.603
 2375POPC   C1B32227  39.299  14.175   8.699
 2375POPC   C2B32228  39.487  14.118   8.322
 2375POPC   C3B32229  39.314  14.082   7.907
 2375POPC   C4B32230  39.332  14.110   7.446
 2376POPC   NC332231  16.370  26.254   9.480
 2376POPC   PO432232  16.949  26.376   9.339
 2376POPC   GL132233  16.663  26.223   9.035
 2376POPC   GL232234  16.522  25.950   9.112
 2376POPC   C1A32235  16.742  26.184   8.569
 2376POPC   D2A32236  17.148  26.201   8.304
 2376POPC   C3A32237  17.058  26.304   7.873
 2376POPC   C4A32238  16.748  26.165   7.561
 2376POPC   C1B32239  16.755  25.750   8.824
 2376POPC   C2B32240  16.631  25.659   8.432
 2376POPC   C3B32241  16.726  25.936   8.109
 2376POPC   C4B32242  16.966  25.788   7.813
 2377POPC   NC332243  37.191   9.083   9.377
 2377POPC   PO432244  37.842   9.129   9.526
 2377POPC   GL132245  37.811   8.800   9.217
 2377POPC   GL232246  37.604   8.989   9.053
 2377POPC   C1A32247  37.859   8.607   8.821
 2377POPC   D2A32248  38.025   8.779   8.438
 2377POPC   C3A32249  37.802   8.653   8.054
 2377POPC   C4A32250  37.881   8.830   7.678
 2377POPC   C1B32251  37.750   9.122   8.665
 2377POPC   C2B32252  37.737   9.129   8.212
 2377POPC   C3B32253  37.762   9.339   7.849
 2377POPC   C4B32254  37.340   9.530   7.810
 2378POPC   NC332255  42.483  17.727   9.394
 2378POPC   PO432256  41.928  17.294   9.604
 2378POPC   GL132257  42.111  17.410   9.196
 2378POPC   GL232258  42.407  17.282   9.093
 2378POPC   C1A32259  42.257  17.622   8.758
 2378POPC   D2A32260  42.065  17.618   8.363
 2378POPC   C3A32261  42.203  17.645   7.954
 2378POPC   C4A32262  42.438  17.569   7.587
 2378POPC   C1B32263  42.132  17.115   8.794
 2378POPC   C2B32264  41.988  17.096   8.388
 2378POPC   C3B32265  42.173  17.125   8.003
 2378POPC   C4B32266  42.024  17.274   7.634
 2379POPC   NC332267  34.944  28.081   9.833
 2379POPC   PO432268  34.612  28.569   9.633
 2379POPC   GL132269  34.560  28.285   9.244
 2379POPC   GL232270  34.223  28.223   9.133
 2379POPC   C1A32271  34.680  28.103   8.801
 2379POPC   D2A32272  34.984  28.155   8.442
 2379POPC   C3A32273  34.825  28.096   8.070
 2379POPC   C4A32274  34.664  28.150   7.684
 2379POPC   C1B32275  34.433  28.547   8.822
 2379POPC   C2B32276  34.519  28.393   8.389
 2379POPC   C3B32277  34.363  28.429   7.964
 2379POPC   C4B32278  34.329  28.524   7.499
 2380POPC   NC332279   7.300  24.848   9.433
 2380POPC   PO432280   7.624  25.427   9.522
 2380POPC   GL132281   7.418  25.297   9.177
 2380POPC   GL232282   7.692  25.040   9.144
 2380POPC   C1A32283   7.354  25.485   8.763
 2380POPC   D2A32284   7.453  25.296   8.347
 2380POPC   C3A32285   7.348  25.446   7.921
 2380POPC   C4A32286   7.184  25.455   7.493
 2380POPC   C1B32287   7.455  24.958   8.779
 2380POPC   C2B32288   7.539  24.792   8.384
 2380POPC   C3B32289   7.324  24.856   8.004
 2380POPC   C4B32290   7.360  24.978   7.619
 2381POPC   NC332291   1.411  31.417   9.820
 2381POPC   PO432292   0.889  30.980   9.602
 2381POPC   GL132293   0.983  31.416   9.343
 2381POPC   GL232294   1.314  31.592   9.319
 2381POPC   C1A32295   0.968  31.667   8.939
 2381POPC   D2A32296   1.085  31.546   8.518
 2381POPC   C3A32297   0.958  31.747   8.116
 2381POPC   C4A32298   1.101  31.632   7.734
 2381POPC   C1B32299   1.463  31.505   8.882
 2381POPC   C2B32300   1.595  31.721   8.516
 2381POPC   C3B32301   1.451  31.640   8.131
 2381POPC   C4B32302   1.608  31.775   7.762
 2382POPC   NC332303  27.459  23.452   9.602
 2382POPC   PO432304  27.570  24.075   9.668
 2382POPC   GL132305  27.567  23.797   9.237
 2382POPC   GL232306  27.619  23.412   9.133
 2382POPC   C1A32307  27.715  23.793   8.800
 2382POPC   D2A32308  27.522  23.911   8.422
 2382POPC   C3A32309  27.640  23.876   7.988
 2382POPC   C4A32310  27.841  23.518   7.744
 2382POPC   C1B32311  27.264  23.499   8.871
 2382POPC   C2B32312  27.193  23.517   8.419
 2382POPC   C3B32313  27.394  23.433   8.047
 2382POPC   C4B32314  27.347  23.568   7.630
 2383POPC   NC332315  36.684   5.658   9.508
 2383POPC   PO432316  37.361   5.809   9.539
 2383POPC   GL132317  37.075   5.717   9.193
 2383POPC   GL232318  36.872   5.967   9.052
 2383POPC   C1A32319  36.852   5.545   8.821
 2383POPC   D2A32320  36.802   5.858   8.496
 2383POPC   C3A32321  36.805   5.639   8.096
 2383POPC   C4A32322  36.711   5.725   7.664
 2383POPC   C1B32323  37.084   6.240   8.760
 2383POPC   C2B32324  37.027   6.382   8.362
 2383POPC   C3B32325  36.919   6.128   8.029
 2383POPC   C4B32326  36.956   6.170   7.602
 2384POPC   NC332327   1.699  13.390   9.490
 2384POPC   PO432328   2.226  13.839   9.540
 2384POPC   GL132329   2.008  13.762   9.166
 2384POPC   GL232330   2.115  14.070   9.042
 2384POPC   C1A32331   1.843  13.522   8.798
 2384POPC   D2A32332   1.912  13.283   8.403
 2384POPC   C3A32333   1.877  13.467   7.973
 2384POPC   C4A32334   2.025  13.625   7.555
 2384POPC   C1B32335   1.743  14.044   8.764
 2384POPC   C2B32336   1.728  13.857   8.323
 2384POPC   C3B32337   1.731  13.965   7.862
 2384POPC   C4B32338   1.687  13.978   7.395
 2385POPC   NC332339  30.806   2.354   9.412
 2385POPC   PO432340  30.256   2.091   9.738
 2385POPC   GL132341  30.346   2.048   9.277
 2385POPC   GL232342  30.619   1.986   9.064
 2385POPC   C1A32343  30.272   2.252   8.837
 2385POPC   D2A32344  30.480   2.391   8.461
 2385POPC   C3A32345  30.494   2.084   8.141
 2385POPC   C4A32346  30.545   2.077   7.706
 2385POPC   C1B32347  30.893   1.884   8.773
 2385POPC   C2B32348  30.951   1.635   8.419
 2385POPC   C3B32349  31.072   1.794   8.018
 2385POPC   C4B32350  30.971   1.832   7.575
 2386POPC   NC332351  30.670  23.910   9.573
 2386POPC   PO432352  30.909  23.297   9.677
 2386POPC   GL132353  30.672  23.510   9.230
 2386POPC   GL232354  30.486  23.841   9.120
 2386POPC   C1A32355  30.623  23.507   8.752
 2386POPC   D2A32356  30.463  23.638   8.324
 2386POPC   C3A32357  30.683  23.524   7.960
 2386POPC   C4A32358  30.998  23.725   7.742
 2386POPC   C1B32359  30.738  24.082   8.806
 2386POPC   C2B32360  30.880  24.052   8.346
 2386POPC   C3B32361  30.603  24.039   7.972
 2386POPC   C4B32362  30.224  23.781   7.856
 2387POPC   NC332363  25.408   9.470   9.651
 2387POPC   PO432364  25.315  10.086   9.727
 2387POPC   GL132365  25.523   9.926   9.300
 2387POPC   GL232366  25.558   9.575   9.180
 2387POPC   C1A32367  25.611   9.963   8.826
 2387POPC   D2A32368  25.693   9.827   8.368
 2387POPC   C3A32369  25.305   9.943   8.093
 2387POPC   C4A32370  24.995   9.799   7.752
 2387POPC   C1B32371  25.592   9.450   8.756
 2387POPC   C2B32372  25.352   9.427   8.390
 2387POPC   C3B32373  25.477   9.482   7.984
 2387POPC   C4B32374  25.478   9.718   7.659
 2388POPC   NC332375   4.402  40.782   9.599
 2388POPC   PO432376   3.723  40.778   9.540
 2388POPC   GL132377   4.100  40.915   9.235
 2388POPC   GL232378   4.140  40.629   9.121
 2388POPC   C1A32379   4.496  40.898   8.916
 2388POPC   D2A32380   4.416  41.056   8.488
 2388POPC   C3A32381   4.478  40.988   8.064
 2388POPC   C4A32382   4.188  40.958   7.756
 2388POPC   C1B32383   4.072  40.742   8.690
 2388POPC   C2B32384   4.315  40.570   8.325
 2388POPC   C3B32385   4.463  40.520   7.884
 2388POPC   C4B32386   4.396  40.526   7.426
 2389POPC   NC332387  31.723   7.408   9.583
 2389POPC   PO432388  31.080   7.491   9.739
 2389POPC   GL132389  31.356   7.518   9.249
 2389POPC   GL232390  31.547   7.178   9.170
 2389POPC   C1A32391  31.323   7.423   8.784
 2389POPC   D2A32392  31.492   7.607   8.410
 2389POPC   C3A32393  31.293   7.452   8.068
 2389POPC   C4A32394  31.414   7.558   7.669
 2389POPC   C1B32395  31.631   6.950   8.775
 2389POPC   C2B32396  31.594   7.107   8.335
 2389POPC   C3B32397  31.612   7.124   7.867
 2389POPC   C4B32398  31.561   7.032   7.434
 2390POPC   NC332399  14.038   1.673   9.571
 2390POPC   PO432400  13.544   2.084   9.602
 2390POPC   GL132401  13.632   1.848   9.248
 2390POPC   GL232402  13.968   1.954   9.144
 2390POPC   C1A32403  13.353   1.747   8.923
 2390POPC   D2A32404  13.350   1.874   8.481
 2390POPC   C3A32405  13.591   1.914   8.106
 2390POPC   C4A32406  13.473   2.145   7.743
 2390POPC   C1B32407  13.831   1.759   8.755
 2390POPC   C2B32408  13.973   1.980   8.437
 2390POPC   C3B32409  14.104   2.229   8.139
 2390POPC   C4B32410  13.984   2.163   7.739
 2391POPC   NC332411  30.058   5.135   9.526
 2391POPC   PO432412  29.430   5.298   9.593
 2391POPC   GL132413  29.650   5.454   9.211
 2391POPC   GL232414  29.889   5.211   9.056
 2391POPC   C1A32415  29.521   5.356   8.769
 2391POPC   D2A32416  29.792   5.175   8.458
 2391POPC   C3A32417  29.655   5.190   8.019
 2391POPC   C4A32418  29.918   5.347   7.687
 2391POPC   C1B32419  30.233   4.995   8.856
 2391POPC   C2B32420  30.439   5.062   8.481
 2391POPC   C3B32421  30.192   5.090   8.107
 2391POPC   C4B32422  30.112   4.781   7.794
 2392POPC   NC332423   3.109  41.209   9.761
 2392POPC   PO432424   2.469  41.518   9.663
 2392POPC   GL132425   2.741  41.726   9.288
 2392POPC   GL232426   3.055  41.609   9.137
 2392POPC   C1A32427   2.682  41.645   8.799
 2392POPC   D2A32428   2.847  41.716   8.351
 2392POPC   C3A32429   2.609  41.491   7.991
 2392POPC   C4A32430   2.774  41.810   7.701
 2392POPC   C1B32431   3.031  41.289   8.753
 2392POPC   C2B32432   2.861  41.218   8.383
 2392POPC   C3B32433   3.075  41.298   8.026
 2392POPC   C4B32434   2.938  41.324   7.646
 2393POPC   NC332435  13.212  14.252   9.791
 2393POPC   PO432436  12.900  14.693   9.364
 2393POPC   GL132437  12.757  14.543   9.024
 2393POPC   GL232438  12.655  14.256   9.065
 2393POPC   C1A32439  12.902  14.413   8.643
 2393POPC   D2A32440  13.160  14.613   8.390
 2393POPC   C3A32441  13.113  14.388   8.033
 2393POPC   C4A32442  12.826  14.472   7.711
 2393POPC   C1B32443  12.451  14.173   8.714
 2393POPC   C2B32444  12.652  14.009   8.348
 2393POPC   C3B32445  12.606  14.078   7.931
 2393POPC   C4B32446  12.493  14.142   7.499
 2394POPC   NC332447   7.423  18.883   9.558
 2394POPC   PO432448   7.266  19.497   9.369
 2394POPC   GL132449   7.267  19.118   9.122
 2394POPC   GL232450   7.597  19.069   9.094
 2394POPC   C1A32451   7.286  18.928   8.702
 2394POPC   D2A32452   7.236  19.181   8.335
 2394POPC   C3A32453   7.396  19.083   7.959
 2394POPC   C4A32454   7.187  19.006   7.603
 2394POPC   C1B32455   7.559  19.370   8.744
 2394POPC   C2B32456   7.733  19.391   8.330
 2394POPC   C3B32457   7.796  19.420   7.890
 2394POPC   C4B32458   7.704  19.193   7.532
 2395POPC   NC332459  43.631  42.479   9.573
 2395POPC   PO432460  44.188  42.101   9.559
 2395POPC   GL132461  43.911  42.268   9.209
 2395POPC   GL232462  44.056  42.593   9.164
 2395POPC   C1A32463  43.754  42.411   8.792
 2395POPC   D2A32464  43.874  42.647   8.394
 2395POPC   C3A32465  43.752  42.536   7.964
 2395POPC   C4A32466  43.464  42.744   7.676
 2395POPC   C1B32467  44.260  42.494   8.728
 2395POPC   C2B32468  44.300  42.401   8.256
 2395POPC   C3B32469  44.226  42.382   7.786
 2395POPC   C4B32470  44.282  42.120   7.409
 2396POPC   NC332471  15.367   6.162   9.859
 2396POPC   PO432472  15.406   6.705   9.406
 2396POPC   GL132473  15.199   6.700   9.047
 2396POPC   GL232474  14.918   6.881   9.039
 2396POPC   C1A32475  15.369   6.864   8.682
 2396POPC   D2A32476  15.304   7.087   8.305
 2396POPC   C3A32477  15.387   6.737   8.015
 2396POPC   C4A32478  15.179   6.706   7.617
 2396POPC   C1B32479  14.807   6.831   8.662
 2396POPC   C2B32480  14.988   6.702   8.331
 2396POPC   C3B32481  14.899   6.932   7.979
 2396POPC   C4B32482  14.524   7.072   7.809
 2397POPC   NC332483   8.434  42.810   9.455
 2397POPC   PO432484   7.789  42.905   9.719
 2397POPC   GL132485   8.028  42.994   9.242
 2397POPC   GL232486   8.109  43.269   9.072
 2397POPC   C1A32487   8.239  42.835   8.825
 2397POPC   D2A32488   8.405  42.964   8.432
 2397POPC   C3A32489   8.235  42.833   8.022
 2397POPC   C4A32490   8.356  42.750   7.593
 2397POPC   C1B32491   7.828  43.122   8.736
 2397POPC   C2B32492   7.945  43.154   8.315
 2397POPC   C3B32493   7.993  43.296   7.908
 2397POPC   C4B32494   7.994  43.089   7.572
 2398POPC   NC332495  44.418  36.168   9.580
 2398POPC   PO432496  44.932  36.287   9.221
 2398POPC   GL132497  44.601  36.028   9.116
 2398POPC   GL232498  44.294  36.207   9.097
 2398POPC   C1A32499  44.532  35.979   8.705
 2398POPC   D2A32500  44.759  35.996   8.361
 2398POPC   C3A32501  44.552  35.899   8.008
 2398POPC   C4A32502  44.820  36.037   7.685
 2398POPC   C1B32503  44.483  36.480   8.820
 2398POPC   C2B32504  44.582  36.487   8.410
 2398POPC   C3B32505  44.519  36.425   7.969
 2398POPC   C4B32506  44.281  36.183   7.680
 2399POPC   NC332507  44.105  12.616   9.760
 2399POPC   PO432508  44.654  12.963   9.523
 2399POPC   GL132509  44.786  12.826   9.118
 2399POPC   GL232510  44.661  12.505   9.146
 2399POPC   C1A32511  44.780  13.041   8.738
 2399POPC   D2A32512  44.453  13.043   8.413
 2399POPC   C3A32513  44.634  12.864   8.087
 2399POPC   C4A32514  44.632  12.836   7.685
 2399POPC   C1B32515  44.454  12.639   8.720
 2399POPC   C2B32516  44.274  12.548   8.275
 2399POPC   C3B32517  44.463  12.403   7.860
 2399POPC   C4B32518  44.533  12.446   7.366
 2400POPC   NC332519  30.225  30.283   9.582
 2400POPC   PO432520  29.691  30.000   9.534
 2400POPC   GL132521  29.796  29.857   9.067
 2400POPC   GL232522  30.132  29.723   9.069
 2400POPC   C1A32523  29.802  29.945   8.570
 2400POPC   D2A32524  29.832  30.169   8.152
 2400POPC   C3A32525  29.804  29.977   7.745
 2400POPC   C4A32526  29.684  30.012   7.298
 2400POPC   C1B32527  30.269  29.763   8.647
 2400POPC   C2B32528  30.175  29.768   8.207
 2400POPC   C3B32529  30.297  29.839   7.781
 2400POPC   C4B32530  30.060  29.650   7.438
 2401POPC   NC332531  34.444  37.406   9.387
 2401POPC   PO432532  34.888  37.863   9.477
 2401POPC   GL132533  34.657  37.767   9.120
 2401POPC   GL232534  34.416  38.039   9.107
 2401POPC   C1A32535  34.759  37.494   8.757
 2401POPC   D2A32536  34.833  37.613   8.335
 2401POPC   C3A32537  34.512  37.421   8.118
 2401POPC   C4A32538  34.293  37.550   7.779
 2401POPC   C1B32539  34.576  37.959   8.678
 2401POPC   C2B32540  34.431  37.951   8.290
 2401POPC   C3B32541  34.618  37.940   7.935
 2401POPC   C4B32542  34.622  37.853   7.496
 2402POPC   NC332543  25.385  39.000   9.450
 2402POPC   PO432544  25.065  39.661   9.530
 2402POPC   GL132545  25.211  39.383   9.158
 2402POPC   GL232546  25.083  39.072   8.981
 2402POPC   C1A32547  25.175  39.496   8.719
 2402POPC   D2A32548  25.351  39.282   8.386
 2402POPC   C3A32549  25.127  39.328   8.033
 2402POPC   C4A32550  24.969  39.293   7.623
 2402POPC   C1B32551  25.531  39.059   8.808
 2402POPC   C2B32552  25.650  38.820   8.402
 2402POPC   C3B32553  25.592  39.043   7.989
 2402POPC   C4B32554  25.460  39.094   7.545
 2403POPC   NC332555  26.721  16.944   9.467
 2403POPC   PO432556  27.100  16.504   9.681
 2403POPC   GL132557  26.981  16.554   9.236
 2403POPC   GL232558  26.632  16.483   9.241
 2403POPC   C1A32559  26.859  16.772   8.846
 2403POPC   D2A32560  27.028  16.820   8.445
 2403POPC   C3A32561  26.758  16.979   8.140
 2403POPC   C4A32562  26.575  16.788   7.793
 2403POPC   C1B32563  26.501  16.385   8.835
 2403POPC   C2B32564  26.539  16.584   8.438
 2403POPC   C3B32565  26.453  16.373   8.060
 2403POPC   C4B32566  26.118  16.508   7.800
 2404POPC   NC332567  21.780  24.012   9.533
 2404POPC   PO432568  22.484  23.723   9.559
 2404POPC   GL132569  22.311  23.649   9.173
 2404POPC   GL232570  22.027  23.769   9.180
 2404POPC   C1A32571  22.369  23.790   8.770
 2404POPC   D2A32572  22.540  23.967   8.406
 2404POPC   C3A32573  22.348  23.760   8.078
 2404POPC   C4A32574  22.395  23.533   7.739
 2404POPC   C1B32575  21.926  24.048   8.881
 2404POPC   C2B32576  21.963  23.943   8.462
 2404POPC   C3B32577  21.854  23.942   8.036
 2404POPC   C4B32578  21.896  23.557   7.785
 2405POPC   NC332579  27.151  18.449   9.577
 2405POPC   PO432580  27.831  18.356   9.440
 2405POPC   GL132581  27.476  18.333   9.177
 2405POPC   GL232582  27.454  17.987   9.122
 2405POPC   C1A32583  27.464  18.332   8.739
 2405POPC   D2A32584  27.517  18.157   8.355
 2405POPC   C3A32585  27.567  18.509   8.091
 2405POPC   C4A32586  27.421  18.482   7.689
 2405POPC   C1B32587  27.825  17.950   8.796
 2405POPC   C2B32588  28.049  17.977   8.383
 2405POPC   C3B32589  27.877  18.101   7.971
 2405POPC   C4B32590  27.842  18.013   7.522
 2406POPC   NC332591  33.355  15.184   9.547
 2406POPC   PO432592  32.786  15.413   9.706
 2406POPC   GL132593  32.760  15.224   9.244
 2406POPC   GL232594  33.038  15.078   9.144
 2406POPC   C1A32595  32.726  15.146   8.743
 2406POPC   D2A32596  32.893  15.077   8.299
 2406POPC   C3A32597  32.783  15.117   7.814
 2406POPC   C4A32598  32.860  15.491   7.540
 2406POPC   C1B32599  33.187  14.938   8.728
 2406POPC   C2B32600  33.234  14.713   8.328
 2406POPC   C3B32601  33.245  14.935   7.934
 2406POPC   C4B32602  33.237  15.123   7.523
 2407POPC   NC332603  20.303  40.677   9.442
 2407POPC   PO432604  20.093  41.256   9.392
 2407POPC   GL132605  19.915  40.914   9.146
 2407POPC   GL232606  19.869  40.534   9.159
 2407POPC   C1A32607  19.730  40.886   8.742
 2407POPC   D2A32608  19.547  40.707   8.372
 2407POPC   C3A32609  19.770  40.753   7.993
 2407POPC   C4A32610  19.798  40.478   7.688
 2407POPC   C1B32611  20.174  40.580   8.803
 2407POPC   C2B32612  20.100  40.704   8.400
 2407POPC   C3B32613  20.254  40.522   8.032
 2407POPC   C4B32614  20.265  40.294   7.662
 2408POPC   NC332615   3.046  28.718   9.545
 2408POPC   PO432616   2.640  28.175   9.411
 2408POPC   GL132617   2.950  28.174   9.102
 2408POPC   GL232618   2.893  28.537   9.089
 2408POPC   C1A32619   2.984  28.278   8.658
 2408POPC   D2A32620   2.782  28.566   8.387
 2408POPC   C3A32621   2.956  28.517   8.005
 2408POPC   C4A32622   3.006  28.142   7.736
 2408POPC   C1B32623   2.531  28.413   8.818
 2408POPC   C2B32624   2.460  28.167   8.451
 2408POPC   C3B32625   2.485  28.251   8.017
 2408POPC   C4B32626   2.568  28.378   7.610
 2409POPC   NC332627  42.815   5.764   9.485
 2409POPC   PO432628  42.163   5.636   9.426
 2409POPC   GL132629  42.317   5.910   9.105
 2409POPC   GL232630  42.660   5.911   9.042
 2409POPC   C1A32631  42.314   5.911   8.655
 2409POPC   D2A32632  42.104   5.806   8.317
 2409POPC   C3A32633  42.217   5.828   7.932
 2409POPC   C4A32634  42.090   5.564   7.629
 2409POPC   C1B32635  42.797   6.067   8.677
 2409POPC   C2B32636  42.718   5.870   8.280
 2409POPC   C3B32637  42.706   5.859   7.819
 2409POPC   C4B32638  42.492   5.806   7.454
 2410POPC   NC332639  30.208  27.025   9.429
 2410POPC   PO432640  30.786  26.721   9.626
 2410POPC   GL132641  30.659  26.841   9.199
 2410POPC   GL232642  30.350  26.668   9.050
 2410POPC   C1A32643  30.753  26.741   8.761
 2410POPC   D2A32644  30.507  26.705   8.383
 2410POPC   C3A32645  30.704  26.709   7.988
 2410POPC   C4A32646  31.070  26.858   7.765
 2410POPC   C1B32647  30.335  27.048   8.760
 2410POPC   C2B32648  30.472  27.221   8.345
 2410POPC   C3B32649  30.336  27.116   7.901
 2410POPC   C4B32650  30.520  26.881   7.549
 2411POPC   NC332651   2.848  27.744   9.433
 2411POPC   PO432652   3.087  27.149   9.114
 2411POPC   GL132653   2.912  27.593   8.962
 2411POPC   GL232654   2.546  27.810   9.039
 2411POPC   C1A32655   2.796  27.805   8.588
 2411POPC   D2A32656   2.908  28.023   8.213
 2411POPC   C3A32657   3.024  27.680   7.935
 2411POPC   C4A32658   2.800  27.294   7.843
 2411POPC   C1B32659   2.450  27.421   8.828
 2411POPC   C2B32660   2.569  27.334   8.417
 2411POPC   C3B32661   2.520  27.658   8.112
 2411POPC   C4B32662   2.315  27.474   7.780
 2412POPC   NC332663  43.430   5.714   9.712
 2412POPC   PO432664  42.982   6.204   9.502
 2412POPC   GL132665  43.136   6.100   9.122
 2412POPC   GL232666  43.273   5.795   9.221
 2412POPC   C1A32667  43.306   6.087   8.715
 2412POPC   D2A32668  43.426   5.999   8.302
 2412POPC   C3A32669  43.162   6.048   7.944
 2412POPC   C4A32670  42.947   6.384   7.740
 2412POPC   C1B32671  43.073   5.649   8.851
 2412POPC   C2B32672  43.126   5.578   8.409
 2412POPC   C3B32673  42.964   5.473   8.008
 2412POPC   C4B32674  43.065   5.580   7.574
 2413POPC   NC332675  41.192   9.626   9.664
 2413POPC   PO432676  41.802   9.908   9.752
 2413POPC   GL132677  41.630   9.759   9.306
 2413POPC   GL232678  41.883   9.541   9.196
 2413POPC   C1A32679  41.581   9.777   8.814
 2413POPC   D2A32680  41.332   9.687   8.418
 2413POPC   C3A32681  41.295   9.978   8.062
 2413POPC   C4A32682  41.295   9.894   7.634
 2413POPC   C1B32683  41.944   9.367   8.793
 2413POPC   C2B32684  41.862   9.552   8.394
 2413POPC   C3B32685  41.642   9.630   7.983
 2413POPC   C4B32686  41.658   9.554   7.539
 2414POPC   NC332687  39.461  16.335   9.362
 2414POPC   PO432688  39.393  16.935   9.590
 2414POPC   GL132689  39.237  16.811   9.211
 2414POPC   GL232690  38.930  16.777   9.309
 2414POPC   C1A32691  39.366  16.635   8.808
 2414POPC   D2A32692  39.483  16.372   8.487
 2414POPC   C3A32693  39.594  16.522   8.072
 2414POPC   C4A32694  39.458  16.731   7.673
 2414POPC   C1B32695  38.888  16.853   8.836
 2414POPC   C2B32696  39.016  16.694   8.424
 2414POPC   C3B32697  39.064  16.758   7.977
 2414POPC   C4B32698  38.965  16.559   7.498
 2415POPC   NC332699  19.389  35.605   9.371
 2415POPC   PO432700  18.919  35.101   9.451
 2415POPC   GL132701  19.006  35.307   9.106
 2415POPC   GL232702  19.309  35.209   9.049
 2415POPC   C1A32703  19.053  35.488   8.696
 2415POPC   D2A32704  19.103  35.834   8.439
 2415POPC   C3A32705  19.080  35.561   8.104
 2415POPC   C4A32706  19.081  35.428   7.692
 2415POPC   C1B32707  19.173  34.979   8.700
 2415POPC   C2B32708  19.160  35.118   8.330
 2415POPC   C3B32709  19.088  35.005   7.968
 2415POPC   C4B32710  19.265  34.933   7.620
 2416POPC   NC332711   0.254  34.792   9.448
 2416POPC   PO432712   0.744  35.219   9.473
 2416POPC   GL132713   0.552  35.458   9.168
 2416POPC   GL232714   0.256  35.233   9.144
 2416POPC   C1A32715   0.414  35.530   8.742
 2416POPC   D2A32716   0.277  35.350   8.360
 2416POPC   C3A32717   0.551  35.500   8.075
 2416POPC   C4A32718   0.499  35.738   7.709
 2416POPC   C1B32719   0.054  35.114   8.755
 2416POPC   C2B32720  44.881  34.999   8.362
 2416POPC   C3B32721   0.017  35.103   7.975
 2416POPC   C4B32722   0.321  35.263   7.691
 2417POPC   NC332723  14.065  16.975   9.492
 2417POPC   PO432724  13.559  16.535   9.715
 2417POPC   GL132725  13.686  16.698   9.269
 2417POPC   GL232726  13.378  16.681   9.178
 2417POPC   C1A32727  13.824  16.707   8.823
 2417POPC   D2A32728  13.590  16.697   8.417
 2417POPC   C3A32729  13.800  16.713   8.038
 2417POPC   C4A32730  13.833  16.485   7.639
 2417POPC   C1B32731  13.293  16.841   8.810
 2417POPC   C2B32732  13.431  17.179   8.550
 2417POPC   C3B32733  13.554  17.196   8.107
 2417POPC   C4B32734  13.580  16.970   7.676
 2418POPC   NC332735   4.866  33.467   9.591
 2418POPC   PO432736   5.087  32.826   9.550
 2418POPC   GL132737   4.924  33.010   9.197
 2418POPC   GL232738   5.173  33.238   9.182
 2418POPC   C1A32739   5.019  32.939   8.760
 2418POPC   D2A32740   5.165  33.080   8.374
 2418POPC   C3A32741   5.009  32.959   7.978
 2418POPC   C4A32742   5.186  32.680   7.710
 2418POPC   C1B32743   5.283  33.389   8.781
 2418POPC   C2B32744   5.377  33.530   8.347
 2418POPC   C3B32745   5.429  33.309   7.983
 2418POPC   C4B32746   5.313  33.180   7.603
 2419POPC   NC332747  28.632  35.226   9.578
 2419POPC   PO432748  28.168  35.712   9.747
 2419POPC   GL132749  28.211  35.442   9.330
 2419POPC   GL232750  28.546  35.423   9.145
 2419POPC   C1A32751  28.131  35.475   8.853
 2419POPC   D2A32752  27.928  35.349   8.445
 2419POPC   C3A32753  28.149  35.387   8.046
 2419POPC   C4A32754  28.123  35.220   7.648
 2419POPC   C1B32755  28.634  35.252   8.753
 2419POPC   C2B32756  28.735  35.380   8.358
 2419POPC   C3B32757  28.672  35.296   7.948
 2419POPC   C4B32758  28.556  35.495   7.592
 2420POPC   NC332759  44.956  40.411   9.503
 2420POPC   PO432760  44.719  39.785   9.675
 2420POPC   GL132761  44.620  39.858   9.222
 2420POPC   GL232762  44.319  39.691   9.198
 2420POPC   C1A32763  44.693  40.011   8.772
 2420POPC   D2A32764  44.783  39.917   8.315
 2420POPC   C3A32765  44.907  40.136   7.961
 2420POPC   C4A32766  44.911  40.041   7.511
 2420POPC   C1B32767  44.228  39.801   8.802
 2420POPC   C2B32768  44.435  39.622   8.492
 2420POPC   C3B32769  44.286  39.786   8.127
 2420POPC   C4B32770  44.507  39.860   7.791
 2421POPC   NC332771  40.592  13.912   9.447
 2421POPC   PO432772  40.483  14.484   9.595
 2421POPC   GL132773  40.686  14.365   9.175
 2421POPC   GL232774  40.901  14.053   9.087
 2421POPC   C1A32775  40.538  14.369   8.734
 2421POPC   D2A32776  40.674  14.275   8.304
 2421POPC   C3A32777  40.749  14.629   8.040
 2421POPC   C4A32778  41.044  14.709   7.719
 2421POPC   C1B32779  41.039  14.234   8.763
 2421POPC   C2B32780  41.203  14.123   8.376
 2421POPC   C3B32781  41.124  14.278   7.970
 2421POPC   C4B32782  41.024  14.241   7.496
 2422POPC   NC332783  37.148  35.031   9.462
 2422POPC   PO432784  36.747  35.524   9.685
 2422POPC   GL132785  36.836  35.513   9.202
 2422POPC   GL232786  36.898  35.190   9.028
 2422POPC   C1A32787  36.589  35.523   8.786
 2422POPC   D2A32788  36.511  35.320   8.412
 2422POPC   C3A32789  36.841  35.349   8.090
 2422POPC   C4A32790  36.760  35.529   7.680
 2422POPC   C1B32791  37.003  35.263   8.593
 2422POPC   C2B32792  37.183  34.970   8.280
 2422POPC   C3B32793  37.014  34.853   7.936
 2422POPC   C4B32794  36.975  35.063   7.579
 2423POPC   NC332795  17.337   4.524   9.499
 2423POPC   PO432796  17.917   4.114   9.445
 2423POPC   GL132797  17.656   4.290   9.158
 2423POPC   GL232798  17.356   4.087   9.245
 2423POPC   C1A32799  17.474   4.395   8.764
 2423POPC   D2A32800  17.549   4.234   8.366
 2423POPC   C3A32801  17.475   4.424   7.989
 2423POPC   C4A32802  17.868   4.391   7.846
 2423POPC   C1B32803  17.135   3.964   8.885
 2423POPC   C2B32804  17.227   3.853   8.474
 2423POPC   C3B32805  17.142   4.006   8.059
 2423POPC   C4B32806  17.038   3.906   7.637
 2424POPC   NC332807  40.101  30.320   9.696
 2424POPC   PO432808  40.347  30.918   9.556
 2424POPC   GL132809  40.186  30.725   9.164
 2424POPC   GL232810  40.252  30.377   9.128
 2424POPC   C1A32811  39.983  30.866   8.761
 2424POPC   D2A32812  39.855  31.039   8.378
 2424POPC   C3A32813  39.925  30.853   7.974
 2424POPC   C4A32814  39.748  30.823   7.602
 2424POPC   C1B32815  39.952  30.356   8.747
 2424POPC   C2B32816  39.817  30.518   8.351
 2424POPC   C3B32817  39.778  30.364   7.913
 2424POPC   C4B32818  39.589  30.356   7.495
 2425POPC   NC332819   7.278  30.254   9.592
 2425POPC   PO432820   7.557  29.712   9.338
 2425POPC   GL132821   7.277  29.959   9.157
 2425POPC   GL232822   7.447  30.172   9.023
 2425POPC   C1A32823   7.129  29.869   8.737
 2425POPC   D2A32824   7.274  29.670   8.354
 2425POPC   C3A32825   7.127  29.911   8.019
 2425POPC   C4A32826   7.264  29.986   7.589
 2425POPC   C1B32827   7.643  29.878   8.721
 2425POPC   C2B32828   7.804  29.858   8.342
 2425POPC   C3B32829   7.677  29.927   7.950
 2425POPC   C4B32830   7.839  29.864   7.561
 2426POPC   NC332831   0.929   8.394   9.449
 2426POPC   PO432832   1.452   8.020   9.484
 2426POPC   GL132833   1.286   8.162   9.105
 2426POPC   GL232834   0.963   8.121   9.036
 2426POPC   C1A32835   1.234   8.389   8.696
 2426POPC   D2A32836   1.135   8.589   8.299
 2426POPC   C3A32837   1.351   8.319   7.996
 2426POPC   C4A32838   1.428   8.218   7.588
 2426POPC   C1B32839   0.827   7.982   8.660
 2426POPC   C2B32840   0.992   8.075   8.271
 2426POPC   C3B32841   0.926   8.015   7.833
 2426POPC   C4B32842   0.774   7.767   7.491
 2427POPC   NC332843   6.360  33.037   9.538
 2427POPC   PO432844   6.853  32.477   9.498
 2427POPC   GL132845   6.678  32.817   9.164
 2427POPC   GL232846   6.598  33.236   9.121
 2427POPC   C1A32847   6.826  32.968   8.761
 2427POPC   D2A32848   7.018  32.759   8.442
 2427POPC   C3A32849   6.858  32.905   8.091
 2427POPC   C4A32850   6.592  32.686   7.826
 2427POPC   C1B32851   6.565  33.437   8.705
 2427POPC   C2B32852   6.557  33.317   8.265
 2427POPC   C3B32853   6.517  33.547   7.888
 2427POPC   C4B32854   6.286  33.494   7.515
 2428POPC   NC332855  19.819   6.747   9.876
 2428POPC   PO432856  19.663   6.661   9.230
 2428POPC   GL132857  19.804   6.510   8.920
 2428POPC   GL232858  19.534   6.582   8.742
 2428POPC   C1A32859  20.052   6.450   8.573
 2428POPC   D2A32860  20.306   6.713   8.341
 2428POPC   C3A32861  20.247   6.697   7.900
 2428POPC   C4A32862  19.942   6.437   7.684
 2428POPC   C1B32863  19.791   6.905   8.576
 2428POPC   C2B32864  19.657   6.975   8.207
 2428POPC   C3B32865  19.534   6.758   7.862
 2428POPC   C4B32866  19.600   6.714   7.436
 2429POPC   NC332867   5.763   0.016   9.541
 2429POPC   PO432868   5.631  44.354   9.464
 2429POPC   GL132869   5.842  44.486   9.101
 2429POPC   GL232870   5.715  44.806   9.077
 2429POPC   C1A32871   5.825  44.617   8.650
 2429POPC   D2A32872   5.987  44.827   8.365
 2429POPC   C3A32873   5.927  44.601   8.057
 2429POPC   C4A32874   5.910  44.479   7.714
 2429POPC   C1B32875   5.626   0.090   8.681
 2429POPC   C2B32876   5.564   0.075   8.235
 2429POPC   C3B32877   5.625  44.943   7.810
 2429POPC   C4B32878   5.685   0.167   7.396
 2430POPC   NC332879  14.595  36.550   9.244
 2430POPC   PO432880  14.445  36.005   9.574
 2430POPC   GL132881  14.236  35.914   9.188
 2430POPC   GL232882  14.259  36.230   9.026
 2430POPC   C1A32883  14.192  35.803   8.727
 2430POPC   D2A32884  14.338  36.104   8.446
 2430POPC   C3A32885  14.308  36.179   8.050
 2430POPC   C4A32886  14.478  36.372   7.741
 2430POPC   C1B32887  14.019  36.416   8.683
 2430POPC   C2B32888  14.125  36.620   8.292
 2430POPC   C3B32889  13.987  36.533   7.867
 2430POPC   C4B32890  14.153  36.610   7.391
 2431POPC   NC332891  33.397  33.568   9.408
 2431POPC   PO432892  33.188  32.988   9.724
 2431POPC   GL132893  33.057  33.053   9.260
 2431POPC   GL232894  32.843  33.322   9.165
 2431POPC   C1A32895  33.062  32.975   8.789
 2431POPC   D2A32896  33.252  32.981   8.352
 2431POPC   C3A32897  32.983  32.893   7.991
 2431POPC   C4A32898  33.104  33.171   7.675
 2431POPC   C1B32899  32.622  33.260   8.788
 2431POPC   C2B32900  32.761  33.168   8.386
 2431POPC   C3B32901  32.718  33.350   7.995
 2431POPC   C4B32902  32.600  33.179   7.593
 2432POPC   NC332903  35.975  30.217   9.478
 2432POPC   PO432904  36.522  29.858   9.567
 2432POPC   GL132905  36.365  30.025   9.156
 2432POPC   GL232906  36.009  29.999   9.038
 2432POPC   C1A32907  36.345  30.047   8.698
 2432POPC   D2A32908  36.156  29.739   8.464
 2432POPC   C3A32909  36.386  29.900   8.162
 2432POPC   C4A32910  36.286  30.107   7.848
 2432POPC   C1B32911  35.863  30.238   8.696
 2432POPC   C2B32912  35.896  30.133   8.277
 2432POPC   C3B32913  35.794  30.156   7.906
 2432POPC   C4B32914  35.901  30.400   7.600
 2433POPC   NC332915  17.759   7.214   9.473
 2433POPC   PO432916  17.147   7.284   9.484
 2433POPC   GL132917  17.368   7.214   9.124
 2433POPC   GL232918  17.661   7.089   9.010
 2433POPC   C1A32919  17.253   7.230   8.717
 2433POPC   D2A32920  17.345   7.520   8.418
 2433POPC   C3A32921  17.288   7.342   8.050
 2433POPC   C4A32922  17.427   7.432   7.666
 2433POPC   C1B32923  17.702   7.482   8.784
 2433POPC   C2B32924  17.842   7.465   8.344
 2433POPC   C3B32925  17.894   7.486   7.916
 2433POPC   C4B32926  17.896   7.205   7.589
 2434POPC   NC332927  36.870   7.180   9.499
 2434POPC   PO432928  37.223   7.750   9.632
 2434POPC   GL132929  37.040   7.730   9.189
 2434POPC   GL232930  36.711   7.558   9.179
 2434POPC   C1A32931  37.123   7.616   8.751
 2434POPC   D2A32932  36.925   7.800   8.386
 2434POPC   C3A32933  36.898   7.601   7.961
 2434POPC   C4A32934  37.242   7.494   7.647
 2434POPC   C1B32935  36.726   7.287   8.781
 2434POPC   C2B32936  36.801   7.098   8.345
 2434POPC   C3B32937  36.597   7.111   7.927
 2434POPC   C4B32938  36.811   7.228   7.559
 2435POPC   NC332939  19.553  25.290   9.543
 2435POPC   PO432940  20.118  25.578   9.839
 2435POPC   GL132941  20.054  25.235   9.384
 2435POPC   GL232942  19.724  25.322   9.077
 2435POPC   C1A32943  20.078  25.024   8.945
 2435POPC   D2A32944  20.126  25.033   8.477
 2435POPC   C3A32945  19.939  25.290   8.139
 2435POPC   C4A32946  20.036  25.301   7.712
 2435POPC   C1B32947  19.854  25.532   8.662
 2435POPC   C2B32948  19.786  25.767   8.241
 2435POPC   C3B32949  19.709  25.690   7.793
 2435POPC   C4B32950  19.614  25.417   7.413
 2436POPC   NC332951  40.522  39.535   9.544
 2436POPC   PO432952  40.755  38.988   9.773
 2436POPC   GL132953  40.666  39.111   9.300
 2436POPC   GL232954  40.870  39.379   9.099
 2436POPC   C1A32955  40.447  39.141   8.915
 2436POPC   D2A32956  40.470  39.369   8.519
 2436POPC   C3A32957  40.723  39.170   8.192
 2436POPC   C4A32958  40.614  39.271   7.776
 2436POPC   C1B32959  41.005  39.260   8.647
 2436POPC   C2B32960  41.226  39.211   8.230
 2436POPC   C3B32961  41.149  39.429   7.843
 2436POPC   C4B32962  40.954  39.802   7.682
 2437POPC   NC332963  34.356   7.626   9.877
 2437POPC   PO432964  34.782   7.250   9.506
 2437POPC   GL132965  34.686   7.478   9.164
 2437POPC   GL232966  34.354   7.658   9.251
 2437POPC   C1A32967  34.841   7.423   8.705
 2437POPC   D2A32968  35.111   7.396   8.317
 2437POPC   C3A32969  34.906   7.424   7.887
 2437POPC   C4A32970  34.497   7.343   7.728
 2437POPC   C1B32971  34.454   7.742   8.825
 2437POPC   C2B32972  34.447   7.597   8.442
 2437POPC   C3B32973  34.532   7.731   8.072
 2437POPC   C4B32974  34.622   7.870   7.701
 2438POPC   NC332975  20.089  35.391   9.640
 2438POPC   PO432976  19.597  35.037   9.454
 2438POPC   GL132977  19.788  35.333   9.143
 2438POPC   GL232978  19.964  35.629   9.206
 2438POPC   C1A32979  19.609  35.499   8.737
 2438POPC   D2A32980  19.564  35.634   8.297
 2438POPC   C3A32981  19.533  35.342   7.937
 2438POPC   C4A32982  19.583  35.369   7.484
 2438POPC   C1B32983  20.112  35.680   8.812
 2438POPC   C2B32984  20.196  35.671   8.381
 2438POPC   C3B32985  19.979  35.672   7.994
 2438POPC   C4B32986  20.025  35.350   7.725
 2439POPC   NC332987  38.131  37.096   9.449
 2439POPC   PO432988  38.721  36.736   9.574
 2439POPC   GL132989  38.749  36.916   9.161
 2439POPC   GL232990  38.613  37.254   9.183
 2439POPC   C1A32991  38.750  37.047   8.716
 2439POPC   D2A32992  38.829  37.339   8.384
 2439POPC   C3A32993  38.899  37.138   7.971
 2439POPC   C4A32994  38.682  36.758   7.850
 2439POPC   C1B32995  38.267  37.157   8.838
 2439POPC   C2B32996  38.229  36.911   8.445
 2439POPC   C3B32997  38.227  36.980   7.985
 2439POPC   C4B32998  38.454  37.150   7.618
 2440POPC   NC332999  15.127  10.540   9.446
 2440POPC   PO433000  15.053  11.117   9.748
 2440POPC   GL133001  15.047  10.987   9.259
 2440POPC   GL233002  15.407  10.953   9.132
 2440POPC   C1A33003  15.062  10.701   8.833
 2440POPC   D2A33004  15.218  10.387   8.519
 2440POPC   C3A33005  15.045  10.465   8.089
 2440POPC   C4A33006  14.834  10.757   7.790
 2440POPC   C1B33007  15.528  10.845   8.708
 2440POPC   C2B33008  15.276  10.872   8.345
 2440POPC   C3B33009  15.334  10.873   7.906
 2440POPC   C4B33010  15.642  10.748   7.604
 2441POPC   NC333011   0.166  33.991   9.599
 2441POPC   PO433012  44.420  33.963   9.579
 2441POPC   GL133013  44.714  33.957   9.244
 2441POPC   GL233014  44.948  34.262   9.247
 2441POPC   C1A33015  44.641  33.737   8.829
 2441POPC   D2A33016  44.405  33.572   8.496
 2441POPC   C3A33017  44.582  33.745   8.154
 2441POPC   C4A33018  44.709  33.662   7.773
 2441POPC   C1B33019  44.994  34.107   8.843
 2441POPC   C2B33020  44.829  34.103   8.419
 2441POPC   C3B33021  44.939  34.078   7.976
 2441POPC   C4B33022   0.027  34.294   7.606
 2442POPC   NC333023   7.562  33.928   9.583
 2442POPC   PO433024   7.523  33.219   9.513
 2442POPC   GL133025   7.491  33.463   9.126
 2442POPC   GL233026   7.430  33.817   9.036
 2442POPC   C1A33027   7.591  33.479   8.691
 2442POPC   D2A33028   7.693  33.618   8.307
 2442POPC   C3A33029   7.529  33.523   7.895
 2442POPC   C4A33030   7.677  33.456   7.483
 2442POPC   C1B33031   7.217  33.863   8.602
 2442POPC   C2B33032   7.249  33.874   8.129
 2442POPC   C3B33033   7.398  34.065   7.723
 2442POPC   C4B33034   7.615  34.299   7.393
 2443POPC   NC333035   9.586  32.499   9.434
 2443POPC   PO433036  10.116  32.228   9.688
 2443POPC   GL133037   9.975  32.271   9.144
 2443POPC   GL233038   9.629  32.132   9.074
 2443POPC   C1A33039   9.861  32.254   8.658
 2443POPC   D2A33040   9.795  32.526   8.324
 2443POPC   C3A33041   9.859  32.321   7.946
 2443POPC   C4A33042  10.124  32.396   7.598
 2443POPC   C1B33043   9.348  32.086   8.703
 2443POPC   C2B33044   9.403  32.084   8.251
 2443POPC   C3B33045   9.464  32.011   7.811
 2443POPC   C4B33046   9.619  32.339   7.487
 2444POPC   NC333047  44.626  31.025   9.597
 2444POPC   PO433048   0.111  30.582   9.448
 2444POPC   GL133049  44.797  30.690   9.103
 2444POPC   GL233050  44.557  30.987   9.104
 2444POPC   C1A33051  44.863  30.569   8.653
 2444POPC   D2A33052   0.103  30.327   8.326
 2444POPC   C3A33053  44.916  30.517   7.980
 2444POPC   C4A33054  44.862  30.955   7.904
 2444POPC   C1B33055  44.403  30.809   8.742
 2444POPC   C2B33056  44.317  30.654   8.322
 2444POPC   C3B33057  44.431  30.671   7.899
 2444POPC   C4B33058  44.449  31.006   7.613
 2445POPC   NC333059  43.188   0.467   9.458
 2445POPC   PO433060  43.476  44.894   9.553
 2445POPC   GL133061  43.393   0.116   9.163
 2445POPC   GL233062  43.022   0.106   9.147
 2445POPC   C1A33063  43.242   0.427   8.807
 2445POPC   D2A33064  42.966   0.527   8.442
 2445POPC   C3A33065  43.065   0.387   8.040
 2445POPC   C4A33066  43.215   0.591   7.668
 2445POPC   C1B33067  42.819   0.122   8.731
 2445POPC   C2B33068  42.743   0.009   8.276
 2445POPC   C3B33069  42.743   0.046   7.796
 2445POPC   C4B33070  42.933   0.257   7.396
 2446POPC   NC333071  11.293  33.454   9.496
 2446POPC   PO433072  11.032  34.067   9.577
 2446POPC   GL133073  10.962  33.834   9.215
 2446POPC   GL233074  11.300  33.738   9.073
 2446POPC   C1A33075  10.885  33.802   8.801
 2446POPC   D2A33076  11.169  33.795   8.480
 2446POPC   C3A33077  11.027  33.553   8.134
 2446POPC   C4A33078  11.065  33.676   7.688
 2446POPC   C1B33079  11.545  33.504   8.730
 2446POPC   C2B33080  11.552  33.497   8.278
 2446POPC   C3B33081  11.426  33.839   8.022
 2446POPC   C4B33082  11.536  33.863   7.613
 2447POPC   NC333083  34.860  34.025   9.322
 2447POPC   PO433084  35.415  33.752   9.599
 2447POPC   GL133085  35.385  33.809   9.155
 2447POPC   GL233086  35.075  33.660   9.025
 2447POPC   C1A33087  35.562  33.751   8.725
 2447POPC   D2A33088  35.785  33.804   8.327
 2447POPC   C3A33089  35.577  33.987   7.980
 2447POPC   C4A33090  35.365  33.799   7.640
 2447POPC   C1B33091  35.103  33.971   8.741
 2447POPC   C2B33092  35.274  34.026   8.384
 2447POPC   C3B33093  35.049  33.936   8.021
 2447POPC   C4B33094  34.761  34.132   7.720
 2448POPC   NC333095  27.791  14.716   9.768
 2448POPC   PO433096  27.392  14.242   9.699
 2448POPC   GL133097  27.604  14.388   9.265
 2448POPC   GL233098  27.797  14.710   9.223
 2448POPC   C1A33099  27.787  14.318   8.809
 2448POPC   D2A33100  27.827  14.577   8.383
 2448POPC   C3A33101  27.778  14.351   7.972
 2448POPC   C4A33102  27.463  14.254   7.668
 2448POPC   C1B33103  27.549  14.747   8.838
 2448POPC   C2B33104  27.348  14.767   8.435
 2448POPC   C3B33105  27.354  14.639   7.995
 2448POPC   C4B33106  27.687  14.777   7.703
 2449POPC   NC333107  35.332  37.935   9.432
 2449POPC   PO433108  35.647  37.411   9.584
 2449POPC   GL133109  35.445  37.531   9.177
 2449POPC   GL233110  35.082  37.493   9.194
 2449POPC   C1A33111  35.597  37.534   8.759
 2449POPC   D2A33112  35.327  37.545   8.400
 2449POPC   C3A33113  35.458  37.406   7.999
 2449POPC   C4A33114  35.386  37.367   7.559
 2449POPC   C1B33115  35.144  37.802   8.839
 2449POPC   C2B33116  35.170  38.036   8.481
 2449POPC   C3B33117  35.325  37.922   8.047
 2449POPC   C4B33118  35.031  37.666   7.828
 2450POPC   NC333119  30.480   4.396   9.484
 2450POPC   PO433120  31.121   4.588   9.633
 2450POPC   GL133121  30.999   4.426   9.238
 2450POPC   GL233122  30.837   4.120   9.229
 2450POPC   C1A33123  31.072   4.360   8.814
 2450POPC   D2A33124  31.144   4.216   8.419
 2450POPC   C3A33125  30.932   4.376   8.050
 2450POPC   C4A33126  30.827   4.200   7.643
 2450POPC   C1B33127  30.601   4.179   8.846
 2450POPC   C2B33128  30.489   4.141   8.411
 2450POPC   C3B33129  30.613   3.964   8.042
 2450POPC   C4B33130  30.349   4.018   7.616
 2451POPC   NC333131  25.143   4.715   9.786
 2451POPC   PO433132  25.538   5.161   9.461
 2451POPC   GL133133  25.384   5.055   9.099
 2451POPC   GL233134  25.645   5.209   8.932
 2451POPC   C1A33135  25.357   4.865   8.691
 2451POPC   D2A33136  25.076   4.794   8.379
 2451POPC   C3A33137  25.202   4.968   8.012
 2451POPC   C4A33138  25.063   5.237   7.726
 2451POPC   C1B33139  25.595   5.488   8.577
 2451POPC   C2B33140  25.346   5.444   8.178
 2451POPC   C3B33141  25.384   5.615   7.763
 2451POPC   C4B33142  25.483   5.329   7.408
 2452POPC   NC333143  31.671  32.856   9.519
 2452POPC   PO433144  31.244  33.463   9.612
 2452POPC   GL133145  31.410  33.212   9.184
 2452POPC   GL233146  31.455  32.846   9.080
 2452POPC   C1A33147  31.460  33.165   8.678
 2452POPC   D2A33148  31.276  33.299   8.263
 2452POPC   C3A33149  31.538  33.192   7.903
 2452POPC   C4A33150  31.783  32.797   7.951
 2452POPC   C1B33151  31.224  32.709   8.709
 2452POPC   C2B33152  31.371  32.713   8.295
 2452POPC   C3B33153  31.219  32.805   7.900
 2452POPC   C4B33154  31.188  33.080   7.525
 2453POPC   NC333155  33.860  23.282   9.428
 2453POPC   PO433156  34.022  23.926   9.475
 2453POPC   GL133157  33.628  23.767   9.237
 2453POPC   GL233158  33.470  23.420   9.129
 2453POPC   C1A33159  33.547  23.863   8.802
 2453POPC   D2A33160  33.479  23.763   8.408
 2453POPC   C3A33161  33.763  23.929   8.125
 2453POPC   C4A33162  33.763  23.878   7.728
 2453POPC   C1B33163  33.673  23.372   8.682
 2453POPC   C2B33164  33.799  23.423   8.201
 2453POPC   C3B33165  34.085  23.491   7.843
 2453POPC   C4B33166  34.034  23.272   7.444
 2454POPC   NC333167  15.172  18.233   9.365
 2454POPC   PO433168  14.738  18.775   9.468
 2454POPC   GL133169  14.654  18.570   9.084
 2454POPC   GL233170  14.788  18.252   9.038
 2454POPC   C1A33171  14.835  18.620   8.673
 2454POPC   D2A33172  15.123  18.482   8.365
 2454POPC   C3A33173  14.899  18.431   7.986
 2454POPC   C4A33174  15.103  18.512   7.616
 2454POPC   C1B33175  15.019  17.943   8.771
 2454POPC   C2B33176  15.220  17.957   8.359
 2454POPC   C3B33177  15.149  17.988   7.933
 2454POPC   C4B33178  15.305  18.048   7.509
 2455POPC   NC333179  12.043  33.078   9.612
 2455POPC   PO433180  11.518  33.131   9.265
 2455POPC   GL133181  11.931  33.052   9.106
 2455POPC   GL233182  12.245  33.221   9.177
 2455POPC   C1A33183  12.166  32.897   8.766
 2455POPC   D2A33184  12.228  33.070   8.356
 2455POPC   C3A33185  11.865  33.032   8.091
 2455POPC   C4A33186  11.933  32.768   7.753
 2455POPC   C1B33187  12.181  33.420   8.785
 2455POPC   C2B33188  12.495  33.504   8.465
 2455POPC   C3B33189  12.364  33.507   8.023
 2455POPC   C4B33190  12.297  33.107   7.797
 2456POPC   NC333191  24.463  33.372   9.474
 2456POPC   PO433192  24.585  32.702   9.435
 2456POPC   GL133193  24.466  32.997   9.097
 2456POPC   GL233194  24.228  32.837   8.970
 2456POPC   C1A33195  24.571  33.115   8.631
 2456POPC   D2A33196  24.491  32.919   8.230
 2456POPC   C3A33197  24.612  33.069   7.815
 2456POPC   C4A33198  24.722  33.208   7.399
 2456POPC   C1B33199  24.187  32.682   8.584
 2456POPC   C2B33200  24.073  32.638   8.157
 2456POPC   C3B33201  24.321  32.608   7.762
 2456POPC   C4B33202  24.378  32.830   7.383
 2457POPC   NC333203  20.570   3.967   9.551
 2457POPC   PO433204  20.343   3.342   9.462
 2457POPC   GL133205  20.584   3.598   9.206
 2457POPC   GL233206  20.261   3.796   9.173
 2457POPC   C1A33207  20.870   3.681   8.850
 2457POPC   D2A33208  21.004   3.551   8.410
 2457POPC   C3A33209  20.865   3.718   8.018
 2457POPC   C4A33210  20.703   3.625   7.618
 2457POPC   C1B33211  20.349   3.605   8.758
 2457POPC   C2B33212  20.483   3.561   8.346
 2457POPC   C3B33213  20.325   3.677   7.967
 2457POPC   C4B33214  20.159   3.827   7.596
 2458POPC   NC333215  42.867   4.794   9.722
 2458POPC   PO433216  43.124   5.393   9.555
 2458POPC   GL133217  43.043   5.220   9.161
 2458POPC   GL233218  43.022   4.849   9.161
 2458POPC   C1A33219  43.140   5.149   8.740
 2458POPC   D2A33220  42.871   5.125   8.408
 2458POPC   C3A33221  43.101   4.988   8.103
 2458POPC   C4A33222  43.294   5.152   7.773
 2458POPC   C1B33223  43.001   4.648   8.758
 2458POPC   C2B33224  42.836   4.604   8.357
 2458POPC   C3B33225  42.617   4.858   8.048
 2458POPC   C4B33226  42.820   4.953   7.693
 2459POPC   NC333227  32.661  26.551   9.524
 2459POPC   PO433228  33.218  26.143   9.534
 2459POPC   GL133229  33.058  25.915   9.147
 2459POPC   GL233230  32.855  26.198   9.075
 2459POPC   C1A33231  32.866  25.869   8.689
 2459POPC   D2A33232  32.569  26.030   8.324
 2459POPC   C3A33233  32.804  26.066   7.905
 2459POPC   C4A33234  32.850  25.799   7.563
 2459POPC   C1B33235  33.253  26.204   8.781
 2459POPC   C2B33236  33.427  26.280   8.370
 2459POPC   C3B33237  33.313  26.398   7.903
 2459POPC   C4B33238  33.094  26.269   7.473
 2460POPC   NC333239  21.450   6.808   9.611
 2460POPC   PO433240  20.884   6.901   9.435
 2460POPC   GL133241  21.194   6.722   9.179
 2460POPC   GL233242  21.117   6.383   9.077
 2460POPC   C1A33243  21.395   6.685   8.797
 2460POPC   D2A33244  21.344   6.859   8.417
 2460POPC   C3A33245  21.187   6.763   8.036
 2460POPC   C4A33246  21.521   6.624   7.765
 2460POPC   C1B33247  21.014   6.367   8.659
 2460POPC   C2B33248  21.197   6.287   8.260
 2460POPC   C3B33249  21.133   6.310   7.805
 2460POPC   C4B33250  21.122   6.650   7.447
 2461POPC   NC333251  27.053   1.866   9.529
 2461POPC   PO433252  26.420   2.146   9.544
 2461POPC   GL133253  26.614   1.901   9.221
 2461POPC   GL233254  26.561   1.566   9.099
 2461POPC   C1A33255  26.886   1.940   8.858
 2461POPC   D2A33256  27.105   1.842   8.452
 2461POPC   C3A33257  26.995   1.953   8.069
 2461POPC   C4A33258  27.067   2.210   7.748
 2461POPC   C1B33259  26.412   1.716   8.765
 2461POPC   C2B33260  26.577   1.944   8.439
 2461POPC   C3B33261  26.443   2.217   8.149
 2461POPC   C4B33262  26.571   2.047   7.785
 2462POPC   NC333263  16.214  30.625   9.359
 2462POPC   PO433264  15.699  31.012   9.497
 2462POPC   GL133265  15.754  30.719   9.073
 2462POPC   GL233266  16.089  30.798   8.887
 2462POPC   C1A33267  15.734  30.646   8.579
 2462POPC   D2A33268  16.043  30.769   8.259
 2462POPC   C3A33269  15.958  30.948   7.851
 2462POPC   C4A33270  15.925  30.795   7.406
 2462POPC   C1B33271  16.436  30.644   8.568
 2462POPC   C2B33272  16.453  30.478   8.125
 2462POPC   C3B33273  16.153  30.487   7.785
 2462POPC   C4B33274  16.141  30.289   7.367
 2463POPC   NC333275   6.854  40.043   9.605
 2463POPC   PO433276   6.187  39.986   9.595
 2463POPC   GL133277   6.359  40.073   9.201
 2463POPC   GL233278   6.674  40.062   9.139
 2463POPC   C1A33279   6.397  39.893   8.760
 2463POPC   D2A33280   6.440  40.018   8.342
 2463POPC   C3A33281   6.684  39.809   8.039
 2463POPC   C4A33282   6.742  40.099   7.730
 2463POPC   C1B33283   6.843  40.183   8.748
 2463POPC   C2B33284   7.070  40.028   8.418
 2463POPC   C3B33285   7.268  39.865   8.064
 2463POPC   C4B33286   7.096  39.731   7.697
 2464POPC   NC333287  43.578  36.404   9.532
 2464POPC   PO433288  44.038  35.911   9.465
 2464POPC   GL133289  43.811  36.033   9.132
 2464POPC   GL233290  43.818  36.377   9.110
 2464POPC   C1A33291  44.011  35.926   8.741
 2464POPC   D2A33292  44.202  36.136   8.362
 2464POPC   C3A33293  44.000  35.937   8.026
 2464POPC   C4A33294  43.714  35.890   7.662
 2464POPC   C1B33295  43.978  36.437   8.747
 2464POPC   C2B33296  43.871  36.612   8.399
 2464POPC   C3B33297  43.983  36.459   8.029
 2464POPC   C4B33298  43.847  36.434   7.624
 2465POPC   NC333299  38.553  13.965   9.398
 2465POPC   PO433300  38.518  14.635   9.590
 2465POPC   GL133301  38.434  14.463   9.182
 2465POPC   GL233302  38.257  14.734   9.011
 2465POPC   C1A33303  38.496  14.328   8.750
 2465POPC   D2A33304  38.605  14.263   8.322
 2465POPC   C3A33305  38.334  14.401   7.980
 2465POPC   C4A33306  38.404  14.544   7.553
 2465POPC   C1B33307  38.554  14.853   8.737
 2465POPC   C2B33308  38.687  14.794   8.309
 2465POPC   C3B33309  38.810  14.628   7.906
 2465POPC   C4B33310  38.805  14.866   7.537
 2466POPC   NC333311   8.731  10.609   9.628
 2466POPC   PO433312   9.355  10.536   9.510
 2466POPC   GL133313   9.043  10.657   9.205
 2466POPC   GL233314   8.692  10.476   9.146
 2466POPC   C1A33315   9.020  10.752   8.769
 2466POPC   D2A33316   9.160  10.455   8.468
 2466POPC   C3A33317   9.027  10.347   8.065
 2466POPC   C4A33318   9.250  10.307   7.673
 2466POPC   C1B33319   8.620  10.410   8.713
 2466POPC   C2B33320   8.504  10.693   8.392
 2466POPC   C3B33321   8.783  10.835   8.086
 2466POPC   C4B33322   8.829  10.635   7.706
 2467POPC   NC333323  24.979  15.304   9.414
 2467POPC   PO433324  25.555  14.979   9.516
 2467POPC   GL133325  25.303  14.984   9.162
 2467POPC   GL233326  24.964  14.839   9.146
 2467POPC   C1A33327  25.295  15.276   8.818
 2467POPC   D2A33328  25.425  15.149   8.437
 2467POPC   C3A33329  25.316  15.338   8.077
 2467POPC   C4A33330  25.474  15.190   7.693
 2467POPC   C1B33331  25.158  14.776   8.723
 2467POPC   C2B33332  25.270  14.648   8.318
 2467POPC   C3B33333  25.149  14.804   7.928
 2467POPC   C4B33334  24.936  15.161   7.777
 2468POPC   NC333335  21.276  34.283   9.461
 2468POPC   PO433336  21.670  34.765   9.711
 2468POPC   GL133337  21.670  34.610   9.208
 2468POPC   GL233338  21.346  34.518   9.015
 2468POPC   C1A33339  21.711  34.534   8.688
 2468POPC   D2A33340  21.391  34.587   8.346
 2468POPC   C3A33341  21.473  34.419   7.957
 2468POPC   C4A33342  21.470  34.571   7.547
 2468POPC   C1B33343  21.033  34.472   8.689
 2468POPC   C2B33344  20.920  34.289   8.328
 2468POPC   C3B33345  20.963  34.499   7.911
 2468POPC   C4B33346  21.200  34.860   7.896
 2469POPC   NC333347   4.546  23.625   9.320
 2469POPC   PO433348   3.985  23.961   9.570
 2469POPC   GL133349   4.206  23.994   9.193
 2469POPC   GL233350   4.073  23.671   9.127
 2469POPC   C1A33351   4.180  23.994   8.722
 2469POPC   D2A33352   4.310  23.679   8.406
 2469POPC   C3A33353   4.465  23.766   7.993
 2469POPC   C4A33354   4.703  23.583   7.667
 2469POPC   C1B33355   3.902  23.523   8.777
 2469POPC   C2B33356   3.807  23.617   8.372
 2469POPC   C3B33357   4.034  23.439   8.019
 2469POPC   C4B33358   4.198  23.474   7.589
 2470POPC   NC333359  15.619  29.513   9.424
 2470POPC   PO433360  15.044  29.884   9.394
 2470POPC   GL133361  15.066  30.188   9.063
 2470POPC   GL233362  15.408  30.289   9.091
 2470POPC   C1A33363  15.054  30.077   8.611
 2470POPC   D2A33364  15.155  29.726   8.297
 2470POPC   C3A33365  15.075  29.816   7.853
 2470POPC   C4A33366  15.153  30.051   7.483
 2470POPC   C1B33367  15.462  29.880   8.852
 2470POPC   C2B33368  15.634  29.892   8.430
 2470POPC   C3B33369  15.517  30.030   8.030
 2470POPC   C4B33370  15.540  29.801   7.655
 2471POPC   NC333371  18.699  35.561   9.472
 2471POPC   PO433372  18.231  35.151   9.501
 2471POPC   GL133373  18.265  35.522   9.191
 2471POPC   GL233374  18.592  35.595   8.977
 2471POPC   C1A33375  18.145  35.480   8.769
 2471POPC   D2A33376  18.188  35.195   8.430
 2471POPC   C3A33377  18.162  35.452   8.086
 2471POPC   C4A33378  18.201  35.263   7.695
 2471POPC   C1B33379  18.626  35.153   8.779
 2471POPC   C2B33380  18.673  34.934   8.358
 2471POPC   C3B33381  18.592  35.072   7.945
 2471POPC   C4B33382  18.622  35.523   7.890
 2472POPC   NC333383  16.930  44.103   9.512
 2472POPC   PO433384  16.412  43.610   9.616
 2472POPC   GL133385  16.616  43.722   9.243
 2472POPC   GL233386  16.963  43.727   9.120
 2472POPC   C1A33387  16.446  43.692   8.837
 2472POPC   D2A33388  16.572  43.729   8.421
 2472POPC   C3A33389  16.411  44.001   8.088
 2472POPC   C4A33390  16.467  44.423   7.916
 2472POPC   C1B33391  16.824  44.065   8.802
 2472POPC   C2B33392  16.776  44.185   8.356
 2472POPC   C3B33393  16.865  43.775   8.007
 2472POPC   C4B33394  17.071  43.805   7.573
 2473POPC   NC333395  33.388   4.661   9.420
 2473POPC   PO433396  33.555   4.087   9.699
 2473POPC   GL133397  33.524   4.198   9.272
 2473POPC   GL233398  33.827   4.353   9.220
 2473POPC   C1A33399  33.568   4.234   8.809
 2473POPC   D2A33400  33.904   4.154   8.529
 2473POPC   C3A33401  33.802   4.255   8.125
 2473POPC   C4A33402  33.585   4.364   7.755
 2473POPC   C1B33403  33.973   4.559   8.838
 2473POPC   C2B33404  34.136   4.685   8.445
 2473POPC   C3B33405  34.101   4.637   8.024
 2473POPC   C4B33406  34.025   4.798   7.639
 2474POPC   NC333407  11.106   1.443   9.455
 2474POPC   PO433408  11.758   1.631   9.559
 2474POPC   GL133409  11.630   1.384   9.171
 2474POPC   GL233410  11.323   1.205   9.085
 2474POPC   C1A33411  11.696   1.169   8.762
 2474POPC   D2A33412  11.518   1.098   8.360
 2474POPC   C3A33413  11.561   1.340   8.003
 2474POPC   C4A33414  11.204   1.222   7.758
 2474POPC   C1B33415  11.019   1.067   8.790
 2474POPC   C2B33416  11.014   0.966   8.372
 2474POPC   C3B33417  10.814   0.999   8.003
 2474POPC   C4B33418  10.894   0.834   7.595
 2475POPC   NC333419  34.142  42.557   9.634
 2475POPC   PO433420  34.546  41.943   9.595
 2475POPC   GL133421  34.424  42.168   9.207
 2475POPC   GL233422  34.687  42.423   9.129
 2475POPC   C1A33423  34.407  42.162   8.742
 2475POPC   D2A33424  34.180  42.106   8.384
 2475POPC   C3A33425  34.387  42.192   8.031
 2475POPC   C4A33426  34.318  42.506   7.750
 2475POPC   C1B33427  34.906  42.329   8.714
 2475POPC   C2B33428  34.788  42.382   8.276
 2475POPC   C3B33429  34.825  42.318   7.807
 2475POPC   C4B33430  35.016  42.316   7.356
 2476POPC   NC333431  21.898   4.992   9.330
 2476POPC   PO433432  22.579   4.871   9.447
 2476POPC   GL133433  22.334   4.874   9.098
 2476POPC   GL233434  22.276   5.245   9.091
 2476POPC   C1A33435  22.095   4.965   8.725
 2476POPC   D2A33436  22.156   5.234   8.408
 2476POPC   C3A33437  21.965   5.023   8.127
 2476POPC   C4A33438  22.224   4.921   7.817
 2476POPC   C1B33439  22.033   5.506   8.817
 2476POPC   C2B33440  21.785   5.651   8.478
 2476POPC   C3B33441  21.825   5.545   8.061
 2476POPC   C4B33442  21.977   5.344   7.700
 2477POPC   NC333443  14.404  40.636   9.723
 2477POPC   PO433444  14.213  41.177   9.363
 2477POPC   GL133445  14.413  40.968   9.070
 2477POPC   GL233446  14.399  40.624   9.180
 2477POPC   C1A33447  14.358  41.104   8.665
 2477POPC   D2A33448  14.334  40.891   8.291
 2477POPC   C3A33449  14.308  40.974   7.865
 2477POPC   C4A33450  14.140  40.601   7.701
 2477POPC   C1B33451  14.443  40.576   8.722
 2477POPC   C2B33452  14.641  40.487   8.322
 2477POPC   C3B33453  14.652  40.477   7.878
 2477POPC   C4B33454  14.580  40.620   7.477
 2478POPC   NC333455  33.933  17.427   9.640
 2478POPC   PO433456  33.939  16.874   9.407
 2478POPC   GL133457  34.103  17.242   9.168
 2478POPC   GL233458  33.984  17.607   9.159
 2478POPC   C1A33459  34.090  17.366   8.732
 2478POPC   D2A33460  34.158  17.592   8.381
 2478POPC   C3A33461  33.937  17.359   8.061
 2478POPC   C4A33462  33.548  17.177   7.881
 2478POPC   C1B33463  33.879  17.842   8.754
 2478POPC   C2B33464  33.724  17.819   8.313
 2478POPC   C3B33465  33.988  17.859   7.940
 2478POPC   C4B33466  33.901  17.784   7.502
 2479POPC   NC333467  28.921   3.739   9.237
 2479POPC   PO433468  29.116   3.183   9.623
 2479POPC   GL133469  29.244   3.366   9.190
 2479POPC   GL233470  28.912   3.336   8.922
 2479POPC   C1A33471  29.367   3.491   8.755
 2479POPC   D2A33472  29.183   3.330   8.366
 2479POPC   C3A33473  29.223   3.503   7.969
 2479POPC   C4A33474  29.206   3.887   7.760
 2479POPC   C1B33475  28.928   3.700   8.609
 2479POPC   C2B33476  28.960   3.878   8.234
 2479POPC   C3B33477  28.739   3.689   7.913
 2479POPC   C4B33478  28.795   3.675   7.487
 2480POPC   NC333479  44.684  25.879   9.587
 2480POPC   PO433480   0.024  26.447   9.791
 2480POPC   GL133481  44.608  26.332   9.372
 2480POPC   GL233482  44.771  26.071   9.093
 2480POPC   C1A33483  44.395  26.342   8.902
 2480POPC   D2A33484  44.424  25.984   8.565
 2480POPC   C3A33485  44.527  25.942   8.095
 2480POPC   C4A33486  44.743  25.782   7.701
 2480POPC   C1B33487  44.844  26.342   8.669
 2480POPC   C2B33488  44.727  26.408   8.231
 2480POPC   C3B33489  44.827  26.283   7.812
 2480POPC   C4B33490  44.921  26.533   7.422
 2481POPC   NC333491  10.399   2.837   9.657
 2481POPC   PO433492  10.967   3.122   9.436
 2481POPC   GL133493  10.648   2.982   9.169
 2481POPC   GL233494  10.329   2.780   9.172
 2481POPC   C1A33495  10.665   2.827   8.769
 2481POPC   D2A33496  10.727   2.591   8.412
 2481POPC   C3A33497  10.775   2.808   8.050
 2481POPC   C4A33498  10.684   2.530   7.740
 2481POPC   C1B33499  10.133   2.910   8.821
 2481POPC   C2B33500  10.298   2.924   8.415
 2481POPC   C3B33501  10.269   2.670   8.072
 2481POPC   C4B33502  10.366   2.916   7.738
 2482POPC   NC333503  26.554   4.063   9.474
 2482POPC   PO433504  27.033   4.510   9.609
 2482POPC   GL133505  26.874   4.410   9.254
 2482POPC   GL233506  26.601   4.562   9.064
 2482POPC   C1A33507  27.120   4.462   8.930
 2482POPC   D2A33508  27.060   4.457   8.517
 2482POPC   C3A33509  26.818   4.532   8.171
 2482POPC   C4A33510  27.045   4.496   7.787
 2482POPC   C1B33511  26.668   4.209   8.816
 2482POPC   C2B33512  26.591   4.071   8.407
 2482POPC   C3B33513  26.726   4.035   7.989
 2482POPC   C4B33514  26.524   4.357   7.764
 2483POPC   NC333515  36.012  13.261   9.942
 2483POPC   PO433516  36.108  12.699   9.533
 2483POPC   GL133517  36.139  12.737   9.103
 2483POPC   GL233518  36.186  13.091   9.147
 2483POPC   C1A33519  36.122  12.699   8.653
 2483POPC   D2A33520  36.121  12.992   8.301
 2483POPC   C3A33521  36.171  12.729   7.943
 2483POPC   C4A33522  36.121  12.436   7.595
 2483POPC   C1B33523  35.925  13.138   8.781
 2483POPC   C2B33524  35.780  13.383   8.437
 2483POPC   C3B33525  35.766  13.236   8.001
 2483POPC   C4B33526  36.152  13.214   7.787
 2484POPC   NC333527  15.657  39.287   9.486
 2484POPC   PO433528  16.312  39.190   9.547
 2484POPC   GL133529  16.068  39.197   9.169
 2484POPC   GL233530  16.314  38.896   9.130
 2484POPC   C1A33531  15.791  39.362   8.812
 2484POPC   D2A33532  15.860  39.494   8.394
 2484POPC   C3A33533  15.901  39.196   8.170
 2484POPC   C4A33534  15.939  39.188   7.793
 2484POPC   C1B33535  16.365  38.997   8.733
 2484POPC   C2B33536  16.380  39.142   8.349
 2484POPC   C3B33537  16.314  38.918   8.000
 2484POPC   C4B33538  16.373  39.084   7.581
 2485POPC   NC333539   3.124  23.265   9.554
 2485POPC   PO433540   2.577  22.897   9.488
 2485POPC   GL133541   2.731  23.004   9.120
 2485POPC   GL233542   3.089  22.883   9.172
 2485POPC   C1A33543   2.599  22.897   8.704
 2485POPC   D2A33544   2.391  23.010   8.288
 2485POPC   C3A33545   2.584  22.861   7.917
 2485POPC   C4A33546   2.673  22.886   7.449
 2485POPC   C1B33547   3.097  23.075   8.770
 2485POPC   C2B33548   2.910  23.107   8.364
 2485POPC   C3B33549   3.055  22.989   7.994
 2485POPC   C4B33550   3.245  22.983   7.640
 2486POPC   NC333551  34.895  36.340   9.921
 2486POPC   PO433552  35.332  36.080   9.498
 2486POPC   GL133553  35.456  36.114   9.116
 2486POPC   GL233554  35.715  35.884   9.103
 2486POPC   C1A33555  35.478  36.289   8.738
 2486POPC   D2A33556  35.416  36.147   8.351
 2486POPC   C3A33557  35.476  36.383   7.996
 2486POPC   C4A33558  35.425  36.293   7.580
 2486POPC   C1B33559  35.549  35.766   8.712
 2486POPC   C2B33560  35.712  35.742   8.285
 2486POPC   C3B33561  35.470  35.849   7.911
 2486POPC   C4B33562  35.512  35.781   7.457
 2487POPC   NC333563  35.717  36.362   9.495
 2487POPC   PO433564  36.330  36.085   9.446
 2487POPC   GL133565  36.204  35.998   9.042
 2487POPC   GL233566  36.042  36.314   9.093
 2487POPC   C1A33567  35.954  36.101   8.631
 2487POPC   D2A33568  35.929  36.210   8.182
 2487POPC   C3A33569  36.087  35.940   7.880
 2487POPC   C4A33570  35.872  35.579   7.745
 2487POPC   C1B33571  36.367  36.399   8.763
 2487POPC   C2B33572  36.290  36.539   8.343
 2487POPC   C3B33573  36.347  36.388   7.915
 2487POPC   C4B33574  36.349  36.362   7.424
 2488POPC   NC333575  23.575  22.072   9.553
 2488POPC   PO433576  23.813  22.728   9.438
 2488POPC   GL133577  23.754  22.346   9.167
 2488POPC   GL233578  23.811  21.961   9.122
 2488POPC   C1A33579  23.537  22.267   8.787
 2488POPC   D2A33580  23.695  22.120   8.410
 2488POPC   C3A33581  23.541  22.364   8.138
 2488POPC   C4A33582  23.647  22.420   7.740
 2488POPC   C1B33583  24.036  22.158   8.784
 2488POPC   C2B33584  24.198  22.295   8.405
 2488POPC   C3B33585  24.058  22.176   8.009
 2488POPC   C4B33586  24.032  22.071   7.577
 2489POPC   NC333587  30.995  30.448   9.487
 2489POPC   PO433588  30.391  30.714   9.549
 2489POPC   GL133589  30.666  30.762   9.196
 2489POPC   GL233590  31.012  30.770   9.093
 2489POPC   C1A33591  30.655  30.920   8.765
 2489POPC   D2A33592  30.381  31.037   8.407
 2489POPC   C3A33593  30.560  30.927   7.986
 2489POPC   C4A33594  30.396  30.568   7.713
 2489POPC   C1B33595  31.177  30.849   8.687
 2489POPC   C2B33596  30.984  30.716   8.304
 2489POPC   C3B33597  31.052  30.815   7.866
 2489POPC   C4B33598  30.864  30.698   7.472
 2490POPC   NC333599   1.044  21.609   9.454
 2490POPC   PO433600   1.146  20.911   9.498
 2490POPC   GL133601   1.240  21.118   9.136
 2490POPC   GL233602   1.550  21.286   9.256
 2490POPC   C1A33603   1.008  21.403   8.818
 2490POPC   D2A33604   0.844  21.601   8.429
 2490POPC   C3A33605   1.025  21.524   8.063
 2490POPC   C4A33606   1.121  21.425   7.648
 2490POPC   C1B33607   1.546  21.390   8.831
 2490POPC   C2B33608   1.362  21.304   8.451
 2490POPC   C3B33609   1.523  21.544   8.154
 2490POPC   C4B33610   1.618  21.466   7.780
 2491POPC   NC333611   1.415  28.925   9.400
 2491POPC   PO433612   1.170  29.517   9.548
 2491POPC   GL133613   1.163  29.322   9.156
 2491POPC   GL233614   0.933  29.057   9.082
 2491POPC   C1A33615   1.256  29.212   8.736
 2491POPC   D2A33616   1.543  29.173   8.446
 2491POPC   C3A33617   1.332  29.169   8.077
 2491POPC   C4A33618   1.502  29.363   7.742
 2491POPC   C1B33619   1.004  28.749   8.769
 2491POPC   C2B33620   1.203  28.764   8.379
 2491POPC   C3B33621   1.015  28.729   7.978
 2491POPC   C4B33622   1.063  29.022   7.650
 2492POPC   NC333623   9.445   1.668   9.518
 2492POPC   PO433624   8.744   1.569   9.484
 2492POPC   GL133625   8.776   1.871   9.136
 2492POPC   GL233626   9.065   2.087   9.250
 2492POPC   C1A33627   8.948   1.847   8.722
 2492POPC   D2A33628   9.062   1.740   8.301
 2492POPC   C3A33629   8.805   1.838   7.932
 2492POPC   C4A33630   8.928   1.976   7.510
 2492POPC   C1B33631   9.178   2.283   8.860
 2492POPC   C2B33632   9.096   2.309   8.420
 2492POPC   C3B33633   9.197   2.162   8.012
 2492POPC   C4B33634   9.450   2.296   7.692
 2493POPC   NC333635  11.044   2.361   9.276
 2493POPC   PO433636  10.408   2.322   9.557
 2493POPC   GL133637  10.532   2.313   9.148
 2493POPC   GL233638  10.668   1.993   9.057
 2493POPC   C1A33639  10.330   2.422   8.763
 2493POPC   D2A33640  10.465   2.141   8.457
 2493POPC   C3A33641  10.443   2.172   8.001
 2493POPC   C4A33642  10.422   2.144   7.515
 2493POPC   C1B33643  10.930   1.941   8.669
 2493POPC   C2B33644  10.930   1.588   8.371
 2493POPC   C3B33645  10.807   1.525   7.957
 2493POPC   C4B33646  10.809   1.932   7.753
 2494POPC   NC333647  43.513  30.090   9.486
 2494POPC   PO433648  42.950  29.722   9.555
 2494POPC   GL133649  42.978  29.878   9.153
 2494POPC   GL233650  43.233  30.140   9.056
 2494POPC   C1A33651  42.877  29.886   8.743
 2494POPC   D2A33652  43.029  29.653   8.376
 2494POPC   C3A33653  42.943  29.809   7.990
 2494POPC   C4A33654  43.228  29.819   7.658
 2494POPC   C1B33655  43.390  29.942   8.664
 2494POPC   C2B33656  43.443  29.913   8.205
 2494POPC   C3B33657  43.564  30.160   7.831
 2494POPC   C4B33658  43.484  30.103   7.331
 2495POPC   NC333659  36.883  20.127   9.494
 2495POPC   PO433660  36.835  19.517   9.154
 2495POPC   GL133661  37.045  19.862   9.035
 2495POPC   GL233662  36.752  20.079   9.018
 2495POPC   C1A33663  37.092  19.763   8.602
 2495POPC   D2A33664  36.770  19.586   8.405
 2495POPC   C3A33665  36.908  19.643   8.013
 2495POPC   C4A33666  36.637  19.830   7.711
 2495POPC   C1B33667  36.918  20.223   8.634
 2495POPC   C2B33668  37.158  20.155   8.231
 2495POPC   C3B33669  37.052  20.121   7.783
 2495POPC   C4B33670  37.243  20.144   7.337
 2496POPC   NC333671  22.447  32.138   9.455
 2496POPC   PO433672  21.865  32.434   9.619
 2496POPC   GL133673  22.075  32.470   9.141
 2496POPC   GL233674  22.407  32.326   9.007
 2496POPC   C1A33675  22.063  32.359   8.655
 2496POPC   D2A33676  22.055  32.193   8.210
 2496POPC   C3A33677  21.976  32.293   7.762
 2496POPC   C4A33678  22.039  31.973   7.455
 2496POPC   C1B33679  22.473  32.660   8.760
 2496POPC   C2B33680  22.343  32.773   8.379
 2496POPC   C3B33681  22.303  32.596   7.988
 2496POPC   C4B33682  22.635  32.427   7.768
 2497POPC   NC333683  21.402  41.661   9.576
 2497POPC   PO433684  21.348  41.051   9.651
 2497POPC   GL133685  21.487  41.303   9.200
 2497POPC   GL233686  21.551  41.673   9.103
 2497POPC   C1A33687  21.282  41.438   8.772
 2497POPC   D2A33688  21.524  41.451   8.399
 2497POPC   C3A33689  21.283  41.345   8.023
 2497POPC   C4A33690  21.029  41.433   7.644
 2497POPC   C1B33691  21.641  41.917   8.711
 2497POPC   C2B33692  21.666  41.925   8.275
 2497POPC   C3B33693  21.496  41.797   7.998
 2497POPC   C4B33694  21.519  41.686   7.658
 2498POPC   NC333695  19.286   3.377   9.480
 2498POPC   PO433696  18.666   3.491   9.464
 2498POPC   GL133697  18.959   3.568   9.110
 2498POPC   GL233698  19.279   3.722   9.069
 2498POPC   C1A33699  18.932   3.687   8.666
 2498POPC   D2A33700  18.878   3.485   8.266
 2498POPC   C3A33701  19.077   3.733   7.949
 2498POPC   C4A33702  19.105   3.590   7.522
 2498POPC   C1B33703  19.384   3.458   8.742
 2498POPC   C2B33704  19.399   3.493   8.295
 2498POPC   C3B33705  19.280   3.277   7.918
 2498POPC   C4B33706  19.224   3.106   7.504
 2499POPC   NC333707  28.549   1.440   9.519
 2499POPC   PO433708  28.334   0.860   9.663
 2499POPC   GL133709  28.145   1.038   9.264
 2499POPC   GL233710  28.135   1.382   9.219
 2499POPC   C1A33711  28.371   1.111   8.851
 2499POPC   D2A33712  28.457   1.315   8.455
 2499POPC   C3A33713  28.276   1.145   8.137
 2499POPC   C4A33714  28.559   0.925   7.860
 2499POPC   C1B33715  28.053   1.511   8.780
 2499POPC   C2B33716  28.154   1.742   8.430
 2499POPC   C3B33717  28.327   1.680   8.057
 2499POPC   C4B33718  28.441   1.418   7.761
 2500POPC   NC333719  19.349  26.608   9.582
 2500POPC   PO433720  19.062  27.156   9.335
 2500POPC   GL133721  19.123  26.748   9.130
 2500POPC   GL233722  18.765  26.679   9.028
 2500POPC   C1A33723  19.152  26.512   8.722
 2500POPC   D2A33724  18.864  26.441   8.387
 2500POPC   C3A33725  19.019  26.656   8.025
 2500POPC   C4A33726  19.428  26.745   7.829
 2500POPC   C1B33727  18.947  26.985   8.713
 2500POPC   C2B33728  18.847  27.301   8.452
 2500POPC   C3B33729  19.045  27.194   8.090
 2500POPC   C4B33730  19.003  27.068   7.691
 2501POPC   NC333731  25.771   7.881   9.355
 2501POPC   PO433732  26.066   8.418   9.646
 2501POPC   GL133733  26.164   8.409   9.196
 2501POPC   GL233734  25.904   8.255   9.005
 2501POPC   C1A33735  26.393   8.350   8.808
 2501POPC   D2A33736  26.182   8.312   8.428
 2501POPC   C3A33737  26.394   8.347   8.036
 2501POPC   C4A33738  26.086   8.615   7.801
 2501POPC   C1B33739  26.018   7.900   8.741
 2501POPC   C2B33740  25.979   7.795   8.337
 2501POPC   C3B33741  25.975   8.071   7.998
 2501POPC   C4B33742  25.941   7.959   7.607
 2502POPC   NC333743   9.285  23.860   9.521
 2502POPC   PO433744   8.637  23.930   9.385
 2502POPC   GL133745   8.940  23.724   9.130
 2502POPC   GL233746   8.671  23.501   9.022
 2502POPC   C1A33747   9.294  23.810   8.781
 2502POPC   D2A33748   9.471  23.932   8.368
 2502POPC   C3A33749   9.229  23.926   7.975
 2502POPC   C4A33750   9.137  23.633   7.598
 2502POPC   C1B33751   8.961  23.407   8.741
 2502POPC   C2B33752   9.111  23.483   8.371
 2502POPC   C3B33753   8.877  23.542   8.024
 2502POPC   C4B33754   8.737  23.893   7.793
 2503POPC   NC333755  19.614  13.927   9.572
 2503POPC   PO433756  19.822  13.309   9.418
 2503POPC   GL133757  19.732  13.639   9.128
 2503POPC   GL233758  19.916  13.942   9.098
 2503POPC   C1A33759  19.847  13.551   8.701
 2503POPC   D2A33760  19.767  13.228   8.357
 2503POPC   C3A33761  20.094  13.158   8.053
 2503POPC   C4A33762  20.064  13.364   7.691
 2503POPC   C1B33763  19.788  14.068   8.686
 2503POPC   C2B33764  19.668  13.847   8.316
 2503POPC   C3B33765  19.784  13.802   7.887
 2503POPC   C4B33766  19.592  14.069   7.588
 2504POPC   NC333767   5.228   3.709   9.603
 2504POPC   PO433768   4.772   3.281   9.501
 2504POPC   GL133769   4.910   3.645   9.222
 2504POPC   GL233770   5.278   3.597   9.111
 2504POPC   C1A33771   4.949   3.866   8.818
 2504POPC   D2A33772   5.093   3.635   8.457
 2504POPC   C3A33773   5.128   3.828   8.084
 2504POPC   C4A33774   5.064   3.628   7.700
 2504POPC   C1B33775   5.024   3.301   8.849
 2504POPC   C2B33776   4.789   3.206   8.473
 2504POPC   C3B33777   4.933   3.254   8.046
 2504POPC   C4B33778   4.752   3.229   7.625
 2505POPC   NC333779  31.311   0.162   9.454
 2505POPC   PO433780  31.423  44.500   9.553
 2505POPC   GL133781  31.544  44.459   9.105
 2505POPC   GL233782  31.448  44.804   9.106
 2505POPC   C1A33783  31.374  44.515   8.677
 2505POPC   D2A33784  31.021  44.557   8.376
 2505POPC   C3A33785  31.136  44.400   7.954
 2505POPC   C4A33786  31.557  44.336   7.820
 2505POPC   C1B33787  31.110  44.946   8.831
 2505POPC   C2B33788  31.147   0.082   8.413
 2505POPC   C3B33789  31.308  44.871   8.068
 2505POPC   C4B33790  31.274  44.819   7.666
 2506POPC   NC333791   2.739  25.497   9.954
 2506POPC   PO433792   2.839  25.102   9.417
 2506POPC   GL133793   2.969  25.354   9.105
 2506POPC   GL233794   2.610  25.410   9.034
 2506POPC   C1A33795   2.971  25.400   8.662
 2506POPC   D2A33796   2.751  25.645   8.341
 2506POPC   C3A33797   2.910  25.550   7.950
 2506POPC   C4A33798   2.882  25.128   7.854
 2506POPC   C1B33799   2.513  25.047   8.730
 2506POPC   C2B33800   2.331  24.966   8.293
 2506POPC   C3B33801   2.401  24.969   7.834
 2506POPC   C4B33802   2.461  24.968   7.344
 2507POPC   NC333803   9.408  21.888   9.660
 2507POPC   PO433804  10.002  22.142   9.529
 2507POPC   GL133805   9.908  22.230   9.146
 2507POPC   GL233806   9.558  22.169   9.185
 2507POPC   C1A33807   9.895  22.393   8.723
 2507POPC   D2A33808   9.727  22.478   8.312
 2507POPC   C3A33809   9.920  22.348   7.882
 2507POPC   C4A33810   9.806  21.946   7.635
 2507POPC   C1B33811   9.576  21.988   8.805
 2507POPC   C2B33812   9.395  22.045   8.423
 2507POPC   C3B33813   9.468  22.157   7.993
 2507POPC   C4B33814   9.385  22.238   7.558
 2508POPC   NC333815   1.526   6.792   9.258
 2508POPC   PO433816   1.239   6.410   9.752
 2508POPC   GL133817   1.168   6.372   9.276
 2508POPC   GL233818   1.442   6.228   9.069
 2508POPC   C1A33819   1.101   6.583   8.839
 2508POPC   D2A33820   1.226   6.815   8.482
 2508POPC   C3A33821   1.385   6.738   8.070
 2508POPC   C4A33822   1.106   6.857   7.758
 2508POPC   C1B33823   1.175   6.124   8.700
 2508POPC   C2B33824   1.063   6.342   8.279
 2508POPC   C3B33825   1.173   6.353   7.814
 2508POPC   C4B33826   1.444   6.561   7.497
 2509POPC   NC333827  18.024   9.289   9.472
 2509POPC   PO433828  18.315   8.647   9.356
 2509POPC   GL133829  18.314   8.983   9.069
 2509POPC   GL233830  18.398   9.315   9.141
 2509POPC   C1A33831  18.536   9.028   8.686
 2509POPC   D2A33832  18.641   8.996   8.276
 2509POPC   C3A33833  18.318   8.890   8.014
 2509POPC   C4A33834  18.404   8.923   7.604
 2509POPC   C1B33835  18.271   9.460   8.746
 2509POPC   C2B33836  18.261   9.362   8.302
 2509POPC   C3B33837  18.448   9.369   7.913
 2509POPC   C4B33838  18.319   9.386   7.469
 2510POPC   NC333839  43.580   8.977   9.537
 2510POPC   PO433840  42.902   9.141   9.529
 2510POPC   GL133841  43.007   8.879   9.214
 2510POPC   GL233842  43.300   8.981   9.102
 2510POPC   C1A33843  42.939   8.858   8.772
 2510POPC   D2A33844  43.173   8.853   8.384
 2510POPC   C3A33845  42.925   8.799   8.030
 2510POPC   C4A33846  43.159   8.796   7.658
 2510POPC   C1B33847  43.404   9.213   8.762
 2510POPC   C2B33848  43.471   9.291   8.348
 2510POPC   C3B33849  43.297   9.218   7.915
 2510POPC   C4B33850  43.291   9.267   7.432
 2511POPC   NC333851  24.992  11.325   9.520
 2511POPC   PO433852  25.621  11.376   9.454
 2511POPC   GL133853  25.404  11.554   9.137
 2511POPC   GL233854  25.224  11.263   9.060
 2511POPC   C1A33855  25.549  11.517   8.727
 2511POPC   D2A33856  25.369  11.630   8.326
 2511POPC   C3A33857  25.498  11.315   8.021
 2511POPC   C4A33858  25.430  11.108   7.617
 2511POPC   C1B33859  25.065  11.408   8.666
 2511POPC   C2B33860  24.898  11.446   8.242
 2511POPC   C3B33861  25.050  11.449   7.793
 2511POPC   C4B33862  24.978  11.242   7.385
 2512POPC   NC333863  32.097   8.113   9.598
 2512POPC   PO433864  32.515   7.684   9.430
 2512POPC   GL133865  32.393   8.072   9.158
 2512POPC   GL233866  32.101   8.291   9.138
 2512POPC   C1A33867  32.456   8.204   8.726
 2512POPC   D2A33868  32.417   8.039   8.307
 2512POPC   C3A33869  32.490   8.214   7.895
 2512POPC   C4A33870  32.219   8.517   7.679
 2512POPC   C1B33871  31.968   8.052   8.832
 2512POPC   C2B33872  31.886   8.199   8.469
 2512POPC   C3B33873  32.026   8.334   8.103
 2512POPC   C4B33874  32.005   8.036   7.754
 2513POPC   NC333875  10.263  17.633   9.590
 2513POPC   PO433876  10.656  17.071   9.547
 2513POPC   GL133877  10.378  17.289   9.243
 2513POPC   GL233878  10.514  17.611   9.136
 2513POPC   C1A33879  10.319  17.238   8.821
 2513POPC   D2A33880  10.317  17.443   8.459
 2513POPC   C3A33881  10.436  17.227   8.108
 2513POPC   C4A33882  10.266  17.173   7.692
 2513POPC   C1B33883  10.760  17.636   8.775
 2513POPC   C2B33884  10.848  17.581   8.366
 2513POPC   C3B33885  10.540  17.717   8.101
 2513POPC   C4B33886  10.603  17.567   7.750
 2514POPC   NC333887  38.462  11.082   9.638
 2514POPC   PO433888  38.327  11.769   9.697
 2514POPC   GL133889  38.579  11.530   9.321
 2514POPC   GL233890  38.480  11.189   9.156
 2514POPC   C1A33891  38.688  11.504   8.846
 2514POPC   D2A33892  38.543  11.607   8.437
 2514POPC   C3A33893  38.700  11.432   8.047
 2514POPC   C4A33894  38.376  11.437   7.774
 2514POPC   C1B33895  38.329  11.099   8.746
 2514POPC   C2B33896  38.408  11.082   8.300
 2514POPC   C3B33897  38.170  11.005   7.921
 2514POPC   C4B33898  38.186  11.085   7.468
 2515POPC   NC333899  15.837   6.937   9.436
 2515POPC   PO433900  15.781   6.296   9.688
 2515POPC   GL133901  15.955   6.417   9.267
 2515POPC   GL233902  16.262   6.650   9.309
 2515POPC   C1A33903  15.794   6.529   8.827
 2515POPC   D2A33904  15.796   6.479   8.357
 2515POPC   C3A33905  15.901   6.800   8.022
 2515POPC   C4A33906  15.689   6.735   7.603
 2515POPC   C1B33907  16.316   6.558   8.868
 2515POPC   C2B33908  16.343   6.592   8.415
 2515POPC   C3B33909  16.355   6.514   7.968
 2515POPC   C4B33910  16.188   6.672   7.572
 2516POPC   NC333911  22.013  25.882   9.449
 2516POPC   PO433912  22.682  26.057   9.470
 2516POPC   GL133913  22.418  26.073   9.157
 2516POPC   GL233914  22.190  26.371   9.256
 2516POPC   C1A33915  22.299  25.787   8.815
 2516POPC   D2A33916  22.123  25.838   8.403
 2516POPC   C3A33917  22.372  26.122   8.138
 2516POPC   C4A33918  22.297  26.024   7.708
 2516POPC   C1B33919  22.053  26.238   8.832
 2516POPC   C2B33920  21.912  26.336   8.419
 2516POPC   C3B33921  21.896  26.213   7.984
 2516POPC   C4B33922  21.703  26.006   7.695
 2517POPC   NC333923  17.229   8.609   9.477
 2517POPC   PO433924  17.558   9.256   9.499
 2517POPC   GL133925  17.485   8.986   9.205
 2517POPC   GL233926  17.757   8.741   9.266
 2517POPC   C1A33927  17.388   9.159   8.826
 2517POPC   D2A33928  17.503   8.978   8.467
 2517POPC   C3A33929  17.288   9.119   8.135
 2517POPC   C4A33930  17.469   9.102   7.755
 2517POPC   C1B33931  17.865   8.941   8.865
 2517POPC   C2B33932  18.037   8.939   8.459
 2517POPC   C3B33933  17.817   8.861   8.070
 2517POPC   C4B33934  17.911   8.842   7.620
 2518POPC   NC333935  25.419  34.151   9.613
 2518POPC   PO433936  24.943  34.666   9.498
 2518POPC   GL133937  25.157  34.623   9.112
 2518POPC   GL233938  25.500  34.532   9.232
 2518POPC   C1A33939  25.356  34.688   8.679
 2518POPC   D2A33940  25.468  34.952   8.299
 2518POPC   C3A33941  25.328  34.744   7.911
 2518POPC   C4A33942  25.030  34.507   7.683
 2518POPC   C1B33943  25.426  34.215   8.915
 2518POPC   C2B33944  25.257  34.083   8.504
 2518POPC   C3B33945  25.236  34.204   8.068
 2518POPC   C4B33946  25.519  34.293   7.755
 2519POPC   NC333947   6.975  39.685   9.218
 2519POPC   PO433948   7.309  40.117   9.506
 2519POPC   GL133949   7.189  40.271   9.122
 2519POPC   GL233950   7.330  39.969   8.925
 2519POPC   C1A33951   7.320  40.427   8.711
 2519POPC   D2A33952   7.545  40.215   8.393
 2519POPC   C3A33953   7.339  40.373   8.065
 2519POPC   C4A33954   7.261  40.219   7.671
 2519POPC   C1B33955   7.689  39.767   8.662
 2519POPC   C2B33956   7.795  39.748   8.205
 2519POPC   C3B33957   7.670  39.778   7.749
 2519POPC   C4B33958   7.447  39.853   7.354
 2520POPC   NC333959   2.229  42.649   9.765
 2520POPC   PO433960   2.826  42.464   9.367
 2520POPC   GL133961   2.606  42.386   8.994
 2520POPC   GL233962   2.488  42.073   8.994
 2520POPC   C1A33963   2.453  42.421   8.597
 2520POPC   D2A33964   2.704  42.282   8.285
 2520POPC   C3A33965   2.687  42.484   7.913
 2520POPC   C4A33966   2.443  42.308   7.598
 2520POPC   C1B33967   2.913  42.093   8.734
 2520POPC   C2B33968   3.179  42.109   8.354
 2520POPC   C3B33969   3.096  42.187   7.905
 2520POPC   C4B33970   3.110  42.103   7.431
 2521POPC   NC333971  12.949  13.475   9.532
 2521POPC   PO433972  12.841  14.178   9.521
 2521POPC   GL133973  12.980  13.858   9.183
 2521POPC   GL233974  12.844  13.489   9.046
 2521POPC   C1A33975  12.957  13.866   8.745
 2521POPC   D2A33976  12.885  13.552   8.415
 2521POPC   C3A33977  13.058  13.803   8.074
 2521POPC   C4A33978  13.049  14.016   7.691
 2521POPC   C1B33979  13.033  13.174   8.783
 2521POPC   C2B33980  13.231  13.096   8.393
 2521POPC   C3B33981  13.023  13.248   8.023
 2521POPC   C4B33982  13.085  13.485   7.682
 2522POPC   NC333983   7.491  40.544   9.562
 2522POPC   PO433984   6.832  40.507   9.573
 2522POPC   GL133985   7.141  40.800   9.214
 2522POPC   GL233986   7.479  40.918   9.217
 2522POPC   C1A33987   7.346  40.961   8.747
 2522POPC   D2A33988   7.581  41.123   8.374
 2522POPC   C3A33989   7.313  41.053   7.996
 2522POPC   C4A33990   7.281  40.732   7.691
 2522POPC   C1B33991   7.728  40.664   8.919
 2522POPC   C2B33992   7.812  40.659   8.463
 2522POPC   C3B33993   7.719  40.729   8.021
 2522POPC   C4B33994   7.795  41.111   7.795
 2523POPC   NC333995   6.267  27.845   9.426
 2523POPC   PO433996   5.700  27.478   9.470
 2523POPC   GL133997   5.833  27.730   9.169
 2523POPC   GL233998   6.090  27.475   9.134
 2523POPC   C1A33999   5.765  27.876   8.771
 2523POPC   D2A34000   5.815  27.617   8.408
 2523POPC   C3A34001   5.898  27.799   7.991
 2523POPC   C4A34002   5.899  27.713   7.478
 2523POPC   C1B34003   6.205  27.579   8.786
 2523POPC   C2B34004   6.337  27.373   8.481
 2523POPC   C3B34005   6.164  27.373   8.145
 2523POPC   C4B34006   6.220  27.485   7.763
 2524POPC   NC334007   3.302  39.650   9.424
 2524POPC   PO434008   3.969  39.482   9.288
 2524POPC   GL134009   3.822  39.087   9.154
 2524POPC   GL234010   3.434  39.063   9.143
 2524POPC   C1A34011   3.786  39.024   8.723
 2524POPC   D2A34012   3.457  39.007   8.426
 2524POPC   C3A34013   3.574  39.134   8.050
 2524POPC   C4A34014   3.722  39.331   7.694
 2524POPC   C1B34015   3.340  39.342   8.782
 2524POPC   C2B34016   3.401  39.572   8.362
 2524POPC   C3B34017   3.239  39.494   7.924
 2524POPC   C4B34018   3.260  39.393   7.471
 2525POPC   NC334019   5.208  11.102   9.539
 2525POPC   PO434020   4.831  11.601   9.693
 2525POPC   GL134021   5.013  11.493   9.282
 2525POPC   GL234022   5.386  11.532   9.297
 2525POPC   C1A34023   5.019  11.295   8.839
 2525POPC   D2A34024   5.233  10.987   8.535
 2525POPC   C3A34025   5.263  11.117   8.088
 2525POPC   C4A34026   4.873  11.206   7.838
 2525POPC   C1B34027   5.529  11.335   8.922
 2525POPC   C2B34028   5.608  11.357   8.503
 2525POPC   C3B34029   5.557  11.610   8.149
 2525POPC   C4B34030   5.386  11.512   7.779
 2526POPC   NC334031  11.720   2.103   9.527
 2526POPC   PO434032  11.058   1.911   9.403
 2526POPC   GL134033  11.218   1.764   9.079
 2526POPC   GL234034  10.935   1.539   8.977
 2526POPC   C1A34035  11.507   1.970   8.822
 2526POPC   D2A34036  11.459   2.253   8.471
 2526POPC   C3A34037  11.108   2.238   8.138
 2526POPC   C4A34038  11.239   2.219   7.693
 2526POPC   C1B34039  11.310   1.489   8.680
 2526POPC   C2B34040  11.521   1.704   8.389
 2526POPC   C3B34041  11.528   1.952   8.056
 2526POPC   C4B34042  11.269   1.727   7.773
 2527POPC   NC334043  45.000  29.362   9.539
 2527POPC   PO434044  44.317  29.368   9.687
 2527POPC   GL134045  44.524  29.263   9.271
 2527POPC   GL234046  44.729  28.983   9.254
 2527POPC   C1A34047  44.523  29.210   8.815
 2527POPC   D2A34048  44.625  29.395   8.413
 2527POPC   C3A34049  44.517  29.173   8.013
 2527POPC   C4A34050  44.453  29.239   7.591
 2527POPC   C1B34051   0.017  29.055   8.915
 2527POPC   C2B34052   0.089  28.957   8.508
 2527POPC   C3B34053   0.010  29.154   8.165
 2527POPC   C4B34054  44.997  29.069   7.777
 2528POPC   NC334055  31.174  26.967   9.599
 2528POPC   PO434056  31.785  26.677   9.623
 2528POPC   GL134057  31.537  26.816   9.258
 2528POPC   GL234058  31.176  26.670   9.191
 2528POPC   C1A34059  31.571  26.989   8.845
 2528POPC   D2A34060  31.688  26.732   8.498
 2528POPC   C3A34061  31.409  26.776   8.168
 2528POPC   C4A34062  31.399  27.174   7.985
 2528POPC   C1B34063  31.237  26.589   8.748
 2528POPC   C2B34064  30.991  26.494   8.369
 2528POPC   C3B34065  31.121  26.385   7.963
 2528POPC   C4B34066  31.410  26.498   7.671
 2529POPC   NC334067  31.913  21.471   9.788
 2529POPC   PO434068  31.369  21.716   9.542
 2529POPC   GL134069  31.384  21.587   9.125
 2529POPC   GL234070  31.680  21.432   9.026
 2529POPC   C1A34071  31.287  21.521   8.696
 2529POPC   D2A34072  31.531  21.411   8.345
 2529POPC   C3A34073  31.327  21.243   8.005
 2529POPC   C4A34074  31.354  21.504   7.650
 2529POPC   C1B34075  31.711  21.086   8.686
 2529POPC   C2B34076  31.952  21.134   8.278
 2529POPC   C3B34077  31.843  21.341   7.836
 2529POPC   C4B34078  31.893  21.330   7.336
 2530POPC   NC334079  28.732  29.049   9.555
 2530POPC   PO434080  28.184  29.330   9.576
 2530POPC   GL134081  28.347  29.066   9.196
 2530POPC   GL234082  28.673  28.835   9.119
 2530POPC   C1A34083  28.406  29.183   8.779
 2530POPC   D2A34084  28.162  29.009   8.451
 2530POPC   C3A34085  28.337  29.054   8.047
 2530POPC   C4A34086  28.015  29.132   7.731
 2530POPC   C1B34087  28.480  28.693   8.764
 2530POPC   C2B34088  28.505  28.642   8.357
 2530POPC   C3B34089  28.415  28.544   7.969
 2530POPC   C4B34090  28.364  28.778   7.605
 2531POPC   NC334091   4.251   1.047   9.648
 2531POPC   PO434092   4.480   0.395   9.668
 2531POPC   GL134093   4.307   0.500   9.242
 2531POPC   GL234094   4.529   0.257   9.101
 2531POPC   C1A34095   4.163   0.455   8.790
 2531POPC   D2A34096   4.226   0.260   8.366
 2531POPC   C3A34097   4.223   0.430   7.936
 2531POPC   C4A34098   4.000   0.368   7.526
 2531POPC   C1B34099   4.665   0.373   8.688
 2531POPC   C2B34100   4.727   0.338   8.241
 2531POPC   C3B34101   4.742   0.487   7.827
 2531POPC   C4B34102   4.472   0.683   7.508
 2532POPC   NC334103   3.379  18.250   9.542
 2532POPC   PO434104   3.786  17.756   9.451
 2532POPC   GL134105   3.498  17.955   9.127
 2532POPC   GL234106   3.504  18.347   9.071
 2532POPC   C1A34107   3.558  18.056   8.666
 2532POPC   D2A34108   3.596  17.959   8.225
 2532POPC   C3A34109   3.639  18.283   7.930
 2532POPC   C4A34110   4.032  18.152   7.755
 2532POPC   C1B34111   3.262  18.530   8.737
 2532POPC   C2B34112   3.328  18.615   8.318
 2532POPC   C3B34113   3.137  18.574   7.950
 2532POPC   C4B34114   3.329  18.560   7.557
 2533POPC   NC334115   1.699  22.727   9.543
 2533POPC   PO434116   1.075  22.828   9.692
 2533POPC   GL134117   1.276  22.955   9.327
 2533POPC   GL234118   1.331  22.642   9.200
 2533POPC   C1A34119   1.171  23.020   8.891
 2533POPC   D2A34120   1.330  22.975   8.469
 2533POPC   C3A34121   1.163  23.232   8.140
 2533POPC   C4A34122   1.197  23.044   7.748
 2533POPC   C1B34123   1.567  22.655   8.816
 2533POPC   C2B34124   1.463  22.490   8.373
 2533POPC   C3B34125   1.395  22.618   7.945
 2533POPC   C4B34126   1.649  22.801   7.629
 2534POPC   NC334127  24.100  32.577   9.385
 2534POPC   PO434128  24.462  32.053   9.649
 2534POPC   GL134129  24.441  32.214   9.228
 2534POPC   GL234130  24.340  31.894   9.136
 2534POPC   C1A34131  24.599  32.453   8.848
 2534POPC   D2A34132  24.900  32.463   8.495
 2534POPC   C3A34133  24.851  32.187   8.143
 2534POPC   C4A34134  24.770  32.320   7.695
 2534POPC   C1B34135  24.498  31.943   8.754
 2534POPC   C2B34136  24.395  32.217   8.447
 2534POPC   C3B34137  24.349  32.200   8.057
 2534POPC   C4B34138  24.325  32.056   7.686
 2535POPC   NC334139  32.542  42.309   9.342
 2535POPC   PO434140  32.031  42.544   9.758
 2535POPC   GL134141  31.961  42.396   9.285
 2535POPC   GL234142  32.090  42.123   9.159
 2535POPC   C1A34143  32.004  42.435   8.779
 2535POPC   D2A34144  32.394  42.500   8.524
 2535POPC   C3A34145  32.414  42.691   8.124
 2535POPC   C4A34146  32.373  42.525   7.731
 2535POPC   C1B34147  32.334  42.036   8.806
 2535POPC   C2B34148  32.196  42.029   8.410
 2535POPC   C3B34149  32.047  42.294   8.094
 2535POPC   C4B34150  31.888  42.348   7.684
 2536POPC   NC334151  29.399  35.127   9.417
 2536POPC   PO434152  28.954  35.557   9.478
 2536POPC   GL134153  29.164  35.514   9.135
 2536POPC   GL234154  29.007  35.180   9.090
 2536POPC   C1A34155  29.102  35.565   8.709
 2536POPC   D2A34156  29.417  35.478   8.394
 2536POPC   C3A34157  29.137  35.569   8.091
 2536POPC   C4A34158  29.062  35.594   7.668
 2536POPC   C1B34159  29.292  35.098   8.758
 2536POPC   C2B34160  29.124  35.049   8.329
 2536POPC   C3B34161  29.159  35.117   7.892
 2536POPC   C4B34162  28.942  35.103   7.539
 2537POPC   NC334163  12.774  44.374   9.605
 2537POPC   PO434164  13.143  44.820   9.414
 2537POPC   GL134165  12.803  44.623   9.164
 2537POPC   GL234166  12.813  44.249   9.127
 2537POPC   C1A34167  12.759  44.606   8.745
 2537POPC   D2A34168  13.023  44.814   8.503
 2537POPC   C3A34169  12.900  44.653   8.115
 2537POPC   C4A34170  13.083  44.674   7.734
 2537POPC   C1B34171  13.068  44.147   8.795
 2537POPC   C2B34172  12.972  44.196   8.390
 2537POPC   C3B34173  12.631  44.201   8.121
 2537POPC   C4B34174  12.756  44.242   7.715
 2538POPC   NC334175   2.934  38.059   9.466
 2538POPC   PO434176   2.775  37.455   9.283
 2538POPC   GL134177   2.840  37.808   9.051
 2538POPC   GL234178   2.505  37.957   9.076
 2538POPC   C1A34179   3.055  37.803   8.706
 2538POPC   D2A34180   2.813  37.521   8.458
 2538POPC   C3A34181   2.875  37.500   8.029
 2538POPC   C4A34182   3.069  37.863   7.873
 2538POPC   C1B34183   2.572  37.957   8.629
 2538POPC   C2B34184   2.426  37.826   8.246
 2538POPC   C3B34185   2.564  37.874   7.837
 2538POPC   C4B34186   2.800  37.668   7.499
 2539POPC   NC334187  38.204  38.677   9.386
 2539POPC   PO434188  38.671  38.938   9.805
 2539POPC   GL134189  38.609  39.004   9.353
 2539POPC   GL234190  38.262  39.166   9.263
 2539POPC   C1A34191  38.661  39.194   8.940
 2539POPC   D2A34192  38.451  39.229   8.533
 2539POPC   C3A34193  38.663  39.453   8.182
 2539POPC   C4A34194  38.745  39.252   7.795
 2539POPC   C1B34195  38.054  39.041   8.853
 2539POPC   C2B34196  37.860  39.108   8.452
 2539POPC   C3B34197  37.893  39.085   8.015
 2539POPC   C4B34198  38.214  39.232   7.742
 2540POPC   NC334199  31.421  13.341   9.736
 2540POPC   PO434200  31.607  13.979   9.427
 2540POPC   GL134201  31.473  14.014   9.057
 2540POPC   GL234202  31.712  13.749   8.926
 2540POPC   C1A34203  31.271  13.828   8.713
 2540POPC   D2A34204  31.529  13.642   8.421
 2540POPC   C3A34205  31.431  13.869   8.100
 2540POPC   C4A34206  31.289  13.691   7.729
 2540POPC   C1B34207  31.975  13.509   8.665
 2540POPC   C2B34208  31.994  13.441   8.227
 2540POPC   C3B34209  31.811  13.617   7.865
 2540POPC   C4B34210  31.659  13.399   7.517
 2541POPC   NC334211   2.914  36.552   9.605
 2541POPC   PO434212   2.837  37.138   9.719
 2541POPC   GL134213   2.851  36.939   9.253
 2541POPC   GL234214   2.590  36.684   9.234
 2541POPC   C1A34215   2.814  37.064   8.782
 2541POPC   D2A34216   2.541  37.095   8.428
 2541POPC   C3A34217   2.745  36.985   8.041
 2541POPC   C4A34218   2.780  37.121   7.606
 2541POPC   C1B34219   2.620  36.606   8.791
 2541POPC   C2B34220   2.488  36.602   8.347
 2541POPC   C3B34221   2.759  36.450   8.034
 2541POPC   C4B34222   2.975  36.519   7.666
 2542POPC   NC334223  23.830  18.894   9.266
 2542POPC   PO434224  23.437  19.440   9.502
 2542POPC   GL134225  23.552  19.264   9.035
 2542POPC   GL234226  23.939  19.183   8.896
 2542POPC   C1A34227  23.598  19.216   8.567
 2542POPC   D2A34228  23.709  18.858   8.336
 2542POPC   C3A34229  23.531  18.908   7.926
 2542POPC   C4A34230  23.678  19.236   7.620
 2542POPC   C1B34231  24.253  18.841   8.761
 2542POPC   C2B34232  24.253  18.652   8.351
 2542POPC   C3B34233  23.967  18.563   8.013
 2542POPC   C4B34234  23.911  18.763   7.624
 2543POPC   NC334235   3.778  14.620   9.600
 2543POPC   PO434236   3.326  14.208   9.605
 2543POPC   GL134237   3.571  14.319   9.223
 2543POPC   GL234238   3.543  14.682   9.152
 2543POPC   C1A34239   3.520  14.223   8.760
 2543POPC   D2A34240   3.231  14.269   8.364
 2543POPC   C3A34241   3.362  14.237   7.919
 2543POPC   C4A34242   3.235  14.372   7.491
 2543POPC   C1B34243   3.846  14.623   8.843
 2543POPC   C2B34244   3.706  14.561   8.420
 2543POPC   C3B34245   3.869  14.349   8.053
 2543POPC   C4B34246   3.727  14.488   7.655
 2544POPC   NC334247  31.150   9.480   9.464
 2544POPC   PO434248  31.504  10.025   9.686
 2544POPC   GL134249  31.461   9.845   9.266
 2544POPC   GL234250  31.606   9.481   9.194
 2544POPC   C1A34251  31.349   9.766   8.847
 2544POPC   D2A34252  31.509   9.938   8.454
 2544POPC   C3A34253  31.369   9.798   8.041
 2544POPC   C4A34254  31.094   9.944   7.732
 2544POPC   C1B34255  31.382   9.243   8.836
 2544POPC   C2B34256  31.229   9.155   8.407
 2544POPC   C3B34257  31.064   9.322   8.055
 2544POPC   C4B34258  31.200   9.468   7.675
 2545POPC   NC334259   6.051  15.008   9.508
 2545POPC   PO434260   5.409  15.239   9.594
 2545POPC   GL134261   5.593  15.082   9.177
 2545POPC   GL234262   5.888  15.267   9.087
 2545POPC   C1A34263   5.633  15.109   8.681
 2545POPC   D2A34264   5.737  15.345   8.285
 2545POPC   C3A34265   5.792  15.125   7.894
 2545POPC   C4A34266   6.160  14.885   7.744
 2545POPC   C1B34267   5.998  15.495   8.698
 2545POPC   C2B34268   6.212  15.605   8.313
 2545POPC   C3B34269   5.987  15.596   7.913
 2545POPC   C4B34270   6.112  15.348   7.537
 2546POPC   NC334271  20.672  10.382   9.520
 2546POPC   PO434272  20.555  11.014   9.541
 2546POPC   GL134273  20.448  10.735   9.161
 2546POPC   GL234274  20.417  10.338   9.072
 2546POPC   C1A34275  20.658  10.610   8.740
 2546POPC   D2A34276  20.913  10.335   8.474
 2546POPC   C3A34277  20.831  10.406   8.036
 2546POPC   C4A34278  20.533  10.611   7.828
 2546POPC   C1B34279  20.345  10.193   8.621
 2546POPC   C2B34280  20.281  10.266   8.167
 2546POPC   C3B34281  20.464  10.115   7.780
 2546POPC   C4B34282  20.808  10.216   7.509
 2547POPC   NC334283  41.123  37.293   9.617
 2547POPC   PO434284  41.375  36.663   9.410
 2547POPC   GL134285  41.419  36.989   9.147
 2547POPC   GL234286  41.057  37.111   9.151
 2547POPC   C1A34287  41.598  36.900   8.730
 2547POPC   D2A34288  41.494  36.683   8.334
 2547POPC   C3A34289  41.754  36.925   8.028
 2547POPC   C4A34290  41.922  36.851   7.612
 2547POPC   C1B34291  41.110  37.083   8.713
 2547POPC   C2B34292  41.367  37.210   8.364
 2547POPC   C3B34293  41.252  36.971   7.996
 2547POPC   C4B34294  41.108  36.540   7.990
 2548POPC   NC334295  26.376  39.401   9.375
 2548POPC   PO434296  25.880  38.851   9.446
 2548POPC   GL134297  26.079  39.072   9.127
 2548POPC   GL234298  26.013  38.877   8.844
 2548POPC   C1A34299  26.018  39.392   8.801
 2548POPC   D2A34300  25.940  39.233   8.413
 2548POPC   C3A34301  26.093  39.505   8.150
 2548POPC   C4A34302  26.036  39.599   7.754
 2548POPC   C1B34303  26.378  39.027   8.655
 2548POPC   C2B34304  26.442  39.064   8.238
 2548POPC   C3B34305  26.110  39.042   7.949
 2548POPC   C4B34306  26.389  39.221   7.702
 2549POPC   NC334307  20.879  11.378   9.514
 2549POPC   PO434308  20.642  12.001   9.679
 2549POPC   GL134309  20.551  11.694   9.264
 2549POPC   GL234310  20.692  11.396   9.043
 2549POPC   C1A34311  20.511  11.794   8.794
 2549POPC   D2A34312  20.606  11.500   8.433
 2549POPC   C3A34313  20.721  11.635   7.994
 2549POPC   C4A34314  20.539  11.524   7.605
 2549POPC   C1B34315  20.444  11.070   8.774
 2549POPC   C2B34316  20.458  10.894   8.340
 2549POPC   C3B34317  20.534  11.102   7.938
 2549POPC   C4B34318  20.500  11.029   7.483
 2550POPC   NC334319  29.405  43.512   9.387
 2550POPC   PO434320  29.422  44.112   9.749
 2550POPC   GL134321  29.418  44.039   9.270
 2550POPC   GL234322  29.105  43.841   9.178
 2550POPC   C1A34323  29.468  43.896   8.801
 2550POPC   D2A34324  29.301  43.733   8.391
 2550POPC   C3A34325  29.489  43.728   7.969
 2550POPC   C4A34326  29.274  43.892   7.605
 2550POPC   C1B34327  28.941  43.725   8.768
 2550POPC   C2B34328  28.850  43.471   8.402
 2550POPC   C3B34329  28.985  43.635   7.987
 2550POPC   C4B34330  28.770  43.811   7.632
 2551POPC   NC334331  40.980  20.591   9.317
 2551POPC   PO434332  41.612  20.594   9.524
 2551POPC   GL134333  41.694  20.898   9.176
 2551POPC   GL234334  41.357  20.975   9.127
 2551POPC   C1A34335  41.920  20.895   8.758
 2551POPC   D2A34336  41.746  20.775   8.324
 2551POPC   C3A34337  41.858  20.385   8.114
 2551POPC   C4A34338  41.709  20.296   7.722
 2551POPC   C1B34339  41.454  20.658   8.791
 2551POPC   C2B34340  41.276  20.536   8.394
 2551POPC   C3B34341  41.341  20.577   7.949
 2551POPC   C4B34342  40.987  20.508   7.631
 2552POPC   NC334343  35.813  41.523   9.493
 2552POPC   PO434344  36.459  41.065   9.377
 2552POPC   GL134345  36.133  41.152   9.108
 2552POPC   GL234346  36.015  41.469   9.046
 2552POPC   C1A34347  36.201  41.258   8.651
 2552POPC   D2A34348  35.995  41.416   8.295
 2552POPC   C3A34349  36.277  41.353   7.953
 2552POPC   C4A34350  36.180  41.466   7.504
 2552POPC   C1B34351  35.940  41.803   8.720
 2552POPC   C2B34352  36.073  41.956   8.301
 2552POPC   C3B34353  36.010  41.783   7.871
 2552POPC   C4B34354  35.971  41.945   7.418
 2553POPC   NC334355  26.637  38.151   9.627
 2553POPC   PO434356  27.160  37.772   9.760
 2553POPC   GL134357  26.990  37.778   9.253
 2553POPC   GL234358  26.713  37.519   9.102
 2553POPC   C1A34359  27.014  37.728   8.769
 2553POPC   D2A34360  26.815  37.824   8.365
 2553POPC   C3A34361  27.019  37.668   7.992
 2553POPC   C4A34362  26.867  37.858   7.632
 2553POPC   C1B34363  26.776  37.263   8.743
 2553POPC   C2B34364  26.757  37.311   8.287
 2553POPC   C3B34365  26.536  37.548   7.881
 2553POPC   C4B34366  26.614  37.413   7.441
 2554POPC   NC334367  39.005   3.184   9.457
 2554POPC   PO434368  39.020   3.820   9.675
 2554POPC   GL134369  39.264   3.724   9.243
 2554POPC   GL234370  39.183   3.427   9.047
 2554POPC   C1A34371  39.251   3.849   8.772
 2554POPC   D2A34372  39.085   3.623   8.414
 2554POPC   C3A34373  39.169   3.810   8.028
 2554POPC   C4A34374  39.085   3.795   7.587
 2554POPC   C1B34375  39.144   3.175   8.667
 2554POPC   C2B34376  39.164   3.177   8.205
 2554POPC   C3B34377  39.328   3.378   7.829
 2554POPC   C4B34378  39.142   3.317   7.404
 2555POPC   NC334379   1.666  27.339   9.504
 2555POPC   PO434380   2.335  27.626   9.488
 2555POPC   GL134381   2.049  27.490   9.198
 2555POPC   GL234382   1.843  27.782   9.265
 2555POPC   C1A34383   1.956  27.251   8.823
 2555POPC   D2A34384   2.059  27.476   8.448
 2555POPC   C3A34385   1.932  27.295   8.077
 2555POPC   C4A34386   1.821  27.511   7.684
 2555POPC   C1B34387   1.640  27.650   8.905
 2555POPC   C2B34388   1.640  27.816   8.517
 2555POPC   C3B34389   1.701  27.770   8.113
 2555POPC   C4B34390   1.587  27.971   7.768
 2556POPC   NC334391  25.047  30.957   9.459
 2556POPC   PO434392  25.535  30.460   9.580
 2556POPC   GL134393  25.382  30.663   9.203
 2556POPC   GL234394  25.039  30.513   9.161
 2556POPC   C1A34395  25.361  30.539   8.765
 2556POPC   D2A34396  25.613  30.503   8.393
 2556POPC   C3A34397  25.391  30.626   7.973
 2556POPC   C4A34398  25.370  30.873   7.570
 2556POPC   C1B34399  24.855  30.470   8.737
 2556POPC   C2B34400  25.054  30.497   8.352
 2556POPC   C3B34401  25.009  30.310   7.974
 2556POPC   C4B34402  25.023  30.488   7.539
 2557POPC   NC334403   1.946  18.544   9.737
 2557POPC   PO434404   1.624  18.053   9.304
 2557POPC   GL134405   1.964  18.090   8.954
 2557POPC   GL234406   2.018  18.445   8.788
 2557POPC   C1A34407   2.018  17.862   8.578
 2557POPC   D2A34408   2.346  17.827   8.260
 2557POPC   C3A34409   2.247  18.037   7.882
 2557POPC   C4A34410   2.163  18.053   7.461
 2557POPC   C1B34411   1.664  18.297   8.599
 2557POPC   C2B34412   1.896  18.248   8.262
 2557POPC   C3B34413   1.966  18.466   7.926
 2557POPC   C4B34414   1.717  18.269   7.626
 2558POPC   NC334415  44.675  32.722   9.290
 2558POPC   PO434416  44.387  32.120   9.447
 2558POPC   GL134417  44.371  32.288   9.085
 2558POPC   GL234418  44.685  32.261   8.991
 2558POPC   C1A34419  44.335  32.077   8.696
 2558POPC   D2A34420  44.551  32.122   8.324
 2558POPC   C3A34421  44.399  32.384   8.001
 2558POPC   C4A34422  44.536  32.468   7.572
 2558POPC   C1B34423  44.962  32.299   8.652
 2558POPC   C2B34424   0.055  32.138   8.274
 2558POPC   C3B34425  44.910  32.400   7.956
 2558POPC   C4B34426   0.061  32.546   7.581
 2559POPC   NC334427  37.289  32.707   9.389
 2559POPC   PO434428  36.877  33.220   9.506
 2559POPC   GL134429  36.991  33.041   9.150
 2559POPC   GL234430  36.822  32.740   9.195
 2559POPC   C1A34431  36.807  33.119   8.773
 2559POPC   D2A34432  36.697  33.356   8.428
 2559POPC   C3A34433  36.889  33.217   8.038
 2559POPC   C4A34434  37.083  33.043   7.677
 2559POPC   C1B34435  36.598  32.567   8.882
 2559POPC   C2B34436  36.585  32.762   8.482
 2559POPC   C3B34437  36.683  32.710   8.080
 2559POPC   C4B34438  36.599  32.891   7.710
 2560POPC   NC334439  35.429   6.303   9.684
 2560POPC   PO434440  34.994   6.629   9.357
 2560POPC   GL134441  35.380   6.549   9.131
 2560POPC   GL234442  35.152   6.367   8.945
 2560POPC   C1A34443  35.591   6.485   8.683
 2560POPC   D2A34444  35.429   6.233   8.319
 2560POPC   C3A34445  35.281   6.488   7.963
 2560POPC   C4A34446  35.483   6.850   7.723
 2560POPC   C1B34447  35.156   6.751   8.700
 2560POPC   C2B34448  35.011   6.731   8.314
 2560POPC   C3B34449  35.115   6.991   8.007
 2560POPC   C4B34450  35.034   7.026   7.554
 2561POPC   NC334451  33.147  35.714   9.606
 2561POPC   PO434452  33.080  35.073   9.598
 2561POPC   GL134453  33.317  35.108   9.222
 2561POPC   GL234454  33.305  35.463   9.132
 2561POPC   C1A34455  33.393  35.079   8.752
 2561POPC   D2A34456  33.278  35.418   8.421
 2561POPC   C3A34457  33.393  35.319   8.023
 2561POPC   C4A34458  33.445  34.960   7.760
 2561POPC   C1B34459  32.974  35.351   8.827
 2561POPC   C2B34460  32.774  35.338   8.408
 2561POPC   C3B34461  32.884  35.289   7.994
 2561POPC   C4B34462  32.932  35.333   7.562
 2562POPC   NC334463  27.461   9.327   9.358
 2562POPC   PO434464  27.848   9.851   9.430
 2562POPC   GL134465  27.948   9.800   9.053
 2562POPC   GL234466  27.875   9.431   9.016
 2562POPC   C1A34467  27.874   9.790   8.646
 2562POPC   D2A34468  27.624   9.648   8.312
 2562POPC   C3A34469  27.609   9.931   7.985
 2562POPC   C4A34470  27.188  10.026   7.909
 2562POPC   C1B34471  27.810   9.245   8.597
 2562POPC   C2B34472  27.918   9.285   8.148
 2562POPC   C3B34473  27.658   9.454   7.808
 2562POPC   C4B34474  27.732   9.248   7.407
 2563POPC   NC334475  38.947  40.969   9.828
 2563POPC   PO434476  39.486  40.565   9.537
 2563POPC   GL134477  39.391  40.792   9.101
 2563POPC   GL234478  39.358  40.509   8.881
 2563POPC   C1A34479  39.040  40.865   8.747
 2563POPC   D2A34480  39.127  40.862   8.302
 2563POPC   C3A34481  39.059  40.547   7.997
 2563POPC   C4A34482  38.860  40.304   7.685
 2563POPC   C1B34483  39.570  40.713   8.596
 2563POPC   C2B34484  39.546  40.565   8.214
 2563POPC   C3B34485  39.513  40.757   7.882
 2563POPC   C4B34486  39.461  40.424   7.632
 2564POPC   NC334487  14.296  18.664   9.582
 2564POPC   PO434488  14.094  18.045   9.508
 2564POPC   GL134489  14.268  18.187   9.107
 2564POPC   GL234490  14.154  18.562   9.075
 2564POPC   C1A34491  14.497  17.984   8.740
 2564POPC   D2A34492  14.731  18.153   8.416
 2564POPC   C3A34493  14.599  18.006   8.050
 2564POPC   C4A34494  14.320  18.178   7.769
 2564POPC   C1B34495  14.335  18.453   8.657
 2564POPC   C2B34496  14.402  18.487   8.209
 2564POPC   C3B34497  14.147  18.625   7.878
 2564POPC   C4B34498  14.080  18.526   7.402
 2565POPC   NC334499  25.790  11.832   9.394
 2565POPC   PO434500  25.158  12.183   9.464
 2565POPC   GL134501  25.417  12.077   9.115
 2565POPC   GL234502  25.579  12.364   8.964
 2565POPC   C1A34503  25.220  11.916   8.749
 2565POPC   D2A34504  25.008  12.105   8.415
 2565POPC   C3A34505  25.069  11.924   8.027
 2565POPC   C4A34506  25.489  11.789   7.846
 2565POPC   C1B34507  25.122  12.432   8.839
 2565POPC   C2B34508  24.991  12.634   8.457
 2565POPC   C3B34509  25.129  12.472   8.055
 2565POPC   C4B34510  25.478  12.289   7.819
 2566POPC   NC334511  29.457  24.337   9.361
 2566POPC   PO434512  28.854  24.145   9.420
 2566POPC   GL134513  29.039  24.377   9.077
 2566POPC   GL234514  29.020  24.725   9.126
 2566POPC   C1A34515  29.346  24.499   8.733
 2566POPC   D2A34516  29.158  24.474   8.320
 2566POPC   C3A34517  29.390  24.350   7.954
 2566POPC   C4A34518  29.266  23.985   7.716
 2566POPC   C1B34519  28.862  24.695   8.717
 2566POPC   C2B34520  28.900  24.926   8.371
 2566POPC   C3B34521  29.208  24.929   8.088
 2566POPC   C4B34522  29.153  24.896   7.710
 2567POPC   NC334523  38.341  26.038   9.681
 2567POPC   PO434524  38.706  25.426   9.554
 2567POPC   GL134525  38.519  25.809   9.242
 2567POPC   GL234526  38.252  26.120   9.201
 2567POPC   C1A34527  38.501  25.938   8.772
 2567POPC   D2A34528  38.662  25.979   8.339
 2567POPC   C3A34529  38.478  25.732   7.966
 2567POPC   C4A34530  38.330  25.684   7.500
 2567POPC   C1B34531  38.124  26.319   8.815
 2567POPC   C2B34532  38.274  26.345   8.400
 2567POPC   C3B34533  38.425  26.298   8.003
 2567POPC   C4B34534  38.154  26.110   7.718
 2568POPC   NC334535  42.701  42.523   9.764
 2568POPC   PO434536  42.282  42.065   9.516
 2568POPC   GL134537  42.395  42.277   9.072
 2568POPC   GL234538  42.771  42.309   8.940
 2568POPC   C1A34539  42.401  42.183   8.608
 2568POPC   D2A34540  42.490  42.468   8.274
 2568POPC   C3A34541  42.154  42.554   8.000
 2568POPC   C4A34542  42.137  42.390   7.581
 2568POPC   C1B34543  42.778  41.878   8.751
 2568POPC   C2B34544  42.668  41.702   8.360
 2568POPC   C3B34545  42.349  41.915   8.133
 2568POPC   C4B34546  42.428  42.015   7.700
 2569POPC   NC334547  29.418  41.443   9.488
 2569POPC   PO434548  28.752  41.411   9.519
 2569POPC   GL134549  28.972  41.681   9.184
 2569POPC   GL234550  29.329  41.653   9.039
 2569POPC   C1A34551  28.880  41.699   8.773
 2569POPC   D2A34552  28.892  41.303   8.548
 2569POPC   C3A34553  28.886  41.270   8.106
 2569POPC   C4A34554  28.952  41.624   7.847
 2569POPC   C1B34555  29.336  41.583   8.624
 2569POPC   C2B34556  29.262  41.553   8.270
 2569POPC   C3B34557  29.456  41.584   7.958
 2569POPC   C4B34558  29.424  41.722   7.546
 2570POPC   NC334559   2.822   3.751   9.549
 2570POPC   PO434560   2.411   3.183   9.433
 2570POPC   GL134561   2.809   3.379   9.192
 2570POPC   GL234562   2.657   3.706   9.084
 2570POPC   C1A34563   2.967   3.483   8.741
 2570POPC   D2A34564   2.784   3.230   8.372
 2570POPC   C3A34565   2.672   3.327   7.919
 2570POPC   C4A34566   2.501   3.081   7.547
 2570POPC   C1B34567   2.498   3.816   8.703
 2570POPC   C2B34568   2.686   3.749   8.306
 2570POPC   C3B34569   3.080   3.646   8.138
 2570POPC   C4B34570   3.123   3.530   7.729
 2571POPC   NC334571  16.503  33.158   9.453
 2571POPC   PO434572  17.171  33.173   9.462
 2571POPC   GL134573  16.907  33.194   9.091
 2571POPC   GL234574  16.667  32.922   9.038
 2571POPC   C1A34575  16.776  33.276   8.654
 2571POPC   D2A34576  16.537  33.069   8.292
 2571POPC   C3A34577  16.643  33.188   7.871
 2571POPC   C4A34578  16.923  33.055   7.517
 2571POPC   C1B34579  16.516  32.625   8.752
 2571POPC   C2B34580  16.534  32.496   8.324
 2571POPC   C3B34581  16.636  32.657   7.933
 2571POPC   C4B34582  16.324  32.835   7.693
 2572POPC   NC334583  43.511  34.002   9.488
 2572POPC   PO434584  42.769  33.948   9.518
 2572POPC   GL134585  42.942  33.695   9.182
 2572POPC   GL234586  43.303  33.644   9.160
 2572POPC   C1A34587  43.014  33.834   8.759
 2572POPC   D2A34588  42.895  33.960   8.327
 2572POPC   C3A34589  43.093  33.711   8.013
 2572POPC   C4A34590  43.059  33.607   7.575
 2572POPC   C1B34591  43.537  33.844   8.840
 2572POPC   C2B34592  43.419  33.869   8.423
 2572POPC   C3B34593  43.599  33.774   8.028
 2572POPC   C4B34594  43.474  33.891   7.658
 2573POPC   NC334595   8.649  41.604   9.520
 2573POPC   PO434596   9.327  41.770   9.492
 2573POPC   GL134597   9.023  41.647   9.155
 2573POPC   GL234598   8.954  41.297   9.171
 2573POPC   C1A34599   9.095  41.485   8.720
 2573POPC   D2A34600   9.229  41.381   8.329
 2573POPC   C3A34601   9.003  41.607   8.056
 2573POPC   C4A34602   9.090  41.680   7.622
 2573POPC   C1B34603   8.641  41.307   8.840
 2573POPC   C2B34604   8.640  41.522   8.435
 2573POPC   C3B34605   8.581  41.292   8.062
 2573POPC   C4B34606   8.868  41.237   7.726
 2574POPC   NC334607  29.825   2.027   9.882
 2574POPC   PO434608  29.865   1.698   9.315
 2574POPC   GL134609  29.977   1.858   8.972
 2574POPC   GL234610  29.862   2.186   9.140
 2574POPC   C1A34611  29.987   1.928   8.535
 2574POPC   D2A34612  29.997   2.277   8.267
 2574POPC   C3A34613  30.059   2.151   7.845
 2574POPC   C4A34614  30.154   1.764   7.603
 2574POPC   C1B34615  29.540   2.062   8.816
 2574POPC   C2B34616  29.476   1.864   8.446
 2574POPC   C3B34617  29.667   1.873   8.058
 2574POPC   C4B34618  29.609   1.979   7.633
 2575POPC   NC334619  43.172  17.262   9.483
 2575POPC   PO434620  42.960  17.893   9.443
 2575POPC   GL134621  43.198  17.642   9.130
 2575POPC   GL234622  42.905  17.467   9.108
 2575POPC   C1A34623  43.284  17.480   8.704
 2575POPC   D2A34624  43.066  17.322   8.310
 2575POPC   C3A34625  43.257  17.458   7.914
 2575POPC   C4A34626  43.417  17.835   7.700
 2575POPC   C1B34627  42.759  17.414   8.737
 2575POPC   C2B34628  42.479  17.306   8.411
 2575POPC   C3B34629  42.632  17.344   8.017
 2575POPC   C4B34630  42.833  17.261   7.658
 2576POPC   NC334631  11.385  32.081   9.562
 2576POPC   PO434632  10.932  32.479   9.745
 2576POPC   GL134633  11.307  32.408   9.217
 2576POPC   GL234634  11.171  32.048   9.085
 2576POPC   C1A34635  11.518  32.217   8.793
 2576POPC   D2A34636  11.424  32.026   8.379
 2576POPC   C3A34637  11.729  32.157   8.076
 2576POPC   C4A34638  11.694  32.345   7.681
 2576POPC   C1B34639  11.013  32.225   8.652
 2576POPC   C2B34640  10.881  32.579   8.386
 2576POPC   C3B34641  11.013  32.511   7.967
 2576POPC   C4B34642  11.229  32.160   7.782
 2577POPC   NC334643  17.180  27.783   9.410
 2577POPC   PO434644  17.846  27.600   9.479
 2577POPC   GL134645  17.619  27.720   9.141
 2577POPC   GL234646  17.801  27.987   9.118
 2577POPC   C1A34647  17.356  27.615   8.800
 2577POPC   D2A34648  17.331  27.261   8.506
 2577POPC   C3A34649  17.484  27.345   8.096
 2577POPC   C4A34650  17.417  27.755   7.870
 2577POPC   C1B34651  17.922  27.871   8.749
 2577POPC   C2B34652  17.714  27.722   8.398
 2577POPC   C3B34653  17.904  27.622   8.040
 2577POPC   C4B34654  17.803  27.415   7.675
 2578POPC   NC334655  10.649  33.672   9.598
 2578POPC   PO434656  10.375  34.282   9.463
 2578POPC   GL134657  10.400  33.971   9.132
 2578POPC   GL234658  10.429  33.616   9.139
 2578POPC   C1A34659  10.412  34.006   8.685
 2578POPC   D2A34660  10.625  33.824   8.313
 2578POPC   C3A34661  10.388  33.801   7.893
 2578POPC   C4A34662  10.168  33.981   7.493
 2578POPC   C1B34663  10.498  33.499   8.712
 2578POPC   C2B34664  10.241  33.452   8.344
 2578POPC   C3B34665  10.323  33.263   7.983
 2578POPC   C4B34666  10.708  33.318   7.796
 2579POPC   NC334667  17.349  33.461   9.769
 2579POPC   PO434668  17.611  34.017   9.410
 2579POPC   GL134669  17.600  33.900   9.061
 2579POPC   GL234670  17.877  33.683   9.107
 2579POPC   C1A34671  17.403  33.954   8.670
 2579POPC   D2A34672  17.614  34.092   8.344
 2579POPC   C3A34673  17.498  33.851   8.075
 2579POPC   C4A34674  17.340  33.827   7.675
 2579POPC   C1B34675  17.649  33.530   8.732
 2579POPC   C2B34676  17.248  33.508   8.448
 2579POPC   C3B34677  17.285  33.405   7.999
 2579POPC   C4B34678  17.732  33.477   7.812
 2580POPC   NC334679  11.797  31.322   9.485
 2580POPC   PO434680  12.431  31.684   9.407
 2580POPC   GL134681  12.228  31.360   9.164
 2580POPC   GL234682  11.883  31.340   9.005
 2580POPC   C1A34683  12.321  31.233   8.747
 2580POPC   D2A34684  12.255  31.488   8.399
 2580POPC   C3A34685  12.395  31.330   8.019
 2580POPC   C4A34686  12.266  31.515   7.659
 2580POPC   C1B34687  11.800  31.329   8.612
 2580POPC   C2B34688  11.760  31.629   8.327
 2580POPC   C3B34689  11.891  31.461   7.982
 2580POPC   C4B34690  11.714  31.399   7.590
 2581POPC   NC334691   0.700  42.591   9.589
 2581POPC   PO434692   0.180  42.047   9.446
 2581POPC   GL134693   0.277  42.183   9.017
 2581POPC   GL234694   0.514  42.439   9.115
 2581POPC   C1A34695   0.590  42.060   8.675
 2581POPC   D2A34696   0.743  42.263   8.313
 2581POPC   C3A34697   0.411  42.525   8.168
 2581POPC   C4A34698   0.184  42.369   7.789
 2581POPC   C1B34699   0.803  42.535   8.776
 2581POPC   C2B34700   0.895  42.738   8.390
 2581POPC   C3B34701   0.959  42.637   7.962
 2581POPC   C4B34702   0.617  42.611   7.721
 2582POPC   NC334703  10.750  20.600  10.016
 2582POPC   PO434704  11.014  20.249   9.491
 2582POPC   GL134705  10.725  20.483   9.210
 2582POPC   GL234706  10.333  20.468   9.221
 2582POPC   C1A34707  10.632  20.424   8.772
 2582POPC   D2A34708  10.604  20.657   8.401
 2582POPC   C3A34709  10.677  20.467   8.006
 2582POPC   C4A34710  10.498  20.625   7.637
 2582POPC   C1B34711  10.134  20.290   8.838
 2582POPC   C2B34712  10.317  20.200   8.392
 2582POPC   C3B34713  10.184  20.285   7.940
 2582POPC   C4B34714  10.181  20.264   7.471
 2583POPC   NC334715  42.950  25.392   9.186
 2583POPC   PO434716  43.361  25.754   9.557
 2583POPC   GL134717  43.408  26.024   9.165
 2583POPC   GL234718  43.157  25.831   9.003
 2583POPC   C1A34719  43.406  26.180   8.704
 2583POPC   D2A34720  43.164  25.993   8.363
 2583POPC   C3A34721  43.387  25.943   7.975
 2583POPC   C4A34722  43.416  26.193   7.604
 2583POPC   C1B34723  42.799  25.963   8.752
 2583POPC   C2B34724  42.752  26.336   8.485
 2583POPC   C3B34725  42.862  26.318   8.075
 2583POPC   C4B34726  42.866  25.903   7.927
 2584POPC   NC334727  26.457  17.854   9.332
 2584POPC   PO434728  26.958  18.043   9.702
 2584POPC   GL134729  26.816  18.236   9.261
 2584POPC   GL234730  26.479  18.394   9.192
 2584POPC   C1A34731  26.979  18.434   8.887
 2584POPC   D2A34732  27.018  18.282   8.457
 2584POPC   C3A34733  27.035  18.456   8.041
 2584POPC   C4A34734  26.694  18.318   7.768
 2584POPC   C1B34735  26.543  18.181   8.792
 2584POPC   C2B34736  26.629  17.928   8.457
 2584POPC   C3B34737  26.474  17.865   8.071
 2584POPC   C4B34738  26.599  17.818   7.671
 2585POPC   NC334739   0.803  10.085   9.616
 2585POPC   PO434740   0.529   9.484   9.569
 2585POPC   GL134741   0.462   9.623   9.158
 2585POPC   GL234742   0.654   9.877   9.177
 2585POPC   C1A34743   0.385   9.803   8.738
 2585POPC   D2A34744   0.468   9.648   8.340
 2585POPC   C3A34745   0.315   9.788   7.975
 2585POPC   C4A34746   0.160   9.595   7.616
 2585POPC   C1B34747   0.821  10.080   8.836
 2585POPC   C2B34748   0.921   9.868   8.453
 2585POPC   C3B34749   0.804   9.964   8.029
 2585POPC   C4B34750   0.744   9.713   7.676
 2586POPC   NC334751  23.926  18.125   9.508
 2586POPC   PO434752  23.444  18.638   9.403
 2586POPC   GL134753  23.510  18.245   9.225
 2586POPC   GL234754  23.829  18.352   9.074
 2586POPC   C1A34755  23.413  18.209   8.807
 2586POPC   D2A34756  23.368  18.563   8.551
 2586POPC   C3A34757  23.365  18.464   8.121
 2586POPC   C4A34758  23.568  18.407   7.712
 2586POPC   C1B34759  23.881  18.434   8.649
 2586POPC   C2B34760  23.763  18.196   8.308
 2586POPC   C3B34761  23.905  18.067   7.892
 2586POPC   C4B34762  23.921  18.016   7.424
 2587POPC   NC334763  22.447  29.339  10.051
 2587POPC   PO434764  22.140  29.761   9.590
 2587POPC   GL134765  22.016  29.976   9.220
 2587POPC   GL234766  22.142  29.676   9.070
 2587POPC   C1A34767  22.160  30.195   8.847
 2587POPC   D2A34768  22.398  30.285   8.466
 2587POPC   C3A34769  22.144  30.124   8.129
 2587POPC   C4A34770  22.275  29.815   7.830
 2587POPC   C1B34771  22.238  29.741   8.607
 2587POPC   C2B34772  22.031  29.574   8.262
 2587POPC   C3B34773  21.988  29.414   7.857
 2587POPC   C4B34774  21.952  29.670   7.472
 2588POPC   NC334775  14.967   4.654   9.428
 2588POPC   PO434776  15.471   4.183   9.461
 2588POPC   GL134777  15.329   4.379   9.133
 2588POPC   GL234778  15.002   4.200   9.155
 2588POPC   C1A34779  15.299   4.232   8.716
 2588POPC   D2A34780  15.291   3.987   8.358
 2588POPC   C3A34781  15.323   4.232   7.989
 2588POPC   C4A34782  15.032   4.255   7.679
 2588POPC   C1B34783  14.751   3.977   8.837
 2588POPC   C2B34784  14.824   3.770   8.446
 2588POPC   C3B34785  14.926   3.853   8.002
 2588POPC   C4B34786  14.975   3.745   7.559
 2589POPC   NC334787  35.196  13.883   9.690
 2589POPC   PO434788  35.721  13.509   9.665
 2589POPC   GL134789  35.542  13.715   9.282
 2589POPC   GL234790  35.184  13.741   9.206
 2589POPC   C1A34791  35.556  13.894   8.850
 2589POPC   D2A34792  35.417  13.819   8.471
 2589POPC   C3A34793  35.595  13.717   8.099
 2589POPC   C4A34794  35.449  13.551   7.721
 2589POPC   C1B34795  34.994  13.582   8.838
 2589POPC   C2B34796  34.909  13.763   8.439
 2589POPC   C3B34797  35.070  13.728   8.057
 2589POPC   C4B34798  35.053  13.913   7.666
 2590POPC   NC334799  21.198  33.513   9.472
 2590POPC   PO434800  21.705  34.020   9.460
 2590POPC   GL134801  21.404  33.876   9.171
 2590POPC   GL234802  21.602  33.567   9.142
 2590POPC   C1A34803  21.251  34.023   8.776
 2590POPC   D2A34804  21.383  34.024   8.329
 2590POPC   C3A34805  21.114  34.022   7.952
 2590POPC   C4A34806  21.302  34.089   7.566
 2590POPC   C1B34807  21.356  33.522   8.775
 2590POPC   C2B34808  21.200  33.503   8.345
 2590POPC   C3B34809  21.392  33.618   7.927
 2590POPC   C4B34810  21.366  33.587   7.444
 2591POPC   NC334811  27.263   3.359   9.430
 2591POPC   PO434812  27.709   3.765   9.613
 2591POPC   GL134813  27.666   3.576   9.220
 2591POPC   GL234814  27.390   3.787   9.155
 2591POPC   C1A34815  27.542   3.480   8.779
 2591POPC   D2A34816  27.347   3.552   8.399
 2591POPC   C3A34817  27.544   3.543   8.002
 2591POPC   C4A34818  27.796   3.679   7.658
 2591POPC   C1B34819  27.278   3.969   8.772
 2591POPC   C2B34820  27.087   3.976   8.381
 2591POPC   C3B34821  27.244   4.059   8.016
 2591POPC   C4B34822  27.333   3.918   7.658
 2592POPC   NC334823   9.185  29.973   9.576
 2592POPC   PO434824   9.853  29.831   9.598
 2592POPC   GL134825   9.767  29.915   9.183
 2592POPC   GL234826   9.923  30.197   9.000
 2592POPC   C1A34827   9.646  29.787   8.814
 2592POPC   D2A34828   9.850  29.942   8.466
 2592POPC   C3A34829   9.609  29.984   8.116
 2592POPC   C4A34830   9.494  29.658   7.836
 2592POPC   C1B34831   9.575  30.305   8.710
 2592POPC   C2B34832   9.389  30.389   8.351
 2592POPC   C3B34833   9.507  30.629   8.063
 2592POPC   C4B34834   9.647  30.359   7.754
 2593POPC   NC334835  13.585  35.188   9.476
 2593POPC   PO434836  13.756  35.707   9.658
 2593POPC   GL134837  13.680  35.630   9.242
 2593POPC   GL234838  13.984  35.462   9.205
 2593POPC   C1A34839  13.538  35.498   8.849
 2593POPC   D2A34840  13.386  35.167   8.581
 2593POPC   C3A34841  13.354  35.389   8.180
 2593POPC   C4A34842  13.436  35.262   7.767
 2593POPC   C1B34843  14.020  35.296   8.801
 2593POPC   C2B34844  13.826  35.379   8.408
 2593POPC   C3B34845  13.893  35.319   7.976
 2593POPC   C4B34846  13.861  35.613   7.639
 2594POPC   NC334847  11.551  42.369   9.317
 2594POPC   PO434848  10.923  42.228   9.285
 2594POPC   GL134849  11.143  42.438   9.014
 2594POPC   GL234850  10.989  42.697   8.929
 2594POPC   C1A34851  11.392  42.338   8.686
 2594POPC   D2A34852  11.225  42.146   8.375
 2594POPC   C3A34853  11.260  42.281   7.978
 2594POPC   C4A34854  11.073  41.919   7.818
 2594POPC   C1B34855  11.333  42.851   8.679
 2594POPC   C2B34856  11.551  42.957   8.273
 2594POPC   C3B34857  11.509  42.777   7.853
 2594POPC   C4B34858  11.183  42.691   7.525
 2595POPC   NC334859  13.262  33.637   9.808
 2595POPC   PO434860  13.775  33.949   9.429
 2595POPC   GL134861  13.714  33.688   9.127
 2595POPC   GL234862  13.356  33.705   9.071
 2595POPC   C1A34863  13.794  33.760   8.714
 2595POPC   D2A34864  13.606  33.635   8.353
 2595POPC   C3A34865  13.763  33.891   8.043
 2595POPC   C4A34866  13.842  33.577   7.760
 2595POPC   C1B34867  13.260  33.946   8.687
 2595POPC   C2B34868  13.277  34.009   8.243
 2595POPC   C3B34869  13.325  33.722   7.872
 2595POPC   C4B34870  13.477  33.888   7.496
 2596POPC   NC334871   3.402  22.037   9.577
 2596POPC   PO434872   4.005  22.252   9.472
 2596POPC   GL134873   3.798  22.072   9.146
 2596POPC   GL234874   3.765  21.769   9.312
 2596POPC   C1A34875   3.589  22.183   8.769
 2596POPC   D2A34876   3.321  22.280   8.426
 2596POPC   C3A34877   3.647  22.178   8.136
 2596POPC   C4A34878   3.858  22.273   7.734
 2596POPC   C1B34879   3.409  21.754   8.982
 2596POPC   C2B34880   3.330  21.748   8.533
 2596POPC   C3B34881   3.224  21.826   8.102
 2596POPC   C4B34882   3.482  21.908   7.757
 2597POPC   NC334883   2.694  41.221   9.361
 2597POPC   PO434884   3.064  40.720   9.767
 2597POPC   GL134885   2.796  40.595   9.365
 2597POPC   GL234886   2.878  40.817   9.107
 2597POPC   C1A34887   2.538  40.431   8.966
 2597POPC   D2A34888   2.297  40.576   8.577
 2597POPC   C3A34889   2.274  40.510   8.103
 2597POPC   C4A34890   2.517  40.555   7.698
 2597POPC   C1B34891   2.745  40.827   8.690
 2597POPC   C2B34892   2.706  40.726   8.283
 2597POPC   C3B34893   2.702  40.958   7.943
 2597POPC   C4B34894   3.034  40.828   7.722
 2598POPC   NC334895  38.384  31.811   9.376
 2598POPC   PO434896  38.591  31.210   9.533
 2598POPC   GL134897  38.704  31.213   9.116
 2598POPC   GL234898  38.673  31.549   9.071
 2598POPC   C1A34899  38.464  31.263   8.705
 2598POPC   D2A34900  38.182  31.130   8.339
 2598POPC   C3A34901  38.402  31.298   7.969
 2598POPC   C4A34902  38.690  31.612   7.876
 2598POPC   C1B34903  38.619  31.857   8.728
 2598POPC   C2B34904  38.374  31.991   8.372
 2598POPC   C3B34905  38.161  31.812   8.021
 2598POPC   C4B34906  38.271  31.769   7.622
 2599POPC   NC334907  19.599  44.963   9.546
 2599POPC   PO434908  19.832   0.587   9.677
 2599POPC   GL134909  19.951   0.591   9.219
 2599POPC   GL234910  20.202   0.873   9.194
 2599POPC   C1A34911  19.795   0.371   8.786
 2599POPC   D2A34912  19.756   0.208   8.324
 2599POPC   C3A34913  19.654   0.559   8.047
 2599POPC   C4A34914  19.419   0.647   7.635
 2599POPC   C1B34915  20.251   0.617   8.814
 2599POPC   C2B34916  20.076   0.624   8.414
 2599POPC   C3B34917  20.165   0.716   8.009
 2599POPC   C4B34918  19.929   0.676   7.635
 2600POPC   NC334919  22.693  24.195   9.553
 2600POPC   PO434920  22.042  24.474   9.522
 2600POPC   GL134921  22.140  24.471   9.130
 2600POPC   GL234922  21.956  24.788   9.084
 2600POPC   C1A34923  22.349  24.307   8.770
 2600POPC   D2A34924  22.443  24.471   8.375
 2600POPC   C3A34925  22.336  24.261   8.009
 2600POPC   C4A34926  22.529  24.326   7.619
 2600POPC   C1B34927  21.885  24.538   8.706
 2600POPC   C2B34928  21.930  24.416   8.304
 2600POPC   C3B34929  21.959  24.568   7.895
 2600POPC   C4B34930  21.976  24.424   7.468
 2601POPC   NC334931  11.051  25.794   9.463
 2601POPC   PO434932  11.470  26.301   9.588
 2601POPC   GL134933  11.597  26.174   9.204
 2601POPC   GL234934  11.375  25.931   9.097
 2601POPC   C1A34935  11.515  26.310   8.789
 2601POPC   D2A34936  11.208  26.215   8.496
 2601POPC   C3A34937  11.345  26.358   8.108
 2601POPC   C4A34938  11.540  26.181   7.769
 2601POPC   C1B34939  11.178  25.691   8.790
 2601POPC   C2B34940  10.943  25.772   8.433
 2601POPC   C3B34941  11.217  25.832   8.104
 2601POPC   C4B34942  11.153  25.806   7.699
 2602POPC   NC334943  33.665   1.011   9.575
 2602POPC   PO434944  34.156   1.420   9.444
 2602POPC   GL134945  33.878   1.224   9.153
 2602POPC   GL234946  33.599   1.450   9.226
 2602POPC   C1A34947  33.814   1.051   8.735
 2602POPC   D2A34948  33.972   1.339   8.429
 2602POPC   C3A34949  34.060   1.203   8.034
 2602POPC   C4A34950  33.833   1.103   7.647
 2602POPC   C1B34951  33.620   1.514   8.791
 2602POPC   C2B34952  33.446   1.361   8.415
 2602POPC   C3B34953  33.536   1.417   7.957
 2602POPC   C4B34954  33.416   1.347   7.517
 2603POPC   NC334955   6.005  42.362   9.467
 2603POPC   PO434956   5.387  42.558   9.571
 2603POPC   GL134957   5.570  42.445   9.191
 2603POPC   GL234958   5.786  42.734   9.109
 2603POPC   C1A34959   5.762  42.301   8.808
 2603POPC   D2A34960   5.580  42.313   8.411
 2603POPC   C3A34961   5.776  42.178   8.052
 2603POPC   C4A34962   6.065  42.169   7.742
 2603POPC   C1B34963   6.123  42.682   8.794
 2603POPC   C2B34964   6.104  42.457   8.406
 2603POPC   C3B34965   6.045  42.615   8.012
 2603POPC   C4B34966   6.268  42.606   7.625
 2604POPC   NC334967  35.257   1.680   9.387
 2604POPC   PO434968  35.763   2.095   9.530
 2604POPC   GL134969  35.485   2.065   9.180
 2604POPC   GL234970  35.262   2.322   9.066
 2604POPC   C1A34971  35.433   1.836   8.778
 2604POPC   D2A34972  35.163   1.799   8.415
 2604POPC   C3A34973  35.448   1.863   8.102
 2604POPC   C4A34974  35.396   2.044   7.702
 2604POPC   C1B34975  35.019   2.123   8.788
 2604POPC   C2B34976  34.875   2.274   8.434
 2604POPC   C3B34977  35.097   2.259   8.082
 2604POPC   C4B34978  34.947   2.332   7.725
 2605POPC   NC334979  44.693  38.476   9.599
 2605POPC   PO434980  44.234  38.915   9.757
 2605POPC   GL134981  44.386  38.698   9.277
 2605POPC   GL234982  44.412  38.309   9.194
 2605POPC   C1A34983  44.685  38.642   8.900
 2605POPC   D2A34984  44.713  38.556   8.443
 2605POPC   C3A34985  44.525  38.760   8.077
 2605POPC   C4A34986  44.657  38.660   7.658
 2605POPC   C1B34987  44.379  38.243   8.718
 2605POPC   C2B34988  44.420  38.125   8.263
 2605POPC   C3B34989  44.488  38.227   7.823
 2605POPC   C4B34990  44.622  38.215   7.355
 2606POPC   NC334991  21.868  19.989   9.622
 2606POPC   PO434992  22.466  19.678   9.524
 2606POPC   GL134993  22.159  19.669   9.192
 2606POPC   GL234994  21.968  19.979   9.091
 2606POPC   C1A34995  22.190  19.574   8.760
 2606POPC   D2A34996  22.102  19.372   8.369
 2606POPC   C3A34997  22.289  19.635   8.115
 2606POPC   C4A34998  22.161  19.810   7.730
 2606POPC   C1B34999  22.176  20.145   8.707
 2606POPC   C2B35000  22.186  20.153   8.251
 2606POPC   C3B35001  21.955  20.240   7.880
 2606POPC   C4B35002  22.131  20.244   7.426
 2607POPC   NC335003  36.054  38.145   9.613
 2607POPC   PO435004  36.042  38.769   9.501
 2607POPC   GL135005  36.166  38.608   9.170
 2607POPC   GL235006  35.868  38.373   9.183
 2607POPC   C1A35007  36.183  38.728   8.751
 2607POPC   D2A35008  35.883  38.797   8.415
 2607POPC   C3A35009  36.120  38.706   8.067
 2607POPC   C4A35010  36.058  38.588   7.653
 2607POPC   C1B35011  36.171  38.190   8.899
 2607POPC   C2B35012  35.983  38.305   8.529
 2607POPC   C3B35013  35.996  38.216   8.113
 2607POPC   C4B35014  36.125  38.088   7.729
 2608POPC   NC335015  34.149  36.774   9.445
 2608POPC   PO435016  33.983  37.443   9.414
 2608POPC   GL135017  33.866  37.065   9.156
 2608POPC   GL235018  34.194  37.055   9.023
 2608POPC   C1A35019  33.623  36.810   8.850
 2608POPC   D2A35020  33.659  36.461   8.559
 2608POPC   C3A35021  33.576  36.603   8.135
 2608POPC   C4A35022  33.635  36.887   7.810
 2608POPC   C1B35023  34.130  36.663   8.777
 2608POPC   C2B35024  34.172  36.507   8.352
 2608POPC   C3B35025  34.101  36.662   7.935
 2608POPC   C4B35026  33.998  36.684   7.487
 2609POPC   NC335027   7.192  29.472   9.492
 2609POPC   PO435028   7.352  28.817   9.613
 2609POPC   GL135029   7.597  29.021   9.254
 2609POPC   GL235030   7.301  29.126   9.112
 2609POPC   C1A35031   7.689  29.210   8.806
 2609POPC   D2A35032   7.738  29.070   8.363
 2609POPC   C3A35033   7.407  29.181   8.056
 2609POPC   C4A35034   7.402  29.531   7.751
 2609POPC   C1B35035   7.125  29.316   8.758
 2609POPC   C2B35036   6.956  29.245   8.351
 2609POPC   C3B35037   6.941  29.384   7.942
 2609POPC   C4B35038   6.968  29.205   7.514
 2610POPC   NC335039  34.904   5.049   9.575
 2610POPC   PO435040  34.273   5.015   9.337
 2610POPC   GL135041  34.663   4.938   9.127
 2610POPC   GL235042  34.852   5.260   9.122
 2610POPC   C1A35043  34.755   4.945   8.698
 2610POPC   D2A35044  34.651   4.691   8.371
 2610POPC   C3A35045  34.528   4.906   8.064
 2610POPC   C4A35046  34.631   4.888   7.658
 2610POPC   C1B35047  34.811   5.516   8.764
 2610POPC   C2B35048  34.810   5.428   8.324
 2610POPC   C3B35049  34.745   5.342   7.903
 2610POPC   C4B35050  34.329   5.258   7.741
 2611POPC   NC335051  38.200  17.256   9.341
 2611POPC   PO435052  38.740  17.690   9.537
 2611POPC   GL135053  38.620  17.673   9.105
 2611POPC   GL235054  38.986  17.747   9.004
 2611POPC   C1A35055  38.332  17.502   8.736
 2611POPC   D2A35056  38.153  17.219   8.390
 2611POPC   C3A35057  38.298  17.216   7.959
 2611POPC   C4A35058  38.290  17.572   7.686
 2611POPC   C1B35059  38.851  17.454   8.684
 2611POPC   C2B35060  38.665  17.313   8.345
 2611POPC   C3B35061  38.689  17.548   8.001
 2611POPC   C4B35062  38.802  17.486   7.592
 2612POPC   NC335063  28.550  16.992   9.348
 2612POPC   PO435064  28.432  17.557   9.401
 2612POPC   GL135065  28.266  17.560   9.020
 2612POPC   GL235066  28.205  17.215   9.046
 2612POPC   C1A35067  28.480  17.521   8.658
 2612POPC   D2A35068  28.629  17.811   8.378
 2612POPC   C3A35069  28.558  17.615   8.025
 2612POPC   C4A35070  28.497  17.815   7.662
 2612POPC   C1B35071  28.236  17.061   8.643
 2612POPC   C2B35072  27.959  16.975   8.318
 2612POPC   C3B35073  28.033  17.065   7.926
 2612POPC   C4B35074  28.381  17.197   7.714
 2613POPC   NC335075  28.820  22.715   9.197
 2613POPC   PO435076  29.207  23.226   9.595
 2613POPC   GL135077  29.316  23.022   9.165
 2613POPC   GL235078  29.396  22.671   9.139
 2613POPC   C1A35079  29.133  23.067   8.727
 2613POPC   D2A35080  28.774  23.042   8.432
 2613POPC   C3A35081  29.056  23.010   8.081
 2613POPC   C4A35082  29.002  22.860   7.684
 2613POPC   C1B35083  29.506  22.725   8.716
 2613POPC   C2B35084  29.556  22.554   8.303
 2613POPC   C3B35085  29.605  22.557   7.858
 2613POPC   C4B35086  29.452  22.789   7.493
 2614POPC   NC335087  42.904   9.598   9.582
 2614POPC   PO435088  43.528   9.838   9.760
 2614POPC   GL135089  43.344   9.778   9.361
 2614POPC   GL235090  43.308   9.431   9.306
 2614POPC   C1A35091  43.419   9.730   8.916
 2614POPC   D2A35092  43.221   9.764   8.540
 2614POPC   C3A35093  43.271   9.689   8.110
 2614POPC   C4A35094  43.008   9.678   7.752
 2614POPC   C1B35095  42.979   9.445   8.938
 2614POPC   C2B35096  42.954   9.312   8.504
 2614POPC   C3B35097  42.821   9.315   8.086
 2614POPC   C4B35098  42.848   9.181   7.665
 2615POPC   NC335099  44.441  20.714   9.541
 2615POPC   PO435100  43.775  20.736   9.482
 2615POPC   GL135101  43.923  20.607   9.093
 2615POPC   GL235102  44.248  20.686   9.078
 2615POPC   C1A35103  43.694  20.483   8.738
 2615POPC   D2A35104  43.789  20.575   8.340
 2615POPC   C3A35105  43.502  20.545   8.058
 2615POPC   C4A35106  43.673  20.606   7.662
 2615POPC   C1B35107  44.221  20.570   8.640
 2615POPC   C2B35108  44.253  20.768   8.221
 2615POPC   C3B35109  44.148  20.746   7.776
 2615POPC   C4B35110  44.152  20.437   7.444
 2616POPC   NC335111   4.099  17.066   9.342
 2616POPC   PO435112   3.706  16.691   9.713
 2616POPC   GL135113   3.611  16.890   9.324
 2616POPC   GL235114   3.819  16.673   9.174
 2616POPC   C1A35115   3.504  17.010   8.873
 2616POPC   D2A35116   3.510  16.831   8.461
 2616POPC   C3A35117   3.522  17.064   8.100
 2616POPC   C4A35118   3.641  16.895   7.719
 2616POPC   C1B35119   3.660  16.499   8.807
 2616POPC   C2B35120   3.833  16.413   8.410
 2616POPC   C3B35121   3.835  16.502   7.996
 2616POPC   C4B35122   3.702  16.268   7.619
 2617POPC   NC335123  20.060  42.671   9.582
 2617POPC   PO435124  19.862  43.282   9.797
 2617POPC   GL135125  19.830  43.258   9.293
 2617POPC   GL235126  19.974  42.957   9.160
 2617POPC   C1A35127  19.801  43.288   8.799
 2617POPC   D2A35128  19.931  43.338   8.332
 2617POPC   C3A35129  19.736  43.022   8.006
 2617POPC   C4A35130  19.706  43.018   7.525
 2617POPC   C1B35131  19.965  42.770   8.735
 2617POPC   C2B35132  20.140  42.867   8.297
 2617POPC   C3B35133  20.109  42.778   7.791
 2617POPC   C4B35134  20.211  42.976   7.401
 2618POPC   NC335135  20.258   1.665   9.588
 2618POPC   PO435136  20.632   1.016   9.571
 2618POPC   GL135137  20.707   0.943   9.140
 2618POPC   GL235138  20.650   1.254   9.119
 2618POPC   C1A35139  20.884   1.085   8.705
 2618POPC   D2A35140  20.839   1.337   8.311
 2618POPC   C3A35141  20.874   1.210   7.862
 2618POPC   C4A35142  20.618   0.854   7.702
 2618POPC   C1B35143  20.382   1.098   8.775
 2618POPC   C2B35144  20.474   0.963   8.387
 2618POPC   C3B35145  20.405   1.181   8.034
 2618POPC   C4B35146  20.166   1.131   7.697
 2619POPC   NC335147   9.912  34.285   9.450
 2619POPC   PO435148   9.599  33.657   9.384
 2619POPC   GL135149   9.877  33.854   9.137
 2619POPC   GL235150   9.599  34.105   9.094
 2619POPC   C1A35151  10.014  33.668   8.767
 2619POPC   D2A35152   9.740  33.543   8.420
 2619POPC   C3A35153   9.864  33.666   8.022
 2619POPC   C4A35154   9.551  33.646   7.726
 2619POPC   C1B35155   9.626  33.974   8.683
 2619POPC   C2B35156   9.981  34.017   8.376
 2619POPC   C3B35157   9.949  34.155   7.927
 2619POPC   C4B35158   9.676  34.101   7.549
 2620POPC   NC335159   3.344  32.453   9.410
 2620POPC   PO435160   3.520  31.785   9.486
 2620POPC   GL135161   3.511  32.034   9.140
 2620POPC   GL235162   3.785  32.272   9.162
 2620POPC   C1A35163   3.360  32.172   8.724
 2620POPC   D2A35164   3.125  32.109   8.310
 2620POPC   C3A35165   3.239  32.349   7.940
 2620POPC   C4A35166   3.392  32.274   7.546
 2620POPC   C1B35167   3.873  32.329   8.729
 2620POPC   C2B35168   3.648  32.321   8.316
 2620POPC   C3B35169   3.766  32.382   7.904
 2620POPC   C4B35170   3.882  32.219   7.486
 2621POPC   NC335171  40.923  36.600   9.296
 2621POPC   PO435172  40.628  37.169   9.505
 2621POPC   GL135173  40.537  37.045   9.112
 2621POPC   GL235174  40.389  36.729   9.130
 2621POPC   C1A35175  40.558  37.013   8.688
 2621POPC   D2A35176  40.805  36.834   8.361
 2621POPC   C3A35177  40.741  37.042   7.973
 2621POPC   C4A35178  40.877  36.810   7.643
 2621POPC   C1B35179  40.597  36.515   8.766
 2621POPC   C2B35180  40.544  36.368   8.391
 2621POPC   C3B35181  40.552  36.555   8.003
 2621POPC   C4B35182  40.349  36.603   7.573
 2622POPC   NC335183  29.178  22.772   9.619
 2622POPC   PO435184  29.781  22.928   9.420
 2622POPC   GL135185  29.889  22.918   9.031
 2622POPC   GL235186  29.983  22.570   9.006
 2622POPC   C1A35187  29.802  23.139   8.660
 2622POPC   D2A35188  29.477  23.180   8.356
 2622POPC   C3A35189  29.594  23.055   7.962
 2622POPC   C4A35190  29.912  22.956   7.668
 2622POPC   C1B35191  30.014  22.662   8.581
 2622POPC   C2B35192  30.008  22.747   8.151
 2622POPC   C3B35193  30.302  22.685   7.840
 2622POPC   C4B35194  30.239  22.594   7.421
 2623POPC   NC335195  16.467  14.745   9.318
 2623POPC   PO435196  16.754  14.170   9.477
 2623POPC   GL135197  16.764  14.329   9.113
 2623POPC   GL235198  16.933  14.639   9.170
 2623POPC   C1A35199  16.428  14.254   8.812
 2623POPC   D2A35200  16.403  14.425   8.419
 2623POPC   C3A35201  16.498  14.164   8.074
 2623POPC   C4A35202  16.556  14.431   7.738
 2623POPC   C1B35203  16.778  14.654   8.722
 2623POPC   C2B35204  16.919  14.680   8.285
 2623POPC   C3B35205  16.985  14.348   7.995
 2623POPC   C4B35206  17.071  14.058   7.707
 2624POPC   NC335207  28.747  14.713   9.463
 2624POPC   PO435208  29.450  14.522   9.499
 2624POPC   GL135209  29.221  14.267   9.202
 2624POPC   GL235210  28.990  14.486   9.083
 2624POPC   C1A35211  29.165  14.128   8.765
 2624POPC   D2A35212  29.045  14.354   8.365
 2624POPC   C3A35213  29.248  14.345   7.972
 2624POPC   C4A35214  29.165  14.537   7.596
 2624POPC   C1B35215  28.727  14.500   8.726
 2624POPC   C2B35216  28.534  14.584   8.318
 2624POPC   C3B35217  28.704  14.637   7.892
 2624POPC   C4B35218  28.654  14.509   7.444
 2625POPC   NC335219  43.821  20.243   9.425
 2625POPC   PO435220  44.076  19.518   9.521
 2625POPC   GL135221  44.035  19.787   9.210
 2625POPC   GL235222  43.699  19.758   9.186
 2625POPC   C1A35223  44.095  19.632   8.817
 2625POPC   D2A35224  43.910  19.590   8.441
 2625POPC   C3A35225  44.178  19.795   8.176
 2625POPC   C4A35226  44.218  19.781   7.764
 2625POPC   C1B35227  43.737  19.980   8.785
 2625POPC   C2B35228  43.714  20.063   8.327
 2625POPC   C3B35229  43.927  20.225   7.940
 2625POPC   C4B35230  43.808  20.098   7.521
 2626POPC   NC335231  28.309   9.584   9.533
 2626POPC   PO435232  28.193  10.213   9.775
 2626POPC   GL135233  28.281  10.121   9.308
 2626POPC   GL235234  28.537   9.883   9.191
 2626POPC   C1A35235  28.293  10.163   8.857
 2626POPC   D2A35236  28.368   9.896   8.513
 2626POPC   C3A35237  28.098   9.780   8.194
 2626POPC   C4A35238  28.205   9.787   7.803
 2626POPC   C1B35239  28.361   9.564   8.895
 2626POPC   C2B35240  28.290   9.399   8.487
 2626POPC   C3B35241  28.451   9.421   8.092
 2626POPC   C4B35242  28.725   9.675   7.855
 2627POPC   NC335243   5.110  15.494   9.323
 2627POPC   PO435244   4.828  15.960   9.852
 2627POPC   GL135245   4.872  15.986   9.354
 2627POPC   GL235246   4.721  15.792   9.146
 2627POPC   C1A35247   5.025  16.096   8.897
 2627POPC   D2A35248   5.308  16.089   8.533
 2627POPC   C3A35249   5.147  16.124   8.112
 2627POPC   C4A35250   5.331  15.991   7.733
 2627POPC   C1B35251   4.789  15.628   8.757
 2627POPC   C2B35252   4.861  15.686   8.333
 2627POPC   C3B35253   4.885  15.667   7.900
 2627POPC   C4B35254   4.662  16.013   7.757
 2628POPC   NC335255  31.053  33.914   9.535
 2628POPC   PO435256  30.390  33.969   9.494
 2628POPC   GL135257  30.673  33.781   9.171
 2628POPC   GL235258  30.726  33.409   9.186
 2628POPC   C1A35259  30.821  33.685   8.741
 2628POPC   D2A35260  30.593  33.740   8.368
 2628POPC   C3A35261  30.792  33.802   7.980
 2628POPC   C4A35262  31.120  33.555   7.765
 2628POPC   C1B35263  30.467  33.320   8.788
 2628POPC   C2B35264  30.482  33.229   8.342
 2628POPC   C3B35265  30.415  33.426   7.913
 2628POPC   C4B35266  30.551  33.726   7.548
 2629POPC   NC335267  32.579   8.874   9.500
 2629POPC   PO435268  31.987   8.586   9.541
 2629POPC   GL135269  32.193   8.846   9.165
 2629POPC   GL235270  32.462   8.651   9.033
 2629POPC   C1A35271  32.333   9.069   8.741
 2629POPC   D2A35272  32.254   9.299   8.347
 2629POPC   C3A35273  32.389   9.089   7.983
 2629POPC   C4A35274  32.658   8.723   7.880
 2629POPC   C1B35275  32.116   8.589   8.721
 2629POPC   C2B35276  32.068   8.807   8.329
 2629POPC   C3B35277  31.903   8.895   7.913
 2629POPC   C4B35278  31.908   8.829   7.463
 2630POPC   NC335279  36.282   4.822   9.505
 2630POPC   PO435280  35.938   5.391   9.336
 2630POPC   GL135281  36.143   5.090   9.044
 2630POPC   GL235282  36.485   4.997   9.072
 2630POPC   C1A35283  36.149   5.114   8.598
 2630POPC   D2A35284  35.922   5.355   8.320
 2630POPC   C3A35285  36.042   5.109   7.984
 2630POPC   C4A35286  36.135   5.210   7.584
 2630POPC   C1B35287  36.480   4.755   8.693
 2630POPC   C2B35288  36.526   4.885   8.264
 2630POPC   C3B35289  36.652   4.711   7.842
 2630POPC   C4B35290  36.448   4.833   7.442
 2631POPC   NC335291  24.590   6.990   9.477
 2631POPC   PO435292  24.408   6.374   9.497
 2631POPC   GL135293  24.284   6.676   9.213
 2631POPC   GL235294  24.086   6.934   9.322
 2631POPC   C1A35295  24.525   6.754   8.854
 2631POPC   D2A35296  24.607   6.482   8.535
 2631POPC   C3A35297  24.595   6.663   8.149
 2631POPC   C4A35298  24.522   6.602   7.749
 2631POPC   C1B35299  24.038   6.924   8.842
 2631POPC   C2B35300  24.160   6.743   8.446
 2631POPC   C3B35301  24.165   6.933   8.030
 2631POPC   C4B35302  24.323   7.058   7.630
 2632POPC   NC335303  32.846   2.226   9.499
 2632POPC   PO435304  33.177   1.625   9.466
 2632POPC   GL135305  32.968   1.810   9.148
 2632POPC   GL235306  33.102   2.123   9.069
 2632POPC   C1A35307  32.711   1.879   8.792
 2632POPC   D2A35308  32.808   2.035   8.412
 2632POPC   C3A35309  32.766   1.871   8.008
 2632POPC   C4A35310  32.877   2.003   7.571
 2632POPC   C1B35311  33.120   2.359   8.671
 2632POPC   C2B35312  33.175   2.336   8.209
 2632POPC   C3B35313  33.177   2.395   7.777
 2632POPC   C4B35314  33.391   2.240   7.398
 2633POPC   NC335315  12.013  21.613   9.536
 2633POPC   PO435316  11.717  20.959   9.485
 2633POPC   GL135317  11.943  21.233   9.199
 2633POPC   GL235318  11.936  20.990   9.005
 2633POPC   C1A35319  12.145  21.371   8.773
 2633POPC   D2A35320  12.128  21.209   8.342
 2633POPC   C3A35321  12.215  21.468   7.957
 2633POPC   C4A35322  11.933  21.703   7.667
 2633POPC   C1B35323  11.665  21.261   8.721
 2633POPC   C2B35324  11.603  21.320   8.318
 2633POPC   C3B35325  11.743  21.271   7.902
 2633POPC   C4B35326  11.822  21.250   7.460
 2634POPC   NC335327  26.261  29.366   9.587
 2634POPC   PO435328  25.807  28.799   9.463
 2634POPC   GL135329  25.977  29.134   9.216
 2634POPC   GL235330  25.664  29.321   9.217
 2634POPC   C1A35331  26.176  29.251   8.825
 2634POPC   D2A35332  26.332  29.145   8.393
 2634POPC   C3A35333  26.260  29.300   7.966
 2634POPC   C4A35334  26.286  29.077   7.536
 2634POPC   C1B35335  25.605  29.000   8.874
 2634POPC   C2B35336  25.519  29.037   8.463
 2634POPC   C3B35337  25.800  28.996   8.126
 2634POPC   C4B35338  25.818  29.196   7.746
 2635POPC   NC335339  10.468  28.762   9.558
 2635POPC   PO435340  10.726  29.387   9.533
 2635POPC   GL135341  10.672  29.074   9.210
 2635POPC   GL235342  10.335  29.081   9.165
 2635POPC   C1A35343  10.683  29.049   8.771
 2635POPC   D2A35344  10.692  29.439   8.529
 2635POPC   C3A35345  10.645  29.362   8.089
 2635POPC   C4A35346  10.666  28.888   7.977
 2635POPC   C1B35347  10.160  28.995   8.757
 2635POPC   C2B35348  10.225  29.144   8.300
 2635POPC   C3B35349  10.174  28.961   7.872
 2635POPC   C4B35350  10.158  29.064   7.435
 2636POPC   NC335351  17.219  29.589   9.625
 2636POPC   PO435352  17.207  28.933   9.613
 2636POPC   GL135353  17.380  28.968   9.175
 2636POPC   GL235354  17.357  29.351   9.109
 2636POPC   C1A35355  17.537  29.074   8.733
 2636POPC   D2A35356  17.282  29.263   8.416
 2636POPC   C3A35357  17.281  29.311   7.981
 2636POPC   C4A35358  17.540  29.209   7.650
 2636POPC   C1B35359  17.556  29.584   8.709
 2636POPC   C2B35360  17.588  29.648   8.218
 2636POPC   C3B35361  17.568  29.735   7.774
 2636POPC   C4B35362  17.496  29.940   7.395
 2637POPC   NC335363   5.788  18.715   9.495
 2637POPC   PO435364   5.948  19.428   9.452
 2637POPC   GL135365   6.024  19.082   9.172
 2637POPC   GL235366   6.271  18.812   9.315
 2637POPC   C1A35367   5.913  19.115   8.705
 2637POPC   D2A35368   6.038  19.354   8.306
 2637POPC   C3A35369   5.889  19.146   7.927
 2637POPC   C4A35370   5.591  18.854   7.829
 2637POPC   C1B35371   6.290  18.782   8.869
 2637POPC   C2B35372   6.211  18.767   8.412
 2637POPC   C3B35373   6.369  18.988   8.029
 2637POPC   C4B35374   6.341  19.354   7.772
 2638POPC   NC335375  16.098  27.214   9.552
 2638POPC   PO435376  16.047  27.896   9.756
 2638POPC   GL135377  16.021  27.769   9.298
 2638POPC   GL235378  16.222  27.934   9.056
 2638POPC   C1A35379  15.822  27.672   8.873
 2638POPC   D2A35380  15.994  27.418   8.533
 2638POPC   C3A35381  15.907  27.489   8.105
 2638POPC   C4A35382  15.638  27.799   7.943
 2638POPC   C1B35383  16.434  27.730   8.700
 2638POPC   C2B35384  16.383  27.655   8.281
 2638POPC   C3B35385  16.119  27.970   8.125
 2638POPC   C4B35386  16.295  28.009   7.769
 2639POPC   NC335387  19.563   0.952   9.687
 2639POPC   PO435388  19.780   1.537   9.514
 2639POPC   GL135389  19.849   1.246   9.192
 2639POPC   GL235390  20.150   1.393   9.136
 2639POPC   C1A35391  19.863   0.956   8.806
 2639POPC   D2A35392  19.623   0.918   8.407
 2639POPC   C3A35393  19.752   1.052   7.981
 2639POPC   C4A35394  19.670   1.093   7.539
 2639POPC   C1B35395  20.013   1.436   8.727
 2639POPC   C2B35396  20.025   1.244   8.366
 2639POPC   C3B35397  20.007   1.506   8.014
 2639POPC   C4B35398  19.874   1.555   7.600
 2640POPC   NC335399  15.224  37.316   9.370
 2640POPC   PO435400  15.382  38.012   9.464
 2640POPC   GL135401  15.255  37.765   9.150
 2640POPC   GL235402  15.586  37.585   9.119
 2640POPC   C1A35403  14.971  37.779   8.805
 2640POPC   D2A35404  14.999  37.975   8.414
 2640POPC   C3A35405  15.038  37.705   8.040
 2640POPC   C4A35406  15.082  37.801   7.600
 2640POPC   C1B35407  15.442  37.479   8.695
 2640POPC   C2B35408  15.497  37.518   8.239
 2640POPC   C3B35409  15.548  37.702   7.823
 2640POPC   C4B35410  15.484  37.561   7.401
 2641POPC   NC335411  19.535  34.688   9.744
 2641POPC   PO435412  20.133  34.467   9.603
 2641POPC   GL135413  20.061  34.514   9.171
 2641POPC   GL235414  19.717  34.622   9.126
 2641POPC   C1A35415  20.158  34.713   8.790
 2641POPC   D2A35416  19.928  34.667   8.419
 2641POPC   C3A35417  20.025  34.578   8.001
 2641POPC   C4A35418  19.737  34.412   7.684
 2641POPC   C1B35419  19.690  34.954   8.803
 2641POPC   C2B35420  19.656  35.101   8.396
 2641POPC   C3B35421  19.565  34.838   8.052
 2641POPC   C4B35422  19.763  34.912   7.675
 2642POPC   NC335423  10.165  12.640   9.534
 2642POPC   PO435424   9.576  12.394   9.677
 2642POPC   GL135425   9.625  12.648   9.268
 2642POPC   GL235426   9.910  12.541   9.099
 2642POPC   C1A35427   9.698  12.950   8.895
 2642POPC   D2A35428   9.981  12.889   8.526
 2642POPC   C3A35429   9.832  12.972   8.102
 2642POPC   C4A35430  10.045  13.158   7.758
 2642POPC   C1B35431   9.748  12.462   8.691
 2642POPC   C2B35432   9.558  12.590   8.343
 2642POPC   C3B35433   9.669  12.501   7.950
 2642POPC   C4B35434   9.531  12.184   7.710
 2643POPC   NC335435  23.934  21.140   9.496
 2643POPC   PO435436  23.474  21.597   9.509
 2643POPC   GL135437  23.524  21.522   9.099
 2643POPC   GL235438  23.766  21.295   9.043
 2643POPC   C1A35439  23.532  21.736   8.707
 2643POPC   D2A35440  23.624  21.616   8.269
 2643POPC   C3A35441  23.632  21.901   7.934
 2643POPC   C4A35442  23.619  21.749   7.540
 2643POPC   C1B35443  24.080  21.030   8.831
 2643POPC   C2B35444  24.135  20.943   8.371
 2643POPC   C3B35445  23.973  21.162   7.973
 2643POPC   C4B35446  23.544  21.280   7.757
 2644POPC   NC335447  44.144   7.507   9.551
 2644POPC   PO435448  43.545   7.679   9.487
 2644POPC   GL135449  43.800   7.433   9.172
 2644POPC   GL235450  44.082   7.213   9.127
 2644POPC   C1A35451  43.870   7.473   8.738
 2644POPC   D2A35452  43.818   7.651   8.310
 2644POPC   C3A35453  43.590   7.392   8.080
 2644POPC   C4A35454  43.651   7.051   7.798
 2644POPC   C1B35455  44.357   7.333   8.799
 2644POPC   C2B35456  44.313   7.654   8.529
 2644POPC   C3B35457  44.285   7.647   8.083
 2644POPC   C4B35458  44.019   7.389   7.815
 2645POPC   NC335459  42.874  33.278   9.529
 2645POPC   PO435460  43.352  32.751   9.585
 2645POPC   GL135461  43.416  32.819   9.185
 2645POPC   GL235462  43.234  33.133   9.205
 2645POPC   C1A35463  43.238  32.823   8.807
 2645POPC   D2A35464  43.198  32.915   8.432
 2645POPC   C3A35465  43.494  32.883   8.126
 2645POPC   C4A35466  43.258  32.830   7.756
 2645POPC   C1B35467  42.948  33.262   8.869
 2645POPC   C2B35468  42.933  33.432   8.460
 2645POPC   C3B35469  42.954  33.192   8.096
 2645POPC   C4B35470  42.854  33.160   7.711
 2646POPC   NC335471   7.390  17.915   9.310
 2646POPC   PO435472   7.681  18.451   9.635
 2646POPC   GL135473   7.748  18.545   9.192
 2646POPC   GL235474   7.789  18.187   9.093
 2646POPC   C1A35475   7.612  18.527   8.753
 2646POPC   D2A35476   7.310  18.454   8.403
 2646POPC   C3A35477   7.515  18.467   8.002
 2646POPC   C4A35478   7.559  18.694   7.645
 2646POPC   C1B35479   7.481  18.048   8.699
 2646POPC   C2B35480   7.604  18.032   8.275
 2646POPC   C3B35481   7.471  17.940   7.891
 2646POPC   C4B35482   7.327  17.994   7.474
 2647POPC   NC335483   9.048  11.533   9.414
 2647POPC   PO435484   9.222  12.084   9.382
 2647POPC   GL135485   9.022  12.047   9.058
 2647POPC   GL235486   9.032  12.374   9.012
 2647POPC   C1A35487   8.874  11.881   8.706
 2647POPC   D2A35488   8.746  12.071   8.338
 2647POPC   C3A35489   8.803  11.846   7.976
 2647POPC   C4A35490   9.096  11.846   7.693
 2647POPC   C1B35491   8.781  12.448   8.708
 2647POPC   C2B35492   9.000  12.533   8.359
 2647POPC   C3B35493   9.197  12.323   8.077
 2647POPC   C4B35494   8.935  12.370   7.784
 2648POPC   NC335495   6.011   4.072   9.520
 2648POPC   PO435496   5.696   4.731   9.543
 2648POPC   GL135497   5.848   4.458   9.176
 2648POPC   GL235498   5.662   4.124   9.134
 2648POPC   C1A35499   5.762   4.459   8.720
 2648POPC   D2A35500   5.511   4.620   8.364
 2648POPC   C3A35501   5.735   4.663   7.938
 2648POPC   C4A35502   6.020   4.438   7.632
 2648POPC   C1B35503   6.001   4.017   8.834
 2648POPC   C2B35504   6.012   4.101   8.382
 2648POPC   C3B35505   5.788   4.108   7.976
 2648POPC   C4B35506   5.500   3.913   7.688
 2649POPC   NC335507   7.674   0.628   9.365
 2649POPC   PO435508   7.033   0.373   9.389
 2649POPC   GL135509   7.245   0.602   9.045
 2649POPC   GL235510   7.492   0.336   8.928
 2649POPC   C1A35511   7.311   0.661   8.588
 2649POPC   D2A35512   7.522   0.388   8.298
 2649POPC   C3A35513   7.315   0.353   7.896
 2649POPC   C4A35514   6.954   0.488   7.669
 2649POPC   C1B35515   7.812   0.585   8.686
 2649POPC   C2B35516   8.054   0.633   8.299
 2649POPC   C3B35517   7.801   0.666   7.959
 2649POPC   C4B35518   7.703   0.557   7.579
 2650POPC   NC335519   3.369  40.495   9.486
 2650POPC   PO435520   3.226  41.168   9.322
 2650POPC   GL135521   3.378  40.836   9.114
 2650POPC   GL235522   3.669  40.838   9.006
 2650POPC   C1A35523   3.256  40.779   8.697
 2650POPC   D2A35524   3.339  41.041   8.384
 2650POPC   C3A35525   3.443  40.895   8.023
 2650POPC   C4A35526   3.690  40.976   7.706
 2650POPC   C1B35527   3.757  41.139   8.664
 2650POPC   C2B35528   3.923  41.018   8.240
 2650POPC   C3B35529   3.919  40.615   7.989
 2650POPC   C4B35530   3.896  40.551   7.518
 2651POPC   NC335531  23.384   3.058   9.551
 2651POPC   PO435532  22.652   3.149   9.547
 2651POPC   GL135533  22.817   2.934   9.157
 2651POPC   GL235534  23.099   2.700   9.152
 2651POPC   C1A35535  22.749   2.871   8.702
 2651POPC   D2A35536  22.914   2.932   8.288
 2651POPC   C3A35537  22.730   2.637   7.980
 2651POPC   C4A35538  22.895   2.392   7.651
 2651POPC   C1B35539  23.264   2.877   8.750
 2651POPC   C2B35540  23.514   2.905   8.362
 2651POPC   C3B35541  23.385   3.092   7.973
 2651POPC   C4B35542  22.996   3.025   7.771
 2652POPC   NC335543   5.257  14.794   9.491
 2652POPC   PO435544   5.012  14.104   9.578
 2652POPC   GL135545   4.982  14.392   9.281
 2652POPC   GL235546   5.338  14.394   9.184
 2652POPC   C1A35547   4.939  14.556   8.888
 2652POPC   D2A35548   5.166  14.405   8.521
 2652POPC   C3A35549   5.031  14.556   8.139
 2652POPC   C4A35550   5.027  14.260   7.783
 2652POPC   C1B35551   5.479  14.656   8.844
 2652POPC   C2B35552   5.556  14.699   8.373
 2652POPC   C3B35553   5.456  14.756   7.951
 2652POPC   C4B35554   5.216  14.692   7.622
 2653POPC   NC335555  13.332  18.560   9.388
 2653POPC   PO435556  13.133  18.014   9.541
 2653POPC   GL135557  12.973  18.218   9.137
 2653POPC   GL235558  12.622  18.146   9.181
 2653POPC   C1A35559  12.959  18.328   8.656
 2653POPC   D2A35560  12.939  18.045   8.266
 2653POPC   C3A35561  12.895  18.171   7.809
 2653POPC   C4A35562  13.106  18.507   7.564
 2653POPC   C1B35563  12.472  18.157   8.761
 2653POPC   C2B35564  12.514  18.417   8.400
 2653POPC   C3B35565  12.311  18.460   8.045
 2653POPC   C4B35566  12.388  18.147   7.739
 2654POPC   NC335567  44.970  11.189   9.766
 2654POPC   PO435568   0.618  11.146   9.680
 2654POPC   GL135569   0.329  11.206   9.353
 2654POPC   GL235570   0.627  11.177   9.151
 2654POPC   C1A35571   0.204  11.329   8.925
 2654POPC   D2A35572   0.290  11.510   8.508
 2654POPC   C3A35573   0.219  11.211   8.177
 2654POPC   C4A35574   0.374  11.284   7.776
 2654POPC   C1B35575   0.688  10.951   8.754
 2654POPC   C2B35576   0.546  10.792   8.348
 2654POPC   C3B35577   0.644  10.884   7.919
 2654POPC   C4B35578   0.721  11.076   7.471
 2655POPC   NC335579  42.732  42.083   9.384
 2655POPC   PO435580  43.186  42.445   9.712
 2655POPC   GL135581  43.209  42.364   9.243
 2655POPC   GL235582  43.206  41.983   9.211
 2655POPC   C1A35583  43.263  42.573   8.798
 2655POPC   D2A35584  43.455  42.336   8.384
 2655POPC   C3A35585  43.239  42.375   7.993
 2655POPC   C4A35586  42.853  42.597   7.938
 2655POPC   C1B35587  43.244  42.082   8.780
 2655POPC   C2B35588  42.946  42.263   8.455
 2655POPC   C3B35589  42.806  42.105   8.065
 2655POPC   C4B35590  42.950  41.991   7.691
 2656POPC   NC335591  24.488  14.746   9.328
 2656POPC   PO435592  24.040  14.366   9.573
 2656POPC   GL135593  24.300  14.299   9.135
 2656POPC   GL235594  24.597  14.472   8.926
 2656POPC   C1A35595  24.259  14.148   8.730
 2656POPC   D2A35596  24.074  13.990   8.397
 2656POPC   C3A35597  24.286  14.038   8.012
 2656POPC   C4A35598  24.446  14.269   7.668
 2656POPC   C1B35599  24.733  14.566   8.523
 2656POPC   C2B35600  24.743  14.468   8.091
 2656POPC   C3B35601  24.684  14.707   7.743
 2656POPC   C4B35602  24.869  14.851   7.385
 2657POPC   NC335603  29.655  38.266   9.547
 2657POPC   PO435604  29.987  37.641   9.459
 2657POPC   GL135605  29.881  37.715   9.084
 2657POPC   GL235606  29.975  38.062   9.123
 2657POPC   C1A35607  29.751  37.544   8.702
 2657POPC   D2A35608  29.978  37.326   8.368
 2657POPC   C3A35609  30.102  37.523   8.017
 2657POPC   C4A35610  29.894  37.698   7.651
 2657POPC   C1B35611  30.125  37.961   8.710
 2657POPC   C2B35612  29.944  37.887   8.328
 2657POPC   C3B35613  29.706  38.030   7.973
 2657POPC   C4B35614  29.903  38.214   7.606
 2658POPC   NC335615  43.266  41.302   9.756
 2658POPC   PO435616  42.832  41.638   9.440
 2658POPC   GL135617  43.029  41.507   9.097
 2658POPC   GL235618  43.324  41.400   9.250
 2658POPC   C1A35619  43.181  41.601   8.675
 2658POPC   D2A35620  43.189  41.838   8.292
 2658POPC   C3A35621  43.089  41.578   7.965
 2658POPC   C4A35622  43.012  41.207   7.704
 2658POPC   C1B35623  43.382  41.183   8.863
 2658POPC   C2B35624  43.501  41.303   8.432
 2658POPC   C3B35625  43.399  41.184   8.023
 2658POPC   C4B35626  43.458  41.417   7.608
 2659POPC   NC335627  10.413   0.858   9.629
 2659POPC   PO435628  10.636   1.418   9.438
 2659POPC   GL135629  10.293   1.250   9.229
 2659POPC   GL235630  10.207   1.547   9.080
 2659POPC   C1A35631  10.345   1.134   8.792
 2659POPC   D2A35632  10.573   1.223   8.410
 2659POPC   C3A35633  10.343   1.245   8.001
 2659POPC   C4A35634  10.494   1.131   7.621
 2659POPC   C1B35635  10.477   1.637   8.713
 2659POPC   C2B35636  10.414   1.685   8.265
 2659POPC   C3B35637  10.151   1.752   7.923
 2659POPC   C4B35638  10.414   1.626   7.624
 2660POPC   NC335639  18.487  18.904   9.412
 2660POPC   PO435640  17.817  18.890   9.360
 2660POPC   GL135641  17.912  19.227   9.076
 2660POPC   GL235642  18.273  19.178   9.013
 2660POPC   C1A35643  17.979  19.412   8.655
 2660POPC   D2A35644  18.339  19.337   8.395
 2660POPC   C3A35645  18.327  19.214   8.001
 2660POPC   C4A35646  18.105  19.355   7.667
 2660POPC   C1B35647  18.419  18.915   8.672
 2660POPC   C2B35648  18.470  18.758   8.232
 2660POPC   C3B35649  18.455  18.780   7.760
 2660POPC   C4B35650  18.481  18.566   7.314
 2661POPC   NC335651   6.785   8.361   9.511
 2661POPC   PO435652   6.242   7.918   9.488
 2661POPC   GL135653   6.447   8.207   9.161
 2661POPC   GL235654   6.779   8.057   9.070
 2661POPC   C1A35655   6.632   8.465   8.821
 2661POPC   D2A35656   6.800   8.336   8.426
 2661POPC   C3A35657   6.612   8.056   8.139
 2661POPC   C4A35658   6.688   8.077   7.709
 2661POPC   C1B35659   7.135   8.272   8.809
 2661POPC   C2B35660   7.288   8.389   8.347
 2661POPC   C3B35661   7.029   8.448   7.948
 2661POPC   C4B35662   7.085   8.396   7.486
 2662POPC   NC335663  37.222  28.132   9.480
 2662POPC   PO435664  36.526  28.228   9.497
 2662POPC   GL135665  36.815  28.233   9.183
 2662POPC   GL235666  36.965  28.556   9.217
 2662POPC   C1A35667  37.080  28.283   8.806
 2662POPC   D2A35668  36.854  28.280   8.421
 2662POPC   C3A35669  37.078  28.275   8.019
 2662POPC   C4A35670  37.192  28.486   7.651
 2662POPC   C1B35671  36.648  28.584   8.845
 2662POPC   C2B35672  36.615  28.744   8.436
 2662POPC   C3B35673  36.591  28.527   8.052
 2662POPC   C4B35674  36.711  28.700   7.686
 2663POPC   NC335675   1.864  25.567   9.475
 2663POPC   PO435676   2.062  24.975   9.519
 2663POPC   GL135677   2.096  25.157   9.101
 2663POPC   GL235678   2.108  25.524   9.023
 2663POPC   C1A35679   1.998  25.107   8.666
 2663POPC   D2A35680   1.723  24.923   8.361
 2663POPC   C3A35681   1.908  25.056   7.981
 2663POPC   C4A35682   1.852  25.162   7.568
 2663POPC   C1B35683   1.855  25.600   8.652
 2663POPC   C2B35684   1.860  25.489   8.227
 2663POPC   C3B35685   2.046  25.571   7.812
 2663POPC   C4B35686   1.835  25.666   7.432
 2664POPC   NC335687  16.866  13.726   9.488
 2664POPC   PO435688  17.049  13.069   9.538
 2664POPC   GL135689  16.855  13.284   9.198
 2664POPC   GL235690  16.502  13.324   9.228
 2664POPC   C1A35691  16.969  13.527   8.821
 2664POPC   D2A35692  16.899  13.424   8.384
 2664POPC   C3A35693  16.872  13.727   8.058
 2664POPC   C4A35694  16.871  13.596   7.643
 2664POPC   C1B35695  16.481  13.668   8.920
 2664POPC   C2B35696  16.567  13.825   8.514
 2664POPC   C3B35697  16.365  13.678   8.163
 2664POPC   C4B35698  16.391  13.683   7.743
 2665POPC   NC335699  37.794  21.623   9.563
 2665POPC   PO435700  37.858  22.211   9.471
 2665POPC   GL135701  37.858  21.891   9.127
 2665POPC   GL235702  37.515  21.720   9.111
 2665POPC   C1A35703  37.756  21.852   8.676
 2665POPC   D2A35704  37.870  22.042   8.296
 2665POPC   C3A35705  37.658  22.057   7.910
 2665POPC   C4A35706  37.663  22.338   7.560
 2665POPC   C1B35707  37.254  21.823   8.713
 2665POPC   C2B35708  37.366  22.064   8.320
 2665POPC   C3B35709  37.360  22.459   7.980
 2665POPC   C4B35710  37.165  22.388   7.518
 2666POPC   NC335711  34.468   1.077   9.504
 2666POPC   PO435712  35.138   1.252   9.509
 2666POPC   GL135713  34.858   1.386   9.176
 2666POPC   GL235714  34.705   1.053   9.056
 2666POPC   C1A35715  34.907   1.406   8.725
 2666POPC   D2A35716  34.860   1.002   8.530
 2666POPC   C3A35717  34.745   1.026   8.094
 2666POPC   C4A35718  34.560   1.348   7.829
 2666POPC   C1B35719  34.401   1.239   8.767
 2666POPC   C2B35720  34.481   1.438   8.362
 2666POPC   C3B35721  34.246   1.685   8.059
 2666POPC   C4B35722  34.105   1.552   7.672
 2667POPC   NC335723  43.966  16.761   9.615
 2667POPC   PO435724  43.331  16.839   9.550
 2667POPC   GL135725  43.658  16.810   9.231
 2667POPC   GL235726  43.857  17.112   9.233
 2667POPC   C1A35727  43.959  16.699   8.911
 2667POPC   D2A35728  44.013  16.568   8.474
 2667POPC   C3A35729  44.021  16.639   8.029
 2667POPC   C4A35730  44.304  16.321   7.862
 2667POPC   C1B35731  43.617  17.105   8.831
 2667POPC   C2B35732  43.729  17.011   8.392
 2667POPC   C3B35733  43.626  17.077   7.946
 2667POPC   C4B35734  43.407  17.001   7.511
 2668POPC   NC335735  23.924   6.352   9.499
 2668POPC   PO435736  23.637   6.922   9.594
 2668POPC   GL135737  23.605   6.909   9.139
 2668POPC   GL235738  23.764   6.591   9.091
 2668POPC   C1A35739  23.485   6.737   8.706
 2668POPC   D2A35740  23.599   6.580   8.317
 2668POPC   C3A35741  23.439   6.877   8.035
 2668POPC   C4A35742  23.540   6.839   7.647
 2668POPC   C1B35743  24.102   6.387   8.839
 2668POPC   C2B35744  24.174   6.199   8.449
 2668POPC   C3B35745  24.120   6.380   8.043
 2668POPC   C4B35746  24.012   6.598   7.670
 2669POPC   NC335747  31.297   3.837   9.621
 2669POPC   PO435748  31.822   4.235   9.383
 2669POPC   GL135749  31.510   4.312   9.093
 2669POPC   GL235750  31.330   3.996   9.073
 2669POPC   C1A35751  31.551   4.537   8.691
 2669POPC   D2A35752  31.724   4.633   8.296
 2669POPC   C3A35753  31.486   4.387   8.050
 2669POPC   C4A35754  31.297   4.383   7.670
 2669POPC   C1B35755  31.562   3.988   8.647
 2669POPC   C2B35756  31.661   3.877   8.190
 2669POPC   C3B35757  31.662   4.016   7.749
 2669POPC   C4B35758  31.663   3.813   7.344
 2670POPC   NC335759  38.862   4.645   9.292
 2670POPC   PO435760  38.556   4.315   9.822
 2670POPC   GL135761  38.488   4.163   9.331
 2670POPC   GL235762  38.488   4.439   9.035
 2670POPC   C1A35763  38.348   3.978   8.887
 2670POPC   D2A35764  38.461   4.281   8.516
 2670POPC   C3A35765  38.430   4.217   8.034
 2670POPC   C4A35766  38.362   3.948   7.635
 2670POPC   C1B35767  38.720   4.710   8.680
 2670POPC   C2B35768  38.887   4.701   8.254
 2670POPC   C3B35769  38.658   4.663   7.852
 2670POPC   C4B35770  38.384   4.465   7.511
 2671POPC   NC335771  29.926  32.650   9.606
 2671POPC   PO435772  30.309  33.155   9.434
 2671POPC   GL135773  30.112  33.059   9.062
 2671POPC   GL235774  30.154  32.711   9.137
 2671POPC   C1A35775  29.974  33.181   8.633
 2671POPC   D2A35776  30.002  33.061   8.198
 2671POPC   C3A35777  29.884  33.295   7.858
 2671POPC   C4A35778  29.728  33.414   7.430
 2671POPC   C1B35779  30.107  32.558   8.716
 2671POPC   C2B35780  29.880  32.573   8.335
 2671POPC   C3B35781  29.830  32.638   7.911
 2671POPC   C4B35782  30.036  32.869   7.585
 2672POPC   NC335783  27.328  12.068   9.539
 2672POPC   PO435784  27.253  11.424   9.361
 2672POPC   GL135785  27.301  11.793   9.106
 2672POPC   GL235786  27.613  11.997   9.108
 2672POPC   C1A35787  27.450  11.862   8.671
 2672POPC   D2A35788  27.603  12.107   8.347
 2672POPC   C3A35789  27.614  11.794   8.066
 2672POPC   C4A35790  27.752  11.793   7.636
 2672POPC   C1B35791  27.363  12.319   8.870
 2672POPC   C2B35792  27.424  12.569   8.491
 2672POPC   C3B35793  27.274  12.457   8.080
 2672POPC   C4B35794  27.520  12.218   7.814
 2673POPC   NC335795   6.027  28.611   9.811
 2673POPC   PO435796   5.872  28.013   9.599
 2673POPC   GL135797   6.040  28.230   9.214
 2673POPC   GL235798   6.031  28.569   9.243
 2673POPC   C1A35799   6.039  28.320   8.778
 2673POPC   D2A35800   5.917  28.550   8.409
 2673POPC   C3A35801   6.041  28.301   8.081
 2673POPC   C4A35802   5.939  28.189   7.680
 2673POPC   C1B35803   6.018  28.832   8.849
 2673POPC   C2B35804   6.252  28.921   8.468
 2673POPC   C3B35805   6.280  28.773   8.065
 2673POPC   C4B35806   5.931  28.711   7.775
 2674POPC   NC335807  28.708   0.245   9.589
 2674POPC   PO435808  29.296   0.610   9.556
 2674POPC   GL135809  29.029   0.538   9.250
 2674POPC   GL235810  29.088   0.187   9.247
 2674POPC   C1A35811  28.957   0.713   8.845
 2674POPC   D2A35812  29.115   0.575   8.470
 2674POPC   C3A35813  28.877   0.596   8.094
 2674POPC   C4A35814  29.073   0.561   7.696
 2674POPC   C1B35815  28.778   0.227   8.934
 2674POPC   C2B35816  28.711   0.275   8.516
 2674POPC   C3B35817  28.915   0.094   8.168
 2674POPC   C4B35818  28.823   0.105   7.715
 2675POPC   NC335819  16.345  29.745   9.686
 2675POPC   PO435820  15.955  30.281   9.508
 2675POPC   GL135821  15.835  30.011   9.205
 2675POPC   GL235822  16.085  29.753   9.198
 2675POPC   C1A35823  15.855  30.199   8.805
 2675POPC   D2A35824  16.094  30.263   8.438
 2675POPC   C3A35825  16.125  29.924   8.157
 2675POPC   C4A35826  15.974  30.017   7.770
 2675POPC   C1B35827  15.957  29.679   8.780
 2675POPC   C2B35828  15.876  29.431   8.421
 2675POPC   C3B35829  15.804  29.544   8.005
 2675POPC   C4B35830  16.164  29.564   7.723
 2676POPC   NC335831  18.688  40.827   9.662
 2676POPC   PO435832  19.325  40.622   9.488
 2676POPC   GL135833  19.114  40.824   9.177
 2676POPC   GL235834  18.759  40.794   9.150
 2676POPC   C1A35835  19.207  40.748   8.771
 2676POPC   D2A35836  18.912  40.650   8.477
 2676POPC   C3A35837  19.102  40.718   8.095
 2676POPC   C4A35838  19.253  40.855   7.711
 2676POPC   C1B35839  18.866  41.121   8.815
 2676POPC   C2B35840  18.823  41.299   8.389
 2676POPC   C3B35841  18.972  41.207   7.987
 2676POPC   C4B35842  18.698  41.117   7.699
 2677POPC   NC335843  19.130  27.578   9.476
 2677POPC   PO435844  19.489  28.095   9.470
 2677POPC   GL135845  19.215  27.914   9.106
 2677POPC   GL235846  18.862  27.686   9.064
 2677POPC   C1A35847  19.216  27.677   8.712
 2677POPC   D2A35848  19.361  27.394   8.454
 2677POPC   C3A35849  19.364  27.612   8.078
 2677POPC   C4A35850  19.373  27.396   7.719
 2677POPC   C1B35851  18.716  27.750   8.660
 2677POPC   C2B35852  18.877  27.763   8.229
 2677POPC   C3B35853  18.810  27.551   7.815
 2677POPC   C4B35854  18.698  27.772   7.411
 2678POPC   NC335855  23.438  13.152   9.556
 2678POPC   PO435856  23.534  12.551   9.410
 2678POPC   GL135857  23.850  12.768   9.184
 2678POPC   GL235858  23.916  13.098   9.191
 2678POPC   C1A35859  24.025  12.699   8.811
 2678POPC   D2A35860  23.890  12.784   8.413
 2678POPC   C3A35861  23.612  12.550   8.169
 2678POPC   C4A35862  23.644  12.651   7.753
 2678POPC   C1B35863  23.731  13.153   8.777
 2678POPC   C2B35864  23.474  13.088   8.427
 2678POPC   C3B35865  23.655  13.076   8.057
 2678POPC   C4B35866  23.650  13.313   7.741
 2679POPC   NC335867  29.789  10.247   9.558
 2679POPC   PO435868  29.745  10.936   9.536
 2679POPC   GL135869  29.682  10.607   9.170
 2679POPC   GL235870  29.649  10.218   9.069
 2679POPC   C1A35871  29.775  10.633   8.717
 2679POPC   D2A35872  29.646  10.512   8.270
 2679POPC   C3A35873  29.816  10.741   7.891
 2679POPC   C4A35874  29.785  10.776   7.427
 2679POPC   C1B35875  30.006  10.155   8.784
 2679POPC   C2B35876  30.126  10.369   8.422
 2679POPC   C3B35877  30.063  10.285   8.013
 2679POPC   C4B35878  30.153  10.448   7.617
 2680POPC   NC335879  13.935  13.641   9.473
 2680POPC   PO435880  13.289  13.807   9.615
 2680POPC   GL135881  13.481  13.723   9.249
 2680POPC   GL235882  13.346  13.436   9.128
 2680POPC   C1A35883  13.526  13.844   8.840
 2680POPC   D2A35884  13.377  13.698   8.464
 2680POPC   C3A35885  13.619  13.793   8.141
 2680POPC   C4A35886  13.499  13.757   7.736
 2680POPC   C1B35887  13.536  13.318   8.748
 2680POPC   C2B35888  13.826  13.388   8.397
 2680POPC   C3B35889  13.811  13.346   7.939
 2680POPC   C4B35890  13.997  13.460   7.560
 2681POPC   NC335891  23.572  31.102   9.642
 2681POPC   PO435892  23.834  31.658   9.487
 2681POPC   GL135893  23.692  31.620   9.069
 2681POPC   GL235894  23.478  31.876   8.941
 2681POPC   C1A35895  23.382  31.357   8.838
 2681POPC   D2A35896  23.224  31.277   8.408
 2681POPC   C3A35897  23.460  31.543   8.074
 2681POPC   C4A35898  23.552  31.346   7.650
 2681POPC   C1B35899  23.627  31.708   8.555
 2681POPC   C2B35900  23.758  31.291   8.433
 2681POPC   C3B35901  23.940  31.342   8.034
 2681POPC   C4B35902  23.905  31.763   7.831
 2682POPC   NC335903  37.018  16.152   9.451
 2682POPC   PO435904  36.881  15.490   9.474
 2682POPC   GL135905  36.982  15.747   9.117
 2682POPC   GL235906  36.653  15.932   9.124
 2682POPC   C1A35907  37.210  15.836   8.718
 2682POPC   D2A35908  37.375  15.968   8.304
 2682POPC   C3A35909  37.069  16.089   7.944
 2682POPC   C4A35910  37.130  15.800   7.591
 2682POPC   C1B35911  36.651  15.750   8.719
 2682POPC   C2B35912  36.849  15.796   8.306
 2682POPC   C3B35913  36.627  15.815   7.885
 2682POPC   C4B35914  36.454  16.132   7.594
 2683POPC   NC335915  21.954  21.484   9.795
 2683POPC   PO435916  21.437  21.160   9.555
 2683POPC   GL135917  21.504  21.369   9.216
 2683POPC   GL235918  21.267  21.129   9.064
 2683POPC   C1A35919  21.363  21.548   8.827
 2683POPC   D2A35920  21.262  21.326   8.470
 2683POPC   C3A35921  21.316  21.511   8.100
 2683POPC   C4A35922  21.429  21.410   7.735
 2683POPC   C1B35923  21.670  21.117   8.809
 2683POPC   C2B35924  21.921  21.044   8.459
 2683POPC   C3B35925  21.733  21.204   8.106
 2683POPC   C4B35926  21.889  21.202   7.690
 2684POPC   NC335927  41.406  27.413   9.467
 2684POPC   PO435928  41.893  27.732   9.855
 2684POPC   GL135929  41.849  27.677   9.329
 2684POPC   GL235930  41.853  27.342   9.159
 2684POPC   C1A35931  41.704  27.754   8.835
 2684POPC   D2A35932  41.811  27.879   8.342
 2684POPC   C3A35933  41.688  27.718   7.878
 2684POPC   C4A35934  41.391  27.829   7.486
 2684POPC   C1B35935  41.580  27.252   8.801
 2684POPC   C2B35936  41.363  27.281   8.422
 2684POPC   C3B35937  41.460  27.193   8.032
 2684POPC   C4B35938  41.575  27.266   7.616
 2685POPC   NC335939  10.527   5.294   9.958
 2685POPC   PO435940  10.901   4.931   9.583
 2685POPC   GL135941  10.721   4.849   9.145
 2685POPC   GL235942  10.566   5.167   9.044
 2685POPC   C1A35943  10.807   4.914   8.679
 2685POPC   D2A35944  10.904   4.998   8.245
 2685POPC   C3A35945  10.627   4.873   7.870
 2685POPC   C4A35946  10.347   4.889   7.470
 2685POPC   C1B35947  10.333   5.159   8.635
 2685POPC   C2B35948  10.361   5.184   8.184
 2685POPC   C3B35949  10.351   5.319   7.743
 2685POPC   C4B35950  10.192   5.674   7.463
 2686POPC   NC335951  29.192  16.630   9.589
 2686POPC   PO435952  28.491  16.563   9.491
 2686POPC   GL135953  28.845  16.575   9.223
 2686POPC   GL235954  29.001  16.875   9.160
 2686POPC   C1A35955  28.929  16.523   8.793
 2686POPC   D2A35956  28.913  16.650   8.357
 2686POPC   C3A35957  29.020  16.379   7.989
 2686POPC   C4A35958  29.042  16.304   7.544
 2686POPC   C1B35959  29.367  16.736   8.935
 2686POPC   C2B35960  29.578  16.745   8.549
 2686POPC   C3B35961  29.387  16.709   8.184
 2686POPC   C4B35962  29.122  16.850   7.841
 2687POPC   NC335963  30.290   1.522   9.243
 2687POPC   PO435964  29.919   1.156   9.614
 2687POPC   GL135965  29.956   1.140   9.152
 2687POPC   GL235966  30.295   1.040   9.052
 2687POPC   C1A35967  29.794   1.329   8.760
 2687POPC   D2A35968  29.821   1.456   8.353
 2687POPC   C3A35969  29.734   1.178   8.010
 2687POPC   C4A35970  29.757   1.425   7.656
 2687POPC   C1B35971  30.269   1.196   8.655
 2687POPC   C2B35972  30.186   1.098   8.242
 2687POPC   C3B35973  30.238   1.235   7.826
 2687POPC   C4B35974  30.180   1.283   7.371
 2688POPC   NC335975  30.213   9.331   9.464
 2688POPC   PO435976  29.782   9.797   9.491
 2688POPC   GL135977  29.984   9.789   9.134
 2688POPC   GL235978  30.324   9.882   9.203
 2688POPC   C1A35979  29.828   9.656   8.728
 2688POPC   D2A35980  29.974   9.452   8.364
 2688POPC   C3A35981  29.800   9.635   7.985
 2688POPC   C4A35982  29.850   9.460   7.571
 2688POPC   C1B35983  30.353   9.677   8.780
 2688POPC   C2B35984  30.309   9.862   8.361
 2688POPC   C3B35985  30.310   9.851   7.905
 2688POPC   C4B35986  30.009   9.953   7.594
 2689POPC   NC335987  11.081  27.272   9.470
 2689POPC   PO435988  11.527  27.773   9.607
 2689POPC   GL135989  11.406  27.572   9.223
 2689POPC   GL235990  11.070  27.689   9.144
 2689POPC   C1A35991  11.543  27.667   8.808
 2689POPC   D2A35992  11.680  27.485   8.428
 2689POPC   C3A35993  11.672  27.789   8.113
 2689POPC   C4A35994  11.571  27.512   7.805
 2689POPC   C1B35995  11.062  27.538   8.728
 2689POPC   C2B35996  11.159  27.622   8.314
 2689POPC   C3B35997  11.084  27.465   7.932
 2689POPC   C4B35998  11.134  27.578   7.506
 2690POPC   NC335999  23.298  24.632   9.503
 2690POPC   PO436000  23.896  24.296   9.499
 2690POPC   GL136001  23.668  24.447   9.174
 2690POPC   GL236002  23.420  24.222   9.209
 2690POPC   C1A36003  23.803  24.601   8.773
 2690POPC   D2A36004  23.729  24.776   8.343
 2690POPC   C3A36005  23.794  24.512   7.966
 2690POPC   C4A36006  23.650  24.651   7.536
 2690POPC   C1B36007  23.342  24.158   8.797
 2690POPC   C2B36008  23.486  24.320   8.430
 2690POPC   C3B36009  23.341  24.279   8.048
 2690POPC   C4B36010  23.432  24.192   7.670
 2691POPC   NC336011  28.531   2.238   9.340
 2691POPC   PO436012  28.165   1.827   9.471
 2691POPC   GL136013  28.310   1.857   9.073
 2691POPC   GL236014  28.662   1.770   9.139
 2691POPC   C1A36015  28.387   2.127   8.694
 2691POPC   D2A36016  28.586   2.044   8.294
 2691POPC   C3A36017  28.637   2.307   7.942
 2691POPC   C4A36018  28.302   2.353   7.639
 2691POPC   C1B36019  28.638   1.695   8.714
 2691POPC   C2B36020  28.911   1.666   8.369
 2691POPC   C3B36021  28.824   1.752   7.931
 2691POPC   C4B36022  28.559   1.907   7.636
 2692POPC   NC336023  25.443  33.570   9.460
 2692POPC   PO436024  24.962  34.029   9.553
 2692POPC   GL136025  25.105  33.890   9.156
 2692POPC   GL236026  25.034  33.539   9.134
 2692POPC   C1A36027  25.383  33.704   8.831
 2692POPC   D2A36028  25.530  33.624   8.446
 2692POPC   C3A36029  25.276  33.682   8.110
 2692POPC   C4A36030  25.408  33.805   7.716
 2692POPC   C1B36031  24.947  33.472   8.668
 2692POPC   C2B36032  24.834  33.383   8.231
 2692POPC   C3B36033  24.900  33.491   7.803
 2692POPC   C4B36034  25.031  33.621   7.397
 2693POPC   NC336035  22.663  41.020   9.523
 2693POPC   PO436036  23.215  40.643   9.489
 2693POPC   GL136037  23.063  40.849   9.174
 2693POPC   GL236038  22.754  40.667   9.153
 2693POPC   C1A36039  23.113  40.771   8.750
 2693POPC   D2A36040  22.951  40.585   8.384
 2693POPC   C3A36041  23.172  40.700   8.015
 2693POPC   C4A36042  23.229  40.825   7.603
 2693POPC   C1B36043  22.563  40.685   8.755
 2693POPC   C2B36044  22.435  40.816   8.354
 2693POPC   C3B36045  22.657  40.843   7.952
 2693POPC   C4B36046  22.747  40.514   7.653
 2694POPC   NC336047  32.414  23.675   9.470
 2694POPC   PO436048  31.904  23.938   9.184
 2694POPC   GL136049  32.171  23.673   8.952
 2694POPC   GL236050  32.449  23.440   9.026
 2694POPC   C1A36051  32.281  23.764   8.521
 2694POPC   D2A36052  32.537  24.014   8.221
 2694POPC   C3A36053  32.337  23.908   7.838
 2694POPC   C4A36054  31.913  24.077   7.844
 2694POPC   C1B36055  32.262  23.232   8.722
 2694POPC   C2B36056  32.300  23.292   8.318
 2694POPC   C3B36057  32.442  23.394   7.930
 2694POPC   C4B36058  32.307  23.409   7.546
 2695POPC   NC336059  13.810  15.170   9.502
 2695POPC   PO436060  13.251  15.425   9.193
 2695POPC   GL136061  13.719  15.384   9.057
 2695POPC   GL236062  14.105  15.392   9.133
 2695POPC   C1A36063  13.861  15.192   8.691
 2695POPC   D2A36064  13.554  15.346   8.407
 2695POPC   C3A36065  13.412  15.074   8.085
 2695POPC   C4A36066  13.629  14.750   7.837
 2695POPC   C1B36067  14.082  15.649   8.750
 2695POPC   C2B36068  14.129  15.457   8.324
 2695POPC   C3B36069  13.921  15.165   8.057
 2695POPC   C4B36070  13.705  15.235   7.639
 2696POPC   NC336071  14.468   5.701   9.717
 2696POPC   PO436072  14.010   6.106   9.497
 2696POPC   GL136073  14.243   5.811   9.193
 2696POPC   GL236074  14.601   5.744   9.199
 2696POPC   C1A36075  14.298   5.716   8.730
 2696POPC   D2A36076  14.500   5.912   8.348
 2696POPC   C3A36077  14.479   5.716   7.966
 2696POPC   C4A36078  14.300   5.797   7.559
 2696POPC   C1B36079  14.783   5.875   8.799
 2696POPC   C2B36080  14.828   6.255   8.546
 2696POPC   C3B36081  14.800   6.290   8.107
 2696POPC   C4B36082  14.788   6.055   7.736
 2697POPC   NC336083   7.406  20.622   9.548
 2697POPC   PO436084   8.047  20.607   9.462
 2697POPC   GL136085   7.775  20.757   9.145
 2697POPC   GL236086   7.439  20.574   9.059
 2697POPC   C1A36087   7.823  20.614   8.720
 2697POPC   D2A36088   7.557  20.513   8.376
 2697POPC   C3A36089   7.603  20.650   7.986
 2697POPC   C4A36090   7.686  20.401   7.604
 2697POPC   C1B36091   7.172  20.510   8.713
 2697POPC   C2B36092   7.091  20.251   8.357
 2697POPC   C3B36093   7.132  20.440   7.956
 2697POPC   C4B36094   7.231  20.566   7.549
 2698POPC   NC336095  40.300   0.331   9.789
 2698POPC   PO436096  40.832   0.447   9.545
 2698POPC   GL136097  40.785   0.641   9.116
 2698POPC   GL236098  40.412   0.748   9.116
 2698POPC   C1A36099  40.654   0.576   8.689
 2698POPC   D2A36100  40.404   0.337   8.424
 2698POPC   C3A36101  40.584   0.295   8.033
 2698POPC   C4A36102  40.877   0.549   7.824
 2698POPC   C1B36103  40.209   0.814   8.670
 2698POPC   C2B36104  40.393   0.882   8.232
 2698POPC   C3B36105  40.379   0.714   7.774
 2698POPC   C4B36106  40.257   0.613   7.310
 2699POPC   NC336107  16.958  18.266   9.435
 2699POPC   PO436108  16.338  18.052   9.559
 2699POPC   GL136109  16.469  18.092   9.145
 2699POPC   GL236110  16.188  17.874   9.085
 2699POPC   C1A36111  16.830  18.080   8.826
 2699POPC   D2A36112  16.940  18.429   8.540
 2699POPC   C3A36113  16.967  18.331   8.106
 2699POPC   C4A36114  16.691  18.449   7.771
 2699POPC   C1B36115  16.405  17.817   8.708
 2699POPC   C2B36116  16.520  18.116   8.405
 2699POPC   C3B36117  16.518  18.047   7.996
 2699POPC   C4B36118  16.862  17.893   7.808
 2700POPC   NC336119   0.602  41.920   9.305
 2700POPC   PO436120   0.726  41.461   9.772
 2700POPC   GL136121   0.737  41.435   9.249
 2700POPC   GL236122   0.912  41.131   9.217
 2700POPC   C1A36123   0.403  41.504   8.841
 2700POPC   D2A36124   0.160  41.405   8.423
 2700POPC   C3A36125   0.325  41.571   8.003
 2700POPC   C4A36126   0.401  41.915   7.666
 2700POPC   C1B36127   0.757  41.161   8.794
 2700POPC   C2B36128   0.686  41.381   8.378
 2700POPC   C3B36129   0.702  41.230   7.939
 2700POPC   C4B36130   0.555  41.434   7.535
 2701POPC   NC336131  29.478  37.563   9.388
 2701POPC   PO436132  29.203  38.176   9.467
 2701POPC   GL136133  29.039  37.924   9.104
 2701POPC   GL236134  29.035  37.536   9.140
 2701POPC   C1A36135  29.209  37.764   8.687
 2701POPC   D2A36136  29.478  37.684   8.285
 2701POPC   C3A36137  29.343  37.669   7.841
 2701POPC   C4A36138  29.452  37.957   7.501
 2701POPC   C1B36139  28.956  37.299   8.763
 2701POPC   C2B36140  29.042  37.431   8.333
 2701POPC   C3B36141  29.126  37.216   7.956
 2701POPC   C4B36142  29.062  37.321   7.527
 2702POPC   NC336143  34.437   3.115   9.480
 2702POPC   PO436144  34.156   2.486   9.327
 2702POPC   GL136145  34.490   2.704   9.165
 2702POPC   GL236146  34.805   2.517   9.267
 2702POPC   C1A36147  34.450   2.832   8.740
 2702POPC   D2A36148  34.389   2.508   8.443
 2702POPC   C3A36149  34.602   2.593   8.080
 2702POPC   C4A36150  34.458   2.888   7.736
 2702POPC   C1B36151  34.878   2.608   8.838
 2702POPC   C2B36152  34.917   3.027   8.622
 2702POPC   C3B36153  34.813   3.131   8.176
 2702POPC   C4B36154  34.939   2.872   7.821
 2703POPC   NC336155  22.794  16.217   9.499
 2703POPC   PO436156  23.071  15.704   9.859
 2703POPC   GL136157  23.019  15.725   9.335
 2703POPC   GL236158  23.167  16.029   9.175
 2703POPC   C1A36159  22.889  15.674   8.870
 2703POPC   D2A36160  23.047  15.878   8.471
 2703POPC   C3A36161  22.856  16.017   8.069
 2703POPC   C4A36162  23.012  15.864   7.674
 2703POPC   C1B36163  23.305  16.219   8.766
 2703POPC   C2B36164  23.189  16.373   8.316
 2703POPC   C3B36165  23.268  16.263   7.843
 2703POPC   C4B36166  23.267  16.205   7.345
 2704POPC   NC336167  19.128  42.870   9.530
 2704POPC   PO436168  19.200  42.162   9.499
 2704POPC   GL136169  19.050  42.308   9.143
 2704POPC   GL236170  19.234  42.624   9.102
 2704POPC   C1A36171  19.100  42.138   8.723
 2704POPC   D2A36172  19.267  42.204   8.315
 2704POPC   C3A36173  19.111  42.057   7.945
 2704POPC   C4A36174  18.948  41.988   7.567
 2704POPC   C1B36175  18.955  42.632   8.768
 2704POPC   C2B36176  19.120  42.690   8.407
 2704POPC   C3B36177  18.932  42.641   8.057
 2704POPC   C4B36178  18.869  42.447   7.723
 2705POPC   NC336179  33.300  32.527   9.622
 2705POPC   PO436180  32.780  32.078   9.778
 2705POPC   GL136181  32.863  32.171   9.344
 2705POPC   GL236182  33.205  32.167   9.224
 2705POPC   C1A36183  32.809  32.075   8.901
 2705POPC   D2A36184  32.949  32.235   8.552
 2705POPC   C3A36185  32.962  32.204   8.139
 2705POPC   C4A36186  33.038  32.427   7.770
 2705POPC   C1B36187  33.243  32.472   8.903
 2705POPC   C2B36188  33.374  32.509   8.479
 2705POPC   C3B36189  33.459  32.425   8.053
 2705POPC   C4B36190  33.439  32.751   7.732
 2706POPC   NC336191  13.093  20.423   9.445
 2706POPC   PO436192  12.573  20.867   9.393
 2706POPC   GL136193  12.819  20.693   9.089
 2706POPC   GL236194  12.734  20.323   9.090
 2706POPC   C1A36195  12.684  20.619   8.666
 2706POPC   D2A36196  12.555  20.753   8.278
 2706POPC   C3A36197  12.863  20.603   7.973
 2706POPC   C4A36198  13.011  20.755   7.587
 2706POPC   C1B36199  13.090  20.355   8.797
 2706POPC   C2B36200  13.025  20.290   8.399
 2706POPC   C3B36201  13.213  20.159   8.086
 2706POPC   C4B36202  13.226  20.312   7.683
 2707POPC   NC336203  44.384  18.180   9.704
 2707POPC   PO436204  44.966  18.534   9.536
 2707POPC   GL136205  44.627  18.350   9.287
 2707POPC   GL236206  44.230  18.349   9.259
 2707POPC   C1A36207  44.576  18.254   8.886
 2707POPC   D2A36208  44.549  18.338   8.483
 2707POPC   C3A36209  44.780  18.170   8.157
 2707POPC   C4A36210  44.681  18.408   7.765
 2707POPC   C1B36211  44.134  18.012   8.924
 2707POPC   C2B36212  44.326  17.874   8.529
 2707POPC   C3B36213  44.282  18.078   8.103
 2707POPC   C4B36214  44.382  18.006   7.663
 2708POPC   NC336215  29.947  20.275   9.643
 2708POPC   PO436216  30.101  19.646   9.906
 2708POPC   GL136217  29.966  19.844   9.361
 2708POPC   GL236218  30.066  20.177   9.153
 2708POPC   C1A36219  29.928  19.773   8.857
 2708POPC   D2A36220  29.771  19.848   8.411
 2708POPC   C3A36221  30.037  19.717   8.022
 2708POPC   C4A36222  29.884  19.701   7.610
 2708POPC   C1B36223  30.095  20.373   8.736
 2708POPC   C2B36224  29.936  20.350   8.328
 2708POPC   C3B36225  29.753  20.137   7.990
 2708POPC   C4B36226  30.086  20.159   7.736
 2709POPC   NC336227  15.617  20.341   9.555
 2709POPC   PO436228  15.994  20.845   9.559
 2709POPC   GL136229  16.062  20.644   9.170
 2709POPC   GL236230  15.803  20.386   9.103
 2709POPC   C1A36231  16.008  20.741   8.744
 2709POPC   D2A36232  16.158  20.575   8.378
 2709POPC   C3A36233  16.013  20.425   8.002
 2709POPC   C4A36234  15.976  20.673   7.633
 2709POPC   C1B36235  15.642  20.110   8.795
 2709POPC   C2B36236  15.695  20.259   8.386
 2709POPC   C3B36237  15.521  20.393   8.003
 2709POPC   C4B36238  15.480  20.571   7.608
 2710POPC   NC336239  20.083  27.877   9.526
 2710POPC   PO436240  20.027  27.259   9.577
 2710POPC   GL136241  19.767  27.509   9.317
 2710POPC   GL236242  20.060  27.535   9.125
 2710POPC   C1A36243  19.632  27.449   8.895
 2710POPC   D2A36244  19.859  27.236   8.561
 2710POPC   C3A36245  19.976  27.497   8.207
 2710POPC   C4A36246  19.813  27.582   7.812
 2710POPC   C1B36247  20.085  27.701   8.694
 2710POPC   C2B36248  19.958  27.993   8.340
 2710POPC   C3B36249  20.140  27.937   7.921
 2710POPC   C4B36250  20.078  27.902   7.474
 2711POPC   NC336251  41.183   4.874   9.675
 2711POPC   PO436252  40.723   5.397   9.622
 2711POPC   GL136253  40.751   5.189   9.230
 2711POPC   GL236254  41.093   5.266   9.294
 2711POPC   C1A36255  40.645   5.035   8.797
 2711POPC   D2A36256  40.764   4.798   8.428
 2711POPC   C3A36257  40.876   4.940   8.036
 2711POPC   C4A36258  40.610   5.106   7.714
 2711POPC   C1B36259  41.109   5.280   8.856
 2711POPC   C2B36260  40.918   5.309   8.453
 2711POPC   C3B36261  40.882   5.455   8.054
 2711POPC   C4B36262  41.083   5.290   7.721
 2712POPC   NC336263  21.401  38.615   9.792
 2712POPC   PO436264  21.135  38.016   9.733
 2712POPC   GL136265  21.203  38.106   9.261
 2712POPC   GL236266  21.543  38.158   9.109
 2712POPC   C1A36267  21.077  37.965   8.814
 2712POPC   D2A36268  20.999  38.241   8.415
 2712POPC   C3A36269  21.154  38.292   8.019
 2712POPC   C4A36270  21.027  38.624   7.742
 2712POPC   C1B36271  21.330  38.405   8.777
 2712POPC   C2B36272  21.359  38.641   8.396
 2712POPC   C3B36273  21.468  38.685   7.988
 2712POPC   C4B36274  21.834  38.663   7.812
 2713POPC   NC336275  35.980  16.348   9.607
 2713POPC   PO436276  36.125  17.017   9.543
 2713POPC   GL136277  36.142  16.674   9.240
 2713POPC   GL236278  35.783  16.562   9.194
 2713POPC   C1A36279  36.330  16.549   8.851
 2713POPC   D2A36280  36.170  16.733   8.458
 2713POPC   C3A36281  36.378  16.819   8.077
 2713POPC   C4A36282  36.313  16.612   7.682
 2713POPC   C1B36283  35.827  16.455   8.761
 2713POPC   C2B36284  35.907  16.303   8.332
 2713POPC   C3B36285  35.882  16.603   7.973
 2713POPC   C4B36286  35.824  16.669   7.510
 2714POPC   NC336287  28.002  20.693   9.506
 2714POPC   PO436288  27.500  20.289   9.537
 2714POPC   GL136289  27.619  20.505   9.172
 2714POPC   GL236290  27.550  20.862   9.248
 2714POPC   C1A36291  27.485  20.337   8.762
 2714POPC   D2A36292  27.314  20.163   8.375
 2714POPC   C3A36293  27.487  20.338   8.052
 2714POPC   C4A36294  27.547  20.427   7.654
 2714POPC   C1B36295  27.523  20.860   8.808
 2714POPC   C2B36296  27.454  20.703   8.399
 2714POPC   C3B36297  27.658  20.827   8.031
 2714POPC   C4B36298  27.556  20.927   7.632
 2715POPC   NC336299  25.480  42.615   9.819
 2715POPC   PO436300  24.996  42.169   9.769
 2715POPC   GL136301  25.309  42.433   9.385
 2715POPC   GL236302  25.704  42.514   9.326
 2715POPC   C1A36303  25.409  42.408   8.905
 2715POPC   D2A36304  25.461  42.023   8.606
 2715POPC   C3A36305  25.499  42.026   8.151
 2715POPC   C4A36306  25.230  42.202   7.828
 2715POPC   C1B36307  25.914  42.433   8.883
 2715POPC   C2B36308  25.670  42.465   8.467
 2715POPC   C3B36309  25.554  42.535   8.029
 2715POPC   C4B36310  25.256  42.728   7.760
 2716POPC   NC336311  27.311  24.444   9.584
 2716POPC   PO436312  26.585  24.364   9.574
 2716POPC   GL136313  26.622  24.320   9.146
 2716POPC   GL236314  26.825  24.571   9.070
 2716POPC   C1A36315  26.705  24.268   8.694
 2716POPC   D2A36316  26.660  24.569   8.386
 2716POPC   C3A36317  26.585  24.356   8.030
 2716POPC   C4A36318  26.455  24.535   7.665
 2716POPC   C1B36319  27.014  24.736   8.737
 2716POPC   C2B36320  27.138  24.707   8.290
 2716POPC   C3B36321  26.934  24.725   7.901
 2716POPC   C4B36322  27.086  24.962   7.536
 2717POPC   NC336323  24.904  28.080   9.483
 2717POPC   PO436324  24.217  28.388   9.468
 2717POPC   GL136325  24.308  28.301   9.038
 2717POPC   GL236326  24.415  28.653   9.051
 2717POPC   C1A36327  24.483  28.452   8.616
 2717POPC   D2A36328  24.710  28.624   8.297
 2717POPC   C3A36329  24.737  28.282   8.001
 2717POPC   C4A36330  24.459  28.093   7.702
 2717POPC   C1B36331  24.039  28.649   8.747
 2717POPC   C2B36332  24.155  28.665   8.283
 2717POPC   C3B36333  24.266  28.551   7.847
 2717POPC   C4B36334  24.107  28.463   7.415
 2718POPC   NC336335  42.970  44.801   9.572
 2718POPC   PO436336  43.230  44.209   9.774
 2718POPC   GL136337  43.091  44.309   9.329
 2718POPC   GL236338  43.260  44.605   9.182
 2718POPC   C1A36339  43.037  44.285   8.867
 2718POPC   D2A36340  43.214  44.464   8.453
 2718POPC   C3A36341  43.100  44.678   8.056
 2718POPC   C4A36342  43.344  44.512   7.697
 2718POPC   C1B36343  43.250  44.823   8.794
 2718POPC   C2B36344  43.245   0.056   8.437
 2718POPC   C3B36345  43.466   0.066   8.098
 2718POPC   C4B36346  43.277   0.052   7.705
 2719POPC   NC336347  44.733  27.505   9.747
 2719POPC   PO436348  44.793  28.012   9.292
 2719POPC   GL136349  44.753  27.547   9.071
 2719POPC   GL236350  44.619  27.736   8.859
 2719POPC   C1A36351  44.774  27.260   8.760
 2719POPC   D2A36352  44.877  27.519   8.437
 2719POPC   C3A36353  44.832  27.285   8.103
 2719POPC   C4A36354  44.611  27.300   7.733
 2719POPC   C1B36355  44.265  27.816   8.659
 2719POPC   C2B36356  44.235  27.874   8.262
 2719POPC   C3B36357  44.580  27.745   8.016
 2719POPC   C4B36358  44.613  27.802   7.585
 2720POPC   NC336359   5.879  30.339   9.604
 2720POPC   PO436360   5.930  31.103   9.505
 2720POPC   GL136361   5.902  30.867   9.116
 2720POPC   GL236362   5.831  30.503   9.140
 2720POPC   C1A36363   6.118  30.849   8.704
 2720POPC   D2A36364   6.137  31.142   8.349
 2720POPC   C3A36365   6.056  30.911   7.967
 2720POPC   C4A36366   6.162  30.524   7.759
 2720POPC   C1B36367   5.964  30.363   8.743
 2720POPC   C2B36368   5.974  30.541   8.323
 2720POPC   C3B36369   5.732  30.470   7.977
 2720POPC   C4B36370   5.471  30.508   7.638
 2721POPC   NC336371  25.825   4.017   9.570
 2721POPC   PO436372  26.270   4.480   9.436
 2721POPC   GL136373  26.054   4.343   9.122
 2721POPC   GL236374  26.147   4.027   9.138
 2721POPC   C1A36375  26.164   4.397   8.689
 2721POPC   D2A36376  26.298   4.444   8.252
 2721POPC   C3A36377  26.010   4.317   7.934
 2721POPC   C4A36378  25.869   4.021   7.660
 2721POPC   C1B36379  26.257   3.892   8.759
 2721POPC   C2B36380  26.058   3.996   8.364
 2721POPC   C3B36381  26.241   3.867   7.991
 2721POPC   C4B36382  26.417   3.881   7.570
 2722POPC   NC336383  22.387   0.144   9.616
 2722POPC   PO436384  22.586  44.490   9.511
 2722POPC   GL136385  22.357  44.758   9.197
 2722POPC   GL236386  22.003  44.849   9.199
 2722POPC   C1A36387  22.338  44.892   8.764
 2722POPC   D2A36388  22.156  44.918   8.338
 2722POPC   C3A36389  22.449  44.800   7.991
 2722POPC   C4A36390  22.413  44.668   7.536
 2722POPC   C1B36391  21.885  44.606   8.802
 2722POPC   C2B36392  21.928  44.452   8.340
 2722POPC   C3B36393  22.026  44.534   7.865
 2722POPC   C4B36394  22.031  44.376   7.376
 2723POPC   NC336395  14.650   1.368   9.550
 2723POPC   PO436396  14.182   0.885   9.533
 2723POPC   GL136397  14.231   1.263   9.277
 2723POPC   GL236398  14.578   1.235   9.078
 2723POPC   C1A36399  14.183   1.444   8.887
 2723POPC   D2A36400  14.210   1.521   8.452
 2723POPC   C3A36401  14.404   1.264   8.144
 2723POPC   C4A36402  14.366   1.113   7.706
 2723POPC   C1B36403  14.663   1.468   8.656
 2723POPC   C2B36404  14.824   1.539   8.191
 2723POPC   C3B36405  14.867   1.216   7.835
 2723POPC   C4B36406  14.771   0.997   7.404
 2724POPC   NC336407  32.971  27.077  10.061
 2724POPC   PO436408  32.709  26.994   9.410
 2724POPC   GL136409  32.934  26.719   9.097
 2724POPC   GL236410  33.250  26.522   9.177
 2724POPC   C1A36411  32.871  26.523   8.679
 2724POPC   D2A36412  32.937  26.367   8.283
 2724POPC   C3A36413  32.839  26.625   7.917
 2724POPC   C4A36414  32.893  26.746   7.466
 2724POPC   C1B36415  33.341  26.724   8.749
 2724POPC   C2B36416  33.201  26.793   8.307
 2724POPC   C3B36417  33.189  26.996   7.874
 2724POPC   C4B36418  33.228  27.176   7.439
 2725POPC   NC336419   1.826  18.461   9.245
 2725POPC   PO436420   2.281  18.844   9.544
 2725POPC   GL136421   2.004  18.956   9.218
 2725POPC   GL236422   2.168  19.272   9.094
 2725POPC   C1A36423   1.879  18.951   8.793
 2725POPC   D2A36424   2.107  19.092   8.456
 2725POPC   C3A36425   1.811  19.151   8.123
 2725POPC   C4A36426   1.892  18.946   7.770
 2725POPC   C1B36427   2.328  19.526   8.746
 2725POPC   C2B36428   2.471  19.482   8.339
 2725POPC   C3B36429   2.338  19.361   7.923
 2725POPC   C4B36430   2.470  19.377   7.456
 2726POPC   NC336431  32.801  39.610   9.668
 2726POPC   PO436432  33.156  39.040   9.796
 2726POPC   GL136433  33.068  39.231   9.379
 2726POPC   GL236434  32.710  39.275   9.235
 2726POPC   C1A36435  33.098  39.124   8.945
 2726POPC   D2A36436  32.954  39.297   8.553
 2726POPC   C3A36437  33.107  39.114   8.160
 2726POPC   C4A36438  33.128  39.066   7.717
 2726POPC   C1B36439  32.534  39.487   8.845
 2726POPC   C2B36440  32.602  39.630   8.399
 2726POPC   C3B36441  32.812  39.507   8.059
 2726POPC   C4B36442  32.793  39.435   7.655
 2727POPC   NC336443  16.798  28.920   9.876
 2727POPC   PO436444  16.789  29.628   9.766
 2727POPC   GL136445  16.637  29.422   9.342
 2727POPC   GL236446  16.883  29.171   9.234
 2727POPC   C1A36447  16.549  29.335   8.853
 2727POPC   D2A36448  16.418  29.500   8.406
 2727POPC   C3A36449  16.612  29.273   8.038
 2727POPC   C4A36450  16.526  28.882   7.888
 2727POPC   C1B36451  17.010  29.047   8.795
 2727POPC   C2B36452  16.851  28.922   8.388
 2727POPC   C3B36453  17.016  28.870   7.989
 2727POPC   C4B36454  16.927  29.110   7.655
 2728POPC   NC336455   3.458  29.721   9.427
 2728POPC   PO436456   3.568  30.365   9.385
 2728POPC   GL136457   3.564  30.083   9.051
 2728POPC   GL236458   3.519  29.729   8.934
 2728POPC   C1A36459   3.692  30.112   8.635
 2728POPC   D2A36460   3.423  29.984   8.325
 2728POPC   C3A36461   3.575  30.052   7.927
 2728POPC   C4A36462   3.274  29.957   7.596
 2728POPC   C1B36463   3.859  29.615   8.657
 2728POPC   C2B36464   3.891  29.742   8.247
 2728POPC   C3B36465   3.819  29.611   7.845
 2728POPC   C4B36466   3.581  29.464   7.511
 2729POPC   NC336467  30.652   7.054   9.495
 2729POPC   PO436468  31.015   6.496   9.669
 2729POPC   GL136469  30.850   6.626   9.269
 2729POPC   GL236470  30.510   6.572   9.230
 2729POPC   C1A36471  30.875   6.507   8.835
 2729POPC   D2A36472  30.785   6.708   8.446
 2729POPC   C3A36473  30.954   6.488   8.125
 2729POPC   C4A36474  30.877   6.636   7.743
 2729POPC   C1B36475  30.404   6.700   8.812
 2729POPC   C2B36476  30.304   6.503   8.433
 2729POPC   C3B36477  30.456   6.386   8.075
 2729POPC   C4B36478  30.393   6.540   7.693
 2730POPC   NC336479  12.581  27.413   9.550
 2730POPC   PO436480  13.185  27.789   9.546
 2730POPC   GL136481  13.012  27.561   9.225
 2730POPC   GL236482  12.709  27.725   9.186
 2730POPC   C1A36483  12.982  27.404   8.818
 2730POPC   D2A36484  12.728  27.349   8.491
 2730POPC   C3A36485  12.975  27.314   8.115
 2730POPC   C4A36486  12.823  27.369   7.706
 2730POPC   C1B36487  12.538  27.705   8.820
 2730POPC   C2B36488  12.604  27.851   8.422
 2730POPC   C3B36489  12.540  27.608   8.084
 2730POPC   C4B36490  12.504  27.749   7.693
 2731POPC   NC336491  13.116  19.535   9.478
 2731POPC   PO436492  13.770  19.978   9.514
 2731POPC   GL136493  13.534  19.774   9.189
 2731POPC   GL236494  13.311  20.005   9.068
 2731POPC   C1A36495  13.462  19.508   8.823
 2731POPC   D2A36496  13.630  19.510   8.411
 2731POPC   C3A36497  13.395  19.558   8.067
 2731POPC   C4A36498  13.357  19.838   7.737
 2731POPC   C1B36499  13.489  20.005   8.654
 2731POPC   C2B36500  13.704  19.997   8.252
 2731POPC   C3B36501  13.690  20.239   7.889
 2731POPC   C4B36502  13.694  20.211   7.463
 2732POPC   NC336503   8.289   0.556   9.649
 2732POPC   PO436504   7.873   0.216   9.253
 2732POPC   GL136505   8.121   0.533   9.098
 2732POPC   GL236506   8.469   0.546   9.159
 2732POPC   C1A36507   8.300   0.447   8.701
 2732POPC   D2A36508   8.321   0.173   8.359
 2732POPC   C3A36509   8.186   0.293   7.922
 2732POPC   C4A36510   8.205   0.611   7.613
 2732POPC   C1B36511   8.633   0.814   8.814
 2732POPC   C2B36512   8.632   0.646   8.386
 2732POPC   C3B36513   8.539   0.725   7.983
 2732POPC   C4B36514   8.720   0.564   7.617
 2733POPC   NC336515  33.851  14.226   9.340
 2733POPC   PO436516  33.557  14.783   9.495
 2733POPC   GL136517  33.709  14.640   9.096
 2733POPC   GL236518  34.013  14.718   9.031
 2733POPC   C1A36519  33.698  14.369   8.716
 2733POPC   D2A36520  33.492  14.278   8.311
 2733POPC   C3A36521  33.609  14.039   7.926
 2733POPC   C4A36522  33.941  14.207   7.672
 2733POPC   C1B36523  34.161  14.883   8.679
 2733POPC   C2B36524  33.973  14.620   8.370
 2733POPC   C3B36525  33.811  14.542   8.008
 2733POPC   C4B36526  33.469  14.501   7.757
 2734POPC   NC336527  23.187  17.724   9.667
 2734POPC   PO436528  22.745  17.301   9.374
 2734POPC   GL136529  22.857  17.496   9.076
 2734POPC   GL236530  23.194  17.518   9.172
 2734POPC   C1A36531  22.752  17.482   8.666
 2734POPC   D2A36532  22.839  17.715   8.335
 2734POPC   C3A36533  22.751  17.438   8.041
 2734POPC   C4A36534  22.594  17.298   7.674
 2734POPC   C1B36535  23.250  17.556   8.721
 2734POPC   C2B36536  23.449  17.819   8.473
 2734POPC   C3B36537  23.374  17.951   8.090
 2734POPC   C4B36538  23.075  17.776   7.885
 2735POPC   NC336539  42.673  23.814   9.771
 2735POPC   PO436540  42.101  23.663   9.558
 2735POPC   GL136541  41.999  23.595   9.154
 2735POPC   GL236542  42.304  23.792   9.087
 2735POPC   C1A36543  42.103  23.490   8.725
 2735POPC   D2A36544  42.138  23.706   8.338
 2735POPC   C3A36545  42.097  23.429   7.996
 2735POPC   C4A36546  41.983  23.440   7.556
 2735POPC   C1B36547  42.563  23.747   8.730
 2735POPC   C2B36548  42.687  23.656   8.369
 2735POPC   C3B36549  42.535  23.756   8.009
 2735POPC   C4B36550  42.444  23.630   7.634
 2736POPC   NC336551  40.483  16.542   9.577
 2736POPC   PO436552  40.837  15.921   9.507
 2736POPC   GL136553  40.804  16.121   9.094
 2736POPC   GL236554  41.156  16.059   8.964
 2736POPC   C1A36555  40.541  16.185   8.691
 2736POPC   D2A36556  40.388  16.159   8.228
 2736POPC   C3A36557  40.547  15.861   7.872
 2736POPC   C4A36558  40.799  15.967   7.501
 2736POPC   C1B36559  40.939  15.798   8.691
 2736POPC   C2B36560  40.854  15.769   8.259
 2736POPC   C3B36561  41.036  15.634   7.860
 2736POPC   C4B36562  41.199  15.618   7.381
 2737POPC   NC336563  41.870   1.150   9.634
 2737POPC   PO436564  41.193   1.042   9.451
 2737POPC   GL136565  41.547   1.174   9.199
 2737POPC   GL236566  41.810   0.971   9.107
 2737POPC   C1A36567  41.643   1.419   8.830
 2737POPC   D2A36568  41.797   1.235   8.479
 2737POPC   C3A36569  41.760   1.543   8.222
 2737POPC   C4A36570  41.663   1.472   7.827
 2737POPC   C1B36571  41.461   0.960   8.752
 2737POPC   C2B36572  41.415   0.887   8.300
 2737POPC   C3B36573  41.496   0.978   7.871
 2737POPC   C4B36574  41.125   0.949   7.636
 2738POPC   NC336575  22.424   6.997   9.486
 2738POPC   PO436576  22.371   7.547   9.562
 2738POPC   GL136577  22.034   7.369   9.282
 2738POPC   GL236578  22.123   7.061   9.085
 2738POPC   C1A36579  21.954   7.488   8.848
 2738POPC   D2A36580  22.153   7.283   8.473
 2738POPC   C3A36581  22.287   7.586   8.131
 2738POPC   C4A36582  22.194   7.627   7.677
 2738POPC   C1B36583  22.376   6.886   8.727
 2738POPC   C2B36584  22.358   6.782   8.283
 2738POPC   C3B36585  22.211   7.109   7.986
 2738POPC   C4B36586  22.614   7.326   7.815
 2739POPC   NC336587  26.936   6.447   9.602
 2739POPC   PO436588  26.391   6.858   9.467
 2739POPC   GL136589  26.743   6.721   9.210
 2739POPC   GL236590  27.025   6.970   9.238
 2739POPC   C1A36591  26.683   6.519   8.807
 2739POPC   D2A36592  26.445   6.738   8.479
 2739POPC   C3A36593  26.500   6.574   8.053
 2739POPC   C4A36594  26.894   6.516   7.810
 2739POPC   C1B36595  26.802   7.040   8.800
 2739POPC   C2B36596  26.885   6.989   8.342
 2739POPC   C3B36597  26.871   7.002   7.893
 2739POPC   C4B36598  27.231   6.912   7.592
 2740POPC   NC336599   4.160  18.875   9.546
 2740POPC   PO436600   4.557  19.315   9.245
 2740POPC   GL136601   4.390  19.002   9.116
 2740POPC   GL236602   4.689  18.793   9.200
 2740POPC   C1A36603   4.156  18.986   8.778
 2740POPC   D2A36604   4.406  19.127   8.497
 2740POPC   C3A36605   4.248  19.090   8.091
 2740POPC   C4A36606   4.281  19.228   7.682
 2740POPC   C1B36607   4.569  18.657   8.770
 2740POPC   C2B36608   4.446  18.653   8.349
 2740POPC   C3B36609   4.625  18.746   7.936
 2740POPC   C4B36610   4.617  18.881   7.507
 2741POPC   NC336611  43.008  16.504   9.493
 2741POPC   PO436612  42.698  17.143   9.463
 2741POPC   GL136613  42.994  16.941   9.125
 2741POPC   GL236614  43.222  16.645   9.060
 2741POPC   C1A36615  43.134  16.988   8.700
 2741POPC   D2A36616  43.267  16.809   8.304
 2741POPC   C3A36617  43.112  16.946   7.942
 2741POPC   C4A36618  43.002  16.696   7.611
 2741POPC   C1B36619  43.503  16.586   8.699
 2741POPC   C2B36620  43.577  16.410   8.265
 2741POPC   C3B36621  43.513  16.589   7.841
 2741POPC   C4B36622  43.413  16.478   7.404
 2742POPC   NC336623  28.444  43.397   9.529
 2742POPC   PO436624  28.622  42.690   9.447
 2742POPC   GL136625  28.491  43.022   9.129
 2742POPC   GL236626  28.192  43.242   9.123
 2742POPC   C1A36627  28.300  42.987   8.683
 2742POPC   D2A36628  28.436  43.124   8.276
 2742POPC   C3A36629  28.371  43.093   7.804
 2742POPC   C4A36630  28.551  42.889   7.411
 2742POPC   C1B36631  27.946  43.387   8.773
 2742POPC   C2B36632  27.934  43.260   8.359
 2742POPC   C3B36633  27.991  43.414   7.967
 2742POPC   C4B36634  28.006  43.291   7.540
 2743POPC   NC336635  21.649  40.415   9.398
 2743POPC   PO436636  22.288  40.720   9.566
 2743POPC   GL136637  22.224  40.750   9.146
 2743POPC   GL236638  22.383  41.064   9.118
 2743POPC   C1A36639  22.004  40.711   8.739
 2743POPC   D2A36640  21.840  40.521   8.365
 2743POPC   C3A36641  22.147  40.526   8.036
 2743POPC   C4A36642  21.990  40.680   7.647
 2743POPC   C1B36643  22.283  41.144   8.740
 2743POPC   C2B36644  22.018  41.112   8.393
 2743POPC   C3B36645  22.161  41.046   7.973
 2743POPC   C4B36646  22.360  41.074   7.563
 2744POPC   NC336647   6.613  11.783   9.349
 2744POPC   PO436648   7.037  12.340   9.438
 2744POPC   GL136649   6.811  12.174   9.069
 2744POPC   GL236650   6.437  12.160   9.033
 2744POPC   C1A36651   6.759  11.909   8.691
 2744POPC   D2A36652   7.019  11.768   8.353
 2744POPC   C3A36653   6.845  11.809   7.959
 2744POPC   C4A36654   6.462  11.973   7.841
 2744POPC   C1B36655   6.556  12.369   8.672
 2744POPC   C2B36656   6.689  12.203   8.267
 2744POPC   C3B36657   6.855  12.326   7.888
 2744POPC   C4B36658   6.500  12.479   7.681
 2745POPC   NC336659  32.116  40.324   9.482
 2745POPC   PO436660  32.409  40.974   9.535
 2745POPC   GL136661  32.318  40.815   9.147
 2745POPC   GL236662  31.984  40.682   9.138
 2745POPC   C1A36663  32.151  41.000   8.765
 2745POPC   D2A36664  32.165  40.822   8.367
 2745POPC   C3A36665  32.316  40.971   8.019
 2745POPC   C4A36666  32.426  40.742   7.685
 2745POPC   C1B36667  32.065  40.470   8.727
 2745POPC   C2B36668  31.971  40.360   8.266
 2745POPC   C3B36669  32.008  40.471   7.812
 2745POPC   C4B36670  32.106  40.555   7.340
 2746POPC   NC336671   3.340  30.763   9.263
 2746POPC   PO436672   2.760  30.619   9.500
 2746POPC   GL136673   2.729  30.670   9.077
 2746POPC   GL236674   2.760  31.012   8.946
 2746POPC   C1A36675   2.684  30.383   8.740
 2746POPC   D2A36676   2.462  30.478   8.377
 2746POPC   C3A36677   2.692  30.681   8.073
 2746POPC   C4A36678   2.914  30.702   7.692
 2746POPC   C1B36679   2.949  30.797   8.599
 2746POPC   C2B36680   3.141  30.868   8.204
 2746POPC   C3B36681   2.907  31.148   7.947
 2746POPC   C4B36682   2.596  31.086   7.645
 2747POPC   NC336683  44.326  15.926   9.712
 2747POPC   PO436684  44.829  15.622   9.561
 2747POPC   GL136685  44.537  15.668   9.233
 2747POPC   GL236686  44.578  16.028   9.250
 2747POPC   C1A36687  44.374  15.871   8.816
 2747POPC   D2A36688  44.308  16.115   8.420
 2747POPC   C3A36689  44.364  15.845   8.073
 2747POPC   C4A36690  44.556  15.843   7.665
 2747POPC   C1B36691  44.864  16.123   8.873
 2747POPC   C2B36692  44.951  16.277   8.460
 2747POPC   C3B36693  44.771  16.173   8.062
 2747POPC   C4B36694   0.039  16.085   7.733
 2748POPC   NC336695  29.647  18.327   9.755
 2748POPC   PO436696  29.020  18.217   9.719
 2748POPC   GL136697  28.918  18.309   9.294
 2748POPC   GL236698  28.906  17.964   9.190
 2748POPC   C1A36699  28.731  18.476   8.912
 2748POPC   D2A36700  28.783  18.776   8.577
 2748POPC   C3A36701  29.088  18.673   8.270
 2748POPC   C4A36702  29.072  18.668   7.853
 2748POPC   C1B36703  29.140  18.145   8.852
 2748POPC   C2B36704  28.939  18.232   8.497
 2748POPC   C3B36705  28.909  18.216   8.084
 2748POPC   C4B36706  29.148  18.187   7.717
 2749POPC   NC336707  13.937  42.273   9.555
 2749POPC   PO436708  13.337  42.597   9.706
 2749POPC   GL136709  13.595  42.606   9.279
 2749POPC   GL236710  13.730  42.270   9.088
 2749POPC   C1A36711  13.450  42.601   8.827
 2749POPC   D2A36712  13.364  42.302   8.491
 2749POPC   C3A36713  13.577  42.404   8.112
 2749POPC   C4A36714  13.625  42.478   7.674
 2749POPC   C1B36715  13.973  42.005   8.765
 2749POPC   C2B36716  14.116  42.006   8.331
 2749POPC   C3B36717  13.967  42.111   7.916
 2749POPC   C4B36718  13.708  41.989   7.600
 2750POPC   NC336719   1.774  40.992   9.447
 2750POPC   PO436720   1.156  40.561   9.535
 2750POPC   GL136721   1.258  40.749   9.189
 2750POPC   GL236722   1.578  40.658   9.125
 2750POPC   C1A36723   1.113  40.774   8.758
 2750POPC   D2A36724   0.990  40.971   8.394
 2750POPC   C3A36725   1.212  40.888   8.058
 2750POPC   C4A36726   1.041  40.924   7.700
 2750POPC   C1B36727   1.473  41.080   8.885
 2750POPC   C2B36728   1.491  41.093   8.451
 2750POPC   C3B36729   1.662  41.209   8.038
 2750POPC   C4B36730   1.538  41.024   7.659
 2751POPC   NC336731  27.204  22.807   9.578
 2751POPC   PO436732  27.755  23.099   9.553
 2751POPC   GL136733  27.560  22.901   9.232
 2751POPC   GL236734  27.611  22.574   9.313
 2751POPC   C1A36735  27.368  22.991   8.861
 2751POPC   D2A36736  27.549  23.140   8.484
 2751POPC   C3A36737  27.437  22.926   8.100
 2751POPC   C4A36738  27.590  23.066   7.703
 2751POPC   C1B36739  27.692  22.573   8.834
 2751POPC   C2B36740  27.859  22.698   8.394
 2751POPC   C3B36741  27.838  22.637   7.924
 2751POPC   C4B36742  27.642  22.600   7.497
 2752POPC   NC336743  37.229   4.330   9.389
 2752POPC   PO436744  36.630   4.520   9.686
 2752POPC   GL136745  36.678   4.472   9.251
 2752POPC   GL236746  36.761   4.107   9.174
 2752POPC   C1A36747  36.912   4.531   8.869
 2752POPC   D2A36748  36.861   4.537   8.436
 2752POPC   C3A36749  37.207   4.380   8.225
 2752POPC   C4A36750  37.151   4.415   7.808
 2752POPC   C1B36751  36.700   4.092   8.703
 2752POPC   C2B36752  36.720   4.093   8.240
 2752POPC   C3B36753  36.729   4.146   7.770
 2752POPC   C4B36754  36.601   4.091   7.281
 2753POPC   NC336755  26.830  11.593   9.511
 2753POPC   PO436756  26.814  10.978   9.545
 2753POPC   GL136757  26.631  11.242   9.175
 2753POPC   GL236758  26.873  11.494   9.028
 2753POPC   C1A36759  26.539  11.347   8.710
 2753POPC   D2A36760  26.814  11.286   8.333
 2753POPC   C3A36761  26.697  11.401   7.900
 2753POPC   C4A36762  26.876  11.194   7.532
 2753POPC   C1B36763  27.182  11.412   8.708
 2753POPC   C2B36764  27.221  11.592   8.310
 2753POPC   C3B36765  27.208  11.499   7.888
 2753POPC   C4B36766  26.989  11.698   7.556
 2754POPC   NC336767   6.153   9.082   9.496
 2754POPC   PO436768   5.672   8.661   9.370
 2754POPC   GL136769   5.896   8.840   9.079
 2754POPC   GL236770   5.793   9.197   9.163
 2754POPC   C1A36771   5.842   8.828   8.629
 2754POPC   D2A36772   6.103   8.890   8.247
 2754POPC   C3A36773   5.903   8.710   7.915
 2754POPC   C4A36774   5.920   8.794   7.486
 2754POPC   C1B36775   6.043   9.253   8.806
 2754POPC   C2B36776   5.841   9.307   8.386
 2754POPC   C3B36777   5.798   9.210   7.915
 2754POPC   C4B36778   5.588   9.174   7.486
 2755POPC   NC336779  17.439  36.324   9.513
 2755POPC   PO436780  17.955  35.884   9.500
 2755POPC   GL136781  17.795  36.147   9.166
 2755POPC   GL236782  17.437  36.044   9.086
 2755POPC   C1A36783  17.792  36.121   8.722
 2755POPC   D2A36784  17.619  36.108   8.306
 2755POPC   C3A36785  17.839  35.884   7.997
 2755POPC   C4A36786  17.785  35.545   7.728
 2755POPC   C1B36787  17.143  36.103   8.730
 2755POPC   C2B36788  17.125  36.261   8.309
 2755POPC   C3B36789  17.271  36.157   7.886
 2755POPC   C4B36790  17.129  36.353   7.485
 2756POPC   NC336791   5.883   1.844   9.632
 2756POPC   PO436792   6.386   1.823   9.293
 2756POPC   GL136793   6.070   2.048   9.135
 2756POPC   GL236794   5.760   1.966   9.150
 2756POPC   C1A36795   6.046   1.893   8.732
 2756POPC   D2A36796   5.895   1.774   8.378
 2756POPC   C3A36797   5.797   2.094   8.140
 2756POPC   C4A36798   5.953   1.935   7.787
 2756POPC   C1B36799   5.535   1.960   8.769
 2756POPC   C2B36800   5.381   1.712   8.413
 2756POPC   C3B36801   5.545   1.655   7.983
 2756POPC   C4B36802   5.433   2.045   7.756
 2757POPC   NC336803  20.301   0.667   9.648
 2757POPC   PO436804  20.727   0.139   9.744
 2757POPC   GL136805  20.788   0.465   9.358
 2757POPC   GL236806  20.479   0.441   9.224
 2757POPC   C1A36807  20.810   0.567   8.849
 2757POPC   D2A36808  20.590   0.462   8.489
 2757POPC   C3A36809  20.690   0.570   8.107
 2757POPC   C4A36810  20.868   0.352   7.769
 2757POPC   C1B36811  20.192   0.142   9.013
 2757POPC   C2B36812  20.196   0.115   8.554
 2757POPC   C3B36813  20.318   0.218   8.114
 2757POPC   C4B36814  20.373   0.389   7.669
 2758POPC   NC336815  37.766  31.736   9.477
 2758POPC   PO436816  37.391  31.250   9.555
 2758POPC   GL136817  37.564  31.446   9.147
 2758POPC   GL236818  37.940  31.383   9.120
 2758POPC   C1A36819  37.378  31.638   8.800
 2758POPC   D2A36820  37.382  31.488   8.383
 2758POPC   C3A36821  37.752  31.490   8.163
 2758POPC   C4A36822  37.537  31.511   7.798
 2758POPC   C1B36823  37.763  31.296   8.696
 2758POPC   C2B36824  37.614  31.015   8.379
 2758POPC   C3B36825  37.753  30.997   7.971
 2758POPC   C4B36826  37.979  31.314   7.701
 2759POPC   NC336827  22.694  33.104   9.510
 2759POPC   PO436828  23.214  32.997   9.705
 2759POPC   GL136829  23.126  33.048   9.234
 2759POPC   GL236830  23.327  32.785   9.065
 2759POPC   C1A36831  22.854  33.014   8.862
 2759POPC   D2A36832  22.908  33.179   8.443
 2759POPC   C3A36833  22.621  33.361   8.168
 2759POPC   C4A36834  22.707  33.319   7.748
 2759POPC   C1B36835  23.230  32.741   8.632
 2759POPC   C2B36836  22.861  32.669   8.431
 2759POPC   C3B36837  22.740  32.860   8.059
 2759POPC   C4B36838  22.984  32.809   7.730
 2760POPC   NC336839  28.411  20.150   9.436
 2760POPC   PO436840  28.486  20.792   9.503
 2760POPC   GL136841  28.293  20.887   9.124
 2760POPC   GL236842  28.261  20.520   9.088
 2760POPC   C1A36843  28.062  20.854   8.743
 2760POPC   D2A36844  28.041  20.657   8.333
 2760POPC   C3A36845  28.274  20.923   8.023
 2760POPC   C4A36846  28.559  20.742   7.711
 2760POPC   C1B36847  28.516  20.294   8.800
 2760POPC   C2B36848  28.355  20.205   8.422
 2760POPC   C3B36849  28.446  20.390   8.049
 2760POPC   C4B36850  28.643  20.189   7.694
 2761POPC   NC336851  36.338  42.370   9.411
 2761POPC   PO436852  36.181  41.761   9.624
 2761POPC   GL136853  36.173  41.924   9.177
 2761POPC   GL236854  35.933  42.150   9.123
 2761POPC   C1A36855  36.370  42.094   8.759
 2761POPC   D2A36856  36.411  42.332   8.346
 2761POPC   C3A36857  36.343  42.199   7.881
 2761POPC   C4A36858  36.530  42.565   7.657
 2761POPC   C1B36859  35.969  42.400   8.747
 2761POPC   C2B36860  36.021  42.706   8.409
 2761POPC   C3B36861  36.100  42.620   7.971
 2761POPC   C4B36862  35.827  42.245   7.830
 2762POPC   NC336863  16.121  25.747   9.781
 2762POPC   PO436864  15.636  25.275   9.535
 2762POPC   GL136865  15.781  25.276   9.123
 2762POPC   GL236866  16.133  25.153   9.105
 2762POPC   C1A36867  15.830  25.330   8.688
 2762POPC   D2A36868  15.991  25.040   8.387
 2762POPC   C3A36869  16.122  25.182   7.997
 2762POPC   C4A36870  15.950  25.428   7.723
 2762POPC   C1B36871  15.897  24.853   8.854
 2762POPC   C2B36872  15.522  24.924   8.591
 2762POPC   C3B36873  15.537  24.908   8.133
 2762POPC   C4B36874  15.781  24.906   7.747
 2763POPC   NC336875  17.640  15.248   9.721
 2763POPC   PO436876  17.105  14.876   9.703
 2763POPC   GL136877  17.124  15.093   9.310
 2763POPC   GL236878  17.423  15.239   9.222
 2763POPC   C1A36879  17.193  14.954   8.840
 2763POPC   D2A36880  17.437  14.912   8.437
 2763POPC   C3A36881  17.356  15.074   7.988
 2763POPC   C4A36882  17.521  15.050   7.564
 2763POPC   C1B36883  17.461  15.390   8.783
 2763POPC   C2B36884  17.399  15.443   8.347
 2763POPC   C3B36885  17.709  15.450   8.005
 2763POPC   C4B36886  18.013  15.381   7.663
 2764POPC   NC336887  42.829  23.585   9.309
 2764POPC   PO436888  42.981  24.159   9.693
 2764POPC   GL136889  43.232  24.002   9.232
 2764POPC   GL236890  43.311  23.638   9.116
 2764POPC   C1A36891  43.084  23.900   8.763
 2764POPC   D2A36892  43.198  23.664   8.427
 2764POPC   C3A36893  43.076  23.936   8.118
 2764POPC   C4A36894  42.929  23.875   7.721
 2764POPC   C1B36895  43.071  23.344   8.796
 2764POPC   C2B36896  42.920  23.199   8.404
 2764POPC   C3B36897  42.999  23.435   8.015
 2764POPC   C4B36898  43.360  23.439   7.757
 2765POPC   NC336899  20.120  29.139   9.691
 2765POPC   PO436900  19.550  29.011   9.521
 2765POPC   GL136901  19.886  28.955   9.217
 2765POPC   GL236902  20.036  29.315   9.216
 2765POPC   C1A36903  19.981  28.725   8.827
 2765POPC   D2A36904  19.982  28.957   8.426
 2765POPC   C3A36905  19.889  28.912   7.999
 2765POPC   C4A36906  19.872  28.759   7.609
 2765POPC   C1B36907  19.797  29.321   8.816
 2765POPC   C2B36908  19.822  29.430   8.373
 2765POPC   C3B36909  19.889  29.439   7.948
 2765POPC   C4B36910  19.703  29.375   7.552
 2766POPC   NC336911   1.166  44.211   9.505
 2766POPC   PO436912   1.657  43.882   9.246
 2766POPC   GL136913   1.207  43.900   9.045
 2766POPC   GL236914   0.835  44.105   9.150
 2766POPC   C1A36915   1.381  43.748   8.636
 2766POPC   D2A36916   1.431  43.575   8.231
 2766POPC   C3A36917   1.169  43.784   7.972
 2766POPC   C4A36918   1.162  43.988   7.568
 2766POPC   C1B36919   0.943  44.254   8.773
 2766POPC   C2B36920   1.059  44.069   8.411
 2766POPC   C3B36921   1.206  44.267   8.065
 2766POPC   C4B36922   0.935  44.405   7.763
 2767POPC   NC336923  34.230  27.781   9.524
 2767POPC   PO436924  33.973  27.151   9.477
 2767POPC   GL136925  33.916  27.538   9.208
 2767POPC   GL236926  34.231  27.713   9.037
 2767POPC   C1A36927  33.782  27.685   8.806
 2767POPC   D2A36928  33.598  27.640   8.404
 2767POPC   C3A36929  33.788  27.761   7.992
 2767POPC   C4A36930  33.511  27.499   7.731
 2767POPC   C1B36931  34.217  27.314   8.857
 2767POPC   C2B36932  34.068  27.400   8.468
 2767POPC   C3B36933  33.874  27.296   8.102
 2767POPC   C4B36934  34.009  27.383   7.716
 2768POPC   NC336935  38.372   1.351   9.496
 2768POPC   PO436936  38.770   0.715   9.436
 2768POPC   GL136937  38.647   1.100   9.160
 2768POPC   GL236938  38.256   1.146   9.060
 2768POPC   C1A36939  38.583   1.448   8.829
 2768POPC   D2A36940  38.703   1.408   8.418
 2768POPC   C3A36941  38.408   1.468   8.072
 2768POPC   C4A36942  38.753   1.295   7.857
 2768POPC   C1B36943  38.428   0.953   8.727
 2768POPC   C2B36944  38.345   1.041   8.366
 2768POPC   C3B36945  38.368   0.955   7.980
 2768POPC   C4B36946  38.595   0.666   7.838
 2769POPC   NC336947  42.561   4.488   9.249
 2769POPC   PO436948  43.241   4.571   9.529
 2769POPC   GL136949  43.160   4.341   9.134
 2769POPC   GL236950  42.874   4.092   9.102
 2769POPC   C1A36951  43.427   4.315   8.748
 2769POPC   D2A36952  43.492   4.275   8.308
 2769POPC   C3A36953  43.174   4.474   7.989
 2769POPC   C4A36954  42.725   4.390   7.889
 2769POPC   C1B36955  42.961   4.137   8.683
 2769POPC   C2B36956  42.989   4.085   8.260
 2769POPC   C3B36957  42.887   3.914   7.870
 2769POPC   C4B36958  42.786   4.030   7.455
 2770POPC   NC336959   3.368  27.148   9.481
 2770POPC   PO436960   3.315  27.822   9.508
 2770POPC   GL136961   3.485  27.550   9.177
 2770POPC   GL236962   3.834  27.384   9.268
 2770POPC   C1A36963   3.393  27.655   8.752
 2770POPC   D2A36964   3.375  27.944   8.404
 2770POPC   C3A36965   3.544  27.745   8.022
 2770POPC   C4A36966   3.437  27.818   7.604
 2770POPC   C1B36967   3.886  27.254   8.827
 2770POPC   C2B36968   3.650  27.283   8.472
 2770POPC   C3B36969   3.681  27.198   8.074
 2770POPC   C4B36970   3.495  27.317   7.691
 2771POPC   NC336971  12.029  18.871   9.444
 2771POPC   PO436972  11.445  19.273   9.516
 2771POPC   GL136973  11.723  19.312   9.146
 2771POPC   GL236974  11.959  19.067   8.997
 2771POPC   C1A36975  11.809  19.462   8.721
 2771POPC   D2A36976  11.966  19.600   8.341
 2771POPC   C3A36977  11.917  19.276   8.115
 2771POPC   C4A36978  12.045  19.158   7.769
 2771POPC   C1B36979  12.222  19.140   8.668
 2771POPC   C2B36980  12.257  18.938   8.275
 2771POPC   C3B36981  12.481  18.989   7.940
 2771POPC   C4B36982  12.409  19.010   7.466
 2772POPC   NC336983  37.627   9.583   9.470
 2772POPC   PO436984  37.237   9.320   8.988
 2772POPC   GL136985  37.562   9.564   8.970
 2772POPC   GL236986  37.672   9.929   9.067
 2772POPC   C1A36987  37.623   9.728   8.596
 2772POPC   D2A36988  37.883   9.939   8.392
 2772POPC   C3A36989  37.704   9.851   8.007
 2772POPC   C4A36990  37.925   9.763   7.631
 2772POPC   C1B36991  37.539  10.234   8.711
 2772POPC   C2B36992  37.291  10.145   8.326
 2772POPC   C3B36993  37.259  10.126   7.874
 2772POPC   C4B36994  37.480   9.970   7.538
 2773POPC   NC336995  40.099   7.278   9.496
 2773POPC   PO436996  39.999   7.867   9.521
 2773POPC   GL136997  39.903   7.574   9.131
 2773POPC   GL236998  40.122   7.373   8.996
 2773POPC   C1A36999  39.673   7.374   8.752
 2773POPC   D2A37000  39.579   7.494   8.349
 2773POPC   C3A37001  39.960   7.447   8.113
 2773POPC   C4A37002  40.046   7.373   7.698
 2773POPC   C1B37003  40.161   7.398   8.582
 2773POPC   C2B37004  40.310   7.052   8.344
 2773POPC   C3B37005  40.352   6.851   7.963
 2773POPC   C4B37006  40.202   6.858   7.559
 2774POPC   NC337007  21.231   5.025   9.387
 2774POPC   PO437008  21.742   5.416   9.402
 2774POPC   GL137009  21.580   5.233   9.004
 2774POPC   GL237010  21.477   4.866   8.950
 2774POPC   C1A37011  21.654   5.153   8.566
 2774POPC   D2A37012  21.442   5.256   8.217
 2774POPC   C3A37013  21.530   5.066   7.854
 2774POPC   C4A37014  21.162   5.017   7.629
 2774POPC   C1B37015  21.221   4.824   8.562
 2774POPC   C2B37016  21.176   4.774   8.101
 2774POPC   C3B37017  21.284   4.530   7.704
 2774POPC   C4B37018  21.563   4.719   7.415
 2775POPC   NC337019   0.930  29.907   9.621
 2775POPC   PO437020   1.573  30.253   9.424
 2775POPC   GL137021   1.167  30.085   9.156
 2775POPC   GL237022   0.907  29.780   9.145
 2775POPC   C1A37023   1.101  29.924   8.702
 2775POPC   D2A37024   1.278  29.632   8.366
 2775POPC   C3A37025   1.343  29.837   7.958
 2775POPC   C4A37026   1.505  30.190   7.715
 2775POPC   C1B37027   0.785  29.491   8.820
 2775POPC   C2B37028   0.873  29.315   8.387
 2775POPC   C3B37029   0.941  29.501   7.948
 2775POPC   C4B37030   0.907  29.561   7.485
 2776POPC   NC337031   3.462   8.428   9.518
 2776POPC   PO437032   3.618   7.769   9.373
 2776POPC   GL137033   3.682   8.082   9.083
 2776POPC   GL237034   3.371   8.223   9.057
 2776POPC   C1A37035   3.632   8.093   8.636
 2776POPC   D2A37036   3.645   7.939   8.225
 2776POPC   C3A37037   3.443   8.139   7.910
 2776POPC   C4A37038   3.706   8.119   7.575
 2776POPC   C1B37039   3.168   8.396   8.694
 2776POPC   C2B37040   3.031   8.596   8.310
 2776POPC   C3B37041   3.222   8.614   7.907
 2776POPC   C4B37042   3.301   8.420   7.504
 2777POPC   NC337043   2.590  39.642   9.641
 2777POPC   PO437044   3.015  39.258   9.406
 2777POPC   GL137045   2.772  39.129   9.100
 2777POPC   GL237046   2.550  38.879   9.180
 2777POPC   C1A37047   2.789  39.295   8.691
 2777POPC   D2A37048   3.015  39.251   8.353
 2777POPC   C3A37049   2.783  39.199   8.035
 2777POPC   C4A37050   2.790  39.314   7.638
 2777POPC   C1B37051   2.528  38.844   8.763
 2777POPC   C2B37052   2.412  39.015   8.398
 2777POPC   C3B37053   2.437  38.799   8.029
 2777POPC   C4B37054   2.624  38.847   7.667
 2778POPC   NC337055   0.978  33.127   9.628
 2778POPC   PO437056   1.641  32.841   9.567
 2778POPC   GL137057   1.464  32.776   9.201
 2778POPC   GL237058   1.112  32.914   9.172
 2778POPC   C1A37059   1.503  33.056   8.875
 2778POPC   D2A37060   1.335  33.279   8.539
 2778POPC   C3A37061   1.501  33.159   8.128
 2778POPC   C4A37062   1.336  33.099   7.735
 2778POPC   C1B37063   0.940  32.893   8.736
 2778POPC   C2B37064   0.977  32.998   8.294
 2778POPC   C3B37065   0.870  32.934   7.878
 2778POPC   C4B37066   0.779  33.134   7.496
 2779POPC   NC337067   6.825   6.628   9.419
 2779POPC   PO437068   6.181   6.780   9.560
 2779POPC   GL137069   6.349   6.606   9.201
 2779POPC   GL237070   6.500   6.258   9.225
 2779POPC   C1A37071   6.299   6.735   8.789
 2779POPC   D2A37072   6.467   6.614   8.419
 2779POPC   C3A37073   6.256   6.703   8.076
 2779POPC   C4A37074   6.420   6.633   7.706
 2779POPC   C1B37075   6.736   6.375   8.819
 2779POPC   C2B37076   6.970   6.569   8.449
 2779POPC   C3B37077   6.826   6.578   8.015
 2779POPC   C4B37078   6.905   6.865   7.653
 2780POPC   NC337079   0.827  20.556   9.555
 2780POPC   PO437080   0.163  20.772   9.604
 2780POPC   GL137081   0.353  20.530   9.310
 2780POPC   GL237082   0.440  20.858   9.181
 2780POPC   C1A37083   0.511  20.391   8.919
 2780POPC   D2A37084   0.671  20.616   8.537
 2780POPC   C3A37085   0.531  20.538   8.104
 2780POPC   C4A37086   0.579  20.706   7.693
 2780POPC   C1B37087   0.190  20.763   8.815
 2780POPC   C2B37088   0.205  20.821   8.388
 2780POPC   C3B37089   0.223  20.936   7.973
 2780POPC   C4B37090  44.896  20.935   7.649
 2781POPC   NC337091   3.018  43.307   9.388
 2781POPC   PO437092   2.486  43.005   9.612
 2781POPC   GL137093   2.649  43.082   9.145
 2781POPC   GL237094   2.906  42.864   9.058
 2781POPC   C1A37095   2.586  43.060   8.699
 2781POPC   D2A37096   2.558  42.815   8.295
 2781POPC   C3A37097   2.747  43.012   7.932
 2781POPC   C4A37098   2.550  43.267   7.598
 2781POPC   C1B37099   2.918  42.635   8.654
 2781POPC   C2B37100   3.100  42.620   8.239
 2781POPC   C3B37101   3.188  42.717   7.804
 2781POPC   C4B37102   3.026  43.026   7.503
 2782POPC   NC337103  40.144   6.092   9.314
 2782POPC   PO437104  39.919   5.599   9.685
 2782POPC   GL137105  39.847   5.545   9.226
 2782POPC   GL237106  39.702   5.859   9.159
 2782POPC   C1A37107  39.983   5.709   8.778
 2782POPC   D2A37108  40.129   6.009   8.448
 2782POPC   C3A37109  40.112   5.912   7.999
 2782POPC   C4A37110  40.427   6.050   7.693
 2782POPC   C1B37111  39.633   6.102   8.818
 2782POPC   C2B37112  39.620   5.893   8.446
 2782POPC   C3B37113  39.704   6.158   8.175
 2782POPC   C4B37114  39.606   6.118   7.782
 2783POPC   NC337115  31.426  23.521   9.441
 2783POPC   PO437116  31.095  24.108   9.612
 2783POPC   GL137117  31.084  23.841   9.178
 2783POPC   GL237118  31.461  23.741   9.008
 2783POPC   C1A37119  31.090  23.742   8.692
 2783POPC   D2A37120  31.470  23.808   8.469
 2783POPC   C3A37121  31.447  23.723   8.031
 2783POPC   C4A37122  31.544  23.826   7.630
 2783POPC   C1B37123  31.727  23.421   8.771
 2783POPC   C2B37124  31.752  23.378   8.329
 2783POPC   C3B37125  31.950  23.576   7.994
 2783POPC   C4B37126  31.829  23.421   7.624
 2784POPC   NC337127   3.978  34.631   9.463
 2784POPC   PO437128   4.628  34.818   9.493
 2784POPC   GL137129   4.393  34.679   9.132
 2784POPC   GL237130   4.356  34.335   9.243
 2784POPC   C1A37131   4.025  34.786   8.839
 2784POPC   D2A37132   3.834  34.762   8.421
 2784POPC   C3A37133   4.117  34.687   8.077
 2784POPC   C4A37134   4.410  34.750   7.744
 2784POPC   C1B37135   4.145  34.264   8.841
 2784POPC   C2B37136   4.305  34.156   8.434
 2784POPC   C3B37137   4.426  34.290   8.015
 2784POPC   C4B37138   4.152  34.313   7.664
 2785POPC   NC337139  25.702   0.798   9.436
 2785POPC   PO437140  25.921   0.213   9.628
 2785POPC   GL137141  26.155   0.449   9.282
 2785POPC   GL237142  25.910   0.512   9.064
 2785POPC   C1A37143  26.256   0.317   8.791
 2785POPC   D2A37144  26.031   0.308   8.389
 2785POPC   C3A37145  26.237   0.178   8.029
 2785POPC   C4A37146  26.168   0.481   7.734
 2785POPC   C1B37147  25.921   0.712   8.699
 2785POPC   C2B37148  26.063   0.903   8.344
 2785POPC   C3B37149  25.742   0.824   8.082
 2785POPC   C4B37150  25.668   0.676   7.700
 2786POPC   NC337151  33.460   1.982   9.446
 2786POPC   PO437152  33.966   2.185   9.744
 2786POPC   GL137153  33.924   2.051   9.215
 2786POPC   GL237154  33.608   1.989   8.970
 2786POPC   C1A37155  33.980   2.249   8.750
 2786POPC   D2A37156  33.623   2.272   8.441
 2786POPC   C3A37157  33.634   2.242   7.979
 2786POPC   C4A37158  33.765   2.514   7.651
 2786POPC   C1B37159  33.263   1.857   8.666
 2786POPC   C2B37160  33.231   1.798   8.220
 2786POPC   C3B37161  33.322   1.880   7.800
 2786POPC   C4B37162  33.673   1.819   7.540
 2787POPC   NC337163   0.512  28.529   9.486
 2787POPC   PO437164   0.484  27.894   9.551
 2787POPC   GL137165   0.465  28.095   9.154
 2787POPC   GL237166   0.193  28.306   9.162
 2787POPC   C1A37167   0.679  28.302   8.787
 2787POPC   D2A37168   0.863  28.388   8.373
 2787POPC   C3A37169   0.565  28.439   8.037
 2787POPC   C4A37170   0.378  28.115   7.789
 2787POPC   C1B37171   0.277  28.609   8.863
 2787POPC   C2B37172   0.285  28.487   8.455
 2787POPC   C3B37173   0.071  28.607   8.087
 2787POPC   C4B37174   0.162  28.604   7.661
 2788POPC   NC337175  30.069  27.630   9.460
 2788POPC   PO437176  29.490  27.858   9.520
 2788POPC   GL137177  29.681  27.622   9.117
 2788POPC   GL237178  30.056  27.384   9.035
 2788POPC   C1A37179  29.677  27.461   8.718
 2788POPC   D2A37180  29.986  27.378   8.444
 2788POPC   C3A37181  29.880  27.456   8.034
 2788POPC   C4A37182  30.173  27.626   7.729
 2788POPC   C1B37183  30.069  27.770   8.810
 2788POPC   C2B37184  29.817  27.907   8.483
 2788POPC   C3B37185  29.986  27.961   8.109
 2788POPC   C4B37186  29.715  27.906   7.785
 2789POPC   NC337187  10.040  44.361   9.870
 2789POPC   PO437188   9.817  44.910   9.510
 2789POPC   GL137189   9.786  44.688   9.127
 2789POPC   GL237190   9.778  44.325   8.996
 2789POPC   C1A37191   9.998  44.710   8.742
 2789POPC   D2A37192  10.073  44.967   8.412
 2789POPC   C3A37193   9.965  44.772   8.050
 2789POPC   C4A37194   9.931  44.534   7.667
 2789POPC   C1B37195   9.460  44.498   8.762
 2789POPC   C2B37196   9.616  44.659   8.406
 2789POPC   C3B37197   9.555  44.447   8.061
 2789POPC   C4B37198   9.400  44.496   7.710
 2790POPC   NC337199  10.300  13.627   9.449
 2790POPC   PO437200  10.945  13.379   9.583
 2790POPC   GL137201  10.783  13.573   9.227
 2790POPC   GL237202  10.842  13.905   9.149
 2790POPC   C1A37203  10.586  13.574   8.817
 2790POPC   D2A37204  10.624  13.331   8.446
 2790POPC   C3A37205  10.324  13.339   8.137
 2790POPC   C4A37206  10.348  13.571   7.751
 2790POPC   C1B37207  10.877  14.013   8.718
 2790POPC   C2B37208  10.779  13.813   8.335
 2790POPC   C3B37209  10.786  13.535   7.987
 2790POPC   C4B37210  10.799  13.640   7.545
 2791POPC   NC337211  42.232  16.938   9.545
 2791POPC   PO437212  42.500  16.295   9.433
 2791POPC   GL137213  42.314  16.513   9.141
 2791POPC   GL237214  42.508  16.776   9.149
 2791POPC   C1A37215  42.405  16.495   8.728
 2791POPC   D2A37216  42.297  16.692   8.349
 2791POPC   C3A37217  42.279  16.416   8.021
 2791POPC   C4A37218  42.355  16.320   7.630
 2791POPC   C1B37219  42.621  16.938   8.761
 2791POPC   C2B37220  42.769  16.886   8.356
 2791POPC   C3B37221  42.755  16.592   8.056
 2791POPC   C4B37222  42.521  16.820   7.771
 2792POPC   NC337223  43.715  44.284  10.127
 2792POPC   PO437224  43.795  43.946   9.581
 2792POPC   GL137225  44.016  43.889   9.203
 2792POPC   GL237226  44.177  44.180   9.085
 2792POPC   C1A37227  43.836  43.774   8.815
 2792POPC   D2A37228  43.966  43.804   8.411
 2792POPC   C3A37229  43.848  43.536   8.094
 2792POPC   C4A37230  43.753  43.586   7.697
 2792POPC   C1B37231  44.025  44.259   8.659
 2792POPC   C2B37232  44.020  44.273   8.202
 2792POPC   C3B37233  43.884  44.297   7.770
 2792POPC   C4B37234  43.705  44.067   7.409
 2793POPC   NC337235  22.917  18.659   9.436
 2793POPC   PO437236  22.774  17.977   9.684
 2793POPC   GL137237  22.946  17.981   9.271
 2793POPC   GL237238  22.730  18.236   9.174
 2793POPC   C1A37239  22.914  17.944   8.809
 2793POPC   D2A37240  23.059  18.160   8.443
 2793POPC   C3A37241  22.862  18.198   8.084
 2793POPC   C4A37242  23.087  18.253   7.726
 2793POPC   C1B37243  22.939  18.459   8.828
 2793POPC   C2B37244  22.885  18.664   8.417
 2793POPC   C3B37245  22.971  18.756   7.984
 2793POPC   C4B37246  22.686  18.554   7.763
 2794POPC   NC337247   0.659  22.782   9.868
 2794POPC   PO437248   0.130  23.155   9.694
 2794POPC   GL137249   0.375  22.949   9.343
 2794POPC   GL237250   0.705  22.750   9.351
 2794POPC   C1A37251   0.509  23.071   8.917
 2794POPC   D2A37252   0.282  23.115   8.532
 2794POPC   C3A37253   0.453  22.952   8.161
 2794POPC   C4A37254   0.268  22.754   7.804
 2794POPC   C1B37255   0.807  22.639   8.933
 2794POPC   C2B37256   0.823  22.866   8.536
 2794POPC   C3B37257   0.946  22.778   8.139
 2794POPC   C4B37258   0.817  22.712   7.748
 2795POPC   NC337259  34.576  15.213   9.735
 2795POPC   PO437260  34.905  14.761   9.301
 2795POPC   GL137261  34.564  14.776   9.033
 2795POPC   GL237262  34.398  15.050   9.103
 2795POPC   C1A37263  34.669  15.021   8.665
 2795POPC   D2A37264  34.716  15.373   8.384
 2795POPC   C3A37265  34.791  15.115   8.064
 2795POPC   C4A37266  34.702  14.727   7.921
 2795POPC   C1B37267  34.311  15.376   8.769
 2795POPC   C2B37268  34.217  15.492   8.331
 2795POPC   C3B37269  34.298  15.302   7.944
 2795POPC   C4B37270  34.213  14.857   7.895
 2796POPC   NC337271   7.045  16.257   9.541
 2796POPC   PO437272   6.580  15.802   9.676
 2796POPC   GL137273   6.551  15.760   9.259
 2796POPC   GL237274   6.432  16.082   9.223
 2796POPC   C1A37275   6.784  15.876   8.889
 2796POPC   D2A37276   6.670  15.778   8.486
 2796POPC   C3A37277   6.799  15.973   8.167
 2796POPC   C4A37278   6.778  15.876   7.779
 2796POPC   C1B37279   6.694  16.360   8.936
 2796POPC   C2B37280   6.826  16.340   8.535
 2796POPC   C3B37281   6.662  16.489   8.162
 2796POPC   C4B37282   6.716  16.364   7.775
 2797POPC   NC337283  28.094  14.348   9.440
 2797POPC   PO437284  28.776  14.253   9.502
 2797POPC   GL137285  28.512  14.275   9.138
 2797POPC   GL237286  28.370  14.593   9.098
 2797POPC   C1A37287  28.276  14.281   8.714
 2797POPC   D2A37288  28.081  14.143   8.327
 2797POPC   C3A37289  28.288  14.292   7.951
 2797POPC   C4A37290  28.301  14.110   7.549
 2797POPC   C1B37291  28.094  14.768   8.777
 2797POPC   C2B37292  28.208  14.954   8.381
 2797POPC   C3B37293  28.190  14.815   7.936
 2797POPC   C4B37294  28.429  14.950   7.570
 2798POPC   NC337295   4.795  35.053   9.136
 2798POPC   PO437296   4.260  35.346   9.486
 2798POPC   GL137297   4.399  35.391   9.105
 2798POPC   GL237298   4.556  35.702   9.106
 2798POPC   C1A37299   4.198  35.271   8.701
 2798POPC   D2A37300   4.171  35.466   8.282
 2798POPC   C3A37301   4.218  35.185   7.917
 2798POPC   C4A37302   4.375  35.208   7.446
 2798POPC   C1B37303   4.599  35.582   8.663
 2798POPC   C2B37304   4.680  35.421   8.279
 2798POPC   C3B37305   4.513  35.599   7.921
 2798POPC   C4B37306   4.687  35.744   7.548
 2799POPC   NC337307  31.171  22.952   9.463
 2799POPC   PO437308  31.781  23.259   9.600
 2799POPC   GL137309  31.565  23.083   9.118
 2799POPC   GL237310  31.307  22.780   9.021
 2799POPC   C1A37311  31.489  22.968   8.605
 2799POPC   D2A37312  31.581  22.750   8.155
 2799POPC   C3A37313  31.510  23.073   7.857
 2799POPC   C4A37314  31.147  23.287   7.983
 2799POPC   C1B37315  31.143  22.541   8.664
 2799POPC   C2B37316  31.056  22.755   8.272
 2799POPC   C3B37317  31.156  22.699   7.843
 2799POPC   C4B37318  31.526  22.619   7.601
 2800POPC   NC337319  17.528  16.158   9.511
 2800POPC   PO437320  17.275  15.537   9.643
 2800POPC   GL137321  17.326  15.752   9.191
 2800POPC   GL237322  17.294  16.129   9.075
 2800POPC   C1A37323  17.659  15.858   8.854
 2800POPC   D2A37324  17.790  15.775   8.417
 2800POPC   C3A37325  17.686  16.018   8.031
 2800POPC   C4A37326  17.705  15.812   7.657
 2800POPC   C1B37327  17.595  16.376   8.821
 2800POPC   C2B37328  17.681  16.408   8.377
 2800POPC   C3B37329  17.916  16.501   7.994
 2800POPC   C4B37330  18.017  16.208   7.653
 2801POPC   NC337331  10.138  26.884   9.357
 2801POPC   PO437332  10.736  26.980   9.599
 2801POPC   GL137333  10.629  26.646   9.298
 2801POPC   GL237334  10.563  26.908   9.082
 2801POPC   C1A37335  10.465  26.449   8.897
 2801POPC   D2A37336  10.526  26.739   8.522
 2801POPC   C3A37337  10.534  26.596   8.089
 2801POPC   C4A37338  10.531  26.759   7.697
 2801POPC   C1B37339  10.818  27.096   8.806
 2801POPC   C2B37340  10.726  27.271   8.420
 2801POPC   C3B37341  10.727  27.094   8.033
 2801POPC   C4B37342  10.861  27.151   7.607
 2802POPC   NC337343   9.574  29.499   9.441
 2802POPC   PO437344  10.008  29.014   9.568
 2802POPC   GL137345   9.822  29.142   9.167
 2802POPC   GL237346   9.983  29.458   9.111
 2802POPC   C1A37347   9.634  29.074   8.761
 2802POPC   D2A37348   9.800  28.877   8.372
 2802POPC   C3A37349   9.670  29.032   7.988
 2802POPC   C4A37350   9.672  29.082   7.546
 2802POPC   C1B37351   9.963  29.440   8.643
 2802POPC   C2B37352   9.780  29.471   8.249
 2802POPC   C3B37353   9.954  29.412   7.840
 2802POPC   C4B37354  10.248  29.553   7.550
 2803POPC   NC337355  20.491  20.695   9.502
 2803POPC   PO437356  21.040  20.242   9.557
 2803POPC   GL137357  20.866  20.499   9.204
 2803POPC   GL237358  20.800  20.898   9.147
 2803POPC   C1A37359  20.671  20.519   8.818
 2803POPC   D2A37360  20.960  20.606   8.516
 2803POPC   C3A37361  20.931  20.536   8.087
 2803POPC   C4A37362  20.780  20.742   7.735
 2803POPC   C1B37363  20.451  20.971   8.814
 2803POPC   C2B37364  20.435  20.732   8.398
 2803POPC   C3B37365  20.357  20.908   7.989
 2803POPC   C4B37366  20.548  21.183   7.655
 2804POPC   NC337367  38.563   3.833   9.786
 2804POPC   PO437368  38.114   3.472   9.514
 2804POPC   GL137369  38.395   3.537   9.166
 2804POPC   GL237370  38.737   3.696   9.247
 2804POPC   C1A37371  38.270   3.396   8.737
 2804POPC   D2A37372  38.213   3.046   8.441
 2804POPC   C3A37373  38.106   3.149   8.041
 2804POPC   C4A37374  38.342   3.405   7.772
 2804POPC   C1B37375  38.740   3.619   8.794
 2804POPC   C2B37376  38.486   3.767   8.426
 2804POPC   C3B37377  38.653   3.757   8.026
 2804POPC   C4B37378  38.839   3.418   7.846
 2805POPC   NC337379  11.174  16.563   9.548
 2805POPC   PO437380  11.563  17.082   9.375
 2805POPC   GL137381  11.329  16.792   9.113
 2805POPC   GL237382  11.562  16.564   8.929
 2805POPC   C1A37383  11.152  16.769   8.691
 2805POPC   D2A37384  11.453  16.728   8.305
 2805POPC   C3A37385  11.243  16.734   7.904
 2805POPC   C4A37386  10.847  16.526   7.749
 2805POPC   C1B37387  11.600  17.010   8.723
 2805POPC   C2B37388  11.797  17.136   8.357
 2805POPC   C3B37389  11.795  16.936   7.960
 2805POPC   C4B37390  11.624  16.811   7.555
 2806POPC   NC337391  12.386  34.012   9.504
 2806POPC   PO437392  13.040  33.851   9.457
 2806POPC   GL137393  12.739  33.887   9.130
 2806POPC   GL237394  12.594  33.577   9.027
 2806POPC   C1A37395  12.736  33.928   8.683
 2806POPC   D2A37396  12.750  33.888   8.251
 2806POPC   C3A37397  12.935  34.056   7.880
 2806POPC   C4A37398  12.966  33.967   7.435
 2806POPC   C1B37399  12.989  33.493   8.783
 2806POPC   C2B37400  13.100  33.524   8.332
 2806POPC   C3B37401  12.864  33.527   7.923
 2806POPC   C4B37402  12.780  33.508   7.500
 2807POPC   NC337403  19.430  12.320   9.323
 2807POPC   PO437404  20.133  12.360   9.468
 2807POPC   GL137405  19.890  12.100   9.175
 2807POPC   GL237406  20.056  11.806   9.121
 2807POPC   C1A37407  19.710  12.166   8.739
 2807POPC   D2A37408  19.850  12.247   8.321
 2807POPC   C3A37409  19.763  12.299   7.872
 2807POPC   C4A37410  20.088  12.292   7.581
 2807POPC   C1B37411  19.690  11.684   8.890
 2807POPC   C2B37412  19.827  11.735   8.443
 2807POPC   C3B37413  19.848  11.821   8.015
 2807POPC   C4B37414  19.961  11.746   7.602
 2808POPC   NC337415  28.009  11.974   9.474
 2808POPC   PO437416  28.696  12.179   9.401
 2808POPC   GL137417  28.559  12.138   9.022
 2808POPC   GL237418  28.492  11.796   9.113
 2808POPC   C1A37419  28.418  12.010   8.615
 2808POPC   D2A37420  28.068  11.835   8.370
 2808POPC   C3A37421  28.030  12.055   7.978
 2808POPC   C4A37422  28.233  12.335   7.738
 2808POPC   C1B37423  28.177  11.637   8.868
 2808POPC   C2B37424  28.430  11.496   8.552
 2808POPC   C3B37425  28.645  11.714   8.222
 2808POPC   C4B37426  28.511  11.912   7.836
 2809POPC   NC337427   9.469  26.178   9.306
 2809POPC   PO437428   9.909  25.658   9.466
 2809POPC   GL137429   9.822  25.863   9.076
 2809POPC   GL237430   9.976  26.191   8.969
 2809POPC   C1A37431   9.486  25.785   8.784
 2809POPC   D2A37432   9.410  25.907   8.363
 2809POPC   C3A37433   9.795  26.003   8.178
 2809POPC   C4A37434   9.957  25.968   7.772
 2809POPC   C1B37435   9.672  26.267   8.646
 2809POPC   C2B37436   9.572  26.468   8.257
 2809POPC   C3B37437   9.719  26.420   7.873
 2809POPC   C4B37438  10.153  26.430   7.724
 2810POPC   NC337439  17.298  10.585   9.670
 2810POPC   PO437440  18.034  10.646   9.729
 2810POPC   GL137441  17.784  10.597   9.349
 2810POPC   GL237442  17.743  10.267   9.199
 2810POPC   C1A37443  17.607  10.740   8.946
 2810POPC   D2A37444  17.477  10.789   8.509
 2810POPC   C3A37445  17.363  10.674   8.058
 2810POPC   C4A37446  17.117  10.302   7.882
 2810POPC   C1B37447  17.633  10.261   8.760
 2810POPC   C2B37448  17.459  10.281   8.362
 2810POPC   C3B37449  17.629  10.215   7.966
 2810POPC   C4B37450  17.749  10.551   7.688
 2811POPC   NC337451   0.008  43.199   9.595
 2811POPC   PO437452  44.394  43.566   9.536
 2811POPC   GL137453  44.517  43.289   9.175
 2811POPC   GL237454  44.840  43.151   9.129
 2811POPC   C1A37455  44.480  42.989   8.832
 2811POPC   D2A37456  44.655  43.106   8.453
 2811POPC   C3A37457  44.481  42.881   8.106
 2811POPC   C4A37458  44.321  42.886   7.689
 2811POPC   C1B37459   0.000  42.882   8.836
 2811POPC   C2B37460   0.159  42.935   8.419
 2811POPC   C3B37461   0.021  43.249   8.136
 2811POPC   C4B37462  44.754  43.197   7.787
 2812POPC   NC337463  11.727   5.993   9.437
 2812POPC   PO437464  12.435   5.903   9.447
 2812POPC   GL137465  12.132   5.771   9.173
 2812POPC   GL237466  12.096   6.139   9.077
 2812POPC   C1A37467  11.966   5.762   8.748
 2812POPC   D2A37468  12.004   6.070   8.400
 2812POPC   C3A37469  12.018   5.864   8.009
 2812POPC   C4A37470  12.073   5.531   7.708
 2812POPC   C1B37471  12.412   6.043   8.732
 2812POPC   C2B37472  12.510   5.975   8.272
 2812POPC   C3B37473  12.439   6.040   7.810
 2812POPC   C4B37474  12.247   6.087   7.382
 2813POPC   NC337475   0.002  24.499   9.672
 2813POPC   PO437476  44.413  24.691   9.770
 2813POPC   GL137477  44.484  24.346   9.439
 2813POPC   GL237478  44.665  24.613   9.264
 2813POPC   C1A37479  44.428  24.303   8.953
 2813POPC   D2A37480  44.576  24.574   8.602
 2813POPC   C3A37481  44.665  24.500   8.184
 2813POPC   C4A37482  44.530  24.425   7.755
 2813POPC   C1B37483  44.813  24.915   8.956
 2813POPC   C2B37484   0.042  24.885   8.582
 2813POPC   C3B37485  44.973  24.936   8.161
 2813POPC   C4B37486  44.953  24.729   7.799
 2814POPC   NC337487  42.208  19.975   9.722
 2814POPC   PO437488  42.572  19.487   9.467
 2814POPC   GL137489  42.465  19.857   9.283
 2814POPC   GL237490  42.763  20.067   9.240
 2814POPC   C1A37491  42.261  19.825   8.904
 2814POPC   D2A37492  42.219  19.963   8.492
 2814POPC   C3A37493  42.159  19.690   8.159
 2814POPC   C4A37494  42.051  19.951   7.851
 2814POPC   C1B37495  42.777  19.785   8.859
 2814POPC   C2B37496  42.589  19.583   8.486
 2814POPC   C3B37497  42.663  19.770   8.073
 2814POPC   C4B37498  42.498  19.829   7.656
 2815POPC   NC337499  20.085  10.947   9.625
 2815POPC   PO437500  19.627  10.416   9.753
 2815POPC   GL137501  19.622  10.474   9.303
 2815POPC   GL237502  19.971  10.540   9.232
 2815POPC   C1A37503  19.645  10.361   8.849
 2815POPC   D2A37504  19.819  10.280   8.417
 2815POPC   C3A37505  19.658  10.503   8.030
 2815POPC   C4A37506  19.650  10.925   7.784
 2815POPC   C1B37507  20.105  10.624   8.778
 2815POPC   C2B37508  19.952  10.814   8.378
 2815POPC   C3B37509  20.089  10.766   7.965
 2815POPC   C4B37510  20.040  10.369   7.695
 2816POPC   NC337511  24.888  21.114   9.493
 2816POPC   PO437512  25.579  21.159   9.391
 2816POPC   GL137513  25.220  21.285   9.141
 2816POPC   GL237514  24.982  21.581   9.244
 2816POPC   C1A37515  25.247  21.193   8.721
 2816POPC   D2A37516  25.533  21.397   8.437
 2816POPC   C3A37517  25.391  21.343   8.029
 2816POPC   C4A37518  25.203  21.123   7.655
 2816POPC   C1B37519  25.055  21.670   8.793
 2816POPC   C2B37520  24.972  21.573   8.331
 2816POPC   C3B37521  24.914  21.496   7.885
 2816POPC   C4B37522  24.847  21.468   7.430
 2817POPC   NC337523   5.585  16.899   9.491
 2817POPC   PO437524   6.059  16.456   9.601
 2817POPC   GL137525   5.839  16.559   9.187
 2817POPC   GL237526   5.971  16.888   9.075
 2817POPC   C1A37527   5.679  16.571   8.729
 2817POPC   D2A37528   5.727  16.781   8.306
 2817POPC   C3A37529   5.672  16.560   7.888
 2817POPC   C4A37530   5.810  16.639   7.470
 2817POPC   C1B37531   5.666  17.077   8.756
 2817POPC   C2B37532   5.450  17.251   8.405
 2817POPC   C3B37533   5.626  17.197   7.978
 2817POPC   C4B37534   5.997  16.953   7.871
 2818POPC   NC337535  20.822  18.035   9.437
 2818POPC   PO437536  20.315  18.578   9.492
 2818POPC   GL137537  20.484  18.312   9.171
 2818POPC   GL237538  20.532  18.640   9.038
 2818POPC   C1A37539  20.407  18.240   8.707
 2818POPC   D2A37540  20.626  18.069   8.310
 2818POPC   C3A37541  20.520  18.151   7.864
 2818POPC   C4A37542  20.782  17.982   7.511
 2818POPC   C1B37543  20.706  18.661   8.693
 2818POPC   C2B37544  20.518  18.583   8.312
 2818POPC   C3B37545  20.703  18.624   7.899
 2818POPC   C4B37546  20.717  18.475   7.463
 2819POPC   NC337547   5.540  37.102   9.585
 2819POPC   PO437548   5.086  36.604   9.609
 2819POPC   GL137549   5.042  36.774   9.207
 2819POPC   GL237550   5.072  37.110   9.279
 2819POPC   C1A37551   4.913  36.798   8.793
 2819POPC   D2A37552   5.046  36.585   8.460
 2819POPC   C3A37553   4.936  36.792   8.101
 2819POPC   C4A37554   5.248  36.824   7.803
 2819POPC   C1B37555   5.310  37.120   8.865
 2819POPC   C2B37556   5.263  37.083   8.397
 2819POPC   C3B37557   5.108  37.292   8.002
 2819POPC   C4B37558   4.749  37.371   7.733
 2820POPC   NC337559   5.014  19.293   9.237
 2820POPC   PO437560   5.310  18.696   9.439
 2820POPC   GL137561   5.292  18.890   9.069
 2820POPC   GL237562   5.517  19.168   9.104
 2820POPC   C1A37563   5.033  18.842   8.711
 2820POPC   D2A37564   4.872  18.977   8.339
 2820POPC   C3A37565   5.124  18.836   8.043
 2820POPC   C4A37566   5.111  18.830   7.638
 2820POPC   C1B37567   5.396  19.200   8.660
 2820POPC   C2B37568   5.501  19.245   8.240
 2820POPC   C3B37569   5.270  19.282   7.858
 2820POPC   C4B37570   4.812  19.238   7.836
 2821POPC   NC337571  26.936  37.385   9.550
 2821POPC   PO437572  26.595  36.785   9.615
 2821POPC   GL137573  26.731  36.968   9.241
 2821POPC   GL237574  26.409  37.096   9.163
 2821POPC   C1A37575  26.945  36.777   8.899
 2821POPC   D2A37576  26.984  36.874   8.493
 2821POPC   C3A37577  26.766  36.760   8.179
 2821POPC   C4A37578  26.865  36.681   7.775
 2821POPC   C1B37579  26.462  36.846   8.774
 2821POPC   C2B37580  26.338  36.989   8.377
 2821POPC   C3B37581  26.393  37.072   7.955
 2821POPC   C4B37582  26.459  36.943   7.549
 2822POPC   NC337583  19.272  28.319   9.806
 2822POPC   PO437584  19.017  28.750   9.419
 2822POPC   GL137585  18.998  28.400   9.129
 2822POPC   GL237586  19.195  28.560   8.916
 2822POPC   C1A37587  19.021  28.145   8.707
 2822POPC   D2A37588  19.324  28.085   8.343
 2822POPC   C3A37589  19.100  28.206   7.975
 2822POPC   C4A37590  18.680  28.059   7.841
 2822POPC   C1B37591  19.187  28.561   8.487
 2822POPC   C2B37592  19.147  28.706   8.114
 2822POPC   C3B37593  19.045  28.667   7.707
 2822POPC   C4B37594  18.918  28.852   7.324
 2823POPC   NC337595   6.981  32.018   9.505
 2823POPC   PO437596   7.570  32.431   9.624
 2823POPC   GL137597   7.533  32.394   9.199
 2823POPC   GL237598   7.448  32.068   9.265
 2823POPC   C1A37599   7.367  32.531   8.794
 2823POPC   D2A37600   7.503  32.638   8.380
 2823POPC   C3A37601   7.348  32.495   7.984
 2823POPC   C4A37602   7.564  32.225   7.677
 2823POPC   C1B37603   7.422  32.017   8.835
 2823POPC   C2B37604   7.261  32.167   8.429
 2823POPC   C3B37605   7.242  31.995   8.012
 2823POPC   C4B37606   7.222  31.871   7.548
 2824POPC   NC337607  24.594  39.599   9.564
 2824POPC   PO437608  24.901  39.047   9.458
 2824POPC   GL137609  24.632  39.260   9.157
 2824POPC   GL237610  24.768  39.599   9.072
 2824POPC   C1A37611  24.539  39.070   8.749
 2824POPC   D2A37612  24.814  39.087   8.387
 2824POPC   C3A37613  24.617  39.190   7.991
 2824POPC   C4A37614  24.512  39.073   7.586
 2824POPC   C1B37615  24.491  39.586   8.728
 2824POPC   C2B37616  24.360  39.434   8.359
 2824POPC   C3B37617  24.282  39.599   7.955
 2824POPC   C4B37618  24.447  39.563   7.502
 2825POPC   NC337619  14.876  36.135   9.663
 2825POPC   PO437620  15.463  36.452   9.486
 2825POPC   GL137621  15.065  36.289   9.192
 2825POPC   GL237622  14.755  36.051   9.157
 2825POPC   C1A37623  15.146  36.007   8.825
 2825POPC   D2A37624  15.383  36.025   8.452
 2825POPC   C3A37625  15.283  36.150   8.039
 2825POPC   C4A37626  15.551  36.167   7.705
 2825POPC   C1B37627  14.730  36.253   8.718
 2825POPC   C2B37628  14.860  36.114   8.327
 2825POPC   C3B37629  14.801  35.949   7.902
 2825POPC   C4B37630  15.069  35.885   7.525
 2826POPC   NC337631  28.846  21.879   9.313
 2826POPC   PO437632  29.317  22.323   9.513
 2826POPC   GL137633  29.247  22.152   9.121
 2826POPC   GL237634  29.300  21.790   9.094
 2826POPC   C1A37635  29.080  22.295   8.746
 2826POPC   D2A37636  29.059  22.606   8.426
 2826POPC   C3A37637  29.118  22.460   8.004
 2826POPC   C4A37638  28.805  22.356   7.712
 2826POPC   C1B37639  29.345  21.811   8.668
 2826POPC   C2B37640  29.208  22.058   8.321
 2826POPC   C3B37641  29.021  21.925   7.933
 2826POPC   C4B37642  29.163  21.854   7.544
 2827POPC   NC337643  36.835  37.545   9.445
 2827POPC   PO437644  37.269  38.080   9.460
 2827POPC   GL137645  37.034  37.881   9.108
 2827POPC   GL237646  36.672  37.978   9.061
 2827POPC   C1A37647  37.007  37.953   8.670
 2827POPC   D2A37648  36.775  37.977   8.294
 2827POPC   C3A37649  37.057  37.967   7.969
 2827POPC   C4A37650  37.120  37.789   7.590
 2827POPC   C1B37651  36.615  37.624   8.788
 2827POPC   C2B37652  36.615  37.455   8.359
 2827POPC   C3B37653  36.785  37.528   7.946
 2827POPC   C4B37654  36.735  37.440   7.496
 2828POPC   NC337655  34.980   3.541   9.436
 2828POPC   PO437656  35.446   3.982   9.441
 2828POPC   GL137657  35.378   3.653   9.108
 2828POPC   GL237658  35.096   3.375   8.983
 2828POPC   C1A37659  35.375   3.675   8.684
 2828POPC   D2A37660  35.215   3.399   8.404
 2828POPC   C3A37661  35.089   3.574   8.056
 2828POPC   C4A37662  35.163   3.305   7.732
 2828POPC   C1B37663  35.455   3.188   8.810
 2828POPC   C2B37664  35.685   3.179   8.447
 2828POPC   C3B37665  35.638   3.477   8.073
 2828POPC   C4B37666  35.446   3.726   7.728
 2829POPC   NC337667  19.556   1.899   9.365
 2829POPC   PO437668  20.035   2.142   9.691
 2829POPC   GL137669  20.034   1.916   9.214
 2829POPC   GL237670  19.793   2.124   8.971
 2829POPC   C1A37671  20.201   1.895   8.764
 2829POPC   D2A37672  19.992   1.941   8.377
 2829POPC   C3A37673  20.176   1.996   8.000
 2829POPC   C4A37674  20.121   2.080   7.595
 2829POPC   C1B37675  19.643   1.777   8.724
 2829POPC   C2B37676  19.605   1.630   8.292
 2829POPC   C3B37677  19.676   1.909   7.890
 2829POPC   C4B37678  19.665   1.970   7.385
 2830POPC   NC337679   7.932  25.894   9.476
 2830POPC   PO437680   8.626  26.163   9.376
 2830POPC   GL137681   8.346  26.207   9.064
 2830POPC   GL237682   8.244  25.884   9.091
 2830POPC   C1A37683   8.210  26.123   8.636
 2830POPC   D2A37684   7.930  26.260   8.325
 2830POPC   C3A37685   8.181  26.134   7.971
 2830POPC   C4A37686   8.404  26.046   7.578
 2830POPC   C1B37687   8.249  25.633   8.723
 2830POPC   C2B37688   8.071  25.692   8.270
 2830POPC   C3B37689   7.836  25.624   7.855
 2830POPC   C4B37690   7.743  25.640   7.310
 2831POPC   NC337691  33.136  43.669   9.939
 2831POPC   PO437692  32.909  44.183   9.508
 2831POPC   GL137693  33.156  44.036   9.193
 2831POPC   GL237694  33.222  43.701   9.366
 2831POPC   C1A37695  33.009  44.030   8.763
 2831POPC   D2A37696  33.194  43.857   8.418
 2831POPC   C3A37697  32.993  44.011   8.107
 2831POPC   C4A37698  33.256  44.023   7.768
 2831POPC   C1B37699  33.126  43.576   8.911
 2831POPC   C2B37700  32.849  43.517   8.500
 2831POPC   C3B37701  32.918  43.526   8.035
 2831POPC   C4B37702  33.117  43.433   7.644
 2832POPC   NC337703   7.164   5.131   9.976
 2832POPC   PO437704   6.533   5.213   9.593
 2832POPC   GL137705   6.429   5.073   9.173
 2832POPC   GL237706   6.750   4.927   9.135
 2832POPC   C1A37707   6.518   5.130   8.749
 2832POPC   D2A37708   6.491   4.936   8.396
 2832POPC   C3A37709   6.465   5.181   8.061
 2832POPC   C4A37710   6.614   5.071   7.693
 2832POPC   C1B37711   6.797   4.690   8.756
 2832POPC   C2B37712   7.010   4.708   8.372
 2832POPC   C3B37713   6.900   4.764   7.971
 2832POPC   C4B37714   7.072   4.934   7.586
 2833POPC   NC337715  20.125  20.063   9.447
 2833POPC   PO437716  19.544  19.824   9.403
 2833POPC   GL137717  19.704  19.643   9.072
 2833POPC   GL237718  20.059  19.688   9.095
 2833POPC   C1A37719  19.523  19.827   8.732
 2833POPC   D2A37720  19.337  19.989   8.428
 2833POPC   C3A37721  19.554  19.867   8.079
 2833POPC   C4A37722  19.762  20.149   7.812
 2833POPC   C1B37723  19.986  20.043   8.791
 2833POPC   C2B37724  19.957  20.035   8.350
 2833POPC   C3B37725  20.163  19.855   8.047
 2833POPC   C4B37726  20.059  19.793   7.612
 2834POPC   NC337727  25.785  30.858   9.568
 2834POPC   PO437728  26.267  30.550   9.321
 2834POPC   GL137729  25.907  30.700   9.114
 2834POPC   GL237730  25.801  30.442   8.992
 2834POPC   C1A37731  25.709  30.909   8.774
 2834POPC   D2A37732  25.868  30.949   8.335
 2834POPC   C3A37733  25.879  30.635   7.983
 2834POPC   C4A37734  25.901  30.701   7.561
 2834POPC   C1B37735  26.082  30.564   8.638
 2834POPC   C2B37736  26.295  30.617   8.251
 2834POPC   C3B37737  26.356  30.561   7.817
 2834POPC   C4B37738  26.355  30.509   7.357
 2835POPC   NC337739  35.414  39.175   9.735
 2835POPC   PO437740  35.652  39.358   9.180
 2835POPC   GL137741  35.358  39.216   8.960
 2835POPC   GL237742  35.074  39.253   9.140
 2835POPC   C1A37743  35.367  39.161   8.523
 2835POPC   D2A37744  35.570  39.537   8.359
 2835POPC   C3A37745  35.648  39.452   7.969
 2835POPC   C4A37746  35.510  39.045   7.822
 2835POPC   C1B37747  34.890  39.285   8.733
 2835POPC   C2B37748  35.013  39.510   8.357
 2835POPC   C3B37749  35.117  39.309   7.988
 2835POPC   C4B37750  34.877  39.049   7.733
 2836POPC   NC337751  14.689  20.234   9.438
 2836POPC   PO437752  14.374  20.775   9.485
 2836POPC   GL137753  14.355  20.476   9.108
 2836POPC   GL237754  14.713  20.373   8.948
 2836POPC   C1A37755  14.325  20.607   8.673
 2836POPC   D2A37756  14.589  20.459   8.372
 2836POPC   C3A37757  14.504  20.401   7.919
 2836POPC   C4A37758  14.242  20.265   7.528
 2836POPC   C1B37759  14.872  20.738   8.713
 2836POPC   C2B37760  14.869  20.888   8.282
 2836POPC   C3B37761  14.797  20.859   7.849
 2836POPC   C4B37762  14.577  20.665   7.506
 2837POPC   NC337763   6.106  19.883   9.328
 2837POPC   PO437764   5.529  20.196   9.556
 2837POPC   GL137765   5.613  20.024   9.143
 2837POPC   GL237766   5.536  19.680   9.140
 2837POPC   C1A37767   5.830  20.112   8.734
 2837POPC   D2A37768   6.096  19.958   8.373
 2837POPC   C3A37769   5.944  20.113   7.977
 2837POPC   C4A37770   5.513  20.056   7.803
 2837POPC   C1B37771   5.684  19.622   8.734
 2837POPC   C2B37772   5.575  19.821   8.350
 2837POPC   C3B37773   5.723  19.637   7.984
 2837POPC   C4B37774   5.570  19.589   7.583
 2838POPC   NC337775   4.760  25.857   9.410
 2838POPC   PO437776   5.409  26.140   9.447
 2838POPC   GL137777   5.234  25.912   9.125
 2838POPC   GL237778   5.039  26.220   9.052
 2838POPC   C1A37779   5.176  25.696   8.724
 2838POPC   D2A37780   5.012  25.728   8.282
 2838POPC   C3A37781   5.226  26.004   7.953
 2838POPC   C4A37782   5.487  26.043   7.540
 2838POPC   C1B37783   4.874  26.092   8.640
 2838POPC   C2B37784   4.633  26.243   8.294
 2838POPC   C3B37785   4.687  26.158   7.852
 2838POPC   C4B37786   4.983  26.106   7.495
 2839POPC   NC337787  11.632  10.482   9.495
 2839POPC   PO437788  12.290  10.633   9.638
 2839POPC   GL137789  12.087  10.596   9.265
 2839POPC   GL237790  12.003  10.251   9.219
 2839POPC   C1A37791  11.918  10.752   8.883
 2839POPC   D2A37792  11.675  10.701   8.529
 2839POPC   C3A37793  11.861  10.624   8.131
 2839POPC   C4A37794  11.821  10.758   7.709
 2839POPC   C1B37795  11.995  10.270   8.801
 2839POPC   C2B37796  11.969  10.181   8.407
 2839POPC   C3B37797  12.135  10.195   8.035
 2839POPC   C4B37798  12.075  10.123   7.607
 2840POPC   NC337799  12.797  31.343   9.478
 2840POPC   PO437800  13.417  31.575   9.591
 2840POPC   GL137801  13.126  31.640   9.159
 2840POPC   GL237802  12.760  31.546   9.027
 2840POPC   C1A37803  13.075  31.690   8.670
 2840POPC   D2A37804  12.767  31.549   8.320
 2840POPC   C3A37805  12.826  31.561   7.831
 2840POPC   C4A37806  13.029  31.382   7.450
 2840POPC   C1B37807  12.849  31.196   8.730
 2840POPC   C2B37808  12.672  31.025   8.344
 2840POPC   C3B37809  12.815  31.028   7.902
 2840POPC   C4B37810  12.564  31.110   7.532
 2841POPC   NC337811  31.798   9.036   9.436
 2841POPC   PO437812  31.114   8.623   9.421
 2841POPC   GL137813  31.393   8.764   9.096
 2841POPC   GL237814  31.722   8.638   9.087
 2841POPC   C1A37815  31.441   8.733   8.656
 2841POPC   D2A37816  31.592   8.610   8.275
 2841POPC   C3A37817  31.380   8.874   7.974
 2841POPC   C4A37818  31.081   8.986   7.668
 2841POPC   C1B37819  31.834   9.009   8.796
 2841POPC   C2B37820  31.738   9.206   8.398
 2841POPC   C3B37821  31.616   9.341   7.986
 2841POPC   C4B37822  31.565   9.157   7.577
 2842POPC   NC337823  21.676  23.018   9.500
 2842POPC   PO437824  22.339  22.772   9.567
 2842POPC   GL137825  22.131  22.914   9.202
 2842POPC   GL237826  21.985  23.243   9.146
 2842POPC   C1A37827  22.246  22.767   8.809
 2842POPC   D2A37828  22.243  22.976   8.431
 2842POPC   C3A37829  22.394  22.709   8.113
 2842POPC   C4A37830  22.284  22.658   7.711
 2842POPC   C1B37831  21.929  23.505   8.761
 2842POPC   C2B37832  22.032  23.441   8.318
 2842POPC   C3B37833  22.086  23.126   7.974
 2842POPC   C4B37834  22.182  23.121   7.542
 2843POPC   NC337835  17.909  19.968   9.561
 2843POPC   PO437836  17.253  19.662   9.504
 2843POPC   GL137837  17.385  19.855   9.168
 2843POPC   GL237838  17.682  19.695   9.160
 2843POPC   C1A37839  17.533  19.962   8.738
 2843POPC   D2A37840  17.705  19.792   8.359
 2843POPC   C3A37841  17.501  19.887   7.966
 2843POPC   C4A37842  17.197  20.192   7.818
 2843POPC   C1B37843  17.501  19.447   8.829
 2843POPC   C2B37844  17.524  19.293   8.409
 2843POPC   C3B37845  17.724  19.413   8.021
 2843POPC   C4B37846  17.609  19.500   7.596
 2844POPC   NC337847   5.875  40.301   9.330
 2844POPC   PO437848   5.916  40.948   9.621
 2844POPC   GL137849   5.900  41.053   9.147
 2844POPC   GL237850   5.793  40.721   8.988
 2844POPC   C1A37851   6.099  41.001   8.697
 2844POPC   D2A37852   5.877  40.821   8.375
 2844POPC   C3A37853   5.995  40.884   7.982
 2844POPC   C4A37854   5.837  41.224   7.815
 2844POPC   C1B37855   5.500  40.922   8.704
 2844POPC   C2B37856   5.369  40.725   8.318
 2844POPC   C3B37857   5.644  40.477   8.004
 2844POPC   C4B37858   5.891  40.530   7.626
 2845POPC   NC337859  16.903  41.612   9.385
 2845POPC   PO437860  16.400  41.934   9.671
 2845POPC   GL137861  16.526  41.869   9.153
 2845POPC   GL237862  16.570  41.552   8.914
 2845POPC   C1A37863  16.888  41.898   8.781
 2845POPC   D2A37864  16.781  41.600   8.423
 2845POPC   C3A37865  16.932  41.751   8.041
 2845POPC   C4A37866  16.803  41.794   7.622
 2845POPC   C1B37867  16.979  41.319   8.786
 2845POPC   C2B37868  16.978  41.121   8.377
 2845POPC   C3B37869  16.930  41.226   7.944
 2845POPC   C4B37870  16.840  40.943   7.621
 2846POPC   NC337871  28.054  22.269   9.468
 2846POPC   PO437872  27.431  22.001   9.535
 2846POPC   GL137873  27.558  22.103   9.167
 2846POPC   GL237874  27.840  21.869   9.200
 2846POPC   C1A37875  27.321  22.171   8.796
 2846POPC   D2A37876  27.510  22.156   8.439
 2846POPC   C3A37877  27.405  22.396   8.131
 2846POPC   C4A37878  27.462  22.215   7.759
 2846POPC   C1B37879  27.684  21.805   8.791
 2846POPC   C2B37880  27.788  21.714   8.406
 2846POPC   C3B37881  27.839  21.980   8.087
 2846POPC   C4B37882  27.797  21.827   7.726
 2847POPC   NC337883  36.903   1.818   9.586
 2847POPC   PO437884  36.697   2.452   9.501
 2847POPC   GL137885  36.814   2.151   9.186
 2847POPC   GL237886  37.132   1.994   9.180
 2847POPC   C1A37887  36.766   1.970   8.782
 2847POPC   D2A37888  36.580   2.113   8.394
 2847POPC   C3A37889  36.826   2.061   8.025
 2847POPC   C4A37890  36.804   1.800   7.732
 2847POPC   C1B37891  37.239   2.223   8.816
 2847POPC   C2B37892  37.132   2.104   8.424
 2847POPC   C3B37893  37.333   2.005   8.040
 2847POPC   C4B37894  37.254   2.043   7.609
 2848POPC   NC337895   4.595  31.176   9.436
 2848POPC   PO437896   4.130  31.528   9.472
 2848POPC   GL137897   4.281  31.394   9.074
 2848POPC   GL237898   4.590  31.603   9.123
 2848POPC   C1A37899   4.166  31.277   8.633
 2848POPC   D2A37900   4.011  31.531   8.245
 2848POPC   C3A37901   4.220  31.421   7.846
 2848POPC   C4A37902   4.541  31.077   7.726
 2848POPC   C1B37903   4.764  31.885   8.808
 2848POPC   C2B37904   4.767  31.679   8.408
 2848POPC   C3B37905   4.545  31.746   8.055
 2848POPC   C4B37906   4.594  32.078   7.800
 2849POPC   NC337907  44.041  27.944   9.748
 2849POPC   PO437908  43.951  28.540   9.401
 2849POPC   GL137909  43.928  28.192   9.076
 2849POPC   GL237910  43.996  28.453   8.889
 2849POPC   C1A37911  43.835  28.056   8.614
 2849POPC   D2A37912  43.605  28.252   8.265
 2849POPC   C3A37913  43.780  28.148   7.855
 2849POPC   C4A37914  44.145  27.910   7.768
 2849POPC   C1B37915  43.592  28.513   8.736
 2849POPC   C2B37916  43.624  28.835   8.442
 2849POPC   C3B37917  43.579  28.963   8.060
 2849POPC   C4B37918  43.628  28.628   7.828
 2850POPC   NC337919  43.490  10.931   9.274
 2850POPC   PO437920  43.986  11.336   9.508
 2850POPC   GL137921  43.975  11.155   9.109
 2850POPC   GL237922  44.239  10.868   9.056
 2850POPC   C1A37923  44.103  11.345   8.719
 2850POPC   D2A37924  44.205  11.559   8.334
 2850POPC   C3A37925  44.003  11.453   7.949
 2850POPC   C4A37926  43.870  11.264   7.564
 2850POPC   C1B37927  43.982  10.854   8.696
 2850POPC   C2B37928  43.984  11.047   8.294
 2850POPC   C3B37929  43.803  10.906   7.919
 2850POPC   C4B37930  43.424  10.966   7.664
 2851POPC   NC337931  33.705  44.299   9.581
 2851POPC   PO437932  34.231  44.657   9.815
 2851POPC   GL137933  34.044  44.634   9.369
 2851POPC   GL237934  33.779  44.822   9.190
 2851POPC   C1A37935  33.976  44.402   8.954
 2851POPC   D2A37936  33.833  44.435   8.511
 2851POPC   C3A37937  34.113  44.467   8.163
 2851POPC   C4A37938  34.084  44.774   7.856
 2851POPC   C1B37939  33.537  44.675   8.851
 2851POPC   C2B37940  33.425  44.845   8.428
 2851POPC   C3B37941  33.592  44.850   8.005
 2851POPC   C4B37942  33.680  44.471   7.758
 2852POPC   NC337943  28.383  21.250   9.484
 2852POPC   PO437944  28.430  21.967   9.511
 2852POPC   GL137945  28.435  21.637   9.173
 2852POPC   GL237946  28.135  21.459   9.095
 2852POPC   C1A37947  28.540  21.305   8.841
 2852POPC   D2A37948  28.415  21.297   8.409
 2852POPC   C3A37949  28.661  21.488   8.072
 2852POPC   C4A37950  28.638  21.234   7.718
 2852POPC   C1B37951  28.187  21.778   8.770
 2852POPC   C2B37952  28.297  21.824   8.355
 2852POPC   C3B37953  28.148  21.568   8.051
 2852POPC   C4B37954  28.259  21.541   7.676
 2853POPC   NC337955  33.382  28.185   9.593
 2853POPC   PO437956  32.723  28.379   9.491
 2853POPC   GL137957  32.903  28.457   9.105
 2853POPC   GL237958  33.241  28.477   9.164
 2853POPC   C1A37959  33.069  28.278   8.717
 2853POPC   D2A37960  33.056  28.401   8.293
 2853POPC   C3A37961  32.996  28.222   7.913
 2853POPC   C4A37962  32.585  28.171   7.768
 2853POPC   C1B37963  33.444  28.659   8.823
 2853POPC   C2B37964  33.535  28.521   8.408
 2853POPC   C3B37965  33.409  28.625   8.001
 2853POPC   C4B37966  33.377  28.501   7.565
 2854POPC   NC337967   4.412   6.107   9.432
 2854POPC   PO437968   4.047   5.515   9.309
 2854POPC   GL137969   4.343   5.769   9.049
 2854POPC   GL237970   4.684   5.668   9.093
 2854POPC   C1A37971   4.507   5.840   8.613
 2854POPC   D2A37972   4.341   5.564   8.267
 2854POPC   C3A37973   4.242   5.751   7.871
 2854POPC   C4A37974   4.102   6.166   7.895
 2854POPC   C1B37975   4.803   5.421   8.696
 2854POPC   C2B37976   4.805   5.385   8.225
 2854POPC   C3B37977   4.694   5.472   7.791
 2854POPC   C4B37978   4.936   5.487   7.386
 2855POPC   NC337979   7.793   2.354   9.402
 2855POPC   PO437980   7.234   2.692   9.643
 2855POPC   GL137981   7.408   2.782   9.242
 2855POPC   GL237982   7.687   2.971   9.217
 2855POPC   C1A37983   7.232   2.868   8.838
 2855POPC   D2A37984   7.259   2.549   8.510
 2855POPC   C3A37985   7.448   2.585   8.128
 2855POPC   C4A37986   7.288   2.660   7.720
 2855POPC   C1B37987   7.719   2.684   8.837
 2855POPC   C2B37988   7.913   2.733   8.452
 2855POPC   C3B37989   7.818   2.915   8.076
 2855POPC   C4B37990   7.792   2.741   7.712
 2856POPC   NC337991  25.464   1.521   9.512
 2856POPC   PO437992  26.086   1.189   9.482
 2856POPC   GL137993  26.093   1.005   9.096
 2856POPC   GL237994  26.383   0.795   8.973
 2856POPC   C1A37995  25.941   1.218   8.744
 2856POPC   D2A37996  25.759   1.417   8.382
 2856POPC   C3A37997  25.945   1.302   8.016
 2856POPC   C4A37998  26.074   0.994   7.694
 2856POPC   C1B37999  26.466   1.191   8.779
 2856POPC   C2B38000  26.298   1.364   8.411
 2856POPC   C3B38001  26.423   1.199   8.027
 2856POPC   C4B38002  26.351   1.420   7.648
 2857POPC   NC338003  28.635  22.046   9.916
 2857POPC   PO438004  28.474  22.547   9.479
 2857POPC   GL138005  28.418  22.326   9.093
 2857POPC   GL238006  28.077  22.264   8.970
 2857POPC   C1A38007  28.533  22.165   8.682
 2857POPC   D2A38008  28.706  22.192   8.243
 2857POPC   C3A38009  28.499  21.964   7.895
 2857POPC   C4A38010  28.666  21.791   7.512
 2857POPC   C1B38011  28.011  22.220   8.544
 2857POPC   C2B38012  28.201  22.314   8.151
 2857POPC   C3B38013  28.272  22.424   7.727
 2857POPC   C4B38014  28.100  22.465   7.296
 2858POPC   NC338015  34.038  19.758   9.567
 2858POPC   PO438016  33.483  20.093   9.512
 2858POPC   GL138017  33.774  19.937   9.141
 2858POPC   GL238018  33.961  19.574   9.103
 2858POPC   C1A38019  33.864  19.824   8.691
 2858POPC   D2A38020  34.070  19.794   8.319
 2858POPC   C3A38021  33.738  19.688   8.021
 2858POPC   C4A38022  33.692  19.752   7.579
 2858POPC   C1B38023  34.031  19.311   8.720
 2858POPC   C2B38024  33.985  19.254   8.261
 2858POPC   C3B38025  34.225  19.478   7.947
 2858POPC   C4B38026  34.180  19.581   7.503
 2859POPC   NC338027   5.550  38.819   9.801
 2859POPC   PO438028   5.980  38.284   9.595
 2859POPC   GL138029   5.797  38.333   9.177
 2859POPC   GL238030   5.943  38.648   9.042
 2859POPC   C1A38031   5.838  38.254   8.723
 2859POPC   D2A38032   6.002  38.526   8.399
 2859POPC   C3A38033   5.871  38.377   8.015
 2859POPC   C4A38034   5.930  38.276   7.553
 2859POPC   C1B38035   5.698  38.848   8.692
 2859POPC   C2B38036   5.568  38.991   8.334
 2859POPC   C3B38037   5.505  38.748   8.008
 2859POPC   C4B38038   5.717  38.729   7.704
 2860POPC   NC338039  23.958  41.856   9.530
 2860POPC   PO438040  23.421  41.410   9.451
 2860POPC   GL138041  23.622  41.592   9.146
 2860POPC   GL238042  23.983  41.490   9.159
 2860POPC   C1A38043  23.587  41.701   8.716
 2860POPC   D2A38044  23.625  41.466   8.339
 2860POPC   C3A38045  23.457  41.548   7.936
 2860POPC   C4A38046  23.874  41.408   7.747
 2860POPC   C1B38047  24.138  41.690   8.779
 2860POPC   C2B38048  23.960  41.954   8.432
 2860POPC   C3B38049  23.843  41.881   8.004
 2860POPC   C4B38050  24.062  41.878   7.635
 2861POPC   NC338051  33.928  43.490   9.374
 2861POPC   PO438052  33.797  42.839   9.477
 2861POPC   GL138053  34.053  42.859   9.117
 2861POPC   GL238054  33.822  43.119   9.036
 2861POPC   C1A38055  34.088  42.953   8.654
 2861POPC   D2A38056  33.744  43.091   8.425
 2861POPC   C3A38057  33.777  43.181   8.032
 2861POPC   C4A38058  33.953  42.868   7.799
 2861POPC   C1B38059  33.887  43.442   8.753
 2861POPC   C2B38060  34.141  43.510   8.423
 2861POPC   C3B38061  34.027  43.631   8.005
 2861POPC   C4B38062  34.086  43.368   7.636
 2862POPC   NC338063   0.422  44.106   9.522
 2862POPC   PO438064   1.042  43.766   9.533
 2862POPC   GL138065   0.737  43.617   9.189
 2862POPC   GL238066   0.390  43.781   9.140
 2862POPC   C1A38067   0.683  43.806   8.751
 2862POPC   D2A38068   0.514  44.101   8.480
 2862POPC   C3A38069   0.668  44.078   8.066
 2862POPC   C4A38070   0.731  43.801   7.739
 2862POPC   C1B38071   0.094  43.898   8.824
 2862POPC   C2B38072  44.993  44.148   8.491
 2862POPC   C3B38073  44.932  44.116   8.052
 2862POPC   C4B38074   0.259  44.071   7.740
 2863POPC   NC338075   4.499  19.763   9.389
 2863POPC   PO438076   3.908  19.419   9.565
 2863POPC   GL138077   4.011  19.635   9.184
 2863POPC   GL238078   4.030  19.995   9.247
 2863POPC   C1A38079   4.196  19.595   8.758
 2863POPC   D2A38080   4.372  19.592   8.337
 2863POPC   C3A38081   4.118  19.616   7.992
 2863POPC   C4A38082   4.193  19.738   7.574
 2863POPC   C1B38083   4.196  20.110   8.841
 2863POPC   C2B38084   4.065  19.987   8.419
 2863POPC   C3B38085   4.289  20.084   8.050
 2863POPC   C4B38086   4.121  20.235   7.690
 2864POPC   NC338087  16.246  32.240   9.449
 2864POPC   PO438088  15.655  31.934   9.670
 2864POPC   GL138089  15.801  32.006   9.234
 2864POPC   GL238090  15.803  32.352   9.176
 2864POPC   C1A38091  15.960  31.994   8.771
 2864POPC   D2A38092  15.943  32.263   8.358
 2864POPC   C3A38093  16.055  32.123   7.949
 2864POPC   C4A38094  16.354  32.298   7.631
 2864POPC   C1B38095  16.001  32.508   8.802
 2864POPC   C2B38096  15.720  32.733   8.510
 2864POPC   C3B38097  15.613  32.642   8.060
 2864POPC   C4B38098  15.894  32.547   7.714
 2865POPC   NC338099  32.991   4.005   9.357
 2865POPC   PO438100  33.021   3.372   9.720
 2865POPC   GL138101  33.084   3.497   9.235
 2865POPC   GL238102  33.353   3.752   9.119
 2865POPC   C1A38103  33.173   3.421   8.761
 2865POPC   D2A38104  33.334   3.265   8.383
 2865POPC   C3A38105  33.091   3.356   8.026
 2865POPC   C4A38106  32.891   3.291   7.611
 2865POPC   C1B38107  33.148   3.932   8.729
 2865POPC   C2B38108  33.108   3.819   8.285
 2865POPC   C3B38109  33.008   3.828   7.835
 2865POPC   C4B38110  33.274   4.049   7.493
 2866POPC   NC338111  36.628  18.356   9.408
 2866POPC   PO438112  37.198  18.026   9.485
 2866POPC   GL138113  36.991  18.146   9.095
 2866POPC   GL238114  36.678  18.024   9.046
 2866POPC   C1A38115  36.909  18.170   8.618
 2866POPC   D2A38116  37.202  18.310   8.347
 2866POPC   C3A38117  37.032  18.312   7.993
 2866POPC   C4A38118  37.232  18.360   7.643
 2866POPC   C1B38119  36.524  17.816   8.719
 2866POPC   C2B38120  36.480  17.873   8.264
 2866POPC   C3B38121  36.681  17.969   7.881
 2866POPC   C4B38122  36.716  18.290   7.565
 2867POPC   NC338123   2.861  24.016   9.520
 2867POPC   PO438124   2.340  23.665   9.473
 2867POPC   GL138125   2.704  23.688   9.180
 2867POPC   GL238126   2.982  23.472   9.123
 2867POPC   C1A38127   2.886  23.915   8.802
 2867POPC   D2A38128   2.657  24.049   8.415
 2867POPC   C3A38129   2.756  23.895   8.018
 2867POPC   C4A38130   2.457  23.760   7.727
 2867POPC   C1B38131   2.710  23.407   8.767
 2867POPC   C2B38132   2.691  23.551   8.383
 2867POPC   C3B38133   2.626  23.369   8.001
 2867POPC   C4B38134   2.810  23.329   7.624
 2868POPC   NC338135  24.217   3.612   9.551
 2868POPC   PO438136  24.472   2.980   9.518
 2868POPC   GL138137  24.328   3.277   9.181
 2868POPC   GL238138  24.572   3.553   9.184
 2868POPC   C1A38139  24.349   3.218   8.731
 2868POPC   D2A38140  24.283   3.398   8.317
 2868POPC   C3A38141  24.456   3.219   7.949
 2868POPC   C4A38142  24.887   3.206   7.769
 2868POPC   C1B38143  24.464   3.732   8.785
 2868POPC   C2B38144  24.716   3.842   8.466
 2868POPC   C3B38145  24.729   3.601   8.115
 2868POPC   C4B38146  24.610   3.649   7.711
 2869POPC   NC338147   6.417  38.401   9.531
 2869POPC   PO438148   6.946  38.739   9.608
 2869POPC   GL138149   6.782  38.620   9.172
 2869POPC   GL238150   6.451  38.728   9.137
 2869POPC   C1A38151   6.859  38.468   8.712
 2869POPC   D2A38152   7.003  38.570   8.275
 2869POPC   C3A38153   6.813  38.375   7.902
 2869POPC   C4A38154   6.787  38.569   7.491
 2869POPC   C1B38155   6.348  38.450   8.798
 2869POPC   C2B38156   6.444  38.217   8.426
 2869POPC   C3B38157   6.324  38.137   8.007
 2869POPC   C4B38158   6.339  38.492   7.757
 2870POPC   NC338159  21.889   4.276   9.468
 2870POPC   PO438160  22.478   3.911   9.517
 2870POPC   GL138161  22.284   4.111   9.161
 2870POPC   GL238162  21.943   3.994   9.062
 2870POPC   C1A38163  22.123   4.448   8.862
 2870POPC   D2A38164  22.276   4.579   8.462
 2870POPC   C3A38165  22.168   4.485   8.037
 2870POPC   C4A38166  22.324   4.488   7.585
 2870POPC   C1B38167  22.150   3.958   8.687
 2870POPC   C2B38168  22.009   4.120   8.330
 2870POPC   C3B38169  22.028   3.958   7.915
 2870POPC   C4B38170  22.197   3.997   7.491
 2871POPC   NC338171  18.827   2.918   9.503
 2871POPC   PO438172  19.512   2.988   9.595
 2871POPC   GL138173  19.263   2.821   9.258
 2871POPC   GL238174  19.135   3.093   9.102
 2871POPC   C1A38175  19.082   2.667   8.834
 2871POPC   D2A38176  19.359   2.592   8.460
 2871POPC   C3A38177  19.276   2.584   8.000
 2871POPC   C4A38178  19.479   2.338   7.684
 2871POPC   C1B38179  18.982   3.162   8.709
 2871POPC   C2B38180  19.137   3.032   8.330
 2871POPC   C3B38181  18.916   2.940   7.939
 2871POPC   C4B38182  18.576   2.660   7.881
 2872POPC   NC338183  15.169  34.973   9.514
 2872POPC   PO438184  15.004  35.712   9.481
 2872POPC   GL138185  14.989  35.538   9.085
 2872POPC   GL238186  15.230  35.279   9.109
 2872POPC   C1A38187  15.190  35.530   8.656
 2872POPC   D2A38188  15.474  35.504   8.322
 2872POPC   C3A38189  15.268  35.642   7.961
 2872POPC   C4A38190  15.151  35.361   7.655
 2872POPC   C1B38191  15.000  35.077   8.781
 2872POPC   C2B38192  14.911  35.211   8.322
 2872POPC   C3B38193  14.895  34.994   7.905
 2872POPC   C4B38194  14.796  35.037   7.435
 2873POPC   NC338195  14.891  39.074   9.602
 2873POPC   PO438196  15.023  39.677   9.654
 2873POPC   GL138197  14.949  39.468   9.248
 2873POPC   GL238198  15.185  39.201   9.210
 2873POPC   C1A38199  14.853  39.307   8.826
 2873POPC   D2A38200  15.016  39.089   8.467
 2873POPC   C3A38201  14.842  39.170   8.077
 2873POPC   C4A38202  15.065  39.231   7.703
 2873POPC   C1B38203  15.376  39.041   8.852
 2873POPC   C2B38204  15.522  38.962   8.442
 2873POPC   C3B38205  15.380  39.052   8.086
 2873POPC   C4B38206  15.485  39.399   7.950
 2874POPC   NC338207  39.139  30.184   9.462
 2874POPC   PO438208  39.564  29.717   9.530
 2874POPC   GL138209  39.385  29.857   9.131
 2874POPC   GL238210  39.431  30.230   9.048
 2874POPC   C1A38211  39.207  29.693   8.745
 2874POPC   D2A38212  39.372  29.695   8.322
 2874POPC   C3A38213  39.147  29.708   7.924
 2874POPC   C4A38214  39.359  29.660   7.527
 2874POPC   C1B38215  39.366  30.161   8.640
 2874POPC   C2B38216  39.079  30.097   8.306
 2874POPC   C3B38217  39.279  30.198   7.920
 2874POPC   C4B38218  39.142  30.146   7.508
 2875POPC   NC338219  22.462   2.672   9.518
 2875POPC   PO438220  21.942   3.084   9.565
 2875POPC   GL138221  22.004   2.881   9.191
 2875POPC   GL238222  22.314   3.009   9.167
 2875POPC   C1A38223  22.046   2.995   8.739
 2875POPC   D2A38224  21.855   3.063   8.347
 2875POPC   C3A38225  21.886   2.797   8.021
 2875POPC   C4A38226  22.160   2.887   7.718
 2875POPC   C1B38227  22.334   2.618   8.874
 2875POPC   C2B38228  22.275   2.636   8.408
 2875POPC   C3B38229  22.247   2.444   7.994
 2875POPC   C4B38230  22.387   2.428   7.621
 2876POPC   NC338231  39.671   8.180   9.544
 2876POPC   PO438232  40.261   8.447   9.295
 2876POPC   GL138233  40.125   8.254   8.966
 2876POPC   GL238234  39.863   8.067   9.080
 2876POPC   C1A38235  40.339   8.047   8.667
 2876POPC   D2A38236  40.251   7.836   8.313
 2876POPC   C3A38237  40.173   8.155   8.045
 2876POPC   C4A38238  40.024   8.328   7.675
 2876POPC   C1B38239  39.873   7.856   8.685
 2876POPC   C2B38240  39.753   7.964   8.279
 2876POPC   C3B38241  39.785   7.850   7.834
 2876POPC   C4B38242  39.642   8.049   7.459
 2877POPC   NC338243  18.454  43.396   9.835
 2877POPC   PO438244  19.037  43.347   9.513
 2877POPC   GL138245  19.037  43.190   9.136
 2877POPC   GL238246  18.796  42.938   9.121
 2877POPC   C1A38247  19.223  43.069   8.779
 2877POPC   D2A38248  19.458  43.105   8.426
 2877POPC   C3A38249  19.231  43.056   8.034
 2877POPC   C4A38250  19.290  42.764   7.695
 2877POPC   C1B38251  18.706  43.144   8.751
 2877POPC   C2B38252  18.849  43.116   8.377
 2877POPC   C3B38253  18.681  43.087   8.022
 2877POPC   C4B38254  18.865  43.058   7.669
 2878POPC   NC338255  11.614  38.793   9.520
 2878POPC   PO438256  11.379  39.362   9.507
 2878POPC   GL138257  11.278  39.207   9.134
 2878POPC   GL238258  11.113  38.885   9.189
 2878POPC   C1A38259  11.308  39.418   8.738
 2878POPC   D2A38260  11.565  39.359   8.377
 2878POPC   C3A38261  11.350  39.294   8.001
 2878POPC   C4A38262  11.433  39.354   7.557
 2878POPC   C1B38263  11.192  38.905   8.732
 2878POPC   C2B38264  10.999  39.011   8.338
 2878POPC   C3B38265  10.909  38.894   7.926
 2878POPC   C4B38266  11.271  38.887   7.689
 2879POPC   NC338267  44.111  31.735   9.532
 2879POPC   PO438268  43.511  31.395   9.439
 2879POPC   GL138269  43.818  31.580   9.145
 2879POPC   GL238270  44.148  31.385   9.163
 2879POPC   C1A38271  43.825  31.618   8.699
 2879POPC   D2A38272  43.630  31.330   8.403
 2879POPC   C3A38273  43.635  31.373   7.957
 2879POPC   C4A38274  43.636  31.044   7.671
 2879POPC   C1B38275  44.010  31.142   8.823
 2879POPC   C2B38276  44.159  31.141   8.406
 2879POPC   C3B38277  44.080  31.092   7.953
 2879POPC   C4B38278  44.179  31.468   7.686
 2880POPC   NC338279  12.463  28.985   9.501
 2880POPC   PO438280  11.802  29.238   9.679
 2880POPC   GL138281  11.965  29.222   9.233
 2880POPC   GL238282  12.250  29.043   9.057
 2880POPC   C1A38283  11.893  29.325   8.793
 2880POPC   D2A38284  11.894  29.129   8.399
 2880POPC   C3A38285  11.983  29.059   7.990
 2880POPC   C4A38286  11.935  29.262   7.639
 2880POPC   C1B38287  12.462  28.837   8.719
 2880POPC   C2B38288  12.433  29.136   8.410
 2880POPC   C3B38289  12.431  29.294   8.013
 2880POPC   C4B38290  12.383  29.014   7.653
 2881POPC   NC338291  21.063  43.083   9.531
 2881POPC   PO438292  20.503  42.802   9.556
 2881POPC   GL138293  20.480  43.020   9.196
 2881POPC   GL238294  20.785  43.064   9.080
 2881POPC   C1A38295  20.318  43.155   8.816
 2881POPC   D2A38296  20.692  43.156   8.576
 2881POPC   C3A38297  20.665  43.094   8.148
 2881POPC   C4A38298  20.299  43.220   7.915
 2881POPC   C1B38299  20.985  42.748   8.834
 2881POPC   C2B38300  21.142  42.749   8.426
 2881POPC   C3B38301  20.995  42.665   8.044
 2881POPC   C4B38302  21.078  42.991   7.789
 2882POPC   NC338303   9.138  43.186   9.566
 2882POPC   PO438304   8.454  43.295   9.451
 2882POPC   GL138305   8.787  43.081   9.180
 2882POPC   GL238306   9.176  42.943   9.118
 2882POPC   C1A38307   8.779  42.900   8.800
 2882POPC   D2A38308   8.928  43.064   8.420
 2882POPC   C3A38309   8.743  42.899   8.060
 2882POPC   C4A38310   8.510  43.229   7.889
 2882POPC   C1B38311   9.413  42.864   8.690
 2882POPC   C2B38312   9.357  42.908   8.219
 2882POPC   C3B38313   9.121  43.203   7.880
 2882POPC   C4B38314   9.210  43.193   7.405
 2883POPC   NC338315  27.925   0.649   9.634
 2883POPC   PO438316  28.277   0.053   9.558
 2883POPC   GL138317  28.333   0.256   9.194
 2883POPC   GL238318  28.272   0.554   9.235
 2883POPC   C1A38319  28.251   0.130   8.783
 2883POPC   D2A38320  28.188   0.322   8.414
 2883POPC   C3A38321  28.445   0.249   8.051
 2883POPC   C4A38322  28.195   0.261   7.692
 2883POPC   C1B38323  28.453   0.607   8.818
 2883POPC   C2B38324  28.473   0.739   8.383
 2883POPC   C3B38325  28.162   0.660   8.024
 2883POPC   C4B38326  27.896   0.946   7.837
 2884POPC   NC338327  25.669   7.904   9.957
 2884POPC   PO438328  25.096   8.057   9.602
 2884POPC   GL138329  25.071   8.087   9.183
 2884POPC   GL238330  25.398   8.184   9.173
 2884POPC   C1A38331  25.031   8.115   8.732
 2884POPC   D2A38332  25.034   7.971   8.313
 2884POPC   C3A38333  24.870   8.284   8.098
 2884POPC   C4A38334  25.095   8.534   7.859
 2884POPC   C1B38335  25.525   8.000   8.773
 2884POPC   C2B38336  25.675   8.185   8.412
 2884POPC   C3B38337  25.470   8.102   8.021
 2884POPC   C4B38338  25.211   8.041   7.702
 2885POPC   NC338339  33.224  36.691   9.518
 2885POPC   PO438340  32.595  36.648   9.363
 2885POPC   GL138341  32.921  36.814   9.112
 2885POPC   GL238342  33.157  37.103   9.053
 2885POPC   C1A38343  32.936  36.840   8.683
 2885POPC   D2A38344  32.930  37.072   8.320
 2885POPC   C3A38345  33.109  36.846   8.025
 2885POPC   C4A38346  33.146  36.745   7.643
 2885POPC   C1B38347  33.333  37.190   8.650
 2885POPC   C2B38348  33.455  37.181   8.201
 2885POPC   C3B38349  33.286  37.317   7.775
 2885POPC   C4B38350  33.193  37.392   7.303
 2886POPC   NC338351  11.099   0.440   9.459
 2886POPC   PO438352  11.512   0.937   9.466
 2886POPC   GL138353  11.493   0.730   9.035
 2886POPC   GL238354  11.394   0.365   9.030
 2886POPC   C1A38355  11.381   0.692   8.637
 2886POPC   D2A38356  11.226   0.506   8.292
 2886POPC   C3A38357  11.315   0.744   7.932
 2886POPC   C4A38358  11.332   0.630   7.499
 2886POPC   C1B38359  11.122   0.184   8.675
 2886POPC   C2B38360  10.981   0.059   8.221
 2886POPC   C3B38361  11.232   0.200   7.829
 2886POPC   C4B38362  11.519   0.168   7.437
 2887POPC   NC338363   4.180  30.402   9.668
 2887POPC   PO438364   4.016  29.898   9.240
 2887POPC   GL138365   4.319  30.007   8.976
 2887POPC   GL238366   4.514  30.304   9.076
 2887POPC   C1A38367   4.235  30.106   8.554
 2887POPC   D2A38368   3.973  30.244   8.215
 2887POPC   C3A38369   4.108  30.031   7.862
 2887POPC   C4A38370   4.201  29.752   7.527
 2887POPC   C1B38371   4.733  30.137   8.735
 2887POPC   C2B38372   4.690  29.853   8.412
 2887POPC   C3B38373   4.827  30.036   8.064
 2887POPC   C4B38374   4.591  30.095   7.731
 2888POPC   NC338375  15.073   8.072   9.499
 2888POPC   PO438376  15.708   7.988   9.546
 2888POPC   GL138377  15.452   8.003   9.158
 2888POPC   GL238378  15.268   7.683   9.189
 2888POPC   C1A38379  15.196   8.294   8.864
 2888POPC   D2A38380  15.291   8.500   8.511
 2888POPC   C3A38381  14.980   8.536   8.208
 2888POPC   C4A38382  15.085   8.609   7.794
 2888POPC   C1B38383  15.187   7.793   8.753
 2888POPC   C2B38384  15.056   8.055   8.403
 2888POPC   C3B38385  15.106   8.048   7.947
 2888POPC   C4B38386  15.048   7.794   7.552
 2889POPC   NC338387   3.136  12.154   9.489
 2889POPC   PO438388   3.787  11.952   9.680
 2889POPC   GL138389   3.598  11.928   9.274
 2889POPC   GL238390   3.361  11.652   9.321
 2889POPC   C1A38391   3.661  12.142   8.848
 2889POPC   D2A38392   3.477  12.241   8.446
 2889POPC   C3A38393   3.676  12.113   8.080
 2889POPC   C4A38394   3.678  12.415   7.754
 2889POPC   C1B38395   3.455  11.630   8.882
 2889POPC   C2B38396   3.402  11.715   8.446
 2889POPC   C3B38397   3.134  11.957   8.165
 2889POPC   C4B38398   3.274  12.083   7.759
 2890POPC   NC338399   1.870   8.704   9.499
 2890POPC   PO438400   2.270   9.224   9.470
 2890POPC   GL138401   2.088   9.032   9.121
 2890POPC   GL238402   1.722   8.968   9.099
 2890POPC   C1A38403   2.023   9.010   8.686
 2890POPC   D2A38404   2.132   8.795   8.325
 2890POPC   C3A38405   1.984   9.045   7.986
 2890POPC   C4A38406   1.824   9.092   7.584
 2890POPC   C1B38407   1.710   8.626   8.796
 2890POPC   C2B38408   1.651   8.565   8.371
 2890POPC   C3B38409   1.831   8.531   7.973
 2890POPC   C4B38410   1.668   8.639   7.604
 2891POPC   NC338411  11.984   7.948   9.626
 2891POPC   PO438412  11.457   8.301   9.762
 2891POPC   GL138413  11.894   8.403   9.398
 2891POPC   GL238414  12.203   8.156   9.223
 2891POPC   C1A38415  12.059   8.536   8.931
 2891POPC   D2A38416  12.303   8.567   8.501
 2891POPC   C3A38417  12.141   8.358   8.095
 2891POPC   C4A38418  12.211   8.479   7.664
 2891POPC   C1B38419  12.100   7.984   8.803
 2891POPC   C2B38420  12.166   7.891   8.347
 2891POPC   C3B38421  12.155   7.802   7.893
 2891POPC   C4B38422  12.018   8.044   7.536
 2892POPC   NC338423  32.944  12.817   9.652
 2892POPC   PO438424  33.458  13.213   9.527
 2892POPC   GL138425  33.107  13.170   9.212
 2892POPC   GL238426  32.963  12.842   9.129
 2892POPC   C1A38427  33.118  13.198   8.741
 2892POPC   D2A38428  33.078  12.945   8.334
 2892POPC   C3A38429  33.215  13.071   7.897
 2892POPC   C4A38430  33.027  12.867   7.530
 2892POPC   C1B38431  32.684  12.884   8.758
 2892POPC   C2B38432  32.631  12.688   8.328
 2892POPC   C3B38433  32.717  12.932   7.955
 2892POPC   C4B38434  32.528  12.986   7.580
 2893POPC   NC338435  35.558  19.105   9.554
 2893POPC   PO438436  34.916  19.087   9.406
 2893POPC   GL138437  35.224  18.896   9.157
 2893POPC   GL238438  35.340  19.218   9.095
 2893POPC   C1A38439  35.447  18.882   8.731
 2893POPC   D2A38440  35.687  18.913   8.349
 2893POPC   C3A38441  35.507  19.092   7.951
 2893POPC   C4A38442  35.371  19.009   7.517
 2893POPC   C1B38443  35.019  19.146   8.738
 2893POPC   C2B38444  34.944  18.969   8.323
 2893POPC   C3B38445  34.975  19.031   7.855
 2893POPC   C4B38446  34.830  19.092   7.410
 2894POPC   NC338447  21.234  30.454   9.527
 2894POPC   PO438448  21.557  31.009   9.337
 2894POPC   GL138449  21.502  30.689   9.091
 2894POPC   GL238450  21.677  30.395   9.236
 2894POPC   C1A38451  21.553  30.820   8.649
 2894POPC   D2A38452  21.622  31.133   8.310
 2894POPC   C3A38453  21.474  30.908   7.922
 2894POPC   C4A38454  21.074  30.701   7.794
 2894POPC   C1B38455  21.616  30.312   8.792
 2894POPC   C2B38456  21.429  30.373   8.399
 2894POPC   C3B38457  21.659  30.347   8.034
 2894POPC   C4B38458  21.522  30.449   7.670
 2895POPC   NC338459  27.626   2.406   9.731
 2895POPC   PO438460  27.311   2.905   9.410
 2895POPC   GL138461  27.574   3.054   9.075
 2895POPC   GL238462  27.411   2.780   8.845
 2895POPC   C1A38463  27.905   2.924   8.763
 2895POPC   D2A38464  27.788   2.689   8.406
 2895POPC   C3A38465  27.806   2.957   8.089
 2895POPC   C4A38466  27.684   3.148   7.713
 2895POPC   C1B38467  27.473   2.329   8.676
 2895POPC   C2B38468  27.401   2.226   8.258
 2895POPC   C3B38469  27.388   2.544   7.961
 2895POPC   C4B38470  27.780   2.540   7.796
 2896POPC   NC338471   7.430   2.335   9.850
 2896POPC   PO438472   7.331   1.698   9.594
 2896POPC   GL138473   7.386   2.013   9.252
 2896POPC   GL238474   7.200   1.791   9.059
 2896POPC   C1A38475   7.664   2.074   8.851
 2896POPC   D2A38476   7.706   2.271   8.467
 2896POPC   C3A38477   7.729   2.037   8.106
 2896POPC   C4A38478   7.657   2.261   7.777
 2896POPC   C1B38479   7.180   2.104   8.759
 2896POPC   C2B38480   7.250   2.040   8.327
 2896POPC   C3B38481   7.164   2.209   7.934
 2896POPC   C4B38482   7.237   2.122   7.496
 2897POPC   NC338483   1.731  24.586   9.330
 2897POPC   PO438484   1.100  24.727   9.402
 2897POPC   GL138485   1.296  24.496   9.066
 2897POPC   GL238486   1.572  24.690   8.869
 2897POPC   C1A38487   1.228  24.338   8.674
 2897POPC   D2A38488   0.942  24.196   8.404
 2897POPC   C3A38489   1.211  24.089   8.077
 2897POPC   C4A38490   1.371  24.396   7.809
 2897POPC   C1B38491   1.193  24.879   8.719
 2897POPC   C2B38492   1.048  24.703   8.349
 2897POPC   C3B38493   1.086  24.793   7.957
 2897POPC   C4B38494   1.473  24.889   7.766
 2898POPC   NC338495   2.496  14.959   9.382
 2898POPC   PO438496   2.959  15.468   9.475
 2898POPC   GL138497   2.623  15.428   9.169
 2898POPC   GL238498   2.761  15.105   8.983
 2898POPC   C1A38499   2.411  15.385   8.766
 2898POPC   D2A38500   2.633  15.204   8.406
 2898POPC   C3A38501   2.586  15.379   8.009
 2898POPC   C4A38502   2.563  15.168   7.620
 2898POPC   C1B38503   3.077  15.218   8.683
 2898POPC   C2B38504   3.140  15.280   8.231
 2898POPC   C3B38505   2.947  15.029   7.904
 2898POPC   C4B38506   2.864  14.758   7.474
 2899POPC   NC338507  27.409   7.876   9.552
 2899POPC   PO438508  27.935   8.292   9.681
 2899POPC   GL138509  27.444   8.242   9.217
 2899POPC   GL238510  27.307   8.540   9.053
 2899POPC   C1A38511  27.322   7.891   8.892
 2899POPC   D2A38512  27.496   7.839   8.474
 2899POPC   C3A38513  27.342   8.096   8.109
 2899POPC   C4A38514  27.507   7.935   7.734
 2899POPC   C1B38515  27.338   8.360   8.638
 2899POPC   C2B38516  27.723   8.293   8.394
 2899POPC   C3B38517  27.783   8.413   7.977
 2899POPC   C4B38518  27.682   8.371   7.606
 2900POPC   NC338519  24.391  15.593   9.541
 2900POPC   PO438520  24.285  16.289   9.535
 2900POPC   GL138521  24.333  16.002   9.224
 2900POPC   GL238522  24.648  16.114   9.142
 2900POPC   C1A38523  24.305  15.898   8.801
 2900POPC   D2A38524  24.277  16.101   8.419
 2900POPC   C3A38525  24.312  15.885   8.033
 2900POPC   C4A38526  24.096  15.931   7.653
 2900POPC   C1B38527  24.735  16.185   8.694
 2900POPC   C2B38528  24.799  15.980   8.301
 2900POPC   C3B38529  24.797  15.979   7.865
 2900POPC   C4B38530  24.808  15.939   7.418
 2901POPC   NC338531   3.149  42.104   9.478
 2901POPC   PO438532   3.836  42.424   9.569
 2901POPC   GL138533   3.523  42.399   9.242
 2901POPC   GL238534   3.766  42.213   9.061
 2901POPC   C1A38535   3.349  42.375   8.811
 2901POPC   D2A38536   3.645  42.263   8.483
 2901POPC   C3A38537   3.561  42.436   8.072
 2901POPC   C4A38538   3.550  42.222   7.686
 2901POPC   C1B38539   3.812  42.614   8.810
 2901POPC   C2B38540   4.007  42.613   8.375
 2901POPC   C3B38541   4.017  42.643   7.920
 2901POPC   C4B38542   3.794  42.656   7.564
 2902POPC   NC338543  37.383  38.550   9.484
 2902POPC   PO438544  37.998  38.335   9.662
 2902POPC   GL138545  37.864  38.382   9.183
 2902POPC   GL238546  37.580  38.514   9.032
 2902POPC   C1A38547  37.995  38.514   8.767
 2902POPC   D2A38548  37.939  38.302   8.388
 2902POPC   C3A38549  37.732  38.595   8.159
 2902POPC   C4A38550  37.710  38.698   7.734
 2902POPC   C1B38551  37.577  38.092   8.838
 2902POPC   C2B38552  37.479  37.974   8.428
 2902POPC   C3B38553  37.543  38.146   8.060
 2902POPC   C4B38554  37.430  38.220   7.669
 2903POPC   NC338555  24.190  15.136  10.033
 2903POPC   PO438556  24.571  15.160   9.513
 2903POPC   GL138557  24.541  15.218   9.123
 2903POPC   GL238558  24.590  15.557   9.056
 2903POPC   C1A38559  24.790  15.141   8.755
 2903POPC   D2A38560  24.913  15.049   8.333
 2903POPC   C3A38561  24.530  14.935   8.167
 2903POPC   C4A38562  24.255  14.992   7.822
 2903POPC   C1B38563  24.302  15.350   8.706
 2903POPC   C2B38564  24.310  15.398   8.267
 2903POPC   C3B38565  24.674  15.489   8.082
 2903POPC   C4B38566  24.617  15.540   7.685
 2904POPC   NC338567  43.577  37.128   9.797
 2904POPC   PO438568  43.980  36.660   9.589
 2904POPC   GL138569  43.828  36.866   9.258
 2904POPC   GL238570  44.163  36.798   9.095
 2904POPC   C1A38571  43.732  36.907   8.820
 2904POPC   D2A38572  43.852  37.179   8.471
 2904POPC   C3A38573  43.784  36.993   8.076
 2904POPC   C4A38574  43.736  37.127   7.684
 2904POPC   C1B38575  44.236  36.876   8.647
 2904POPC   C2B38576  44.290  36.853   8.190
 2904POPC   C3B38577  44.179  36.818   7.735
 2904POPC   C4B38578  44.161  36.723   7.281
 2905POPC   NC338579  18.970  17.116   9.585
 2905POPC   PO438580  19.255  16.543   9.656
 2905POPC   GL138581  19.243  16.584   9.220
 2905POPC   GL238582  19.247  16.941   9.199
 2905POPC   C1A38583  19.239  16.371   8.784
 2905POPC   D2A38584  19.410  16.413   8.339
 2905POPC   C3A38585  19.070  16.468   8.041
 2905POPC   C4A38586  18.835  16.661   7.706
 2905POPC   C1B38587  18.961  16.815   8.868
 2905POPC   C2B38588  19.095  16.799   8.447
 2905POPC   C3B38589  19.074  17.020   8.043
 2905POPC   C4B38590  18.743  17.158   7.759
 2906POPC   NC338591  39.605  21.613   9.261
 2906POPC   PO438592  39.248  21.134   9.675
 2906POPC   GL138593  39.239  21.197   9.241
 2906POPC   GL238594  39.539  21.090   9.135
 2906POPC   C1A38595  39.218  21.318   8.789
 2906POPC   D2A38596  39.179  21.090   8.413
 2906POPC   C3A38597  38.915  21.278   8.147
 2906POPC   C4A38598  39.090  21.478   7.791
 2906POPC   C1B38599  39.581  20.961   8.700
 2906POPC   C2B38600  39.645  21.267   8.365
 2906POPC   C3B38601  39.482  21.236   7.990
 2906POPC   C4B38602  39.493  20.898   7.779
 2907POPC   NC338603  42.650  13.730   9.866
 2907POPC   PO438604  42.135  13.447   9.493
 2907POPC   GL138605  42.253  13.548   9.120
 2907POPC   GL238606  42.492  13.789   9.149
 2907POPC   C1A38607  42.425  13.494   8.718
 2907POPC   D2A38608  42.719  13.678   8.425
 2907POPC   C3A38609  42.678  13.625   7.993
 2907POPC   C4A38610  42.287  13.491   7.843
 2907POPC   C1B38611  42.238  13.955   8.779
 2907POPC   C2B38612  42.199  13.792   8.332
 2907POPC   C3B38613  42.314  13.998   7.942
 2907POPC   C4B38614  42.447  13.858   7.510
 2908POPC   NC338615  26.320  41.168   9.415
 2908POPC   PO438616  26.096  40.610   9.485
 2908POPC   GL138617  25.967  40.696   9.086
 2908POPC   GL238618  25.832  40.999   9.241
 2908POPC   C1A38619  26.165  40.728   8.646
 2908POPC   D2A38620  26.348  40.954   8.283
 2908POPC   C3A38621  26.144  40.676   7.974
 2908POPC   C4A38622  25.736  40.446   7.955
 2908POPC   C1B38623  25.953  41.146   8.847
 2908POPC   C2B38624  25.869  41.136   8.408
 2908POPC   C3B38625  26.021  41.210   7.995
 2908POPC   C4B38626  25.980  41.027   7.607
 2909POPC   NC338627  36.574  33.639   9.420
 2909POPC   PO438628  37.223  33.924   9.474
 2909POPC   GL138629  36.938  33.896   9.142
 2909POPC   GL238630  36.994  33.558   9.140
 2909POPC   C1A38631  36.648  33.821   8.778
 2909POPC   D2A38632  36.650  34.001   8.368
 2909POPC   C3A38633  36.709  33.713   8.048
 2909POPC   C4A38634  36.888  33.809   7.679
 2909POPC   C1B38635  37.072  33.546   8.746
 2909POPC   C2B38636  37.205  33.426   8.394
 2909POPC   C3B38637  37.221  33.641   8.058
 2909POPC   C4B38638  37.289  33.501   7.700
 2910POPC   NC338639  15.355   3.733   9.471
 2910POPC   PO438640  14.722   3.521   9.470
 2910POPC   GL138641  14.980   3.632   9.149
 2910POPC   GL238642  15.165   3.321   9.144
 2910POPC   C1A38643  15.213   3.698   8.776
 2910POPC   D2A38644  15.261   3.462   8.372
 2910POPC   C3A38645  15.398   3.658   7.982
 2910POPC   C4A38646  15.553   3.630   7.573
 2910POPC   C1B38647  14.801   3.272   8.842
 2910POPC   C2B38648  14.574   3.323   8.466
 2910POPC   C3B38649  14.819   3.343   8.129
 2910POPC   C4B38650  15.061   3.318   7.787
 2911POPC   NC338651  14.291  41.611   9.533
 2911POPC   PO438652  14.592  41.095   9.750
 2911POPC   GL138653  14.678  41.344   9.289
 2911POPC   GL238654  14.367  41.562   9.057
 2911POPC   C1A38655  14.754  41.412   8.819
 2911POPC   D2A38656  14.423  41.636   8.556
 2911POPC   C3A38657  14.445  41.666   8.113
 2911POPC   C4A38658  14.625  41.423   7.794
 2911POPC   C1B38659  13.981  41.449   8.807
 2911POPC   C2B38660  13.913  41.203   8.410
 2911POPC   C3B38661  13.938  41.334   7.987
 2911POPC   C4B38662  14.105  41.653   7.713
 2912POPC   NC338663  25.352   6.357   9.551
 2912POPC   PO438664  25.062   7.067   9.467
 2912POPC   GL138665  25.054   6.842   9.099
 2912POPC   GL238666  25.370   6.683   9.161
 2912POPC   C1A38667  25.083   6.482   8.785
 2912POPC   D2A38668  25.073   6.362   8.354
 2912POPC   C3A38669  25.094   6.741   8.127
 2912POPC   C4A38670  25.062   6.751   7.726
 2912POPC   C1B38671  25.607   6.566   8.844
 2912POPC   C2B38672  25.494   6.654   8.438
 2912POPC   C3B38673  25.555   6.574   7.999
 2912POPC   C4B38674  25.570   6.758   7.604
 2913POPC   NC338675  18.170   2.781   9.667
 2913POPC   PO438676  18.644   2.503   9.491
 2913POPC   GL138677  18.444   2.799   9.171
 2913POPC   GL238678  18.614   3.129   9.099
 2913POPC   C1A38679  18.213   2.797   8.759
 2913POPC   D2A38680  18.087   3.063   8.358
 2913POPC   C3A38681  18.068   2.817   7.948
 2913POPC   C4A38682  17.963   2.593   7.550
 2913POPC   C1B38683  18.482   3.213   8.696
 2913POPC   C2B38684  18.596   3.062   8.319
 2913POPC   C3B38685  18.440   3.163   7.924
 2913POPC   C4B38686  18.329   2.941   7.519
 2914POPC   NC338687  36.108  37.279   9.419
 2914POPC   PO438688  36.448  37.903   9.518
 2914POPC   GL138689  36.184  37.750   9.203
 2914POPC   GL238690  35.842  37.840   9.247
 2914POPC   C1A38691  36.090  37.681   8.777
 2914POPC   D2A38692  36.298  37.917   8.470
 2914POPC   C3A38693  36.333  37.776   8.074
 2914POPC   C4A38694  36.258  37.562   7.705
 2914POPC   C1B38695  35.677  38.018   8.848
 2914POPC   C2B38696  35.722  37.883   8.400
 2914POPC   C3B38697  35.823  37.748   7.965
 2914POPC   C4B38698  35.813  37.706   7.506
 2915POPC   NC338699  26.460  12.512   9.377
 2915POPC   PO438700  26.797  12.008   9.702
 2915POPC   GL138701  26.799  12.023   9.226
 2915POPC   GL238702  26.890  12.354   9.096
 2915POPC   C1A38703  26.951  11.943   8.788
 2915POPC   D2A38704  27.073  12.169   8.446
 2915POPC   C3A38705  27.006  12.004   8.029
 2915POPC   C4A38706  27.044  12.217   7.642
 2915POPC   C1B38707  26.623  12.352   8.715
 2915POPC   C2B38708  26.581  12.300   8.258
 2915POPC   C3B38709  26.750  12.528   7.908
 2915POPC   C4B38710  26.685  12.518   7.435
 2916POPC   NC338711  32.765  31.042   9.519
 2916POPC   PO438712  33.227  30.546   9.646
 2916POPC   GL138713  33.200  30.523   9.210
 2916POPC   GL238714  33.167  30.875   9.096
 2916POPC   C1A38715  32.930  30.461   8.846
 2916POPC   D2A38716  32.818  30.307   8.419
 2916POPC   C3A38717  33.154  30.337   8.107
 2916POPC   C4A38718  33.276  30.778   7.943
 2916POPC   C1B38719  32.798  31.022   8.777
 2916POPC   C2B38720  32.655  31.156   8.314
 2916POPC   C3B38721  32.745  30.932   7.880
 2916POPC   C4B38722  32.734  31.042   7.399
 2917POPC   NC338723  34.905  36.518   9.373
 2917POPC   PO438724  34.488  36.043   9.654
 2917POPC   GL138725  34.543  35.991   9.224
 2917POPC   GL238726  34.890  35.992   9.240
 2917POPC   C1A38727  34.476  36.190   8.809
 2917POPC   D2A38728  34.373  36.010   8.400
 2917POPC   C3A38729  34.489  36.192   8.019
 2917POPC   C4A38730  34.296  36.265   7.624
 2917POPC   C1B38731  35.017  36.014   8.814
 2917POPC   C2B38732  34.877  36.158   8.419
 2917POPC   C3B38733  35.017  36.110   8.005
 2917POPC   C4B38734  34.852  36.269   7.632
 2918POPC   NC338735  29.014  39.032   9.599
 2918POPC   PO438736  29.221  39.649   9.463
 2918POPC   GL138737  29.024  39.379   9.164
 2918POPC   GL238738  29.280  39.132   9.112
 2918POPC   C1A38739  28.826  39.360   8.746
 2918POPC   D2A38740  28.694  39.091   8.383
 2918POPC   C3A38741  28.960  39.151   8.033
 2918POPC   C4A38742  28.930  39.531   7.778
 2918POPC   C1B38743  29.450  38.839   8.798
 2918POPC   C2B38744  29.394  38.927   8.374
 2918POPC   C3B38745  29.497  38.971   7.959
 2918POPC   C4B38746  29.356  39.267   7.712
 2919POPC   NC338747  14.011  43.739   9.803
 2919POPC   PO438748  14.603  43.720   9.591
 2919POPC   GL138749  14.700  43.997   9.239
 2919POPC   GL238750  14.403  44.171   9.161
 2919POPC   C1A38751  14.749  44.106   8.799
 2919POPC   D2A38752  14.683  43.824   8.470
 2919POPC   C3A38753  14.635  43.962   8.056
 2919POPC   C4A38754  14.682  43.691   7.731
 2919POPC   C1B38755  14.290  43.891   8.794
 2919POPC   C2B38756  14.200  43.994   8.399
 2919POPC   C3B38757  14.206  44.199   8.053
 2919POPC   C4B38758  14.178  43.890   7.748
 2920POPC   NC338759   1.701  24.866   9.791
 2920POPC   PO438760   2.124  24.404   9.473
 2920POPC   GL138761   2.151  24.565   9.069
 2920POPC   GL238762   2.049  24.211   9.004
 2920POPC   C1A38763   2.030  24.593   8.647
 2920POPC   D2A38764   2.093  24.481   8.249
 2920POPC   C3A38765   1.847  24.560   7.928
 2920POPC   C4A38766   2.036  24.701   7.609
 2920POPC   C1B38767   1.698  24.188   8.762
 2920POPC   C2B38768   1.607  24.331   8.328
 2920POPC   C3B38769   1.718  24.075   7.949
 2920POPC   C4B38770   1.743  24.077   7.465
 2921POPC   NC338771  38.305  22.125   9.449
 2921POPC   PO438772  38.786  22.560   9.606
 2921POPC   GL138773  38.731  22.294   9.187
 2921POPC   GL238774  38.732  21.926   9.210
 2921POPC   C1A38775  38.469  22.256   8.770
 2921POPC   D2A38776  38.306  22.282   8.305
 2921POPC   C3A38777  38.195  22.183   7.849
 2921POPC   C4A38778  38.141  22.560   7.612
 2921POPC   C1B38779  38.843  21.917   8.752
 2921POPC   C2B38780  38.796  22.190   8.364
 2921POPC   C3B38781  38.693  22.122   7.906
 2921POPC   C4B38782  38.904  21.930   7.546
 2922POPC   NC338783   0.208  33.111   9.601
 2922POPC   PO438784   0.769  32.715   9.609
 2922POPC   GL138785   0.576  32.870   9.194
 2922POPC   GL238786   0.324  33.170   9.123
 2922POPC   C1A38787   0.411  32.763   8.768
 2922POPC   D2A38788   0.542  32.699   8.327
 2922POPC   C3A38789   0.270  32.823   7.974
 2922POPC   C4A38790   0.278  32.999   7.539
 2922POPC   C1B38791   0.546  33.272   8.765
 2922POPC   C2B38792   0.396  33.209   8.351
 2922POPC   C3B38793   0.518  33.302   7.941
 2922POPC   C4B38794   0.393  33.485   7.571
 2923POPC   NC338795  33.520  37.345   9.389
 2923POPC   PO438796  33.527  38.003   9.455
 2923POPC   GL138797  33.905  37.892   9.113
 2923POPC   GL238798  34.154  37.588   8.972
 2923POPC   C1A38799  34.056  37.973   8.676
 2923POPC   D2A38800  34.064  37.622   8.351
 2923POPC   C3A38801  33.935  37.846   7.984
 2923POPC   C4A38802  33.552  37.828   7.717
 2923POPC   C1B38803  33.852  37.305   8.723
 2923POPC   C2B38804  33.891  36.971   8.409
 2923POPC   C3B38805  34.020  37.167   8.027
 2923POPC   C4B38806  33.807  37.378   7.679
 2924POPC   NC338807  35.225  37.170   9.561
 2924POPC   PO438808  34.605  36.906   9.417
 2924POPC   GL138809  34.717  37.098   9.065
 2924POPC   GL238810  35.017  36.959   9.136
 2924POPC   C1A38811  34.541  37.038   8.642
 2924POPC   D2A38812  34.648  36.744   8.314
 2924POPC   C3A38813  34.552  36.892   7.908
 2924POPC   C4A38814  34.281  37.075   7.594
 2924POPC   C1B38815  34.941  36.717   8.757
 2924POPC   C2B38816  35.160  36.596   8.393
 2924POPC   C3B38817  35.015  36.621   7.971
 2924POPC   C4B38818  34.995  36.880   7.630
 2925POPC   NC338819  29.309   8.473   9.644
 2925POPC   PO438820  28.673   8.473   9.531
 2925POPC   GL138821  29.013   8.553   9.191
 2925POPC   GL238822  29.237   8.244   9.178
 2925POPC   C1A38823  29.195   8.461   8.725
 2925POPC   D2A38824  29.326   8.218   8.332
 2925POPC   C3A38825  29.135   8.333   7.925
 2925POPC   C4A38826  29.348   8.393   7.514
 2925POPC   C1B38827  29.152   7.953   8.812
 2925POPC   C2B38828  28.965   7.875   8.400
 2925POPC   C3B38829  29.096   7.841   7.989
 2925POPC   C4B38830  28.921   7.927   7.592
 2926POPC   NC338831   1.841  33.283   9.516
 2926POPC   PO438832   2.408  32.916   9.489
 2926POPC   GL138833   2.045  32.923   9.207
 2926POPC   GL238834   1.949  32.557   9.213
 2926POPC   C1A38835   1.974  33.279   8.884
 2926POPC   D2A38836   1.851  33.146   8.498
 2926POPC   C3A38837   2.048  33.175   8.101
 2926POPC   C4A38838   1.846  33.268   7.718
 2926POPC   C1B38839   1.853  32.666   8.763
 2926POPC   C2B38840   1.878  32.683   8.285
 2926POPC   C3B38841   1.896  32.754   7.841
 2926POPC   C4B38842   2.173  32.846   7.494
 2927POPC   NC338843  42.538  22.352   9.581
 2927POPC   PO438844  43.157  22.360   9.621
 2927POPC   GL138845  43.011  22.038   9.288
 2927POPC   GL238846  42.831  22.286   9.158
 2927POPC   C1A38847  43.020  21.860   8.828
 2927POPC   D2A38848  43.021  21.638   8.413
 2927POPC   C3A38849  43.156  21.910   8.065
 2927POPC   C4A38850  43.088  22.004   7.648
 2927POPC   C1B38851  43.093  22.381   8.810
 2927POPC   C2B38852  43.129  22.301   8.387
 2927POPC   C3B38853  43.247  22.525   8.008
 2927POPC   C4B38854  43.206  22.551   7.564
 2928POPC   NC338855  39.042   9.080   9.592
 2928POPC   PO438856  39.388   8.554   9.527
 2928POPC   GL138857  39.185   8.741   9.159
 2928POPC   GL238858  39.097   9.113   9.083
 2928POPC   C1A38859  39.372   8.838   8.746
 2928POPC   D2A38860  39.753   8.888   8.488
 2928POPC   C3A38861  39.570   8.879   8.083
 2928POPC   C4A38862  39.200   8.882   7.880
 2928POPC   C1B38863  38.944   9.175   8.651
 2928POPC   C2B38864  39.075   9.314   8.229
 2928POPC   C3B38865  38.940   9.323   7.794
 2928POPC   C4B38866  39.151   9.172   7.423
 2929POPC   NC338867  26.211  26.330   9.772
 2929POPC   PO438868  25.909  25.728   9.477
 2929POPC   GL138869  26.135  25.814   9.106
 2929POPC   GL238870  26.183  26.187   9.032
 2929POPC   C1A38871  26.006  25.845   8.700
 2929POPC   D2A38872  26.196  26.006   8.372
 2929POPC   C3A38873  25.999  25.953   7.997
 2929POPC   C4A38874  26.431  25.972   7.895
 2929POPC   C1B38875  26.483  26.269   8.721
 2929POPC   C2B38876  26.385  26.504   8.357
 2929POPC   C3B38877  26.182  26.451   7.989
 2929POPC   C4B38878  25.903  26.349   7.685
 2930POPC   NC338879  20.998  19.942   9.920
 2930POPC   PO438880  20.482  19.768   9.489
 2930POPC   GL138881  20.562  19.649   9.049
 2930POPC   GL238882  20.592  20.047   9.036
 2930POPC   C1A38883  20.432  19.795   8.626
 2930POPC   D2A38884  20.406  20.222   8.498
 2930POPC   C3A38885  20.509  20.258   8.082
 2930POPC   C4A38886  20.280  20.264   7.737
 2930POPC   C1B38887  20.996  20.132   8.794
 2930POPC   C2B38888  20.896  20.079   8.400
 2930POPC   C3B38889  20.726  19.763   8.151
 2930POPC   C4B38890  20.560  19.801   7.748
 2931POPC   NC338891  15.015   2.198   9.297
 2931POPC   PO438892  15.056   1.597   9.444
 2931POPC   GL138893  15.224   1.797   9.077
 2931POPC   GL238894  14.880   1.815   8.976
 2931POPC   C1A38895  15.373   2.023   8.696
 2931POPC   D2A38896  15.509   2.186   8.289
 2931POPC   C3A38897  15.462   2.030   7.861
 2931POPC   C4A38898  15.688   1.983   7.460
 2931POPC   C1B38899  14.877   2.016   8.601
 2931POPC   C2B38900  15.014   2.017   8.204
 2931POPC   C3B38901  14.958   1.891   7.797
 2931POPC   C4B38902  15.181   1.973   7.422
 2932POPC   NC338903  16.760  15.538   9.345
 2932POPC   PO438904  16.605  16.184   9.279
 2932POPC   GL138905  16.574  16.019   8.902
 2932POPC   GL238906  16.865  15.881   8.966
 2932POPC   C1A38907  16.601  16.015   8.443
 2932POPC   D2A38908  16.452  15.681   8.130
 2932POPC   C3A38909  16.755  15.736   7.830
 2932POPC   C4A38910  16.992  16.108   7.735
 2932POPC   C1B38911  17.167  15.820   8.688
 2932POPC   C2B38912  17.266  15.973   8.308
 2932POPC   C3B38913  17.268  15.725   7.928
 2932POPC   C4B38914  17.186  15.426   7.608
 2933POPC   NC338915   1.615   2.458   9.732
 2933POPC   PO438916   2.175   2.335   9.280
 2933POPC   GL138917   1.841   2.570   9.147
 2933POPC   GL238918   1.868   2.904   9.301
 2933POPC   C1A38919   1.739   2.514   8.714
 2933POPC   D2A38920   1.944   2.459   8.312
 2933POPC   C3A38921   1.779   2.580   7.932
 2933POPC   C4A38922   2.090   2.806   7.736
 2933POPC   C1B38923   1.824   3.005   8.874
 2933POPC   C2B38924   1.869   2.977   8.447
 2933POPC   C3B38925   1.778   3.079   8.049
 2933POPC   C4B38926   1.648   3.092   7.634
 2934POPC   NC338927   5.214  13.690   9.608
 2934POPC   PO438928   4.750  13.281   9.448
 2934POPC   GL138929   4.906  13.665   9.211
 2934POPC   GL238930   5.256  13.875   9.153
 2934POPC   C1A38931   5.022  13.531   8.790
 2934POPC   D2A38932   4.901  13.401   8.373
 2934POPC   C3A38933   5.250  13.359   8.090
 2934POPC   C4A38934   5.428  13.361   7.687
 2934POPC   C1B38935   4.981  14.047   8.865
 2934POPC   C2B38936   4.959  13.929   8.462
 2934POPC   C3B38937   5.093  13.848   8.074
 2934POPC   C4B38938   4.939  13.625   7.752
 2935POPC   NC338939  11.311  15.592   9.352
 2935POPC   PO438940  11.249  16.148   9.749
 2935POPC   GL138941  11.423  16.187   9.287
 2935POPC   GL238942  11.559  15.908   9.034
 2935POPC   C1A38943  11.163  16.221   8.909
 2935POPC   D2A38944  11.217  16.306   8.482
 2935POPC   C3A38945  10.969  16.217   8.131
 2935POPC   C4A38946  11.240  16.222   7.768
 2935POPC   C1B38947  11.364  15.832   8.637
 2935POPC   C2B38948  11.316  15.866   8.201
 2935POPC   C3B38949  11.202  15.723   7.804
 2935POPC   C4B38950  11.573  15.557   7.667
 2936POPC   NC338951  36.527  19.311   9.415
 2936POPC   PO438952  35.969  18.991   9.386
 2936POPC   GL138953  36.292  18.973   9.084
 2936POPC   GL238954  36.211  19.281   9.010
 2936POPC   C1A38955  36.447  19.048   8.626
 2936POPC   D2A38956  36.231  18.846   8.276
 2936POPC   C3A38957  36.228  18.957   7.846
 2936POPC   C4A38958  35.872  18.961   7.564
 2936POPC   C1B38959  35.834  19.231   8.747
 2936POPC   C2B38960  35.759  19.436   8.325
 2936POPC   C3B38961  35.949  19.393   7.911
 2936POPC   C4B38962  36.321  19.427   7.623
 2937POPC   NC338963  42.103  19.381   9.423
 2937POPC   PO438964  42.359  18.721   9.466
 2937POPC   GL138965  42.415  19.056   9.197
 2937POPC   GL238966  42.052  18.980   9.084
 2937POPC   C1A38967  42.439  19.102   8.761
 2937POPC   D2A38968  42.413  18.766   8.469
 2937POPC   C3A38969  42.565  18.963   8.132
 2937POPC   C4A38970  42.488  19.338   7.903
 2937POPC   C1B38971  41.903  19.083   8.661
 2937POPC   C2B38972  42.098  19.176   8.266
 2937POPC   C3B38973  42.108  18.962   7.884
 2937POPC   C4B38974  41.809  18.798   7.551
 2938POPC   NC338975  36.321   3.110   9.575
 2938POPC   PO438976  35.848   2.661   9.532
 2938POPC   GL138977  36.230   2.745   9.216
 2938POPC   GL238978  36.387   2.434   9.072
 2938POPC   C1A38979  36.374   2.859   8.799
 2938POPC   D2A38980  36.167   2.909   8.417
 2938POPC   C3A38981  36.329   2.939   8.018
 2938POPC   C4A38982  36.115   2.997   7.618
 2938POPC   C1B38983  36.199   2.389   8.667
 2938POPC   C2B38984  36.138   2.333   8.225
 2938POPC   C3B38985  36.078   2.517   7.814
 2938POPC   C4B38986  36.142   2.504   7.340
 2939POPC   NC338987  32.597  43.020   9.491
 2939POPC   PO438988  33.251  43.262   9.699
 2939POPC   GL138989  33.040  43.211   9.307
 2939POPC   GL238990  33.332  43.087   9.188
 2939POPC   C1A38991  32.781  43.203   8.906
 2939POPC   D2A38992  32.910  43.019   8.536
 2939POPC   C3A38993  32.744  43.073   8.149
 2939POPC   C4A38994  32.875  42.953   7.754
 2939POPC   C1B38995  33.374  43.165   8.780
 2939POPC   C2B38996  33.297  43.327   8.398
 2939POPC   C3B38997  33.256  43.127   8.045
 2939POPC   C4B38998  33.413  42.980   7.663
 2940POPC   NC338999  43.573  21.209   9.501
 2940POPC   PO439000  43.934  21.732   9.588
 2940POPC   GL139001  44.035  21.480   9.211
 2940POPC   GL239002  43.946  21.122   9.170
 2940POPC   C1A39003  43.941  21.468   8.776
 2940POPC   D2A39004  43.962  21.676   8.404
 2940POPC   C3A39005  43.952  21.464   8.026
 2940POPC   C4A39006  44.013  21.687   7.704
 2940POPC   C1B39007  43.741  20.991   8.805
 2940POPC   C2B39008  43.845  21.081   8.410
 2940POPC   C3B39009  43.769  20.998   7.997
 2940POPC   C4B39010  43.701  21.221   7.603
 2941POPC   NC339011  43.080  38.666   9.471
 2941POPC   PO439012  42.872  38.077   9.483
 2941POPC   GL139013  42.855  38.325   9.136
 2941POPC   GL239014  43.233  38.344   9.095
 2941POPC   C1A39015  42.902  38.490   8.734
 2941POPC   D2A39016  43.159  38.538   8.388
 2941POPC   C3A39017  42.984  38.585   7.970
 2941POPC   C4A39018  43.356  38.768   7.771
 2941POPC   C1B39019  43.277  38.119   8.710
 2941POPC   C2B39020  43.344  38.054   8.291
 2941POPC   C3B39021  43.373  38.250   7.891
 2941POPC   C4B39022  43.024  38.239   7.566
 2942POPC   NC339023  18.018   5.247   9.700
 2942POPC   PO439024  17.712   4.778   9.395
 2942POPC   GL139025  17.339   4.778   9.074
 2942POPC   GL239026  17.455   4.987   8.840
 2942POPC   C1A39027  17.027   4.788   8.699
 2942POPC   D2A39028  17.328   4.747   8.366
 2942POPC   C3A39029  17.324   4.940   7.964
 2942POPC   C4A39030  17.561   5.259   7.727
 2942POPC   C1B39031  17.419   5.275   8.505
 2942POPC   C2B39032  17.771   5.489   8.308
 2942POPC   C3B39033  17.991   5.517   7.919
 2942POPC   C4B39034  17.841   5.661   7.547
 2943POPC   NC339035  37.872  20.232   9.390
 2943POPC   PO439036  37.484  19.829   9.742
 2943POPC   GL139037  37.535  19.843   9.244
 2943POPC   GL239038  37.860  19.793   9.161
 2943POPC   C1A39039  37.549  19.661   8.782
 2943POPC   D2A39040  37.447  19.472   8.340
 2943POPC   C3A39041  37.608  19.626   7.944
 2943POPC   C4A39042  37.639  19.839   7.539
 2943POPC   C1B39043  37.878  20.052   8.771
 2943POPC   C2B39044  37.717  20.139   8.364
 2943POPC   C3B39045  37.909  20.021   7.993
 2943POPC   C4B39046  38.140  20.049   7.663
 2944POPC   NC339047  38.201  21.134   9.530
 2944POPC   PO439048  37.498  21.270   9.626
 2944POPC   GL139049  37.604  21.230   9.190
 2944POPC   GL239050  37.948  21.371   9.150
 2944POPC   C1A39051  37.659  21.347   8.734
 2944POPC   D2A39052  37.494  21.540   8.343
 2944POPC   C3A39053  37.728  21.395   7.991
 2944POPC   C4A39054  37.705  21.202   7.586
 2944POPC   C1B39055  38.165  21.574   8.821
 2944POPC   C2B39056  38.058  21.539   8.404
 2944POPC   C3B39057  38.139  21.716   8.026
 2944POPC   C4B39058  37.934  21.752   7.645
 2945POPC   NC339059  31.744  26.158   9.459
 2945POPC   PO439060  31.014  26.085   9.391
 2945POPC   GL139061  31.362  26.199   9.112
 2945POPC   GL239062  31.529  25.910   9.070
 2945POPC   C1A39063  31.657  26.280   8.763
 2945POPC   D2A39064  31.466  26.305   8.369
 2945POPC   C3A39065  31.723  26.329   8.036
 2945POPC   C4A39066  31.726  26.063   7.666
 2945POPC   C1B39067  31.483  25.759   8.678
 2945POPC   C2B39068  31.649  25.845   8.285
 2945POPC   C3B39069  31.674  25.595   7.948
 2945POPC   C4B39070  31.528  25.560   7.563
 2946POPC   NC339071   7.825   5.096   9.592
 2946POPC   PO439072   7.272   4.748   9.690
 2946POPC   GL139073   7.338   4.796   9.208
 2946POPC   GL239074   7.229   5.113   9.158
 2946POPC   C1A39075   7.337   4.634   8.769
 2946POPC   D2A39076   7.519   4.839   8.409
 2946POPC   C3A39077   7.386   4.958   7.983
 2946POPC   C4A39078   7.579   5.084   7.560
 2946POPC   C1B39079   7.053   5.113   8.738
 2946POPC   C2B39080   6.829   5.330   8.398
 2946POPC   C3B39081   6.897   5.434   7.959
 2946POPC   C4B39082   7.237   5.397   7.725
 2947POPC   NC339083  32.336  38.054   9.491
 2947POPC   PO439084  32.196  37.370   9.560
 2947POPC   GL139085  32.343  37.499   9.186
 2947POPC   GL239086  32.657  37.307   9.113
 2947POPC   C1A39087  32.131  37.751   8.864
 2947POPC   D2A39088  31.838  37.791   8.522
 2947POPC   C3A39089  32.091  37.710   8.163
 2947POPC   C4A39090  32.110  37.876   7.793
 2947POPC   C1B39091  32.790  37.330   8.743
 2947POPC   C2B39092  32.648  37.508   8.397
 2947POPC   C3B39093  32.766  37.446   8.005
 2947POPC   C4B39094  32.488  37.524   7.709
 2948POPC   NC339095  25.227  18.868   9.565
 2948POPC   PO439096  25.014  19.435   9.329
 2948POPC   GL139097  25.254  19.122   9.119
 2948POPC   GL239098  25.581  19.315   9.215
 2948POPC   C1A39099  25.244  18.809   8.759
 2948POPC   D2A39100  25.250  18.671   8.322
 2948POPC   C3A39101  25.166  18.979   8.017
 2948POPC   C4A39102  24.845  19.040   7.720
 2948POPC   C1B39103  25.412  19.489   8.830
 2948POPC   C2B39104  25.321  19.306   8.456
 2948POPC   C3B39105  25.519  19.335   8.073
 2948POPC   C4B39106  25.219  19.429   7.748
 2949POPC   NC339107  19.253  34.771   9.298
 2949POPC   PO439108  18.830  34.415   9.636
 2949POPC   GL139109  18.847  34.479   9.172
 2949POPC   GL239110  19.179  34.376   8.982
 2949POPC   C1A39111  18.817  34.604   8.728
 2949POPC   D2A39112  19.074  34.590   8.332
 2949POPC   C3A39113  18.807  34.585   7.958
 2949POPC   C4A39114  18.797  34.769   7.520
 2949POPC   C1B39115  19.493  34.488   8.657
 2949POPC   C2B39116  19.569  34.353   8.214
 2949POPC   C3B39117  19.269  34.411   7.862
 2949POPC   C4B39118  19.226  34.463   7.411
 2950POPC   NC339119  15.078   5.518   9.529
 2950POPC   PO439120  15.424   4.934   9.472
 2950POPC   GL139121  15.378   5.214   9.153
 2950POPC   GL239122  15.010   5.179   9.143
 2950POPC   C1A39123  15.585   5.032   8.799
 2950POPC   D2A39124  15.534   4.671   8.506
 2950POPC   C3A39125  15.458   4.768   8.095
 2950POPC   C4A39126  15.154   4.735   7.765
 2950POPC   C1B39127  15.139   5.277   8.694
 2950POPC   C2B39128  15.259   5.251   8.255
 2950POPC   C3B39129  15.194   5.250   7.819
 2950POPC   C4B39130  14.883   5.554   7.688
 2951POPC   NC339131  12.741  10.700   9.474
 2951POPC   PO439132  12.734  11.307   9.622
 2951POPC   GL139133  12.856  11.358   9.222
 2951POPC   GL239134  12.575  11.407   9.065
 2951POPC   C1A39135  13.113  11.317   8.862
 2951POPC   D2A39136  13.158  11.084   8.487
 2951POPC   C3A39137  13.123  11.272   8.074
 2951POPC   C4A39138  13.105  11.151   7.657
 2951POPC   C1B39139  12.667  11.077   8.776
 2951POPC   C2B39140  12.537  11.076   8.362
 2951POPC   C3B39141  12.636  11.171   7.959
 2951POPC   C4B39142  12.718  10.843   7.705
 2952POPC   NC339143   5.518  40.777   9.412
 2952POPC   PO439144   4.843  40.705   9.739
 2952POPC   GL139145   4.898  40.831   9.268
 2952POPC   GL239146   4.853  40.518   9.082
 2952POPC   C1A39147   4.985  40.897   8.773
 2952POPC   D2A39148   4.824  40.727   8.365
 2952POPC   C3A39149   4.992  40.917   7.983
 2952POPC   C4A39150   5.414  40.939   7.849
 2952POPC   C1B39151   4.940  40.304   8.692
 2952POPC   C2B39152   5.226  40.219   8.353
 2952POPC   C3B39153   5.146  40.423   7.963
 2952POPC   C4B39154   4.910  40.545   7.610
 2953POPC   NC339155  11.184  18.870   9.520
 2953POPC   PO439156  10.620  19.335   9.589
 2953POPC   GL139157  10.964  19.286   9.260
 2953POPC   GL239158  11.242  19.077   9.083
 2953POPC   C1A39159  10.880  19.236   8.804
 2953POPC   D2A39160  11.242  19.148   8.537
 2953POPC   C3A39161  11.062  19.069   8.150
 2953POPC   C4A39162  11.051  19.097   7.727
 2953POPC   C1B39163  11.526  18.848   8.867
 2953POPC   C2B39164  11.741  18.967   8.505
 2953POPC   C3B39165  11.555  18.910   8.109
 2953POPC   C4B39166  11.551  19.092   7.724
 2954POPC   NC339167  42.086  21.610   9.843
 2954POPC   PO439168  42.394  21.106   9.486
 2954POPC   GL139169  42.391  21.436   9.160
 2954POPC   GL239170  42.307  21.199   8.967
 2954POPC   C1A39171  42.602  21.548   8.735
 2954POPC   D2A39172  42.602  21.227   8.394
 2954POPC   C3A39173  42.442  21.240   7.971
 2954POPC   C4A39174  42.277  21.585   7.715
 2954POPC   C1B39175  42.117  21.360   8.640
 2954POPC   C2B39176  42.004  21.217   8.277
 2954POPC   C3B39177  41.946  21.247   7.871
 2954POPC   C4B39178  42.082  21.213   7.428
 2955POPC   NC339179  43.322  23.729   9.648
 2955POPC   PO439180  43.934  24.063   9.593
 2955POPC   GL139181  43.986  24.103   9.170
 2955POPC   GL239182  43.853  23.729   9.162
 2955POPC   C1A39183  44.173  23.887   8.800
 2955POPC   D2A39184  43.949  23.753   8.454
 2955POPC   C3A39185  44.125  23.700   8.074
 2955POPC   C4A39186  43.921  23.842   7.712
 2955POPC   C1B39187  43.628  23.957   8.850
 2955POPC   C2B39188  43.530  24.040   8.441
 2955POPC   C3B39189  43.571  23.791   8.085
 2955POPC   C4B39190  43.417  23.959   7.727
 2956POPC   NC339191   4.378  15.752   9.790
 2956POPC   PO439192   4.274  16.419   9.732
 2956POPC   GL139193   4.363  16.113   9.343
 2956POPC   GL239194   4.231  15.754   9.295
 2956POPC   C1A39195   4.424  16.063   8.849
 2956POPC   D2A39196   4.144  15.968   8.482
 2956POPC   C3A39197   3.951  15.991   8.048
 2956POPC   C4A39198   4.162  16.029   7.636
 2956POPC   C1B39199   4.190  15.597   8.856
 2956POPC   C2B39200   4.384  15.483   8.467
 2956POPC   C3B39201   4.376  15.701   8.080
 2956POPC   C4B39202   4.374  15.578   7.666
 2957POPC   NC339203  28.898   3.932   9.686
 2957POPC   PO439204  29.058   4.532   9.467
 2957POPC   GL139205  28.958   4.247   9.120
 2957POPC   GL239206  29.214   4.425   8.919
 2957POPC   C1A39207  28.808   4.210   8.661
 2957POPC   D2A39208  29.088   4.375   8.320
 2957POPC   C3A39209  28.960   4.341   7.874
 2957POPC   C4A39210  28.966   4.174   7.413
 2957POPC   C1B39211  29.304   4.030   8.697
 2957POPC   C2B39212  29.484   3.969   8.278
 2957POPC   C3B39213  29.462   4.289   7.953
 2957POPC   C4B39214  29.462   4.257   7.508
 2958POPC   NC339215  11.015  37.411   9.387
 2958POPC   PO439216  10.547  36.958   9.570
 2958POPC   GL139217  10.682  37.024   9.160
 2958POPC   GL239218  10.898  36.728   9.200
 2958POPC   C1A39219  10.446  37.112   8.748
 2958POPC   D2A39220  10.291  37.336   8.351
 2958POPC   C3A39221  10.402  37.080   7.971
 2958POPC   C4A39222  10.409  36.783   7.594
 2958POPC   C1B39223  10.685  36.645   8.805
 2958POPC   C2B39224  10.504  36.693   8.378
 2958POPC   C3B39225  10.731  36.673   7.981
 2958POPC   C4B39226  10.902  37.053   7.799
 2959POPC   NC339227  38.881  18.982   9.507
 2959POPC   PO439228  38.340  19.327   9.617
 2959POPC   GL139229  38.471  19.099   9.223
 2959POPC   GL239230  38.753  19.331   9.144
 2959POPC   C1A39231  38.336  19.079   8.784
 2959POPC   D2A39232  38.439  18.811   8.421
 2959POPC   C3A39233  38.313  18.978   8.025
 2959POPC   C4A39234  38.278  19.125   7.640
 2959POPC   C1B39235  38.827  19.176   8.733
 2959POPC   C2B39236  38.662  19.259   8.310
 2959POPC   C3B39237  38.772  19.189   7.873
 2959POPC   C4B39238  38.758  19.153   7.416
 2960POPC   NC339239   9.757  33.286   9.606
 2960POPC   PO439240  10.009  32.687   9.419
 2960POPC   GL139241   9.852  32.914   9.105
 2960POPC   GL239242   9.967  33.302   9.145
 2960POPC   C1A39243   9.597  32.745   8.753
 2960POPC   D2A39244   9.404  32.859   8.335
 2960POPC   C3A39245   9.531  32.756   7.928
 2960POPC   C4A39246   9.490  33.135   7.675
 2960POPC   C1B39247  10.119  33.169   8.763
 2960POPC   C2B39248   9.878  33.046   8.430
 2960POPC   C3B39249   9.818  33.169   8.043
 2960POPC   C4B39250   9.972  33.347   7.638
 2961POPC   NC339251  27.147  14.076   9.350
 2961POPC   PO439252  26.599  14.400   9.371
 2961POPC   GL139253  26.797  14.585   9.044
 2961POPC   GL239254  27.159  14.600   9.150
 2961POPC   C1A39255  26.657  14.323   8.683
 2961POPC   D2A39256  26.590  14.144   8.274
 2961POPC   C3A39257  26.650  14.533   8.060
 2961POPC   C4A39258  26.795  14.719   7.698
 2961POPC   C1B39259  27.191  14.385   8.753
 2961POPC   C2B39260  27.053  14.370   8.342
 2961POPC   C3B39261  27.039  14.187   7.975
 2961POPC   C4B39262  26.911  14.241   7.590
 2962POPC   NC339263  24.297  31.611   9.554
 2962POPC   PO439264  24.900  31.363   9.626
 2962POPC   GL139265  24.752  31.588   9.255
 2962POPC   GL239266  24.461  31.378   9.131
 2962POPC   C1A39267  24.804  31.522   8.795
 2962POPC   D2A39268  24.902  31.235   8.439
 2962POPC   C3A39269  24.756  31.332   8.044
 2962POPC   C4A39270  24.408  31.166   7.862
 2962POPC   C1B39271  24.141  31.547   8.815
 2962POPC   C2B39272  24.134  31.698   8.386
 2962POPC   C3B39273  24.389  31.680   8.020
 2962POPC   C4B39274  24.794  31.789   7.802
 2963POPC   NC339275  10.130  42.346  10.030
 2963POPC   PO439276   9.690  42.381   9.551
 2963POPC   GL139277   9.866  42.233   9.191
 2963POPC   GL239278  10.194  42.027   9.261
 2963POPC   C1A39279   9.644  42.307   8.798
 2963POPC   D2A39280   9.415  42.394   8.419
 2963POPC   C3A39281   9.546  42.489   7.975
 2963POPC   C4A39282   9.939  42.584   7.802
 2963POPC   C1B39283   9.978  41.822   8.915
 2963POPC   C2B39284   9.846  41.938   8.519
 2963POPC   C3B39285   9.867  42.171   8.184
 2963POPC   C4B39286   9.932  42.008   7.802
 2964POPC   NC339287  30.894   0.753   9.452
 2964POPC   PO439288  31.442   1.079   9.359
 2964POPC   GL139289  31.335   0.647   9.188
 2964POPC   GL239290  31.155   0.788   8.933
 2964POPC   C1A39291  31.407   0.379   8.793
 2964POPC   D2A39292  31.384   0.572   8.359
 2964POPC   C3A39293  31.251   0.374   7.974
 2964POPC   C4A39294  31.614   0.197   7.795
 2964POPC   C1B39295  31.572   0.905   8.711
 2964POPC   C2B39296  31.871   0.804   8.350
 2964POPC   C3B39297  31.755   0.688   7.912
 2964POPC   C4B39298  31.601   0.638   7.473
 2965POPC   NC339299   5.754  32.243   9.589
 2965POPC   PO439300   6.036  32.743   9.246
 2965POPC   GL139301   5.915  32.370   9.114
 2965POPC   GL239302   6.132  32.121   9.224
 2965POPC   C1A39303   5.742  32.314   8.711
 2965POPC   D2A39304   5.596  32.110   8.359
 2965POPC   C3A39305   5.781  32.312   8.041
 2965POPC   C4A39306   6.103  32.576   7.899
 2965POPC   C1B39307   6.242  32.187   8.768
 2965POPC   C2B39308   6.201  32.118   8.286
 2965POPC   C3B39309   6.433  32.177   7.870
 2965POPC   C4B39310   6.437  31.927   7.445
 2966POPC   NC339311  10.687  30.566   9.642
 2966POPC   PO439312  10.121  30.790   9.512
 2966POPC   GL139313  10.379  30.512   9.195
 2966POPC   GL239314  10.781  30.498   9.149
 2966POPC   C1A39315  10.463  30.457   8.735
 2966POPC   D2A39316  10.392  30.682   8.318
 2966POPC   C3A39317  10.601  30.478   7.952
 2966POPC   C4A39318  10.479  30.510   7.523
 2966POPC   C1B39319  10.794  30.877   8.877
 2966POPC   C2B39320  10.879  30.951   8.426
 2966POPC   C3B39321  10.722  30.994   7.996
 2966POPC   C4B39322  10.895  30.791   7.632
 2967POPC   NC339323  29.413  31.616   9.782
 2967POPC   PO439324  29.849  31.368   9.538
 2967POPC   GL139325  30.077  31.402   9.093
 2967POPC   GL239326  30.186  31.088   8.929
 2967POPC   C1A39327  30.044  31.516   8.636
 2967POPC   D2A39328  30.021  31.362   8.215
 2967POPC   C3A39329  30.057  31.657   7.885
 2967POPC   C4A39330  29.870  31.694   7.466
 2967POPC   C1B39331  29.829  31.053   8.592
 2967POPC   C2B39332  29.535  31.225   8.241
 2967POPC   C3B39333  29.678  31.283   7.815
 2967POPC   C4B39334  29.745  30.935   7.544
 2968POPC   NC339335  20.110  39.379   9.340
 2968POPC   PO439336  19.490  39.099   9.386
 2968POPC   GL139337  19.750  39.127   9.064
 2968POPC   GL239338  19.681  39.491   9.055
 2968POPC   C1A39339  19.904  38.864   8.727
 2968POPC   D2A39340  19.770  38.876   8.297
 2968POPC   C3A39341  19.620  39.255   8.127
 2968POPC   C4A39342  19.635  39.211   7.671
 2968POPC   C1B39343  19.891  39.410   8.647
 2968POPC   C2B39344  19.992  39.617   8.249
 2968POPC   C3B39345  20.076  39.428   7.870
 2968POPC   C4B39346  19.993  39.508   7.430
 2969POPC   NC339347   6.309  29.461   9.819
 2969POPC   PO439348   5.929  29.856   9.456
 2969POPC   GL139349   5.679  29.979   9.141
 2969POPC   GL239350   5.411  29.753   9.054
 2969POPC   C1A39351   5.837  29.865   8.733
 2969POPC   D2A39352   6.185  29.837   8.438
 2969POPC   C3A39353   6.116  30.091   8.080
 2969POPC   C4A39354   5.992  30.024   7.658
 2969POPC   C1B39355   5.470  29.523   8.655
 2969POPC   C2B39356   5.674  29.704   8.257
 2969POPC   C3B39357   5.734  29.596   7.821
 2969POPC   C4B39358   5.481  29.579   7.424
 2970POPC   NC339359  27.709  11.272   9.504
 2970POPC   PO439360  28.306  11.626   9.556
 2970POPC   GL139361  28.167  11.275   9.241
 2970POPC   GL239362  28.452  11.265   9.076
 2970POPC   C1A39363  28.125  11.104   8.767
 2970POPC   D2A39364  28.336  11.049   8.344
 2970POPC   C3A39365  28.245  11.408   8.063
 2970POPC   C4A39366  28.174  11.415   7.623
 2970POPC   C1B39367  28.672  11.081   8.765
 2970POPC   C2B39368  28.902  11.280   8.474
 2970POPC   C3B39369  28.753  11.225   8.085
 2970POPC   C4B39370  28.679  11.430   7.739
 2971POPC   NC339371  31.088  24.576   9.656
 2971POPC   PO439372  30.396  24.330   9.529
 2971POPC   GL139373  30.641  24.510   9.221
 2971POPC   GL239374  30.949  24.367   9.202
 2971POPC   C1A39375  30.532  24.553   8.788
 2971POPC   D2A39376  30.466  24.350   8.396
 2971POPC   C3A39377  30.490  24.630   8.007
 2971POPC   C4A39378  30.227  24.897   7.752
 2971POPC   C1B39379  31.046  24.635   8.862
 2971POPC   C2B39380  30.913  24.601   8.432
 2971POPC   C3B39381  30.955  24.453   8.026
 2971POPC   C4B39382  30.958  24.809   7.754
 2972POPC   NC339383  40.691  33.214   9.560
 2972POPC   PO439384  40.690  32.618   9.597
 2972POPC   GL139385  40.517  32.764   9.194
 2972POPC   GL239386  40.608  33.123   9.077
 2972POPC   C1A39387  40.636  32.746   8.755
 2972POPC   D2A39388  40.783  32.926   8.360
 2972POPC   C3A39389  40.685  32.817   7.933
 2972POPC   C4A39390  41.023  32.848   7.614
 2972POPC   C1B39391  40.993  33.122   8.803
 2972POPC   C2B39392  41.210  33.202   8.396
 2972POPC   C3B39393  41.020  33.204   7.980
 2972POPC   C4B39394  40.669  33.410   7.799
 2973POPC   NC339395  21.183   7.721   9.621
 2973POPC   PO439396  20.584   8.040   9.714
 2973POPC   GL139397  20.471   8.124   9.250
 2973POPC   GL239398  20.428   8.480   9.125
 2973POPC   C1A39399  20.566   8.083   8.812
 2973POPC   D2A39400  20.388   8.099   8.418
 2973POPC   C3A39401  20.644   8.018   8.069
 2973POPC   C4A39402  20.463   8.192   7.707
 2973POPC   C1B39403  20.709   8.580   8.741
 2973POPC   C2B39404  20.745   8.486   8.291
 2973POPC   C3B39405  20.894   8.402   7.855
 2973POPC   C4B39406  21.215   8.453   7.552
 2974POPC   NC339407  34.875  21.954   9.490
 2974POPC   PO439408  34.404  22.373   9.580
 2974POPC   GL139409  34.482  22.110   9.191
 2974POPC   GL239410  34.700  22.349   9.117
 2974POPC   C1A39411  34.310  22.071   8.748
 2974POPC   D2A39412  34.024  22.180   8.377
 2974POPC   C3A39413  34.271  22.176   7.986
 2974POPC   C4A39414  34.554  21.928   7.748
 2974POPC   C1B39415  34.840  22.160   8.782
 2974POPC   C2B39416  34.941  22.346   8.442
 2974POPC   C3B39417  34.819  22.316   8.011
 2974POPC   C4B39418  34.856  22.661   7.749
 2975POPC   NC339419  42.856   1.051   9.494
 2975POPC   PO439420  42.272   1.353   9.828
 2975POPC   GL139421  42.284   1.222   9.338
 2975POPC   GL239422  42.557   1.400   9.158
 2975POPC   C1A39423  42.145   1.300   8.880
 2975POPC   D2A39424  42.284   1.364   8.431
 2975POPC   C3A39425  42.114   1.234   8.002
 2975POPC   C4A39426  42.200   1.476   7.611
 2975POPC   C1B39427  42.743   1.440   8.737
 2975POPC   C2B39428  42.770   1.346   8.282
 2975POPC   C3B39429  42.620   1.204   7.909
 2975POPC   C4B39430  42.907   1.008   7.633
 2976POPC   NC339431  24.987   8.504   9.539
 2976POPC   PO439432  25.393   9.010   9.654
 2976POPC   GL139433  25.389   8.892   9.251
 2976POPC   GL239434  25.638   8.655   9.183
 2976POPC   C1A39435  25.355   9.007   8.827
 2976POPC   D2A39436  25.518   8.938   8.427
 2976POPC   C3A39437  25.255   9.025   8.055
 2976POPC   C4A39438  25.147   9.255   7.641
 2976POPC   C1B39439  25.445   8.505   8.784
 2976POPC   C2B39440  25.279   8.482   8.360
 2976POPC   C3B39441  25.565   8.609   8.025
 2976POPC   C4B39442  25.436   8.813   7.630
 2977POPC   NC339443  42.625  13.282   9.362
 2977POPC   PO439444  42.410  12.676   9.527
 2977POPC   GL139445  42.437  12.707   9.108
 2977POPC   GL239446  42.279  13.031   9.069
 2977POPC   C1A39447  42.175  12.614   8.777
 2977POPC   D2A39448  42.005  12.827   8.438
 2977POPC   C3A39449  42.312  12.775   8.128
 2977POPC   C4A39450  42.285  12.524   7.800
 2977POPC   C1B39451  42.494  13.002   8.660
 2977POPC   C2B39452  42.435  13.245   8.275
 2977POPC   C3B39453  42.613  13.123   7.875
 2977POPC   C4B39454  42.253  13.021   7.638
 2978POPC   NC339455  36.136  10.819   9.694
 2978POPC   PO439456  36.462  10.350   9.358
 2978POPC   GL139457  36.272  10.618   9.076
 2978POPC   GL239458  35.987  10.738   9.186
 2978POPC   C1A39459  36.257  10.592   8.642
 2978POPC   D2A39460  36.247  10.397   8.255
 2978POPC   C3A39461  36.460  10.608   7.951
 2978POPC   C4A39462  36.413  10.280   7.686
 2978POPC   C1B39463  35.856  10.898   8.762
 2978POPC   C2B39464  36.036  10.918   8.303
 2978POPC   C3B39465  35.949  10.664   7.904
 2978POPC   C4B39466  35.798  10.915   7.561
 2979POPC   NC339467  37.644  18.052   9.454
 2979POPC   PO439468  38.146  18.495   9.531
 2979POPC   GL139469  37.919  18.391   9.180
 2979POPC   GL239470  37.536  18.452   9.161
 2979POPC   C1A39471  37.902  18.227   8.797
 2979POPC   D2A39472  37.708  18.310   8.389
 2979POPC   C3A39473  37.895  18.245   8.003
 2979POPC   C4A39474  37.726  18.266   7.599
 2979POPC   C1B39475  37.406  18.160   8.804
 2979POPC   C2B39476  37.437  17.875   8.440
 2979POPC   C3B39477  37.447  17.985   7.988
 2979POPC   C4B39478  37.267  17.856   7.589
 2980POPC   NC339479  26.289  44.940   9.604
 2980POPC   PO439480  25.797  44.475   9.345
 2980POPC   GL139481  26.051  44.641   9.070
 2980POPC   GL239482  26.083  44.976   9.130
 2980POPC   C1A39483  26.188  44.570   8.654
 2980POPC   D2A39484  26.251  44.695   8.228
 2980POPC   C3A39485  26.195  44.407   7.878
 2980POPC   C4A39486  26.079  44.362   7.439
 2980POPC   C1B39487  25.840  44.998   8.744
 2980POPC   C2B39488  25.778  44.847   8.306
 2980POPC   C3B39489  25.845  44.875   7.862
 2980POPC   C4B39490  25.777   0.206   7.568
 2981POPC   NC339491  32.428  42.117   9.821
 2981POPC   PO439492  32.829  42.611   9.581
 2981POPC   GL139493  33.069  42.340   9.309
 2981POPC   GL239494  33.142  42.612   9.129
 2981POPC   C1A39495  33.039  42.111   8.885
 2981POPC   D2A39496  32.736  42.084   8.491
 2981POPC   C3A39497  32.584  42.216   8.076
 2981POPC   C4A39498  32.740  42.203   7.638
 2981POPC   C1B39499  32.863  42.571   8.761
 2981POPC   C2B39500  32.884  42.570   8.297
 2981POPC   C3B39501  33.082  42.499   7.900
 2981POPC   C4B39502  33.055  42.571   7.458
 2982POPC   NC339503  35.001   7.735   9.500
 2982POPC   PO439504  35.309   8.451   9.551
 2982POPC   GL139505  35.428   8.323   9.145
 2982POPC   GL239506  35.281   7.989   9.134
 2982POPC   C1A39507  35.523   8.228   8.744
 2982POPC   D2A39508  35.289   8.163   8.415
 2982POPC   C3A39509  35.529   8.245   8.067
 2982POPC   C4A39510  35.404   8.276   7.655
 2982POPC   C1B39511  34.941   7.953   8.823
 2982POPC   C2B39512  34.793   8.007   8.428
 2982POPC   C3B39513  35.052   7.870   8.071
 2982POPC   C4B39514  35.113   7.839   7.618
 2983POPC   NC339515  10.224  16.874   9.500
 2983POPC   PO439516  10.795  16.605   9.283
 2983POPC   GL139517  10.536  16.819   9.083
 2983POPC   GL239518  10.787  17.088   9.023
 2983POPC   C1A39519  10.285  16.632   8.782
 2983POPC   D2A39520  10.369  16.840   8.415
 2983POPC   C3A39521  10.311  16.714   7.980
 2983POPC   C4A39522  10.192  16.395   7.682
 2983POPC   C1B39523  10.761  17.116   8.582
 2983POPC   C2B39524  10.836  16.879   8.200
 2983POPC   C3B39525  10.735  17.001   7.774
 2983POPC   C4B39526  10.630  17.057   7.324
 2984POPC   NC339527   0.709  40.683   9.423
 2984POPC   PO439528   0.341  41.259   9.465
 2984POPC   GL139529   0.402  40.980   9.148
 2984POPC   GL239530   0.334  40.579   9.095
 2984POPC   C1A39531   0.228  40.989   8.777
 2984POPC   D2A39532   0.442  40.944   8.409
 2984POPC   C3A39533   0.216  41.015   8.074
 2984POPC   C4A39534   0.332  40.971   7.670
 2984POPC   C1B39535   0.636  40.662   8.796
 2984POPC   C2B39536   0.782  40.508   8.409
 2984POPC   C3B39537   0.717  40.725   8.031
 2984POPC   C4B39538   0.652  40.592   7.624
 2985POPC   NC339539  40.995  35.440   9.968
 2985POPC   PO439540  40.510  35.433   9.491
 2985POPC   GL139541  40.669  35.213   9.113
 2985POPC   GL239542  40.444  34.982   8.970
 2985POPC   C1A39543  40.790  35.404   8.706
 2985POPC   D2A39544  40.852  35.309   8.288
 2985POPC   C3A39545  40.811  35.613   7.966
 2985POPC   C4A39546  40.853  35.540   7.518
 2985POPC   C1B39547  40.151  34.877   8.646
 2985POPC   C2B39548  40.134  34.855   8.231
 2985POPC   C3B39549  40.474  35.058   8.045
 2985POPC   C4B39550  40.693  35.004   7.669
 2986POPC   NC339551  12.429   6.363   9.437
 2986POPC   PO439552  11.725   6.490   9.453
 2986POPC   GL139553  12.097   6.672   9.203
 2986POPC   GL239554  12.204   7.034   9.133
 2986POPC   C1A39555  12.325   6.556   8.822
 2986POPC   D2A39556  12.120   6.584   8.451
 2986POPC   C3A39557  12.274   6.420   8.094
 2986POPC   C4A39558  12.024   6.350   7.744
 2986POPC   C1B39559  12.370   7.053   8.670
 2986POPC   C2B39560  12.424   6.915   8.196
 2986POPC   C3B39561  12.261   6.833   7.753
 2986POPC   C4B39562  12.075   7.119   7.375
 2987POPC   NC339563   5.643  19.752   9.628
 2987POPC   PO439564   4.994  19.727   9.425
 2987POPC   GL139565   5.079  19.912   9.067
 2987POPC   GL239566   4.817  20.147   9.029
 2987POPC   C1A39567   5.165  19.680   8.695
 2987POPC   D2A39568   5.043  19.476   8.324
 2987POPC   C3A39569   5.169  19.748   8.018
 2987POPC   C4A39570   5.088  19.767   7.599
 2987POPC   C1B39571   4.665  19.874   8.724
 2987POPC   C2B39572   4.751  19.913   8.298
 2987POPC   C3B39573   4.654  19.733   7.915
 2987POPC   C4B39574   4.627  20.011   7.598
 2988POPC   NC339575  35.244  29.741   9.605
 2988POPC   PO439576  35.906  29.765   9.473
 2988POPC   GL139577  35.529  29.936   9.203
 2988POPC   GL239578  35.291  29.661   9.115
 2988POPC   C1A39579  35.388  30.042   8.766
 2988POPC   D2A39580  35.400  30.223   8.325
 2988POPC   C3A39581  35.312  30.031   7.911
 2988POPC   C4A39582  35.517  30.021   7.487
 2988POPC   C1B39583  34.997  29.685   8.806
 2988POPC   C2B39584  35.122  29.783   8.397
 2988POPC   C3B39585  34.959  29.685   8.009
 2988POPC   C4B39586  35.135  29.644   7.591
 2989POPC   NC339587  39.102  25.669   9.571
 2989POPC   PO439588  39.224  26.237   9.787
 2989POPC   GL139589  39.090  26.180   9.325
 2989POPC   GL239590  39.294  25.899   9.147
 2989POPC   C1A39591  39.134  26.348   8.882
 2989POPC   D2A39592  39.201  26.476   8.445
 2989POPC   C3A39593  39.010  26.290   8.078
 2989POPC   C4A39594  38.986  25.864   7.952
 2989POPC   C1B39595  39.510  25.984   8.747
 2989POPC   C2B39596  39.326  25.936   8.346
 2989POPC   C3B39597  39.482  26.045   7.947
 2989POPC   C4B39598  39.643  26.005   7.544
 2990POPC   NC339599  44.295  23.830   9.443
 2990POPC   PO439600  44.903  23.825   9.664
 2990POPC   GL139601  44.770  23.762   9.227
 2990POPC   GL239602  44.517  23.545   9.053
 2990POPC   C1A39603  44.747  23.899   8.792
 2990POPC   D2A39604  44.529  23.706   8.457
 2990POPC   C3A39605  44.546  23.989   8.122
 2990POPC   C4A39606  44.424  23.935   7.727
 2990POPC   C1B39607  44.877  23.400   8.749
 2990POPC   C2B39608   0.030  23.526   8.340
 2990POPC   C3B39609  44.749  23.502   8.007
 2990POPC   C4B39610  44.404  23.251   7.868
 2991POPC   NC339611  42.609  43.422   9.336
 2991POPC   PO439612  42.788  42.642   9.337
 2991POPC   GL139613  42.526  42.925   9.076
 2991POPC   GL239614  42.240  43.173   9.072
 2991POPC   C1A39615  42.603  43.180   8.708
 2991POPC   D2A39616  42.508  42.999   8.342
 2991POPC   C3A39617  42.603  43.100   7.956
 2991POPC   C4A39618  42.458  42.807   7.692
 2991POPC   C1B39619  42.093  43.183   8.615
 2991POPC   C2B39620  42.036  43.063   8.151
 2991POPC   C3B39621  42.026  43.141   7.707
 2991POPC   C4B39622  42.037  43.331   7.265
 2992POPC   NC339623  17.066   6.038   9.583
 2992POPC   PO439624  16.469   5.618   9.595
 2992POPC   GL139625  16.663   5.593   9.192
 2992POPC   GL239626  16.750   5.928   9.189
 2992POPC   C1A39627  16.803   5.652   8.760
 2992POPC   D2A39628  16.638   5.583   8.326
 2992POPC   C3A39629  16.936   5.600   7.986
 2992POPC   C4A39630  16.825   5.886   7.640
 2992POPC   C1B39631  16.489   6.074   8.892
 2992POPC   C2B39632  16.458   6.064   8.466
 2992POPC   C3B39633  16.582   6.034   8.058
 2992POPC   C4B39634  16.319   6.039   7.706
 2993POPC   NC339635  34.124   0.168   9.320
 2993POPC   PO439636  34.641   0.619   9.529
 2993POPC   GL139637  34.415   0.634   9.176
 2993POPC   GL239638  34.574   0.347   9.084
 2993POPC   C1A39639  34.471   0.708   8.726
 2993POPC   D2A39640  34.378   0.479   8.341
 2993POPC   C3A39641  34.574   0.558   7.966
 2993POPC   C4A39642  34.334   0.405   7.646
 2993POPC   C1B39643  34.586   0.169   8.699
 2993POPC   C2B39644  34.813   0.185   8.327
 2993POPC   C3B39645  34.996   0.215   7.949
 2993POPC   C4B39646  34.815   0.355   7.544
 2994POPC   NC339647  37.455  30.787   9.530
 2994POPC   PO439648  38.063  30.516   9.705
 2994POPC   GL139649  37.926  30.852   9.281
 2994POPC   GL239650  37.621  30.956   9.096
 2994POPC   C1A39651  37.956  30.819   8.753
 2994POPC   D2A39652  37.730  30.519   8.448
 2994POPC   C3A39653  37.803  30.476   7.981
 2994POPC   C4A39654  37.772  30.574   7.505
 2994POPC   C1B39655  37.438  30.622   8.883
 2994POPC   C2B39656  37.132  30.596   8.579
 2994POPC   C3B39657  37.299  30.639   8.165
 2994POPC   C4B39658  37.356  30.646   7.767
 2995POPC   NC339659  14.114  14.620   9.565
 2995POPC   PO439660  14.270  13.991   9.552
 2995POPC   GL139661  14.306  14.300   9.212
 2995POPC   GL239662  14.484  14.625   9.211
 2995POPC   C1A39663  14.478  14.283   8.788
 2995POPC   D2A39664  14.574  14.080   8.363
 2995POPC   C3A39665  14.539  14.371   8.045
 2995POPC   C4A39666  14.246  14.320   7.711
 2995POPC   C1B39667  14.140  14.671   8.893
 2995POPC   C2B39668  14.103  14.469   8.494
 2995POPC   C3B39669  14.081  14.635   8.080
 2995POPC   C4B39670  14.109  14.850   7.701
 2996POPC   NC339671  13.272   2.457   9.506
 2996POPC   PO439672  13.736   2.993   9.430
 2996POPC   GL139673  13.582   2.712   9.152
 2996POPC   GL239674  13.679   2.385   9.210
 2996POPC   C1A39675  13.383   2.674   8.760
 2996POPC   D2A39676  13.184   2.678   8.369
 2996POPC   C3A39677  13.433   2.937   8.084
 2996POPC   C4A39678  13.442   2.931   7.634
 2996POPC   C1B39679  13.651   2.232   8.791
 2996POPC   C2B39680  13.629   2.379   8.345
 2996POPC   C3B39681  13.725   2.555   7.926
 2996POPC   C4B39682  13.851   2.606   7.480
 2997POPC   NC339683  13.961  12.088   9.482
 2997POPC   PO439684  14.508  12.391   9.595
 2997POPC   GL139685  14.418  12.114   9.206
 2997POPC   GL239686  14.237  11.757   9.209
 2997POPC   C1A39687  14.168  12.216   8.818
 2997POPC   D2A39688  14.017  12.412   8.414
 2997POPC   C3A39689  14.228  12.211   8.059
 2997POPC   C4A39690  14.485  12.120   7.679
 2997POPC   C1B39691  14.397  11.759   8.793
 2997POPC   C2B39692  14.451  11.837   8.368
 2997POPC   C3B39693  14.602  11.704   7.969
 2997POPC   C4B39694  14.216  11.647   7.702
 2998POPC   NC339695  38.536  28.643   9.979
 2998POPC   PO439696  38.628  28.108   9.580
 2998POPC   GL139697  38.384  28.213   9.209
 2998POPC   GL239698  38.450  28.541   9.054
 2998POPC   C1A39699  38.497  28.144   8.775
 2998POPC   D2A39700  38.606  28.435   8.426
 2998POPC   C3A39701  38.871  28.233   8.110
 2998POPC   C4A39702  38.809  28.031   7.680
 2998POPC   C1B39703  38.137  28.490   8.691
 2998POPC   C2B39704  38.113  28.328   8.290
 2998POPC   C3B39705  38.307  28.544   8.000
 2998POPC   C4B39706  38.210  28.645   7.578
 2999POPC   NC339707  26.547  27.869   9.458
 2999POPC   PO439708  27.210  27.732   9.292
 2999POPC   GL139709  26.862  27.659   9.061
 2999POPC   GL239710  26.608  27.888   8.964
 2999POPC   C1A39711  26.949  27.587   8.644
 2999POPC   D2A39712  27.133  27.779   8.349
 2999POPC   C3A39713  26.958  27.654   8.027
 2999POPC   C4A39714  27.069  27.571   7.639
 2999POPC   C1B39715  26.487  27.446   8.767
 2999POPC   C2B39716  26.580  27.396   8.310
 2999POPC   C3B39717  26.611  27.316   7.866
 2999POPC   C4B39718  26.576  27.554   7.491
 3000POPC   NC339719   8.255  14.760   9.510
 3000POPC   PO439720   8.093  15.440   9.475
 3000POPC   GL139721   8.175  15.193   9.106
 3000POPC   GL239722   8.525  15.220   9.143
 3000POPC   C1A39723   8.295  14.963   8.702
 3000POPC   D2A39724   8.465  14.826   8.280
 3000POPC   C3A39725   8.192  14.971   7.928
 3000POPC   C4A39726   7.830  15.145   7.719
 3000POPC   C1B39727   8.520  15.411   8.732
 3000POPC   C2B39728   8.386  15.357   8.315
 3000POPC   C3B39729   8.614  15.273   7.953
 3000POPC   C4B39730   8.614  15.001   7.610
 3001POPC   NC339731  11.648  19.720   9.534
 3001POPC   PO439732  12.210  19.310   9.396
 3001POPC   GL139733  12.146  19.628   9.078
 3001POPC   GL239734  11.840  19.825   9.071
 3001POPC   C1A39735  12.294  19.750   8.689
 3001POPC   D2A39736  12.480  19.934   8.292
 3001POPC   C3A39737  12.184  19.990   7.954
 3001POPC   C4A39738  11.905  19.702   7.822
 3001POPC   C1B39739  11.845  20.018   8.670
 3001POPC   C2B39740  11.723  20.037   8.243
 3001POPC   C3B39741  11.738  20.336   7.961
 3001POPC   C4B39742  11.682  20.127   7.627
 3002POPC   NC339743  23.416  15.574   9.576
 3002POPC   PO439744  24.043  15.213   9.596
 3002POPC   GL139745  23.870  15.179   9.180
 3002POPC   GL239746  23.548  15.353   9.136
 3002POPC   C1A39747  23.828  15.077   8.737
 3002POPC   D2A39748  24.036  14.980   8.336
 3002POPC   C3A39749  23.789  15.134   8.019
 3002POPC   C4A39750  23.432  14.969   7.843
 3002POPC   C1B39751  23.406  15.692   8.876
 3002POPC   C2B39752  23.461  15.587   8.459
 3002POPC   C3B39753  23.291  15.634   8.058
 3002POPC   C4B39754  23.497  15.466   7.714
 3003POPC   NC339755  17.626  34.438   9.593
 3003POPC   PO439756  16.987  34.535   9.731
 3003POPC   GL139757  17.238  34.544   9.278
 3003POPC   GL239758  17.611  34.698   9.168
 3003POPC   C1A39759  17.382  34.410   8.846
 3003POPC   D2A39760  17.304  34.528   8.416
 3003POPC   C3A39761  17.275  34.322   8.015
 3003POPC   C4A39762  17.273  34.638   7.704
 3003POPC   C1B39763  17.855  34.648   8.807
 3003POPC   C2B39764  17.836  34.532   8.396
 3003POPC   C3B39765  17.704  34.619   7.984
 3003POPC   C4B39766  17.929  34.839   7.681
 3004POPC   NC339767  43.820   0.813   9.611
 3004POPC   PO439768  43.922   1.481   9.424
 3004POPC   GL139769  43.782   1.329   9.021
 3004POPC   GL239770  43.677   1.005   9.140
 3004POPC   C1A39771  43.670   1.370   8.559
 3004POPC   D2A39772  43.639   1.070   8.195
 3004POPC   C3A39773  43.916   1.151   7.820
 3004POPC   C4A39774  44.290   1.416   7.788
 3004POPC   C1B39775  43.755   0.884   8.720
 3004POPC   C2B39776  44.070   0.698   8.503
 3004POPC   C3B39777  44.020   0.684   8.097
 3004POPC   C4B39778  44.109   0.702   7.692
 3005POPC   NC339779  43.754  40.773   9.564
 3005POPC   PO439780  44.464  40.485   9.499
 3005POPC   GL139781  44.126  40.677   9.218
 3005POPC   GL239782  43.822  40.518   9.141
 3005POPC   C1A39783  44.116  40.844   8.799
 3005POPC   D2A39784  44.379  40.751   8.440
 3005POPC   C3A39785  44.191  40.884   8.086
 3005POPC   C4A39786  44.041  40.782   7.704
 3005POPC   C1B39787  43.864  40.358   8.773
 3005POPC   C2B39788  43.853  40.560   8.403
 3005POPC   C3B39789  43.916  40.386   8.031
 3005POPC   C4B39790  43.734  40.377   7.650
 3006POPC   NC339791  27.066  19.256   9.542
 3006POPC   PO439792  26.733  18.671   9.551
 3006POPC   GL139793  26.863  18.821   9.197
 3006POPC   GL239794  26.546  18.885   9.042
 3006POPC   C1A39795  27.027  18.964   8.807
 3006POPC   D2A39796  26.799  19.061   8.441
 3006POPC   C3A39797  26.930  18.962   8.037
 3006POPC   C4A39798  27.007  19.184   7.678
 3006POPC   C1B39799  26.580  18.662   8.647
 3006POPC   C2B39800  26.576  18.621   8.191
 3006POPC   C3B39801  26.510  18.812   7.756
 3006POPC   C4B39802  26.500  18.674   7.305
 3007POPC   NC339803  34.522  40.623   9.553
 3007POPC   PO439804  34.101  41.118   9.409
 3007POPC   GL139805  34.250  40.801   9.122
 3007POPC   GL239806  34.599  40.812   9.093
 3007POPC   C1A39807  34.344  40.687   8.687
 3007POPC   D2A39808  34.525  40.765   8.322
 3007POPC   C3A39809  34.303  40.875   7.987
 3007POPC   C4A39810  34.223  40.637   7.644
 3007POPC   C1B39811  34.610  40.347   8.957
 3007POPC   C2B39812  34.593  40.257   8.523
 3007POPC   C3B39813  34.774  40.217   8.140
 3007POPC   C4B39814  34.757  40.600   7.887
 3008POPC   NC339815  43.717  14.345   9.690
 3008POPC   PO439816  44.175  14.811   9.545
 3008POPC   GL139817  44.029  14.565   9.188
 3008POPC   GL239818  43.675  14.550   9.212
 3008POPC   C1A39819  44.181  14.339   8.795
 3008POPC   D2A39820  44.026  14.089   8.462
 3008POPC   C3A39821  43.984  14.232   8.038
 3008POPC   C4A39822  43.989  14.512   7.698
 3008POPC   C1B39823  43.677  14.428   8.763
 3008POPC   C2B39824  43.550  14.287   8.317
 3008POPC   C3B39825  43.469  14.315   7.839
 3008POPC   C4B39826  43.361  14.044   7.432
 3009POPC   NC339827  41.759   5.617   9.633
 3009POPC   PO439828  41.318   6.142   9.428
 3009POPC   GL139829  41.624   5.895   9.209
 3009POPC   GL239830  41.483   5.573   9.179
 3009POPC   C1A39831  41.839   5.761   8.835
 3009POPC   D2A39832  41.626   5.698   8.463
 3009POPC   C3A39833  41.623   6.011   8.169
 3009POPC   C4A39834  41.721   5.896   7.746
 3009POPC   C1B39835  41.262   5.778   8.828
 3009POPC   C2B39836  41.139   5.775   8.374
 3009POPC   C3B39837  41.338   5.647   7.970
 3009POPC   C4B39838  41.313   5.666   7.490
 3010POPC   NC339839   2.382   7.186   9.358
 3010POPC   PO439840   1.736   7.189   9.371
 3010POPC   GL139841   1.915   7.409   9.049
 3010POPC   GL239842   2.197   7.272   8.883
 3010POPC   C1A39843   1.738   7.582   8.662
 3010POPC   D2A39844   1.765   7.598   8.208
 3010POPC   C3A39845   2.159   7.699   8.055
 3010POPC   C4A39846   2.239   7.793   7.642
 3010POPC   C1B39847   1.820   7.028   8.724
 3010POPC   C2B39848   1.811   6.820   8.336
 3010POPC   C3B39849   1.802   7.124   7.988
 3010POPC   C4B39850   2.195   7.269   7.751
 3011POPC   NC339851   6.267  31.514   9.451
 3011POPC   PO439852   6.919  31.221   9.423
 3011POPC   GL139853   6.742  31.562   9.118
 3011POPC   GL239854   6.417  31.747   9.011
 3011POPC   C1A39855   6.675  31.496   8.663
 3011POPC   D2A39856   6.757  31.254   8.301
 3011POPC   C3A39857   6.483  31.242   7.965
 3011POPC   C4A39858   6.785  31.245   7.684
 3011POPC   C1B39859   6.187  31.707   8.645
 3011POPC   C2B39860   6.342  31.614   8.278
 3011POPC   C3B39861   6.274  31.701   7.865
 3011POPC   C4B39862   6.348  31.422   7.493
 3012POPC   NC339863  31.178  40.965   9.531
 3012POPC   PO439864  31.643  40.451   9.522
 3012POPC   GL139865  31.415  40.591   9.193
 3012POPC   GL239866  31.546  40.942   9.141
 3012POPC   C1A39867  31.470  40.531   8.773
 3012POPC   D2A39868  31.679  40.844   8.545
 3012POPC   C3A39869  31.688  40.799   8.095
 3012POPC   C4A39870  31.896  40.948   7.721
 3012POPC   C1B39871  31.183  40.961   8.876
 3012POPC   C2B39872  31.175  41.004   8.462
 3012POPC   C3B39873  31.135  41.068   8.040
 3012POPC   C4B39874  31.295  40.792   7.737
 3013POPC   NC339875  24.288   0.630   9.877
 3013POPC   PO439876  24.409   1.180   9.615
 3013POPC   GL139877  24.396   1.024   9.182
 3013POPC   GL239878  24.293   1.359   9.052
 3013POPC   C1A39879  24.540   1.038   8.726
 3013POPC   D2A39880  24.444   1.445   8.537
 3013POPC   C3A39881  24.397   1.440   8.097
 3013POPC   C4A39882  24.633   1.146   7.821
 3013POPC   C1B39883  24.035   1.079   8.811
 3013POPC   C2B39884  24.115   0.936   8.383
 3013POPC   C3B39885  24.013   1.083   7.939
 3013POPC   C4B39886  24.063   1.043   7.445
 3014POPC   NC339887  31.132   6.190   9.342
 3014POPC   PO439888  31.319   5.565   9.712
 3014POPC   GL139889  31.400   5.722   9.278
 3014POPC   GL239890  31.661   5.554   9.058
 3014POPC   C1A39891  31.216   5.701   8.844
 3014POPC   D2A39892  31.414   5.722   8.446
 3014POPC   C3A39893  31.248   6.072   8.202
 3014POPC   C4A39894  31.314   6.132   7.756
 3014POPC   C1B39895  31.667   5.974   8.858
 3014POPC   C2B39896  31.711   6.134   8.408
 3014POPC   C3B39897  31.843   6.189   7.958
 3014POPC   C4B39898  31.778   6.262   7.506
 3015POPC   NC339899  40.264  28.920   9.412
 3015POPC   PO439900  40.968  29.157   9.447
 3015POPC   GL139901  40.753  29.259   9.130
 3015POPC   GL239902  40.591  28.975   9.033
 3015POPC   C1A39903  40.641  29.404   8.729
 3015POPC   D2A39904  40.725  29.210   8.357
 3015POPC   C3A39905  40.844  29.420   7.992
 3015POPC   C4A39906  40.701  29.448   7.553
 3015POPC   C1B39907  40.424  28.698   8.739
 3015POPC   C2B39908  40.654  28.702   8.361
 3015POPC   C3B39909  40.710  28.888   7.964
 3015POPC   C4B39910  40.319  28.785   7.839
 3016POPC   NC339911   3.847  23.487   9.558
 3016POPC   PO439912   3.231  23.738   9.529
 3016POPC   GL139913   3.556  23.782   9.195
 3016POPC   GL239914   3.533  23.438   9.156
 3016POPC   C1A39915   3.621  23.951   8.739
 3016POPC   D2A39916   3.364  23.880   8.320
 3016POPC   C3A39917   3.613  23.713   7.919
 3016POPC   C4A39918   4.029  23.913   7.769
 3016POPC   C1B39919   3.334  23.540   8.770
 3016POPC   C2B39920   3.337  23.372   8.380
 3016POPC   C3B39921   3.153  23.492   7.978
 3016POPC   C4B39922   3.291  23.489   7.533
 3017POPC   NC339923  41.051   8.646   9.522
 3017POPC   PO439924  40.548   9.184   9.349
 3017POPC   GL139925  40.641   8.859   9.088
 3017POPC   GL239926  40.976   8.880   9.092
 3017POPC   C1A39927  40.757   8.960   8.644
 3017POPC   D2A39928  40.690   8.874   8.219
 3017POPC   C3A39929  40.576   9.239   7.967
 3017POPC   C4A39930  40.377   9.191   7.576
 3017POPC   C1B39931  41.222   8.715   8.782
 3017POPC   C2B39932  41.199   8.810   8.360
 3017POPC   C3B39933  41.159   8.875   7.946
 3017POPC   C4B39934  40.803   8.872   7.698
 3018POPC   NC339935  26.504  13.166   9.670
 3018POPC   PO439936  26.880  12.675   9.495
 3018POPC   GL139937  26.977  12.910   9.178
 3018POPC   GL239938  26.684  13.099   9.184
 3018POPC   C1A39939  27.056  12.748   8.792
 3018POPC   D2A39940  26.905  12.672   8.392
 3018POPC   C3A39941  27.036  12.934   8.044
 3018POPC   C4A39942  27.047  12.840   7.598
 3018POPC   C1B39943  26.548  12.849   8.834
 3018POPC   C2B39944  26.381  12.752   8.437
 3018POPC   C3B39945  26.545  12.965   8.120
 3018POPC   C4B39946  26.539  12.944   7.685
 3019POPC   NC339947  28.853  26.160   9.509
 3019POPC   PO439948  29.452  25.762   9.489
 3019POPC   GL139949  29.236  25.965   9.148
 3019POPC   GL239950  29.363  26.314   9.119
 3019POPC   C1A39951  29.183  25.866   8.690
 3019POPC   D2A39952  29.418  25.936   8.318
 3019POPC   C3A39953  29.177  25.982   7.942
 3019POPC   C4A39954  29.334  26.167   7.566
 3019POPC   C1B39955  29.042  26.344   8.805
 3019POPC   C2B39956  29.027  26.296   8.345
 3019POPC   C3B39957  28.793  26.350   7.963
 3019POPC   C4B39958  28.757  26.406   7.516
 3020POPC   NC339959  16.935  25.257   9.491
 3020POPC   PO439960  16.546  25.796   9.588
 3020POPC   GL139961  16.597  25.450   9.176
 3020POPC   GL239962  16.635  25.096   9.113
 3020POPC   C1A39963  16.980  25.299   8.818
 3020POPC   D2A39964  16.964  25.203   8.344
 3020POPC   C3A39965  17.123  25.320   7.905
 3020POPC   C4A39966  16.929  25.412   7.480
 3020POPC   C1B39967  16.475  25.213   8.698
 3020POPC   C2B39968  16.497  25.041   8.300
 3020POPC   C3B39969  16.616  25.212   7.903
 3020POPC   C4B39970  16.718  24.952   7.587
 3021POPC   NC339971   5.519  38.768   9.287
 3021POPC   PO439972   5.155  38.296   9.580
 3021POPC   GL139973   5.035  38.355   9.160
 3021POPC   GL239974   5.027  38.681   9.134
 3021POPC   C1A39975   5.296  38.281   8.801
 3021POPC   D2A39976   5.445  38.471   8.430
 3021POPC   C3A39977   5.243  38.316   8.062
 3021POPC   C4A39978   5.427  38.308   7.653
 3021POPC   C1B39979   5.129  38.760   8.707
 3021POPC   C2B39980   5.078  38.892   8.284
 3021POPC   C3B39981   4.992  38.728   7.895
 3021POPC   C4B39982   4.928  38.399   7.569
 3022POPC   NC339983  18.488   7.448   9.427
 3022POPC   PO439984  18.109   6.983   9.630
 3022POPC   GL139985  18.167   7.147   9.157
 3022POPC   GL239986  18.438   7.373   8.951
 3022POPC   C1A39987  18.074   7.152   8.711
 3022POPC   D2A39988  18.333   7.441   8.463
 3022POPC   C3A39989  18.315   7.239   8.122
 3022POPC   C4A39990  18.366   7.292   7.715
 3022POPC   C1B39991  18.548   7.808   8.774
 3022POPC   C2B39992  18.380   7.982   8.378
 3022POPC   C3B39993  18.370   7.771   7.986
 3022POPC   C4B39994  18.753   7.863   7.817
 3023POPC   NC339995   5.518  31.265   9.637
 3023POPC   PO439996   5.847  31.792   9.488
 3023POPC   GL139997   5.910  31.645   9.102
 3023POPC   GL239998   5.750  31.888   8.960
 3023POPC   C1A39999   5.946  31.305   8.828
 3023POPC   D2A40000   5.647  31.134   8.531
 3023POPC   C3A40001   5.679  31.239   8.107
 3023POPC   C4A40002   5.924  31.370   7.760
 3023POPC   C1B40003   5.662  31.665   8.605
 3023POPC   C2B40004   5.849  31.699   8.203
 3023POPC   C3B40005   5.735  31.856   7.809
 3023POPC   C4B40006   5.536  31.973   7.419
 3024POPC   NC340007  11.663  24.285   9.579
 3024POPC   PO440008  11.181  24.639   9.629
 3024POPC   GL140009  11.163  24.458   9.215
 3024POPC   GL240010  11.501  24.447   9.103
 3024POPC   C1A40011  11.145  24.568   8.745
 3024POPC   D2A40012  11.302  24.442   8.302
 3024POPC   C3A40013  11.119  24.591   7.943
 3024POPC   C4A40014  11.039  24.431   7.537
 3024POPC   C1B40015  11.597  24.311   8.682
 3024POPC   C2B40016  11.809  24.388   8.270
 3024POPC   C3B40017  11.663  24.356   7.835
 3024POPC   C4B40018  11.579  24.401   7.364
 3025POPC   NC340019  22.667  31.516   9.545
 3025POPC   PO440020  23.124  30.993   9.720
 3025POPC   GL140021  22.987  31.199   9.280
 3025POPC   GL240022  22.602  31.160   9.192
 3025POPC   C1A40023  22.898  31.512   8.899
 3025POPC   D2A40024  23.080  31.756   8.530
 3025POPC   C3A40025  22.951  31.650   8.078
 3025POPC   C4A40026  23.095  31.289   7.832
 3025POPC   C1B40027  22.464  31.231   8.770
 3025POPC   C2B40028  22.658  31.355   8.385
 3025POPC   C3B40029  22.649  31.119   7.976
 3025POPC   C4B40030  22.717  31.186   7.517
 3026POPC   NC340031  33.842   7.992   9.537
 3026POPC   PO440032  33.721   8.604   9.554
 3026POPC   GL140033  33.903   8.416   9.192
 3026POPC   GL240034  34.216   8.240   9.281
 3026POPC   C1A40035  33.707   8.353   8.772
 3026POPC   D2A40036  33.702   8.185   8.357
 3026POPC   C3A40037  33.848   8.428   8.007
 3026POPC   C4A40038  33.499   8.436   7.745
 3026POPC   C1B40039  34.042   8.005   8.908
 3026POPC   C2B40040  34.197   8.045   8.477
 3026POPC   C3B40041  34.107   8.003   8.054
 3026POPC   C4B40042  33.736   7.910   7.896
 3027POPC   NC340043   4.278  35.813   9.528
 3027POPC   PO440044   4.181  36.515   9.448
 3027POPC   GL140045   4.412  36.221   9.198
 3027POPC   GL240046   4.121  36.036   9.087
 3027POPC   C1A40047   4.507  36.073   8.768
 3027POPC   D2A40048   4.384  35.949   8.322
 3027POPC   C3A40049   4.607  36.089   7.935
 3027POPC   C4A40050   4.466  36.354   7.557
 3027POPC   C1B40051   4.041  36.286   8.677
 3027POPC   C2B40052   3.970  36.395   8.232
 3027POPC   C3B40053   4.109  36.163   7.887
 3027POPC   C4B40054   4.156  35.812   7.638
 3028POPC   NC340055  44.630  18.877   9.562
 3028POPC   PO440056  44.920  19.452   9.433
 3028POPC   GL140057  44.912  19.103   9.161
 3028POPC   GL240058  44.535  19.166   9.164
 3028POPC   C1A40059  44.742  18.795   8.851
 3028POPC   D2A40060  44.496  18.847   8.480
 3028POPC   C3A40061  44.693  19.015   8.120
 3028POPC   C4A40062  44.538  18.907   7.744
 3028POPC   C1B40063  44.326  19.186   8.805
 3028POPC   C2B40064  44.366  19.358   8.405
 3028POPC   C3B40065  44.237  19.281   7.952
 3028POPC   C4B40066  44.295  19.321   7.513
 3029POPC   NC340067   2.141  28.860   9.474
 3029POPC   PO440068   1.692  29.272   9.276
 3029POPC   GL140069   2.052  29.199   9.100
 3029POPC   GL240070   2.325  29.336   9.310
 3029POPC   C1A40071   2.003  29.125   8.703
 3029POPC   D2A40072   2.113  29.135   8.354
 3029POPC   C3A40073   1.858  29.123   8.045
 3029POPC   C4A40074   1.866  28.995   7.642
 3029POPC   C1B40075   2.470  29.393   8.897
 3029POPC   C2B40076   2.442  29.512   8.484
 3029POPC   C3B40077   2.340  29.625   8.078
 3029POPC   C4B40078   2.069  29.472   7.748
 3030POPC   NC340079  33.008  23.177   9.525
 3030POPC   PO440080  32.774  22.534   9.436
 3030POPC   GL140081  32.928  22.776   9.103
 3030POPC   GL240082  32.849  23.101   9.054
 3030POPC   C1A40083  32.918  22.688   8.665
 3030POPC   D2A40084  33.152  22.780   8.300
 3030POPC   C3A40085  33.274  22.516   7.985
 3030POPC   C4A40086  33.275  22.577   7.506
 3030POPC   C1B40087  32.762  23.176   8.648
 3030POPC   C2B40088  32.750  23.059   8.221
 3030POPC   C3B40089  32.943  23.173   7.852
 3030POPC   C4B40090  32.784  23.309   7.452
 3031POPC   NC340091   4.077   1.454   9.385
 3031POPC   PO440092   4.752   1.357   9.678
 3031POPC   GL140093   4.523   1.258   9.242
 3031POPC   GL240094   4.543   0.943   9.223
 3031POPC   C1A40095   4.293   1.373   8.794
 3031POPC   D2A40096   4.097   1.164   8.427
 3031POPC   C3A40097   4.124   1.327   7.990
 3031POPC   C4A40098   4.398   1.378   7.628
 3031POPC   C1B40099   4.461   0.881   8.793
 3031POPC   C2B40100   4.437   0.739   8.370
 3031POPC   C3B40101   4.416   0.908   7.968
 3031POPC   C4B40102   4.045   0.860   7.705
 3032POPC   NC340103   5.660  29.463   9.384
 3032POPC   PO440104   6.109  29.052   9.699
 3032POPC   GL140105   6.055  29.143   9.271
 3032POPC   GL240106   5.726  28.976   9.251
 3032POPC   C1A40107   6.183  29.327   8.867
 3032POPC   D2A40108   5.937  29.357   8.505
 3032POPC   C3A40109   5.942  29.160   8.098
 3032POPC   C4A40110   6.048  29.198   7.655
 3032POPC   C1B40111   5.531  29.042   8.857
 3032POPC   C2B40112   5.534  29.022   8.443
 3032POPC   C3B40113   5.433  29.247   8.104
 3032POPC   C4B40114   5.552  29.130   7.701
 3033POPC   NC340115  41.149  19.187   9.441
 3033POPC   PO440116  41.684  19.345   9.226
 3033POPC   GL140117  41.373  19.160   8.967
 3033POPC   GL240118  41.489  18.794   9.026
 3033POPC   C1A40119  41.298  19.217   8.523
 3033POPC   D2A40120  41.591  19.006   8.233
 3033POPC   C3A40121  41.665  19.200   7.867
 3033POPC   C4A40122  41.436  19.407   7.604
 3033POPC   C1B40123  41.253  18.716   8.624
 3033POPC   C2B40124  41.104  18.857   8.198
 3033POPC   C3B40125  41.327  18.789   7.781
 3033POPC   C4B40126  41.419  18.519   7.383
 3034POPC   NC340127  37.998  34.808   9.516
 3034POPC   PO440128  37.303  34.580   9.523
 3034POPC   GL140129  37.632  34.643   9.214
 3034POPC   GL240130  37.397  34.851   9.056
 3034POPC   C1A40131  37.820  34.751   8.812
 3034POPC   D2A40132  37.450  34.577   8.559
 3034POPC   C3A40133  37.464  34.551   8.128
 3034POPC   C4A40134  37.785  34.419   7.823
 3034POPC   C1B40135  37.450  35.067   8.696
 3034POPC   C2B40136  37.718  34.987   8.343
 3034POPC   C3B40137  37.752  34.943   7.909
 3034POPC   C4B40138  37.424  34.759   7.670
 3035POPC   NC340139  39.092  40.469   9.324
 3035POPC   PO440140  39.080  39.817   9.572
 3035POPC   GL140141  39.198  39.981   9.189
 3035POPC   GL240142  39.525  40.174   9.192
 3035POPC   C1A40143  39.059  40.084   8.778
 3035POPC   D2A40144  39.147  40.343   8.440
 3035POPC   C3A40145  39.268  40.090   8.028
 3035POPC   C4A40146  39.017  39.737   7.842
 3035POPC   C1B40147  39.544  39.980   8.809
 3035POPC   C2B40148  39.601  40.115   8.427
 3035POPC   C3B40149  39.797  40.026   8.064
 3035POPC   C4B40150  39.724  39.994   7.643
 3036POPC   NC340151   2.112  41.257   9.825
 3036POPC   PO440152   2.014  40.610   9.591
 3036POPC   GL140153   2.104  40.682   9.148
 3036POPC   GL240154   2.376  40.894   9.013
 3036POPC   C1A40155   1.933  40.899   8.770
 3036POPC   D2A40156   1.933  40.856   8.343
 3036POPC   C3A40157   1.676  40.691   8.054
 3036POPC   C4A40158   1.865  40.495   7.746
 3036POPC   C1B40159   2.367  41.225   8.726
 3036POPC   C2B40160   2.370  41.117   8.307
 3036POPC   C3B40161   2.182  40.995   7.923
 3036POPC   C4B40162   2.153  41.297   7.635
 3037POPC   NC340163   9.805  30.470   9.411
 3037POPC   PO440164   9.475  31.160   9.440
 3037POPC   GL140165   9.557  30.869   9.111
 3037POPC   GL240166   9.902  30.867   9.073
 3037POPC   C1A40167   9.469  30.823   8.654
 3037POPC   D2A40168   9.371  31.119   8.303
 3037POPC   C3A40169   9.645  31.118   7.949
 3037POPC   C4A40170   9.602  30.863   7.630
 3037POPC   C1B40171   9.974  30.633   8.724
 3037POPC   C2B40172   9.913  30.429   8.337
 3037POPC   C3B40173  10.108  30.326   7.973
 3037POPC   C4B40174  10.060  30.676   7.736
 3038POPC   NC340175  26.636   5.556   9.491
 3038POPC   PO440176  27.083   6.031   9.488
 3038POPC   GL140177  26.832   5.867   9.147
 3038POPC   GL240178  26.896   5.493   9.072
 3038POPC   C1A40179  26.931   5.888   8.730
 3038POPC   D2A40180  27.111   5.836   8.348
 3038POPC   C3A40181  26.891   6.087   8.068
 3038POPC   C4A40182  26.736   6.063   7.643
 3038POPC   C1B40183  26.592   5.499   8.757
 3038POPC   C2B40184  26.587   5.699   8.360
 3038POPC   C3B40185  26.713   5.630   7.949
 3038POPC   C4B40186  26.634   5.591   7.486
 3039POPC   NC340187   3.622  25.839   9.633
 3039POPC   PO440188   3.198  26.215   9.294
 3039POPC   GL140189   3.627  26.068   9.172
 3039POPC   GL240190   3.480  25.780   9.149
 3039POPC   C1A40191   3.870  25.884   8.820
 3039POPC   D2A40192   3.743  25.875   8.412
 3039POPC   C3A40193   3.908  25.712   8.043
 3039POPC   C4A40194   3.751  25.617   7.659
 3039POPC   C1B40195   3.297  25.870   8.759
 3039POPC   C2B40196   3.254  25.713   8.376
 3039POPC   C3B40197   3.402  25.779   8.024
 3039POPC   C4B40198   3.268  25.843   7.656
 3040POPC   NC340199   2.219  23.218   9.487
 3040POPC   PO440200   2.120  22.571   9.411
 3040POPC   GL140201   2.207  22.872   9.108
 3040POPC   GL240202   1.863  22.963   9.127
 3040POPC   C1A40203   2.103  23.024   8.700
 3040POPC   D2A40204   1.861  22.800   8.422
 3040POPC   C3A40205   2.010  22.653   8.043
 3040POPC   C4A40206   2.114  22.944   7.749
 3040POPC   C1B40207   1.643  23.213   8.836
 3040POPC   C2B40208   1.712  23.312   8.424
 3040POPC   C3B40209   1.659  23.093   8.056
 3040POPC   C4B40210   1.631  23.301   7.702
 3041POPC   NC340211  14.266  34.544   9.506
 3041POPC   PO440212  14.523  33.982   9.553
 3041POPC   GL140213  14.652  34.269   9.214
 3041POPC   GL240214  14.300  34.244   9.088
 3041POPC   C1A40215  14.618  34.575   8.840
 3041POPC   D2A40216  14.818  34.725   8.446
 3041POPC   C3A40217  14.626  34.596   8.067
 3041POPC   C4A40218  14.448  34.799   7.715
 3041POPC   C1B40219  14.158  34.295   8.670
 3041POPC   C2B40220  14.316  34.211   8.273
 3041POPC   C3B40221  14.208  34.371   7.869
 3041POPC   C4B40222  14.057  34.547   7.475
 3042POPC   NC340223  26.948  14.797   9.562
 3042POPC   PO440224  26.511  15.182   9.242
 3042POPC   GL140225  26.929  15.194   9.192
 3042POPC   GL240226  26.895  15.547   9.127
 3042POPC   C1A40227  27.094  14.988   8.838
 3042POPC   D2A40228  26.844  14.800   8.527
 3042POPC   C3A40229  26.965  14.937   8.120
 3042POPC   C4A40230  27.134  15.105   7.727
 3042POPC   C1B40231  26.770  15.372   8.718
 3042POPC   C2B40232  26.624  15.251   8.357
 3042POPC   C3B40233  26.742  15.369   7.976
 3042POPC   C4B40234  26.839  15.629   7.657
 3043POPC   NC340235  40.409  37.602   9.504
 3043POPC   PO440236  40.985  37.716   9.752
 3043POPC   GL140237  40.970  37.671   9.297
 3043POPC   GL240238  40.652  37.815   9.118
 3043POPC   C1A40239  41.109  37.879   8.921
 3043POPC   D2A40240  41.088  37.763   8.489
 3043POPC   C3A40241  40.743  37.845   8.178
 3043POPC   C4A40242  40.900  37.880   7.756
 3043POPC   C1B40243  40.784  37.461   8.851
 3043POPC   C2B40244  40.785  37.360   8.395
 3043POPC   C3B40245  41.053  37.462   8.045
 3043POPC   C4B40246  41.124  37.318   7.659
 3044POPC   NC340247   9.135  34.655   9.699
 3044POPC   PO440248   8.876  34.054   9.734
 3044POPC   GL140249   9.167  34.269   9.356
 3044POPC   GL240250   8.872  34.425   9.182
 3044POPC   C1A40251   9.273  34.421   8.879
 3044POPC   D2A40252   9.092  34.350   8.450
 3044POPC   C3A40253   9.164  34.579   8.077
 3044POPC   C4A40254   9.268  34.345   7.718
 3044POPC   C1B40255   8.682  34.485   8.738
 3044POPC   C2B40256   8.661  34.600   8.266
 3044POPC   C3B40257   8.742  34.704   7.804
 3044POPC   C4B40258   8.546  34.665   7.382
 3045POPC   NC340259  43.975  28.982   9.581
 3045POPC   PO440260  43.804  29.662   9.346
 3045POPC   GL140261  43.959  29.308   9.111
 3045POPC   GL240262  44.108  28.979   9.092
 3045POPC   C1A40263  43.797  29.232   8.712
 3045POPC   D2A40264  43.492  29.433   8.451
 3045POPC   C3A40265  43.616  29.461   8.026
 3045POPC   C4A40266  44.003  29.325   7.838
 3045POPC   C1B40267  44.169  28.872   8.659
 3045POPC   C2B40268  44.083  29.001   8.245
 3045POPC   C3B40269  44.130  28.811   7.838
 3045POPC   C4B40270  44.289  28.798   7.423
 3046POPC   NC340271  12.481  39.290   9.564
 3046POPC   PO440272  13.016  38.987   9.357
 3046POPC   GL140273  12.877  39.308   9.171
 3046POPC   GL240274  12.591  39.170   9.092
 3046POPC   C1A40275  12.886  39.476   8.775
 3046POPC   D2A40276  12.770  39.377   8.369
 3046POPC   C3A40277  12.976  39.500   8.007
 3046POPC   C4A40278  12.846  39.363   7.633
 3046POPC   C1B40279  12.784  38.973   8.741
 3046POPC   C2B40280  12.824  38.857   8.343
 3046POPC   C3B40281  12.729  38.996   7.974
 3046POPC   C4B40282  12.805  38.856   7.569
 3047POPC   NC340283  44.197  41.662   9.683
 3047POPC   PO440284  43.710  41.232   9.692
 3047POPC   GL140285  43.858  41.425   9.260
 3047POPC   GL240286  44.036  41.760   9.203
 3047POPC   C1A40287  43.689  41.596   8.846
 3047POPC   D2A40288  43.669  41.842   8.458
 3047POPC   C3A40289  43.706  41.607   8.064
 3047POPC   C4A40290  43.869  41.242   7.859
 3047POPC   C1B40291  44.037  41.977   8.803
 3047POPC   C2B40292  44.193  41.898   8.396
 3047POPC   C3B40293  44.106  41.920   7.965
 3047POPC   C4B40294  44.397  41.728   7.699
 3048POPC   NC340295  27.329  16.204   9.412
 3048POPC   PO440296  27.821  15.780   9.635
 3048POPC   GL140297  27.743  15.879   9.185
 3048POPC   GL240298  27.400  15.929   8.998
 3048POPC   C1A40299  27.777  15.711   8.764
 3048POPC   D2A40300  27.485  15.748   8.431
 3048POPC   C3A40301  27.704  15.696   8.070
 3048POPC   C4A40302  27.874  15.722   7.675
 3048POPC   C1B40303  27.662  16.221   8.770
 3048POPC   C2B40304  27.796  16.376   8.381
 3048POPC   C3B40305  27.770  16.198   7.951
 3048POPC   C4B40306  27.431  16.287   7.663
 3049POPC   NC340307   3.575  17.429   9.697
 3049POPC   PO440308   3.130  17.001   9.448
 3049POPC   GL140309   3.396  17.380   9.242
 3049POPC   GL240310   3.740  17.365   9.145
 3049POPC   C1A40311   3.358  17.577   8.824
 3049POPC   D2A40312   3.544  17.488   8.439
 3049POPC   C3A40313   3.316  17.541   8.049
 3049POPC   C4A40314   3.312  17.292   7.651
 3049POPC   C1B40315   3.875  17.660   8.823
 3049POPC   C2B40316   4.008  17.749   8.429
 3049POPC   C3B40317   3.884  17.514   8.048
 3049POPC   C4B40318   3.694  17.679   7.689
 3050POPC   NC340319  39.398   5.122   9.519
 3050POPC   PO440320  38.837   4.803   9.717
 3050POPC   GL140321  38.897   5.138   9.302
 3050POPC   GL240322  39.240   5.287   9.095
 3050POPC   C1A40323  38.820   5.290   8.863
 3050POPC   D2A40324  39.098   5.093   8.543
 3050POPC   C3A40325  39.042   5.177   8.088
 3050POPC   C4A40326  39.188   4.971   7.719
 3050POPC   C1B40327  39.618   5.264   8.821
 3050POPC   C2B40328  39.721   4.978   8.479
 3050POPC   C3B40329  39.571   5.095   8.057
 3050POPC   C4B40330  39.721   4.967   7.647
 3051POPC   NC340331  30.507  23.134   9.523
 3051POPC   PO440332  31.124  23.310   9.161
 3051POPC   GL140333  30.796  22.989   9.109
 3051POPC   GL240334  30.418  22.907   9.087
 3051POPC   C1A40335  30.795  22.923   8.698
 3051POPC   D2A40336  30.746  23.184   8.342
 3051POPC   C3A40337  30.709  22.974   7.947
 3051POPC   C4A40338  30.746  22.732   7.549
 3051POPC   C1B40339  30.313  23.079   8.738
 3051POPC   C2B40340  30.224  23.173   8.334
 3051POPC   C3B40341  30.263  23.245   7.898
 3051POPC   C4B40342  30.390  23.084   7.495
 3052POPC   NC340343   0.153   1.419   9.515
 3052POPC   PO440344   0.771   1.094   9.567
 3052POPC   GL140345   0.454   1.100   9.243
 3052POPC   GL240346   0.404   1.438   9.091
 3052POPC   C1A40347   0.280   1.023   8.833
 3052POPC   D2A40348   0.524   1.020   8.475
 3052POPC   C3A40349   0.391   1.230   8.112
 3052POPC   C4A40350   0.355   1.028   7.746
 3052POPC   C1B40351   0.567   1.510   8.696
 3052POPC   C2B40352   0.430   1.716   8.332
 3052POPC   C3B40353   0.515   1.703   7.933
 3052POPC   C4B40354   0.240   1.515   7.613
 3053POPC   NC340355  22.712  22.566   9.750
 3053POPC   PO440356  23.103  22.051   9.633
 3053POPC   GL140357  23.029  22.144   9.223
 3053POPC   GL240358  23.294  21.974   9.120
 3053POPC   C1A40359  22.665  22.271   8.959
 3053POPC   D2A40360  22.473  22.371   8.551
 3053POPC   C3A40361  22.760  22.308   8.220
 3053POPC   C4A40362  22.658  22.335   7.798
 3053POPC   C1B40363  23.082  22.030   8.704
 3053POPC   C2B40364  23.203  21.993   8.262
 3053POPC   C3B40365  23.164  22.190   7.827
 3053POPC   C4B40366  23.196  22.015   7.412
 3054POPC   NC340367  33.830  40.065   9.555
 3054POPC   PO440368  33.272  39.728   9.484
 3054POPC   GL140369  33.552  39.940   9.137
 3054POPC   GL240370  33.854  40.210   9.077
 3054POPC   C1A40371  33.767  39.826   8.762
 3054POPC   D2A40372  33.639  39.856   8.360
 3054POPC   C3A40373  33.848  39.852   7.989
 3054POPC   C4A40374  33.634  39.799   7.589
 3054POPC   C1B40375  33.543  40.287   8.743
 3054POPC   C2B40376  33.538  40.366   8.317
 3054POPC   C3B40377  33.558  40.247   7.899
 3054POPC   C4B40378  33.948  40.213   7.641
 3055POPC   NC340379  41.119  39.092   9.504
 3055POPC   PO440380  41.742  39.028   9.616
 3055POPC   GL140381  41.701  39.225   9.182
 3055POPC   GL240382  41.368  39.222   9.028
 3055POPC   C1A40383  41.769  39.448   8.770
 3055POPC   D2A40384  41.765  39.296   8.320
 3055POPC   C3A40385  41.683  39.528   7.961
 3055POPC   C4A40386  41.666  39.450   7.514
 3055POPC   C1B40387  41.483  39.040   8.647
 3055POPC   C2B40388  41.588  38.835   8.255
 3055POPC   C3B40389  41.515  39.033   7.824
 3055POPC   C4B40390  41.267  39.159   7.419
 3056POPC   NC340391  21.056  23.802   9.519
 3056POPC   PO440392  21.716  23.529   9.507
 3056POPC   GL140393  21.486  23.780   9.190
 3056POPC   GL240394  21.181  23.590   9.070
 3056POPC   C1A40395  21.481  23.857   8.759
 3056POPC   D2A40396  21.426  23.501   8.553
 3056POPC   C3A40397  21.524  23.541   8.141
 3056POPC   C4A40398  21.455  23.289   7.785
 3056POPC   C1B40399  20.968  23.910   8.785
 3056POPC   C2B40400  21.007  24.100   8.331
 3056POPC   C3B40401  21.181  24.084   7.912
 3056POPC   C4B40402  21.146  23.827   7.518
 3057POPC   NC340403   1.954  35.072   9.615
 3057POPC   PO440404   2.153  35.705   9.575
 3057POPC   GL140405   2.004  35.430   9.195
 3057POPC   GL240406   1.718  35.191   9.197
 3057POPC   C1A40407   2.116  35.345   8.745
 3057POPC   D2A40408   1.904  35.469   8.348
 3057POPC   C3A40409   2.006  35.468   7.894
 3057POPC   C4A40410   1.967  35.516   7.439
 3057POPC   C1B40411   1.756  34.978   8.820
 3057POPC   C2B40412   1.897  34.954   8.424
 3057POPC   C3B40413   1.690  35.091   8.063
 3057POPC   C4B40414   1.766  35.084   7.652
 3058POPC   NC340415  42.262  28.865   9.552
 3058POPC   PO440416  42.984  28.794   9.371
 3058POPC   GL140417  42.556  28.840   9.153
 3058POPC   GL240418  42.639  29.179   9.113
 3058POPC   C1A40419  42.196  29.114   8.900
 3058POPC   D2A40420  42.031  29.369   8.536
 3058POPC   C3A40421  42.229  29.239   8.159
 3058POPC   C4A40422  42.135  29.137   7.763
 3058POPC   C1B40423  42.781  28.895   8.723
 3058POPC   C2B40424  42.638  28.592   8.413
 3058POPC   C3B40425  42.658  28.569   7.975
 3058POPC   C4B40426  42.618  28.961   7.738
 3059POPC   NC340427  33.701  11.775   9.722
 3059POPC   PO440428  33.968  12.358   9.442
 3059POPC   GL140429  33.680  12.146   9.174
 3059POPC   GL240430  33.631  11.794   9.176
 3059POPC   C1A40431  33.481  12.217   8.779
 3059POPC   D2A40432  33.637  12.444   8.421
 3059POPC   C3A40433  33.492  12.288   8.071
 3059POPC   C4A40434  33.531  12.016   7.792
 3059POPC   C1B40435  33.597  11.702   8.739
 3059POPC   C2B40436  33.801  11.710   8.345
 3059POPC   C3B40437  33.965  12.003   8.079
 3059POPC   C4B40438  33.995  11.938   7.661
 3060POPC   NC340439  23.338  43.394   9.476
 3060POPC   PO440440  23.262  44.156   9.563
 3060POPC   GL140441  23.461  43.971   9.182
 3060POPC   GL240442  23.838  43.937   9.159
 3060POPC   C1A40443  23.404  43.783   8.768
 3060POPC   D2A40444  23.630  43.611   8.422
 3060POPC   C3A40445  23.493  43.673   7.997
 3060POPC   C4A40446  23.521  43.844   7.589
 3060POPC   C1B40447  23.922  43.908   8.714
 3060POPC   C2B40448  23.837  44.125   8.292
 3060POPC   C3B40449  23.925  44.026   7.850
 3060POPC   C4B40450  23.976  43.949   7.385
 3061POPC   NC340451   8.388  13.986   9.615
 3061POPC   PO440452   7.897  14.460   9.437
 3061POPC   GL140453   8.266  14.338   9.223
 3061POPC   GL240454   8.381  14.031   9.087
 3061POPC   C1A40455   8.351  14.470   8.826
 3061POPC   D2A40456   8.080  14.322   8.513
 3061POPC   C3A40457   8.121  14.443   8.089
 3061POPC   C4A40458   8.417  14.546   7.765
 3061POPC   C1B40459   7.976  13.934   8.866
 3061POPC   C2B40460   7.748  13.955   8.438
 3061POPC   C3B40461   7.880  13.946   8.016
 3061POPC   C4B40462   8.258  14.037   7.790
 3062POPC   NC340463  22.790  14.037   9.424
 3062POPC   PO440464  23.160  13.511   9.495
 3062POPC   GL140465  23.044  13.395   9.126
 3062POPC   GL240466  22.735  13.563   9.160
 3062POPC   C1A40467  23.255  13.439   8.727
 3062POPC   D2A40468  23.240  13.698   8.364
 3062POPC   C3A40469  23.232  13.473   8.001
 3062POPC   C4A40470  22.837  13.311   7.851
 3062POPC   C1B40471  22.891  13.788   8.827
 3062POPC   C2B40472  22.741  13.717   8.459
 3062POPC   C3B40473  22.825  13.792   8.047
 3062POPC   C4B40474  23.044  14.008   7.764
 3063POPC   NC340475  11.449  28.924   9.658
 3063POPC   PO440476  10.891  28.546   9.595
 3063POPC   GL140477  11.132  28.849   9.267
 3063POPC   GL240478  11.525  28.837   9.158
 3063POPC   C1A40479  11.181  29.125   8.894
 3063POPC   D2A40480  11.371  29.142   8.477
 3063POPC   C3A40481  11.124  29.144   8.106
 3063POPC   C4A40482  11.055  29.470   7.774
 3063POPC   C1B40483  11.669  28.770   8.711
 3063POPC   C2B40484  11.604  28.743   8.236
 3063POPC   C3B40485  11.524  28.916   7.835
 3063POPC   C4B40486  11.473  28.826   7.344
 3064POPC   NC340487  41.376  31.114   9.491
 3064POPC   PO440488  41.952  31.519   9.499
 3064POPC   GL140489  41.724  31.385   9.183
 3064POPC   GL240490  41.412  31.555   9.198
 3064POPC   C1A40491  41.538  31.263   8.805
 3064POPC   D2A40492  41.628  31.157   8.412
 3064POPC   C3A40493  41.742  31.495   8.153
 3064POPC   C4A40494  41.829  31.479   7.730
 3064POPC   C1B40495  41.362  31.763   8.818
 3064POPC   C2B40496  41.286  31.554   8.435
 3064POPC   C3B40497  41.276  31.349   8.052
 3064POPC   C4B40498  41.335  31.625   7.706
 3065POPC   NC340499  11.731  37.804   9.605
 3065POPC   PO440500  11.139  37.490   9.834
 3065POPC   GL140501  11.269  37.840   9.394
 3065POPC   GL240502  11.499  37.788   9.171
 3065POPC   C1A40503  11.001  37.893   8.933
 3065POPC   D2A40504  11.035  38.031   8.479
 3065POPC   C3A40505  11.098  37.817   8.050
 3065POPC   C4A40506  11.314  37.860   7.666
 3065POPC   C1B40507  11.452  37.792   8.766
 3065POPC   C2B40508  11.418  37.632   8.390
 3065POPC   C3B40509  11.613  37.828   8.060
 3065POPC   C4B40510  11.825  37.731   7.685
 3066POPC   NC340511  42.578  26.045   9.509
 3066POPC   PO440512  41.894  25.871   9.411
 3066POPC   GL140513  42.244  25.941   9.096
 3066POPC   GL240514  42.403  26.278   9.050
 3066POPC   C1A40515  42.293  25.992   8.631
 3066POPC   D2A40516  42.425  25.869   8.222
 3066POPC   C3A40517  42.101  25.846   7.917
 3066POPC   C4A40518  42.173  25.898   7.450
 3066POPC   C1B40519  42.306  26.527   8.661
 3066POPC   C2B40520  42.300  26.377   8.201
 3066POPC   C3B40521  42.438  26.208   7.781
 3066POPC   C4B40522  42.452  26.297   7.317
 3067POPC   NC340523   4.954  17.340   9.523
 3067POPC   PO440524   5.505  17.820   9.657
 3067POPC   GL140525   5.293  17.662   9.231
 3067POPC   GL240526   5.256  17.298   9.118
 3067POPC   C1A40527   5.258  17.636   8.758
 3067POPC   D2A40528   5.012  17.573   8.405
 3067POPC   C3A40529   4.918  17.844   8.070
 3067POPC   C4A40530   4.986  17.575   7.726
 3067POPC   C1B40531   4.888  17.250   8.833
 3067POPC   C2B40532   4.942  17.057   8.439
 3067POPC   C3B40533   5.098  17.199   8.041
 3067POPC   C4B40534   4.917  16.942   7.777
 3068POPC   NC340535  13.142   7.063   9.389
 3068POPC   PO440536  12.522   6.816   9.476
 3068POPC   GL140537  12.713   6.769   9.087
 3068POPC   GL240538  12.977   6.565   9.219
 3068POPC   C1A40539  13.074   6.781   8.771
 3068POPC   D2A40540  13.236   6.664   8.376
 3068POPC   C3A40541  12.923   6.843   8.165
 3068POPC   C4A40542  12.800   6.880   7.750
 3068POPC   C1B40543  12.842   6.324   8.848
 3068POPC   C2B40544  12.695   6.442   8.432
 3068POPC   C3B40545  12.792   6.385   7.986
 3068POPC   C4B40546  12.586   6.453   7.567
 3069POPC   NC340547  14.636  29.652   9.306
 3069POPC   PO440548  14.587  28.982   9.508
 3069POPC   GL140549  14.461  29.163   9.171
 3069POPC   GL240550  14.400  28.851   9.048
 3069POPC   C1A40551  14.414  29.331   8.762
 3069POPC   D2A40552  14.304  29.444   8.347
 3069POPC   C3A40553  14.341  29.251   7.982
 3069POPC   C4A40554  13.963  29.301   7.822
 3069POPC   C1B40555  14.167  28.899   8.719
 3069POPC   C2B40556  14.421  28.899   8.353
 3069POPC   C3B40557  14.366  28.742   7.938
 3069POPC   C4B40558  14.086  28.890   7.543
 3070POPC   NC340559  13.332  37.623   9.505
 3070POPC   PO440560  13.989  37.814   9.566
 3070POPC   GL140561  13.735  37.885   9.208
 3070POPC   GL240562  13.732  37.527   9.108
 3070POPC   C1A40563  13.632  37.913   8.767
 3070POPC   D2A40564  13.507  37.679   8.395
 3070POPC   C3A40565  13.393  37.897   7.999
 3070POPC   C4A40566  13.627  37.933   7.608
 3070POPC   C1B40567  14.021  37.598   8.729
 3070POPC   C2B40568  14.020  37.636   8.275
 3070POPC   C3B40569  13.754  37.526   7.936
 3070POPC   C4B40570  13.503  37.334   7.633
 3071POPC   NC340571  22.279   6.409   9.731
 3071POPC   PO440572  21.926   6.943   9.585
 3071POPC   GL140573  21.897   6.635   9.266
 3071POPC   GL240574  22.256   6.551   9.222
 3071POPC   C1A40575  21.963   6.606   8.810
 3071POPC   D2A40576  21.861   6.762   8.388
 3071POPC   C3A40577  21.987   6.580   7.986
 3071POPC   C4A40578  21.976   6.824   7.609
 3071POPC   C1B40579  22.476   6.396   8.854
 3071POPC   C2B40580  22.684   6.341   8.436
 3071POPC   C3B40581  22.689   6.467   8.006
 3071POPC   C4B40582  22.514   6.816   7.742
 3072POPC   NC340583  13.195  14.340   9.259
 3072POPC   PO440584  13.669  14.729   9.567
 3072POPC   GL140585  13.760  14.452   9.193
 3072POPC   GL240586  13.809  14.127   9.321
 3072POPC   C1A40587  13.645  14.356   8.731
 3072POPC   D2A40588  13.633  14.472   8.278
 3072POPC   C3A40589  13.600  14.245   7.892
 3072POPC   C4A40590  13.778  14.300   7.460
 3072POPC   C1B40591  14.003  14.049   8.914
 3072POPC   C2B40592  13.989  13.919   8.511
 3072POPC   C3B40593  14.058  14.101   8.136
 3072POPC   C4B40594  13.963  13.914   7.772
 3073POPC   NC340595  38.104  13.349   9.521
 3073POPC   PO440596  38.099  13.965   9.265
 3073POPC   GL140597  38.310  13.671   9.056
 3073POPC   GL240598  38.515  13.460   9.219
 3073POPC   C1A40599  38.433  13.802   8.686
 3073POPC   D2A40600  38.259  13.711   8.314
 3073POPC   C3A40601  38.464  13.901   7.987
 3073POPC   C4A40602  38.265  13.697   7.680
 3073POPC   C1B40603  38.700  13.370   8.836
 3073POPC   C2B40604  38.715  13.509   8.397
 3073POPC   C3B40605  38.573  13.415   7.994
 3073POPC   C4B40606  38.705  13.472   7.575
 3074POPC   NC340607  37.857  11.847   9.805
 3074POPC   PO440608  37.387  12.086   9.415
 3074POPC   GL140609  37.475  12.058   9.009
 3074POPC   GL240610  37.845  12.004   9.072
 3074POPC   C1A40611  37.695  12.164   8.636
 3074POPC   D2A40612  37.485  12.048   8.310
 3074POPC   C3A40613  37.673  12.188   7.988
 3074POPC   C4A40614  37.558  12.244   7.604
 3074POPC   C1B40615  38.101  11.827   8.736
 3074POPC   C2B40616  37.975  11.873   8.320
 3074POPC   C3B40617  38.075  11.812   7.931
 3074POPC   C4B40618  38.035  12.050   7.572
 3075POPC   NC340619  15.706  33.882   9.668
 3075POPC   PO440620  16.065  33.371   9.378
 3075POPC   GL140621  15.778  33.627   9.121
 3075POPC   GL240622  15.748  34.024   9.164
 3075POPC   C1A40623  15.842  33.747   8.716
 3075POPC   D2A40624  15.942  33.680   8.319
 3075POPC   C3A40625  16.133  33.948   8.074
 3075POPC   C4A40626  16.095  33.879   7.644
 3075POPC   C1B40627  15.541  34.154   8.760
 3075POPC   C2B40628  15.688  34.152   8.312
 3075POPC   C3B40629  15.666  34.024   7.865
 3075POPC   C4B40630  15.813  34.280   7.485
 3076POPC   NC340631  10.557  32.169   9.757
 3076POPC   PO440632  10.830  32.406   9.241
 3076POPC   GL140633  10.488  32.271   9.084
 3076POPC   GL240634  10.399  31.962   9.247
 3076POPC   C1A40635  10.478  32.326   8.648
 3076POPC   D2A40636  10.266  32.310   8.273
 3076POPC   C3A40637  10.510  32.408   7.921
 3076POPC   C4A40638  10.738  32.425   7.534
 3076POPC   C1B40639  10.202  31.918   8.810
 3076POPC   C2B40640  10.117  31.830   8.338
 3076POPC   C3B40641  10.314  31.945   7.899
 3076POPC   C4B40642  10.397  32.014   7.409
 3077POPC   NC340643  27.482  19.807   9.574
 3077POPC   PO440644  28.140  19.814   9.543
 3077POPC   GL140645  27.812  19.676   9.219
 3077POPC   GL240646  27.653  19.984   9.123
 3077POPC   C1A40647  27.821  19.664   8.760
 3077POPC   D2A40648  27.735  19.472   8.346
 3077POPC   C3A40649  27.870  19.723   8.002
 3077POPC   C4A40650  27.641  19.943   7.723
 3077POPC   C1B40651  27.320  19.840   8.842
 3077POPC   C2B40652  27.095  19.729   8.477
 3077POPC   C3B40653  27.329  19.721   8.105
 3077POPC   C4B40654  27.211  19.673   7.721
 3078POPC   NC340655   7.016  21.503   9.367
 3078POPC   PO440656   7.623  21.127   9.510
 3078POPC   GL140657   7.453  21.347   9.157
 3078POPC   GL240658   7.246  21.071   9.132
 3078POPC   C1A40659   7.244  21.494   8.756
 3078POPC   D2A40660   7.141  21.411   8.332
 3078POPC   C3A40661   7.281  21.692   8.004
 3078POPC   C4A40662   7.238  21.448   7.677
 3078POPC   C1B40663   7.484  20.988   8.771
 3078POPC   C2B40664   7.679  21.030   8.388
 3078POPC   C3B40665   7.530  21.192   8.026
 3078POPC   C4B40666   7.470  20.985   7.647
 3079POPC   NC340667  26.419  19.975   9.534
 3079POPC   PO440668  27.036  19.707   9.559
 3079POPC   GL140669  27.005  19.593   9.153
 3079POPC   GL240670  26.670  19.739   9.164
 3079POPC   C1A40671  26.797  19.437   8.786
 3079POPC   D2A40672  26.614  19.558   8.395
 3079POPC   C3A40673  26.853  19.476   8.070
 3079POPC   C4A40674  26.691  19.594   7.679
 3079POPC   C1B40675  26.792  19.994   8.817
 3079POPC   C2B40676  26.649  20.103   8.408
 3079POPC   C3B40677  26.817  19.991   8.016
 3079POPC   C4B40678  27.121  20.175   7.761
 3080POPC   NC340679  34.942  17.624   9.543
 3080POPC   PO440680  34.371  17.338   9.593
 3080POPC   GL140681  34.490  17.645   9.240
 3080POPC   GL240682  34.806  17.655   9.052
 3080POPC   C1A40683  34.405  17.789   8.793
 3080POPC   D2A40684  34.659  17.777   8.403
 3080POPC   C3A40685  34.472  17.643   8.009
 3080POPC   C4A40686  34.226  17.441   7.662
 3080POPC   C1B40687  34.970  17.416   8.686
 3080POPC   C2B40688  34.952  17.379   8.208
 3080POPC   C3B40689  34.849  17.405   7.792
 3080POPC   C4B40690  34.656  17.504   7.438
 3081POPC   NC340691  37.099   6.208   9.429
 3081POPC   PO440692  36.849   6.752   9.667
 3081POPC   GL140693  36.849   6.771   9.191
 3081POPC   GL240694  36.745   6.462   9.113
 3081POPC   C1A40695  37.091   6.781   8.759
 3081POPC   D2A40696  37.294   6.827   8.316
 3081POPC   C3A40697  37.051   6.858   7.932
 3081POPC   C4A40698  37.091   6.654   7.539
 3081POPC   C1B40699  36.545   6.263   8.770
 3081POPC   C2B40700  36.509   6.298   8.340
 3081POPC   C3B40701  36.666   6.555   8.006
 3081POPC   C4B40702  36.604   6.541   7.554
 3082POPC   NC340703  12.122  34.669   9.597
 3082POPC   PO440704  11.909  34.087   9.533
 3082POPC   GL140705  12.010  34.318   9.187
 3082POPC   GL240706  12.371  34.367   9.111
 3082POPC   C1A40707  11.994  34.375   8.747
 3082POPC   D2A40708  12.138  34.482   8.358
 3082POPC   C3A40709  11.944  34.349   7.997
 3082POPC   C4A40710  11.824  34.670   7.726
 3082POPC   C1B40711  12.435  34.706   8.785
 3082POPC   C2B40712  12.491  34.847   8.338
 3082POPC   C3B40713  12.347  34.689   7.915
 3082POPC   C4B40714  12.473  34.786   7.421
 3083POPC   NC340715  12.368  43.470   9.470
 3083POPC   PO440716  11.931  42.996   9.706
 3083POPC   GL140717  12.044  43.100   9.255
 3083POPC   GL240718  12.381  42.985   9.209
 3083POPC   C1A40719  12.217  43.240   8.803
 3083POPC   D2A40720  12.421  43.323   8.386
 3083POPC   C3A40721  12.192  43.233   8.021
 3083POPC   C4A40722  11.871  43.145   7.734
 3083POPC   C1B40723  12.479  42.778   8.816
 3083POPC   C2B40724  12.580  42.839   8.398
 3083POPC   C3B40725  12.612  42.945   7.997
 3083POPC   C4B40726  12.358  42.919   7.644
 3084POPC   NC340727   3.398   1.585   9.607
 3084POPC   PO440728   3.785   1.110   9.741
 3084POPC   GL140729   3.569   1.230   9.285
 3084POPC   GL240730   3.317   0.971   9.172
 3084POPC   C1A40731   3.722   1.371   8.834
 3084POPC   D2A40732   3.585   1.366   8.407
 3084POPC   C3A40733   3.682   1.031   8.129
 3084POPC   C4A40734   3.683   1.192   7.726
 3084POPC   C1B40735   3.427   0.922   8.743
 3084POPC   C2B40736   3.191   0.988   8.361
 3084POPC   C3B40737   3.213   1.171   7.952
 3084POPC   C4B40738   3.202   1.044   7.519
 3085POPC   NC340739  12.399  11.058   9.811
 3085POPC   PO440740  12.066  11.607   9.685
 3085POPC   GL140741  12.090  11.472   9.254
 3085POPC   GL240742  12.240  11.116   9.309
 3085POPC   C1A40743  12.206  11.688   8.837
 3085POPC   D2A40744  12.320  11.512   8.481
 3085POPC   C3A40745  12.107  11.541   8.109
 3085POPC   C4A40746  12.340  11.551   7.722
 3085POPC   C1B40747  12.175  11.174   8.852
 3085POPC   C2B40748  11.997  11.106   8.448
 3085POPC   C3B40749  12.152  11.029   8.030
 3085POPC   C4B40750  12.251  11.046   7.603
 3086POPC   NC340751   3.797  28.052   9.502
 3086POPC   PO440752   3.494  28.640   9.644
 3086POPC   GL140753   3.426  28.428   9.258
 3086POPC   GL240754   3.760  28.528   9.174
 3086POPC   C1A40755   3.461  28.301   8.807
 3086POPC   D2A40756   3.354  28.490   8.367
 3086POPC   C3A40757   3.437  28.254   7.973
 3086POPC   C4A40758   3.796  28.159   7.684
 3086POPC   C1B40759   3.720  28.742   8.776
 3086POPC   C2B40760   3.684  28.907   8.387
 3086POPC   C3B40761   3.771  28.645   8.039
 3086POPC   C4B40762   3.551  28.659   7.665
 3087POPC   NC340763  16.393  39.641   9.476
 3087POPC   PO440764  16.676  40.275   9.286
 3087POPC   GL140765  16.730  39.853   9.155
 3087POPC   GL240766  16.405  39.882   9.026
 3087POPC   C1A40767  16.788  39.647   8.748
 3087POPC   D2A40768  16.788  39.917   8.401
 3087POPC   C3A40769  16.721  39.821   7.983
 3087POPC   C4A40770  16.781  40.167   7.718
 3087POPC   C1B40771  16.259  40.083   8.639
 3087POPC   C2B40772  16.385  40.193   8.198
 3087POPC   C3B40773  16.285  40.012   7.781
 3087POPC   C4B40774  16.256  40.071   7.320
 3088POPC   NC340775  27.991  36.090   9.476
 3088POPC   PO440776  28.545  36.441   9.253
 3088POPC   GL140777  28.315  36.179   9.022
 3088POPC   GL240778  28.411  35.905   9.225
 3088POPC   C1A40779  28.294  36.206   8.573
 3088POPC   D2A40780  28.572  36.317   8.216
 3088POPC   C3A40781  28.370  36.307   7.796
 3088POPC   C4A40782  28.265  36.130   7.385
 3088POPC   C1B40783  28.546  35.765   8.801
 3088POPC   C2B40784  28.353  35.704   8.422
 3088POPC   C3B40785  28.439  35.807   8.006
 3088POPC   C4B40786  28.076  35.815   7.732
 3089POPC   NC340787   9.642  11.951   9.515
 3089POPC   PO440788  10.279  12.213   9.347
 3089POPC   GL140789   9.898  12.032   9.077
 3089POPC   GL240790   9.542  12.192   9.030
 3089POPC   C1A40791   9.774  11.917   8.660
 3089POPC   D2A40792   9.692  12.079   8.255
 3089POPC   C3A40793   9.974  12.016   7.919
 3089POPC   C4A40794  10.016  12.295   7.552
 3089POPC   C1B40795   9.302  12.155   8.603
 3089POPC   C2B40796   9.255  11.849   8.214
 3089POPC   C3B40797   9.550  11.704   7.839
 3089POPC   C4B40798   9.626  11.815   7.369
 3090POPC   NC340799  31.071  37.228   9.472
 3090POPC   PO440800  30.450  36.871   9.496
 3090POPC   GL140801  30.728  36.978   9.185
 3090POPC   GL240802  30.922  36.735   8.966
 3090POPC   C1A40803  30.539  37.032   8.818
 3090POPC   D2A40804  30.717  36.819   8.454
 3090POPC   C3A40805  30.484  36.892   8.071
 3090POPC   C4A40806  30.621  36.972   7.633
 3090POPC   C1B40807  31.022  37.154   8.783
 3090POPC   C2B40808  31.010  37.264   8.374
 3090POPC   C3B40809  30.984  37.023   8.004
 3090POPC   C4B40810  31.047  37.271   7.658
 3091POPC   NC340811   5.726  41.382   9.530
 3091POPC   PO440812   6.137  41.909   9.449
 3091POPC   GL140813   5.894  41.637   9.122
 3091POPC   GL240814   5.520  41.665   9.116
 3091POPC   C1A40815   5.759  41.376   8.761
 3091POPC   D2A40816   5.903  41.347   8.352
 3091POPC   C3A40817   6.055  41.734   8.164
 3091POPC   C4A40818   5.961  41.693   7.752
 3091POPC   C1B40819   5.554  41.837   8.684
 3091POPC   C2B40820   5.539  41.759   8.231
 3091POPC   C3B40821   5.478  41.833   7.784
 3091POPC   C4B40822   5.467  41.465   7.522
 3092POPC   NC340823  16.617  38.862   9.646
 3092POPC   PO440824  16.913  39.497   9.523
 3092POPC   GL140825  16.740  39.213   9.247
 3092POPC   GL240826  16.520  39.374   9.068
 3092POPC   C1A40827  16.860  39.089   8.832
 3092POPC   D2A40828  16.878  38.969   8.408
 3092POPC   C3A40829  16.824  39.330   8.134
 3092POPC   C4A40830  16.786  39.355   7.689
 3092POPC   C1B40831  16.270  39.515   8.721
 3092POPC   C2B40832  16.332  39.674   8.309
 3092POPC   C3B40833  16.334  39.483   7.923
 3092POPC   C4B40834  16.189  39.559   7.508
 3093POPC   NC340835  31.969   9.976   9.730
 3093POPC   PO440836  32.235   9.345   9.470
 3093POPC   GL140837  32.264   9.662   9.141
 3093POPC   GL240838  31.976   9.902   9.216
 3093POPC   C1A40839  32.368   9.678   8.690
 3093POPC   D2A40840  32.590   9.711   8.285
 3093POPC   C3A40841  32.367   9.615   7.925
 3093POPC   C4A40842  32.484   9.477   7.520
 3093POPC   C1B40843  31.870   9.787   8.798
 3093POPC   C2B40844  31.952   9.704   8.341
 3093POPC   C3B40845  31.867   9.798   7.905
 3093POPC   C4B40846  32.061   9.904   7.535
 3094POPC   NC340847   5.901   6.483   9.773
 3094POPC   PO440848   6.019   5.814   9.619
 3094POPC   GL140849   6.058   5.897   9.198
 3094POPC   GL240850   5.959   6.263   9.279
 3094POPC   C1A40851   5.978   5.811   8.736
 3094POPC   D2A40852   6.034   5.918   8.287
 3094POPC   C3A40853   5.982   5.650   7.936
 3094POPC   C4A40854   5.770   5.799   7.578
 3094POPC   C1B40855   6.154   6.263   8.872
 3094POPC   C2B40856   6.409   6.109   8.541
 3094POPC   C3B40857   6.436   6.213   8.088
 3094POPC   C4B40858   6.267   6.031   7.697
 3095POPC   NC340859  43.643  35.613   9.424
 3095POPC   PO440860  44.079  35.076   9.555
 3095POPC   GL140861  43.880  35.233   9.184
 3095POPC   GL240862  44.199  35.419   9.172
 3095POPC   C1A40863  43.923  35.358   8.740
 3095POPC   D2A40864  43.889  35.183   8.326
 3095POPC   C3A40865  43.781  35.459   7.975
 3095POPC   C4A40866  43.918  35.216   7.633
 3095POPC   C1B40867  44.409  35.504   8.799
 3095POPC   C2B40868  44.269  35.616   8.400
 3095POPC   C3B40869  44.283  35.466   8.003
 3095POPC   C4B40870  44.168  35.670   7.634
 3096POPC   NC340871  24.762   4.358   9.369
 3096POPC   PO440872  25.400   4.256   9.623
 3096POPC   GL140873  25.527   4.206   9.183
 3096POPC   GL240874  25.580   4.543   9.017
 3096POPC   C1A40875  25.725   4.103   8.788
 3096POPC   D2A40876  25.704   4.373   8.418
 3096POPC   C3A40877  25.580   4.098   8.090
 3096POPC   C4A40878  25.365   4.139   7.679
 3096POPC   C1B40879  25.220   4.354   8.753
 3096POPC   C2B40880  24.939   4.293   8.373
 3096POPC   C3B40881  25.083   4.457   7.981
 3096POPC   C4B40882  25.526   4.574   7.927
 3097POPC   NC340883  24.269   2.630   9.736
 3097POPC   PO440884  24.862   2.441   9.464
 3097POPC   GL140885  24.786   2.648   9.056
 3097POPC   GL240886  24.478   2.798   9.054
 3097POPC   C1A40887  24.680   2.743   8.599
 3097POPC   D2A40888  24.774   3.023   8.271
 3097POPC   C3A40889  24.732   2.751   7.920
 3097POPC   C4A40890  24.452   2.376   7.845
 3097POPC   C1B40891  24.168   2.706   8.747
 3097POPC   C2B40892  24.048   2.925   8.430
 3097POPC   C3B40893  24.276   2.784   8.150
 3097POPC   C4B40894  24.253   2.816   7.743
 3098POPC   NC340895   9.753  38.701   9.321
 3098POPC   PO440896   9.331  38.201   9.545
 3098POPC   GL140897   9.531  38.302   9.117
 3098POPC   GL240898   9.896  38.229   9.138
 3098POPC   C1A40899   9.657  38.565   8.698
 3098POPC   D2A40900   9.540  38.885   8.357
 3098POPC   C3A40901   9.660  38.642   7.987
 3098POPC   C4A40902  10.074  38.527   7.873
 3098POPC   C1B40903   9.741  38.060   8.712
 3098POPC   C2B40904   9.830  38.219   8.317
 3098POPC   C3B40905   9.768  38.119   7.913
 3098POPC   C4B40906   9.747  37.934   7.518
 3099POPC   NC340907  13.403   4.098   9.618
 3099POPC   PO440908  13.761   4.613   9.402
 3099POPC   GL140909  13.601   4.515   9.062
 3099POPC   GL240910  13.482   4.224   9.116
 3099POPC   C1A40911  13.775   4.373   8.677
 3099POPC   D2A40912  13.593   4.459   8.292
 3099POPC   C3A40913  13.822   4.368   7.918
 3099POPC   C4A40914  13.713   4.571   7.558
 3099POPC   C1B40915  13.250   4.387   8.722
 3099POPC   C2B40916  13.064   4.337   8.297
 3099POPC   C3B40917  13.270   4.420   7.875
 3099POPC   C4B40918  13.427   4.127   7.566
 3100POPC   NC340919  21.894  35.036  10.010
 3100POPC   PO440920  21.968  35.611   9.607
 3100POPC   GL140921  22.010  35.490   9.168
 3100POPC   GL240922  22.210  35.199   9.144
 3100POPC   C1A40923  21.894  35.505   8.744
 3100POPC   D2A40924  22.076  35.574   8.346
 3100POPC   C3A40925  21.843  35.432   7.992
 3100POPC   C4A40926  21.837  35.546   7.565
 3100POPC   C1B40927  22.319  35.200   8.704
 3100POPC   C2B40928  22.358  35.136   8.257
 3100POPC   C3B40929  22.153  35.049   7.911
 3100POPC   C4B40930  22.108  35.122   7.500
 3101POPC   NC340931  29.829  41.926   9.558
 3101POPC   PO440932  30.199  42.429   9.645
 3101POPC   GL140933  29.954  42.299   9.229
 3101POPC   GL240934  29.713  42.019   9.086
 3101POPC   C1A40935  30.063  42.235   8.801
 3101POPC   D2A40936  30.202  42.457   8.430
 3101POPC   C3A40937  30.155  42.303   8.021
 3101POPC   C4A40938  29.806  42.470   7.766
 3101POPC   C1B40939  29.763  41.840   8.690
 3101POPC   C2B40940  29.616  41.951   8.287
 3101POPC   C3B40941  29.767  41.980   7.840
 3101POPC   C4B40942  29.867  41.917   7.381
 3102POPC   NC340943  18.937  40.357   9.412
 3102POPC   PO440944  19.320  39.827   9.377
 3102POPC   GL140945  19.102  40.043   9.013
 3102POPC   GL240946  18.895  40.352   8.923
 3102POPC   C1A40947  19.211  40.166   8.586
 3102POPC   D2A40948  18.950  39.948   8.329
 3102POPC   C3A40949  19.056  39.972   7.930
 3102POPC   C4A40950  19.436  40.163   7.812
 3102POPC   C1B40951  18.505  40.491   8.777
 3102POPC   C2B40952  18.418  40.417   8.377
 3102POPC   C3B40953  18.723  40.339   8.081
 3102POPC   C4B40954  18.980  40.412   7.704
 3103POPC   NC340955   5.437  23.237   9.555
 3103POPC   PO440956   5.215  22.634   9.657
 3103POPC   GL140957   5.319  22.753   9.223
 3103POPC   GL240958   5.189  23.062   9.139
 3103POPC   C1A40959   5.201  22.734   8.759
 3103POPC   D2A40960   5.237  23.060   8.438
 3103POPC   C3A40961   5.327  22.904   8.025
 3103POPC   C4A40962   5.438  23.166   7.707
 3103POPC   C1B40963   4.883  23.171   8.813
 3103POPC   C2B40964   4.784  23.393   8.416
 3103POPC   C3B40965   4.939  23.277   8.004
 3103POPC   C4B40966   4.843  22.942   7.730
 3104POPC   NC340967  44.212  32.547   9.504
 3104POPC   PO440968  43.732  32.049   9.583
 3104POPC   GL140969  43.901  32.109   9.201
 3104POPC   GL240970  43.820  32.458   9.166
 3104POPC   C1A40971  43.834  32.135   8.760
 3104POPC   D2A40972  44.030  32.314   8.371
 3104POPC   C3A40973  43.959  32.076   8.020
 3104POPC   C4A40974  43.552  31.891   7.926
 3104POPC   C1B40975  44.088  32.597   8.802
 3104POPC   C2B40976  44.166  32.803   8.388
 3104POPC   C3B40977  43.963  32.687   7.993
 3104POPC   C4B40978  44.025  32.423   7.646
 3105POPC   NC340979  38.523   7.314   9.536
 3105POPC   PO440980  37.969   7.658   9.469
 3105POPC   GL140981  38.294   7.574   9.152
 3105POPC   GL240982  38.322   7.266   9.041
 3105POPC   C1A40983  38.327   7.668   8.722
 3105POPC   D2A40984  38.211   7.421   8.349
 3105POPC   C3A40985  38.290   7.677   7.991
 3105POPC   C4A40986  38.353   7.494   7.609
 3105POPC   C1B40987  38.655   7.284   8.764
 3105POPC   C2B40988  38.708   7.525   8.367
 3105POPC   C3B40989  38.640   7.284   7.987
 3105POPC   C4B40990  38.918   7.025   7.759
 3106POPC   NC340991  28.287  27.278   9.382
 3106POPC   PO440992  28.388  26.571   9.525
 3106POPC   GL140993  28.315  26.568   9.106
 3106POPC   GL240994  28.385  26.906   9.076
 3106POPC   C1A40995  28.600  26.621   8.733
 3106POPC   D2A40996  28.623  26.722   8.310
 3106POPC   C3A40997  28.282  26.538   8.076
 3106POPC   C4A40998  28.257  26.390   7.649
 3106POPC   C1B40999  28.204  27.137   8.739
 3106POPC   C2B41000  28.267  27.090   8.313
 3106POPC   C3B41001  28.310  27.195   7.899
 3106POPC   C4B41002  28.103  26.858   7.713
 3107POPC   NC341003  31.947  27.177   9.535
 3107POPC   PO441004  32.491  26.814   9.896
 3107POPC   GL141005  32.233  26.776   9.410
 3107POPC   GL241006  32.273  27.067   9.161
 3107POPC   C1A41007  31.999  26.716   8.954
 3107POPC   D2A41008  32.142  26.950   8.532
 3107POPC   C3A41009  32.051  26.788   8.116
 3107POPC   C4A41010  31.760  26.837   7.804
 3107POPC   C1B41011  32.505  26.823   8.838
 3107POPC   C2B41012  32.724  26.980   8.456
 3107POPC   C3B41013  32.523  27.028   8.055
 3107POPC   C4B41014  32.408  26.836   7.671
 3108POPC   NC341015   1.048  36.453   9.482
 3108POPC   PO441016   0.673  35.900   9.465
 3108POPC   GL141017   0.988  35.894   9.099
 3108POPC   GL241018   1.160  36.228   9.035
 3108POPC   C1A41019   1.004  35.856   8.633
 3108POPC   D2A41020   1.194  36.265   8.495
 3108POPC   C3A41021   1.101  36.424   8.101
 3108POPC   C4A41022   1.238  36.519   7.684
 3108POPC   C1B41023   1.443  35.962   8.829
 3108POPC   C2B41024   1.665  35.903   8.501
 3108POPC   C3B41025   1.521  36.088   8.154
 3108POPC   C4B41026   1.304  36.026   7.800
 3109POPC   NC341027  36.311  14.784   9.601
 3109POPC   PO441028  35.899  15.336   9.588
 3109POPC   GL141029  36.075  15.301   9.179
 3109POPC   GL241030  36.282  15.111   9.247
 3109POPC   C1A41031  36.257  15.362   8.736
 3109POPC   D2A41032  36.067  15.255   8.345
 3109POPC   C3A41033  36.089  15.432   7.917
 3109POPC   C4A41034  35.970  15.246   7.505
 3109POPC   C1B41035  36.335  14.886   8.926
 3109POPC   C2B41036  36.321  14.838   8.487
 3109POPC   C3B41037  36.499  14.947   8.091
 3109POPC   C4B41038  36.344  14.856   7.674
 3110POPC   NC341039  23.137  25.911   9.610
 3110POPC   PO441040  23.002  26.564   9.679
 3110POPC   GL141041  23.113  26.292   9.258
 3110POPC   GL241042  23.006  25.916   9.116
 3110POPC   C1A41043  22.983  26.294   8.799
 3110POPC   D2A41044  23.184  26.154   8.448
 3110POPC   C3A41045  23.062  26.282   8.095
 3110POPC   C4A41046  22.793  26.118   7.817
 3110POPC   C1B41047  22.828  25.814   8.678
 3110POPC   C2B41048  22.792  25.784   8.194
 3110POPC   C3B41049  22.629  25.653   7.734
 3110POPC   C4B41050  22.465  25.815   7.265
 3111POPC   NC341051  20.759  29.807   9.626
 3111POPC   PO441052  20.785  30.446   9.632
 3111POPC   GL141053  20.697  30.150   9.261
 3111POPC   GL241054  20.461  29.816   9.212
 3111POPC   C1A41055  20.791  29.947   8.863
 3111POPC   D2A41056  20.738  29.652   8.538
 3111POPC   C3A41057  20.747  29.890   8.172
 3111POPC   C4A41058  20.770  29.829   7.740
 3111POPC   C1B41059  20.277  29.673   8.803
 3111POPC   C2B41060  20.227  29.830   8.352
 3111POPC   C3B41061  20.345  29.672   7.953
 3111POPC   C4B41062  20.214  29.496   7.546
 3112POPC   NC341063   9.249  42.232   9.482
 3112POPC   PO441064   8.878  42.771   9.572
 3112POPC   GL141065   8.862  42.521   9.206
 3112POPC   GL241066   8.870  42.139   9.165
 3112POPC   C1A41067   9.105  42.474   8.837
 3112POPC   D2A41068   8.924  42.559   8.445
 3112POPC   C3A41069   9.041  42.463   8.091
 3112POPC   C4A41070   9.113  42.703   7.784
 3112POPC   C1B41071   8.931  41.991   8.742
 3112POPC   C2B41072   8.778  42.039   8.317
 3112POPC   C3B41073   8.867  42.055   7.871
 3112POPC   C4B41074   9.226  42.195   7.670
 3113POPC   NC341075  43.523  13.377   9.531
 3113POPC   PO441076  43.100  13.750   9.853
 3113POPC   GL141077  42.954  13.664   9.370
 3113POPC   GL241078  43.284  13.700   9.202
 3113POPC   C1A41079  42.910  13.638   8.897
 3113POPC   D2A41080  43.189  13.813   8.597
 3113POPC   C3A41081  43.179  13.658   8.193
 3113POPC   C4A41082  43.130  13.752   7.778
 3113POPC   C1B41083  43.444  13.436   8.867
 3113POPC   C2B41084  43.473  13.292   8.430
 3113POPC   C3B41085  43.698  13.331   8.042
 3113POPC   C4B41086  43.575  13.151   7.639
 3114POPC   NC341087  35.943   5.857   9.392
 3114POPC   PO441088  36.598   6.112   9.459
 3114POPC   GL141089  36.359   5.920   9.099
 3114POPC   GL241090  36.400   5.535   9.118
 3114POPC   C1A41091  36.042   6.053   8.731
 3114POPC   D2A41092  35.812   5.878   8.326
 3114POPC   C3A41093  35.991   6.049   7.926
 3114POPC   C4A41094  36.436   6.116   7.835
 3114POPC   C1B41095  36.167   5.580   8.753
 3114POPC   C2B41096  36.318   5.738   8.368
 3114POPC   C3B41097  36.250   5.599   7.974
 3114POPC   C4B41098  35.826   5.562   7.808
 3115POPC   NC341099  26.121  34.860   9.545
 3115POPC   PO441100  25.859  34.212   9.493
 3115POPC   GL141101  25.985  34.338   9.092
 3115POPC   GL241102  26.326  34.412   9.162
 3115POPC   C1A41103  25.848  34.366   8.635
 3115POPC   D2A41104  25.683  34.483   8.224
 3115POPC   C3A41105  25.978  34.387   7.901
 3115POPC   C4A41106  26.040  34.337   7.453
 3115POPC   C1B41107  26.329  34.628   8.763
 3115POPC   C2B41108  26.087  34.753   8.418
 3115POPC   C3B41109  26.232  34.772   8.053
 3115POPC   C4B41110  26.296  34.742   7.645
 3116POPC   NC341111  17.425  38.460  10.092
 3116POPC   PO441112  17.101  38.411   9.484
 3116POPC   GL141113  17.318  38.458   9.095
 3116POPC   GL241114  17.567  38.716   9.101
 3116POPC   C1A41115  17.444  38.436   8.687
 3116POPC   D2A41116  17.231  38.347   8.310
 3116POPC   C3A41117  17.260  38.551   7.928
 3116POPC   C4A41118  17.380  38.288   7.604
 3116POPC   C1B41119  17.851  38.771   8.776
 3116POPC   C2B41120  17.927  38.913   8.369
 3116POPC   C3B41121  17.733  38.768   7.989
 3116POPC   C4B41122  17.616  38.746   7.578
 3117POPC   NC341123  37.682  32.345   9.605
 3117POPC   PO441124  38.007  31.920   9.140
 3117POPC   GL141125  37.614  32.132   9.078
 3117POPC   GL241126  37.684  32.487   9.129
 3117POPC   C1A41127  37.434  32.145   8.618
 3117POPC   D2A41128  37.737  32.052   8.240
 3117POPC   C3A41129  37.730  31.978   7.766
 3117POPC   C4A41130  37.877  31.975   7.315
 3117POPC   C1B41131  37.605  32.675   8.753
 3117POPC   C2B41132  37.533  32.570   8.330
 3117POPC   C3B41133  37.650  32.465   7.912
 3117POPC   C4B41134  37.353  32.293   7.601
 3118POPC   NC341135  27.226   0.804   9.381
 3118POPC   PO441136  27.549   0.240   9.633
 3118POPC   GL141137  27.492   0.354   9.189
 3118POPC   GL241138  27.761   0.600   9.156
 3118POPC   C1A41139  27.640   0.377   8.732
 3118POPC   D2A41140  27.684   0.254   8.326
 3118POPC   C3A41141  27.315   0.187   8.144
 3118POPC   C4A41142  27.209   0.249   7.735
 3118POPC   C1B41143  27.967   0.776   8.780
 3118POPC   C2B41144  27.783   0.785   8.350
 3118POPC   C3B41145  27.507   0.657   7.999
 3118POPC   C4B41146  27.520   0.608   7.538
 3119POPC   NC341147  15.281  15.513   9.573
 3119POPC   PO441148  14.863  15.930   9.282
 3119POPC   GL141149  15.010  15.748   8.955
 3119POPC   GL241150  15.310  15.607   9.037
 3119POPC   C1A41151  14.941  15.918   8.594
 3119POPC   D2A41152  15.190  16.079   8.310
 3119POPC   C3A41153  15.079  15.778   8.048
 3119POPC   C4A41154  14.912  15.849   7.657
 3119POPC   C1B41155  15.469  15.818   8.675
 3119POPC   C2B41156  15.642  15.733   8.284
 3119POPC   C3B41157  15.533  15.975   7.937
 3119POPC   C4B41158  15.330  16.208   7.670
 3120POPC   NC341159  19.280  24.435   9.590
 3120POPC   PO441160  18.600  24.504   9.561
 3120POPC   GL141161  18.676  24.437   9.122
 3120POPC   GL241162  18.993  24.571   9.174
 3120POPC   C1A41163  18.666  24.416   8.653
 3120POPC   D2A41164  18.980  24.438   8.367
 3120POPC   C3A41165  18.870  24.555   7.976
 3120POPC   C4A41166  18.706  24.258   7.724
 3120POPC   C1B41167  19.018  24.761   8.784
 3120POPC   C2B41168  19.180  24.894   8.374
 3120POPC   C3B41169  19.378  24.622   8.075
 3120POPC   C4B41170  19.250  24.712   7.679
 3121POPC   NC341171  27.742  37.058   9.460
 3121POPC   PO441172  27.587  36.376   9.532
 3121POPC   GL141173  27.459  36.572   9.156
 3121POPC   GL241174  27.313  36.891   9.194
 3121POPC   C1A41175  27.579  36.770   8.767
 3121POPC   D2A41176  27.842  36.930   8.475
 3121POPC   C3A41177  27.710  36.834   8.070
 3121POPC   C4A41178  27.677  37.058   7.713
 3121POPC   C1B41179  27.281  37.179   8.787
 3121POPC   C2B41180  27.383  37.156   8.353
 3121POPC   C3B41181  27.223  37.009   7.980
 3121POPC   C4B41182  26.869  37.180   7.822
 3122POPC   NC341183  18.207  39.777   9.505
 3122POPC   PO441184  18.481  40.434   9.527
 3122POPC   GL141185  18.452  40.143   9.168
 3122POPC   GL241186  18.089  40.086   9.124
 3122POPC   C1A41187  18.590  39.955   8.751
 3122POPC   D2A41188  18.569  39.632   8.397
 3122POPC   C3A41189  18.548  39.848   7.996
 3122POPC   C4A41190  18.516  40.150   7.649
 3122POPC   C1B41191  18.086  40.172   8.735
 3122POPC   C2B41192  18.189  39.966   8.389
 3122POPC   C3B41193  18.115  40.139   8.034
 3122POPC   C4B41194  18.044  39.974   7.674
 3123POPC   NC341195  30.476  28.724   9.811
 3123POPC   PO441196  30.974  29.093   9.452
 3123POPC   GL141197  30.730  29.182   9.125
 3123POPC   GL241198  30.424  29.347   9.260
 3123POPC   C1A41199  30.992  29.237   8.774
 3123POPC   D2A41200  31.148  29.183   8.383
 3123POPC   C3A41201  30.777  29.104   8.138
 3123POPC   C4A41202  30.789  29.216   7.763
 3123POPC   C1B41203  30.327  29.277   8.809
 3123POPC   C2B41204  30.192  29.268   8.349
 3123POPC   C3B41205  30.326  29.347   7.900
 3123POPC   C4B41206  30.447  29.313   7.427
 3124POPC   NC341207  40.457  16.849   5.521
 3124POPC   PO441208  39.752  16.645   5.458
 3124POPC   GL141209  39.836  16.561   5.868
 3124POPC   GL241210  40.195  16.574   5.870
 3124POPC   C1A41211  39.820  16.742   6.295
 3124POPC   D2A41212  39.602  16.767   6.690
 3124POPC   C3A41213  39.814  16.589   7.045
 3124POPC   C4A41214  39.918  16.586   7.486
 3124POPC   C1B41215  40.350  16.802   6.226
 3124POPC   C2B41216  40.199  16.942   6.612
 3124POPC   C3B41217  40.289  16.787   7.014
 3124POPC   C4B41218  40.212  16.982   7.383
 3125POPC   NC341219  34.557  22.737   5.458
 3125POPC   PO441220  34.970  23.191   5.492
 3125POPC   GL141221  34.672  23.039   5.855
 3125POPC   GL241222  34.292  23.027   5.811
 3125POPC   C1A41223  34.605  22.951   6.306
 3125POPC   D2A41224  34.377  22.941   6.695
 3125POPC   C3A41225  34.570  22.980   7.124
 3125POPC   C4A41226  34.400  22.919   7.539
 3125POPC   C1B41227  34.331  23.344   6.138
 3125POPC   C2B41228  34.348  23.447   6.591
 3125POPC   C3B41229  34.311  23.403   7.047
 3125POPC   C4B41230  34.516  23.429   7.482
 3126POPC   NC341231  11.317  16.726   5.321
 3126POPC   PO441232  10.960  16.264   5.528
 3126POPC   GL141233  11.096  16.579   5.776
 3126POPC   GL241234  11.419  16.412   5.834
 3126POPC   C1A41235  11.183  16.755   6.183
 3126POPC   D2A41236  11.389  16.632   6.580
 3126POPC   C3A41237  11.206  16.833   6.959
 3126POPC   C4A41238  11.094  16.864   7.416
 3126POPC   C1B41239  11.654  16.239   6.217
 3126POPC   C2B41240  11.845  16.357   6.642
 3126POPC   C3B41241  11.690  16.619   7.008
 3126POPC   C4B41242  11.362  16.463   7.303
 3127POPC   NC341243  14.941  33.237   5.438
 3127POPC   PO441244  15.260  33.835   5.482
 3127POPC   GL141245  14.968  33.803   5.881
 3127POPC   GL241246  15.244  33.739   6.027
 3127POPC   C1A41247  14.891  33.711   6.371
 3127POPC   D2A41248  15.209  33.733   6.722
 3127POPC   C3A41249  15.055  33.727   7.150
 3127POPC   C4A41250  14.990  33.406   7.467
 3127POPC   C1B41251  15.493  33.896   6.314
 3127POPC   C2B41252  15.474  34.193   6.618
 3127POPC   C3B41253  15.320  34.157   7.012
 3127POPC   C4B41254  15.297  34.223   7.483
 3128POPC   NC341255  29.111  23.450   5.306
 3128POPC   PO441256  28.820  24.090   5.340
 3128POPC   GL141257  28.895  23.761   5.679
 3128POPC   GL241258  29.240  23.690   5.735
 3128POPC   C1A41259  28.969  23.632   6.152
 3128POPC   D2A41260  29.110  23.830   6.543
 3128POPC   C3A41261  28.969  23.620   6.919
 3128POPC   C4A41262  29.112  23.681   7.342
 3128POPC   C1B41263  29.477  23.723   6.135
 3128POPC   C2B41264  29.602  23.626   6.549
 3128POPC   C3B41265  29.483  23.766   6.944
 3128POPC   C4B41266  29.633  23.746   7.356
 3129POPC   NC341267   9.320   0.612   5.370
 3129POPC   PO441268   9.807   0.169   5.496
 3129POPC   GL141269   9.701   0.515   5.777
 3129POPC   GL241270   9.413   0.726   5.855
 3129POPC   C1A41271   9.785   0.661   6.196
 3129POPC   D2A41272  10.080   0.509   6.470
 3129POPC   C3A41273   9.944   0.521   6.872
 3129POPC   C4A41274   9.903   0.497   7.310
 3129POPC   C1B41275   9.365   0.364   6.153
 3129POPC   C2B41276   9.561   0.298   6.563
 3129POPC   C3B41277   9.656   0.110   6.970
 3129POPC   C4B41278   9.457   0.271   7.337
 3130POPC   NC341279  40.188  10.414   5.550
 3130POPC   PO441280  39.553  10.526   5.380
 3130POPC   GL141281  39.772  10.624   5.811
 3130POPC   GL241282  40.113  10.808   5.873
 3130POPC   C1A41283  39.857  10.673   6.298
 3130POPC   D2A41284  39.858  10.907   6.716
 3130POPC   C3A41285  39.916  10.678   7.129
 3130POPC   C4A41286  39.976  10.240   7.158
 3130POPC   C1B41287  40.344  10.526   6.194
 3130POPC   C2B41288  40.246  10.398   6.642
 3130POPC   C3B41289  40.398  10.503   7.058
 3130POPC   C4B41290  40.391  10.847   7.327
 3131POPC   NC341291  42.137  39.867   5.431
 3131POPC   PO441292  42.510  40.348   5.607
 3131POPC   GL141293  42.329  40.030   5.885
 3131POPC   GL241294  42.385  39.666   5.824
 3131POPC   C1A41295  42.214  39.934   6.302
 3131POPC   D2A41296  42.266  40.152   6.682
 3131POPC   C3A41297  42.251  39.908   7.044
 3131POPC   C4A41298  42.226  40.129   7.422
 3131POPC   C1B41299  42.597  39.609   6.208
 3131POPC   C2B41300  42.647  39.781   6.626
 3131POPC   C3B41301  42.788  39.704   7.036
 3131POPC   C4B41302  42.624  39.827   7.412
 3132POPC   NC341303  37.460  39.390   5.306
 3132POPC   PO441304  37.771  38.862   5.501
 3132POPC   GL141305  37.695  39.234   5.790
 3132POPC   GL241306  37.391  39.458   5.813
 3132POPC   C1A41307  37.637  39.233   6.237
 3132POPC   D2A41308  37.891  39.303   6.590
 3132POPC   C3A41309  38.126  39.165   6.933
 3132POPC   C4A41310  37.998  39.379   7.306
 3132POPC   C1B41311  37.413  39.711   6.180
 3132POPC   C2B41312  37.487  39.650   6.597
 3132POPC   C3B41313  37.619  39.480   6.982
 3132POPC   C4B41314  37.446  39.555   7.366
 3133POPC   NC341315  28.465  39.331   5.468
 3133POPC   PO441316  28.430  38.761   5.194
 3133POPC   GL141317  28.392  38.863   5.763
 3133POPC   GL241318  28.268  39.197   5.902
 3133POPC   C1A41319  28.508  38.958   6.267
 3133POPC   D2A41320  28.667  38.943   6.741
 3133POPC   C3A41321  28.445  39.187   7.129
 3133POPC   C4A41322  28.115  39.139   7.507
 3133POPC   C1B41323  28.087  39.296   6.278
 3133POPC   C2B41324  28.165  39.111   6.669
 3133POPC   C3B41325  27.942  39.229   7.016
 3133POPC   C4B41326  27.950  39.569   7.290
 3134POPC   NC341327  35.947  21.908   5.130
 3134POPC   PO441328  35.531  22.055   5.567
 3134POPC   GL141329  35.247  22.100   5.904
 3134POPC   GL241330  34.902  22.203   5.806
 3134POPC   C1A41331  35.318  22.134   6.314
 3134POPC   D2A41332  35.413  21.873   6.660
 3134POPC   C3A41333  35.410  22.142   7.036
 3134POPC   C4A41334  35.562  22.388   7.410
 3134POPC   C1B41335  34.799  21.945   6.159
 3134POPC   C2B41336  34.895  22.086   6.576
 3134POPC   C3B41337  34.941  22.306   6.960
 3134POPC   C4B41338  34.973  22.667   7.248
 3135POPC   NC341339  14.153   0.407   5.304
 3135POPC   PO441340  14.432   0.977   5.371
 3135POPC   GL141341  14.370   0.670   5.723
 3135POPC   GL241342  14.033   0.612   5.824
 3135POPC   C1A41343  14.371   0.398   6.133
 3135POPC   D2A41344  14.250   0.358   6.572
 3135POPC   C3A41345  14.455   0.436   6.973
 3135POPC   C4A41346  14.534   0.256   7.376
 3135POPC   C1B41347  13.978   0.749   6.280
 3135POPC   C2B41348  13.912   0.704   6.727
 3135POPC   C3B41349  13.950   0.445   7.114
 3135POPC   C4B41350  13.790   0.537   7.547
 3136POPC   NC341351  25.942  35.719   5.328
 3136POPC   PO441352  26.286  36.280   5.535
 3136POPC   GL141353  26.027  36.296   5.871
 3136POPC   GL241354  25.897  35.996   5.807
 3136POPC   C1A41355  26.036  36.200   6.267
 3136POPC   D2A41356  26.193  35.937   6.545
 3136POPC   C3A41357  26.386  36.136   6.890
 3136POPC   C4A41358  26.164  36.246   7.213
 3136POPC   C1B41359  25.703  35.819   6.169
 3136POPC   C2B41360  25.645  35.930   6.604
 3136POPC   C3B41361  25.905  35.858   6.962
 3136POPC   C4B41362  26.115  35.759   7.286
 3137POPC   NC341363  28.762  10.095   5.530
 3137POPC   PO441364  28.422   9.588   5.411
 3137POPC   GL141365  28.165   9.722   5.782
 3137POPC   GL241366  28.487   9.838   5.872
 3137POPC   C1A41367  28.221   9.904   6.271
 3137POPC   D2A41368  28.148  10.063   6.677
 3137POPC   C3A41369  28.309   9.853   7.038
 3137POPC   C4A41370  28.383   9.579   7.378
 3137POPC   C1B41371  28.759   9.834   6.241
 3137POPC   C2B41372  28.672   9.985   6.659
 3137POPC   C3B41373  28.799  10.055   7.097
 3137POPC   C4B41374  28.567  10.020   7.505
 3138POPC   NC341375   0.737  18.790   5.387
 3138POPC   PO441376   1.105  19.293   5.445
 3138POPC   GL141377   1.184  19.052   5.815
 3138POPC   GL241378   0.839  19.019   5.839
 3138POPC   C1A41379   1.423  19.137   6.213
 3138POPC   D2A41380   1.571  19.347   6.609
 3138POPC   C3A41381   1.477  19.127   6.990
 3138POPC   C4A41382   1.270  19.215   7.382
 3138POPC   C1B41383   0.964  18.893   6.258
 3138POPC   C2B41384   1.110  18.810   6.696
 3138POPC   C3B41385   0.942  18.928   7.116
 3138POPC   C4B41386   0.950  18.885   7.592
 3139POPC   NC341387  23.588  16.959   5.454
 3139POPC   PO441388  24.013  16.538   5.187
 3139POPC   GL141389  23.925  16.638   5.669
 3139POPC   GL241390  23.946  16.995   5.832
 3139POPC   C1A41391  23.623  16.662   6.070
 3139POPC   D2A41392  23.588  16.662   6.571
 3139POPC   C3A41393  23.566  16.490   7.031
 3139POPC   C4A41394  23.657  16.463   7.516
 3139POPC   C1B41395  24.126  16.693   6.138
 3139POPC   C2B41396  24.117  16.604   6.545
 3139POPC   C3B41397  23.987  16.787   6.923
 3139POPC   C4B41398  24.110  16.630   7.301
 3140POPC   NC341399  16.188  16.147   5.510
 3140POPC   PO441400  15.494  15.986   5.483
 3140POPC   GL141401  15.787  16.117   5.847
 3140POPC   GL241402  16.029  15.841   5.890
 3140POPC   C1A41403  16.007  16.173   6.280
 3140POPC   D2A41404  16.025  15.930   6.670
 3140POPC   C3A41405  15.960  16.026   7.079
 3140POPC   C4A41406  15.569  16.071   7.185
 3140POPC   C1B41407  16.196  15.611   6.277
 3140POPC   C2B41408  16.253  15.475   6.724
 3140POPC   C3B41409  16.307  15.643   7.144
 3140POPC   C4B41410  16.301  15.572   7.622
 3141POPC   NC341411  33.977  40.009   5.211
 3141POPC   PO441412  33.700  39.393   5.159
 3141POPC   GL141413  33.573  39.664   5.529
 3141POPC   GL241414  33.605  40.052   5.596
 3141POPC   C1A41415  33.548  39.644   5.998
 3141POPC   D2A41416  33.492  39.572   6.476
 3141POPC   C3A41417  33.775  39.792   6.760
 3141POPC   C4A41418  33.878  39.957   7.169
 3141POPC   C1B41419  33.519  40.148   6.046
 3141POPC   C2B41420  33.393  40.131   6.514
 3141POPC   C3B41421  33.468  40.347   6.929
 3141POPC   C4B41422  33.526  40.276   7.380
 3142POPC   NC341423   4.776  21.938   5.077
 3142POPC   PO441424   5.209  22.348   5.399
 3142POPC   GL141425   5.180  22.121   5.845
 3142POPC   GL241426   5.454  22.286   5.892
 3142POPC   C1A41427   5.178  22.051   6.319
 3142POPC   D2A41428   4.888  21.905   6.677
 3142POPC   C3A41429   4.773  22.159   7.072
 3142POPC   C4A41430   4.835  22.120   7.531
 3142POPC   C1B41431   5.161  22.555   6.130
 3142POPC   C2B41432   4.999  22.489   6.532
 3142POPC   C3B41433   5.220  22.274   6.848
 3142POPC   C4B41434   5.239  22.335   7.282
 3143POPC   NC341435  16.465  34.044   5.736
 3143POPC   PO441436  16.691  34.666   5.453
 3143POPC   GL141437  16.717  34.513   5.879
 3143POPC   GL241438  17.008  34.278   5.871
 3143POPC   C1A41439  16.608  34.454   6.334
 3143POPC   D2A41440  16.504  34.755   6.652
 3143POPC   C3A41441  16.485  34.688   7.049
 3143POPC   C4A41442  16.660  34.378   7.250
 3143POPC   C1B41443  17.109  34.549   6.228
 3143POPC   C2B41444  17.004  34.887   6.474
 3143POPC   C3B41445  16.935  34.931   6.904
 3143POPC   C4B41446  17.078  34.646   7.235
 3144POPC   NC341447  29.654  12.275   5.498
 3144POPC   PO441448  30.018  11.608   5.330
 3144POPC   GL141449  30.035  11.904   5.732
 3144POPC   GL241450  30.318  12.167   5.809
 3144POPC   C1A41451  29.945  12.097   6.168
 3144POPC   D2A41452  30.009  12.325   6.585
 3144POPC   C3A41453  29.676  12.359   6.919
 3144POPC   C4A41454  29.484  11.973   7.118
 3144POPC   C1B41455  30.468  12.328   6.251
 3144POPC   C2B41456  30.479  12.504   6.729
 3144POPC   C3B41457  30.195  12.402   7.062
 3144POPC   C4B41458  30.013  11.963   7.061
 3145POPC   NC341459  28.110  44.314   5.509
 3145POPC   PO441460  28.734  44.515   5.447
 3145POPC   GL141461  28.464  44.611   5.812
 3145POPC   GL241462  28.297  44.325   5.996
 3145POPC   C1A41463  28.549  44.708   6.251
 3145POPC   D2A41464  28.389  44.661   6.688
 3145POPC   C3A41465  28.669  44.695   7.036
 3145POPC   C4A41466  28.804  44.368   7.317
 3145POPC   C1B41467  28.027  44.655   6.211
 3145POPC   C2B41468  27.994  44.960   6.570
 3145POPC   C3B41469  27.937  44.826   7.017
 3145POPC   C4B41470  27.997  44.849   7.489
 3146POPC   NC341471  39.021   9.389   5.477
 3146POPC   PO441472  39.553   8.928   5.386
 3146POPC   GL141473  39.289   9.011   5.723
 3146POPC   GL241474  38.989   8.780   5.658
 3146POPC   C1A41475  39.407   9.173   6.152
 3146POPC   D2A41476  39.432   9.024   6.572
 3146POPC   C3A41477  39.441   9.232   6.957
 3146POPC   C4A41478  39.591   8.921   7.245
 3146POPC   C1B41479  39.081   8.752   6.118
 3146POPC   C2B41480  39.021   8.726   6.574
 3146POPC   C3B41481  39.145   8.823   7.007
 3146POPC   C4B41482  39.106   8.682   7.426
 3147POPC   NC341483  26.165   3.538   5.393
 3147POPC   PO441484  25.645   3.883   5.379
 3147POPC   GL141485  25.803   3.634   5.773
 3147POPC   GL241486  25.745   3.259   5.798
 3147POPC   C1A41487  25.966   3.741   6.191
 3147POPC   D2A41488  25.803   3.985   6.547
 3147POPC   C3A41489  25.800   3.745   6.934
 3147POPC   C4A41490  26.214   3.682   7.131
 3147POPC   C1B41491  25.708   3.298   6.232
 3147POPC   C2B41492  25.963   3.385   6.582
 3147POPC   C3B41493  26.234   3.233   6.879
 3147POPC   C4B41494  26.089   3.145   7.258
 3148POPC   NC341495  39.596   2.579   5.520
 3148POPC   PO441496  40.225   2.927   5.322
 3148POPC   GL141497  40.143   2.926   5.783
 3148POPC   GL241498  40.246   2.590   5.795
 3148POPC   C1A41499  39.862   2.817   6.180
 3148POPC   D2A41500  39.756   2.482   6.525
 3148POPC   C3A41501  39.752   2.618   6.987
 3148POPC   C4A41502  39.877   2.991   7.201
 3148POPC   C1B41503  40.257   2.445   6.211
 3148POPC   C2B41504  40.472   2.474   6.596
 3148POPC   C3B41505  40.267   2.453   6.971
 3148POPC   C4B41506  40.276   2.684   7.337
 3149POPC   NC341507  31.063  22.649   5.542
 3149POPC   PO441508  30.407  22.607   5.576
 3149POPC   GL141509  30.676  22.381   5.901
 3149POPC   GL241510  30.969  22.126   5.857
 3149POPC   C1A41511  30.594  22.023   6.202
 3149POPC   D2A41512  30.577  21.942   6.647
 3149POPC   C3A41513  30.526  22.311   6.929
 3149POPC   C4A41514  30.625  22.288   7.351
 3149POPC   C1B41515  31.112  21.915   6.281
 3149POPC   C2B41516  31.054  21.766   6.714
 3149POPC   C3B41517  30.933  21.957   7.103
 3149POPC   C4B41518  31.160  21.938   7.504
 3150POPC   NC341519  24.206  41.880   5.091
 3150POPC   PO441520  24.525  41.389   5.309
 3150POPC   GL141521  24.410  41.577   5.702
 3150POPC   GL241522  24.187  41.860   5.755
 3150POPC   C1A41523  24.673  41.662   6.053
 3150POPC   D2A41524  24.772  41.604   6.461
 3150POPC   C3A41525  24.570  41.455   6.822
 3150POPC   C4A41526  24.660  41.630   7.217
 3150POPC   C1B41527  24.182  41.598   6.164
 3150POPC   C2B41528  24.096  41.506   6.597
 3150POPC   C3B41529  24.142  41.686   7.020
 3150POPC   C4B41530  24.215  41.475   7.375
 3151POPC   NC341531   5.716   2.086   5.169
 3151POPC   PO441532   5.092   2.082   5.371
 3151POPC   GL141533   4.919   2.144   5.806
 3151POPC   GL241534   4.614   1.974   5.891
 3151POPC   C1A41535   5.062   2.152   6.246
 3151POPC   D2A41536   5.359   1.953   6.524
 3151POPC   C3A41537   5.295   1.810   6.939
 3151POPC   C4A41538   5.286   2.076   7.260
 3151POPC   C1B41539   4.688   1.821   6.309
 3151POPC   C2B41540   4.831   2.016   6.704
 3151POPC   C3B41541   4.798   1.921   7.136
 3151POPC   C4B41542   4.529   1.863   7.493
 3152POPC   NC341543  41.186  41.997   5.566
 3152POPC   PO441544  41.544  41.459   5.300
 3152POPC   GL141545  41.667  41.320   5.746
 3152POPC   GL241546  41.364  41.137   5.856
 3152POPC   C1A41547  41.642  41.367   6.215
 3152POPC   D2A41548  41.768  41.495   6.611
 3152POPC   C3A41549  41.696  41.282   7.029
 3152POPC   C4A41550  41.862  41.453   7.420
 3152POPC   C1B41551  41.224  41.077   6.285
 3152POPC   C2B41552  41.281  41.318   6.684
 3152POPC   C3B41553  41.212  41.448   7.135
 3152POPC   C4B41554  41.413  41.235   7.500
 3153POPC   NC341555  17.882  22.886   5.599
 3153POPC   PO441556  17.383  23.172   5.419
 3153POPC   GL141557  17.421  23.029   5.858
 3153POPC   GL241558  17.504  22.675   5.863
 3153POPC   C1A41559  17.247  22.852   6.265
 3153POPC   D2A41560  17.413  22.695   6.644
 3153POPC   C3A41561  17.594  22.951   6.933
 3153POPC   C4A41562  17.423  22.883   7.321
 3153POPC   C1B41563  17.765  22.754   6.248
 3153POPC   C2B41564  17.906  22.518   6.614
 3153POPC   C3B41565  17.912  22.576   7.058
 3153POPC   C4B41566  18.029  22.958   7.272
 3154POPC   NC341567  38.721  20.457   5.435
 3154POPC   PO441568  38.102  20.972   5.355
 3154POPC   GL141569  38.211  20.861   5.778
 3154POPC   GL241570  38.274  20.517   5.769
 3154POPC   C1A41571  38.392  20.805   6.208
 3154POPC   D2A41572  38.618  20.825   6.615
 3154POPC   C3A41573  38.415  20.826   6.993
 3154POPC   C4A41574  38.556  20.781   7.427
 3154POPC   C1B41575  38.144  20.357   6.189
 3154POPC   C2B41576  38.399  20.329   6.564
 3154POPC   C3B41577  38.519  20.328   6.983
 3154POPC   C4B41578  38.266  20.390   7.303
 3155POPC   NC341579   5.447  16.940   5.419
 3155POPC   PO441580   5.041  16.422   5.402
 3155POPC   GL141581   5.055  16.750   5.735
 3155POPC   GL241582   5.353  16.886   5.924
 3155POPC   C1A41583   4.885  16.846   6.162
 3155POPC   D2A41584   5.011  16.696   6.580
 3155POPC   C3A41585   4.764  16.692   6.948
 3155POPC   C4A41586   5.013  16.676   7.311
 3155POPC   C1B41587   5.356  17.005   6.343
 3155POPC   C2B41588   5.514  16.868   6.732
 3155POPC   C3B41589   5.462  16.867   7.179
 3155POPC   C4B41590   5.399  16.923   7.623
 3156POPC   NC341591  18.995  25.927   5.423
 3156POPC   PO441592  18.693  26.424   5.723
 3156POPC   GL141593  18.759  25.969   5.889
 3156POPC   GL241594  19.122  25.881   5.955
 3156POPC   C1A41595  18.733  25.801   6.317
 3156POPC   D2A41596  18.844  26.048   6.726
 3156POPC   C3A41597  19.119  25.947   7.075
 3156POPC   C4A41598  18.787  25.812   7.329
 3156POPC   C1B41599  18.988  26.242   6.267
 3156POPC   C2B41600  18.962  26.535   6.646
 3156POPC   C3B41601  18.943  26.436   7.091
 3156POPC   C4B41602  19.259  26.567   7.391
 3157POPC   NC341603  43.285  33.815   5.510
 3157POPC   PO441604  42.771  34.175   5.461
 3157POPC   GL141605  42.892  33.932   5.817
 3157POPC   GL241606  42.859  33.548   5.805
 3157POPC   C1A41607  43.015  33.878   6.206
 3157POPC   D2A41608  43.261  33.960   6.553
 3157POPC   C3A41609  43.012  34.017   6.900
 3157POPC   C4A41610  43.169  34.083   7.300
 3157POPC   C1B41611  42.817  33.408   6.246
 3157POPC   C2B41612  43.071  33.490   6.629
 3157POPC   C3B41613  43.083  33.557   7.071
 3157POPC   C4B41614  42.742  33.330   7.257
 3158POPC   NC341615   7.759  44.999   5.361
 3158POPC   PO441616   8.376  44.802   5.325
 3158POPC   GL141617   8.161  44.676   5.757
 3158POPC   GL241618   8.060  44.312   5.860
 3158POPC   C1A41619   8.164  44.738   6.214
 3158POPC   D2A41620   7.973  44.899   6.584
 3158POPC   C3A41621   7.887  44.608   6.914
 3158POPC   C4A41622   8.048  44.370   7.211
 3158POPC   C1B41623   8.428  44.307   6.170
 3158POPC   C2B41624   8.459  44.505   6.584
 3158POPC   C3B41625   8.369  44.774   6.909
 3158POPC   C4B41626   8.318  44.783   7.339
 3159POPC   NC341627  10.239  43.861   5.192
 3159POPC   PO441628   9.706  43.687   5.689
 3159POPC   GL141629   9.669  43.957   5.971
 3159POPC   GL241630   9.435  44.224   6.004
 3159POPC   C1A41631   9.626  43.774   6.359
 3159POPC   D2A41632   9.505  43.504   6.640
 3159POPC   C3A41633   9.838  43.509   6.920
 3159POPC   C4A41634   9.796  43.787   7.231
 3159POPC   C1B41635   9.811  44.245   6.350
 3159POPC   C2B41636   9.781  44.059   6.770
 3159POPC   C3B41637   9.534  44.194   7.099
 3159POPC   C4B41638   9.223  44.337   7.251
 3160POPC   NC341639   3.999  29.384   5.379
 3160POPC   PO441640   4.357  28.827   5.450
 3160POPC   GL141641   4.411  29.005   5.885
 3160POPC   GL241642   4.579  29.329   5.906
 3160POPC   C1A41643   4.262  29.001   6.317
 3160POPC   D2A41644   4.156  29.261   6.685
 3160POPC   C3A41645   4.127  28.975   7.047
 3160POPC   C4A41646   4.343  28.884   7.455
 3160POPC   C1B41647   4.545  29.426   6.370
 3160POPC   C2B41648   4.635  29.392   6.823
 3160POPC   C3B41649   4.436  29.375   7.199
 3160POPC   C4B41650   4.572  29.417   7.618
 3161POPC   NC341651  37.933  32.747   5.076
 3161POPC   PO441652  38.215  32.989   5.643
 3161POPC   GL141653  38.419  33.014   5.970
 3161POPC   GL241654  38.761  33.025   5.866
 3161POPC   C1A41655  38.322  33.172   6.396
 3161POPC   D2A41656  38.609  33.121   6.758
 3161POPC   C3A41657  38.500  33.026   7.164
 3161POPC   C4A41658  38.159  33.115   7.433
 3161POPC   C1B41659  38.759  32.908   6.314
 3161POPC   C2B41660  38.860  32.661   6.692
 3161POPC   C3B41661  38.671  32.548   7.103
 3161POPC   C4B41662  38.566  32.602   7.603
 3162POPC   NC341663  30.645  36.699   5.522
 3162POPC   PO441664  30.578  37.383   5.430
 3162POPC   GL141665  30.668  37.118   5.816
 3162POPC   GL241666  30.397  36.859   5.934
 3162POPC   C1A41667  30.797  36.980   6.224
 3162POPC   D2A41668  30.672  37.079   6.628
 3162POPC   C3A41669  31.001  37.164   6.894
 3162POPC   C4A41670  30.986  36.946   7.274
 3162POPC   C1B41671  30.494  36.535   6.224
 3162POPC   C2B41672  30.776  36.559   6.574
 3162POPC   C3B41673  30.661  36.674   6.987
 3162POPC   C4B41674  30.370  36.538   7.303
 3163POPC   NC341675   0.632  35.863   5.403
 3163POPC   PO441676   0.226  36.454   5.434
 3163POPC   GL141677   0.335  36.161   5.749
 3163POPC   GL241678   0.156  35.830   5.758
 3163POPC   C1A41679   0.575  35.936   6.071
 3163POPC   D2A41680   0.535  35.933   6.513
 3163POPC   C3A41681   0.574  36.301   6.777
 3163POPC   C4A41682   0.671  36.353   7.212
 3163POPC   C1B41683   0.081  36.020   6.184
 3163POPC   C2B41684   0.033  35.820   6.579
 3163POPC   C3B41685   0.205  35.924   6.969
 3163POPC   C4B41686  44.899  36.150   7.185
 3164POPC   NC341687   3.884   4.580   5.332
 3164POPC   PO441688   3.354   4.172   5.498
 3164POPC   GL141689   3.605   4.219   5.833
 3164POPC   GL241690   3.646   4.557   5.802
 3164POPC   C1A41691   3.525   4.331   6.249
 3164POPC   D2A41692   3.463   4.111   6.646
 3164POPC   C3A41693   3.433   4.330   7.036
 3164POPC   C4A41694   3.610   4.148   7.403
 3164POPC   C1B41695   3.964   4.587   6.147
 3164POPC   C2B41696   3.894   4.447   6.578
 3164POPC   C3B41697   3.870   4.623   6.964
 3164POPC   C4B41698   3.688   4.658   7.355
 3165POPC   NC341699  42.351  43.492   5.415
 3165POPC   PO441700  42.229  44.103   5.382
 3165POPC   GL141701  42.336  43.888   5.791
 3165POPC   GL241702  42.666  43.770   5.770
 3165POPC   C1A41703  42.389  43.934   6.280
 3165POPC   D2A41704  42.347  44.195   6.702
 3165POPC   C3A41705  42.267  44.014   7.128
 3165POPC   C4A41706  42.085  43.831   7.502
 3165POPC   C1B41707  42.865  43.762   6.197
 3165POPC   C2B41708  42.761  43.832   6.652
 3165POPC   C3B41709  42.568  43.602   7.025
 3165POPC   C4B41710  42.597  43.746   7.465
 3166POPC   NC341711   1.622  42.017   5.399
 3166POPC   PO441712   0.943  42.255   5.452
 3166POPC   GL141713   1.127  42.303   5.867
 3166POPC   GL241714   1.467  42.219   5.849
 3166POPC   C1A41715   1.323  42.480   6.264
 3166POPC   D2A41716   1.363  42.303   6.691
 3166POPC   C3A41717   1.244  42.583   6.996
 3166POPC   C4A41718   1.279  42.658   7.454
 3166POPC   C1B41719   1.683  42.134   6.226
 3166POPC   C2B41720   1.758  41.988   6.628
 3166POPC   C3B41721   1.653  42.005   7.041
 3166POPC   C4B41722   1.647  42.367   7.290
 3167POPC   NC341723  11.076  32.533   5.495
 3167POPC   PO441724  10.809  31.920   5.400
 3167POPC   GL141725  11.139  32.082   5.728
 3167POPC   GL241726  11.447  32.132   5.645
 3167POPC   C1A41727  11.262  32.388   6.110
 3167POPC   D2A41728  11.129  32.391   6.564
 3167POPC   C3A41729  11.335  32.483   6.976
 3167POPC   C4A41730  11.266  32.521   7.443
 3167POPC   C1B41731  11.589  31.997   6.076
 3167POPC   C2B41732  11.531  31.912   6.530
 3167POPC   C3B41733  11.641  32.066   6.914
 3167POPC   C4B41734  11.529  32.053   7.328
 3168POPC   NC341735   1.477  43.615   5.660
 3168POPC   PO441736   1.003  44.049   5.468
 3168POPC   GL141737   1.111  43.914   5.872
 3168POPC   GL241738   1.165  44.242   5.919
 3168POPC   C1A41739   1.247  43.689   6.271
 3168POPC   D2A41740   1.061  43.574   6.665
 3168POPC   C3A41741   1.236  43.596   7.075
 3168POPC   C4A41742   0.842  43.662   7.268
 3168POPC   C1B41743   1.185  44.197   6.332
 3168POPC   C2B41744   1.262  44.057   6.692
 3168POPC   C3B41745   1.104  44.113   7.079
 3168POPC   C4B41746   0.999  44.507   7.272
 3169POPC   NC341747   3.149  19.440   5.463
 3169POPC   PO441748   2.486  19.753   5.511
 3169POPC   GL141749   2.624  19.806   5.892
 3169POPC   GL241750   2.960  19.805   5.798
 3169POPC   C1A41751   2.502  19.773   6.322
 3169POPC   D2A41752   2.275  20.121   6.524
 3169POPC   C3A41753   2.362  20.195   6.954
 3169POPC   C4A41754   2.459  19.851   7.222
 3169POPC   C1B41755   2.982  19.907   6.249
 3169POPC   C2B41756   2.813  19.988   6.687
 3169POPC   C3B41757   2.951  19.937   7.112
 3169POPC   C4B41758   2.874  19.693   7.491
 3170POPC   NC341759  21.945  35.659   5.452
 3170POPC   PO441760  22.087  36.241   5.323
 3170POPC   GL141761  22.049  36.089   5.762
 3170POPC   GL241762  21.951  35.760   5.938
 3170POPC   C1A41763  21.981  36.260   6.169
 3170POPC   D2A41764  22.006  36.502   6.542
 3170POPC   C3A41765  22.090  36.318   6.952
 3170POPC   C4A41766  22.106  36.502   7.373
 3170POPC   C1B41767  22.205  35.787   6.276
 3170POPC   C2B41768  22.106  35.667   6.683
 3170POPC   C3B41769  21.824  35.768   7.022
 3170POPC   C4B41770  22.019  35.976   7.356
 3171POPC   NC341771  28.748  37.791   5.500
 3171POPC   PO441772  28.297  37.446   5.137
 3171POPC   GL141773  28.396  37.435   5.634
 3171POPC   GL241774  28.326  37.785   5.787
 3171POPC   C1A41775  28.538  37.476   6.104
 3171POPC   D2A41776  28.303  37.505   6.501
 3171POPC   C3A41777  28.423  37.516   6.938
 3171POPC   C4A41778  28.156  37.679   7.269
 3171POPC   C1B41779  28.355  37.964   6.236
 3171POPC   C2B41780  28.482  37.989   6.694
 3171POPC   C3B41781  28.574  37.958   7.163
 3171POPC   C4B41782  28.437  37.899   7.634
 3172POPC   NC341783  24.314  35.285   5.112
 3172POPC   PO441784  24.243  34.975   5.667
 3172POPC   GL141785  24.615  35.185   5.741
 3172POPC   GL241786  24.621  35.518   5.600
 3172POPC   C1A41787  24.726  35.067   6.147
 3172POPC   D2A41788  24.707  35.227   6.552
 3172POPC   C3A41789  24.567  35.059   6.925
 3172POPC   C4A41790  24.361  35.286   7.253
 3172POPC   C1B41791  24.782  35.624   6.038
 3172POPC   C2B41792  24.746  35.737   6.508
 3172POPC   C3B41793  24.742  35.549   6.949
 3172POPC   C4B41794  24.691  35.665   7.382
 3173POPC   NC341795  12.702  19.996   5.331
 3173POPC   PO441796  13.254  19.677   5.498
 3173POPC   GL141797  12.898  19.699   5.837
 3173POPC   GL241798  12.543  19.896   5.800
 3173POPC   C1A41799  13.036  19.814   6.277
 3173POPC   D2A41800  13.226  19.833   6.695
 3173POPC   C3A41801  12.914  19.733   7.014
 3173POPC   C4A41802  12.859  19.788   7.470
 3173POPC   C1B41803  12.528  19.824   6.245
 3173POPC   C2B41804  12.581  20.010   6.667
 3173POPC   C3B41805  12.437  20.191   7.067
 3173POPC   C4B41806  12.403  20.034   7.490
 3174POPC   NC341807  35.816  31.061   5.621
 3174POPC   PO441808  35.857  30.402   5.478
 3174POPC   GL141809  36.047  30.585   5.858
 3174POPC   GL241810  36.429  30.529   5.910
 3174POPC   C1A41811  36.168  30.920   6.162
 3174POPC   D2A41812  35.956  30.945   6.538
 3174POPC   C3A41813  36.155  30.954   6.932
 3174POPC   C4A41814  36.072  30.764   7.302
 3174POPC   C1B41815  36.246  30.461   6.354
 3174POPC   C2B41816  36.037  30.478   6.766
 3174POPC   C3B41817  36.197  30.293   7.163
 3174POPC   C4B41818  36.453  30.444   7.531
 3175POPC   NC341819  23.905  32.628   5.596
 3175POPC   PO441820  23.633  33.262   5.421
 3175POPC   GL141821  23.669  33.055   5.828
 3175POPC   GL241822  23.469  32.745   5.877
 3175POPC   C1A41823  23.887  33.156   6.222
 3175POPC   D2A41824  23.809  33.419   6.585
 3175POPC   C3A41825  23.807  33.298   7.009
 3175POPC   C4A41826  23.747  33.144   7.449
 3175POPC   C1B41827  23.722  32.673   6.255
 3175POPC   C2B41828  23.783  32.895   6.656
 3175POPC   C3B41829  23.591  32.837   7.038
 3175POPC   C4B41830  23.321  32.787   7.363
 3176POPC   NC341831  43.867  20.836   5.361
 3176POPC   PO441832  44.158  20.226   5.376
 3176POPC   GL141833  43.920  20.461   5.754
 3176POPC   GL241834  44.024  20.807   5.857
 3176POPC   C1A41835  43.656  20.590   6.152
 3176POPC   D2A41836  43.740  20.559   6.621
 3176POPC   C3A41837  43.518  20.859   6.895
 3176POPC   C4A41838  43.400  20.888   7.322
 3176POPC   C1B41839  44.160  20.584   6.222
 3176POPC   C2B41840  44.299  20.752   6.611
 3176POPC   C3B41841  44.126  20.688   6.987
 3176POPC   C4B41842  43.926  20.900   7.295
 3177POPC   NC341843  25.280  27.608   5.053
 3177POPC   PO441844  24.841  27.785   5.516
 3177POPC   GL141845  25.204  27.707   5.811
 3177POPC   GL241846  25.493  27.927   5.920
 3177POPC   C1A41847  25.118  27.481   6.194
 3177POPC   D2A41848  25.204  27.365   6.621
 3177POPC   C3A41849  25.120  27.501   7.037
 3177POPC   C4A41850  25.289  27.305   7.435
 3177POPC   C1B41851  25.267  27.954   6.347
 3177POPC   C2B41852  25.195  27.992   6.805
 3177POPC   C3B41853  25.335  27.944   7.258
 3177POPC   C4B41854  25.293  27.750   7.705
 3178POPC   NC341855  20.126  16.694   5.450
 3178POPC   PO441856  19.530  16.964   5.367
 3178POPC   GL141857  19.815  16.974   5.757
 3178POPC   GL241858  20.217  16.964   5.850
 3178POPC   C1A41859  19.842  16.643   6.112
 3178POPC   D2A41860  19.690  16.586   6.547
 3178POPC   C3A41861  19.871  16.576   6.963
 3178POPC   C4A41862  19.694  16.884   7.256
 3178POPC   C1B41863  20.030  17.108   6.199
 3178POPC   C2B41864  20.064  16.924   6.547
 3178POPC   C3B41865  20.050  17.062   6.911
 3178POPC   C4B41866  20.248  16.917   7.224
 3179POPC   NC341867   9.394  44.101   5.494
 3179POPC   PO441868   8.677  44.102   5.597
 3179POPC   GL141869   8.878  43.936   5.917
 3179POPC   GL241870   9.187  43.780   5.872
 3179POPC   C1A41871   8.711  43.788   6.272
 3179POPC   D2A41872   8.661  44.032   6.546
 3179POPC   C3A41873   8.739  43.871   6.904
 3179POPC   C4A41874   8.944  43.916   7.240
 3179POPC   C1B41875   9.168  43.984   6.341
 3179POPC   C2B41876   9.241  43.936   6.778
 3179POPC   C3B41877   9.332  43.618   7.117
 3179POPC   C4B41878   9.417  43.626   7.584
 3180POPC   NC341879  40.586   7.419   5.289
 3180POPC   PO441880  41.025   7.608   5.696
 3180POPC   GL141881  40.741   7.441   5.910
 3180POPC   GL241882  40.597   7.108   5.808
 3180POPC   C1A41883  40.780   7.644   6.321
 3180POPC   D2A41884  40.666   7.605   6.721
 3180POPC   C3A41885  40.869   7.657   7.108
 3180POPC   C4A41886  40.537   7.528   7.394
 3180POPC   C1B41887  40.605   7.160   6.294
 3180POPC   C2B41888  40.519   7.087   6.747
 3180POPC   C3B41889  40.735   7.139   7.128
 3180POPC   C4B41890  41.031   6.871   7.388
 3181POPC   NC341891  23.150   0.898   5.670
 3181POPC   PO441892  23.095   1.470   5.270
 3181POPC   GL141893  22.924   1.533   5.809
 3181POPC   GL241894  22.808   1.207   5.910
 3181POPC   C1A41895  23.124   1.426   6.281
 3181POPC   D2A41896  23.394   1.438   6.644
 3181POPC   C3A41897  23.218   1.270   6.993
 3181POPC   C4A41898  23.245   1.120   7.419
 3181POPC   C1B41899  22.651   1.238   6.328
 3181POPC   C2B41900  22.817   1.082   6.732
 3181POPC   C3B41901  22.932   0.855   7.126
 3181POPC   C4B41902  22.744   0.930   7.536
 3182POPC   NC341903   9.513   2.139   5.321
 3182POPC   PO441904  10.049   1.663   5.446
 3182POPC   GL141905   9.754   1.772   5.752
 3182POPC   GL241906   9.788   2.092   5.784
 3182POPC   C1A41907   9.546   1.763   6.143
 3182POPC   D2A41908   9.628   2.052   6.471
 3182POPC   C3A41909   9.663   1.921   6.882
 3182POPC   C4A41910   9.524   2.153   7.218
 3182POPC   C1B41911  10.036   2.087   6.161
 3182POPC   C2B41912  10.123   2.061   6.607
 3182POPC   C3B41913  10.127   2.131   7.053
 3182POPC   C4B41914  10.050   1.819   7.343
 3183POPC   NC341915  13.956   2.008   5.370
 3183POPC   PO441916  13.292   2.078   5.406
 3183POPC   GL141917  13.504   1.908   5.761
 3183POPC   GL241918  13.699   2.207   5.771
 3183POPC   C1A41919  13.584   1.682   6.180
 3183POPC   D2A41920  13.343   1.762   6.569
 3183POPC   C3A41921  13.540   1.741   6.964
 3183POPC   C4A41922  13.332   1.795   7.364
 3183POPC   C1B41923  13.822   2.117   6.157
 3183POPC   C2B41924  13.740   2.087   6.569
 3183POPC   C3B41925  13.930   2.060   6.943
 3183POPC   C4B41926  13.726   2.112   7.311
 3184POPC   NC341927  27.165  34.654   5.415
 3184POPC   PO441928  27.753  34.325   5.225
 3184POPC   GL141929  27.639  34.439   5.660
 3184POPC   GL241930  27.308  34.358   5.819
 3184POPC   C1A41931  27.668  34.721   6.032
 3184POPC   D2A41932  27.816  34.658   6.454
 3184POPC   C3A41933  27.816  34.690   6.892
 3184POPC   C4A41934  27.596  34.730   7.224
 3184POPC   C1B41935  27.452  34.286   6.266
 3184POPC   C2B41936  27.603  34.237   6.699
 3184POPC   C3B41937  27.538  34.235   7.133
 3184POPC   C4B41938  27.463  34.025   7.495
 3185POPC   NC341939   6.305  42.699   5.199
 3185POPC   PO441940   6.848  42.650   5.458
 3185POPC   GL141941   6.758  42.370   5.804
 3185POPC   GL241942   6.771  42.023   5.847
 3185POPC   C1A41943   6.543  42.389   6.236
 3185POPC   D2A41944   6.504  42.618   6.648
 3185POPC   C3A41945   6.594  42.322   7.006
 3185POPC   C4A41946   6.566  42.203   7.461
 3185POPC   C1B41947   7.017  42.186   6.199
 3185POPC   C2B41948   6.988  42.455   6.557
 3185POPC   C3B41949   7.122  42.370   6.965
 3185POPC   C4B41950   7.064  42.296   7.393
 3186POPC   NC341951  33.324   6.868   5.588
 3186POPC   PO441952  33.956   6.795   5.320
 3186POPC   GL141953  33.856   6.526   5.723
 3186POPC   GL241954  33.604   6.643   5.921
 3186POPC   C1A41955  34.007   6.589   6.195
 3186POPC   D2A41956  33.787   6.397   6.528
 3186POPC   C3A41957  33.836   6.532   6.940
 3186POPC   C4A41958  33.608   6.323   7.228
 3186POPC   C1B41959  33.681   6.993   6.213
 3186POPC   C2B41960  33.873   6.934   6.622
 3186POPC   C3B41961  33.731   7.023   7.064
 3186POPC   C4B41962  33.723   6.815   7.460
 3187POPC   NC341963  11.320   4.761   5.623
 3187POPC   PO441964  11.137   5.439   5.385
 3187POPC   GL141965  11.132   5.222   5.794
 3187POPC   GL241966  10.983   4.909   5.955
 3187POPC   C1A41967  11.400   5.194   6.172
 3187POPC   D2A41968  11.401   5.279   6.621
 3187POPC   C3A41969  11.552   5.068   6.977
 3187POPC   C4A41970  11.402   5.089   7.398
 3187POPC   C1B41971  10.916   5.120   6.325
 3187POPC   C2B41972  10.876   5.317   6.703
 3187POPC   C3B41973  11.040   5.214   7.081
 3187POPC   C4B41974  10.884   4.949   7.433
 3188POPC   NC341975  12.014  12.852   5.421
 3188POPC   PO441976  12.456  13.331   5.569
 3188POPC   GL141977  12.306  12.991   5.879
 3188POPC   GL241978  12.195  12.609   5.884
 3188POPC   C1A41979  12.290  12.960   6.333
 3188POPC   D2A41980  12.421  12.685   6.683
 3188POPC   C3A41981  12.353  12.919   7.031
 3188POPC   C4A41982  11.942  13.079   7.141
 3188POPC   C1B41983  11.848  12.736   6.210
 3188POPC   C2B41984  11.890  12.823   6.678
 3188POPC   C3B41985  11.960  12.576   7.074
 3188POPC   C4B41986  11.946  12.479   7.525
 3189POPC   NC341987  12.570  32.096   5.658
 3189POPC   PO441988  13.010  32.528   5.458
 3189POPC   GL141989  12.934  32.399   5.871
 3189POPC   GL241990  12.620  32.461   6.016
 3189POPC   C1A41991  13.043  32.269   6.275
 3189POPC   D2A41992  12.969  32.131   6.697
 3189POPC   C3A41993  12.966  32.343   7.091
 3189POPC   C4A41994  12.725  32.371   7.494
 3189POPC   C1B41995  12.529  32.160   6.375
 3189POPC   C2B41996  12.559  31.838   6.726
 3189POPC   C3B41997  12.567  32.022   7.141
 3189POPC   C4B41998  12.504  31.944   7.614
 3190POPC   NC341999  41.432  21.197   5.464
 3190POPC   PO442000  41.960  21.283   5.237
 3190POPC   GL142001  41.621  21.462   5.821
 3190POPC   GL242002  41.431  21.212   5.966
 3190POPC   C1A42003  41.646  21.668   6.219
 3190POPC   D2A42004  41.395  21.532   6.590
 3190POPC   C3A42005  41.549  21.582   7.025
 3190POPC   C4A42006  41.358  21.831   7.354
 3190POPC   C1B42007  41.671  21.165   6.344
 3190POPC   C2B42008  41.648  21.094   6.772
 3190POPC   C3B42009  41.629  21.111   7.187
 3190POPC   C4B42010  41.580  21.169   7.567
 3191POPC   NC342011  35.837  18.717   5.597
 3191POPC   PO442012  36.320  19.128   5.258
 3191POPC   GL142013  36.190  19.129   5.726
 3191POPC   GL242014  35.854  19.110   5.898
 3191POPC   C1A42015  36.272  18.916   6.143
 3191POPC   D2A42016  36.507  19.039   6.520
 3191POPC   C3A42017  36.367  18.919   6.908
 3191POPC   C4A42018  36.300  19.003   7.328
 3191POPC   C1B42019  35.775  18.978   6.293
 3191POPC   C2B42020  35.963  18.821   6.618
 3191POPC   C3B42021  35.867  18.955   7.026
 3191POPC   C4B42022  35.611  18.697   7.206
 3192POPC   NC342023  18.956  39.404   5.399
 3192POPC   PO442024  19.351  38.836   5.445
 3192POPC   GL142025  19.056  39.034   5.786
 3192POPC   GL242026  18.944  39.417   5.904
 3192POPC   C1A42027  19.069  39.060   6.222
 3192POPC   D2A42028  19.042  39.312   6.592
 3192POPC   C3A42029  19.135  39.064   6.953
 3192POPC   C4A42030  18.915  38.916   7.285
 3192POPC   C1B42031  19.306  39.525   6.195
 3192POPC   C2B42032  19.494  39.545   6.643
 3192POPC   C3B42033  19.200  39.587   7.034
 3192POPC   C4B42034  19.144  39.346   7.450
 3193POPC   NC342035  41.324  31.041   5.436
 3193POPC   PO442036  41.625  31.683   5.447
 3193POPC   GL142037  41.410  31.443   5.757
 3193POPC   GL242038  41.642  31.173   5.798
 3193POPC   C1A42039  41.408  31.558   6.177
 3193POPC   D2A42040  41.543  31.369   6.525
 3193POPC   C3A42041  41.402  31.524   6.891
 3193POPC   C4A42042  41.590  31.558   7.277
 3193POPC   C1B42043  41.895  31.376   6.097
 3193POPC   C2B42044  42.049  31.430   6.515
 3193POPC   C3B42045  41.897  31.327   6.908
 3193POPC   C4B42046  42.061  31.358   7.291
 3194POPC   NC342047  10.091  36.127   5.370
 3194POPC   PO442048  10.630  36.426   5.242
 3194POPC   GL142049  10.701  36.251   5.698
 3194POPC   GL242050  10.583  35.898   5.731
 3194POPC   C1A42051  10.699  36.285   6.206
 3194POPC   D2A42052  10.514  36.247   6.676
 3194POPC   C3A42053  10.749  36.124   7.086
 3194POPC   C4A42054  10.682  36.331   7.535
 3194POPC   C1B42055  10.742  35.731   6.147
 3194POPC   C2B42056  10.756  35.772   6.606
 3194POPC   C3B42057  10.611  35.640   7.027
 3194POPC   C4B42058  10.510  35.823   7.478
 3195POPC   NC342059  11.937  27.989   5.356
 3195POPC   PO442060  12.232  27.456   5.679
 3195POPC   GL142061  12.230  27.804   5.920
 3195POPC   GL242062  11.884  27.838   5.837
 3195POPC   C1A42063  12.290  27.789   6.388
 3195POPC   D2A42064  12.508  27.573   6.720
 3195POPC   C3A42065  12.274  27.282   6.948
 3195POPC   C4A42066  12.058  27.431   7.279
 3195POPC   C1B42067  11.622  27.852   6.170
 3195POPC   C2B42068  11.715  27.929   6.578
 3195POPC   C3B42069  11.979  27.744   6.860
 3195POPC   C4B42070  11.793  27.861   7.236
 3196POPC   NC342071  43.432  29.976   5.448
 3196POPC   PO442072  42.770  30.038   5.405
 3196POPC   GL142073  43.020  29.892   5.750
 3196POPC   GL242074  43.204  29.565   5.744
 3196POPC   C1A42075  43.248  29.970   6.135
 3196POPC   D2A42076  43.065  29.904   6.535
 3196POPC   C3A42077  43.202  30.077   6.901
 3196POPC   C4A42078  42.956  30.052   7.268
 3196POPC   C1B42079  42.888  29.567   6.131
 3196POPC   C2B42080  42.813  29.452   6.592
 3196POPC   C3B42081  42.923  29.572   7.052
 3196POPC   C4B42082  42.813  29.558   7.521
 3197POPC   NC342083  33.301   6.932   5.077
 3197POPC   PO442084  33.091   6.448   5.552
 3197POPC   GL142085  33.074   6.583   5.953
 3197POPC   GL242086  33.253   6.298   6.070
 3197POPC   C1A42087  32.863   6.581   6.350
 3197POPC   D2A42088  33.027   6.501   6.769
 3197POPC   C3A42089  32.807   6.690   7.099
 3197POPC   C4A42090  32.477   6.742   7.358
 3197POPC   C1B42091  33.364   6.634   6.376
 3197POPC   C2B42092  33.361   6.914   6.724
 3197POPC   C3B42093  33.311   6.730   7.145
 3197POPC   C4B42094  33.117   6.329   7.324
 3198POPC   NC342095  27.368  25.549   5.432
 3198POPC   PO442096  27.747  24.935   5.392
 3198POPC   GL142097  27.633  25.137   5.746
 3198POPC   GL242098  27.485  24.867   5.875
 3198POPC   C1A42099  27.518  25.410   6.064
 3198POPC   D2A42100  27.575  25.280   6.472
 3198POPC   C3A42101  27.640  25.538   6.805
 3198POPC   C4A42102  27.723  25.401   7.185
 3198POPC   C1B42103  27.227  24.832   6.236
 3198POPC   C2B42104  27.215  24.967   6.669
 3198POPC   C3B42105  27.191  24.792   7.058
 3198POPC   C4B42106  27.561  24.924   7.249
 3199POPC   NC342107  34.307  11.936   5.351
 3199POPC   PO442108  34.898  12.094   5.588
 3199POPC   GL142109  34.664  12.328   5.877
 3199POPC   GL242110  34.366  12.137   5.899
 3199POPC   C1A42111  34.717  12.165   6.282
 3199POPC   D2A42112  34.682  11.910   6.624
 3199POPC   C3A42113  34.515  12.081   6.998
 3199POPC   C4A42114  34.744  12.367   7.302
 3199POPC   C1B42115  34.248  11.934   6.311
 3199POPC   C2B42116  34.278  11.605   6.602
 3199POPC   C3B42117  34.234  11.579   6.984
 3199POPC   C4B42118  34.027  11.875   7.159
 3200POPC   NC342119   5.619  17.486   5.354
 3200POPC   PO442120   6.147  17.874   5.450
 3200POPC   GL142121   5.830  17.764   5.749
 3200POPC   GL242122   5.912  17.428   5.792
 3200POPC   C1A42123   5.799  17.791   6.187
 3200POPC   D2A42124   6.051  17.873   6.538
 3200POPC   C3A42125   6.015  17.715   6.945
 3200POPC   C4A42126   6.225  17.720   7.359
 3200POPC   C1B42127   5.768  17.250   6.161
 3200POPC   C2B42128   5.844  17.284   6.610
 3200POPC   C3B42129   5.682  17.309   7.030
 3200POPC   C4B42130   5.817  17.150   7.427
 3201POPC   NC342131  34.616  42.538   5.291
 3201POPC   PO442132  34.563  43.193   5.250
 3201POPC   GL142133  34.566  43.179   5.701
 3201POPC   GL242134  34.218  43.149   5.793
 3201POPC   C1A42135  34.673  43.029   6.142
 3201POPC   D2A42136  34.891  43.266   6.449
 3201POPC   C3A42137  34.756  43.368   6.865
 3201POPC   C4A42138  34.783  43.163   7.270
 3201POPC   C1B42139  34.202  43.178   6.249
 3201POPC   C2B42140  34.375  43.103   6.660
 3201POPC   C3B42141  34.281  43.236   7.096
 3201POPC   C4B42142  34.328  42.955   7.460
 3202POPC   NC342143   6.106  12.061   5.481
 3202POPC   PO442144   5.409  11.803   5.412
 3202POPC   GL142145   5.622  11.962   5.785
 3202POPC   GL242146   5.879  11.726   5.809
 3202POPC   C1A42147   5.766  11.970   6.243
 3202POPC   D2A42148   5.921  12.236   6.577
 3202POPC   C3A42149   5.722  12.059   6.865
 3202POPC   C4A42150   5.756  12.010   7.241
 3202POPC   C1B42151   6.254  11.813   6.103
 3202POPC   C2B42152   6.333  11.959   6.519
 3202POPC   C3B42153   6.212  11.867   6.975
 3202POPC   C4B42154   6.141  11.728   7.401
 3203POPC   NC342155  36.578  16.937   5.460
 3203POPC   PO442156  37.203  16.725   5.395
 3203POPC   GL142157  36.976  16.960   5.786
 3203POPC   GL242158  36.625  16.922   5.962
 3203POPC   C1A42159  37.050  16.964   6.243
 3203POPC   D2A42160  37.083  16.819   6.671
 3203POPC   C3A42161  37.269  17.003   7.010
 3203POPC   C4A42162  37.032  16.814   7.312
 3203POPC   C1B42163  36.751  16.525   6.196
 3203POPC   C2B42164  36.830  16.372   6.623
 3203POPC   C3B42165  36.675  16.473   7.038
 3203POPC   C4B42166  36.521  16.825   7.267
 3204POPC   NC342167  29.795  19.208   5.370
 3204POPC   PO442168  30.397  19.084   5.501
 3204POPC   GL142169  30.065  19.230   5.807
 3204POPC   GL242170  29.803  18.971   5.830
 3204POPC   C1A42171  29.855  19.296   6.226
 3204POPC   D2A42172  30.076  19.382   6.628
 3204POPC   C3A42173  29.937  19.296   7.076
 3204POPC   C4A42174  30.171  19.314   7.488
 3204POPC   C1B42175  29.849  18.797   6.270
 3204POPC   C2B42176  29.880  18.911   6.719
 3204POPC   C3B42177  29.772  18.800   7.166
 3204POPC   C4B42178  29.942  18.416   7.402
 3205POPC   NC342179  37.415  17.106   5.575
 3205POPC   PO442180  37.721  17.695   5.451
 3205POPC   GL142181  37.544  17.585   5.823
 3205POPC   GL242182  37.742  17.289   5.919
 3205POPC   C1A42183  37.314  17.446   6.176
 3205POPC   D2A42184  37.254  17.329   6.587
 3205POPC   C3A42185  37.598  17.423   6.845
 3205POPC   C4A42186  37.478  17.422   7.260
 3205POPC   C1B42187  37.848  17.440   6.333
 3205POPC   C2B42188  38.069  17.244   6.677
 3205POPC   C3B42189  38.085  17.399   7.110
 3205POPC   C4B42190  37.931  17.286   7.489
 3206POPC   NC342191  32.549  37.898   5.574
 3206POPC   PO442192  32.299  38.399   5.249
 3206POPC   GL142193  32.235  38.329   5.711
 3206POPC   GL242194  31.929  38.173   5.680
 3206POPC   C1A42195  32.356  38.352   6.186
 3206POPC   D2A42196  32.424  38.498   6.605
 3206POPC   C3A42197  32.270  38.410   7.001
 3206POPC   C4A42198  32.124  38.639   7.433
 3206POPC   C1B42199  31.892  38.184   6.129
 3206POPC   C2B42200  32.052  38.065   6.536
 3206POPC   C3B42201  31.851  38.095   6.953
 3206POPC   C4B42202  32.068  38.128   7.355
 3207POPC   NC342203   6.426   3.411   5.617
 3207POPC   PO442204   7.007   3.537   5.200
 3207POPC   GL142205   6.893   3.312   5.677
 3207POPC   GL242206   7.088   3.119   5.764
 3207POPC   C1A42207   6.697   3.563   6.145
 3207POPC   D2A42208   6.354   3.436   6.444
 3207POPC   C3A42209   6.335   3.405   6.892
 3207POPC   C4A42210   6.626   3.562   7.197
 3207POPC   C1B42211   6.808   3.092   6.161
 3207POPC   C2B42212   6.612   3.009   6.581
 3207POPC   C3B42213   6.711   3.088   7.043
 3207POPC   C4B42214   6.548   3.146   7.498
 3208POPC   NC342215  29.496   0.690   5.299
 3208POPC   PO442216  28.874   0.383   5.203
 3208POPC   GL142217  28.924   0.338   5.730
 3208POPC   GL242218  29.302   0.367   5.824
 3208POPC   C1A42219  28.974   0.488   6.188
 3208POPC   D2A42220  29.117   0.752   6.521
 3208POPC   C3A42221  29.037   0.626   6.951
 3208POPC   C4A42222  28.915   0.323   7.257
 3208POPC   C1B42223  29.485   0.736   6.104
 3208POPC   C2B42224  29.533   1.052   6.469
 3208POPC   C3B42225  29.436   0.933   6.897
 3208POPC   C4B42226  29.422   0.674   7.296
 3209POPC   NC342227  16.159  10.293   5.455
 3209POPC   PO442228  16.440  10.865   5.668
 3209POPC   GL142229  16.297  10.538   5.882
 3209POPC   GL242230  15.962  10.471   5.882
 3209POPC   C1A42231  16.272  10.306   6.252
 3209POPC   D2A42232  16.063  10.248   6.631
 3209POPC   C3A42233  16.254  10.362   6.975
 3209POPC   C4A42234  15.886  10.497   7.209
 3209POPC   C1B42235  15.737  10.386   6.245
 3209POPC   C2B42236  15.469  10.313   6.597
 3209POPC   C3B42237  15.525  10.170   7.013
 3209POPC   C4B42238  15.421  10.326   7.411
 3210POPC   NC342239  42.764  16.815   5.334
 3210POPC   PO442240  43.230  16.348   5.351
 3210POPC   GL142241  43.146  16.519   5.775
 3210POPC   GL242242  43.097  16.867   5.744
 3210POPC   C1A42243  43.262  16.635   6.204
 3210POPC   D2A42244  43.462  16.885   6.538
 3210POPC   C3A42245  43.347  16.749   6.971
 3210POPC   C4A42246  43.006  16.418   7.098
 3210POPC   C1B42247  42.790  16.740   6.072
 3210POPC   C2B42248  42.922  16.896   6.471
 3210POPC   C3B42249  42.854  16.846   6.864
 3210POPC   C4B42250  42.930  17.019   7.239
 3211POPC   NC342251   1.745  39.282   5.265
 3211POPC   PO442252   1.198  39.006   5.432
 3211POPC   GL142253   1.149  39.269   5.769
 3211POPC   GL242254   1.466  39.436   5.702
 3211POPC   C1A42255   1.041  39.293   6.195
 3211POPC   D2A42256   0.936  39.256   6.616
 3211POPC   C3A42257   1.230  39.478   6.881
 3211POPC   C4A42258   1.169  39.447   7.304
 3211POPC   C1B42259   1.554  39.407   6.151
 3211POPC   C2B42260   1.729  39.323   6.581
 3211POPC   C3B42261   1.859  39.624   6.894
 3211POPC   C4B42262   1.589  39.756   7.210
 3212POPC   NC342263  26.808   2.361   5.563
 3212POPC   PO442264  26.681   1.719   5.439
 3212POPC   GL142265  26.768   1.762   5.865
 3212POPC   GL242266  26.851   2.113   6.020
 3212POPC   C1A42267  26.633   1.752   6.299
 3212POPC   D2A42268  26.752   2.068   6.568
 3212POPC   C3A42269  26.628   1.949   6.962
 3212POPC   C4A42270  26.823   2.061   7.340
 3212POPC   C1B42271  27.128   1.781   6.211
 3212POPC   C2B42272  27.112   1.664   6.617
 3212POPC   C3B42273  27.112   1.777   7.021
 3212POPC   C4B42274  27.321   1.936   7.356
 3213POPC   NC342275  23.406  18.993   5.578
 3213POPC   PO442276  24.101  19.036   5.568
 3213POPC   GL142277  23.787  19.212   5.923
 3213POPC   GL242278  23.441  19.056   6.087
 3213POPC   C1A42279  23.683  19.413   6.332
 3213POPC   D2A42280  23.346  19.356   6.634
 3213POPC   C3A42281  23.552  19.259   7.023
 3213POPC   C4A42282  23.868  19.021   7.185
 3213POPC   C1B42283  23.607  18.682   6.214
 3213POPC   C2B42284  23.672  18.526   6.616
 3213POPC   C3B42285  23.467  18.746   6.957
 3213POPC   C4B42286  23.428  18.847   7.409
 3214POPC   NC342287  30.632  13.648   5.354
 3214POPC   PO442288  30.851  13.035   5.401
 3214POPC   GL142289  30.888  13.385   5.747
 3214POPC   GL242290  30.864  13.761   5.783
 3214POPC   C1A42291  30.628  13.449   6.147
 3214POPC   D2A42292  30.400  13.696   6.476
 3214POPC   C3A42293  30.525  13.639   6.921
 3214POPC   C4A42294  30.349  13.731   7.341
 3214POPC   C1B42295  30.857  13.898   6.193
 3214POPC   C2B42296  31.075  13.867   6.561
 3214POPC   C3B42297  30.970  13.862   6.981
 3214POPC   C4B42298  31.093  13.990   7.370
 3215POPC   NC342299  33.238  39.335   5.190
 3215POPC   PO442300  32.960  38.749   5.354
 3215POPC   GL142301  32.866  39.130   5.646
 3215POPC   GL242302  33.170  39.353   5.701
 3215POPC   C1A42303  32.742  39.123   6.128
 3215POPC   D2A42304  32.712  38.889   6.541
 3215POPC   C3A42305  32.774  39.043   6.964
 3215POPC   C4A42306  32.807  39.449   7.127
 3215POPC   C1B42307  33.238  39.260   6.129
 3215POPC   C2B42308  33.060  39.279   6.530
 3215POPC   C3B42309  33.243  39.361   6.898
 3215POPC   C4B42310  33.250  39.070   7.228
 3216POPC   NC342311   4.695  38.813   5.584
 3216POPC   PO442312   5.190  39.195   5.360
 3216POPC   GL142313   5.177  39.422   5.761
 3216POPC   GL242314   4.905  39.226   5.883
 3216POPC   C1A42315   5.215  39.431   6.229
 3216POPC   D2A42316   4.973  39.255   6.563
 3216POPC   C3A42317   5.097  39.392   6.976
 3216POPC   C4A42318   5.200  39.292   7.392
 3216POPC   C1B42319   4.669  38.956   6.189
 3216POPC   C2B42320   4.748  38.777   6.562
 3216POPC   C3B42321   4.843  38.932   6.960
 3216POPC   C4B42322   4.740  38.805   7.351
 3217POPC   NC342323  25.881  26.120   5.720
 3217POPC   PO442324  26.462  25.948   5.504
 3217POPC   GL142325  26.372  25.926   5.913
 3217POPC   GL242326  26.537  25.611   5.993
 3217POPC   C1A42327  26.237  26.138   6.301
 3217POPC   D2A42328  26.196  26.365   6.680
 3217POPC   C3A42329  25.963  26.134   6.960
 3217POPC   C4A42330  26.042  26.014   7.340
 3217POPC   C1B42331  26.243  25.636   6.320
 3217POPC   C2B42332  26.291  25.784   6.713
 3217POPC   C3B42333  26.483  25.604   7.047
 3217POPC   C4B42334  26.448  25.745   7.450
 3218POPC   NC342335   4.182  41.760   5.342
 3218POPC   PO442336   4.361  41.133   5.392
 3218POPC   GL142337   4.234  41.384   5.732
 3218POPC   GL242338   4.517  41.598   5.697
 3218POPC   C1A42339   4.232  41.587   6.158
 3218POPC   D2A42340   4.051  41.517   6.589
 3218POPC   C3A42341   4.171  41.407   7.014
 3218POPC   C4A42342   3.935  41.377   7.424
 3218POPC   C1B42343   4.743  41.495   6.090
 3218POPC   C2B42344   4.606  41.484   6.519
 3218POPC   C3B42345   4.529  41.757   6.855
 3218POPC   C4B42346   4.621  41.653   7.263
 3219POPC   NC342347  13.513  31.912   5.382
 3219POPC   PO442348  13.822  32.529   5.393
 3219POPC   GL142349  13.756  32.232   5.731
 3219POPC   GL242350  13.395  32.169   5.808
 3219POPC   C1A42351  13.856  32.114   6.164
 3219POPC   D2A42352  13.861  32.355   6.553
 3219POPC   C3A42353  13.859  32.169   6.950
 3219POPC   C4A42354  13.838  32.380   7.328
 3219POPC   C1B42355  13.376  31.899   6.171
 3219POPC   C2B42356  13.476  32.029   6.571
 3219POPC   C3B42357  13.366  32.021   6.999
 3219POPC   C4B42358  13.350  32.209   7.420
 3220POPC   NC342359   7.559  41.503   5.555
 3220POPC   PO442360   7.041  41.925   5.405
 3220POPC   GL142361   7.196  41.745   5.824
 3220POPC   GL242362   6.967  41.509   5.827
 3220POPC   C1A42363   7.367  41.493   6.222
 3220POPC   D2A42364   7.293  41.578   6.687
 3220POPC   C3A42365   7.635  41.433   7.015
 3220POPC   C4A42366   7.732  41.518   7.478
 3220POPC   C1B42367   6.899  41.683   6.256
 3220POPC   C2B42368   6.864  41.953   6.645
 3220POPC   C3B42369   6.948  41.893   7.078
 3220POPC   C4B42370   7.193  41.540   7.213
 3221POPC   NC342371  26.892  43.148   5.451
 3221POPC   PO442372  26.332  43.080   5.762
 3221POPC   GL142373  26.726  43.052   5.941
 3221POPC   GL242374  26.951  42.789   5.818
 3221POPC   C1A42375  26.791  43.263   6.327
 3221POPC   D2A42376  26.789  43.477   6.725
 3221POPC   C3A42377  26.505  43.242   6.970
 3221POPC   C4A42378  26.580  43.137   7.374
 3221POPC   C1B42379  27.128  42.860   6.237
 3221POPC   C2B42380  27.054  42.973   6.694
 3221POPC   C3B42381  26.911  42.741   7.114
 3221POPC   C4B42382  27.106  42.876   7.517
 3222POPC   NC342383   5.945   5.201   5.492
 3222POPC   PO442384   5.336   4.932   5.293
 3222POPC   GL142385   5.538   4.923   5.749
 3222POPC   GL242386   5.742   5.222   5.947
 3222POPC   C1A42387   5.624   4.845   6.227
 3222POPC   D2A42388   5.728   5.213   6.531
 3222POPC   C3A42389   5.752   5.089   6.973
 3222POPC   C4A42390   5.931   4.808   7.281
 3222POPC   C1B42391   6.127   5.353   6.128
 3222POPC   C2B42392   6.253   5.507   6.514
 3222POPC   C3B42393   6.175   5.358   6.917
 3222POPC   C4B42394   6.330   5.198   7.300
 3223POPC   NC342395  44.852  37.881   5.063
 3223POPC   PO442396  44.587  37.321   5.399
 3223POPC   GL142397  44.721  37.684   5.645
 3223POPC   GL242398  44.582  37.481   5.885
 3223POPC   C1A42399  44.755  37.906   6.088
 3223POPC   D2A42400  44.493  37.883   6.490
 3223POPC   C3A42401  44.637  37.930   6.913
 3223POPC   C4A42402  44.957  37.830   7.227
 3223POPC   C1B42403  44.654  37.421   6.279
 3223POPC   C2B42404  44.539  37.394   6.669
 3223POPC   C3B42405  44.697  37.426   7.068
 3223POPC   C4B42406  44.802  37.433   7.538
 3224POPC   NC342407   9.261   3.710   5.622
 3224POPC   PO442408   8.679   3.395   5.451
 3224POPC   GL142409   8.917   3.388   5.844
 3224POPC   GL242410   9.248   3.241   5.859
 3224POPC   C1A42411   8.949   3.588   6.254
 3224POPC   D2A42412   8.957   3.687   6.686
 3224POPC   C3A42413   9.048   3.402   7.027
 3224POPC   C4A42414   8.882   3.590   7.401
 3224POPC   C1B42415   9.435   3.453   6.189
 3224POPC   C2B42416   9.379   3.380   6.609
 3224POPC   C3B42417   9.442   3.719   6.874
 3224POPC   C4B42418   9.420   3.775   7.284
 3225POPC   NC342419  23.561  19.783   5.527
 3225POPC   PO442420  24.176  19.880   5.708
 3225POPC   GL142421  23.894  19.765   5.984
 3225POPC   GL242422  23.664  20.040   5.944
 3225POPC   C1A42423  24.005  19.900   6.408
 3225POPC   D2A42424  24.033  20.239   6.711
 3225POPC   C3A42425  23.808  20.109   7.075
 3225POPC   C4A42426  23.815  19.655   7.208
 3225POPC   C1B42427  23.494  19.892   6.294
 3225POPC   C2B42428  23.600  19.797   6.700
 3225POPC   C3B42429  23.354  19.737   7.006
 3225POPC   C4B42430  23.323  20.041   7.269
 3226POPC   NC342431  29.955  34.699   5.597
 3226POPC   PO442432  30.028  34.047   5.683
 3226POPC   GL142433  30.056  34.405   5.999
 3226POPC   GL242434  29.797  34.678   6.064
 3226POPC   C1A42435  30.160  34.558   6.411
 3226POPC   D2A42436  30.315  34.415   6.787
 3226POPC   C3A42437  30.024  34.301   7.086
 3226POPC   C4A42438  29.848  34.637   7.323
 3226POPC   C1B42439  29.604  34.368   6.286
 3226POPC   C2B42440  29.688  34.260   6.699
 3226POPC   C3B42441  29.500  34.304   7.073
 3226POPC   C4B42442  29.345  34.679   7.188
 3227POPC   NC342443   4.454   9.432   5.301
 3227POPC   PO442444   4.154   9.985   5.148
 3227POPC   GL142445   4.387   9.895   5.622
 3227POPC   GL242446   4.327   9.525   5.768
 3227POPC   C1A42447   4.304   9.898   6.117
 3227POPC   D2A42448   4.244  10.038   6.576
 3227POPC   C3A42449   4.198   9.755   6.935
 3227POPC   C4A42450   4.255   9.880   7.353
 3227POPC   C1B42451   4.397   9.372   6.166
 3227POPC   C2B42452   4.475   9.591   6.525
 3227POPC   C3B42453   4.702   9.812   6.836
 3227POPC   C4B42454   4.614   9.546   7.164
 3228POPC   NC342455  40.770  30.248   5.429
 3228POPC   PO442456  40.495  29.668   5.618
 3228POPC   GL142457  40.689  29.997   5.905
 3228POPC   GL242458  40.949  30.314   5.901
 3228POPC   C1A42459  40.465  30.057   6.291
 3228POPC   D2A42460  40.538  30.198   6.700
 3228POPC   C3A42461  40.864  29.933   6.842
 3228POPC   C4A42462  40.802  29.855   7.258
 3228POPC   C1B42463  40.916  30.283   6.351
 3228POPC   C2B42464  41.011  30.449   6.745
 3228POPC   C3B42465  40.854  30.348   7.129
 3228POPC   C4B42466  41.024  30.345   7.532
 3229POPC   NC342467  40.353   6.512   5.689
 3229POPC   PO442468  40.744   6.932   5.322
 3229POPC   GL142469  40.932   6.712   5.710
 3229POPC   GL242470  40.711   6.618   6.007
 3229POPC   C1A42471  41.152   6.789   6.107
 3229POPC   D2A42472  40.880   6.777   6.476
 3229POPC   C3A42473  40.971   6.735   6.888
 3229POPC   C4A42474  40.915   6.426   7.202
 3229POPC   C1B42475  40.380   6.702   6.326
 3229POPC   C2B42476  40.263   6.619   6.742
 3229POPC   C3B42477  40.480   6.700   7.143
 3229POPC   C4B42478  40.578   6.534   7.565
 3230POPC   NC342479  26.090  24.873   5.381
 3230POPC   PO442480  26.226  24.159   5.533
 3230POPC   GL142481  26.213  24.520   5.762
 3230POPC   GL242482  25.881  24.492   5.853
 3230POPC   C1A42483  26.255  24.701   6.180
 3230POPC   D2A42484  26.396  24.797   6.610
 3230POPC   C3A42485  26.195  24.614   6.991
 3230POPC   C4A42486  26.108  24.788   7.366
 3230POPC   C1B42487  26.088  24.228   6.180
 3230POPC   C2B42488  26.033  24.396   6.562
 3230POPC   C3B42489  25.770  24.333   6.898
 3230POPC   C4B42490  25.773  24.427   7.289
 3231POPC   NC342491  42.117  30.497   5.183
 3231POPC   PO442492  42.490  30.918   5.443
 3231POPC   GL142493  42.369  30.782   5.814
 3231POPC   GL242494  42.101  30.962   5.817
 3231POPC   C1A42495  42.535  30.709   6.215
 3231POPC   D2A42496  42.432  30.434   6.565
 3231POPC   C3A42497  42.451  30.556   6.996
 3231POPC   C4A42498  42.296  30.262   7.318
 3231POPC   C1B42499  41.936  30.866   6.205
 3231POPC   C2B42500  41.784  30.905   6.628
 3231POPC   C3B42501  41.952  30.811   7.040
 3231POPC   C4B42502  41.882  30.918   7.457
 3232POPC   NC342503  11.051  35.859   5.318
 3232POPC   PO442504  11.138  36.519   5.546
 3232POPC   GL142505  11.318  36.261   5.848
 3232POPC   GL242506  11.466  35.970   5.691
 3232POPC   C1A42507  11.193  36.148   6.255
 3232POPC   D2A42508  11.029  36.215   6.630
 3232POPC   C3A42509  11.300  36.205   6.926
 3232POPC   C4A42510  11.206  36.198   7.309
 3232POPC   C1B42511  11.267  35.715   6.034
 3232POPC   C2B42512  11.266  35.699   6.522
 3232POPC   C3B42513  11.126  35.734   6.992
 3232POPC   C4B42514  10.934  35.535   7.389
 3233POPC   NC342515  22.336  34.280   5.443
 3233POPC   PO442516  21.809  34.807   5.556
 3233POPC   GL142517  21.949  34.437   5.771
 3233POPC   GL242518  22.281  34.578   5.849
 3233POPC   C1A42519  22.044  34.286   6.191
 3233POPC   D2A42520  22.252  34.471   6.554
 3233POPC   C3A42521  22.189  34.242   6.956
 3233POPC   C4A42522  22.041  34.403   7.311
 3233POPC   C1B42523  22.104  34.833   6.184
 3233POPC   C2B42524  22.190  35.001   6.587
 3233POPC   C3B42525  22.085  34.775   6.949
 3233POPC   C4B42526  21.787  34.834   7.246
 3234POPC   NC342527  18.442  10.894   5.172
 3234POPC   PO442528  18.276  10.328   5.480
 3234POPC   GL142529  18.302  10.563   5.868
 3234POPC   GL242530  18.396  10.904   5.779
 3234POPC   C1A42531  18.085  10.476   6.252
 3234POPC   D2A42532  17.856  10.466   6.657
 3234POPC   C3A42533  18.198  10.376   6.916
 3234POPC   C4A42534  18.184  10.538   7.307
 3234POPC   C1B42535  18.423  11.005   6.221
 3234POPC   C2B42536  18.238  10.816   6.597
 3234POPC   C3B42537  18.097  10.928   6.986
 3234POPC   C4B42538  18.401  11.021   7.311
 3235POPC   NC342539  33.340   5.261   5.029
 3235POPC   PO442540  33.883   5.021   5.427
 3235POPC   GL142541  34.066   4.920   5.827
 3235POPC   GL242542  33.733   5.069   5.933
 3235POPC   C1A42543  34.045   4.804   6.254
 3235POPC   D2A42544  33.684   4.970   6.453
 3235POPC   C3A42545  33.691   5.037   6.872
 3235POPC   C4A42546  33.794   5.099   7.281
 3235POPC   C1B42547  34.034   5.307   6.194
 3235POPC   C2B42548  33.972   5.396   6.585
 3235POPC   C3B42549  34.156   5.349   6.951
 3235POPC   C4B42550  34.108   5.491   7.355
 3236POPC   NC342551  18.705  34.759   5.448
 3236POPC   PO442552  19.254  34.432   5.327
 3236POPC   GL142553  19.141  34.669   5.722
 3236POPC   GL242554  18.899  34.409   5.816
 3236POPC   C1A42555  19.129  34.736   6.198
 3236POPC   D2A42556  18.894  34.730   6.621
 3236POPC   C3A42557  19.089  34.797   7.043
 3236POPC   C4A42558  19.543  34.847   7.215
 3236POPC   C1B42559  18.923  34.179   6.214
 3236POPC   C2B42560  19.034  34.239   6.648
 3236POPC   C3B42561  18.847  34.335   7.041
 3236POPC   C4B42562  18.752  34.275   7.482
 3237POPC   NC342563  42.928  28.668   5.094
 3237POPC   PO442564  42.614  28.090   5.377
 3237POPC   GL142565  42.850  28.237   5.781
 3237POPC   GL242566  43.175  28.431   5.751
 3237POPC   C1A42567  42.883  28.434   6.215
 3237POPC   D2A42568  43.084  28.448   6.656
 3237POPC   C3A42569  42.893  28.383   7.093
 3237POPC   C4A42570  42.913  28.598   7.511
 3237POPC   C1B42571  43.320  28.173   6.119
 3237POPC   C2B42572  43.497  28.152   6.579
 3237POPC   C3B42573  43.392  28.247   7.029
 3237POPC   C4B42574  43.367  28.361   7.483
 3238POPC   NC342575   9.551  18.402   5.550
 3238POPC   PO442576  10.066  17.977   5.580
 3238POPC   GL142577   9.881  18.209   5.919
 3238POPC   GL242578   9.999  18.554   5.913
 3238POPC   C1A42579   9.647  18.346   6.282
 3238POPC   D2A42580   9.809  18.473   6.696
 3238POPC   C3A42581   9.778  18.244   7.078
 3238POPC   C4A42582   9.362  18.273   7.209
 3238POPC   C1B42583  10.156  18.399   6.332
 3238POPC   C2B42584  10.326  18.482   6.746
 3238POPC   C3B42585  10.107  18.673   7.063
 3238POPC   C4B42586  10.063  18.558   7.452
 3239POPC   NC342587  29.365  27.793   5.417
 3239POPC   PO442588  29.411  27.118   5.353
 3239POPC   GL142589  29.324  27.387   5.767
 3239POPC   GL242590  29.510  27.677   5.877
 3239POPC   C1A42591  29.060  27.530   6.159
 3239POPC   D2A42592  29.138  27.303   6.557
 3239POPC   C3A42593  29.227  27.486   6.958
 3239POPC   C4A42594  28.968  27.732   7.188
 3239POPC   C1B42595  29.541  27.526   6.273
 3239POPC   C2B42596  29.347  27.801   6.570
 3239POPC   C3B42597  29.346  27.996   6.961
 3239POPC   C4B42598  29.416  27.838   7.380
 3240POPC   NC342599   1.086  14.004   5.188
 3240POPC   PO442600   1.008  13.505   5.644
 3240POPC   GL142601   1.150  13.651   6.001
 3240POPC   GL242602   1.344  13.934   5.880
 3240POPC   C1A42603   1.465  13.554   6.282
 3240POPC   D2A42604   1.596  13.336   6.651
 3240POPC   C3A42605   1.216  13.329   6.880
 3240POPC   C4A42606   1.123  13.247   7.321
 3240POPC   C1B42607   1.131  14.159   6.235
 3240POPC   C2B42608   1.176  14.128   6.660
 3240POPC   C3B42609   1.420  13.867   6.872
 3240POPC   C4B42610   1.269  13.727   7.213
 3241POPC   NC342611  26.830  35.270   5.432
 3241POPC   PO442612  26.206  35.129   5.643
 3241POPC   GL142613  26.607  35.271   5.889
 3241POPC   GL242614  26.889  35.539   5.860
 3241POPC   C1A42615  26.993  35.192   6.211
 3241POPC   D2A42616  27.050  35.338   6.657
 3241POPC   C3A42617  26.981  35.041   7.011
 3241POPC   C4A42618  27.161  34.961   7.405
 3241POPC   C1B42619  26.679  35.577   6.277
 3241POPC   C2B42620  26.659  35.781   6.628
 3241POPC   C3B42621  26.491  35.647   6.981
 3241POPC   C4B42622  26.835  35.496   7.161
 3242POPC   NC342623  15.252   4.646   5.552
 3242POPC   PO442624  14.990   4.001   5.465
 3242POPC   GL142625  15.130   4.148   5.800
 3242POPC   GL242626  15.481   4.124   5.740
 3242POPC   C1A42627  14.954   4.194   6.208
 3242POPC   D2A42628  15.088   4.459   6.577
 3242POPC   C3A42629  14.988   4.154   6.867
 3242POPC   C4A42630  14.822   4.091   7.227
 3242POPC   C1B42631  15.425   4.337   6.158
 3242POPC   C2B42632  15.495   4.145   6.565
 3242POPC   C3B42633  15.446   4.310   6.960
 3242POPC   C4B42634  15.140   4.504   7.233
 3243POPC   NC342635  28.937  27.136   5.518
 3243POPC   PO442636  29.405  26.598   5.609
 3243POPC   GL142637  29.292  26.880   5.882
 3243POPC   GL242638  28.980  26.775   5.879
 3243POPC   C1A42639  29.203  26.829   6.318
 3243POPC   D2A42640  28.962  26.827   6.653
 3243POPC   C3A42641  29.251  26.967   6.956
 3243POPC   C4A42642  29.488  27.017   7.340
 3243POPC   C1B42643  28.791  27.099   6.176
 3243POPC   C2B42644  28.622  27.200   6.586
 3243POPC   C3B42645  28.789  27.229   7.010
 3243POPC   C4B42646  28.942  26.987   7.369
 3244POPC   NC342647  30.392  40.160   5.482
 3244POPC   PO442648  31.019  40.404   5.575
 3244POPC   GL142649  30.872  40.120   5.907
 3244POPC   GL242650  30.494  40.126   5.978
 3244POPC   C1A42651  30.848  40.033   6.361
 3244POPC   D2A42652  30.996  40.132   6.743
 3244POPC   C3A42653  30.897  40.014   7.176
 3244POPC   C4A42654  30.689  40.231   7.510
 3244POPC   C1B42655  30.372  39.854   6.329
 3244POPC   C2B42656  30.308  39.666   6.720
 3244POPC   C3B42657  30.340  39.869   7.108
 3244POPC   C4B42658  30.203  40.055   7.500
 3245POPC   NC342659   1.761  23.243   5.332
 3245POPC   PO442660   1.773  23.994   5.366
 3245POPC   GL142661   1.883  23.727   5.730
 3245POPC   GL242662   1.972  23.363   5.790
 3245POPC   C1A42663   2.038  23.851   6.155
 3245POPC   D2A42664   2.152  23.754   6.589
 3245POPC   C3A42665   1.951  23.924   6.945
 3245POPC   C4A42666   2.163  23.797   7.302
 3245POPC   C1B42667   1.669  23.486   6.127
 3245POPC   C2B42668   1.621  23.766   6.488
 3245POPC   C3B42669   1.560  23.609   6.891
 3245POPC   C4B42670   1.690  23.604   7.302
 3246POPC   NC342671  30.924  38.740   5.479
 3246POPC   PO442672  30.591  39.291   5.189
 3246POPC   GL142673  30.794  39.252   5.677
 3246POPC   GL242674  31.010  39.576   5.718
 3246POPC   C1A42675  30.745  39.114   6.178
 3246POPC   D2A42676  30.971  39.036   6.613
 3246POPC   C3A42677  30.807  38.973   7.048
 3246POPC   C4A42678  30.382  38.968   7.142
 3246POPC   C1B42679  30.756  39.622   6.060
 3246POPC   C2B42680  30.771  39.532   6.467
 3246POPC   C3B42681  30.851  39.637   6.829
 3246POPC   C4B42682  30.625  39.441   7.074
 3247POPC   NC342683  11.758  44.325   5.431
 3247POPC   PO442684  11.213  44.673   5.567
 3247POPC   GL142685  11.455  44.784   5.905
 3247POPC   GL242686  11.612  44.465   5.894
 3247POPC   C1A42687  11.466  44.719   6.354
 3247POPC   D2A42688  11.209  44.676   6.687
 3247POPC   C3A42689  11.301  44.849   7.102
 3247POPC   C4A42690  11.211  44.776   7.549
 3247POPC   C1B42691  11.653  44.234   6.238
 3247POPC   C2B42692  11.752  44.245   6.654
 3247POPC   C3B42693  11.530  44.411   6.982
 3247POPC   C4B42694  11.403  44.340   7.372
 3248POPC   NC342695   0.894  13.961   5.672
 3248POPC   PO442696   1.254  14.441   5.298
 3248POPC   GL142697   1.344  14.440   5.757
 3248POPC   GL242698   0.993  14.446   5.799
 3248POPC   C1A42699   1.514  14.500   6.205
 3248POPC   D2A42700   1.662  14.305   6.612
 3248POPC   C3A42701   1.465  14.480   6.940
 3248POPC   C4A42702   1.188  14.254   7.183
 3248POPC   C1B42703   1.031  14.712   6.146
 3248POPC   C2B42704   1.128  14.620   6.557
 3248POPC   C3B42705   0.826  14.448   6.870
 3248POPC   C4B42706   0.724  14.555   7.274
 3249POPC   NC342707  32.191  31.869   5.406
 3249POPC   PO442708  32.648  31.304   5.439
 3249POPC   GL142709  32.437  31.302   5.808
 3249POPC   GL242710  32.178  31.549   5.827
 3249POPC   C1A42711  32.244  31.199   6.210
 3249POPC   D2A42712  32.089  31.423   6.563
 3249POPC   C3A42713  32.193  31.231   6.947
 3249POPC   C4A42714  32.342  31.368   7.320
 3249POPC   C1B42715  31.969  31.763   6.163
 3249POPC   C2B42716  31.814  31.857   6.554
 3249POPC   C3B42717  31.962  31.975   6.925
 3249POPC   C4B42718  32.011  31.763   7.298
 3250POPC   NC342719  19.340  17.291   5.611
 3250POPC   PO442720  18.917  17.751   5.295
 3250POPC   GL142721  18.988  17.686   5.774
 3250POPC   GL242722  19.087  17.359   6.028
 3250POPC   C1A42723  18.880  17.784   6.216
 3250POPC   D2A42724  18.834  17.471   6.562
 3250POPC   C3A42725  19.012  17.558   6.963
 3250POPC   C4A42726  19.082  17.488   7.427
 3250POPC   C1B42727  19.490  17.196   6.254
 3250POPC   C2B42728  19.539  17.068   6.732
 3250POPC   C3B42729  19.464  17.312   7.135
 3250POPC   C4B42730  19.478  17.218   7.619
 3251POPC   NC342731  34.585  36.001   5.300
 3251POPC   PO442732  34.968  36.509   5.398
 3251POPC   GL142733  34.656  36.301   5.717
 3251POPC   GL242734  34.283  36.402   5.736
 3251POPC   C1A42735  34.546  36.242   6.169
 3251POPC   D2A42736  34.535  35.920   6.506
 3251POPC   C3A42737  34.286  36.011   6.886
 3251POPC   C4A42738  34.595  36.117   7.224
 3251POPC   C1B42739  34.068  36.479   6.152
 3251POPC   C2B42740  34.219  36.412   6.595
 3251POPC   C3B42741  34.274  36.492   7.073
 3251POPC   C4B42742  34.548  36.658   7.432
 3252POPC   NC342743  22.648  18.356   5.319
 3252POPC   PO442744  23.206  18.683   5.292
 3252POPC   GL142745  23.064  18.426   5.670
 3252POPC   GL242746  22.806  18.168   5.749
 3252POPC   C1A42747  23.077  18.558   6.126
 3252POPC   D2A42748  22.974  18.376   6.530
 3252POPC   C3A42749  23.016  18.473   6.947
 3252POPC   C4A42750  23.272  18.383   7.280
 3252POPC   C1B42751  22.942  18.040   6.143
 3252POPC   C2B42752  22.948  17.858   6.554
 3252POPC   C3B42753  22.989  17.944   6.979
 3252POPC   C4B42754  22.805  18.149   7.323
 3253POPC   NC342755  30.744  10.517   5.169
 3253POPC   PO442756  31.471  10.573   5.311
 3253POPC   GL142757  31.232  10.601   5.707
 3253POPC   GL242758  31.499  10.434   5.903
 3253POPC   C1A42759  31.067  10.536   6.134
 3253POPC   D2A42760  30.944  10.555   6.556
 3253POPC   C3A42761  31.254  10.483   6.868
 3253POPC   C4A42762  31.495  10.548   7.229
 3253POPC   C1B42763  31.471  10.358   6.389
 3253POPC   C2B42764  31.742  10.124   6.695
 3253POPC   C3B42765  31.780  10.102   7.155
 3253POPC   C4B42766  31.598  10.163   7.598
 3254POPC   NC342767  41.338  22.318   5.351
 3254POPC   PO442768  41.622  21.696   5.396
 3254POPC   GL142769  41.356  21.884   5.695
 3254POPC   GL242770  41.563  22.154   5.793
 3254POPC   C1A42771  41.233  21.951   6.140
 3254POPC   D2A42772  41.306  22.049   6.580
 3254POPC   C3A42773  41.692  21.996   6.757
 3254POPC   C4A42774  41.827  22.005   7.180
 3254POPC   C1B42775  41.676  22.226   6.238
 3254POPC   C2B42776  41.615  22.490   6.609
 3254POPC   C3B42777  41.560  22.437   7.056
 3254POPC   C4B42778  41.915  22.506   7.334
 3255POPC   NC342779   9.155   4.399   5.448
 3255POPC   PO442780   8.486   4.267   5.345
 3255POPC   GL142781   8.765   4.229   5.718
 3255POPC   GL242782   8.745   3.867   5.784
 3255POPC   C1A42783   8.961   4.217   6.143
 3255POPC   D2A42784   8.954   4.402   6.568
 3255POPC   C3A42785   9.144   4.238   6.957
 3255POPC   C4A42786   9.168   4.483   7.343
 3255POPC   C1B42787   8.540   3.903   6.198
 3255POPC   C2B42788   8.601   4.040   6.629
 3255POPC   C3B42789   8.673   3.999   7.093
 3255POPC   C4B42790   8.567   4.034   7.546
 3256POPC   NC342791  24.170  17.688   5.639
 3256POPC   PO442792  24.581  17.360   5.225
 3256POPC   GL142793  24.642  17.447   5.714
 3256POPC   GL242794  24.592  17.798   5.902
 3256POPC   C1A42795  24.810  17.447   6.156
 3256POPC   D2A42796  24.698  17.297   6.540
 3256POPC   C3A42797  24.769  17.501   6.906
 3256POPC   C4A42798  24.655  17.342   7.278
 3256POPC   C1B42799  24.336  17.594   6.292
 3256POPC   C2B42800  24.315  17.696   6.754
 3256POPC   C3B42801  24.284  17.676   7.238
 3256POPC   C4B42802  24.313  17.835   7.686
 3257POPC   NC342803   2.378  41.542   5.543
 3257POPC   PO442804   2.977  41.308   5.440
 3257POPC   GL142805   2.828  41.468   5.814
 3257POPC   GL242806   2.973  41.185   5.948
 3257POPC   C1A42807   2.598  41.504   6.202
 3257POPC   D2A42808   2.496  41.305   6.589
 3257POPC   C3A42809   2.594  41.568   6.934
 3257POPC   C4A42810   2.534  41.501   7.365
 3257POPC   C1B42811   3.022  41.268   6.382
 3257POPC   C2B42812   3.005  41.699   6.541
 3257POPC   C3B42813   3.108  41.883   6.934
 3257POPC   C4B42814   3.029  41.631   7.274
 3258POPC   NC342815  44.720  14.832   5.480
 3258POPC   PO442816  44.393  15.390   5.461
 3258POPC   GL142817  44.480  15.198   5.821
 3258POPC   GL242818  44.809  15.201   5.816
 3258POPC   C1A42819  44.525  15.228   6.252
 3258POPC   D2A42820  44.559  15.054   6.617
 3258POPC   C3A42821  44.382  15.289   6.925
 3258POPC   C4A42822  44.329  15.171   7.324
 3258POPC   C1B42823   0.009  15.106   6.178
 3258POPC   C2B42824  44.977  15.346   6.540
 3258POPC   C3B42825  44.917  15.183   6.937
 3258POPC   C4B42826  44.731  14.904   7.150
 3259POPC   NC342827   0.891   0.120   5.076
 3259POPC   PO442828   0.504   0.516   5.412
 3259POPC   GL142829   0.404   0.540   5.830
 3259POPC   GL242830   0.720   0.731   5.902
 3259POPC   C1A42831   0.238   0.355   6.241
 3259POPC   D2A42832   0.471   0.154   6.596
 3259POPC   C3A42833   0.341   0.201   7.023
 3259POPC   C4A42834   0.653   0.278   7.317
 3259POPC   C1B42835   0.718   0.530   6.327
 3259POPC   C2B42836   0.563   0.633   6.763
 3259POPC   C3B42837   0.768   0.743   7.153
 3259POPC   C4B42838   0.813   0.828   7.605
 3260POPC   NC342839  22.509  20.816   5.470
 3260POPC   PO442840  22.165  20.245   5.352
 3260POPC   GL142841  22.019  20.517   5.726
 3260POPC   GL242842  22.056  20.894   5.728
 3260POPC   C1A42843  22.097  20.505   6.195
 3260POPC   D2A42844  22.210  20.286   6.580
 3260POPC   C3A42845  22.371  20.348   6.964
 3260POPC   C4A42846  22.062  20.628   7.091
 3260POPC   C1B42847  22.301  20.965   6.097
 3260POPC   C2B42848  22.488  20.741   6.469
 3260POPC   C3B42849  22.487  20.861   6.919
 3260POPC   C4B42850  22.241  21.054   7.328
 3261POPC   NC342851  40.669  23.112   5.327
 3261POPC   PO442852  41.154  22.743   5.346
 3261POPC   GL142853  40.862  22.829   5.718
 3261POPC   GL242854  40.881  23.200   5.783
 3261POPC   C1A42855  40.819  22.814   6.183
 3261POPC   D2A42856  40.667  22.666   6.598
 3261POPC   C3A42857  40.835  22.904   6.920
 3261POPC   C4A42858  40.681  22.967   7.289
 3261POPC   C1B42859  40.782  23.321   6.184
 3261POPC   C2B42860  40.635  23.201   6.563
 3261POPC   C3B42861  40.794  23.403   6.915
 3261POPC   C4B42862  41.054  23.293   7.261
 3262POPC   NC342863  36.766  14.686   5.272
 3262POPC   PO442864  37.021  14.198   5.597
 3262POPC   GL142865  36.719  14.367   5.835
 3262POPC   GL242866  36.873  14.673   5.775
 3262POPC   C1A42867  36.668  14.262   6.245
 3262POPC   D2A42868  36.509  14.052   6.606
 3262POPC   C3A42869  36.822  14.142   6.920
 3262POPC   C4A42870  36.999  14.118   7.310
 3262POPC   C1B42871  36.967  14.693   6.203
 3262POPC   C2B42872  36.865  14.567   6.625
 3262POPC   C3B42873  36.977  14.625   7.066
 3262POPC   C4B42874  37.181  14.908   7.327
 3263POPC   NC342875  44.747  17.334   5.377
 3263POPC   PO442876  44.187  17.625   5.533
 3263POPC   GL142877  44.533  17.510   5.814
 3263POPC   GL242878  44.661  17.158   5.845
 3263POPC   C1A42879  44.681  17.544   6.229
 3263POPC   D2A42880  44.464  17.605   6.589
 3263POPC   C3A42881  44.729  17.585   6.900
 3263POPC   C4A42882  44.509  17.764   7.207
 3263POPC   C1B42883  44.782  17.028   6.240
 3263POPC   C2B42884  44.662  17.144   6.632
 3263POPC   C3B42885  44.477  17.106   7.008
 3263POPC   C4B42886  44.645  17.289   7.304
 3264POPC   NC342887  25.002  15.046   5.371
 3264POPC   PO442888  25.801  14.968   5.444
 3264POPC   GL142889  25.463  14.990   5.740
 3264POPC   GL242890  25.178  14.768   5.745
 3264POPC   C1A42891  25.460  15.196   6.139
 3264POPC   D2A42892  25.240  15.271   6.512
 3264POPC   C3A42893  25.248  15.567   6.862
 3264POPC   C4A42894  25.386  15.461   7.277
 3264POPC   C1B42895  25.010  14.951   6.119
 3264POPC   C2B42896  24.921  14.889   6.574
 3264POPC   C3B42897  25.077  15.074   6.979
 3264POPC   C4B42898  24.865  15.403   7.250
 3265POPC   NC342899   8.367  14.333   5.429
 3265POPC   PO442900   7.784  14.465   5.230
 3265POPC   GL142901   7.926  14.419   5.705
 3265POPC   GL242902   7.737  14.206   5.891
 3265POPC   C1A42903   8.181  14.542   6.120
 3265POPC   D2A42904   8.391  14.279   6.487
 3265POPC   C3A42905   8.341  14.425   6.926
 3265POPC   C4A42906   8.264  14.275   7.341
 3265POPC   C1B42907   7.974  14.092   6.240
 3265POPC   C2B42908   7.938  14.197   6.687
 3265POPC   C3B42909   7.881  14.033   7.073
 3265POPC   C4B42910   7.848  14.037   7.495
 3266POPC   NC342911  35.683  34.866   5.491
 3266POPC   PO442912  35.087  34.437   5.389
 3266POPC   GL142913  35.246  34.466   5.799
 3266POPC   GL242914  35.580  34.280   5.881
 3266POPC   C1A42915  35.138  34.621   6.227
 3266POPC   D2A42916  35.335  34.744   6.633
 3266POPC   C3A42917  35.098  34.809   7.025
 3266POPC   C4A42918  35.339  34.676   7.365
 3266POPC   C1B42919  35.273  34.139   6.172
 3266POPC   C2B42920  35.394  34.210   6.585
 3266POPC   C3B42921  35.289  34.313   6.992
 3266POPC   C4B42922  35.122  34.067   7.309
 3267POPC   NC342923  39.387  16.321   5.466
 3267POPC   PO442924  38.981  15.853   5.498
 3267POPC   GL142925  39.310  15.779   5.803
 3267POPC   GL242926  39.528  16.090   5.890
 3267POPC   C1A42927  39.164  15.735   6.218
 3267POPC   D2A42928  39.138  16.030   6.540
 3267POPC   C3A42929  39.168  15.908   6.944
 3267POPC   C4A42930  39.179  16.101   7.345
 3267POPC   C1B42931  39.594  16.006   6.300
 3267POPC   C2B42932  39.602  16.253   6.670
 3267POPC   C3B42933  39.618  16.113   7.071
 3267POPC   C4B42934  39.588  15.774   7.378
 3268POPC   NC342935  41.016   2.101   5.569
 3268POPC   PO442936  41.506   1.714   5.140
 3268POPC   GL142937  41.516   2.061   5.562
 3268POPC   GL242938  41.689   1.870   5.820
 3268POPC   C1A42939  41.449   2.245   6.046
 3268POPC   D2A42940  41.494   2.218   6.512
 3268POPC   C3A42941  41.272   2.109   6.882
 3268POPC   C4A42942  41.570   2.172   7.196
 3268POPC   C1B42943  41.570   1.747   6.261
 3268POPC   C2B42944  41.556   1.730   6.708
 3268POPC   C3B42945  41.464   1.678   7.116
 3268POPC   C4B42946  41.785   1.708   7.408
 3269POPC   NC342947   6.850  29.680   5.685
 3269POPC   PO442948   6.823  30.310   5.367
 3269POPC   GL142949   6.569  30.119   5.787
 3269POPC   GL242950   6.248  29.929   5.792
 3269POPC   C1A42951   6.575  29.937   6.219
 3269POPC   D2A42952   6.717  29.768   6.622
 3269POPC   C3A42953   6.655  30.069   6.925
 3269POPC   C4A42954   6.878  30.122   7.287
 3269POPC   C1B42955   6.171  29.625   6.144
 3269POPC   C2B42956   6.293  29.449   6.555
 3269POPC   C3B42957   6.381  29.573   6.982
 3269POPC   C4B42958   6.424  29.859   7.330
 3270POPC   NC342959  39.935  39.291   5.302
 3270POPC   PO442960  40.260  38.814   5.710
 3270POPC   GL142961  40.092  39.074   5.948
 3270POPC   GL242962  40.116  39.380   5.777
 3270POPC   C1A42963  40.038  39.132   6.370
 3270POPC   D2A42964  39.920  39.495   6.573
 3270POPC   C3A42965  39.991  39.347   6.953
 3270POPC   C4A42966  39.831  39.273   7.326
 3270POPC   C1B42967  40.269  39.536   6.153
 3270POPC   C2B42968  40.459  39.448   6.563
 3270POPC   C3B42969  40.441  39.593   6.979
 3270POPC   C4B42970  40.325  39.382   7.347
 3271POPC   NC342971  41.158  35.900   5.600
 3271POPC   PO442972  40.559  36.306   5.458
 3271POPC   GL142973  40.664  36.031   5.750
 3271POPC   GL242974  40.910  36.225   5.914
 3271POPC   C1A42975  40.590  35.934   6.190
 3271POPC   D2A42976  40.537  36.166   6.537
 3271POPC   C3A42977  40.631  35.986   6.889
 3271POPC   C4A42978  40.875  36.003   7.239
 3271POPC   C1B42979  40.986  36.338   6.340
 3271POPC   C2B42980  41.111  36.097   6.714
 3271POPC   C3B42981  41.304  36.235   7.072
 3271POPC   C4B42982  41.178  36.421   7.466
 3272POPC   NC342983  10.255  33.595   5.440
 3272POPC   PO442984  10.805  34.023   5.569
 3272POPC   GL142985  10.476  33.859   5.829
 3272POPC   GL242986  10.621  33.527   5.806
 3272POPC   C1A42987  10.384  33.952   6.256
 3272POPC   D2A42988  10.625  33.936   6.632
 3272POPC   C3A42989  10.449  33.886   7.041
 3272POPC   C4A42990  10.849  33.810   7.227
 3272POPC   C1B42991  10.465  33.450   6.210
 3272POPC   C2B42992  10.340  33.464   6.634
 3272POPC   C3B42993  10.560  33.388   7.016
 3272POPC   C4B42994  10.434  33.533   7.436
 3273POPC   NC342995   1.798  29.654   5.530
 3273POPC   PO442996   2.275  30.152   5.482
 3273POPC   GL142997   1.944  30.148   5.796
 3273POPC   GL242998   2.047  29.830   5.940
 3273POPC   C1A42999   1.887  30.182   6.254
 3273POPC   D2A43000   2.189  30.108   6.611
 3273POPC   C3A43001   2.017  30.067   7.043
 3273POPC   C4A43002   1.595  30.204   7.182
 3273POPC   C1B43003   1.903  29.672   6.355
 3273POPC   C2B43004   1.837  29.401   6.707
 3273POPC   C3B43005   2.173  29.386   6.964
 3273POPC   C4B43006   2.262  29.629   7.299
 3274POPC   NC343007  43.469  25.820   5.463
 3274POPC   PO443008  43.091  26.348   5.371
 3274POPC   GL143009  43.048  26.080   5.820
 3274POPC   GL243010  43.368  25.888   5.952
 3274POPC   C1A43011  42.988  26.034   6.328
 3274POPC   D2A43012  43.032  26.316   6.722
 3274POPC   C3A43013  43.122  26.176   7.157
 3274POPC   C4A43014  42.910  26.237   7.554
 3274POPC   C1B43015  43.368  25.661   6.328
 3274POPC   C2B43016  43.126  25.630   6.689
 3274POPC   C3B43017  43.210  25.674   7.105
 3274POPC   C4B43018  43.160  25.751   7.544
 3275POPC   NC343019  41.226  18.412   5.480
 3275POPC   PO443020  41.851  18.423   5.400
 3275POPC   GL143021  41.727  18.465   5.820
 3275POPC   GL243022  41.499  18.185   5.859
 3275POPC   C1A43023  41.824  18.298   6.241
 3275POPC   D2A43024  41.529  18.203   6.579
 3275POPC   C3A43025  41.640  18.156   7.019
 3275POPC   C4A43026  41.887  18.502   7.130
 3275POPC   C1B43027  41.279  18.419   6.164
 3275POPC   C2B43028  41.021  18.341   6.506
 3275POPC   C3B43029  41.189  18.400   6.918
 3275POPC   C4B43030  41.078  18.172   7.263
 3276POPC   NC343031  43.615  16.376   5.621
 3276POPC   PO443032  44.135  16.018   5.298
 3276POPC   GL143033  44.140  15.947   5.764
 3276POPC   GL243034  44.113  15.586   5.869
 3276POPC   C1A43035  43.923  15.992   6.191
 3276POPC   D2A43036  43.776  16.139   6.607
 3276POPC   C3A43037  43.912  15.943   6.984
 3276POPC   C4A43038  43.703  15.778   7.333
 3276POPC   C1B43039  44.358  15.697   6.200
 3276POPC   C2B43040  44.348  15.723   6.604
 3276POPC   C3B43041  44.416  15.809   6.991
 3276POPC   C4B43042  44.205  15.655   7.308
 3277POPC   NC343043  28.511  18.900   5.513
 3277POPC   PO443044  27.904  18.530   5.511
 3277POPC   GL143045  28.052  18.891   5.733
 3277POPC   GL243046  28.056  19.253   5.814
 3277POPC   C1A43047  28.316  18.892   6.119
 3277POPC   D2A43048  28.222  18.922   6.519
 3277POPC   C3A43049  28.399  18.636   6.801
 3277POPC   C4A43050  28.432  18.581   7.261
 3277POPC   C1B43051  28.171  19.394   6.244
 3277POPC   C2B43052  28.191  19.422   6.697
 3277POPC   C3B43053  28.293  19.454   7.124
 3277POPC   C4B43054  28.537  19.284   7.440
 3278POPC   NC343055  24.831  42.595   5.403
 3278POPC   PO443056  24.147  42.248   5.389
 3278POPC   GL143057  24.457  42.390   5.693
 3278POPC   GL243058  24.653  42.113   5.812
 3278POPC   C1A43059  24.461  42.573   6.119
 3278POPC   D2A43060  24.689  42.605   6.538
 3278POPC   C3A43061  24.487  42.481   6.950
 3278POPC   C4A43062  24.382  42.588   7.403
 3278POPC   C1B43063  24.693  42.122   6.269
 3278POPC   C2B43064  24.627  42.019   6.700
 3278POPC   C3B43065  24.784  42.084   7.077
 3278POPC   C4B43066  24.428  42.065   7.348
 3279POPC   NC343067  42.390  35.550   5.390
 3279POPC   PO443068  41.750  35.364   5.293
 3279POPC   GL143069  42.093  35.287   5.702
 3279POPC   GL243070  42.327  35.542   5.886
 3279POPC   C1A43071  42.301  35.080   6.112
 3279POPC   D2A43072  42.348  35.295   6.496
 3279POPC   C3A43073  42.309  35.096   6.871
 3279POPC   C4A43074  42.337  35.095   7.305
 3279POPC   C1B43075  42.386  35.756   6.272
 3279POPC   C2B43076  42.617  35.684   6.668
 3279POPC   C3B43077  42.607  35.470   7.070
 3279POPC   C4B43078  42.325  35.575   7.415
 3280POPC   NC343079  27.826   0.184   5.401
 3280POPC   PO443080  27.136   0.267   5.526
 3280POPC   GL143081  27.485   0.278   5.816
 3280POPC   GL243082  27.688   0.597   5.815
 3280POPC   C1A43083  27.554   0.374   6.260
 3280POPC   D2A43084  27.503   0.155   6.637
 3280POPC   C3A43085  27.528   0.370   7.012
 3280POPC   C4A43086  27.801   0.254   7.304
 3280POPC   C1B43087  28.029   0.659   6.155
 3280POPC   C2B43088  28.157   0.467   6.529
 3280POPC   C3B43089  28.030   0.561   6.956
 3280POPC   C4B43090  28.055   0.678   7.417
 3281POPC   NC343091   3.623  42.753   5.457
 3281POPC   PO443092   3.251  42.250   5.636
 3281POPC   GL143093   3.408  42.040   5.982
 3281POPC   GL243094   3.749  41.986   5.790
 3281POPC   C1A43095   3.260  42.160   6.422
 3281POPC   D2A43096   3.276  42.609   6.554
 3281POPC   C3A43097   3.393  42.739   6.958
 3281POPC   C4A43098   3.356  42.548   7.343
 3281POPC   C1B43099   3.860  42.242   6.151
 3281POPC   C2B43100   3.748  42.263   6.580
 3281POPC   C3B43101   3.497  42.227   6.925
 3281POPC   C4B43102   3.772  42.253   7.240
 3282POPC   NC343103  20.144  22.838   5.474
 3282POPC   PO443104  19.521  22.879   5.319
 3282POPC   GL143105  19.763  22.871   5.799
 3282POPC   GL243106  20.107  23.036   5.954
 3282POPC   C1A43107  19.887  22.657   6.211
 3282POPC   D2A43108  19.704  22.833   6.601
 3282POPC   C3A43109  19.818  22.800   7.025
 3282POPC   C4A43110  19.860  22.960   7.442
 3282POPC   C1B43111  19.804  23.191   6.241
 3282POPC   C2B43112  19.854  23.358   6.652
 3282POPC   C3B43113  19.981  23.284   7.069
 3282POPC   C4B43114  19.680  23.428   7.381
 3283POPC   NC343115  20.369  17.663   5.422
 3283POPC   PO443116  20.888  17.241   5.209
 3283POPC   GL143117  20.636  17.239   5.637
 3283POPC   GL243118  20.787  17.552   5.742
 3283POPC   C1A43119  20.467  17.368   6.092
 3283POPC   D2A43120  20.309  17.410   6.545
 3283POPC   C3A43121  20.474  17.389   6.996
 3283POPC   C4A43122  20.353  17.680   7.311
 3283POPC   C1B43123  20.884  17.682   6.169
 3283POPC   C2B43124  20.806  17.539   6.598
 3283POPC   C3B43125  20.903  17.713   7.022
 3283POPC   C4B43126  20.816  17.477   7.388
 3284POPC   NC343127  34.112  22.234   5.413
 3284POPC   PO443128  33.494  22.156   5.433
 3284POPC   GL143129  33.779  22.182   5.812
 3284POPC   GL243130  33.908  21.884   5.776
 3284POPC   C1A43131  33.635  22.108   6.260
 3284POPC   D2A43132  33.654  22.239   6.706
 3284POPC   C3A43133  33.690  21.938   7.076
 3284POPC   C4A43134  33.630  22.214   7.427
 3284POPC   C1B43135  33.953  21.713   6.183
 3284POPC   C2B43136  33.955  21.815   6.626
 3284POPC   C3B43137  34.145  22.116   6.935
 3284POPC   C4B43138  34.132  22.055   7.400
 3285POPC   NC343139  11.054  40.841   5.212
 3285POPC   PO443140  11.511  40.349   5.392
 3285POPC   GL143141  11.308  40.673   5.678
 3285POPC   GL243142  11.540  40.943   5.817
 3285POPC   C1A43143  11.237  40.659   6.143
 3285POPC   D2A43144  11.427  40.365   6.454
 3285POPC   C3A43145  11.441  40.448   6.894
 3285POPC   C4A43146  11.294  40.511   7.295
 3285POPC   C1B43147  11.462  41.133   6.233
 3285POPC   C2B43148  11.426  40.896   6.610
 3285POPC   C3B43149  11.319  40.963   7.051
 3285POPC   C4B43150  11.407  41.016   7.530
 3286POPC   NC343151  26.471  28.927   5.071
 3286POPC   PO443152  26.890  29.359   5.380
 3286POPC   GL143153  26.955  29.174   5.812
 3286POPC   GL243154  27.304  29.291   5.932
 3286POPC   C1A43155  26.674  29.010   6.195
 3286POPC   D2A43156  26.505  28.813   6.607
 3286POPC   C3A43157  26.631  28.999   7.025
 3286POPC   C4A43158  26.759  29.203   7.427
 3286POPC   C1B43159  27.050  29.346   6.290
 3286POPC   C2B43160  26.806  29.354   6.661
 3286POPC   C3B43161  26.969  29.460   7.038
 3286POPC   C4B43162  27.256  29.327   7.330
 3287POPC   NC343163  12.538  27.196   5.455
 3287POPC   PO443164  13.127  26.810   5.391
 3287POPC   GL143165  12.927  26.920   5.757
 3287POPC   GL243166  12.627  26.713   5.763
 3287POPC   C1A43167  13.079  27.064   6.167
 3287POPC   D2A43168  13.224  26.851   6.553
 3287POPC   C3A43169  13.071  26.838   7.003
 3287POPC   C4A43170  12.858  26.567   7.396
 3287POPC   C1B43171  12.677  26.773   6.212
 3287POPC   C2B43172  12.733  26.637   6.628
 3287POPC   C3B43173  12.579  26.793   7.000
 3287POPC   C4B43174  12.684  27.037   7.353
 3288POPC   NC343175  40.517  28.553   5.299
 3288POPC   PO443176  40.909  28.041   5.396
 3288POPC   GL143177  40.831  28.377   5.695
 3288POPC   GL243178  40.481  28.458   5.810
 3288POPC   C1A43179  40.898  28.488   6.116
 3288POPC   D2A43180  40.621  28.311   6.440
 3288POPC   C3A43181  40.763  28.370   6.864
 3288POPC   C4A43182  40.928  28.521   7.232
 3288POPC   C1B43183  40.436  28.743   6.191
 3288POPC   C2B43184  40.601  28.796   6.624
 3288POPC   C3B43185  40.431  28.885   7.031
 3288POPC   C4B43186  40.302  28.651   7.350
 3289POPC   NC343187  12.495   2.911   5.329
 3289POPC   PO443188  13.007   2.625   5.547
 3289POPC   GL143189  12.830   2.707   5.880
 3289POPC   GL243190  12.566   2.508   5.810
 3289POPC   C1A43191  12.943   2.612   6.289
 3289POPC   D2A43192  12.719   2.591   6.651
 3289POPC   C3A43193  12.769   2.917   6.967
 3289POPC   C4A43194  12.997   2.877   7.383
 3289POPC   C1B43195  12.527   2.332   6.196
 3289POPC   C2B43196  12.381   2.148   6.572
 3289POPC   C3B43197  12.405   2.348   6.966
 3289POPC   C4B43198  12.811   2.450   7.157
 3290POPC   NC343199  36.412   6.369   5.330
 3290POPC   PO443200  35.981   6.883   5.304
 3290POPC   GL143201  36.088   6.900   5.738
 3290POPC   GL243202  36.150   6.540   5.802
 3290POPC   C1A43203  35.937   6.914   6.177
 3290POPC   D2A43204  35.999   6.703   6.594
 3290POPC   C3A43205  35.909   6.900   6.972
 3290POPC   C4A43206  35.842   6.753   7.361
 3290POPC   C1B43207  36.278   6.446   6.248
 3290POPC   C2B43208  36.441   6.323   6.688
 3290POPC   C3B43209  36.297   6.518   7.100
 3290POPC   C4B43210  36.136   6.349   7.493
 3291POPC   NC343211   0.048   0.263   5.499
 3291POPC   PO443212  44.888   0.960   5.297
 3291POPC   GL143213  44.902   0.735   5.701
 3291POPC   GL243214  44.609   0.511   5.696
 3291POPC   C1A43215  44.799   0.724   6.155
 3291POPC   D2A43216  44.763   0.394   6.472
 3291POPC   C3A43217  44.908   0.444   6.890
 3291POPC   C4A43218  44.747   0.683   7.225
 3291POPC   C1B43219  44.389   0.379   6.081
 3291POPC   C2B43220  44.301   0.610   6.444
 3291POPC   C3B43221  44.378   0.437   6.849
 3291POPC   C4B43222  44.240   0.601   7.221
 3292POPC   NC343223  14.471  37.763   5.405
 3292POPC   PO443224  14.081  37.262   5.655
 3292POPC   GL143225  14.208  37.673   5.879
 3292POPC   GL243226  14.596  37.777   5.907
 3292POPC   C1A43227  14.297  37.765   6.316
 3292POPC   D2A43228  14.473  37.531   6.619
 3292POPC   C3A43229  14.364  37.737   6.961
 3292POPC   C4A43230  14.446  37.561   7.350
 3292POPC   C1B43231  14.837  37.798   6.324
 3292POPC   C2B43232  14.814  37.928   6.775
 3292POPC   C3B43233  14.758  37.979   7.235
 3292POPC   C4B43234  14.604  37.894   7.678
 3293POPC   NC343235  29.740  10.298   5.486
 3293POPC   PO443236  30.304  10.651   5.291
 3293POPC   GL143237  30.206  10.565   5.817
 3293POPC   GL243238  29.855  10.459   5.992
 3293POPC   C1A43239  30.269  10.455   6.263
 3293POPC   D2A43240  29.911  10.601   6.530
 3293POPC   C3A43241  29.961  10.683   6.953
 3293POPC   C4A43242  30.313  10.687   7.195
 3293POPC   C1B43243  29.815  10.152   6.341
 3293POPC   C2B43244  29.890  10.188   6.811
 3293POPC   C3B43245  29.800  10.286   7.264
 3293POPC   C4B43246  29.647  10.308   7.704
 3294POPC   NC343247  44.820   9.361   5.507
 3294POPC   PO443248  44.547   9.993   5.489
 3294POPC   GL143249  44.548   9.779   5.842
 3294POPC   GL243250  44.373   9.453   5.768
 3294POPC   C1A43251  44.611   9.925   6.258
 3294POPC   D2A43252  44.378   9.966   6.630
 3294POPC   C3A43253  44.621   9.912   6.996
 3294POPC   C4A43254  44.942   9.650   7.152
 3294POPC   C1B43255  44.629   9.391   6.161
 3294POPC   C2B43256  44.677   9.212   6.550
 3294POPC   C3B43257  44.759   9.212   6.961
 3294POPC   C4B43258  44.603   9.320   7.365
 3295POPC   NC343259  22.288  13.060   5.378
 3295POPC   PO443260  22.086  12.381   5.224
 3295POPC   GL143261  22.001  12.703   5.657
 3295POPC   GL243262  22.296  12.813   5.842
 3295POPC   C1A43263  21.899  12.981   6.110
 3295POPC   D2A43264  21.989  13.221   6.549
 3295POPC   C3A43265  21.936  12.958   6.964
 3295POPC   C4A43266  21.945  12.593   7.286
 3295POPC   C1B43267  22.314  12.751   6.286
 3295POPC   C2B43268  22.354  12.889   6.670
 3295POPC   C3B43269  22.396  12.766   7.086
 3295POPC   C4B43270  22.403  12.789   7.514
 3296POPC   NC343271  44.924  27.612   5.442
 3296POPC   PO443272  44.209  27.469   5.522
 3296POPC   GL143273  44.562  27.424   5.792
 3296POPC   GL243274  44.652  27.727   5.882
 3296POPC   C1A43275  44.785  27.261   6.169
 3296POPC   D2A43276   0.074  27.336   6.522
 3296POPC   C3A43277  44.944  27.216   6.944
 3296POPC   C4A43278  44.804  27.458   7.267
 3296POPC   C1B43279  44.658  27.952   6.268
 3296POPC   C2B43280  44.529  28.047   6.697
 3296POPC   C3B43281  44.726  27.962   7.094
 3296POPC   C4B43282   0.065  27.913   7.406
 3297POPC   NC343283   0.100   3.403   5.449
 3297POPC   PO443284  44.491   3.616   5.384
 3297POPC   GL143285  44.694   3.507   5.777
 3297POPC   GL243286  44.481   3.270   5.900
 3297POPC   C1A43287  44.806   3.561   6.237
 3297POPC   D2A43288  44.800   3.776   6.660
 3297POPC   C3A43289  44.907   3.437   6.962
 3297POPC   C4A43290  44.833   3.460   7.401
 3297POPC   C1B43291  44.312   3.389   6.266
 3297POPC   C2B43292  44.441   3.406   6.680
 3297POPC   C3B43293  44.417   3.375   7.112
 3297POPC   C4B43294  44.456   3.133   7.454
 3298POPC   NC343295  14.040   7.932   5.443
 3298POPC   PO443296  14.602   8.408   5.520
 3298POPC   GL143297  14.316   8.217   5.817
 3298POPC   GL243298  14.568   8.145   6.082
 3298POPC   C1A43299  14.111   8.330   6.227
 3298POPC   D2A43300  14.235   8.496   6.664
 3298POPC   C3A43301  14.259   8.165   6.995
 3298POPC   C4A43302  14.296   8.081   7.424
 3298POPC   C1B43303  14.606   8.581   6.257
 3298POPC   C2B43304  14.725   8.686   6.693
 3298POPC   C3B43305  14.598   8.544   7.141
 3298POPC   C4B43306  14.658   8.427   7.594
 3299POPC   NC343307  14.596  38.643   5.457
 3299POPC   PO443308  14.150  38.121   5.378
 3299POPC   GL143309  14.378  38.247   5.764
 3299POPC   GL243310  14.298  38.599   5.889
 3299POPC   C1A43311  14.533  38.227   6.200
 3299POPC   D2A43312  14.421  38.473   6.571
 3299POPC   C3A43313  14.409  38.262   6.968
 3299POPC   C4A43314  14.253  38.049   7.338
 3299POPC   C1B43315  14.653  38.735   6.163
 3299POPC   C2B43316  14.786  38.855   6.559
 3299POPC   C3B43317  14.567  38.831   6.939
 3299POPC   C4B43318  14.736  38.551   7.206
 3300POPC   NC343319   0.455  34.342   4.965
 3300POPC   PO443320   0.139  34.522   5.494
 3300POPC   GL143321   0.257  34.554   5.879
 3300POPC   GL243322   0.551  34.378   5.895
 3300POPC   C1A43323   0.342  34.899   6.129
 3300POPC   D2A43324   0.442  34.945   6.548
 3300POPC   C3A43325   0.506  34.696   6.926
 3300POPC   C4A43326   0.433  34.970   7.295
 3300POPC   C1B43327   0.506  34.437   6.347
 3300POPC   C2B43328   0.277  34.255   6.675
 3300POPC   C3B43329   0.319  34.241   7.112
 3300POPC   C4B43330   0.530  34.467   7.408
 3301POPC   NC343331  21.709  44.187   5.240
 3301POPC   PO443332  21.165  43.677   5.384
 3301POPC   GL143333  21.179  43.801   5.841
 3301POPC   GL243334  21.526  43.923   5.877
 3301POPC   C1A43335  21.286  43.737   6.307
 3301POPC   D2A43336  21.542  43.873   6.687
 3301POPC   C3A43337  21.272  43.861   7.045
 3301POPC   C4A43338  21.228  43.762   7.461
 3301POPC   C1B43339  21.557  44.205   6.255
 3301POPC   C2B43340  21.612  44.386   6.665
 3301POPC   C3B43341  21.625  44.259   7.086
 3301POPC   C4B43342  21.676  43.984   7.415
 3302POPC   NC343343  28.213  10.882   5.751
 3302POPC   PO443344  28.715  10.542   5.464
 3302POPC   GL143345  28.467  10.383   5.828
 3302POPC   GL243346  28.120  10.232   5.888
 3302POPC   C1A43347  28.751  10.363   6.179
 3302POPC   D2A43348  28.697  10.692   6.507
 3302POPC   C3A43349  28.492  10.446   6.791
 3302POPC   C4A43350  28.385  10.346   7.169
 3302POPC   C1B43351  28.271  10.413   6.309
 3302POPC   C2B43352  28.105  10.725   6.588
 3302POPC   C3B43353  27.959  10.754   7.002
 3302POPC   C4B43354  28.121  10.694   7.408
 3303POPC   NC343355  19.864  21.785   5.532
 3303POPC   PO443356  19.469  21.279   5.398
 3303POPC   GL143357  19.731  21.333   5.797
 3303POPC   GL243358  19.996  21.571   5.953
 3303POPC   C1A43359  19.597  21.423   6.225
 3303POPC   D2A43360  19.746  21.235   6.604
 3303POPC   C3A43361  19.674  21.479   6.904
 3303POPC   C4A43362  19.758  21.300   7.271
 3303POPC   C1B43363  20.099  21.334   6.262
 3303POPC   C2B43364  20.175  21.590   6.617
 3303POPC   C3B43365  20.157  21.602   7.054
 3303POPC   C4B43366  20.272  21.206   7.215
 3304POPC   NC343367   4.912  30.883   5.419
 3304POPC   PO443368   5.357  30.347   5.479
 3304POPC   GL143369   5.265  30.489   5.887
 3304POPC   GL243370   4.935  30.599   5.862
 3304POPC   C1A43371   5.222  30.750   6.268
 3304POPC   D2A43372   4.887  30.814   6.579
 3304POPC   C3A43373   5.014  30.751   7.000
 3304POPC   C4A43374   5.306  30.467   7.168
 3304POPC   C1B43375   4.875  30.359   6.265
 3304POPC   C2B43376   4.784  30.335   6.716
 3304POPC   C3B43377   4.812  30.305   7.165
 3304POPC   C4B43378   5.026  30.288   7.579
 3305POPC   NC343379  15.670  33.440   5.463
 3305POPC   PO443380  16.162  33.965   5.388
 3305POPC   GL143381  16.010  33.739   5.743
 3305POPC   GL243382  15.684  33.900   5.786
 3305POPC   C1A43383  15.863  33.576   6.146
 3305POPC   D2A43384  15.922  33.441   6.552
 3305POPC   C3A43385  15.732  33.601   6.861
 3305POPC   C4A43386  16.031  33.647   7.191
 3305POPC   C1B43387  15.917  34.104   6.130
 3305POPC   C2B43388  15.961  33.981   6.562
 3305POPC   C3B43389  15.826  34.093   6.974
 3305POPC   C4B43390  15.606  33.872   7.300
 3306POPC   NC343391  32.233  39.755   5.397
 3306POPC   PO443392  32.607  40.268   5.454
 3306POPC   GL143393  32.366  40.062   5.822
 3306POPC   GL243394  32.310  39.698   5.906
 3306POPC   C1A43395  32.189  40.035   6.266
 3306POPC   D2A43396  32.195  39.822   6.662
 3306POPC   C3A43397  32.096  40.088   7.049
 3306POPC   C4A43398  32.285  40.087   7.478
 3306POPC   C1B43399  31.861  39.669   6.083
 3306POPC   C2B43400  31.769  39.578   6.521
 3306POPC   C3B43401  31.798  39.648   6.959
 3306POPC   C4B43402  31.928  39.707   7.355
 3307POPC   NC343403  37.505  31.042   5.295
 3307POPC   PO443404  37.788  31.628   5.135
 3307POPC   GL143405  37.643  31.482   5.586
 3307POPC   GL243406  37.736  31.127   5.737
 3307POPC   C1A43407  37.590  31.513   6.047
 3307POPC   D2A43408  37.718  31.381   6.471
 3307POPC   C3A43409  37.767  31.650   6.868
 3307POPC   C4A43410  37.612  31.530   7.292
 3307POPC   C1B43411  38.003  31.064   6.118
 3307POPC   C2B43412  38.145  31.127   6.549
 3307POPC   C3B43413  37.878  31.150   6.911
 3307POPC   C4B43414  37.959  31.014   7.288
 3308POPC   NC343415  32.945  11.770   5.185
 3308POPC   PO443416  33.215  12.268   5.430
 3308POPC   GL143417  33.374  11.999   5.722
 3308POPC   GL243418  33.469  12.270   5.915
 3308POPC   C1A43419  33.122  11.930   6.109
 3308POPC   D2A43420  32.784  11.757   6.372
 3308POPC   C3A43421  32.911  11.843   6.797
 3308POPC   C4A43422  32.816  12.152   7.100
 3308POPC   C1B43423  33.405  12.325   6.353
 3308POPC   C2B43424  33.239  12.292   6.787
 3308POPC   C3B43425  33.175  12.487   7.201
 3308POPC   C4B43426  33.370  12.477   7.615
 3309POPC   NC343427  24.079  23.973   5.284
 3309POPC   PO443428  23.781  24.596   5.431
 3309POPC   GL143429  23.854  24.684   5.868
 3309POPC   GL243430  23.756  24.403   5.954
 3309POPC   C1A43431  24.099  24.606   6.264
 3309POPC   D2A43432  24.064  24.696   6.709
 3309POPC   C3A43433  23.651  24.601   6.877
 3309POPC   C4A43434  23.297  24.697   7.168
 3309POPC   C1B43435  23.919  24.090   6.224
 3309POPC   C2B43436  23.923  23.984   6.653
 3309POPC   C3B43437  23.973  24.192   7.040
 3309POPC   C4B43438  23.908  24.241   7.500
 3310POPC   NC343439  37.194  27.595   5.406
 3310POPC   PO443440  36.544  27.417   5.378
 3310POPC   GL143441  36.743  27.378   5.816
 3310POPC   GL243442  37.115  27.400   5.890
 3310POPC   C1A43443  36.705  27.632   6.207
 3310POPC   D2A43444  36.954  27.756   6.579
 3310POPC   C3A43445  36.709  27.658   6.962
 3310POPC   C4A43446  36.687  27.752   7.397
 3310POPC   C1B43447  37.088  27.334   6.356
 3310POPC   C2B43448  37.006  27.260   6.805
 3310POPC   C3B43449  37.179  27.420   7.214
 3310POPC   C4B43450  37.313  27.168   7.573
 3311POPC   NC343451  14.756  34.068   5.506
 3311POPC   PO443452  14.516  33.442   5.546
 3311POPC   GL143453  14.445  33.673   5.907
 3311POPC   GL243454  14.159  33.908   5.981
 3311POPC   C1A43455  14.352  33.564   6.330
 3311POPC   D2A43456  14.251  33.699   6.729
 3311POPC   C3A43457  14.513  33.666   7.082
 3311POPC   C4A43458  14.138  33.615   7.323
 3311POPC   C1B43459  14.518  34.048   6.244
 3311POPC   C2B43460  14.605  34.065   6.690
 3311POPC   C3B43461  14.348  34.166   7.059
 3311POPC   C4B43462  14.457  34.152   7.491
 3312POPC   NC343463   9.660  12.793   5.412
 3312POPC   PO443464  10.191  12.346   5.455
 3312POPC   GL143465  10.063  12.657   5.800
 3312POPC   GL243466   9.750  12.840   5.911
 3312POPC   C1A43467   9.999  12.635   6.280
 3312POPC   D2A43468   9.924  12.477   6.693
 3312POPC   C3A43469   9.979  12.720   7.095
 3312POPC   C4A43470   9.835  12.757   7.548
 3312POPC   C1B43471   9.686  13.091   6.302
 3312POPC   C2B43472   9.641  12.940   6.743
 3312POPC   C3B43473   9.536  12.975   7.217
 3312POPC   C4B43474   9.516  13.130   7.683
 3313POPC   NC343475  20.883   8.263   5.429
 3313POPC   PO443476  20.212   8.091   5.367
 3313POPC   GL143477  20.397   8.270   5.723
 3313POPC   GL243478  20.404   7.934   5.867
 3313POPC   C1A43479  20.528   8.438   6.129
 3313POPC   D2A43480  20.509   8.198   6.525
 3313POPC   C3A43481  20.658   8.391   6.911
 3313POPC   C4A43482  20.710   8.479   7.365
 3313POPC   C1B43483  20.398   7.718   6.275
 3313POPC   C2B43484  20.646   7.710   6.663
 3313POPC   C3B43485  20.707   7.897   7.099
 3313POPC   C4B43486  20.891   7.979   7.525
 3314POPC   NC343487  28.070   9.282   5.450
 3314POPC   PO443488  28.659   8.906   5.324
 3314POPC   GL143489  28.383   8.928   5.656
 3314POPC   GL243490  28.458   9.249   5.788
 3314POPC   C1A43491  28.208   8.892   6.077
 3314POPC   D2A43492  28.362   8.983   6.478
 3314POPC   C3A43493  28.034   8.954   6.756
 3314POPC   C4A43494  28.020   8.913   7.176
 3314POPC   C1B43495  28.294   9.409   6.161
 3314POPC   C2B43496  28.467   9.522   6.545
 3314POPC   C3B43497  28.331   9.356   6.900
 3314POPC   C4B43498  28.468   9.128   7.206
 3315POPC   NC343499   9.081  38.208   4.802
 3315POPC   PO443500   8.879  38.601   5.311
 3315POPC   GL143501   8.901  38.460   5.743
 3315POPC   GL243502   9.202  38.550   5.898
 3315POPC   C1A43503   8.858  38.192   6.123
 3315POPC   D2A43504   8.872  38.196   6.604
 3315POPC   C3A43505   8.794  38.326   7.059
 3315POPC   C4A43506   8.778  38.202   7.518
 3315POPC   C1B43507   8.994  38.677   6.285
 3315POPC   C2B43508   9.094  38.665   6.728
 3315POPC   C3B43509   9.258  38.564   7.145
 3315POPC   C4B43510   9.134  38.564   7.565
 3316POPC   NC343511   9.902  19.822   5.096
 3316POPC   PO443512   9.479  19.991   5.604
 3316POPC   GL143513   9.674  20.049   5.936
 3316POPC   GL243514   9.994  19.922   5.817
 3316POPC   C1A43515   9.732  19.780   6.299
 3316POPC   D2A43516   9.452  19.546   6.558
 3316POPC   C3A43517   9.553  19.709   6.964
 3316POPC   C4A43518   9.449  19.673   7.398
 3316POPC   C1B43519  10.093  20.143   6.189
 3316POPC   C2B43520  10.081  20.031   6.624
 3316POPC   C3B43521  10.049  20.017   7.044
 3316POPC   C4B43522   9.968  19.673   7.281
 3317POPC   NC343523  12.070  25.306   5.380
 3317POPC   PO443524  11.833  25.923   5.443
 3317POPC   GL143525  12.033  25.608   5.815
 3317POPC   GL243526  12.062  25.214   5.875
 3317POPC   C1A43527  12.044  25.502   6.291
 3317POPC   D2A43528  11.846  25.291   6.671
 3317POPC   C3A43529  12.100  25.324   7.051
 3317POPC   C4A43530  11.954  25.395   7.473
 3317POPC   C1B43531  11.872  24.993   6.243
 3317POPC   C2B43532  12.009  24.811   6.686
 3317POPC   C3B43533  12.228  24.847   7.103
 3317POPC   C4B43534  12.332  25.059   7.527
 3318POPC   NC343535  21.132   5.851   5.320
 3318POPC   PO443536  21.761   6.014   5.470
 3318POPC   GL143537  21.411   5.917   5.773
 3318POPC   GL243538  21.126   6.162   5.757
 3318POPC   C1A43539  21.345   5.824   6.240
 3318POPC   D2A43540  21.668   5.693   6.578
 3318POPC   C3A43541  21.559   5.596   7.026
 3318POPC   C4A43542  21.724   5.707   7.455
 3318POPC   C1B43543  21.040   6.282   6.212
 3318POPC   C2B43544  21.159   6.155   6.643
 3318POPC   C3B43545  21.185   5.956   7.047
 3318POPC   C4B43546  21.311   5.994   7.445
 3319POPC   NC343547  30.911  28.973   5.496
 3319POPC   PO443548  31.616  29.028   5.247
 3319POPC   GL143549  31.608  29.043   5.715
 3319POPC   GL243550  31.313  28.852   5.799
 3319POPC   C1A43551  31.667  28.914   6.188
 3319POPC   D2A43552  31.600  29.101   6.605
 3319POPC   C3A43553  31.661  28.909   7.021
 3319POPC   C4A43554  31.616  29.101   7.449
 3319POPC   C1B43555  31.132  29.028   6.170
 3319POPC   C2B43556  31.093  28.918   6.605
 3319POPC   C3B43557  31.143  29.021   7.035
 3319POPC   C4B43558  30.818  28.944   7.313
 3320POPC   NC343559  34.137  40.316   5.609
 3320POPC   PO443560  34.567  39.888   5.211
 3320POPC   GL143561  34.558  40.020   5.698
 3320POPC   GL243562  34.710  40.225   5.938
 3320POPC   C1A43563  34.477  39.813   6.139
 3320POPC   D2A43564  34.578  39.768   6.582
 3320POPC   C3A43565  34.349  39.801   6.980
 3320POPC   C4A43566  34.331  40.137   7.286
 3320POPC   C1B43567  34.938  40.017   6.297
 3320POPC   C2B43568  34.903  40.156   6.743
 3320POPC   C3B43569  34.863  40.082   7.189
 3320POPC   C4B43570  34.903  40.114   7.628
 3321POPC   NC343571   5.296  26.153   5.557
 3321POPC   PO443572   4.662  25.831   5.492
 3321POPC   GL143573   4.939  25.924   5.843
 3321POPC   GL243574   4.965  26.301   5.929
 3321POPC   C1A43575   5.150  25.888   6.257
 3321POPC   D2A43576   5.237  26.066   6.676
 3321POPC   C3A43577   4.930  25.986   7.001
 3321POPC   C4A43578   4.924  25.633   7.291
 3321POPC   C1B43579   5.257  26.399   6.281
 3321POPC   C2B43580   5.382  26.557   6.729
 3321POPC   C3B43581   5.266  26.477   7.225
 3321POPC   C4B43582   5.259  26.474   7.719
 3322POPC   NC343583  11.832  10.683   5.306
 3322POPC   PO443584  11.212  10.510   5.283
 3322POPC   GL143585  11.177  10.453   5.737
 3322POPC   GL243586  11.149  10.736   5.975
 3322POPC   C1A43587  11.436  10.308   6.096
 3322POPC   D2A43588  11.345  10.459   6.508
 3322POPC   C3A43589  11.599  10.440   6.892
 3322POPC   C4A43590  11.499  10.701   7.241
 3322POPC   C1B43591  10.930  10.357   6.177
 3322POPC   C2B43592  10.819  10.270   6.598
 3322POPC   C3B43593  11.101  10.238   6.908
 3322POPC   C4B43594  11.116  10.380   7.284
 3323POPC   NC343595  20.007  44.226   5.414
 3323POPC   PO443596  19.635  43.692   5.468
 3323POPC   GL143597  19.795  43.850   5.891
 3323POPC   GL243598  20.125  44.041   5.915
 3323POPC   C1A43599  19.687  43.806   6.350
 3323POPC   D2A43600  19.981  43.926   6.685
 3323POPC   C3A43601  19.795  43.851   7.089
 3323POPC   C4A43602  19.914  43.887   7.528
 3323POPC   C1B43603  20.170  43.679   6.222
 3323POPC   C2B43604  20.254  43.488   6.639
 3323POPC   C3B43605  20.289  43.687   7.061
 3323POPC   C4B43606  20.289  43.510   7.492
 3324POPC   NC343607  17.913  16.034   5.448
 3324POPC   PO443608  18.386  15.566   5.606
 3324POPC   GL143609  18.254  15.905   5.847
 3324POPC   GL243610  18.406  16.185   5.652
 3324POPC   C1A43611  18.352  15.830   6.285
 3324POPC   D2A43612  18.133  15.729   6.677
 3324POPC   C3A43613  18.238  16.054   6.920
 3324POPC   C4A43614  18.363  16.033   7.319
 3324POPC   C1B43615  18.556  16.249   6.069
 3324POPC   C2B43616  18.596  16.190   6.545
 3324POPC   C3B43617  18.785  16.186   6.964
 3324POPC   C4B43618  18.821  16.238   7.414
 3325POPC   NC343619  35.425  36.617   5.390
 3325POPC   PO443620  35.586  35.956   5.591
 3325POPC   GL143621  35.506  36.317   5.834
 3325POPC   GL243622  35.167  36.246   5.794
 3325POPC   C1A43623  35.446  36.217   6.271
 3325POPC   D2A43624  35.534  35.862   6.559
 3325POPC   C3A43625  35.597  36.005   6.979
 3325POPC   C4A43626  35.484  36.445   7.087
 3325POPC   C1B43627  35.025  35.924   6.086
 3325POPC   C2B43628  35.025  35.746   6.510
 3325POPC   C3B43629  34.960  36.032   6.843
 3325POPC   C4B43630  35.133  36.093   7.227
 3326POPC   NC343631  34.158   0.095   5.232
 3326POPC   PO443632  34.500  44.523   5.287
 3326POPC   GL143633  34.606  44.621   5.805
 3326POPC   GL243634  34.405  44.488   6.055
 3326POPC   C1A43635  34.728  44.822   6.229
 3326POPC   D2A43636  34.396  44.686   6.543
 3326POPC   C3A43637  34.471  44.860   6.959
 3326POPC   C4A43638  34.823   0.041   7.156
 3326POPC   C1B43639  34.834  44.314   6.192
 3326POPC   C2B43640  34.979  44.252   6.636
 3326POPC   C3B43641  34.987  44.298   7.070
 3326POPC   C4B43642  34.730  44.558   7.309
 3327POPC   NC343643  31.629   8.215   5.452
 3327POPC   PO443644  30.993   8.122   5.347
 3327POPC   GL143645  31.188   8.222   5.738
 3327POPC   GL243646  31.341   7.903   5.745
 3327POPC   C1A43647  31.435   8.290   6.140
 3327POPC   D2A43648  31.627   8.482   6.517
 3327POPC   C3A43649  31.544   8.284   6.912
 3327POPC   C4A43650  31.231   8.285   7.220
 3327POPC   C1B43651  31.433   7.787   6.148
 3327POPC   C2B43652  31.560   7.902   6.552
 3327POPC   C3B43653  31.563   7.673   6.926
 3327POPC   C4B43654  31.533   7.868   7.282
 3328POPC   NC343655  40.608  27.697   5.466
 3328POPC   PO443656  41.110  27.302   5.571
 3328POPC   GL143657  40.850  27.537   5.885
 3328POPC   GL243658  40.902  27.894   5.900
 3328POPC   C1A43659  40.649  27.667   6.303
 3328POPC   D2A43660  40.669  27.869   6.726
 3328POPC   C3A43661  40.795  27.584   7.048
 3328POPC   C4A43662  40.841  27.638   7.485
 3328POPC   C1B43663  41.055  28.042   6.320
 3328POPC   C2B43664  41.177  28.077   6.755
 3328POPC   C3B43665  41.018  28.022   7.185
 3328POPC   C4B43666  40.985  28.094   7.667
 3329POPC   NC343667  42.577   1.234   5.486
 3329POPC   PO443668  41.916   0.942   5.625
 3329POPC   GL143669  42.287   0.978   5.880
 3329POPC   GL243670  42.370   1.314   5.946
 3329POPC   C1A43671  42.445   0.924   6.309
 3329POPC   D2A43672  42.207   0.908   6.721
 3329POPC   C3A43673  42.299   1.072   7.135
 3329POPC   C4A43674  42.396   0.942   7.533
 3329POPC   C1B43675  42.749   1.361   6.195
 3329POPC   C2B43676  42.718   1.440   6.637
 3329POPC   C3B43677  42.782   1.217   7.002
 3329POPC   C4B43678  42.653   1.369   7.391
 3330POPC   NC343679   3.472  18.103   4.893
 3330POPC   PO443680   3.849  18.464   5.417
 3330POPC   GL143681   3.531  18.334   5.768
 3330POPC   GL243682   3.393  17.957   5.768
 3330POPC   C1A43683   3.443  18.335   6.245
 3330POPC   D2A43684   3.652  18.141   6.619
 3330POPC   C3A43685   3.543  18.285   7.052
 3330POPC   C4A43686   3.802  18.465   7.413
 3330POPC   C1B43687   3.396  17.834   6.242
 3330POPC   C2B43688   3.169  18.017   6.644
 3330POPC   C3B43689   3.111  18.022   7.134
 3330POPC   C4B43690   3.435  18.075   7.505
 3331POPC   NC343691   7.362  20.529   5.356
 3331POPC   PO443692   8.024  20.626   5.457
 3331POPC   GL143693   7.734  20.669   5.829
 3331POPC   GL243694   7.629  20.353   5.768
 3331POPC   C1A43695   7.515  20.654   6.274
 3331POPC   D2A43696   7.516  20.422   6.712
 3331POPC   C3A43697   7.554  20.630   7.115
 3331POPC   C4A43698   7.828  20.913   7.305
 3331POPC   C1B43699   7.244  20.316   5.989
 3331POPC   C2B43700   7.135  20.331   6.412
 3331POPC   C3B43701   7.009  20.199   6.823
 3331POPC   C4B43702   7.274  20.208   7.182
 3332POPC   NC343703  36.701   8.502   5.501
 3332POPC   PO443704  37.320   8.102   5.422
 3332POPC   GL143705  37.019   8.229   5.773
 3332POPC   GL243706  36.939   7.920   5.943
 3332POPC   C1A43707  36.677   8.308   6.132
 3332POPC   D2A43708  36.589   8.063   6.510
 3332POPC   C3A43709  36.506   8.291   6.900
 3332POPC   C4A43710  36.684   8.433   7.301
 3332POPC   C1B43711  37.142   8.166   6.270
 3332POPC   C2B43712  37.115   7.995   6.660
 3332POPC   C3B43713  36.957   8.094   7.030
 3332POPC   C4B43714  37.145   8.193   7.415
 3333POPC   NC343715   1.807  21.456   5.476
 3333POPC   PO443716   2.461  21.466   5.323
 3333POPC   GL143717   2.225  21.490   5.773
 3333POPC   GL243718   2.190  21.160   5.874
 3333POPC   C1A43719   1.891  21.635   6.129
 3333POPC   D2A43720   1.767  21.490   6.577
 3333POPC   C3A43721   1.877  21.647   7.008
 3333POPC   C4A43722   1.970  21.410   7.427
 3333POPC   C1B43723   2.298  21.399   6.274
 3333POPC   C2B43724   2.292  21.643   6.661
 3333POPC   C3B43725   2.366  21.557   7.114
 3333POPC   C4B43726   2.399  21.615   7.598
 3334POPC   NC343727  28.468   2.825   5.429
 3334POPC   PO443728  27.855   2.710   5.265
 3334POPC   GL143729  28.119   2.671   5.748
 3334POPC   GL243730  28.492   2.522   5.854
 3334POPC   C1A43731  28.178   2.692   6.211
 3334POPC   D2A43732  28.408   2.745   6.583
 3334POPC   C3A43733  28.216   2.911   6.959
 3334POPC   C4A43734  28.208   2.552   7.190
 3334POPC   C1B43735  28.746   2.733   6.187
 3334POPC   C2B43736  28.911   2.833   6.626
 3334POPC   C3B43737  28.688   2.713   7.010
 3334POPC   C4B43738  28.599   2.771   7.456
 3335POPC   NC343739  27.361  29.277   5.405
 3335POPC   PO443740  27.936  28.900   5.241
 3335POPC   GL143741  27.670  28.985   5.683
 3335POPC   GL243742  27.347  28.817   5.737
 3335POPC   C1A43743  27.660  28.927   6.140
 3335POPC   D2A43744  27.483  29.150   6.509
 3335POPC   C3A43745  27.631  29.080   6.952
 3335POPC   C4A43746  27.748  29.390   7.294
 3335POPC   C1B43747  27.160  28.824   6.169
 3335POPC   C2B43748  27.019  28.908   6.581
 3335POPC   C3B43749  27.147  28.925   6.989
 3335POPC   C4B43750  27.107  28.826   7.397
 3336POPC   NC343751  31.254  37.492   5.517
 3336POPC   PO443752  31.769  37.822   5.042
 3336POPC   GL143753  31.786  37.683   5.615
 3336POPC   GL243754  31.645  37.364   5.827
 3336POPC   C1A43755  31.813  37.686   6.161
 3336POPC   D2A43756  31.589  37.756   6.586
 3336POPC   C3A43757  31.689  37.608   7.056
 3336POPC   C4A43758  31.668  37.845   7.476
 3336POPC   C1B43759  31.318  37.510   6.180
 3336POPC   C2B43760  31.098  37.604   6.582
 3336POPC   C3B43761  31.226  37.812   6.946
 3336POPC   C4B43762  31.194  37.604   7.304
 3337POPC   NC343763  14.639  10.322   5.498
 3337POPC   PO443764  14.067  10.602   5.561
 3337POPC   GL143765  14.447  10.738   5.762
 3337POPC   GL243766  14.261  11.021   5.801
 3337POPC   C1A43767  14.571  10.563   6.160
 3337POPC   D2A43768  14.517  10.318   6.525
 3337POPC   C3A43769  14.509  10.473   6.910
 3337POPC   C4A43770  14.191  10.569   7.163
 3337POPC   C1B43771  14.362  11.034   6.233
 3337POPC   C2B43772  14.188  10.930   6.631
 3337POPC   C3B43773  14.428  10.996   6.983
 3337POPC   C4B43774  14.649  10.746   7.312
 3338POPC   NC343775  30.570  23.810   5.471
 3338POPC   PO443776  31.192  23.811   5.604
 3338POPC   GL143777  30.894  23.655   5.888
 3338POPC   GL243778  30.639  23.419   5.777
 3338POPC   C1A43779  30.694  23.796   6.268
 3338POPC   D2A43780  30.716  23.668   6.699
 3338POPC   C3A43781  30.555  23.911   7.032
 3338POPC   C4A43782  30.628  24.080   7.438
 3338POPC   C1B43783  30.494  23.251   6.188
 3338POPC   C2B43784  30.580  23.176   6.637
 3338POPC   C3B43785  30.474  23.375   7.047
 3338POPC   C4B43786  30.517  23.588   7.469
 3339POPC   NC343787  42.037  32.819   5.521
 3339POPC   PO443788  42.427  33.328   5.457
 3339POPC   GL143789  42.377  33.127   5.820
 3339POPC   GL243790  42.482  32.753   5.802
 3339POPC   C1A43791  42.231  33.294   6.221
 3339POPC   D2A43792  42.390  33.284   6.630
 3339POPC   C3A43793  42.131  33.071   6.947
 3339POPC   C4A43794  42.206  33.407   7.176
 3339POPC   C1B43795  42.622  32.921   6.206
 3339POPC   C2B43796  42.468  32.782   6.596
 3339POPC   C3B43797  42.614  32.920   6.986
 3339POPC   C4B43798  42.832  32.823   7.333
 3340POPC   NC343799  21.360  41.141   5.357
 3340POPC   PO443800  21.941  41.062   5.298
 3340POPC   GL143801  21.634  41.049   5.757
 3340POPC   GL243802  21.319  40.836   5.771
 3340POPC   C1A43803  21.579  40.849   6.203
 3340POPC   D2A43804  21.652  40.994   6.643
 3340POPC   C3A43805  21.470  40.753   7.018
 3340POPC   C4A43806  21.498  40.698   7.481
 3340POPC   C1B43807  21.049  40.840   6.181
 3340POPC   C2B43808  21.033  40.956   6.639
 3340POPC   C3B43809  20.921  40.676   6.982
 3340POPC   C4B43810  21.012  40.588   7.412
 3341POPC   NC343811  23.393  15.982   5.541
 3341POPC   PO443812  22.764  15.672   5.602
 3341POPC   GL143813  22.908  16.053   5.906
 3341POPC   GL243814  23.260  16.216   5.973
 3341POPC   C1A43815  22.986  16.166   6.390
 3341POPC   D2A43816  23.103  16.220   6.855
 3341POPC   C3A43817  22.852  15.962   7.168
 3341POPC   C4A43818  22.548  15.649   7.244
 3341POPC   C1B43819  23.232  15.753   6.162
 3341POPC   C2B43820  23.403  15.555   6.521
 3341POPC   C3B43821  23.177  15.693   6.868
 3341POPC   C4B43822  23.292  15.690   7.295
 3342POPC   NC343823  33.936  41.977   5.544
 3342POPC   PO443824  33.709  41.444   5.168
 3342POPC   GL143825  33.902  41.543   5.738
 3342POPC   GL243826  34.183  41.357   5.888
 3342POPC   C1A43827  33.745  41.745   6.131
 3342POPC   D2A43828  33.594  41.583   6.532
 3342POPC   C3A43829  33.584  41.837   6.904
 3342POPC   C4A43830  33.674  41.740   7.342
 3342POPC   C1B43831  34.143  41.502   6.349
 3342POPC   C2B43832  34.086  41.582   6.820
 3342POPC   C3B43833  33.989  41.305   7.182
 3342POPC   C4B43834  33.997  41.118   7.618
 3343POPC   NC343835  40.557  19.047   5.201
 3343POPC   PO443836  41.093  19.360   5.491
 3343POPC   GL143837  40.863  19.087   5.862
 3343POPC   GL243838  40.558  18.960   5.772
 3343POPC   C1A43839  40.896  18.881   6.293
 3343POPC   D2A43840  40.852  18.770   6.748
 3343POPC   C3A43841  41.068  19.100   6.959
 3343POPC   C4A43842  41.006  19.387   7.311
 3343POPC   C1B43843  40.458  19.159   6.196
 3343POPC   C2B43844  40.594  19.217   6.654
 3343POPC   C3B43845  40.575  19.093   7.090
 3343POPC   C4B43846  40.572  19.213   7.524
 3344POPC   NC343847  20.710  43.515   5.378
 3344POPC   PO443848  20.285  42.945   5.324
 3344POPC   GL143849  20.507  43.124   5.722
 3344POPC   GL243850  20.783  42.894   5.795
 3344POPC   C1A43851  20.468  43.252   6.185
 3344POPC   D2A43852  20.544  43.055   6.590
 3344POPC   C3A43853  20.577  43.264   6.984
 3344POPC   C4A43854  20.665  43.174   7.396
 3344POPC   C1B43855  20.972  42.858   6.202
 3344POPC   C2B43856  20.875  42.674   6.593
 3344POPC   C3B43857  20.940  42.883   6.955
 3344POPC   C4B43858  20.906  42.737   7.341
 3345POPC   NC343859  37.301   9.393   5.129
 3345POPC   PO443860  37.053   8.837   5.486
 3345POPC   GL143861  36.896   9.076   5.815
 3345POPC   GL243862  36.678   8.831   5.889
 3345POPC   C1A43863  36.781   9.198   6.250
 3345POPC   D2A43864  36.833   8.986   6.660
 3345POPC   C3A43865  36.863   9.187   7.053
 3345POPC   C4A43866  37.192   9.173   7.354
 3345POPC   C1B43867  36.972   8.705   6.225
 3345POPC   C2B43868  36.896   8.481   6.623
 3345POPC   C3B43869  37.087   8.600   7.023
 3345POPC   C4B43870  37.097   8.704   7.459
 3346POPC   NC343871   0.984   0.440   5.533
 3346POPC   PO443872   1.310  44.935   5.121
 3346POPC   GL143873   1.364   0.174   5.647
 3346POPC   GL243874   1.500   0.426   5.831
 3346POPC   C1A43875   1.116   0.219   6.104
 3346POPC   D2A43876   1.005   0.110   6.537
 3346POPC   C3A43877   1.052   0.429   6.869
 3346POPC   C4A43878   1.145   0.433   7.341
 3346POPC   C1B43879   1.479   0.614   6.226
 3346POPC   C2B43880   1.643   0.564   6.631
 3346POPC   C3B43881   1.713   0.711   7.035
 3346POPC   C4B43882   1.474   0.839   7.377
 3347POPC   NC343883  42.080  28.795   5.418
 3347POPC   PO443884  42.410  29.290   5.616
 3347POPC   GL143885  42.284  29.264   5.962
 3347POPC   GL243886  42.141  28.942   5.934
 3347POPC   C1A43887  42.367  29.438   6.325
 3347POPC   D2A43888  42.353  29.123   6.606
 3347POPC   C3A43889  42.512  29.268   6.973
 3347POPC   C4A43890  42.408  29.266   7.362
 3347POPC   C1B43891  41.906  28.666   6.218
 3347POPC   C2B43892  42.032  28.534   6.629
 3347POPC   C3B43893  42.097  28.830   6.937
 3347POPC   C4B43894  41.947  28.936   7.332
 3348POPC   NC343895   7.751  10.306   5.343
 3348POPC   PO443896   7.159  10.478   5.532
 3348POPC   GL143897   7.542  10.492   5.806
 3348POPC   GL243898   7.750  10.205   5.850
 3348POPC   C1A43899   7.713  10.512   6.272
 3348POPC   D2A43900   7.786  10.809   6.671
 3348POPC   C3A43901   7.691  10.721   7.133
 3348POPC   C4A43902   7.275  10.700   7.291
 3348POPC   C1B43903   7.332  10.152   6.111
 3348POPC   C2B43904   7.197  10.196   6.546
 3348POPC   C3B43905   7.372  10.339   6.942
 3348POPC   C4B43906   7.198  10.150   7.307
 3349POPC   NC343907   4.761   7.864   5.482
 3349POPC   PO443908   4.068   8.061   5.280
 3349POPC   GL143909   4.113   8.110   5.727
 3349POPC   GL243910   4.468   8.161   5.818
 3349POPC   C1A43911   4.036   8.144   6.161
 3349POPC   D2A43912   4.213   8.089   6.552
 3349POPC   C3A43913   4.113   8.316   6.881
 3349POPC   C4A43914   4.084   8.064   7.236
 3349POPC   C1B43915   4.523   8.350   6.231
 3349POPC   C2B43916   4.678   8.273   6.661
 3349POPC   C3B43917   4.555   8.143   7.071
 3349POPC   C4B43918   4.576   8.174   7.526
 3350POPC   NC343919  27.000  38.532   5.228
 3350POPC   PO443920  26.506  38.208   5.420
 3350POPC   GL143921  26.644  38.438   5.778
 3350POPC   GL243922  26.931  38.673   5.715
 3350POPC   C1A43923  26.946  38.347   6.120
 3350POPC   D2A43924  27.038  38.185   6.531
 3350POPC   C3A43925  26.741  38.334   6.829
 3350POPC   C4A43926  26.719  38.179   7.206
 3350POPC   C1B43927  27.278  38.755   6.013
 3350POPC   C2B43928  27.280  38.801   6.485
 3350POPC   C3B43929  27.187  38.584   6.833
 3350POPC   C4B43930  26.976  38.608   7.216
 3351POPC   NC343931  23.963  38.397   5.528
 3351POPC   PO443932  23.495  38.848   5.306
 3351POPC   GL143933  23.510  38.579   5.711
 3351POPC   GL243934  23.238  38.349   5.701
 3351POPC   C1A43935  23.730  38.555   6.143
 3351POPC   D2A43936  23.995  38.321   6.469
 3351POPC   C3A43937  23.915  38.307   6.919
 3351POPC   C4A43938  24.037  38.719   7.008
 3351POPC   C1B43939  23.242  38.332   6.148
 3351POPC   C2B43940  23.399  38.512   6.534
 3351POPC   C3B43941  23.355  38.446   6.969
 3351POPC   C4B43942  23.625  38.567   7.296
 3352POPC   NC343943   1.070  16.636   5.542
 3352POPC   PO443944   1.626  16.258   5.645
 3352POPC   GL143945   1.468  16.681   5.870
 3352POPC   GL243946   1.122  16.888   5.973
 3352POPC   C1A43947   1.352  16.594   6.293
 3352POPC   D2A43948   1.229  16.414   6.637
 3352POPC   C3A43949   1.295  16.655   6.934
 3352POPC   C4A43950   1.393  16.465   7.251
 3352POPC   C1B43951   0.865  16.769   6.358
 3352POPC   C2B43952   0.788  16.604   6.781
 3352POPC   C3B43953   0.890  16.678   7.240
 3352POPC   C4B43954   0.855  16.950   7.571
 3353POPC   NC343955  14.542   6.073   5.495
 3353POPC   PO443956  14.123   5.573   5.524
 3353POPC   GL143957  14.436   5.733   5.862
 3353POPC   GL243958  14.399   6.072   5.973
 3353POPC   C1A43959  14.613   5.758   6.302
 3353POPC   D2A43960  14.307   5.849   6.634
 3353POPC   C3A43961  14.389   5.797   7.049
 3353POPC   C4A43962  14.762   5.847   7.280
 3353POPC   C1B43963  14.091   6.338   6.107
 3353POPC   C2B43964  14.016   6.337   6.541
 3353POPC   C3B43965  14.194   6.267   6.944
 3353POPC   C4B43966  14.315   6.279   7.377
 3354POPC   NC343967  19.608   4.269   5.478
 3354POPC   PO443968  19.878   4.789   5.184
 3354POPC   GL143969  20.013   4.544   5.664
 3354POPC   GL243970  19.916   4.151   5.866
 3354POPC   C1A43971  20.083   4.525   6.148
 3354POPC   D2A43972  19.831   4.240   6.443
 3354POPC   C3A43973  19.836   4.376   6.881
 3354POPC   C4A43974  19.767   4.281   7.291
 3354POPC   C1B43975  20.245   4.033   6.237
 3354POPC   C2B43976  20.241   3.816   6.655
 3354POPC   C3B43977  20.153   4.003   7.069
 3354POPC   C4B43978  20.233   4.293   7.470
 3355POPC   NC343979   7.164  39.183   5.534
 3355POPC   PO443980   7.609  39.564   5.333
 3355POPC   GL143981   7.656  39.403   5.772
 3355POPC   GL243982   7.792  39.063   5.831
 3355POPC   C1A43983   7.427  39.249   6.163
 3355POPC   D2A43984   7.358  38.970   6.559
 3355POPC   C3A43985   7.309  39.217   6.921
 3355POPC   C4A43986   7.630  39.471   7.082
 3355POPC   C1B43987   7.804  38.919   6.289
 3355POPC   C2B43988   7.885  38.936   6.766
 3355POPC   C3B43989   7.672  38.948   7.191
 3355POPC   C4B43990   7.657  38.916   7.647
 3356POPC   NC343991  30.552  31.714   5.509
 3356POPC   PO443992  30.968  31.235   5.500
 3356POPC   GL143993  30.848  31.374   5.877
 3356POPC   GL243994  30.519  31.339   5.884
 3356POPC   C1A43995  30.913  31.592   6.269
 3356POPC   D2A43996  30.733  31.640   6.668
 3356POPC   C3A43997  30.858  31.492   7.076
 3356POPC   C4A43998  30.842  31.730   7.445
 3356POPC   C1B43999  30.401  31.545   6.258
 3356POPC   C2B44000  30.211  31.658   6.658
 3356POPC   C3B44001  30.331  31.662   7.073
 3356POPC   C4B44002  30.422  31.458   7.413
 3357POPC   NC344003  25.155  36.489   5.560
 3357POPC   PO444004  25.530  35.883   5.479
 3357POPC   GL144005  25.374  36.090   5.817
 3357POPC   GL244006  25.018  36.020   5.782
 3357POPC   C1A44007  25.470  36.265   6.192
 3357POPC   D2A44008  25.273  36.386   6.538
 3357POPC   C3A44009  25.229  36.151   6.862
 3357POPC   C4A44010  25.435  35.897   7.135
 3357POPC   C1B44011  24.934  36.239   6.174
 3357POPC   C2B44012  24.761  36.249   6.601
 3357POPC   C3B44013  24.738  36.037   6.964
 3357POPC   C4B44014  24.993  36.049   7.310
 3358POPC   NC344015  11.274  23.754   5.330
 3358POPC   PO444016  10.698  23.941   5.164
 3358POPC   GL144017  10.877  23.962   5.734
 3358POPC   GL244018  11.224  24.034   5.826
 3358POPC   C1A44019  10.969  23.847   6.212
 3358POPC   D2A44020  10.921  23.868   6.707
 3358POPC   C3A44021  11.023  23.642   7.149
 3358POPC   C4A44022  11.168  23.608   7.643
 3358POPC   C1B44023  11.495  24.196   6.195
 3358POPC   C2B44024  11.687  24.224   6.641
 3358POPC   C3B44025  11.703  23.975   7.061
 3358POPC   C4B44026  11.767  23.943   7.527
 3359POPC   NC344027  40.545  14.903   5.050
 3359POPC   PO444028  41.023  15.213   5.479
 3359POPC   GL144029  40.986  15.384   5.893
 3359POPC   GL244030  40.657  15.269   5.872
 3359POPC   C1A44031  40.856  15.428   6.345
 3359POPC   D2A44032  41.075  15.393   6.749
 3359POPC   C3A44033  41.112  15.044   6.988
 3359POPC   C4A44034  40.878  14.939   7.307
 3359POPC   C1B44035  40.386  15.323   6.187
 3359POPC   C2B44036  40.428  15.184   6.576
 3359POPC   C3B44037  40.602  15.225   6.980
 3359POPC   C4B44038  40.379  15.134   7.340
 3360POPC   NC344039   7.157  39.820   5.277
 3360POPC   PO444040   7.536  40.226   5.390
 3360POPC   GL144041   7.456  39.916   5.720
 3360POPC   GL244042   7.204  39.648   5.747
 3360POPC   C1A44043   7.552  39.886   6.160
 3360POPC   D2A44044   7.422  40.143   6.524
 3360POPC   C3A44045   7.565  40.166   6.953
 3360POPC   C4A44046   7.358  40.467   7.231
 3360POPC   C1B44047   7.091  39.646   6.159
 3360POPC   C2B44048   7.303  39.595   6.532
 3360POPC   C3B44049   7.225  39.745   6.907
 3360POPC   C4B44050   7.050  39.547   7.233
 3361POPC   NC344051  30.522  32.713   5.478
 3361POPC   PO444052  30.844  32.141   5.523
 3361POPC   GL144053  30.763  32.454   5.871
 3361POPC   GL244054  30.400  32.465   5.898
 3361POPC   C1A44055  30.682  32.450   6.345
 3361POPC   D2A44056  30.502  32.097   6.622
 3361POPC   C3A44057  30.719  31.994   7.016
 3361POPC   C4A44058  30.718  32.224   7.343
 3361POPC   C1B44059  30.158  32.454   6.268
 3361POPC   C2B44060  30.155  32.459   6.683
 3361POPC   C3B44061  30.520  32.560   6.937
 3361POPC   C4B44062  30.401  32.591   7.393
 3362POPC   NC344063  40.110   1.680   5.516
 3362POPC   PO444064  39.646   2.122   5.455
 3362POPC   GL144065  39.977   2.120   5.778
 3362POPC   GL244066  39.806   2.353   5.973
 3362POPC   C1A44067  40.169   1.934   6.167
 3362POPC   D2A44068  40.097   2.113   6.582
 3362POPC   C3A44069  40.271   1.918   6.936
 3362POPC   C4A44070  40.144   1.706   7.282
 3362POPC   C1B44071  39.668   1.989   6.209
 3362POPC   C2B44072  39.533   2.014   6.622
 3362POPC   C3B44073  39.753   2.103   6.992
 3362POPC   C4B44074  39.998   2.229   7.347
 3363POPC   NC344075  35.576  33.217   5.241
 3363POPC   PO444076  35.493  32.543   5.128
 3363POPC   GL144077  35.563  32.754   5.604
 3363POPC   GL244078  35.496  33.112   5.739
 3363POPC   C1A44079  35.523  32.741   6.110
 3363POPC   D2A44080  35.308  32.855   6.544
 3363POPC   C3A44081  35.451  32.696   6.971
 3363POPC   C4A44082  35.321  32.882   7.397
 3363POPC   C1B44083  35.378  33.275   6.151
 3363POPC   C2B44084  35.508  33.338   6.562
 3363POPC   C3B44085  35.452  33.205   6.975
 3363POPC   C4B44086  35.511  33.380   7.354
 3364POPC   NC344087   1.396  44.473   5.153
 3364POPC   PO444088   0.952  44.936   5.500
 3364POPC   GL144089   1.196  44.749   5.838
 3364POPC   GL244090   1.465  44.572   5.653
 3364POPC   C1A44091   1.080  44.681   6.267
 3364POPC   D2A44092   1.041  44.566   6.735
 3364POPC   C3A44093   1.041  44.936   7.026
 3364POPC   C4A44094   1.327  44.915   7.370
 3364POPC   C1B44095   1.567  44.495   6.087
 3364POPC   C2B44096   1.513  44.530   6.541
 3364POPC   C3B44097   1.493  44.448   7.007
 3364POPC   C4B44098   1.437  44.423   7.489
 3365POPC   NC344099  12.990   5.407   5.399
 3365POPC   PO444100  12.804   6.150   5.307
 3365POPC   GL144101  12.793   5.874   5.660
 3365POPC   GL244102  13.014   5.991   5.940
 3365POPC   C1A44103  12.587   5.742   6.045
 3365POPC   D2A44104  12.722   5.940   6.427
 3365POPC   C3A44105  12.733   5.833   6.869
 3365POPC   C4A44106  12.713   6.119   7.193
 3365POPC   C1B44107  13.062   5.616   6.210
 3365POPC   C2B44108  13.162   5.738   6.610
 3365POPC   C3B44109  13.274   5.948   6.940
 3365POPC   C4B44110  13.083   5.736   7.256
 3366POPC   NC344111   8.032  33.489   5.507
 3366POPC   PO444112   8.422  34.010   5.414
 3366POPC   GL144113   8.212  33.990   5.859
 3366POPC   GL244114   7.978  33.730   5.938
 3366POPC   C1A44115   8.188  33.950   6.352
 3366POPC   D2A44116   8.379  33.951   6.775
 3366POPC   C3A44117   8.235  33.960   7.223
 3366POPC   C4A44118   8.251  34.252   7.587
 3366POPC   C1B44119   8.192  33.426   6.224
 3366POPC   C2B44120   8.501  33.522   6.557
 3366POPC   C3B44121   8.387  33.506   6.996
 3366POPC   C4B44122   8.043  33.282   7.163
 3367POPC   NC344123  23.123  40.580   5.304
 3367POPC   PO444124  22.541  40.702   5.577
 3367POPC   GL144125  22.817  40.827   5.837
 3367POPC   GL244126  23.126  40.763   5.777
 3367POPC   C1A44127  22.964  40.874   6.260
 3367POPC   D2A44128  22.766  40.813   6.604
 3367POPC   C3A44129  22.945  40.802   6.970
 3367POPC   C4A44130  22.789  40.917   7.336
 3367POPC   C1B44131  23.034  40.399   6.039
 3367POPC   C2B44132  23.088  40.421   6.483
 3367POPC   C3B44133  23.332  40.454   6.878
 3367POPC   C4B44134  23.114  40.455   7.292
 3368POPC   NC344135   4.643  26.513   5.408
 3368POPC   PO444136   4.274  27.131   5.348
 3368POPC   GL144137   4.311  26.787   5.699
 3368POPC   GL244138   4.658  26.759   5.886
 3368POPC   C1A44139   4.220  26.582   6.108
 3368POPC   D2A44140   4.367  26.682   6.542
 3368POPC   C3A44141   4.236  26.663   6.979
 3368POPC   C4A44142   4.578  26.829   7.195
 3368POPC   C1B44143   4.374  27.068   6.150
 3368POPC   C2B44144   4.060  27.095   6.486
 3368POPC   C3B44145   4.208  27.169   6.901
 3368POPC   C4B44146   4.316  27.263   7.320
 3369POPC   NC344147  26.152  35.559   5.790
 3369POPC   PO444148  25.671  35.300   5.360
 3369POPC   GL144149  25.685  35.259   5.865
 3369POPC   GL244150  25.963  35.156   6.076
 3369POPC   C1A44151  25.634  35.364   6.374
 3369POPC   D2A44152  25.990  35.474   6.640
 3369POPC   C3A44153  26.073  35.307   7.050
 3369POPC   C4A44154  26.070  35.208   7.487
 3369POPC   C1B44155  26.311  35.234   6.330
 3369POPC   C2B44156  26.533  35.242   6.693
 3369POPC   C3B44157  26.480  34.986   7.046
 3369POPC   C4B44158  26.609  35.089   7.429
 3370POPC   NC344159  39.860   9.380   5.528
 3370POPC   PO444160  40.352   9.965   5.583
 3370POPC   GL144161  40.026   9.830   5.868
 3370POPC   GL244162  39.961  10.170   5.995
 3370POPC   C1A44163  39.944   9.640   6.304
 3370POPC   D2A44164  39.823   9.516   6.753
 3370POPC   C3A44165  39.964   9.735   7.136
 3370POPC   C4A44166  39.691   9.937   7.466
 3370POPC   C1B44167  40.312  10.004   6.269
 3370POPC   C2B44168  40.240   9.865   6.684
 3370POPC   C3B44169  40.440   9.998   7.018
 3370POPC   C4B44170  40.365  10.052   7.432
 3371POPC   NC344171  44.798  31.883   5.486
 3371POPC   PO444172  44.189  32.032   5.544
 3371POPC   GL144173  44.327  32.174   5.910
 3371POPC   GL244174  44.645  32.307   5.818
 3371POPC   C1A44175  44.402  32.118   6.321
 3371POPC   D2A44176  44.639  32.309   6.644
 3371POPC   C3A44177  44.525  32.094   7.000
 3371POPC   C4A44178  44.165  32.211   7.199
 3371POPC   C1B44179  44.897  32.159   6.180
 3371POPC   C2B44180   0.171  32.294   6.531
 3371POPC   C3B44181   0.029  32.282   6.974
 3371POPC   C4B44182  44.870  32.129   7.390
 3372POPC   NC344183  19.960  33.388   5.558
 3372POPC   PO444184  19.497  33.862   5.432
 3372POPC   GL144185  19.738  33.836   5.813
 3372POPC   GL244186  19.644  33.497   5.921
 3372POPC   C1A44187  19.894  34.080   6.187
 3372POPC   D2A44188  20.236  34.016   6.495
 3372POPC   C3A44189  20.111  33.962   6.927
 3372POPC   C4A44190  19.712  33.822   7.133
 3372POPC   C1B44191  19.975  33.585   6.221
 3372POPC   C2B44192  19.848  33.638   6.624
 3372POPC   C3B44193  19.998  33.442   6.988
 3372POPC   C4B44194  20.061  33.319   7.377
 3373POPC   NC344195  14.175  27.725   5.474
 3373POPC   PO444196  13.501  27.619   5.311
 3373POPC   GL144197  13.514  27.776   5.752
 3373POPC   GL244198  13.712  27.481   5.801
 3373POPC   C1A44199  13.698  27.807   6.211
 3373POPC   D2A44200  13.732  27.539   6.631
 3373POPC   C3A44201  13.764  27.708   7.060
 3373POPC   C4A44202  13.551  27.832   7.461
 3373POPC   C1B44203  13.503  27.334   6.173
 3373POPC   C2B44204  13.257  27.370   6.560
 3373POPC   C3B44205  13.397  27.256   6.978
 3373POPC   C4B44206  13.182  27.158   7.384
 3374POPC   NC344207  39.761  40.940   5.428
 3374POPC   PO444208  40.452  40.701   5.365
 3374POPC   GL144209  40.134  40.647   5.690
 3374POPC   GL244210  39.836  40.746   5.882
 3374POPC   C1A44211  40.203  40.551   6.149
 3374POPC   D2A44212  40.220  40.750   6.517
 3374POPC   C3A44213  40.058  40.652   6.924
 3374POPC   C4A44214  40.224  40.919   7.266
 3374POPC   C1B44215  39.765  40.876   6.302
 3374POPC   C2B44216  39.847  41.083   6.690
 3374POPC   C3B44217  39.718  40.983   7.114
 3374POPC   C4B44218  39.466  41.078   7.462
 3375POPC   NC344219  27.476   2.967   5.324
 3375POPC   PO444220  27.867   3.114   5.835
 3375POPC   GL144221  27.653   2.724   5.930
 3375POPC   GL244222  27.408   2.597   5.744
 3375POPC   C1A44223  27.702   2.475   6.267
 3375POPC   D2A44224  27.918   2.518   6.655
 3375POPC   C3A44225  27.659   2.610   7.003
 3375POPC   C4A44226  27.794   2.802   7.362
 3375POPC   C1B44227  27.180   2.622   6.147
 3375POPC   C2B44228  27.280   2.663   6.614
 3375POPC   C3B44229  27.181   2.847   7.036
 3375POPC   C4B44230  27.305   2.950   7.471
 3376POPC   NC344231  42.743  42.932   5.409
 3376POPC   PO444232  42.095  43.108   5.432
 3376POPC   GL144233  42.427  43.145   5.763
 3376POPC   GL244234  42.575  42.877   5.890
 3376POPC   C1A44235  42.491  43.419   6.109
 3376POPC   D2A44236  42.414  43.455   6.550
 3376POPC   C3A44237  42.486  43.109   6.847
 3376POPC   C4A44238  42.599  42.818   7.181
 3376POPC   C1B44239  42.454  42.941   6.312
 3376POPC   C2B44240  42.082  42.926   6.555
 3376POPC   C3B44241  42.044  42.856   6.962
 3376POPC   C4B44242  42.122  42.820   7.336
 3377POPC   NC344243  24.304   3.038   5.199
 3377POPC   PO444244  24.709   2.534   5.411
 3377POPC   GL144245  24.742   2.919   5.695
 3377POPC   GL244246  24.375   3.024   5.716
 3377POPC   C1A44247  24.710   3.089   6.145
 3377POPC   D2A44248  24.588   2.841   6.533
 3377POPC   C3A44249  24.728   2.721   6.961
 3377POPC   C4A44250  24.630   2.634   7.414
 3377POPC   C1B44251  24.175   2.913   6.105
 3377POPC   C2B44252  24.083   2.927   6.540
 3377POPC   C3B44253  24.203   2.646   6.868
 3377POPC   C4B44254  24.126   2.783   7.267
 3378POPC   NC344255  24.992  43.394   5.413
 3378POPC   PO444256  25.112  42.813   5.114
 3378POPC   GL144257  25.183  42.933   5.605
 3378POPC   GL244258  25.343  43.271   5.741
 3378POPC   C1A44259  25.130  42.948   6.079
 3378POPC   D2A44260  25.363  43.105   6.456
 3378POPC   C3A44261  25.241  42.976   6.886
 3378POPC   C4A44262  25.083  42.894   7.322
 3378POPC   C1B44263  25.411  43.511   6.111
 3378POPC   C2B44264  25.531  43.566   6.568
 3378POPC   C3B44265  25.460  43.423   6.985
 3378POPC   C4B44266  25.555  43.099   7.269
 3379POPC   NC344267  24.746  32.034   5.506
 3379POPC   PO444268  24.309  32.525   5.388
 3379POPC   GL144269  24.350  32.301   5.763
 3379POPC   GL244270  24.275  31.920   5.691
 3379POPC   C1A44271  24.307  32.543   6.157
 3379POPC   D2A44272  24.172  32.575   6.570
 3379POPC   C3A44273  24.429  32.569   6.925
 3379POPC   C4A44274  24.364  32.344   7.293
 3379POPC   C1B44275  24.429  31.840   6.116
 3379POPC   C2B44276  24.365  32.027   6.527
 3379POPC   C3B44277  24.602  32.087   6.914
 3379POPC   C4B44278  24.688  31.945   7.331
 3380POPC   NC344279  34.927   7.262   5.399
 3380POPC   PO444280  34.409   7.683   5.235
 3380POPC   GL144281  34.596   7.569   5.681
 3380POPC   GL244282  34.332   7.393   5.823
 3380POPC   C1A44283  34.803   7.347   6.107
 3380POPC   D2A44284  34.673   7.156   6.547
 3380POPC   C3A44285  34.880   7.218   6.981
 3380POPC   C4A44286  34.884   7.463   7.363
 3380POPC   C1B44287  34.372   7.611   6.191
 3380POPC   C2B44288  34.555   7.840   6.522
 3380POPC   C3B44289  34.541   7.591   6.874
 3380POPC   C4B44290  34.384   7.548   7.271
 3381POPC   NC344291  27.110   7.607   5.373
 3381POPC   PO444292  26.511   7.339   5.492
 3381POPC   GL144293  26.549   7.668   5.841
 3381POPC   GL244294  26.870   7.799   5.802
 3381POPC   C1A44295  26.720   7.694   6.307
 3381POPC   D2A44296  26.751   7.441   6.697
 3381POPC   C3A44297  26.927   7.415   7.111
 3381POPC   C4A44298  26.758   7.098   7.383
 3381POPC   C1B44299  26.998   7.366   5.998
 3381POPC   C2B44300  27.230   7.141   6.330
 3381POPC   C3B44301  27.248   7.170   6.790
 3381POPC   C4B44302  27.426   7.207   7.200
 3382POPC   NC344303   0.342  20.879   5.397
 3382POPC   PO444304   0.622  21.483   5.538
 3382POPC   GL144305   0.506  21.198   5.839
 3382POPC   GL244306   0.147  21.229   5.771
 3382POPC   C1A44307   0.525  21.335   6.281
 3382POPC   D2A44308   0.844  21.450   6.600
 3382POPC   C3A44309   0.690  21.313   7.000
 3382POPC   C4A44310   0.676  21.520   7.394
 3382POPC   C1B44311   0.073  21.062   6.199
 3382POPC   C2B44312   0.169  21.105   6.647
 3382POPC   C3B44313   0.165  21.205   7.084
 3382POPC   C4B44314   0.197  21.627   7.247
 3383POPC   NC344315   2.140  15.322   5.376
 3383POPC   PO444316   1.659  14.841   5.585
 3383POPC   GL144317   1.818  15.215   5.769
 3383POPC   GL244318   1.586  15.433   5.903
 3383POPC   C1A44319   2.029  15.330   6.134
 3383POPC   D2A44320   2.082  15.091   6.470
 3383POPC   C3A44321   2.046  15.249   6.858
 3383POPC   C4A44322   2.287  15.115   7.210
 3383POPC   C1B44323   1.527  15.071   6.210
 3383POPC   C2B44324   1.600  14.859   6.592
 3383POPC   C3B44325   1.589  15.022   6.982
 3383POPC   C4B44326   1.795  15.268   7.298
 3384POPC   NC344327  37.666  16.376   5.193
 3384POPC   PO444328  37.752  16.728   5.705
 3384POPC   GL144329  37.438  16.768   5.958
 3384POPC   GL244330  37.181  16.501   5.877
 3384POPC   C1A44331  37.547  16.985   6.329
 3384POPC   D2A44332  37.610  16.790   6.690
 3384POPC   C3A44333  37.794  16.972   7.043
 3384POPC   C4A44334  37.606  16.906   7.429
 3384POPC   C1B44335  37.261  16.493   6.340
 3384POPC   C2B44336  37.336  16.325   6.755
 3384POPC   C3B44337  37.433  16.516   7.153
 3384POPC   C4B44338  37.308  16.478   7.616
 3385POPC   NC344339  38.001  19.725   5.513
 3385POPC   PO444340  38.681  19.955   5.452
 3385POPC   GL144341  38.465  19.716   5.758
 3385POPC   GL244342  38.252  20.005   5.844
 3385POPC   C1A44343  38.340  19.614   6.160
 3385POPC   D2A44344  38.183  19.839   6.496
 3385POPC   C3A44345  38.080  19.614   6.880
 3385POPC   C4A44346  38.060  19.843   7.221
 3385POPC   C1B44347  38.595  20.049   6.147
 3385POPC   C2B44348  38.704  19.916   6.574
 3385POPC   C3B44349  38.523  19.832   6.946
 3385POPC   C4B44350  38.563  19.970   7.383
 3386POPC   NC344351   0.814   3.801   5.228
 3386POPC   PO444352   1.446   3.621   5.383
 3386POPC   GL144353   1.349   3.857   5.770
 3386POPC   GL244354   1.350   3.506   5.902
 3386POPC   C1A44355   1.371   3.852   6.256
 3386POPC   D2A44356   1.010   3.640   6.497
 3386POPC   C3A44357   1.028   3.618   6.945
 3386POPC   C4A44358   1.371   3.752   7.203
 3386POPC   C1B44359   1.113   3.214   6.184
 3386POPC   C2B44360   1.049   3.046   6.583
 3386POPC   C3B44361   1.014   3.088   6.994
 3386POPC   C4B44362   1.379   3.211   7.199
 3387POPC   NC344363  24.378  15.812   5.526
 3387POPC   PO444364  25.029  16.025   5.447
 3387POPC   GL144365  24.714  16.127   5.803
 3387POPC   GL244366  24.367  16.307   5.679
 3387POPC   C1A44367  24.581  15.806   6.147
 3387POPC   D2A44368  24.396  15.660   6.525
 3387POPC   C3A44369  24.543  15.852   6.913
 3387POPC   C4A44370  24.373  15.734   7.304
 3387POPC   C1B44371  24.271  16.205   6.099
 3387POPC   C2B44372  24.419  16.179   6.511
 3387POPC   C3B44373  24.248  16.267   6.903
 3387POPC   C4B44374  24.419  16.236   7.295
 3388POPC   NC344375   0.816   8.810   5.722
 3388POPC   PO444376   0.272   9.195   5.481
 3388POPC   GL144377   0.418   9.070   5.865
 3388POPC   GL244378   0.762   9.253   5.917
 3388POPC   C1A44379   0.517   8.940   6.295
 3388POPC   D2A44380   0.679   8.815   6.685
 3388POPC   C3A44381   0.450   8.922   7.057
 3388POPC   C4A44382   0.096   9.098   7.341
 3388POPC   C1B44383   0.957   9.204   6.304
 3388POPC   C2B44384   0.935   9.269   6.730
 3388POPC   C3B44385   0.903   9.133   7.142
 3388POPC   C4B44386   0.828   8.803   7.384
 3389POPC   NC344387  20.630   5.486   5.578
 3389POPC   PO444388  20.732   6.080   5.374
 3389POPC   GL144389  20.515   5.965   5.803
 3389POPC   GL244390  20.242   5.651   5.839
 3389POPC   C1A44391  20.720   5.890   6.221
 3389POPC   D2A44392  20.896   5.700   6.594
 3389POPC   C3A44393  20.705   5.892   6.955
 3389POPC   C4A44394  20.545   5.816   7.343
 3389POPC   C1B44395  20.441   5.475   6.236
 3389POPC   C2B44396  20.370   5.666   6.642
 3389POPC   C3B44397  20.157   5.653   7.064
 3389POPC   C4B44398  20.156   5.598   7.570
 3390POPC   NC344399  22.055  28.185   5.344
 3390POPC   PO444400  21.889  28.748   5.217
 3390POPC   GL144401  22.096  28.523   5.720
 3390POPC   GL244402  22.304  28.235   5.837
 3390POPC   C1A44403  21.950  28.362   6.172
 3390POPC   D2A44404  22.023  28.145   6.563
 3390POPC   C3A44405  22.031  28.364   6.964
 3390POPC   C4A44406  22.351  28.657   7.067
 3390POPC   C1B44407  22.478  28.166   6.293
 3390POPC   C2B44408  22.489  28.115   6.775
 3390POPC   C3B44409  22.468  28.175   7.251
 3390POPC   C4B44410  22.610  28.133   7.738
 3391POPC   NC344411   1.749  33.262   5.469
 3391POPC   PO444412   2.237  33.034   5.176
 3391POPC   GL144413   2.188  33.075   5.730
 3391POPC   GL244414   1.870  33.011   5.897
 3391POPC   C1A44415   2.210  33.157   6.219
 3391POPC   D2A44416   2.029  32.872   6.535
 3391POPC   C3A44417   1.995  32.934   6.976
 3391POPC   C4A44418   2.099  33.277   7.263
 3391POPC   C1B44419   1.658  33.289   6.171
 3391POPC   C2B44420   1.509  33.242   6.600
 3391POPC   C3B44421   1.621  33.254   7.076
 3391POPC   C4B44422   1.667  32.909   7.387
 3392POPC   NC344423  44.586  13.246   5.437
 3392POPC   PO444424  44.605  12.547   5.303
 3392POPC   GL144425  44.724  12.804   5.660
 3392POPC   GL244426  44.371  12.889   5.723
 3392POPC   C1A44427  44.929  12.894   6.085
 3392POPC   D2A44428  44.991  13.196   6.440
 3392POPC   C3A44429  44.967  12.936   6.817
 3392POPC   C4A44430  44.750  12.947   7.218
 3392POPC   C1B44431  44.425  13.024   6.134
 3392POPC   C2B44432  44.500  13.093   6.571
 3392POPC   C3B44433  44.447  13.267   6.977
 3392POPC   C4B44434  44.261  13.095   7.351
 3393POPC   NC344435  36.264   3.917   5.306
 3393POPC   PO444436  36.311   4.550   5.467
 3393POPC   GL144437  36.166   4.410   5.830
 3393POPC   GL244438  36.288   4.088   5.806
 3393POPC   C1A44439  36.236   4.532   6.245
 3393POPC   D2A44440  36.203   4.786   6.573
 3393POPC   C3A44441  36.086   4.538   6.854
 3393POPC   C4A44442  36.177   4.456   7.226
 3393POPC   C1B44443  36.482   4.093   6.212
 3393POPC   C2B44444  36.190   4.070   6.541
 3393POPC   C3B44445  35.937   4.039   6.887
 3393POPC   C4B44446  36.104   3.964   7.264
 3394POPC   NC344447  32.252  35.057   5.341
 3394POPC   PO444448  32.698  35.532   5.360
 3394POPC   GL144449  32.500  35.223   5.747
 3394POPC   GL244450  32.131  35.249   5.802
 3394POPC   C1A44451  32.426  35.156   6.250
 3394POPC   D2A44452  32.522  35.177   6.745
 3394POPC   C3A44453  32.309  35.427   7.124
 3394POPC   C4A44454  32.167  35.486   7.618
 3394POPC   C1B44455  31.887  35.099   6.122
 3394POPC   C2B44456  31.676  35.099   6.499
 3394POPC   C3B44457  31.890  35.229   6.887
 3394POPC   C4B44458  31.814  35.440   7.275
 3395POPC   NC344459   6.881  44.802   5.369
 3395POPC   PO444460   7.581  44.566   5.372
 3395POPC   GL144461   7.591  44.582   5.798
 3395POPC   GL244462   7.225  44.535   5.790
 3395POPC   C1A44463   7.656  44.774   6.200
 3395POPC   D2A44464   7.454  44.885   6.600
 3395POPC   C3A44465   7.621   0.023   6.991
 3395POPC   C4A44466   7.624  44.737   7.361
 3395POPC   C1B44467   7.252  44.461   6.220
 3395POPC   C2B44468   7.069  44.548   6.614
 3395POPC   C3B44469   7.254  44.615   7.017
 3395POPC   C4B44470   7.206  44.434   7.431
 3396POPC   NC344471  20.748  26.883   5.448
 3396POPC   PO444472  20.310  26.422   5.658
 3396POPC   GL144473  20.595  26.637   5.958
 3396POPC   GL244474  20.694  26.963   5.926
 3396POPC   C1A44475  20.709  26.798   6.398
 3396POPC   D2A44476  20.488  26.970   6.745
 3396POPC   C3A44477  20.673  26.843   7.145
 3396POPC   C4A44478  20.724  26.736   7.563
 3396POPC   C1B44479  20.938  27.181   6.181
 3396POPC   C2B44480  20.817  27.358   6.612
 3396POPC   C3B44481  20.822  27.325   7.077
 3396POPC   C4B44482  20.706  27.245   7.530
 3397POPC   NC344483  12.307  16.599   5.382
 3397POPC   PO444484  11.673  16.425   5.336
 3397POPC   GL144485  11.913  16.575   5.767
 3397POPC   GL244486  12.166  16.855   5.805
 3397POPC   C1A44487  12.093  16.558   6.226
 3397POPC   D2A44488  12.365  16.488   6.618
 3397POPC   C3A44489  12.193  16.461   7.025
 3397POPC   C4A44490  12.076  16.744   7.343
 3397POPC   C1B44491  12.311  17.039   6.190
 3397POPC   C2B44492  12.172  16.977   6.598
 3397POPC   C3B44493  12.364  16.926   6.957
 3397POPC   C4B44494  12.499  17.010   7.344
 3398POPC   NC344495  21.820   3.362   5.469
 3398POPC   PO444496  21.107   3.625   5.531
 3398POPC   GL144497  21.385   3.486   5.812
 3398POPC   GL244498  21.657   3.732   5.792
 3398POPC   C1A44499  21.292   3.409   6.256
 3398POPC   D2A44500  21.420   3.174   6.619
 3398POPC   C3A44501  21.331   3.326   7.027
 3398POPC   C4A44502  21.629   3.384   7.331
 3398POPC   C1B44503  21.470   3.883   6.159
 3398POPC   C2B44504  21.525   3.729   6.593
 3398POPC   C3B44505  21.399   3.820   7.010
 3398POPC   C4B44506  21.032   3.749   7.193
 3399POPC   NC344507  40.015  13.336   5.560
 3399POPC   PO444508  40.297  12.659   5.579
 3399POPC   GL144509  40.201  12.939   5.877
 3399POPC   GL244510  39.878  12.868   5.836
 3399POPC   C1A44511  40.081  13.114   6.288
 3399POPC   D2A44512  40.376  13.242   6.632
 3399POPC   C3A44513  40.308  13.001   6.999
 3399POPC   C4A44514  40.117  12.979   7.384
 3399POPC   C1B44515  39.590  12.791   6.133
 3399POPC   C2B44516  39.612  12.989   6.474
 3399POPC   C3B44517  39.522  12.891   6.840
 3399POPC   C4B44518  39.738  12.800   7.153
 3400POPC   NC344519  28.761  13.765   5.478
 3400POPC   PO444520  29.366  13.482   5.391
 3400POPC   GL144521  29.209  13.729   5.728
 3400POPC   GL244522  29.017  13.472   5.853
 3400POPC   C1A44523  29.041  13.912   6.126
 3400POPC   D2A44524  29.147  13.723   6.527
 3400POPC   C3A44525  29.117  13.878   6.947
 3400POPC   C4A44526  29.218  13.701   7.348
 3400POPC   C1B44527  29.376  13.439   6.132
 3400POPC   C2B44528  29.454  13.285   6.557
 3400POPC   C3B44529  29.413  13.362   6.996
 3400POPC   C4B44530  29.412  13.145   7.392
 3401POPC   NC344531  43.096  14.776   5.328
 3401POPC   PO444532  42.794  14.255   5.283
 3401POPC   GL144533  42.994  14.398   5.662
 3401POPC   GL244534  43.227  14.159   5.754
 3401POPC   C1A44535  42.864  14.551   6.067
 3401POPC   D2A44536  42.819  14.372   6.475
 3401POPC   C3A44537  42.842  14.510   6.873
 3401POPC   C4A44538  43.136  14.410   7.168
 3401POPC   C1B44539  43.299  14.312   6.203
 3401POPC   C2B44540  43.299  14.536   6.613
 3401POPC   C3B44541  43.241  14.857   6.924
 3401POPC   C4B44542  43.453  15.014   7.284
 3402POPC   NC344543  25.672  25.149   5.609
 3402POPC   PO444544  25.028  25.366   5.399
 3402POPC   GL144545  25.186  25.276   5.783
 3402POPC   GL244546  25.412  25.565   5.789
 3402POPC   C1A44547  25.125  25.115   6.209
 3402POPC   D2A44548  25.291  24.980   6.606
 3402POPC   C3A44549  25.037  24.999   6.986
 3402POPC   C4A44550  25.236  25.189   7.341
 3402POPC   C1B44551  25.127  25.622   6.144
 3402POPC   C2B44552  25.323  25.520   6.534
 3402POPC   C3B44553  25.514  25.358   6.907
 3402POPC   C4B44554  25.506  25.612   7.306
 3403POPC   NC344555  17.034  43.882   5.498
 3403POPC   PO444556  16.403  43.940   5.311
 3403POPC   GL144557  16.534  44.098   5.748
 3403POPC   GL244558  16.871  44.116   5.931
 3403POPC   C1A44559  16.500  43.857   6.160
 3403POPC   D2A44560  16.503  43.561   6.535
 3403POPC   C3A44561  16.639  43.497   6.975
 3403POPC   C4A44562  16.722  43.459   7.423
 3403POPC   C1B44563  16.808  44.185   6.389
 3403POPC   C2B44564  16.743  43.956   6.760
 3403POPC   C3B44565  16.715  43.941   7.212
 3403POPC   C4B44566  16.577  43.946   7.621
 3404POPC   NC344567   8.846  27.755   5.338
 3404POPC   PO444568   9.410  27.937   5.614
 3404POPC   GL144569   8.998  27.832   5.831
 3404POPC   GL244570   8.611  27.826   5.792
 3404POPC   C1A44571   8.922  27.689   6.250
 3404POPC   D2A44572   9.039  27.548   6.657
 3404POPC   C3A44573   8.800  27.560   7.028
 3404POPC   C4A44574   9.217  27.460   7.178
 3404POPC   C1B44575   8.491  27.943   6.211
 3404POPC   C2B44576   8.658  27.963   6.633
 3404POPC   C3B44577   8.540  28.060   7.065
 3404POPC   C4B44578   8.634  27.841   7.453
 3405POPC   NC344579  29.803  20.338   5.520
 3405POPC   PO444580  29.935  19.653   5.445
 3405POPC   GL144581  29.742  19.660   5.812
 3405POPC   GL244582  29.539  19.961   5.766
 3405POPC   C1A44583  29.908  19.793   6.226
 3405POPC   D2A44584  29.957  19.959   6.624
 3405POPC   C3A44585  30.127  19.761   6.952
 3405POPC   C4A44586  30.115  19.981   7.267
 3405POPC   C1B44587  29.503  20.105   6.187
 3405POPC   C2B44588  29.454  20.056   6.632
 3405POPC   C3B44589  29.534  20.264   7.033
 3405POPC   C4B44590  29.657  20.139   7.459
 3406POPC   NC344591  41.367  28.033   5.373
 3406POPC   PO444592  41.783  28.487   5.590
 3406POPC   GL144593  41.507  28.494   5.943
 3406POPC   GL244594  41.297  28.227   5.865
 3406POPC   C1A44595  41.354  28.506   6.385
 3406POPC   D2A44596  41.293  28.570   6.826
 3406POPC   C3A44597  41.622  28.547   7.065
 3406POPC   C4A44598  41.370  28.338   7.381
 3406POPC   C1B44599  41.561  28.066   6.212
 3406POPC   C2B44600  41.672  28.168   6.642
 3406POPC   C3B44601  41.644  28.036   7.068
 3406POPC   C4B44602  41.795  28.107   7.502
 3407POPC   NC344603   2.804   0.528   5.331
 3407POPC   PO444604   2.330   0.898   5.634
 3407POPC   GL144605   2.605   0.561   5.875
 3407POPC   GL244606   2.910   0.324   5.785
 3407POPC   C1A44607   2.540   0.309   6.287
 3407POPC   D2A44608   2.570   0.339   6.756
 3407POPC   C3A44609   2.950   0.522   6.958
 3407POPC   C4A44610   2.831   0.844   7.252
 3407POPC   C1B44611   2.945   0.028   6.110
 3407POPC   C2B44612   3.024   0.089   6.543
 3407POPC   C3B44613   2.922  44.982   6.947
 3407POPC   C4B44614   3.113   0.051   7.319
 3408POPC   NC344615  21.144  19.614   5.071
 3408POPC   PO444616  21.459  20.142   5.415
 3408POPC   GL144617  21.190  20.011   5.709
 3408POPC   GL244618  21.433  19.778   5.801
 3408POPC   C1A44619  21.110  20.135   6.172
 3408POPC   D2A44620  21.313  20.138   6.612
 3408POPC   C3A44621  21.165  20.287   7.019
 3408POPC   C4A44622  21.220  20.067   7.405
 3408POPC   C1B44623  21.496  19.794   6.215
 3408POPC   C2B44624  21.516  19.575   6.575
 3408POPC   C3B44625  21.507  19.775   6.954
 3408POPC   C4B44626  21.386  19.605   7.334
 3409POPC   NC344627  41.527  41.005   5.368
 3409POPC   PO444628  41.100  40.481   5.161
 3409POPC   GL144629  41.341  40.411   5.634
 3409POPC   GL244630  41.585  40.673   5.752
 3409POPC   C1A44631  41.291  40.515   6.133
 3409POPC   D2A44632  41.552  40.427   6.541
 3409POPC   C3A44633  41.355  40.543   6.916
 3409POPC   C4A44634  41.289  40.952   7.088
 3409POPC   C1B44635  41.675  40.855   6.176
 3409POPC   C2B44636  41.604  40.927   6.628
 3409POPC   C3B44637  41.799  40.767   7.020
 3409POPC   C4B44638  41.801  40.928   7.434
 3410POPC   NC344639   1.326  24.133   5.472
 3410POPC   PO444640   1.459  23.558   5.457
 3410POPC   GL144641   1.357  23.792   5.843
 3410POPC   GL244642   1.064  24.049   5.889
 3410POPC   C1A44643   1.164  23.691   6.236
 3410POPC   D2A44644   1.106  23.750   6.658
 3410POPC   C3A44645   1.057  23.409   6.938
 3410POPC   C4A44646   1.194  23.663   7.238
 3410POPC   C1B44647   0.876  24.206   6.251
 3410POPC   C2B44648   0.748  24.149   6.672
 3410POPC   C3B44649   0.880  24.012   7.059
 3410POPC   C4B44650   0.826  23.931   7.511
 3411POPC   NC344651  31.350  25.988   5.343
 3411POPC   PO444652  32.016  25.786   5.223
 3411POPC   GL144653  31.677  25.739   5.654
 3411POPC   GL244654  31.290  25.854   5.816
 3411POPC   C1A44655  31.637  25.781   6.135
 3411POPC   D2A44656  31.761  25.705   6.541
 3411POPC   C3A44657  31.779  26.084   6.781
 3411POPC   C4A44658  31.632  25.966   7.180
 3411POPC   C1B44659  31.097  26.045   6.175
 3411POPC   C2B44660  31.306  26.006   6.564
 3411POPC   C3B44661  31.135  26.012   6.974
 3411POPC   C4B44662  31.209  26.144   7.397
 3412POPC   NC344663  34.023  34.321   5.202
 3412POPC   PO444664  33.485  34.474   5.583
 3412POPC   GL144665  33.738  34.352   5.879
 3412POPC   GL244666  34.078  34.409   5.769
 3412POPC   C1A44667  33.652  34.317   6.308
 3412POPC   D2A44668  33.339  34.491   6.559
 3412POPC   C3A44669  33.407  34.340   6.957
 3412POPC   C4A44670  33.632  34.581   7.211
 3412POPC   C1B44671  34.045  34.623   6.203
 3412POPC   C2B44672  33.925  34.657   6.660
 3412POPC   C3B44673  34.121  34.692   7.093
 3412POPC   C4B44674  34.303  34.304   7.260
 3413POPC   NC344675  32.360  27.328   5.560
 3413POPC   PO444676  32.098  26.783   5.222
 3413POPC   GL144677  32.183  26.842   5.661
 3413POPC   GL244678  31.975  27.104   5.810
 3413POPC   C1A44679  32.109  26.668   6.079
 3413POPC   D2A44680  32.001  26.726   6.511
 3413POPC   C3A44681  32.330  26.670   6.797
 3413POPC   C4A44682  32.299  26.625   7.219
 3413POPC   C1B44683  32.033  27.173   6.250
 3413POPC   C2B44684  32.015  27.255   6.683
 3413POPC   C3B44685  31.890  26.960   6.983
 3413POPC   C4B44686  31.982  26.978   7.387
 3414POPC   NC344687  27.326  19.789   5.399
 3414POPC   PO444688  26.677  19.847   5.382
 3414POPC   GL144689  26.865  19.679   5.744
 3414POPC   GL244690  27.062  19.383   5.617
 3414POPC   C1A44691  26.920  19.799   6.211
 3414POPC   D2A44692  26.793  20.009   6.604
 3414POPC   C3A44693  26.924  19.878   6.964
 3414POPC   C4A44694  26.844  19.978   7.393
 3414POPC   C1B44695  27.188  19.407   6.030
 3414POPC   C2B44696  27.266  19.502   6.480
 3414POPC   C3B44697  27.211  19.424   6.908
 3414POPC   C4B44698  27.027  19.522   7.297
 3415POPC   NC344699  26.822   0.623   5.540
 3415POPC   PO444700  26.466   0.177   5.151
 3415POPC   GL144701  26.595   0.217   5.706
 3415POPC   GL244702  26.498   0.515   5.972
 3415POPC   C1A44703  26.909   0.306   6.126
 3415POPC   D2A44704  27.005   0.583   6.482
 3415POPC   C3A44705  27.022   0.317   6.835
 3415POPC   C4A44706  27.065   0.344   7.263
 3415POPC   C1B44707  26.241   0.593   6.332
 3415POPC   C2B44708  26.524   0.443   6.631
 3415POPC   C3B44709  26.584   0.472   7.066
 3415POPC   C4B44710  26.475   0.728   7.420
 3416POPC   NC344711  41.986  26.423   5.529
 3416POPC   PO444712  41.439  26.704   5.242
 3416POPC   GL144713  41.564  26.867   5.675
 3416POPC   GL244714  41.663  26.597   5.885
 3416POPC   C1A44715  41.634  27.087   6.105
 3416POPC   D2A44716  41.788  27.166   6.566
 3416POPC   C3A44717  41.575  27.182   6.970
 3416POPC   C4A44718  41.295  26.918   7.213
 3416POPC   C1B44719  41.933  26.586   6.241
 3416POPC   C2B44720  41.926  26.393   6.654
 3416POPC   C3B44721  41.667  26.645   6.943
 3416POPC   C4B44722  41.557  26.532   7.375
 3417POPC   NC344723   0.539  16.221   5.565
 3417POPC   PO444724   0.120  15.849   5.257
 3417POPC   GL144725   0.241  15.762   5.733
 3417POPC   GL244726   0.609  15.747   5.799
 3417POPC   C1A44727   0.306  15.945   6.179
 3417POPC   D2A44728   0.373  15.812   6.600
 3417POPC   C3A44729   0.262  16.048   6.967
 3417POPC   C4A44730   0.298  15.874   7.354
 3417POPC   C1B44731   0.820  15.743   6.207
 3417POPC   C2B44732   0.870  15.587   6.625
 3417POPC   C3B44733   0.699  15.749   7.004
 3417POPC   C4B44734   0.794  15.813   7.416
 3418POPC   NC344735   6.128   4.455   5.509
 3418POPC   PO444736   5.509   4.193   5.614
 3418POPC   GL144737   5.898   4.159   5.861
 3418POPC   GL244738   6.252   4.030   5.815
 3418POPC   C1A44739   6.019   4.339   6.251
 3418POPC   D2A44740   6.038   4.139   6.656
 3418POPC   C3A44741   6.038   4.344   7.058
 3418POPC   C4A44742   5.689   4.227   7.295
 3418POPC   C1B44743   6.330   3.922   6.262
 3418POPC   C2B44744   6.461   3.883   6.720
 3418POPC   C3B44745   6.172   3.838   7.097
 3418POPC   C4B44746   6.017   3.921   7.520
 3419POPC   NC344747  36.910  10.795   5.431
 3419POPC   PO444748  37.199  10.125   5.543
 3419POPC   GL144749  37.024  10.450   5.799
 3419POPC   GL244750  37.064  10.812   5.953
 3419POPC   C1A44751  36.903  10.378   6.192
 3419POPC   D2A44752  37.064  10.425   6.576
 3419POPC   C3A44753  36.876  10.269   6.890
 3419POPC   C4A44754  37.085  10.109   7.221
 3419POPC   C1B44755  36.872  10.871   6.329
 3419POPC   C2B44756  36.974  10.901   6.748
 3419POPC   C3B44757  36.861  10.727   7.141
 3419POPC   C4B44758  36.630  10.818   7.515
 3420POPC   NC344759  38.200  31.837   5.417
 3420POPC   PO444760  38.560  31.239   5.495
 3420POPC   GL144761  38.491  31.552   5.791
 3420POPC   GL244762  38.144  31.442   5.762
 3420POPC   C1A44763  38.564  31.817   6.174
 3420POPC   D2A44764  38.800  31.868   6.561
 3420POPC   C3A44765  38.632  31.812   6.956
 3420POPC   C4A44766  38.689  31.639   7.359
 3420POPC   C1B44767  38.091  31.590   6.164
 3420POPC   C2B44768  38.256  31.639   6.563
 3420POPC   C3B44769  38.283  31.445   6.929
 3420POPC   C4B44770  38.102  31.506   7.247
 3421POPC   NC344771  35.312   2.632   5.342
 3421POPC   PO444772  34.652   2.843   5.395
 3421POPC   GL144773  34.802   2.592   5.760
 3421POPC   GL244774  34.495   2.647   5.917
 3421POPC   C1A44775  34.972   2.622   6.206
 3421POPC   D2A44776  34.791   2.687   6.594
 3421POPC   C3A44777  34.955   2.569   6.988
 3421POPC   C4A44778  34.783   2.656   7.380
 3421POPC   C1B44779  34.618   3.025   6.166
 3421POPC   C2B44780  34.679   3.202   6.581
 3421POPC   C3B44781  34.694   3.009   7.000
 3421POPC   C4B44782  34.803   3.161   7.398
 3422POPC   NC344783  11.557  18.285   5.403
 3422POPC   PO444784  11.039  17.894   5.363
 3422POPC   GL144785  11.148  18.077   5.766
 3422POPC   GL244786  11.495  17.955   5.818
 3422POPC   C1A44787  11.104  18.413   6.099
 3422POPC   D2A44788  11.073  18.630   6.525
 3422POPC   C3A44789  11.387  18.513   6.840
 3422POPC   C4A44790  11.207  18.377   7.192
 3422POPC   C1B44791  11.307  17.949   6.248
 3422POPC   C2B44792  11.090  18.120   6.596
 3422POPC   C3B44793  11.187  17.910   6.968
 3422POPC   C4B44794  11.588  18.019   7.131
 3423POPC   NC344795   4.982  17.707   5.602
 3423POPC   PO444796   4.365  17.675   5.366
 3423POPC   GL144797   4.255  17.532   5.772
 3423POPC   GL244798   4.588  17.479   5.858
 3423POPC   C1A44799   4.214  17.616   6.234
 3423POPC   D2A44800   4.275  17.422   6.640
 3423POPC   C3A44801   4.305  17.655   7.017
 3423POPC   C4A44802   4.167  17.579   7.460
 3423POPC   C1B44803   4.682  17.796   6.168
 3423POPC   C2B44804   4.680  17.742   6.594
 3423POPC   C3B44805   4.840  17.599   6.947
 3423POPC   C4B44806   4.697  17.547   7.322
 3424POPC   NC344807  38.818  41.175   5.022
 3424POPC   PO444808  38.713  41.775   5.310
 3424POPC   GL144809  38.525  41.642   5.741
 3424POPC   GL244810  38.231  41.442   5.758
 3424POPC   C1A44811  38.636  41.556   6.203
 3424POPC   D2A44812  38.715  41.308   6.619
 3424POPC   C3A44813  38.728  41.488   7.062
 3424POPC   C4A44814  38.509  41.865   7.220
 3424POPC   C1B44815  38.096  41.589   6.155
 3424POPC   C2B44816  38.248  41.583   6.574
 3424POPC   C3B44817  38.050  41.637   6.960
 3424POPC   C4B44818  38.248  41.403   7.249
 3425POPC   NC344819  16.908  42.637   5.423
 3425POPC   PO444820  16.839  43.349   5.438
 3425POPC   GL144821  16.618  43.130   5.767
 3425POPC   GL244822  16.706  42.787   5.861
 3425POPC   C1A44823  16.501  43.181   6.198
 3425POPC   D2A44824  16.576  43.071   6.665
 3425POPC   C3A44825  16.952  43.081   6.911
 3425POPC   C4A44826  17.001  43.008   7.344
 3425POPC   C1B44827  16.905  42.864   6.229
 3425POPC   C2B44828  16.942  42.669   6.600
 3425POPC   C3B44829  16.610  42.603   6.877
 3425POPC   C4B44830  16.554  42.873   7.169
 3426POPC   NC344831  25.498  40.408   5.658
 3426POPC   PO444832  24.778  40.497   5.510
 3426POPC   GL144833  24.937  40.802   5.831
 3426POPC   GL244834  25.302  40.935   5.833
 3426POPC   C1A44835  25.064  40.716   6.257
 3426POPC   D2A44836  24.914  40.594   6.669
 3426POPC   C3A44837  25.236  40.556   6.971
 3426POPC   C4A44838  25.054  40.743   7.297
 3426POPC   C1B44839  25.498  41.067   6.238
 3426POPC   C2B44840  25.362  40.937   6.644
 3426POPC   C3B44841  25.428  41.037   7.068
 3426POPC   C4B44842  25.542  40.862   7.440
 3427POPC   NC344843  34.069  33.488   5.646
 3427POPC   PO444844  33.491  33.678   5.304
 3427POPC   GL144845  33.647  33.829   5.745
 3427POPC   GL244846  33.993  33.913   5.898
 3427POPC   C1A44847  33.621  33.810   6.227
 3427POPC   D2A44848  33.412  33.955   6.607
 3427POPC   C3A44849  33.579  33.861   7.032
 3427POPC   C4A44850  33.593  34.117   7.425
 3427POPC   C1B44851  34.145  34.108   6.254
 3427POPC   C2B44852  33.958  33.975   6.627
 3427POPC   C3B44853  34.051  33.647   6.912
 3427POPC   C4B44854  34.062  33.815   7.298
 3428POPC   NC344855  42.751  36.477   5.494
 3428POPC   PO444856  42.338  35.994   5.516
 3428POPC   GL144857  42.366  36.227   5.898
 3428POPC   GL244858  42.216  36.510   5.728
 3428POPC   C1A44859  42.276  36.256   6.366
 3428POPC   D2A44860  42.167  35.989   6.707
 3428POPC   C3A44861  42.381  35.952   7.076
 3428POPC   C4A44862  42.557  36.285   7.286
 3428POPC   C1B44863  42.273  36.711   6.127
 3428POPC   C2B44864  42.425  36.728   6.543
 3428POPC   C3B44865  42.318  36.470   6.867
 3428POPC   C4B44866  42.166  36.615   7.230
 3429POPC   NC344867  35.007   8.668   5.491
 3429POPC   PO444868  35.620   8.402   5.384
 3429POPC   GL144869  35.572   8.255   5.796
 3429POPC   GL244870  35.210   8.330   5.836
 3429POPC   C1A44871  35.570   8.077   6.209
 3429POPC   D2A44872  35.321   7.999   6.572
 3429POPC   C3A44873  35.552   8.030   6.934
 3429POPC   C4A44874  35.663   8.389   7.217
 3429POPC   C1B44875  35.008   8.192   6.199
 3429POPC   C2B44876  34.903   8.338   6.603
 3429POPC   C3B44877  35.011   8.439   6.995
 3429POPC   C4B44878  35.186   8.154   7.236
 3430POPC   NC344879  10.911  25.231   5.561
 3430POPC   PO444880  11.593  25.173   5.425
 3430POPC   GL144881  11.338  25.113   5.837
 3430POPC   GL244882  11.003  25.231   6.045
 3430POPC   C1A44883  11.455  25.289   6.239
 3430POPC   D2A44884  11.210  25.334   6.618
 3430POPC   C3A44885  11.422  25.176   6.966
 3430POPC   C4A44886  11.733  24.993   7.234
 3430POPC   C1B44887  10.985  24.886   6.326
 3430POPC   C2B44888  10.836  24.887   6.747
 3430POPC   C3B44889  10.907  25.136   7.118
 3430POPC   C4B44890  11.026  25.029   7.550
 3431POPC   NC344891   4.166   3.183   5.245
 3431POPC   PO444892   4.207   3.866   5.390
 3431POPC   GL144893   4.333   3.826   5.850
 3431POPC   GL244894   4.599   3.601   5.942
 3431POPC   C1A44895   4.213   3.610   6.273
 3431POPC   D2A44896   4.450   3.548   6.676
 3431POPC   C3A44897   4.317   3.783   7.046
 3431POPC   C4A44898   4.034   3.787   7.382
 3431POPC   C1B44899   4.658   3.293   6.256
 3431POPC   C2B44900   4.638   3.063   6.643
 3431POPC   C3B44901   4.731   3.277   7.040
 3431POPC   C4B44902   4.755   3.641   7.289
 3432POPC   NC344903  25.480  42.612   5.310
 3432POPC   PO444904  24.995  42.156   5.435
 3432POPC   GL144905  25.157  42.422   5.777
 3432POPC   GL244906  25.520  42.540   5.820
 3432POPC   C1A44907  25.098  42.442   6.223
 3432POPC   D2A44908  25.063  42.249   6.621
 3432POPC   C3A44909  25.018  42.512   6.948
 3432POPC   C4A44910  25.080  42.392   7.364
 3432POPC   C1B44911  25.552  42.677   6.253
 3432POPC   C2B44912  25.472  42.561   6.673
 3432POPC   C3B44913  25.488  42.595   7.125
 3432POPC   C4B44914  25.561  42.389   7.499
 3433POPC   NC344915  12.594   8.935   5.431
 3433POPC   PO444916  13.026   9.327   5.694
 3433POPC   GL144917  12.933   8.924   5.861
 3433POPC   GL244918  12.599   8.792   5.932
 3433POPC   C1A44919  12.994   8.793   6.295
 3433POPC   D2A44920  12.820   8.807   6.741
 3433POPC   C3A44921  13.138   9.006   7.004
 3433POPC   C4A44922  13.247   9.200   7.394
 3433POPC   C1B44923  12.569   9.081   6.296
 3433POPC   C2B44924  12.438   9.284   6.666
 3433POPC   C3B44925  12.407   9.110   7.059
 3433POPC   C4B44926  12.742   8.961   7.308
 3434POPC   NC344927  10.324  19.035   5.546
 3434POPC   PO444928  10.859  19.457   5.480
 3434POPC   GL144929  10.741  19.191   5.823
 3434POPC   GL244930  10.420  19.180   6.016
 3434POPC   C1A44931  10.855  18.936   6.172
 3434POPC   D2A44932  10.815  19.086   6.598
 3434POPC   C3A44933  10.724  18.804   6.969
 3434POPC   C4A44934  10.904  18.732   7.410
 3434POPC   C1B44935  10.166  19.446   6.315
 3434POPC   C2B44936  10.243  19.548   6.740
 3434POPC   C3B44937  10.566  19.332   6.972
 3434POPC   C4B44938  10.807  19.226   7.300
 3435POPC   NC344939   4.684  40.814   5.409
 3435POPC   PO444940   4.042  40.571   5.499
 3435POPC   GL144941   4.155  40.839   5.818
 3435POPC   GL244942   4.494  40.746   5.884
 3435POPC   C1A44943   3.957  40.962   6.193
 3435POPC   D2A44944   4.046  40.982   6.635
 3435POPC   C3A44945   4.202  40.682   6.934
 3435POPC   C4A44946   4.193  40.956   7.261
 3435POPC   C1B44947   4.468  41.052   6.232
 3435POPC   C2B44948   4.571  40.998   6.686
 3435POPC   C3B44949   4.655  41.168   7.105
 3435POPC   C4B44950   4.640  40.952   7.517
 3436POPC   NC344951   5.444  23.976   5.370
 3436POPC   PO444952   6.087  23.616   5.417
 3436POPC   GL144953   5.988  23.790   5.815
 3436POPC   GL244954   5.673  23.999   5.864
 3436POPC   C1A44955   6.144  23.576   6.183
 3436POPC   D2A44956   6.165  23.376   6.595
 3436POPC   C3A44957   5.893  23.495   6.932
 3436POPC   C4A44958   5.904  23.829   7.250
 3436POPC   C1B44959   5.794  23.953   6.299
 3436POPC   C2B44960   5.775  23.965   6.749
 3436POPC   C3B44961   5.470  24.009   7.047
 3436POPC   C4B44962   5.460  24.014   7.509
 3437POPC   NC344963  41.056  21.536   5.383
 3437POPC   PO444964  40.329  21.679   5.414
 3437POPC   GL144965  40.661  21.532   5.731
 3437POPC   GL244966  41.012  21.520   5.896
 3437POPC   C1A44967  40.573  21.421   6.162
 3437POPC   D2A44968  40.465  21.175   6.517
 3437POPC   C3A44969  40.650  21.277   6.901
 3437POPC   C4A44970  40.679  21.516   7.245
 3437POPC   C1B44971  40.987  21.118   6.197
 3437POPC   C2B44972  41.177  21.003   6.570
 3437POPC   C3B44973  41.172  21.226   6.959
 3437POPC   C4B44974  41.159  21.372   7.375
 3438POPC   NC344975  39.113  40.872   5.357
 3438POPC   PO444976  39.647  40.477   5.480
 3438POPC   GL144977  39.353  40.575   5.855
 3438POPC   GL244978  39.087  40.844   5.875
 3438POPC   C1A44979  39.292  40.654   6.323
 3438POPC   D2A44980  39.476  40.727   6.739
 3438POPC   C3A44981  39.342  40.624   7.169
 3438POPC   C4A44982  39.094  40.754   7.542
 3438POPC   C1B44983  38.858  40.933   6.278
 3438POPC   C2B44984  38.889  40.824   6.728
 3438POPC   C3B44985  38.993  41.018   7.129
 3438POPC   C4B44986  39.015  41.296   7.522
 3439POPC   NC344987  15.224  39.393   5.325
 3439POPC   PO444988  14.596  39.715   5.418
 3439POPC   GL144989  14.989  39.593   5.746
 3439POPC   GL244990  15.329  39.383   5.796
 3439POPC   C1A44991  15.084  39.560   6.215
 3439POPC   D2A44992  14.994  39.342   6.654
 3439POPC   C3A44993  14.953  39.597   7.013
 3439POPC   C4A44994  14.964  39.704   7.436
 3439POPC   C1B44995  15.568  39.270   6.105
 3439POPC   C2B44996  15.488  39.427   6.507
 3439POPC   C3B44997  15.554  39.321   6.925
 3439POPC   C4B44998  15.276  39.283   7.250
 3440POPC   NC344999  32.514  36.022   5.345
 3440POPC   PO445000  32.361  35.686   5.858
 3440POPC   GL145001  32.273  36.106   5.891
 3440POPC   GL245002  32.652  36.200   5.815
 3440POPC   C1A45003  32.063  36.138   6.342
 3440POPC   D2A45004  31.985  35.833   6.722
 3440POPC   C3A45005  32.211  35.943   7.118
 3440POPC   C4A45006  32.128  36.067   7.538
 3440POPC   C1B45007  32.564  36.258   6.261
 3440POPC   C2B45008  32.463  36.115   6.685
 3440POPC   C3B45009  32.510  36.369   7.058
 3440POPC   C4B45010  32.653  36.205   7.460
 3441POPC   NC345011  12.833  31.200   5.504
 3441POPC   PO445012  12.308  31.726   5.553
 3441POPC   GL145013  12.659  31.583   5.831
 3441POPC   GL245014  12.981  31.809   5.830
 3441POPC   C1A45015  12.679  31.267   6.183
 3441POPC   D2A45016  12.735  31.347   6.619
 3441POPC   C3A45017  12.718  31.204   7.038
 3441POPC   C4A45018  12.583  31.541   7.283
 3441POPC   C1B45019  12.877  31.768   6.273
 3441POPC   C2B45020  13.130  31.664   6.617
 3441POPC   C3B45021  12.995  31.665   7.013
 3441POPC   C4B45022  12.973  31.883   7.396
 3442POPC   NC345023  32.546   5.573   5.506
 3442POPC   PO445024  32.085   5.047   5.327
 3442POPC   GL145025  32.163   4.897   5.777
 3442POPC   GL245026  32.127   5.231   5.880
 3442POPC   C1A45027  32.271   4.897   6.256
 3442POPC   D2A45028  32.484   5.121   6.636
 3442POPC   C3A45029  32.312   4.945   7.021
 3442POPC   C4A45030  31.928   4.718   6.979
 3442POPC   C1B45031  32.144   5.388   6.308
 3442POPC   C2B45032  31.967   5.176   6.673
 3442POPC   C3B45033  31.972   5.361   7.065
 3442POPC   C4B45034  32.155   5.428   7.432
 3443POPC   NC345035  32.902  33.291   5.438
 3443POPC   PO445036  33.346  32.751   5.301
 3443POPC   GL145037  33.173  32.907   5.688
 3443POPC   GL245038  32.855  32.827   5.834
 3443POPC   C1A45039  33.231  33.034   6.120
 3443POPC   D2A45040  33.009  32.946   6.510
 3443POPC   C3A45041  33.197  33.145   6.855
 3443POPC   C4A45042  33.303  32.981   7.249
 3443POPC   C1B45043  32.743  33.201   6.122
 3443POPC   C2B45044  32.600  33.304   6.543
 3443POPC   C3B45045  32.682  33.095   6.940
 3443POPC   C4B45046  32.917  33.323   7.231
 3444POPC   NC345047  25.140   7.396   5.404
 3444POPC   PO445048  25.673   7.883   5.467
 3444POPC   GL145049  25.499   7.615   5.839
 3444POPC   GL245050  25.160   7.509   5.902
 3444POPC   C1A45051  25.397   7.540   6.328
 3444POPC   D2A45052  25.467   7.262   6.671
 3444POPC   C3A45053  25.418   7.487   7.075
 3444POPC   C4A45054  25.076   7.671   7.304
 3444POPC   C1B45055  25.110   7.148   6.149
 3444POPC   C2B45056  24.987   7.060   6.575
 3444POPC   C3B45057  24.963   7.184   7.021
 3444POPC   C4B45058  24.761   6.959   7.371
 3445POPC   NC345059   5.467  40.150   5.430
 3445POPC   PO445060   4.822  40.120   5.258
 3445POPC   GL145061   4.826  39.954   5.718
 3445POPC   GL245062   5.137  40.042   5.793
 3445POPC   C1A45063   4.821  39.919   6.187
 3445POPC   D2A45064   4.749  39.720   6.584
 3445POPC   C3A45065   4.932  39.857   6.986
 3445POPC   C4A45066   4.916  39.687   7.386
 3445POPC   C1B45067   5.376  39.910   6.112
 3445POPC   C2B45068   5.262  39.864   6.525
 3445POPC   C3B45069   5.490  39.821   6.865
 3445POPC   C4B45070   5.401  39.814   7.250
 3446POPC   NC345071  29.461  39.312   5.556
 3446POPC   PO445072  28.826  39.085   5.635
 3446POPC   GL145073  29.144  39.137   5.922
 3446POPC   GL245074  29.351  38.854   5.848
 3446POPC   C1A45075  29.150  39.469   6.225
 3446POPC   D2A45076  28.926  39.688   6.570
 3446POPC   C3A45077  28.901  39.414   6.928
 3446POPC   C4A45078  29.031  39.251   7.335
 3446POPC   C1B45079  29.540  38.949   6.223
 3446POPC   C2B45080  29.402  39.158   6.548
 3446POPC   C3B45081  29.350  39.117   6.948
 3446POPC   C4B45082  29.470  38.904   7.343
 3447POPC   NC345083  36.507  26.976   5.551
 3447POPC   PO445084  37.173  27.031   5.368
 3447POPC   GL145085  36.984  26.894   5.766
 3447POPC   GL245086  36.941  26.535   5.756
 3447POPC   C1A45087  36.923  26.876   6.215
 3447POPC   D2A45088  36.655  26.764   6.556
 3447POPC   C3A45089  36.954  26.734   6.843
 3447POPC   C4A45090  37.102  26.883   7.211
 3447POPC   C1B45091  37.278  26.514   6.116
 3447POPC   C2B45092  37.377  26.667   6.554
 3447POPC   C3B45093  37.333  26.455   7.007
 3447POPC   C4B45094  36.964  26.362   7.267
 3448POPC   NC345095  33.354  24.310   5.069
 3448POPC   PO445096  32.930  24.394   5.496
 3448POPC   GL145097  33.034  24.533   5.845
 3448POPC   GL245098  33.395  24.447   5.791
 3448POPC   C1A45099  32.815  24.449   6.226
 3448POPC   D2A45100  32.707  24.559   6.623
 3448POPC   C3A45101  32.945  24.439   6.931
 3448POPC   C4A45102  33.086  24.457   7.340
 3448POPC   C1B45103  33.353  24.716   6.172
 3448POPC   C2B45104  33.229  24.638   6.565
 3448POPC   C3B45105  33.362  24.765   6.983
 3448POPC   C4B45106  33.578  24.595   7.331
 3449POPC   NC345107  30.817   5.845   5.180
 3449POPC   PO445108  30.532   5.424   5.591
 3449POPC   GL145109  30.525   5.758   5.877
 3449POPC   GL245110  30.769   5.999   5.735
 3449POPC   C1A45111  30.451   5.750   6.324
 3449POPC   D2A45112  30.766   5.791   6.655
 3449POPC   C3A45113  30.610   5.686   7.057
 3449POPC   C4A45114  30.890   5.837   7.380
 3449POPC   C1B45115  30.731   6.137   6.180
 3449POPC   C2B45116  30.516   6.213   6.582
 3449POPC   C3B45117  30.680   6.174   6.990
 3449POPC   C4B45118  30.483   6.123   7.385
 3450POPC   NC345119  39.288  21.148   5.335
 3450POPC   PO445120  39.161  21.826   5.363
 3450POPC   GL145121  39.384  21.568   5.735
 3450POPC   GL245122  39.082  21.385   5.739
 3450POPC   C1A45123  39.523  21.421   6.210
 3450POPC   D2A45124  39.555  21.531   6.662
 3450POPC   C3A45125  39.409  21.306   7.037
 3450POPC   C4A45126  39.226  21.139   7.419
 3450POPC   C1B45127  39.026  21.477   6.155
 3450POPC   C2B45128  39.068  21.366   6.592
 3450POPC   C3B45129  38.895  21.213   6.984
 3450POPC   C4B45130  38.861  21.480   7.336
 3451POPC   NC345131  41.696  32.209   5.521
 3451POPC   PO445132  40.992  32.130   5.621
 3451POPC   GL145133  41.296  32.323   5.834
 3451POPC   GL245134  41.414  31.966   5.871
 3451POPC   C1A45135  41.573  32.324   6.194
 3451POPC   D2A45136  41.518  32.374   6.640
 3451POPC   C3A45137  41.880  32.393   6.928
 3451POPC   C4A45138  41.908  32.341   7.372
 3451POPC   C1B45139  41.131  32.017   6.253
 3451POPC   C2B45140  41.220  31.954   6.677
 3451POPC   C3B45141  41.510  32.025   7.033
 3451POPC   C4B45142  41.514  32.048   7.466
 3452POPC   NC345143   4.596   4.099   5.468
 3452POPC   PO445144   4.334   4.754   5.254
 3452POPC   GL145145   4.313   4.597   5.685
 3452POPC   GL245146   4.107   4.285   5.715
 3452POPC   C1A45147   4.447   4.380   6.080
 3452POPC   D2A45148   4.394   4.526   6.501
 3452POPC   C3A45149   4.338   4.367   6.912
 3452POPC   C4A45150   4.561   4.577   7.240
 3452POPC   C1B45151   4.022   4.089   6.154
 3452POPC   C2B45152   4.066   3.972   6.604
 3452POPC   C3B45153   3.907   4.103   6.993
 3452POPC   C4B45154   4.087   4.329   7.379
 3453POPC   NC345155  12.702   0.228   5.622
 3453POPC   PO445156  12.938   0.804   5.376
 3453POPC   GL145157  13.086   0.565   5.762
 3453POPC   GL245158  13.194   0.183   5.729
 3453POPC   C1A45159  13.049   0.721   6.208
 3453POPC   D2A45160  13.016   0.837   6.629
 3453POPC   C3A45161  12.708   0.733   6.913
 3453POPC   C4A45162  12.970   0.923   7.194
 3453POPC   C1B45163  13.213   0.238   6.172
 3453POPC   C2B45164  12.983   0.315   6.582
 3453POPC   C3B45165  12.980   0.310   7.039
 3453POPC   C4B45166  13.017   0.066   7.431
 3454POPC   NC345167  28.163  37.057   5.331
 3454POPC   PO445168  28.641  36.555   5.434
 3454POPC   GL145169  28.508  36.874   5.809
 3454POPC   GL245170  28.161  36.816   5.957
 3454POPC   C1A45171  28.482  37.007   6.300
 3454POPC   D2A45172  28.726  36.931   6.695
 3454POPC   C3A45173  28.473  37.000   7.062
 3454POPC   C4A45174  28.294  36.642   7.272
 3454POPC   C1B45175  28.211  36.601   6.387
 3454POPC   C2B45176  28.068  36.793   6.808
 3454POPC   C3B45177  27.992  37.192   7.078
 3454POPC   C4B45178  28.150  37.226   7.522
 3455POPC   NC345179  36.341   0.970   5.520
 3455POPC   PO445180  36.085   1.650   5.330
 3455POPC   GL145181  36.075   1.525   5.754
 3455POPC   GL245182  35.973   1.184   5.784
 3455POPC   C1A45183  35.940   1.604   6.180
 3455POPC   D2A45184  35.681   1.523   6.562
 3455POPC   C3A45185  35.901   1.536   6.979
 3455POPC   C4A45186  36.349   1.510   7.043
 3455POPC   C1B45187  36.225   1.150   6.165
 3455POPC   C2B45188  36.162   1.287   6.596
 3455POPC   C3B45189  36.108   1.055   6.989
 3455POPC   C4B45190  36.489   0.927   7.201
 3456POPC   NC345191  31.721  34.498   5.477
 3456POPC   PO445192  32.378  34.521   5.383
 3456POPC   GL145193  32.180  34.408   5.718
 3456POPC   GL245194  32.053  34.749   5.760
 3456POPC   C1A45195  32.402  34.198   6.050
 3456POPC   D2A45196  32.551  34.335   6.441
 3456POPC   C3A45197  32.235  34.285   6.758
 3456POPC   C4A45198  32.263  34.281   7.201
 3456POPC   C1B45199  32.238  34.682   6.157
 3456POPC   C2B45200  32.161  34.807   6.571
 3456POPC   C3B45201  32.045  34.735   6.997
 3456POPC   C4B45202  32.145  35.000   7.336
 3457POPC   NC345203   2.328   2.338   5.579
 3457POPC   PO445204   2.047   2.830   5.218
 3457POPC   GL145205   2.057   2.873   5.705
 3457POPC   GL245206   2.313   2.710   5.927
 3457POPC   C1A45207   1.895   2.940   6.150
 3457POPC   D2A45208   2.007   3.147   6.558
 3457POPC   C3A45209   1.812   3.044   6.970
 3457POPC   C4A45210   2.066   3.056   7.298
 3457POPC   C1B45211   2.104   2.494   6.303
 3457POPC   C2B45212   1.963   2.638   6.713
 3457POPC   C3B45213   1.960   2.557   7.176
 3457POPC   C4B45214   2.032   2.320   7.567
 3458POPC   NC345215  28.787   5.701   5.362
 3458POPC   PO445216  29.427   5.784   5.471
 3458POPC   GL145217  29.071   5.738   5.798
 3458POPC   GL245218  28.864   6.037   5.760
 3458POPC   C1A45219  28.893   5.757   6.237
 3458POPC   D2A45220  28.902   5.538   6.664
 3458POPC   C3A45221  29.243   5.601   7.006
 3458POPC   C4A45222  29.419   6.001   7.193
 3458POPC   C1B45223  29.002   6.297   6.107
 3458POPC   C2B45224  28.943   6.340   6.544
 3458POPC   C3B45225  28.953   6.031   6.889
 3458POPC   C4B45226  28.909   5.871   7.285
 3459POPC   NC345227  35.668  44.649   5.506
 3459POPC   PO445228  36.296  44.814   5.500
 3459POPC   GL145229  36.143  44.700   5.881
 3459POPC   GL245230  36.002  44.381   5.890
 3459POPC   C1A45231  36.056  44.835   6.286
 3459POPC   D2A45232  36.210  44.697   6.672
 3459POPC   C3A45233  35.916  44.736   6.989
 3459POPC   C4A45234  35.683  44.878   7.347
 3459POPC   C1B45235  36.159  44.318   6.328
 3459POPC   C2B45236  35.953  44.250   6.764
 3459POPC   C3B45237  36.132  44.310   7.182
 3459POPC   C4B45238  36.178  44.665   7.458
 3460POPC   NC345239   8.515  34.445   5.558
 3460POPC   PO445240   9.166  34.244   5.360
 3460POPC   GL145241   9.267  34.378   5.811
 3460POPC   GL245242   9.321  34.739   5.825
 3460POPC   C1A45243   9.154  34.379   6.262
 3460POPC   D2A45244   9.281  34.558   6.661
 3460POPC   C3A45245   8.930  34.537   6.913
 3460POPC   C4A45246   8.638  34.251   7.080
 3460POPC   C1B45247   9.200  34.909   6.255
 3460POPC   C2B45248   9.162  35.065   6.700
 3460POPC   C3B45249   9.271  34.877   7.089
 3460POPC   C4B45250   9.061  34.642   7.390
 3461POPC   NC345251   3.134  39.881   5.356
 3461POPC   PO445252   2.723  40.341   5.411
 3461POPC   GL145253   2.656  40.031   5.751
 3461POPC   GL245254   2.959  39.825   5.841
 3461POPC   C1A45255   2.644  39.922   6.211
 3461POPC   D2A45256   2.703  39.640   6.571
 3461POPC   C3A45257   2.713  39.909   6.956
 3461POPC   C4A45258   2.580  40.138   7.357
 3461POPC   C1B45259   3.161  39.759   6.240
 3461POPC   C2B45260   3.134  39.900   6.656
 3461POPC   C3B45261   3.179  39.705   7.065
 3461POPC   C4B45262   2.896  39.738   7.407
 3462POPC   NC345263  34.054  42.765   5.430
 3462POPC   PO445264  33.554  43.124   5.422
 3462POPC   GL145265  33.692  43.147   5.816
 3462POPC   GL245266  33.603  42.819   5.820
 3462POPC   C1A45267  33.711  43.286   6.241
 3462POPC   D2A45268  33.892  43.413   6.640
 3462POPC   C3A45269  33.669  43.200   6.971
 3462POPC   C4A45270  33.821  43.075   7.342
 3462POPC   C1B45271  33.879  42.785   6.151
 3462POPC   C2B45272  33.907  42.895   6.584
 3462POPC   C3B45273  34.087  42.765   6.982
 3462POPC   C4B45274  33.965  42.596   7.369
 3463POPC   NC345275  24.307  20.248   5.471
 3463POPC   PO445276  24.767  20.756   5.454
 3463POPC   GL145277  24.639  20.458   5.804
 3463POPC   GL245278  24.356  20.645   5.863
 3463POPC   C1A45279  24.461  20.335   6.255
 3463POPC   D2A45280  24.565  20.149   6.679
 3463POPC   C3A45281  24.474  20.352   7.086
 3463POPC   C4A45282  24.763  20.364   7.480
 3463POPC   C1B45283  24.423  20.838   6.273
 3463POPC   C2B45284  24.568  20.685   6.654
 3463POPC   C3B45285  24.425  20.846   7.032
 3463POPC   C4B45286  24.227  20.866   7.458
 3464POPC   NC345287   8.206   2.022   5.360
 3464POPC   PO445288   8.737   1.972   5.639
 3464POPC   GL145289   8.446   1.847   5.866
 3464POPC   GL245290   8.182   2.074   5.869
 3464POPC   C1A45291   8.361   1.655   6.256
 3464POPC   D2A45292   8.429   1.822   6.655
 3464POPC   C3A45293   8.237   1.732   7.041
 3464POPC   C4A45294   8.406   1.963   7.397
 3464POPC   C1B45295   8.000   2.008   6.278
 3464POPC   C2B45296   7.895   1.927   6.712
 3464POPC   C3B45297   8.010   2.213   7.055
 3464POPC   C4B45298   8.081   2.343   7.502
 3465POPC   NC345299  13.615  41.413   5.504
 3465POPC   PO445300  13.508  42.056   5.365
 3465POPC   GL145301  13.565  41.871   5.734
 3465POPC   GL245302  13.243  41.703   5.780
 3465POPC   C1A45303  13.730  41.706   6.110
 3465POPC   D2A45304  13.876  41.873   6.483
 3465POPC   C3A45305  13.958  41.604   6.784
 3465POPC   C4A45306  13.919  41.625   7.226
 3465POPC   C1B45307  13.310  41.403   6.130
 3465POPC   C2B45308  13.541  41.435   6.523
 3465POPC   C3B45309  13.486  41.426   6.968
 3465POPC   C4B45310  13.422  41.783   7.231
 3466POPC   NC345311  44.278  44.715   5.477
 3466POPC   PO445312  43.627  44.457   5.395
 3466POPC   GL145313  43.639  44.588   5.814
 3466POPC   GL245314  43.989  44.590   5.876
 3466POPC   C1A45315  43.692  44.478   6.260
 3466POPC   D2A45316  43.947  44.675   6.542
 3466POPC   C3A45317  43.697  44.787   6.886
 3466POPC   C4A45318  43.676  44.577   7.299
 3466POPC   C1B45319  44.264  44.873   6.126
 3466POPC   C2B45320  44.494  44.930   6.494
 3466POPC   C3B45321  44.365  44.798   6.868
 3466POPC   C4B45322  44.100  44.824   7.191
 3467POPC   NC345323  29.491  43.340   5.376
 3467POPC   PO445324  28.984  42.970   5.539
 3467POPC   GL145325  29.343  42.986   5.765
 3467POPC   GL245326  29.279  43.295   5.833
 3467POPC   C1A45327  29.531  42.875   6.143
 3467POPC   D2A45328  29.610  42.944   6.577
 3467POPC   C3A45329  29.302  42.974   6.906
 3467POPC   C4A45330  29.050  42.982   7.297
 3467POPC   C1B45331  29.164  43.229   6.224
 3467POPC   C2B45332  29.223  43.407   6.594
 3467POPC   C3B45333  28.982  43.390   6.977
 3467POPC   C4B45334  29.165  43.488   7.354
 3468POPC   NC345335   4.679  42.477   5.635
 3468POPC   PO445336   5.253  42.119   5.652
 3468POPC   GL145337   5.001  42.183   5.974
 3468POPC   GL245338   4.743  41.992   5.927
 3468POPC   C1A45339   4.896  42.467   6.292
 3468POPC   D2A45340   5.168  42.617   6.605
 3468POPC   C3A45341   5.087  42.481   7.001
 3468POPC   C4A45342   4.941  42.647   7.344
 3468POPC   C1B45343   4.717  41.967   6.375
 3468POPC   C2B45344   4.655  42.262   6.714
 3468POPC   C3B45345   4.607  42.308   7.154
 3468POPC   C4B45346   4.591  42.082   7.509
 3469POPC   NC345347  38.971  39.282   5.570
 3469POPC   PO445348  39.536  38.960   5.305
 3469POPC   GL145349  39.637  39.161   5.698
 3469POPC   GL245350  39.338  39.098   5.903
 3469POPC   C1A45351  39.700  39.403   6.087
 3469POPC   D2A45352  39.487  39.208   6.436
 3469POPC   C3A45353  39.470  39.322   6.871
 3469POPC   C4A45354  39.360  39.129   7.244
 3469POPC   C1B45355  38.995  39.149   6.223
 3469POPC   C2B45356  38.991  39.356   6.624
 3469POPC   C3B45357  38.924  39.179   7.006
 3469POPC   C4B45358  38.915  38.984   7.398
 3470POPC   NC345359  34.451  10.927   5.492
 3470POPC   PO445360  34.834  11.477   5.364
 3470POPC   GL145361  34.591  11.415   5.774
 3470POPC   GL245362  34.551  11.081   5.960
 3470POPC   C1A45363  34.611  11.581   6.203
 3470POPC   D2A45364  34.738  11.395   6.598
 3470POPC   C3A45365  34.766  11.572   6.989
 3470POPC   C4A45366  34.573  11.317   7.244
 3470POPC   C1B45367  34.307  11.158   6.331
 3470POPC   C2B45368  34.055  11.134   6.720
 3470POPC   C3B45369  34.132  11.107   7.179
 3470POPC   C4B45370  34.222  11.009   7.651
 3471POPC   NC345371  19.753   6.100   5.455
 3471POPC   PO445372  19.378   5.591   5.508
 3471POPC   GL145373  19.606   5.863   5.878
 3471POPC   GL245374  19.960   6.092   5.899
 3471POPC   C1A45375  19.698   5.949   6.309
 3471POPC   D2A45376  19.852   5.756   6.667
 3471POPC   C3A45377  19.629   5.782   7.022
 3471POPC   C4A45378  19.674   5.631   7.404
 3471POPC   C1B45379  20.198   5.955   6.235
 3471POPC   C2B45380  20.167   6.148   6.595
 3471POPC   C3B45381  20.272   6.138   6.994
 3471POPC   C4B45382  20.061   6.045   7.372
 3472POPC   NC345383   0.487  38.195   5.603
 3472POPC   PO445384   0.299  38.827   5.446
 3472POPC   GL145385   0.304  38.638   5.843
 3472POPC   GL245386   0.588  38.514   5.980
 3472POPC   C1A45387   0.202  38.712   6.265
 3472POPC   D2A45388   0.180  38.459   6.625
 3472POPC   C3A45389   0.444  38.604   6.930
 3472POPC   C4A45390   0.522  38.687   7.347
 3472POPC   C1B45391   0.687  38.328   6.378
 3472POPC   C2B45392   0.564  38.123   6.769
 3472POPC   C3B45393   0.781  38.271   7.131
 3472POPC   C4B45394   0.755  38.311   7.608
 3473POPC   NC345395  39.265  20.903   5.868
 3473POPC   PO445396  39.239  20.413   5.422
 3473POPC   GL145397  39.051  20.350   5.830
 3473POPC   GL245398  38.779  20.614   5.914
 3473POPC   C1A45399  39.287  20.299   6.222
 3473POPC   D2A45400  39.387  20.612   6.535
 3473POPC   C3A45401  39.364  20.453   6.942
 3473POPC   C4A45402  39.318  20.608   7.367
 3473POPC   C1B45403  38.814  20.474   6.296
 3473POPC   C2B45404  38.930  20.389   6.686
 3473POPC   C3B45405  38.906  20.650   7.057
 3473POPC   C4B45406  38.848  20.386   7.414
 3474POPC   NC345407   3.498  29.777   5.418
 3474POPC   PO445408   3.127  30.356   5.378
 3474POPC   GL145409   3.300  30.050   5.765
 3474POPC   GL245410   3.670  30.116   5.793
 3474POPC   C1A45411   3.508  29.852   6.188
 3474POPC   D2A45412   3.378  30.042   6.596
 3474POPC   C3A45413   3.513  30.111   6.995
 3474POPC   C4A45414   3.427  29.734   7.137
 3474POPC   C1B45415   3.803  30.252   6.229
 3474POPC   C2B45416   3.904  30.099   6.665
 3474POPC   C3B45417   3.956  29.867   7.072
 3474POPC   C4B45418   3.764  29.989   7.458
 3475POPC   NC345419  12.657  40.166   5.533
 3475POPC   PO445420  13.116  39.758   5.504
 3475POPC   GL145421  13.024  40.011   5.857
 3475POPC   GL245422  12.660  39.886   5.963
 3475POPC   C1A45423  13.032  40.008   6.289
 3475POPC   D2A45424  12.759  39.745   6.495
 3475POPC   C3A45425  12.672  39.929   6.896
 3475POPC   C4A45426  12.869  40.250   7.144
 3475POPC   C1B45427  12.492  40.141   6.299
 3475POPC   C2B45428  12.307  40.326   6.678
 3475POPC   C3B45429  12.356  40.273   7.132
 3475POPC   C4B45430  12.541  40.374   7.535
 3476POPC   NC345431  17.087   7.061   5.465
 3476POPC   PO445432  16.857   7.675   5.486
 3476POPC   GL145433  16.805   7.324   5.777
 3476POPC   GL245434  17.121   7.281   5.947
 3476POPC   C1A45435  16.544   7.168   6.140
 3476POPC   D2A45436  16.583   7.034   6.572
 3476POPC   C3A45437  16.841   7.341   6.811
 3476POPC   C4A45438  16.671   7.505   7.227
 3476POPC   C1B45439  16.863   7.635   6.157
 3476POPC   C2B45440  16.851   7.903   6.484
 3476POPC   C3B45441  16.757   7.845   6.871
 3476POPC   C4B45442  16.755   8.047   7.236
 3477POPC   NC345443  22.292  43.860   5.476
 3477POPC   PO445444  22.146  44.451   5.241
 3477POPC   GL145445  22.415  44.282   5.704
 3477POPC   GL245446  22.273  43.909   5.957
 3477POPC   C1A45447  22.378  44.319   6.169
 3477POPC   D2A45448  22.049  44.137   6.451
 3477POPC   C3A45449  22.102  44.188   6.894
 3477POPC   C4A45450  22.348  43.978   7.218
 3477POPC   C1B45451  22.274  43.598   6.321
 3477POPC   C2B45452  22.316  43.661   6.776
 3477POPC   C3B45453  21.967  43.673   7.078
 3477POPC   C4B45454  21.588  43.489   7.215
 3478POPC   NC345455  13.421  40.124   5.490
 3478POPC   PO445456  13.927  39.598   5.370
 3478POPC   GL145457  13.689  39.757   5.712
 3478POPC   GL245458  13.857  40.077   5.758
 3478POPC   C1A45459  13.512  39.945   6.109
 3478POPC   D2A45460  13.514  40.219   6.469
 3478POPC   C3A45461  13.241  40.070   6.811
 3478POPC   C4A45462  13.341  40.096   7.237
 3478POPC   C1B45463  14.039  40.056   6.146
 3478POPC   C2B45464  14.104  40.144   6.559
 3478POPC   C3B45465  13.881  40.092   6.961
 3478POPC   C4B45466  13.793  40.370   7.325
 3479POPC   NC345467  35.279   8.060   5.402
 3479POPC   PO445468  35.369   7.435   5.370
 3479POPC   GL145469  35.481   7.480   5.784
 3479POPC   GL245470  35.630   7.151   5.774
 3479POPC   C1A45471  35.302   7.625   6.187
 3479POPC   D2A45472  35.134   7.413   6.545
 3479POPC   C3A45473  35.102   7.674   6.904
 3479POPC   C4A45474  35.381   7.632   7.220
 3479POPC   C1B45475  35.373   7.118   6.149
 3479POPC   C2B45476  35.570   7.061   6.519
 3479POPC   C3B45477  35.515   7.246   6.888
 3479POPC   C4B45478  35.436   7.040   7.248
 3480POPC   NC345479   2.335  12.119   5.386
 3480POPC   PO445480   2.921  11.823   5.268
 3480POPC   GL145481   2.801  11.841   5.744
 3480POPC   GL245482   2.436  11.910   5.840
 3480POPC   C1A45483   2.889  12.000   6.198
 3480POPC   D2A45484   3.186  12.249   6.494
 3480POPC   C3A45485   3.112  12.181   6.939
 3480POPC   C4A45486   3.150  11.846   7.247
 3480POPC   C1B45487   2.361  12.068   6.247
 3480POPC   C2B45488   2.467  11.844   6.595
 3480POPC   C3B45489   2.665  11.936   6.945
 3480POPC   C4B45490   2.610  12.346   7.105
 3481POPC   NC345491  16.379  16.585   5.043
 3481POPC   PO445492  15.825  16.488   5.449
 3481POPC   GL145493  15.950  16.661   5.856
 3481POPC   GL245494  16.202  16.959   5.874
 3481POPC   C1A45495  15.718  16.591   6.264
 3481POPC   D2A45496  15.619  16.491   6.710
 3481POPC   C3A45497  15.907  16.520   7.028
 3481POPC   C4A45498  16.267  16.549   7.233
 3481POPC   C1B45499  16.027  17.008   6.274
 3481POPC   C2B45500  16.114  16.868   6.708
 3481POPC   C3B45501  16.139  17.064   7.133
 3481POPC   C4B45502  16.263  17.107   7.605
 3482POPC   NC345503  30.671  38.154   5.513
 3482POPC   PO445504  30.503  38.776   5.694
 3482POPC   GL145505  30.563  38.438   5.974
 3482POPC   GL245506  30.887  38.297   5.952
 3482POPC   C1A45507  30.706  38.459   6.404
 3482POPC   D2A45508  30.899  38.537   6.800
 3482POPC   C3A45509  30.575  38.491   7.099
 3482POPC   C4A45510  30.359  38.395   7.492
 3482POPC   C1B45511  30.923  38.002   6.305
 3482POPC   C2B45512  30.817  38.041   6.732
 3482POPC   C3B45513  30.850  38.077   7.178
 3482POPC   C4B45514  31.232  38.111   7.395
 3483POPC   NC345515  37.533   3.955   5.438
 3483POPC   PO445516  37.826   3.451   5.293
 3483POPC   GL145517  37.724   3.516   5.733
 3483POPC   GL245518  37.863   3.819   5.834
 3483POPC   C1A45519  37.584   3.521   6.174
 3483POPC   D2A45520  37.485   3.311   6.569
 3483POPC   C3A45521  37.382   3.445   6.982
 3483POPC   C4A45522  37.637   3.301   7.342
 3483POPC   C1B45523  37.980   3.861   6.260
 3483POPC   C2B45524  37.930   3.604   6.591
 3483POPC   C3B45525  37.866   3.596   7.027
 3483POPC   C4B45526  37.893   3.730   7.512
 3484POPC   NC345527  26.632  15.791   5.583
 3484POPC   PO445528  25.997  15.878   5.245
 3484POPC   GL145529  25.978  16.059   5.676
 3484POPC   GL245530  25.921  15.778   5.844
 3484POPC   C1A45531  26.007  16.155   6.164
 3484POPC   D2A45532  25.967  15.931   6.581
 3484POPC   C3A45533  26.146  16.115   6.966
 3484POPC   C4A45534  26.152  16.396   7.315
 3484POPC   C1B45535  26.293  15.738   6.196
 3484POPC   C2B45536  26.425  15.716   6.667
 3484POPC   C3B45537  26.118  15.607   6.997
 3484POPC   C4B45538  25.718  15.816   7.068
 3485POPC   NC345539  25.060   5.754   5.237
 3485POPC   PO445540  25.440   6.325   5.397
 3485POPC   GL145541  25.120   6.053   5.662
 3485POPC   GL245542  25.388   5.866   5.787
 3485POPC   C1A45543  24.994   5.967   6.126
 3485POPC   D2A45544  25.172   6.043   6.564
 3485POPC   C3A45545  25.048   5.866   6.941
 3485POPC   C4A45546  25.045   6.048   7.359
 3485POPC   C1B45547  25.497   5.831   6.225
 3485POPC   C2B45548  25.349   5.569   6.581
 3485POPC   C3B45549  25.478   5.593   6.983
 3485POPC   C4B45550  25.504   5.847   7.320
 3486POPC   NC345551  25.685  41.197   5.498
 3486POPC   PO445552  26.144  41.577   5.099
 3486POPC   GL145553  26.120  41.521   5.585
 3486POPC   GL245554  25.820  41.704   5.687
 3486POPC   C1A45555  26.079  41.332   6.040
 3486POPC   D2A45556  26.211  41.451   6.485
 3486POPC   C3A45557  26.321  41.225   6.868
 3486POPC   C4A45558  26.268  41.341   7.313
 3486POPC   C1B45559  25.586  41.567   6.065
 3486POPC   C2B45560  25.711  41.540   6.486
 3486POPC   C3B45561  25.580  41.513   6.922
 3486POPC   C4B45562  25.748  41.357   7.285
 3487POPC   NC345563   1.590  40.939   5.670
 3487POPC   PO445564   2.095  40.781   5.234
 3487POPC   GL145565   2.019  40.658   5.718
 3487POPC   GL245566   1.821  40.371   5.725
 3487POPC   C1A45567   2.180  40.649   6.172
 3487POPC   D2A45568   2.062  40.457   6.589
 3487POPC   C3A45569   2.216  40.658   6.998
 3487POPC   C4A45570   2.143  40.799   7.436
 3487POPC   C1B45571   1.701  40.436   6.151
 3487POPC   C2B45572   1.509  40.449   6.533
 3487POPC   C3B45573   1.673  40.680   6.884
 3487POPC   C4B45574   1.664  40.690   7.306
 3488POPC   NC345575  12.749   6.536   5.060
 3488POPC   PO445576  13.122   6.846   5.538
 3488POPC   GL145577  12.961   6.603   5.885
 3488POPC   GL245578  12.700   6.379   5.786
 3488POPC   C1A45579  13.080   6.389   6.265
 3488POPC   D2A45580  13.061   6.606   6.633
 3488POPC   C3A45581  13.059   6.407   6.989
 3488POPC   C4A45582  13.030   6.635   7.365
 3488POPC   C1B45583  12.578   6.456   6.235
 3488POPC   C2B45584  12.612   6.361   6.688
 3488POPC   C3B45585  12.590   6.594   7.047
 3488POPC   C4B45586  12.526   6.905   7.317
 3489POPC   NC345587  37.909   6.980   5.430
 3489POPC   PO445588  37.460   6.563   5.422
 3489POPC   GL145589  37.486   6.497   5.821
 3489POPC   GL245590  37.849   6.469   5.886
 3489POPC   C1A45591  37.561   6.856   6.070
 3489POPC   D2A45592  37.755   6.774   6.441
 3489POPC   C3A45593  37.508   6.610   6.748
 3489POPC   C4A45594  37.312   6.536   7.105
 3489POPC   C1B45595  38.101   6.386   6.263
 3489POPC   C2B45596  37.935   6.336   6.666
 3489POPC   C3B45597  37.891   6.511   7.088
 3489POPC   C4B45598  38.096   6.508   7.498
 3490POPC   NC345599   7.967  16.901   5.401
 3490POPC   PO445600   8.363  16.347   5.184
 3490POPC   GL145601   8.322  16.606   5.602
 3490POPC   GL245602   7.980  16.510   5.737
 3490POPC   C1A45603   8.377  16.738   6.075
 3490POPC   D2A45604   8.287  16.981   6.498
 3490POPC   C3A45605   8.221  16.795   6.903
 3490POPC   C4A45606   8.492  16.577   7.167
 3490POPC   C1B45607   7.868  16.771   6.095
 3490POPC   C2B45608   7.798  16.795   6.527
 3490POPC   C3B45609   7.757  16.595   6.898
 3490POPC   C4B45610   7.936  16.524   7.301
 3491POPC   NC345611  24.295  39.335   5.376
 3491POPC   PO445612  24.883  39.075   5.260
 3491POPC   GL145613  24.752  39.194   5.697
 3491POPC   GL245614  24.398  39.212   5.850
 3491POPC   C1A45615  24.780  39.058   6.148
 3491POPC   D2A45616  24.696  39.320   6.493
 3491POPC   C3A45617  24.759  39.123   6.819
 3491POPC   C4A45618  24.750  39.291   7.184
 3491POPC   C1B45619  24.247  39.253   6.282
 3491POPC   C2B45620  24.261  39.079   6.711
 3491POPC   C3B45621  24.259  39.238   7.123
 3491POPC   C4B45622  24.088  39.625   7.114
 3492POPC   NC345623   0.164  22.900   5.496
 3492POPC   PO445624  44.463  22.834   5.322
 3492POPC   GL145625  44.675  22.812   5.754
 3492POPC   GL245626  44.964  22.564   5.812
 3492POPC   C1A45627  44.619  23.010   6.176
 3492POPC   D2A45628  44.809  23.160   6.541
 3492POPC   C3A45629  44.820  23.082   6.973
 3492POPC   C4A45630  44.628  23.071   7.370
 3492POPC   C1B45631   0.108  22.854   6.154
 3492POPC   C2B45632   0.260  22.880   6.557
 3492POPC   C3B45633   0.199  22.711   6.958
 3492POPC   C4B45634   0.046  22.812   7.361
 3493POPC   NC345635  37.999  37.090   5.553
 3493POPC   PO445636  38.598  37.107   5.381
 3493POPC   GL145637  38.434  36.899   5.762
 3493POPC   GL245638  38.299  37.180   5.971
 3493POPC   C1A45639  38.618  36.620   6.081
 3493POPC   D2A45640  38.871  36.704   6.441
 3493POPC   C3A45641  38.664  36.844   6.822
 3493POPC   C4A45642  38.749  36.798   7.292
 3493POPC   C1B45643  38.296  36.913   6.354
 3493POPC   C2B45644  38.105  36.868   6.770
 3493POPC   C3B45645  38.288  37.019   7.142
 3493POPC   C4B45646  38.608  37.350   7.175
 3494POPC   NC345647  28.286  40.257   5.348
 3494POPC   PO445648  28.707  39.744   5.420
 3494POPC   GL145649  28.498  39.981   5.754
 3494POPC   GL245650  28.726  40.281   5.810
 3494POPC   C1A45651  28.321  39.806   6.178
 3494POPC   D2A45652  28.411  39.560   6.594
 3494POPC   C3A45653  28.381  39.741   7.020
 3494POPC   C4A45654  28.101  40.064   7.186
 3494POPC   C1B45655  28.792  40.011   6.183
 3494POPC   C2B45656  28.557  40.063   6.577
 3494POPC   C3B45657  28.479  40.329   6.928
 3494POPC   C4B45658  28.755  40.412   7.268
 3495POPC   NC345659  22.438  14.577   5.471
 3495POPC   PO445660  21.919  14.139   5.370
 3495POPC   GL145661  22.100  14.150   5.765
 3495POPC   GL245662  22.081  14.491   5.822
 3495POPC   C1A45663  22.149  14.213   6.230
 3495POPC   D2A45664  21.967  14.156   6.639
 3495POPC   C3A45665  22.207  14.172   6.981
 3495POPC   C4A45666  22.120  14.135   7.411
 3495POPC   C1B45667  22.360  14.674   6.141
 3495POPC   C2B45668  22.360  14.537   6.575
 3495POPC   C3B45669  22.091  14.669   6.866
 3495POPC   C4B45670  22.184  14.629   7.278
 3496POPC   NC345671  36.020  11.735   5.382
 3496POPC   PO445672  36.408  11.196   5.555
 3496POPC   GL145673  36.272  11.247   5.911
 3496POPC   GL245674  35.924  11.404   5.791
 3496POPC   C1A45675  36.293  10.925   6.235
 3496POPC   D2A45676  36.058  10.871   6.620
 3496POPC   C3A45677  36.092  11.207   6.916
 3496POPC   C4A45678  36.199  11.170   7.326
 3496POPC   C1B45679  35.912  11.335   6.235
 3496POPC   C2B45680  36.141  11.551   6.528
 3496POPC   C3B45681  35.888  11.722   6.838
 3496POPC   C4B45682  35.859  11.573   7.225
 3497POPC   NC345683  16.065  19.800   5.396
 3497POPC   PO445684  15.595  20.187   5.583
 3497POPC   GL145685  15.853  19.833   5.854
 3497POPC   GL245686  15.626  19.608   5.997
 3497POPC   C1A45687  16.001  19.723   6.318
 3497POPC   D2A45688  15.954  19.896   6.751
 3497POPC   C3A45689  15.821  19.725   7.148
 3497POPC   C4A45690  16.086  19.757   7.520
 3497POPC   C1B45691  15.604  20.075   6.209
 3497POPC   C2B45692  15.683  20.304   6.585
 3497POPC   C3B45693  15.564  20.138   6.982
 3497POPC   C4B45694  15.713  20.120   7.457
 3498POPC   NC345695  23.065  38.836   5.494
 3498POPC   PO445696  22.657  38.355   5.541
 3498POPC   GL145697  22.828  38.617   5.898
 3498POPC   GL245698  22.532  38.736   6.007
 3498POPC   C1A45699  22.915  38.648   6.367
 3498POPC   D2A45700  22.939  38.294   6.662
 3498POPC   C3A45701  22.826  38.511   7.033
 3498POPC   C4A45702  23.075  38.710   7.326
 3498POPC   C1B45703  22.569  38.322   6.257
 3498POPC   C2B45704  22.489  38.537   6.637
 3498POPC   C3B45705  22.471  38.906   6.867
 3498POPC   C4B45706  22.533  38.863   7.309
 3499POPC   NC345707   7.692  18.743   5.449
 3499POPC   PO445708   7.293  19.340   5.425
 3499POPC   GL145709   7.598  19.173   5.807
 3499POPC   GL245710   7.417  18.917   5.960
 3499POPC   C1A45711   7.789  19.092   6.254
 3499POPC   D2A45712   7.538  18.854   6.519
 3499POPC   C3A45713   7.405  19.108   6.821
 3499POPC   C4A45714   7.493  18.906   7.192
 3499POPC   C1B45715   7.284  19.238   6.272
 3499POPC   C2B45716   7.050  19.463   6.577
 3499POPC   C3B45717   6.933  19.342   6.967
 3499POPC   C4B45718   7.257  19.336   7.254
 3500POPC   NC345719   5.306  32.640   5.225
 3500POPC   PO445720   4.858  33.148   5.481
 3500POPC   GL145721   5.127  33.169   5.823
 3500POPC   GL245722   5.471  33.219   5.702
 3500POPC   C1A45723   5.105  33.203   6.260
 3500POPC   D2A45724   5.161  33.409   6.652
 3500POPC   C3A45725   4.954  33.242   7.025
 3500POPC   C4A45726   4.983  32.918   7.335
 3500POPC   C1B45727   5.480  32.865   6.027
 3500POPC   C2B45728   5.446  32.908   6.510
 3500POPC   C3B45729   5.435  33.067   6.952
 3500POPC   C4B45730   5.504  32.832   7.308
 3501POPC   NC345731  20.266  19.334   5.460
 3501POPC   PO445732  19.771  18.913   5.175
 3501POPC   GL145733  19.797  18.931   5.647
 3501POPC   GL245734  20.155  18.829   5.718
 3501POPC   C1A45735  19.583  18.952   6.086
 3501POPC   D2A45736  19.535  19.220   6.504
 3501POPC   C3A45737  19.564  18.987   6.926
 3501POPC   C4A45738  19.708  19.037   7.367
 3501POPC   C1B45739  20.087  19.103   6.075
 3501POPC   C2B45740  20.089  19.317   6.473
 3501POPC   C3B45741  20.107  19.326   6.913
 3501POPC   C4B45742  20.177  19.020   7.207
 3502POPC   NC345743  24.856  13.159   5.406
 3502POPC   PO445744  25.415  12.716   5.436
 3502POPC   GL145745  25.238  12.909   5.817
 3502POPC   GL245746  24.964  12.732   5.991
 3502POPC   C1A45747  25.429  12.737   6.239
 3502POPC   D2A45748  25.420  12.892   6.644
 3502POPC   C3A45749  25.448  12.623   6.973
 3502POPC   C4A45750  25.478  12.835   7.328
 3502POPC   C1B45751  25.106  13.101   6.270
 3502POPC   C2B45752  25.116  13.314   6.693
 3502POPC   C3B45753  25.094  13.063   7.030
 3502POPC   C4B45754  24.894  12.692   7.115
 3503POPC   NC345755  26.677  23.653   5.339
 3503POPC   PO445756  27.092  24.192   5.413
 3503POPC   GL145757  26.991  23.894   5.783
 3503POPC   GL245758  26.763  23.577   5.829
 3503POPC   C1A45759  26.997  23.766   6.220
 3503POPC   D2A45760  26.705  23.726   6.557
 3503POPC   C3A45761  26.871  23.812   6.995
 3503POPC   C4A45762  26.891  23.640   7.411
 3503POPC   C1B45763  26.445  23.452   6.135
 3503POPC   C2B45764  26.395  23.290   6.560
 3503POPC   C3B45765  26.516  23.458   6.937
 3503POPC   C4B45766  26.402  23.487   7.307
 3504POPC   NC345767  16.743  14.333   5.434
 3504POPC   PO445768  16.886  14.987   5.557
 3504POPC   GL145769  16.566  14.681   5.823
 3504POPC   GL245770  16.414  14.286   5.821
 3504POPC   C1A45771  16.658  14.466   6.236
 3504POPC   D2A45772  16.894  14.509   6.616
 3504POPC   C3A45773  16.746  14.638   6.998
 3504POPC   C4A45774  16.895  14.447   7.379
 3504POPC   C1B45775  16.339  14.069   6.237
 3504POPC   C2B45776  16.398  14.264   6.671
 3504POPC   C3B45777  16.687  14.115   7.000
 3504POPC   C4B45778  16.644  14.012   7.450
 3505POPC   NC345779  31.349   9.174   5.421
 3505POPC   PO445780  31.723   8.633   5.619
 3505POPC   GL145781  31.339   8.711   5.878
 3505POPC   GL245782  31.126   8.991   5.838
 3505POPC   C1A45783  31.260   8.772   6.322
 3505POPC   D2A45784  31.617   9.002   6.562
 3505POPC   C3A45785  31.717   8.804   6.981
 3505POPC   C4A45786  31.445   8.713   7.353
 3505POPC   C1B45787  31.256   9.251   6.182
 3505POPC   C2B45788  31.147   9.211   6.576
 3505POPC   C3B45789  31.230   8.884   6.855
 3505POPC   C4B45790  31.226   9.172   7.211
 3506POPC   NC345791  21.565  22.209   5.379
 3506POPC   PO445792  20.965  21.880   5.094
 3506POPC   GL145793  21.163  21.931   5.603
 3506POPC   GL245794  21.134  22.283   5.757
 3506POPC   C1A45795  21.391  21.976   6.095
 3506POPC   D2A45796  21.524  21.930   6.557
 3506POPC   C3A45797  21.532  22.274   6.868
 3506POPC   C4A45798  21.409  22.144   7.278
 3506POPC   C1B45799  20.872  22.447   6.123
 3506POPC   C2B45800  20.721  22.438   6.565
 3506POPC   C3B45801  21.011  22.342   6.917
 3506POPC   C4B45802  21.029  22.503   7.336
 3507POPC   NC345803   5.164  37.176   5.402
 3507POPC   PO445804   5.215  36.511   5.452
 3507POPC   GL145805   4.884  36.676   5.738
 3507POPC   GL245806   5.057  36.982   5.861
 3507POPC   C1A45807   4.758  36.744   6.202
 3507POPC   D2A45808   4.595  36.615   6.607
 3507POPC   C3A45809   4.865  36.532   6.949
 3507POPC   C4A45810   4.896  36.735   7.336
 3507POPC   C1B45811   5.363  37.148   6.169
 3507POPC   C2B45812   5.524  37.231   6.609
 3507POPC   C3B45813   5.374  37.118   7.030
 3507POPC   C4B45814   5.140  37.168   7.433
 3508POPC   NC345815  41.207  36.856   5.592
 3508POPC   PO445816  41.881  36.782   5.313
 3508POPC   GL145817  41.821  36.834   5.808
 3508POPC   GL245818  41.567  37.038   5.896
 3508POPC   C1A45819  41.843  36.931   6.314
 3508POPC   D2A45820  42.025  37.029   6.750
 3508POPC   C3A45821  41.771  36.921   7.116
 3508POPC   C4A45822  41.651  36.539   7.289
 3508POPC   C1B45823  41.373  36.713   6.213
 3508POPC   C2B45824  41.348  36.558   6.657
 3508POPC   C3B45825  41.236  36.756   7.059
 3508POPC   C4B45826  41.364  36.899   7.490
 3509POPC   NC345827  31.740  39.329   5.480
 3509POPC   PO445828  31.395  38.765   5.463
 3509POPC   GL145829  31.539  39.024   5.854
 3509POPC   GL245830  31.463  39.389   5.886
 3509POPC   C1A45831  31.674  39.143   6.285
 3509POPC   D2A45832  31.561  38.938   6.678
 3509POPC   C3A45833  31.696  39.149   7.030
 3509POPC   C4A45834  31.552  39.376   7.427
 3509POPC   C1B45835  31.197  39.349   6.213
 3509POPC   C2B45836  31.301  39.416   6.619
 3509POPC   C3B45837  31.208  39.296   7.024
 3509POPC   C4B45838  31.051  39.534   7.344
 3510POPC   NC345839   6.093  37.669   5.527
 3510POPC   PO445840   5.533  37.455   5.420
 3510POPC   GL145841   5.661  37.674   5.835
 3510POPC   GL245842   5.755  38.044   5.794
 3510POPC   C1A45843   5.752  37.611   6.299
 3510POPC   D2A45844   5.933  37.744   6.708
 3510POPC   C3A45845   5.741  37.540   7.075
 3510POPC   C4A45846   5.628  37.366   7.506
 3510POPC   C1B45847   5.482  38.069   6.183
 3510POPC   C2B45848   5.385  38.244   6.622
 3510POPC   C3B45849   5.641  38.124   7.000
 3510POPC   C4B45850   6.060  37.952   7.163
 3511POPC   NC345851  43.401  35.122   5.267
 3511POPC   PO445852  42.851  35.469   5.384
 3511POPC   GL145853  42.942  35.347   5.787
 3511POPC   GL245854  43.178  35.080   5.725
 3511POPC   C1A45855  43.057  35.392   6.214
 3511POPC   D2A45856  42.893  35.260   6.594
 3511POPC   C3A45857  43.116  35.490   6.895
 3511POPC   C4A45858  43.069  35.361   7.295
 3511POPC   C1B45859  43.325  34.952   6.122
 3511POPC   C2B45860  43.377  35.107   6.533
 3511POPC   C3B45861  43.262  35.025   6.948
 3511POPC   C4B45862  43.519  35.128   7.319
 3512POPC   NC345863  32.808  29.329   5.440
 3512POPC   PO445864  33.569  29.329   5.267
 3512POPC   GL145865  33.247  29.192   5.658
 3512POPC   GL245866  33.139  29.521   5.768
 3512POPC   C1A45867  32.966  29.095   6.088
 3512POPC   D2A45868  32.748  28.927   6.532
 3512POPC   C3A45869  32.939  29.085   6.954
 3512POPC   C4A45870  33.095  29.050   7.400
 3512POPC   C1B45871  32.869  29.605   6.132
 3512POPC   C2B45872  32.849  29.433   6.549
 3512POPC   C3B45873  32.764  29.623   6.944
 3512POPC   C4B45874  32.742  29.411   7.335
 3513POPC   NC345875   6.116  19.080   5.392
 3513POPC   PO445876   5.693  19.551   5.669
 3513POPC   GL145877   5.767  19.129   5.864
 3513POPC   GL245878   6.075  18.923   5.865
 3513POPC   C1A45879   5.841  19.084   6.312
 3513POPC   D2A45880   6.044  19.314   6.662
 3513POPC   C3A45881   5.915  19.135   7.034
 3513POPC   C4A45882   5.953  19.285   7.447
 3513POPC   C1B45883   6.259  18.771   6.220
 3513POPC   C2B45884   6.104  18.798   6.654
 3513POPC   C3B45885   6.154  18.683   7.072
 3513POPC   C4B45886   5.849  18.777   7.398
 3514POPC   NC345887  15.173   2.832   5.273
 3514POPC   PO445888  15.703   2.951   5.205
 3514POPC   GL145889  15.428   2.730   5.693
 3514POPC   GL245890  15.088   2.886   5.840
 3514POPC   C1A45891  15.307   2.573   6.150
 3514POPC   D2A45892  15.222   2.558   6.601
 3514POPC   C3A45893  15.529   2.578   6.956
 3514POPC   C4A45894  15.457   2.453   7.414
 3514POPC   C1B45895  14.986   2.964   6.306
 3514POPC   C2B45896  15.029   3.169   6.730
 3514POPC   C3B45897  15.103   2.922   7.080
 3514POPC   C4B45898  15.115   2.836   7.515
 3515POPC   NC345899  25.846   8.469   5.578
 3515POPC   PO445900  26.216   8.074   5.239
 3515POPC   GL145901  26.280   8.137   5.682
 3515POPC   GL245902  26.048   7.896   5.819
 3515POPC   C1A45903  26.190   8.297   6.119
 3515POPC   D2A45904  26.059   8.114   6.496
 3515POPC   C3A45905  26.147   8.264   6.893
 3515POPC   C4A45906  26.107   8.372   7.327
 3515POPC   C1B45907  25.768   7.862   6.170
 3515POPC   C2B45908  25.803   7.679   6.590
 3515POPC   C3B45909  25.753   7.923   6.941
 3515POPC   C4B45910  25.521   7.982   7.296
 3516POPC   NC345911   0.805  43.616   5.472
 3516POPC   PO445912   0.077  43.673   5.501
 3516POPC   GL145913   0.404  43.775   5.809
 3516POPC   GL245914   0.600  44.072   5.783
 3516POPC   C1A45915   0.365  43.918   6.230
 3516POPC   D2A45916   0.181  43.779   6.611
 3516POPC   C3A45917   0.438  43.841   6.955
 3516POPC   C4A45918   0.337  43.752   7.362
 3516POPC   C1B45919   0.714  44.272   6.184
 3516POPC   C2B45920   0.750  44.135   6.605
 3516POPC   C3B45921   0.633  44.310   6.975
 3516POPC   C4B45922   0.667  44.148   7.390
 3517POPC   NC345923   8.562   9.989   5.703
 3517POPC   PO445924   9.126   9.960   5.368
 3517POPC   GL145925   9.000   9.712   5.795
 3517POPC   GL245926   8.664   9.500   5.844
 3517POPC   C1A45927   8.963   9.808   6.284
 3517POPC   D2A45928   9.161  10.089   6.634
 3517POPC   C3A45929   9.185  10.003   7.095
 3517POPC   C4A45930   9.124   9.747   7.500
 3517POPC   C1B45931   8.517   9.502   6.302
 3517POPC   C2B45932   8.540   9.662   6.753
 3517POPC   C3B45933   8.735   9.598   7.175
 3517POPC   C4B45934   8.844   9.300   7.522
 3518POPC   NC345935  20.992  39.589   5.441
 3518POPC   PO445936  21.009  40.281   5.367
 3518POPC   GL145937  20.671  40.119   5.683
 3518POPC   GL245938  20.810  39.840   5.857
 3518POPC   C1A45939  20.423  40.023   6.103
 3518POPC   D2A45940  20.568  39.845   6.480
 3518POPC   C3A45941  20.668  40.049   6.866
 3518POPC   C4A45942  20.629  39.833   7.250
 3518POPC   C1B45943  20.960  39.625   6.212
 3518POPC   C2B45944  21.072  39.788   6.631
 3518POPC   C3B45945  21.079  39.699   7.046
 3518POPC   C4B45946  21.038  39.715   7.524
 3519POPC   NC345947   2.447   5.333   5.484
 3519POPC   PO445948   3.007   5.865   5.458
 3519POPC   GL145949   2.891   5.796   5.839
 3519POPC   GL245950   2.541   5.754   5.802
 3519POPC   C1A45951   2.784   5.965   6.221
 3519POPC   D2A45952   2.620   5.931   6.602
 3519POPC   C3A45953   2.882   5.855   6.933
 3519POPC   C4A45954   2.710   6.057   7.266
 3519POPC   C1B45955   2.419   5.554   6.200
 3519POPC   C2B45956   2.241   5.604   6.610
 3519POPC   C3B45957   2.445   5.532   6.999
 3519POPC   C4B45958   2.728   5.550   7.334
 3520POPC   NC345959  15.330   5.457   5.500
 3520POPC   PO445960  14.895   4.940   5.463
 3520POPC   GL145961  15.091   5.084   5.825
 3520POPC   GL245962  14.809   5.117   5.992
 3520POPC   C1A45963  15.279   4.937   6.212
 3520POPC   D2A45964  15.590   4.941   6.535
 3520POPC   C3A45965  15.420   4.826   6.919
 3520POPC   C4A45966  15.356   4.956   7.344
 3520POPC   C1B45967  14.863   5.287   6.391
 3520POPC   C2B45968  15.083   5.155   6.745
 3520POPC   C3B45969  14.894   4.935   7.109
 3520POPC   C4B45970  14.814   5.033   7.549
 3521POPC   NC345971  27.437  26.944   5.358
 3521POPC   PO445972  27.707  26.349   5.543
 3521POPC   GL145973  27.570  26.545   5.931
 3521POPC   GL245974  27.387  26.870   5.867
 3521POPC   C1A45975  27.719  26.822   6.297
 3521POPC   D2A45976  27.559  27.179   6.584
 3521POPC   C3A45977  27.588  26.983   6.995
 3521POPC   C4A45978  27.524  26.522   7.072
 3521POPC   C1B45979  27.222  26.750   6.264
 3521POPC   C2B45980  27.276  26.756   6.667
 3521POPC   C3B45981  27.073  26.838   7.029
 3521POPC   C4B45982  27.265  26.807   7.404
 3522POPC   NC345983  37.745  30.145   5.407
 3522POPC   PO445984  37.501  29.492   5.517
 3522POPC   GL145985  37.848  29.698   5.746
 3522POPC   GL245986  37.681  29.981   5.872
 3522POPC   C1A45987  38.042  29.766   6.186
 3522POPC   D2A45988  38.077  29.968   6.592
 3522POPC   C3A45989  37.935  29.763   6.946
 3522POPC   C4A45990  37.548  29.810   7.178
 3522POPC   C1B45991  37.659  30.105   6.272
 3522POPC   C2B45992  37.642  30.245   6.667
 3522POPC   C3B45993  37.334  30.278   6.974
 3522POPC   C4B45994  37.344  30.228   7.424
 3523POPC   NC345995   9.827  14.850   5.661
 3523POPC   PO445996   9.924  14.127   5.471
 3523POPC   GL145997   9.727  14.368   5.748
 3523POPC   GL245998   9.413  14.555   5.806
 3523POPC   C1A45999   9.825  14.316   6.137
 3523POPC   D2A46000   9.794  14.161   6.525
 3523POPC   C3A46001   9.762  14.408   6.876
 3523POPC   C4A46002   9.814  14.314   7.295
 3523POPC   C1B46003   9.501  14.691   6.205
 3523POPC   C2B46004   9.336  14.558   6.577
 3523POPC   C3B46005   9.363  14.746   6.957
 3523POPC   C4B46006   9.700  14.818   7.218
 3524POPC   NC346007   0.776  13.114   5.524
 3524POPC   PO446008   0.058  13.238   5.540
 3524POPC   GL146009   0.276  12.875   5.681
 3524POPC   GL246010   0.429  13.125   5.887
 3524POPC   C1A46011   0.409  12.679   6.092
 3524POPC   D2A46012   0.407  12.903   6.488
 3524POPC   C3A46013   0.425  12.695   6.878
 3524POPC   C4A46014   0.393  12.408   7.177
 3524POPC   C1B46015   0.655  13.273   6.196
 3524POPC   C2B46016   0.584  13.369   6.600
 3524POPC   C3B46017   0.487  13.202   6.984
 3524POPC   C4B46018   0.247  12.979   7.266
 3525POPC   NC346019  13.940   9.685   5.326
 3525POPC   PO446020  14.575   9.981   5.204
 3525POPC   GL146021  14.501   9.865   5.685
 3525POPC   GL246022  14.149   9.790   5.783
 3525POPC   C1A46023  14.450  10.030   6.118
 3525POPC   D2A46024  14.137   9.947   6.460
 3525POPC   C3A46025  14.310   9.997   6.876
 3525POPC   C4A46026  14.664   9.961   7.168
 3525POPC   C1B46027  14.354   9.522   6.089
 3525POPC   C2B46028  14.382   9.494   6.528
 3525POPC   C3B46029  14.510   9.519   6.951
 3525POPC   C4B46030  14.293   9.328   7.297
 3526POPC   NC346031  30.956  40.840   5.396
 3526POPC   PO446032  30.333  40.560   5.183
 3526POPC   GL146033  30.543  40.666   5.659
 3526POPC   GL246034  30.818  40.761   5.869
 3526POPC   C1A46035  30.387  40.887   6.099
 3526POPC   D2A46036  30.183  40.930   6.512
 3526POPC   C3A46037  30.396  40.774   6.864
 3526POPC   C4A46038  30.415  40.951   7.297
 3526POPC   C1B46039  30.725  40.526   6.227
 3526POPC   C2B46040  30.847  40.600   6.628
 3526POPC   C3B46041  30.826  40.512   7.044
 3526POPC   C4B46042  30.880  40.712   7.388
 3527POPC   NC346043   9.507  35.704   5.502
 3527POPC   PO446044   9.665  36.356   5.407
 3527POPC   GL146045   9.740  36.090   5.779
 3527POPC   GL246046  10.095  36.015   5.870
 3527POPC   C1A46047   9.779  36.128   6.254
 3527POPC   D2A46048   9.977  36.234   6.674
 3527POPC   C3A46049   9.727  36.054   7.019
 3527POPC   C4A46050   9.637  36.128   7.453
 3527POPC   C1B46051  10.290  35.960   6.271
 3527POPC   C2B46052  10.254  35.793   6.678
 3527POPC   C3B46053  10.232  35.985   7.072
 3527POPC   C4B46054   9.995  35.742   7.370
 3528POPC   NC346055   4.524   6.907   5.649
 3528POPC   PO446056   5.106   6.687   5.311
 3528POPC   GL146057   5.030   6.722   5.779
 3528POPC   GL246058   4.929   7.078   5.894
 3528POPC   C1A46059   4.998   6.467   6.201
 3528POPC   D2A46060   4.839   6.521   6.654
 3528POPC   C3A46061   5.120   6.524   7.038
 3528POPC   C4A46062   5.179   6.314   7.454
 3528POPC   C1B46063   5.082   6.958   6.291
 3528POPC   C2B46064   5.243   6.854   6.671
 3528POPC   C3B46065   5.323   6.989   7.084
 3528POPC   C4B46066   5.055   6.878   7.442
 3529POPC   NC346067  27.952  13.752   5.260
 3529POPC   PO446068  27.323  13.645   5.357
 3529POPC   GL146069  27.624  13.802   5.691
 3529POPC   GL246070  27.666  13.501   5.814
 3529POPC   C1A46071  27.717  13.942   6.137
 3529POPC   D2A46072  27.778  13.844   6.585
 3529POPC   C3A46073  27.618  13.825   7.015
 3529POPC   C4A46074  27.804  14.000   7.393
 3529POPC   C1B46075  27.783  13.422   6.259
 3529POPC   C2B46076  27.709  13.285   6.679
 3529POPC   C3B46077  27.790  13.365   7.100
 3529POPC   C4B46078  27.662  13.529   7.532
 3530POPC   NC346079   3.619   7.983   5.133
 3530POPC   PO446080   3.503   7.399   5.368
 3530POPC   GL146081   3.495   7.563   5.771
 3530POPC   GL246082   3.850   7.626   5.899
 3530POPC   C1A46083   3.546   7.310   6.150
 3530POPC   D2A46084   3.685   7.298   6.561
 3530POPC   C3A46085   3.389   7.508   6.835
 3530POPC   C4A46086   3.382   7.465   7.293
 3530POPC   C1B46087   3.936   7.683   6.328
 3530POPC   C2B46088   4.031   7.647   6.751
 3530POPC   C3B46089   3.854   7.408   7.070
 3530POPC   C4B46090   3.896   7.634   7.453
 3531POPC   NC346091   4.774   3.393   5.531
 3531POPC   PO446092   5.499   3.256   5.530
 3531POPC   GL146093   5.194   3.358   5.845
 3531POPC   GL246094   5.106   3.710   5.978
 3531POPC   C1A46095   5.242   3.326   6.278
 3531POPC   D2A46096   5.023   3.417   6.635
 3531POPC   C3A46097   5.229   3.221   6.961
 3531POPC   C4A46098   5.225   3.465   7.257
 3531POPC   C1B46099   4.769   3.957   6.214
 3531POPC   C2B46100   4.579   4.046   6.584
 3531POPC   C3B46101   4.732   4.057   6.999
 3531POPC   C4B46102   4.558   4.105   7.434
 3532POPC   NC346103  36.299  40.941   5.250
 3532POPC   PO446104  35.920  40.405   5.369
 3532POPC   GL146105  36.044  40.762   5.674
 3532POPC   GL246106  35.748  40.862   5.806
 3532POPC   C1A46107  36.136  40.958   6.131
 3532POPC   D2A46108  36.349  41.007   6.557
 3532POPC   C3A46109  36.317  40.686   6.872
 3532POPC   C4A46110  36.062  40.688   7.229
 3532POPC   C1B46111  35.892  40.486   6.076
 3532POPC   C2B46112  36.045  40.451   6.493
 3532POPC   C3B46113  35.815  40.400   6.884
 3532POPC   C4B46114  35.739  40.319   7.348
 3533POPC   NC346115  38.026  33.677   5.431
 3533POPC   PO446116  37.588  34.189   5.527
 3533POPC   GL146117  37.698  33.835   5.825
 3533POPC   GL246118  37.994  33.594   5.926
 3533POPC   C1A46119  37.593  33.806   6.242
 3533POPC   D2A46120  37.439  33.703   6.639
 3533POPC   C3A46121  37.664  33.557   6.989
 3533POPC   C4A46122  37.689  33.876   7.276
 3533POPC   C1B46123  38.116  33.869   6.233
 3533POPC   C2B46124  37.923  34.022   6.599
 3533POPC   C3B46125  38.100  33.974   7.002
 3533POPC   C4B46126  38.124  33.607   7.255
 3534POPC   NC346127   8.833  20.855   5.428
 3534POPC   PO446128   9.313  20.400   5.228
 3534POPC   GL146129   9.292  20.461   5.731
 3534POPC   GL246130   9.064  20.703   5.849
 3534POPC   C1A46131   9.249  20.363   6.183
 3534POPC   D2A46132   9.258  20.607   6.575
 3534POPC   C3A46133   9.144  20.495   6.986
 3534POPC   C4A46134   9.259  20.685   7.369
 3534POPC   C1B46135   8.895  20.887   6.211
 3534POPC   C2B46136   9.044  21.096   6.572
 3534POPC   C3B46137   9.082  21.013   6.997
 3534POPC   C4B46138   8.735  20.750   7.193
 3535POPC   NC346139   4.458  28.359   5.454
 3535POPC   PO446140   3.800  28.034   5.414
 3535POPC   GL146141   4.001  28.212   5.863
 3535POPC   GL246142   4.267  28.500   5.898
 3535POPC   C1A46143   4.079  28.356   6.349
 3535POPC   D2A46144   4.387  28.569   6.660
 3535POPC   C3A46145   4.342  28.488   7.114
 3535POPC   C4A46146   4.170  28.087   7.265
 3535POPC   C1B46147   4.520  28.169   6.133
 3535POPC   C2B46148   4.449  28.028   6.564
 3535POPC   C3B46149   4.644  28.110   6.978
 3535POPC   C4B46150   4.625  28.194   7.457
 3536POPC   NC346151  14.324  39.335   5.421
 3536POPC   PO446152  14.957  38.978   5.431
 3536POPC   GL146153  14.599  39.039   5.770
 3536POPC   GL246154  14.565  39.360   5.861
 3536POPC   C1A46155  14.230  39.067   6.143
 3536POPC   D2A46156  13.968  39.249   6.532
 3536POPC   C3A46157  14.057  39.149   6.976
 3536POPC   C4A46158  14.266  39.163   7.415
 3536POPC   C1B46159  14.688  39.255   6.243
 3536POPC   C2B46160  14.468  39.237   6.604
 3536POPC   C3B46161  14.522  39.343   6.996
 3536POPC   C4B46162  14.774  39.193   7.285
 3537POPC   NC346163  16.756  27.278   5.167
 3537POPC   PO446164  16.833  27.730   5.649
 3537POPC   GL146165  16.782  27.483   5.960
 3537POPC   GL246166  17.086  27.320   5.930
 3537POPC   C1A46167  16.723  27.633   6.338
 3537POPC   D2A46168  16.806  27.532   6.734
 3537POPC   C3A46169  16.595  27.818   6.979
 3537POPC   C4A46170  16.553  27.780   7.406
 3537POPC   C1B46171  17.218  27.571   6.283
 3537POPC   C2B46172  17.279  27.756   6.683
 3537POPC   C3B46173  17.083  27.794   7.096
 3537POPC   C4B46174  17.032  27.685   7.525
 3538POPC   NC346175  18.789   7.610   5.393
 3538POPC   PO446176  19.223   7.061   5.192
 3538POPC   GL146177  19.356   7.052   5.776
 3538POPC   GL246178  19.229   7.423   5.943
 3538POPC   C1A46179  19.112   7.042   6.216
 3538POPC   D2A46180  19.057   7.246   6.617
 3538POPC   C3A46181  19.223   7.053   6.994
 3538POPC   C4A46182  18.915   7.205   7.216
 3538POPC   C1B46183  18.812   7.506   6.154
 3538POPC   C2B46184  18.598   7.517   6.557
 3538POPC   C3B46185  18.741   7.617   6.967
 3538POPC   C4B46186  18.611   7.575   7.384
 3539POPC   NC346187  38.771  29.309   5.354
 3539POPC   PO446188  38.348  28.860   5.461
 3539POPC   GL146189  38.436  29.206   5.767
 3539POPC   GL246190  38.750  29.382   5.859
 3539POPC   C1A46191  38.294  29.317   6.183
 3539POPC   D2A46192  38.340  29.536   6.580
 3539POPC   C3A46193  38.332  29.252   6.889
 3539POPC   C4A46194  38.236  28.955   7.181
 3539POPC   C1B46195  38.708  28.967   6.105
 3539POPC   C2B46196  38.477  28.904   6.470
 3539POPC   C3B46197  38.575  28.797   6.851
 3539POPC   C4B46198  38.627  28.649   7.247
 3540POPC   NC346199  40.692   3.002   5.281
 3540POPC   PO446200  40.444   3.614   5.431
 3540POPC   GL146201  40.732   3.517   5.782
 3540POPC   GL246202  40.647   3.134   5.797
 3540POPC   C1A46203  40.922   3.754   6.184
 3540POPC   D2A46204  40.813   3.989   6.584
 3540POPC   C3A46205  40.993   3.864   7.009
 3540POPC   C4A46206  41.029   3.901   7.462
 3540POPC   C1B46207  40.892   3.237   6.177
 3540POPC   C2B46208  40.983   3.418   6.601
 3540POPC   C3B46209  40.911   3.327   7.057
 3540POPC   C4B46210  41.035   3.262   7.502
 3541POPC   NC346211  15.322  25.581   5.013
 3541POPC   PO446212  15.425  24.942   5.353
 3541POPC   GL146213  15.297  25.118   5.738
 3541POPC   GL246214  15.147  25.433   5.716
 3541POPC   C1A46215  15.147  25.015   6.141
 3541POPC   D2A46216  15.240  25.132   6.562
 3541POPC   C3A46217  15.043  25.042   6.961
 3541POPC   C4A46218  15.257  25.085   7.358
 3541POPC   C1B46219  15.239  25.549   6.156
 3541POPC   C2B46220  15.405  25.625   6.580
 3541POPC   C3B46221  15.384  25.436   7.001
 3541POPC   C4B46222  15.539  25.626   7.376
 3542POPC   NC346223   1.700  17.409   5.472
 3542POPC   PO446224   1.137  17.099   5.504
 3542POPC   GL146225   1.341  17.339   5.837
 3542POPC   GL246226   1.661  17.188   5.940
 3542POPC   C1A46227   1.257  17.595   6.205
 3542POPC   D2A46228   1.436  17.542   6.607
 3542POPC   C3A46229   1.282  17.796   6.912
 3542POPC   C4A46230   1.313  17.602   7.291
 3542POPC   C1B46231   1.423  17.113   6.314
 3542POPC   C2B46232   1.147  17.090   6.702
 3542POPC   C3B46233   1.184  17.108   7.186
 3542POPC   C4B46234   1.484  17.127   7.566
 3543POPC   NC346235   1.367  15.780   5.121
 3543POPC   PO446236   0.989  16.114   5.584
 3543POPC   GL146237   1.124  16.288   5.928
 3543POPC   GL246238   0.812  16.480   5.941
 3543POPC   C1A46239   1.266  16.063   6.293
 3543POPC   D2A46240   1.276  15.864   6.683
 3543POPC   C3A46241   1.460  16.037   6.996
 3543POPC   C4A46242   1.279  15.888   7.333
 3543POPC   C1B46243   0.766  16.248   6.282
 3543POPC   C2B46244   0.825  16.093   6.647
 3543POPC   C3B46245   0.966  16.191   7.042
 3543POPC   C4B46246   0.610  16.271   7.274
 3544POPC   NC346247  41.820   6.224   5.517
 3544POPC   PO446248  41.287   5.806   5.233
 3544POPC   GL146249  41.188   5.812   5.728
 3544POPC   GL246250  41.524   5.931   5.834
 3544POPC   C1A46251  41.229   5.781   6.223
 3544POPC   D2A46252  41.392   5.935   6.641
 3544POPC   C3A46253  41.771   5.805   6.870
 3544POPC   C4A46254  41.763   5.574   7.247
 3544POPC   C1B46255  41.654   6.144   6.214
 3544POPC   C2B46256  41.905   6.299   6.574
 3544POPC   C3B46257  41.834   6.303   7.008
 3544POPC   C4B46258  41.558   6.055   7.281
 3545POPC   NC346259  42.084   2.829   5.386
 3545POPC   PO446260  42.488   2.270   5.313
 3545POPC   GL146261  42.365   2.539   5.700
 3545POPC   GL246262  42.530   2.865   5.686
 3545POPC   C1A46263  42.165   2.719   6.108
 3545POPC   D2A46264  42.087   2.547   6.559
 3545POPC   C3A46265  42.223   2.825   6.883
 3545POPC   C4A46266  42.383   2.803   7.253
 3545POPC   C1B46267  42.610   3.001   6.121
 3545POPC   C2B46268  42.514   3.114   6.586
 3545POPC   C3B46269  42.742   3.112   7.028
 3545POPC   C4B46270  42.670   3.089   7.523
 3546POPC   NC346271  43.477  36.767   5.430
 3546POPC   PO446272  43.184  37.389   5.527
 3546POPC   GL146273  43.032  37.162   5.873
 3546POPC   GL246274  43.050  36.802   5.783
 3546POPC   C1A46275  43.186  36.955   6.270
 3546POPC   D2A46276  43.432  36.636   6.531
 3546POPC   C3A46277  43.288  36.689   6.954
 3546POPC   C4A46278  43.243  37.059   7.165
 3546POPC   C1B46279  42.812  36.604   6.129
 3546POPC   C2B46280  42.921  36.592   6.565
 3546POPC   C3B46281  42.768  36.673   6.982
 3546POPC   C4B46282  42.816  36.736   7.418
 3547POPC   NC346283  14.695  20.929   5.478
 3547POPC   PO446284  14.994  20.368   5.325
 3547POPC   GL146285  15.082  20.584   5.766
 3547POPC   GL246286  14.952  20.844   5.913
 3547POPC   C1A46287  15.294  20.512   6.184
 3547POPC   D2A46288  15.183  20.175   6.520
 3547POPC   C3A46289  15.025  20.355   6.906
 3547POPC   C4A46290  15.210  20.294   7.289
 3547POPC   C1B46291  15.099  21.057   6.265
 3547POPC   C2B46292  15.081  20.982   6.686
 3547POPC   C3B46293  14.824  20.824   7.015
 3547POPC   C4B46294  15.058  20.765   7.373
 3548POPC   NC346295  22.744  19.974   4.983
 3548POPC   PO446296  22.862  20.522   5.428
 3548POPC   GL146297  22.837  20.653   5.834
 3548POPC   GL246298  22.514  20.532   5.903
 3548POPC   C1A46299  22.969  20.551   6.249
 3548POPC   D2A46300  22.980  20.776   6.631
 3548POPC   C3A46301  22.982  20.700   7.052
 3548POPC   C4A46302  23.222  20.994   7.305
 3548POPC   C1B46303  22.564  20.221   6.229
 3548POPC   C2B46304  22.769  20.272   6.636
 3548POPC   C3B46305  22.889  20.182   7.055
 3548POPC   C4B46306  23.005  20.396   7.469
 3549POPC   NC346307  20.091  30.215   5.574
 3549POPC   PO446308  20.675  29.981   5.329
 3549POPC   GL146309  20.723  29.862   5.759
 3549POPC   GL246310  20.518  30.113   5.866
 3549POPC   C1A46311  20.733  29.761   6.195
 3549POPC   D2A46312  20.662  30.016   6.569
 3549POPC   C3A46313  20.801  29.855   6.951
 3549POPC   C4A46314  20.633  29.609   7.277
 3549POPC   C1B46315  20.449  30.353   6.232
 3549POPC   C2B46316  20.272  30.355   6.662
 3549POPC   C3B46317  20.462  30.259   7.056
 3549POPC   C4B46318  20.433  30.075   7.473
 3550POPC   NC346319  27.940  16.564   5.231
 3550POPC   PO446320  28.593  16.655   5.340
 3550POPC   GL146321  28.458  16.650   5.802
 3550POPC   GL246322  28.165  16.385   5.822
 3550POPC   C1A46323  28.419  16.544   6.267
 3550POPC   D2A46324  28.161  16.412   6.647
 3550POPC   C3A46325  28.299  16.580   7.069
 3550POPC   C4A46326  28.455  16.976   7.235
 3550POPC   C1B46327  27.904  16.650   6.112
 3550POPC   C2B46328  27.752  16.855   6.514
 3550POPC   C3B46329  27.878  16.859   6.957
 3550POPC   C4B46330  27.821  16.492   7.240
 3551POPC   NC346331  11.689  43.252   5.415
 3551POPC   PO446332  12.405  43.331   5.384
 3551POPC   GL146333  12.174  43.215   5.737
 3551POPC   GL246334  11.984  43.502   5.812
 3551POPC   C1A46335  12.129  43.054   6.155
 3551POPC   D2A46336  11.871  42.825   6.475
 3551POPC   C3A46337  11.944  42.721   6.934
 3551POPC   C4A46338  12.088  43.026   7.227
 3551POPC   C1B46339  11.739  43.370   6.153
 3551POPC   C2B46340  12.008  43.364   6.525
 3551POPC   C3B46341  12.095  43.462   6.926
 3551POPC   C4B46342  11.838  43.458   7.273
 3552POPC   NC346343  29.961  23.975   5.355
 3552POPC   PO446344  29.581  23.473   5.331
 3552POPC   GL146345  29.761  23.696   5.720
 3552POPC   GL246346  29.619  24.030   5.731
 3552POPC   C1A46347  29.968  23.535   6.153
 3552POPC   D2A46348  30.235  23.559   6.527
 3552POPC   C3A46349  30.037  23.633   6.922
 3552POPC   C4A46350  30.052  23.416   7.325
 3552POPC   C1B46351  29.966  24.028   6.054
 3552POPC   C2B46352  29.943  23.997   6.527
 3552POPC   C3B46353  29.912  24.129   6.996
 3552POPC   C4B46354  30.133  23.924   7.354
 3553POPC   NC346355  15.858   6.816   5.391
 3553POPC   PO446356  16.168   6.289   5.705
 3553POPC   GL146357  15.993   6.631   5.842
 3553POPC   GL246358  15.689   6.482   5.732
 3553POPC   C1A46359  16.053   6.776   6.238
 3553POPC   D2A46360  16.031   6.517   6.609
 3553POPC   C3A46361  16.184   6.672   7.014
 3553POPC   C4A46362  15.917   6.945   7.205
 3553POPC   C1B46363  15.672   6.411   6.204
 3553POPC   C2B46364  15.540   6.299   6.614
 3553POPC   C3B46365  15.780   6.303   7.004
 3553POPC   C4B46366  16.063   6.226   7.324
 3554POPC   NC346367  35.832  16.283   5.592
 3554POPC   PO446368  36.403  16.155   5.204
 3554POPC   GL146369  36.288  16.051   5.710
 3554POPC   GL246370  35.973  15.876   5.866
 3554POPC   C1A46371  36.173  16.255   6.158
 3554POPC   D2A46372  36.297  16.293   6.597
 3554POPC   C3A46373  35.998  16.082   6.860
 3554POPC   C4A46374  35.773  16.003   7.233
 3554POPC   C1B46375  36.080  15.777   6.302
 3554POPC   C2B46376  36.216  15.654   6.708
 3554POPC   C3B46377  35.999  15.568   7.076
 3554POPC   C4B46378  36.179  15.727   7.466
 3555POPC   NC346379  41.282  19.730   5.283
 3555POPC   PO446380  41.673  20.173   5.533
 3555POPC   GL146381  41.645  19.788   5.775
 3555POPC   GL246382  41.296  19.708   5.813
 3555POPC   C1A46383  41.925  19.795   6.150
 3555POPC   D2A46384  41.826  19.677   6.566
 3555POPC   C3A46385  41.754  19.822   6.989
 3555POPC   C4A46386  41.337  19.734   7.154
 3555POPC   C1B46387  41.415  19.825   6.238
 3555POPC   C2B46388  41.324  19.979   6.648
 3555POPC   C3B46389  41.424  20.234   6.991
 3555POPC   C4B46390  41.339  20.192   7.409
 3556POPC   NC346391   0.466  31.740   5.481
 3556POPC   PO446392   0.565  31.036   5.625
 3556POPC   GL146393   0.456  31.437   5.890
 3556POPC   GL246394   0.147  31.701   5.868
 3556POPC   C1A46395   0.480  31.713   6.287
 3556POPC   D2A46396   0.404  31.879   6.732
 3556POPC   C3A46397   0.444  31.612   7.092
 3556POPC   C4A46398   0.524  31.184   7.238
 3556POPC   C1B46399   0.057  31.437   6.187
 3556POPC   C2B46400   0.170  31.439   6.633
 3556POPC   C3B46401   0.072  31.247   7.021
 3556POPC   C4B46402  44.913  31.112   7.388
 3557POPC   NC346403  36.603  13.971   5.494
 3557POPC   PO446404  35.938  13.650   5.449
 3557POPC   GL146405  36.111  13.626   5.851
 3557POPC   GL246406  36.261  13.938   5.866
 3557POPC   C1A46407  36.245  13.635   6.275
 3557POPC   D2A46408  36.281  13.392   6.606
 3557POPC   C3A46409  36.245  13.635   6.949
 3557POPC   C4A46410  36.236  13.482   7.353
 3557POPC   C1B46411  35.860  14.005   6.097
 3557POPC   C2B46412  35.941  13.946   6.548
 3557POPC   C3B46413  36.107  14.149   6.913
 3557POPC   C4B46414  36.042  13.964   7.311
 3558POPC   NC346415   5.608  20.632   5.143
 3558POPC   PO446416   6.084  20.398   5.583
 3558POPC   GL146417   6.022  20.708   5.878
 3558POPC   GL246418   5.858  20.469   6.079
 3558POPC   C1A46419   5.866  20.923   6.267
 3558POPC   D2A46420   5.749  20.792   6.701
 3558POPC   C3A46421   6.019  20.910   7.069
 3558POPC   C4A46422   6.009  20.893   7.540
 3558POPC   C1B46423   5.857  20.266   6.453
 3558POPC   C2B46424   6.069  20.371   6.825
 3558POPC   C3B46425   5.981  20.420   7.235
 3558POPC   C4B46426   5.797  20.434   7.609
 3559POPC   NC346427  17.289   6.492   5.133
 3559POPC   PO446428  17.702   6.150   5.609
 3559POPC   GL146429  17.513   6.433   5.972
 3559POPC   GL246430  17.443   6.798   5.977
 3559POPC   C1A46431  17.283   6.373   6.333
 3559POPC   D2A46432  17.590   6.342   6.628
 3559POPC   C3A46433  17.527   6.658   6.910
 3559POPC   C4A46434  17.482   6.491   7.275
 3559POPC   C1B46435  17.527   6.838   6.406
 3559POPC   C2B46436  17.456   7.146   6.702
 3559POPC   C3B46437  17.252   7.106   7.094
 3559POPC   C4B46438  17.445   6.980   7.457
 3560POPC   NC346439  23.307  33.588   5.244
 3560POPC   PO446440  22.750  33.998   5.465
 3560POPC   GL146441  22.906  33.658   5.752
 3560POPC   GL246442  22.966  33.926   5.979
 3560POPC   C1A46443  22.948  33.467   6.201
 3560POPC   D2A46444  22.904  33.704   6.599
 3560POPC   C3A46445  22.991  33.548   7.001
 3560POPC   C4A46446  23.056  33.584   7.455
 3560POPC   C1B46447  22.846  34.179   6.326
 3560POPC   C2B46448  22.566  34.088   6.651
 3560POPC   C3B46449  22.655  33.932   7.034
 3560POPC   C4B46450  23.024  34.061   7.242
 3561POPC   NC346451  35.712  37.407   5.697
 3561POPC   PO446452  35.278  37.061   5.384
 3561POPC   GL146453  35.420  36.972   5.789
 3561POPC   GL246454  35.172  36.752   5.850
 3561POPC   C1A46455  35.339  37.058   6.242
 3561POPC   D2A46456  35.543  37.183   6.637
 3561POPC   C3A46457  35.725  36.846   6.867
 3561POPC   C4A46458  35.811  36.786   7.290
 3561POPC   C1B46459  35.019  36.508   6.211
 3561POPC   C2B46460  35.170  36.497   6.641
 3561POPC   C3B46461  35.201  36.869   6.867
 3561POPC   C4B46462  35.343  36.975   7.246
 3562POPC   NC346463  31.292  35.185   5.183
 3562POPC   PO446464  31.884  35.335   5.367
 3562POPC   GL146465  31.602  35.363   5.732
 3562POPC   GL246466  31.241  35.258   5.744
 3562POPC   C1A46467  31.502  35.507   6.157
 3562POPC   D2A46468  31.279  35.670   6.527
 3562POPC   C3A46469  31.462  35.556   6.931
 3562POPC   C4A46470  31.344  35.609   7.375
 3562POPC   C1B46471  31.187  35.088   6.201
 3562POPC   C2B46472  31.174  35.199   6.675
 3562POPC   C3B46473  31.123  35.183   7.143
 3562POPC   C4B46474  31.151  34.906   7.516
 3563POPC   NC346475  13.935  42.213   5.386
 3563POPC   PO446476  14.625  42.279   5.226
 3563POPC   GL146477  14.484  42.336   5.703
 3563POPC   GL246478  14.153  42.426   5.803
 3563POPC   C1A46479  14.511  42.474   6.174
 3563POPC   D2A46480  14.735  42.386   6.583
 3563POPC   C3A46481  14.530  42.438   6.977
 3563POPC   C4A46482  14.581  42.376   7.410
 3563POPC   C1B46483  14.275  42.018   6.056
 3563POPC   C2B46484  14.401  41.936   6.500
 3563POPC   C3B46485  14.187  42.061   6.899
 3563POPC   C4B46486  14.177  42.044   7.350
 3564POPC   NC346487   1.054  29.671   5.663
 3564POPC   PO446488   1.580  30.050   5.417
 3564POPC   GL146489   1.352  30.132   5.841
 3564POPC   GL246490   0.978  30.212   5.774
 3564POPC   C1A46491   1.394  30.049   6.319
 3564POPC   D2A46492   1.648  29.997   6.687
 3564POPC   C3A46493   1.556  29.721   7.029
 3564POPC   C4A46494   1.376  29.749   7.447
 3564POPC   C1B46495   0.965  30.300   6.236
 3564POPC   C2B46496   0.994  30.087   6.672
 3564POPC   C3B46497   1.105  30.026   7.133
 3564POPC   C4B46498   1.001  30.052   7.607
 3565POPC   NC346499   4.159  11.996   5.467
 3565POPC   PO446500   4.189  12.599   5.223
 3565POPC   GL146501   4.271  12.433   5.708
 3565POPC   GL246502   4.020  12.476   5.962
 3565POPC   C1A46503   4.360  12.106   6.094
 3565POPC   D2A46504   4.376  11.854   6.496
 3565POPC   C3A46505   4.450  11.915   6.943
 3565POPC   C4A46506   4.073  11.920   7.203
 3565POPC   C1B46507   4.172  12.501   6.375
 3565POPC   C2B46508   4.409  12.381   6.707
 3565POPC   C3B46509   4.420  12.408   7.141
 3565POPC   C4B46510   4.425  12.354   7.554
 3566POPC   NC346511  18.056  21.551   5.562
 3566POPC   PO446512  18.493  21.170   5.236
 3566POPC   GL146513  18.410  21.220   5.732
 3566POPC   GL246514  18.386  21.578   5.935
 3566POPC   C1A46515  18.414  21.156   6.206
 3566POPC   D2A46516  18.212  21.344   6.598
 3566POPC   C3A46517  18.313  21.148   6.995
 3566POPC   C4A46518  18.512  21.127   7.378
 3566POPC   C1B46519  17.983  21.611   6.222
 3566POPC   C2B46520  17.742  21.581   6.633
 3566POPC   C3B46521  17.889  21.734   7.039
 3566POPC   C4B46522  18.292  21.616   7.192
 3567POPC   NC346523  16.777   5.634   5.171
 3567POPC   PO446524  16.824   6.249   5.429
 3567POPC   GL146525  16.639   6.047   5.776
 3567POPC   GL246526  16.608   5.671   5.765
 3567POPC   C1A46527  16.559   5.976   6.189
 3567POPC   D2A46528  16.897   5.978   6.447
 3567POPC   C3A46529  16.742   5.997   6.827
 3567POPC   C4A46530  16.552   6.006   7.216
 3567POPC   C1B46531  16.812   5.515   6.154
 3567POPC   C2B46532  16.839   5.454   6.604
 3567POPC   C3B46533  16.671   5.530   7.017
 3567POPC   C4B46534  17.015   5.729   7.186
 3568POPC   NC346535  35.614  31.476   5.322
 3568POPC   PO446536  34.922  31.595   5.387
 3568POPC   GL146537  35.193  31.525   5.803
 3568POPC   GL246538  35.546  31.452   5.829
 3568POPC   C1A46539  35.251  31.232   6.179
 3568POPC   D2A46540  35.484  31.154   6.553
 3568POPC   C3A46541  35.233  31.136   6.940
 3568POPC   C4A46542  35.292  31.328   7.362
 3568POPC   C1B46543  35.531  31.698   6.212
 3568POPC   C2B46544  35.422  31.661   6.640
 3568POPC   C3B46545  35.631  31.468   6.986
 3568POPC   C4B46546  35.667  31.678   7.366
 3569POPC   NC346547   5.756  30.476   5.318
 3569POPC   PO446548   5.430  31.101   5.391
 3569POPC   GL146549   5.640  30.797   5.708
 3569POPC   GL246550   5.996  30.890   5.787
 3569POPC   C1A46551   5.759  30.647   6.150
 3569POPC   D2A46552   6.096  30.639   6.493
 3569POPC   C3A46553   5.935  30.500   6.886
 3569POPC   C4A46554   5.799  30.661   7.283
 3569POPC   C1B46555   6.257  30.988   6.142
 3569POPC   C2B46556   6.239  31.152   6.572
 3569POPC   C3B46557   6.159  30.971   6.991
 3569POPC   C4B46558   6.170  30.950   7.468
 3570POPC   NC346559  20.289  34.986   5.522
 3570POPC   PO446560  20.244  34.294   5.361
 3570POPC   GL146561  20.514  34.431   5.736
 3570POPC   GL246562  20.714  34.756   5.768
 3570POPC   C1A46563  20.529  34.316   6.172
 3570POPC   D2A46564  20.405  34.504   6.567
 3570POPC   C3A46565  20.722  34.559   6.859
 3570POPC   C4A46566  20.500  34.440   7.204
 3570POPC   C1B46567  20.521  34.855   6.193
 3570POPC   C2B46568  20.511  35.009   6.653
 3570POPC   C3B46569  20.440  34.922   7.097
 3570POPC   C4B46570  20.728  34.796   7.481
 3571POPC   NC346571  29.815  28.365   5.299
 3571POPC   PO446572  30.227  28.722   5.652
 3571POPC   GL146573  30.060  28.325   5.874
 3571POPC   GL246574  29.747  28.126   5.760
 3571POPC   C1A46575  30.042  28.275   6.325
 3571POPC   D2A46576  30.099  28.576   6.645
 3571POPC   C3A46577  30.050  28.407   7.064
 3571POPC   C4A46578  30.072  28.594   7.468
 3571POPC   C1B46579  29.568  28.096   6.188
 3571POPC   C2B46580  29.582  28.330   6.592
 3571POPC   C3B46581  29.468  28.494   7.001
 3571POPC   C4B46582  29.644  28.293   7.365
 3572POPC   NC346583  10.118   0.530   5.448
 3572POPC   PO446584  10.607   0.051   5.378
 3572POPC   GL146585  10.413   0.235   5.783
 3572POPC   GL246586  10.218   0.532   5.937
 3572POPC   C1A46587  10.537   0.195   6.222
 3572POPC   D2A46588  10.374   0.128   6.639
 3572POPC   C3A46589  10.570   0.267   7.017
 3572POPC   C4A46590  10.295   0.166   7.319
 3572POPC   C1B46591  10.499   0.685   6.242
 3572POPC   C2B46592  10.575   0.640   6.653
 3572POPC   C3B46593  10.365   0.758   7.023
 3572POPC   C4B46594  10.479   0.643   7.404
 3573POPC   NC346595   0.741   9.346   5.384
 3573POPC   PO446596   0.753  10.071   5.512
 3573POPC   GL146597   0.463   9.905   5.856
 3573POPC   GL246598   0.424   9.594   5.765
 3573POPC   C1A46599   0.044   9.736   6.079
 3573POPC   D2A46600  44.988   9.637   6.541
 3573POPC   C3A46601   0.289   9.875   6.825
 3573POPC   C4A46602   0.429   9.826   7.261
 3573POPC   C1B46603   0.403   9.433   6.212
 3573POPC   C2B46604   0.474   9.422   6.612
 3573POPC   C3B46605   0.360   9.399   7.011
 3573POPC   C4B46606   0.543   9.328   7.422
 3574POPC   NC346607   2.252  19.286   5.447
 3574POPC   PO446608   2.928  19.000   5.444
 3574POPC   GL146609   2.560  18.955   5.731
 3574POPC   GL246610   2.509  19.293   5.880
 3574POPC   C1A46611   2.534  18.840   6.153
 3574POPC   D2A46612   2.526  19.144   6.475
 3574POPC   C3A46613   2.759  19.011   6.827
 3574POPC   C4A46614   2.550  18.890   7.204
 3574POPC   C1B46615   2.862  19.398   6.131
 3574POPC   C2B46616   2.896  19.493   6.562
 3574POPC   C3B46617   2.755  19.489   6.989
 3574POPC   C4B46618   2.930  19.216   7.289
 3575POPC   NC346619  35.256  10.743   5.403
 3575POPC   PO446620  35.436  10.081   5.300
 3575POPC   GL146621  35.461  10.403   5.700
 3575POPC   GL246622  35.130  10.461   5.819
 3575POPC   C1A46623  35.460  10.450   6.196
 3575POPC   D2A46624  35.622  10.365   6.610
 3575POPC   C3A46625  35.377  10.454   6.963
 3575POPC   C4A46626  35.112  10.189   7.221
 3575POPC   C1B46627  35.004  10.714   6.137
 3575POPC   C2B46628  35.079  10.588   6.546
 3575POPC   C3B46629  34.868  10.545   6.931
 3575POPC   C4B46630  35.070  10.693   7.284
 3576POPC   NC346631  37.124  37.241   5.652
 3576POPC   PO446632  36.993  36.604   5.330
 3576POPC   GL146633  36.904  36.711   5.767
 3576POPC   GL246634  37.225  36.566   5.826
 3576POPC   C1A46635  36.890  36.862   6.208
 3576POPC   D2A46636  37.163  37.085   6.518
 3576POPC   C3A46637  37.193  36.986   6.979
 3576POPC   C4A46638  36.950  36.986   7.383
 3576POPC   C1B46639  37.102  36.401   6.218
 3576POPC   C2B46640  37.116  36.574   6.640
 3576POPC   C3B46641  36.885  36.587   7.028
 3576POPC   C4B46642  37.095  36.491   7.405
 3577POPC   NC346643  33.956  17.299   5.562
 3577POPC   PO446644  34.024  17.820   5.424
 3577POPC   GL146645  33.817  17.720   5.816
 3577POPC   GL246646  33.506  17.575   5.666
 3577POPC   C1A46647  33.926  17.572   6.275
 3577POPC   D2A46648  33.983  17.660   6.744
 3577POPC   C3A46649  34.008  17.321   7.050
 3577POPC   C4A46650  33.810  17.245   7.446
 3577POPC   C1B46651  33.424  17.538   6.147
 3577POPC   C2B46652  33.502  17.518   6.639
 3577POPC   C3B46653  33.573  17.607   7.122
 3577POPC   C4B46654  33.423  17.623   7.592
 3578POPC   NC346655  34.719   3.966   5.638
 3578POPC   PO446656  34.356   4.451   5.270
 3578POPC   GL146657  34.467   4.487   5.689
 3578POPC   GL246658  34.842   4.495   5.749
 3578POPC   C1A46659  34.351   4.336   6.101
 3578POPC   D2A46660  34.267   4.439   6.524
 3578POPC   C3A46661  34.464   4.335   6.888
 3578POPC   C4A46662  34.335   4.072   7.214
 3578POPC   C1B46663  34.867   4.371   6.200
 3578POPC   C2B46664  34.919   4.194   6.634
 3578POPC   C3B46665  34.950   4.396   7.050
 3578POPC   C4B46666  34.809   4.825   7.186
 3579POPC   NC346667  37.235   2.276   5.499
 3579POPC   PO446668  37.879   1.818   5.440
 3579POPC   GL146669  37.669   2.067   5.742
 3579POPC   GL246670  37.366   1.897   5.812
 3579POPC   C1A46671  37.740   2.167   6.176
 3579POPC   D2A46672  37.620   2.154   6.629
 3579POPC   C3A46673  37.977   2.183   6.897
 3579POPC   C4A46674  38.168   2.138   7.306
 3579POPC   C1B46675  37.405   1.778   6.228
 3579POPC   C2B46676  37.626   1.640   6.605
 3579POPC   C3B46677  37.762   1.742   7.020
 3579POPC   C4B46678  37.555   2.099   7.189
 3580POPC   NC346679  32.626   7.249   5.625
 3580POPC   PO446680  32.044   7.468   5.378
 3580POPC   GL146681  32.209   7.496   5.814
 3580POPC   GL246682  32.506   7.730   5.844
 3580POPC   C1A46683  32.215   7.628   6.267
 3580POPC   D2A46684  32.002   7.655   6.669
 3580POPC   C3A46685  32.231   7.500   7.043
 3580POPC   C4A46686  32.275   7.206   7.414
 3580POPC   C1B46687  32.722   7.737   6.260
 3580POPC   C2B46688  32.630   7.495   6.634
 3580POPC   C3B46689  32.700   7.699   7.031
 3580POPC   C4B46690  32.549   7.641   7.456
 3581POPC   NC346691  18.291  33.354   5.431
 3581POPC   PO446692  18.526  34.058   5.561
 3581POPC   GL146693  18.261  33.757   5.776
 3581POPC   GL246694  18.502  33.541   5.893
 3581POPC   C1A46695  18.083  33.596   6.193
 3581POPC   D2A46696  18.086  33.828   6.599
 3581POPC   C3A46697  18.012  33.645   6.982
 3581POPC   C4A46698  18.158  33.653   7.403
 3581POPC   C1B46699  18.480  33.907   6.229
 3581POPC   C2B46700  18.609  33.915   6.664
 3581POPC   C3B46701  18.461  33.971   7.082
 3581POPC   C4B46702  18.667  33.769   7.403
 3582POPC   NC346703   7.728  40.636   5.487
 3582POPC   PO446704   7.205  41.117   5.557
 3582POPC   GL146705   7.405  40.826   5.840
 3582POPC   GL246706   7.327  40.460   5.800
 3582POPC   C1A46707   7.525  40.897   6.253
 3582POPC   D2A46708   7.490  41.112   6.618
 3582POPC   C3A46709   7.503  40.927   7.019
 3582POPC   C4A46710   7.427  41.124   7.413
 3582POPC   C1B46711   7.659  40.420   6.151
 3582POPC   C2B46712   7.736  40.575   6.614
 3582POPC   C3B46713   7.872  40.575   7.059
 3582POPC   C4B46714   7.733  40.727   7.477
 3583POPC   NC346715  41.697  34.262   5.334
 3583POPC   PO446716  41.379  33.647   5.365
 3583POPC   GL146717  41.489  33.711   5.794
 3583POPC   GL246718  41.569  34.049   5.777
 3583POPC   C1A46719  41.711  33.590   6.189
 3583POPC   D2A46720  41.798  33.355   6.590
 3583POPC   C3A46721  41.709  33.626   6.951
 3583POPC   C4A46722  41.539  33.569   7.387
 3583POPC   C1B46723  41.400  34.107   6.146
 3583POPC   C2B46724  41.461  34.167   6.535
 3583POPC   C3B46725  41.328  34.029   6.899
 3583POPC   C4B46726  41.614  34.037   7.248
 3584POPC   NC346727  20.451  44.922   5.534
 3584POPC   PO446728  21.063  44.659   5.540
 3584POPC   GL146729  20.727  44.605   5.837
 3584POPC   GL246730  20.399  44.440   5.711
 3584POPC   C1A46731  20.626  44.774   6.238
 3584POPC   D2A46732  20.648   0.081   6.569
 3584POPC   C3A46733  20.814  44.819   6.864
 3584POPC   C4A46734  20.880  44.637   7.236
 3584POPC   C1B46735  20.156  44.562   6.086
 3584POPC   C2B46736  20.133  44.426   6.503
 3584POPC   C3B46737  20.302  44.651   6.836
 3584POPC   C4B46738  20.392  44.601   7.229
 3585POPC   NC346739  14.322  14.924   5.612
 3585POPC   PO446740  14.277  14.331   5.327
 3585POPC   GL146741  14.329  14.421   5.737
 3585POPC   GL246742  14.559  14.189   5.771
 3585POPC   C1A46743  14.218  14.427   6.169
 3585POPC   D2A46744  14.223  14.249   6.573
 3585POPC   C3A46745  14.398  14.474   6.904
 3585POPC   C4A46746  14.186  14.572   7.290
 3585POPC   C1B46747  14.769  14.195   6.144
 3585POPC   C2B46748  14.726  14.226   6.582
 3585POPC   C3B46749  14.572  14.013   6.969
 3585POPC   C4B46750  14.592  14.264   7.340
 3586POPC   NC346751  44.368  31.308   5.350
 3586POPC   PO446752   0.022  31.497   5.402
 3586POPC   GL146753  44.708  31.438   5.733
 3586POPC   GL246754  44.619  31.742   5.930
 3586POPC   C1A46755  44.586  31.238   6.099
 3586POPC   D2A46756  44.774  31.161   6.496
 3586POPC   C3A46757  44.646  31.434   6.829
 3586POPC   C4A46758  44.475  31.248   7.187
 3586POPC   C1B46759  44.661  31.686   6.361
 3586POPC   C2B46760  44.895  31.872   6.638
 3586POPC   C3B46761  44.974  31.777   7.028
 3586POPC   C4B46762  44.667  31.685   7.311
 3587POPC   NC346763  20.220  20.966   5.501
 3587POPC   PO446764  19.740  20.401   5.545
 3587POPC   GL146765  19.803  20.592   5.906
 3587POPC   GL246766  20.135  20.613   5.863
 3587POPC   C1A46767  19.752  20.862   6.246
 3587POPC   D2A46768  19.464  20.804   6.603
 3587POPC   C3A46769  19.637  20.587   6.955
 3587POPC   C4A46770  19.843  20.802   7.271
 3587POPC   C1B46771  20.221  20.426   6.213
 3587POPC   C2B46772  20.034  20.551   6.589
 3587POPC   C3B46773  20.110  20.283   6.926
 3587POPC   C4B46774  19.975  20.314   7.337
 3588POPC   NC346775  32.331  44.881   5.482
 3588POPC   PO446776  32.072   0.530   5.517
 3588POPC   GL146777  32.280   0.273   5.839
 3588POPC   GL246778  32.030   0.019   5.940
 3588POPC   C1A46779  32.496   0.454   6.217
 3588POPC   D2A46780  32.613   0.712   6.591
 3588POPC   C3A46781  32.618   0.509   7.015
 3588POPC   C4A46782  32.566   0.629   7.496
 3588POPC   C1B46783  31.997   0.367   6.249
 3588POPC   C2B46784  32.166   0.484   6.667
 3588POPC   C3B46785  32.153   0.332   7.079
 3588POPC   C4B46786  32.502   0.023   7.176
 3589POPC   NC346787  25.102  19.751   5.125
 3589POPC   PO446788  25.680  19.844   5.490
 3589POPC   GL146789  25.329  19.872   5.781
 3589POPC   GL246790  25.077  20.144   5.766
 3589POPC   C1A46791  25.398  19.863   6.223
 3589POPC   D2A46792  25.428  20.075   6.621
 3589POPC   C3A46793  25.461  19.764   6.923
 3589POPC   C4A46794  25.311  19.614   7.292
 3589POPC   C1B46795  24.937  20.093   6.200
 3589POPC   C2B46796  24.959  19.736   6.503
 3589POPC   C3B46797  24.906  19.707   6.943
 3589POPC   C4B46798  24.948  20.115   7.066
 3590POPC   NC346799  38.729  38.327   5.398
 3590POPC   PO446800  38.121  37.982   5.464
 3590POPC   GL146801  38.400  37.819   5.829
 3590POPC   GL246802  38.744  37.934   5.749
 3590POPC   C1A46803  38.530  37.570   6.239
 3590POPC   D2A46804  38.457  37.323   6.651
 3590POPC   C3A46805  38.164  37.480   6.958
 3590POPC   C4A46806  38.118  37.485   7.379
 3590POPC   C1B46807  38.700  38.069   6.182
 3590POPC   C2B46808  38.502  38.043   6.557
 3590POPC   C3B46809  38.559  37.824   6.956
 3590POPC   C4B46810  38.644  37.994   7.359
 3591POPC   NC346811  23.571  44.966   5.172
 3591POPC   PO446812  23.448   0.590   5.445
 3591POPC   GL146813  23.658   0.504   5.828
 3591POPC   GL246814  23.527   0.189   5.828
 3591POPC   C1A46815  23.867   0.637   6.232
 3591POPC   D2A46816  23.705   0.707   6.683
 3591POPC   C3A46817  23.996   0.604   7.010
 3591POPC   C4A46818  24.198   0.231   7.200
 3591POPC   C1B46819  23.747   0.136   6.224
 3591POPC   C2B46820  23.910   0.245   6.605
 3591POPC   C3B46821  23.631   0.252   6.934
 3591POPC   C4B46822  23.706   0.198   7.323
 3592POPC   NC346823  21.871  20.018   5.625
 3592POPC   PO446824  22.418  19.678   5.475
 3592POPC   GL146825  22.182  19.654   5.854
 3592POPC   GL246826  21.870  19.492   5.802
 3592POPC   C1A46827  22.085  19.893   6.246
 3592POPC   D2A46828  21.808  19.995   6.588
 3592POPC   C3A46829  22.020  19.933   6.964
 3592POPC   C4A46830  21.839  19.847   7.343
 3592POPC   C1B46831  21.848  19.408   6.224
 3592POPC   C2B46832  22.014  19.529   6.635
 3592POPC   C3B46833  21.868  19.419   7.053
 3592POPC   C4B46834  22.213  19.482   7.343
 3593POPC   NC346835  16.852  10.817   5.434
 3593POPC   PO446836  16.641  10.126   5.415
 3593POPC   GL146837  16.691  10.209   5.855
 3593POPC   GL246838  16.850  10.533   5.866
 3593POPC   C1A46839  16.904  10.203   6.260
 3593POPC   D2A46840  16.876  10.460   6.625
 3593POPC   C3A46841  16.831  10.340   7.010
 3593POPC   C4A46842  17.003  10.407   7.396
 3593POPC   C1B46843  16.616  10.686   6.249
 3593POPC   C2B46844  16.736  10.940   6.576
 3593POPC   C3B46845  16.658  10.919   6.996
 3593POPC   C4B46846  16.544  10.640   7.296
 3594POPC   NC346847   6.036  43.480   5.281
 3594POPC   PO446848   5.897  44.174   5.282
 3594POPC   GL146849   5.877  43.848   5.626
 3594POPC   GL246850   6.169  43.935   5.799
 3594POPC   C1A46851   5.808  43.776   6.107
 3594POPC   D2A46852   5.854  44.012   6.521
 3594POPC   C3A46853   5.715  43.897   6.950
 3594POPC   C4A46854   5.595  43.745   7.379
 3594POPC   C1B46855   6.323  43.953   6.229
 3594POPC   C2B46856   6.340  43.816   6.623
 3594POPC   C3B46857   6.178  43.539   6.898
 3594POPC   C4B46858   6.095  43.711   7.264
 3595POPC   NC346859  41.979   0.578   5.345
 3595POPC   PO446860  42.629   0.726   5.393
 3595POPC   GL146861  42.508   0.514   5.771
 3595POPC   GL246862  42.153   0.476   5.815
 3595POPC   C1A46863  42.539   0.305   6.152
 3595POPC   D2A46864  42.472   0.471   6.564
 3595POPC   C3A46865  42.355   0.255   6.919
 3595POPC   C4A46866  42.434   0.427   7.316
 3595POPC   C1B46867  42.073   0.527   6.257
 3595POPC   C2B46868  41.931   0.493   6.708
 3595POPC   C3B46869  41.993   0.641   7.170
 3595POPC   C4B46870  42.009   0.643   7.667
 3596POPC   NC346871  29.172  10.585   5.407
 3596POPC   PO446872  29.803  10.737   5.582
 3596POPC   GL146873  29.428  10.699   5.839
 3596POPC   GL246874  29.344  10.347   5.835
 3596POPC   C1A46875  29.214  10.589   6.250
 3596POPC   D2A46876  29.035  10.343   6.611
 3596POPC   C3A46877  28.950  10.560   7.000
 3596POPC   C4A46878  28.805  10.475   7.432
 3596POPC   C1B46879  29.296  10.086   6.215
 3596POPC   C2B46880  29.426  10.030   6.639
 3596POPC   C3B46881  29.433  10.369   6.926
 3596POPC   C4B46882  29.314  10.435   7.336
 3597POPC   NC346883  27.653   8.044   5.413
 3597POPC   PO446884  27.869   8.759   5.502
 3597POPC   GL146885  27.662   8.396   5.792
 3597POPC   GL246886  27.849   8.055   5.890
 3597POPC   C1A46887  27.383   8.293   6.150
 3597POPC   D2A46888  27.224   8.115   6.561
 3597POPC   C3A46889  27.249   8.269   6.964
 3597POPC   C4A46890  27.219   8.239   7.399
 3597POPC   C1B46891  27.755   7.988   6.334
 3597POPC   C2B46892  27.714   8.086   6.768
 3597POPC   C3B46893  27.672   8.092   7.197
 3597POPC   C4B46894  27.974   7.954   7.530
 3598POPC   NC346895   3.873  22.014   5.278
 3598POPC   PO446896   3.207  22.127   5.246
 3598POPC   GL146897   3.481  22.147   5.623
 3598POPC   GL246898   3.343  22.357   5.850
 3598POPC   C1A46899   3.616  21.996   6.073
 3598POPC   D2A46900   3.719  22.011   6.513
 3598POPC   C3A46901   3.591  21.845   6.915
 3598POPC   C4A46902   3.642  22.058   7.305
 3598POPC   C1B46903   3.529  22.463   6.250
 3598POPC   C2B46904   3.367  22.593   6.639
 3598POPC   C3B46905   3.533  22.452   7.004
 3598POPC   C4B46906   3.877  22.532   7.270
 3599POPC   NC346907   8.044  31.916   5.649
 3599POPC   PO446908   7.897  31.302   5.608
 3599POPC   GL146909   8.199  31.461   5.892
 3599POPC   GL246910   8.482  31.677   5.823
 3599POPC   C1A46911   8.339  31.318   6.267
 3599POPC   D2A46912   8.190  31.108   6.614
 3599POPC   C3A46913   8.369  31.260   6.950
 3599POPC   C4A46914   8.280  31.335   7.339
 3599POPC   C1B46915   8.408  31.817   6.242
 3599POPC   C2B46916   8.528  31.664   6.668
 3599POPC   C3B46917   8.323  31.774   7.068
 3599POPC   C4B46918   8.434  31.795   7.519
 3600POPC   NC346919  38.188   1.639   5.735
 3600POPC   PO446920  38.242   0.988   5.440
 3600POPC   GL146921  38.285   1.141   5.862
 3600POPC   GL246922  38.607   1.333   5.846
 3600POPC   C1A46923  38.348   1.343   6.296
 3600POPC   D2A46924  38.250   1.446   6.717
 3600POPC   C3A46925  38.454   1.211   7.066
 3600POPC   C4A46926  38.393   1.257   7.513
 3600POPC   C1B46927  38.849   1.478   6.224
 3600POPC   C2B46928  38.766   1.434   6.669
 3600POPC   C3B46929  38.764   1.644   7.066
 3600POPC   C4B46930  38.861   1.369   7.364
 3601POPC   NC346931   3.964   1.703   5.452
 3601POPC   PO446932   3.864   2.359   5.550
 3601POPC   GL146933   4.086   2.039   5.824
 3601POPC   GL246934   3.877   1.749   5.942
 3601POPC   C1A46935   4.197   1.971   6.264
 3601POPC   D2A46936   4.321   2.188   6.622
 3601POPC   C3A46937   4.299   2.016   7.026
 3601POPC   C4A46938   4.069   2.077   7.384
 3601POPC   C1B46939   3.944   1.512   6.315
 3601POPC   C2B46940   4.109   1.635   6.709
 3601POPC   C3B46941   3.927   1.672   7.121
 3601POPC   C4B46942   3.941   1.636   7.600
 3602POPC   NC346943  41.874  36.113   5.531
 3602POPC   PO446944  41.255  36.379   5.565
 3602POPC   GL146945  41.454  36.215   5.958
 3602POPC   GL246946  41.837  36.124   6.032
 3602POPC   C1A46947  41.432  35.954   6.337
 3602POPC   D2A46948  41.644  35.981   6.733
 3602POPC   C3A46949  41.574  35.790   7.133
 3602POPC   C4A46950  41.548  36.067   7.495
 3602POPC   C1B46951  41.768  36.406   6.370
 3602POPC   C2B46952  41.822  36.462   6.809
 3602POPC   C3B46953  41.932  36.161   7.141
 3602POPC   C4B46954  42.007  36.261   7.574
 3603POPC   NC346955   9.235  14.254   5.437
 3603POPC   PO446956   8.703  14.702   5.394
 3603POPC   GL146957   8.887  14.586   5.798
 3603POPC   GL246958   8.982  14.227   5.876
 3603POPC   C1A46959   8.741  14.541   6.233
 3603POPC   D2A46960   8.884  14.335   6.612
 3603POPC   C3A46961   8.894  14.544   6.985
 3603POPC   C4A46962   8.640  14.590   7.311
 3603POPC   C1B46963   9.329  14.171   6.170
 3603POPC   C2B46964   9.300  14.032   6.595
 3603POPC   C3B46965   9.300  14.207   6.984
 3603POPC   C4B46966   9.327  14.443   7.353
 3604POPC   NC346967  33.510  29.820   5.306
 3604POPC   PO446968  32.903  29.793   5.378
 3604POPC   GL146969  33.117  30.044   5.719
 3604POPC   GL246970  33.471  29.944   5.800
 3604POPC   C1A46971  33.160  30.151   6.176
 3604POPC   D2A46972  33.062  29.903   6.552
 3604POPC   C3A46973  33.031  30.078   6.956
 3604POPC   C4A46974  33.024  30.152   7.380
 3604POPC   C1B46975  33.392  29.699   6.153
 3604POPC   C2B46976  33.491  29.590   6.542
 3604POPC   C3B46977  33.279  29.469   6.864
 3604POPC   C4B46978  33.199  29.657   7.225
 3605POPC   NC346979  34.016  27.810   5.224
 3605POPC   PO446980  33.587  27.392   5.454
 3605POPC   GL146981  33.720  27.631   5.776
 3605POPC   GL246982  34.040  27.617   5.716
 3605POPC   C1A46983  33.716  27.647   6.245
 3605POPC   D2A46984  33.599  27.523   6.650
 3605POPC   C3A46985  33.763  27.759   6.990
 3605POPC   C4A46986  33.832  27.764   7.427
 3605POPC   C1B46987  34.119  27.382   6.068
 3605POPC   C2B46988  34.154  27.536   6.497
 3605POPC   C3B46989  34.025  27.335   6.878
 3605POPC   C4B46990  34.188  27.447   7.261
 3606POPC   NC346991  32.094   6.477   5.722
 3606POPC   PO446992  32.447   6.013   5.392
 3606POPC   GL146993  32.354   6.005   5.833
 3606POPC   GL246994  32.109   5.746   5.858
 3606POPC   C1A46995  32.344   5.879   6.293
 3606POPC   D2A46996  32.245   6.004   6.727
 3606POPC   C3A46997  32.386   5.800   7.115
 3606POPC   C4A46998  32.285   5.915   7.524
 3606POPC   C1B46999  31.800   5.767   6.225
 3606POPC   C2B47000  31.807   5.692   6.673
 3606POPC   C3B47001  31.878   5.875   7.094
 3606POPC   C4B47002  31.790   5.758   7.509
 3607POPC   NC347003  32.785   3.207   5.169
 3607POPC   PO447004  33.150   3.827   5.105
 3607POPC   GL147005  33.119   3.623   5.552
 3607POPC   GL247006  32.961   3.305   5.641
 3607POPC   C1A47007  33.068   3.680   6.029
 3607POPC   D2A47008  33.263   3.718   6.458
 3607POPC   C3A47009  33.079   3.638   6.876
 3607POPC   C4A47010  32.968   3.691   7.309
 3607POPC   C1B47011  32.778   3.254   6.068
 3607POPC   C2B47012  32.829   3.431   6.450
 3607POPC   C3B47013  32.650   3.362   6.821
 3607POPC   C4B47014  32.547   3.413   7.223
 3608POPC   NC347015  37.745  44.849   5.390
 3608POPC   PO447016  37.660  44.212   5.464
 3608POPC   GL147017  37.625  44.567   5.800
 3608POPC   GL247018  37.315  44.755   5.665
 3608POPC   C1A47019  37.760  44.612   6.275
 3608POPC   D2A47020  37.851  44.416   6.702
 3608POPC   C3A47021  37.687  44.550   7.101
 3608POPC   C4A47022  37.223  44.584   7.223
 3608POPC   C1B47023  37.267  44.837   6.122
 3608POPC   C2B47024  37.342  44.754   6.571
 3608POPC   C3B47025  37.441  44.949   6.945
 3608POPC   C4B47026  37.641   0.012   7.327
 3609POPC   NC347027   9.550  33.486   5.330
 3609POPC   PO447028   9.958  34.037   5.477
 3609POPC   GL147029   9.900  33.793   5.855
 3609POPC   GL247030  10.035  33.494   5.975
 3609POPC   C1A47031   9.888  33.795   6.333
 3609POPC   D2A47032  10.079  33.967   6.686
 3609POPC   C3A47033   9.774  33.993   7.005
 3609POPC   C4A47034   9.812  33.673   7.289
 3609POPC   C1B47035   9.549  33.483   6.072
 3609POPC   C2B47036   9.369  33.656   6.470
 3609POPC   C3B47037   9.481  33.589   6.890
 3609POPC   C4B47038   9.293  33.571   7.298
 3610POPC   NC347039  39.178  41.744   5.301
 3610POPC   PO447040  39.393  41.176   5.559
 3610POPC   GL147041  39.113  41.363   5.875
 3610POPC   GL247042  39.025  41.704   5.799
 3610POPC   C1A47043  39.140  41.344   6.330
 3610POPC   D2A47044  39.283  41.201   6.744
 3610POPC   C3A47045  39.245  41.450   7.112
 3610POPC   C4A47046  39.501  41.601   7.453
 3610POPC   C1B47047  39.071  41.838   6.244
 3610POPC   C2B47048  39.065  41.711   6.696
 3610POPC   C3B47049  39.034  41.915   7.113
 3610POPC   C4B47050  39.008  41.800   7.544
 3611POPC   NC347051   7.708  28.198   5.553
 3611POPC   PO447052   7.565  28.828   5.420
 3611POPC   GL147053   7.602  28.629   5.837
 3611POPC   GL247054   7.380  28.396   5.899
 3611POPC   C1A47055   7.458  28.632   6.320
 3611POPC   D2A47056   7.370  28.340   6.629
 3611POPC   C3A47057   7.483  28.494   6.959
 3611POPC   C4A47058   7.474  28.619   7.333
 3611POPC   C1B47059   7.534  28.132   6.202
 3611POPC   C2B47060   7.407  27.818   6.502
 3611POPC   C3B47061   7.397  27.931   6.933
 3611POPC   C4B47062   7.582  28.069   7.302
 3612POPC   NC347063   8.868  31.957   5.444
 3612POPC   PO447064   8.964  32.540   5.186
 3612POPC   GL147065   9.148  32.368   5.606
 3612POPC   GL247066   8.863  32.298   5.853
 3612POPC   C1A47067   9.306  32.369   6.068
 3612POPC   D2A47068   9.136  32.426   6.527
 3612POPC   C3A47069   9.251  32.218   6.961
 3612POPC   C4A47070   9.112  32.344   7.390
 3612POPC   C1B47071   8.900  32.058   6.232
 3612POPC   C2B47072   8.951  31.932   6.681
 3612POPC   C3B47073   8.803  32.014   7.164
 3612POPC   C4B47074   8.710  32.187   7.675
 3613POPC   NC347075  17.707  25.190   5.304
 3613POPC   PO447076  17.704  25.780   5.548
 3613POPC   GL147077  17.624  25.398   5.769
 3613POPC   GL247078  17.295  25.239   5.692
 3613POPC   C1A47079  17.625  25.371   6.198
 3613POPC   D2A47080  17.878  25.302   6.527
 3613POPC   C3A47081  17.715  25.296   6.892
 3613POPC   C4A47082  17.606  25.111   7.226
 3613POPC   C1B47083  17.154  25.203   6.141
 3613POPC   C2B47084  17.343  25.143   6.576
 3613POPC   C3B47085  17.192  25.262   6.982
 3613POPC   C4B47086  17.129  24.976   7.312
 3614POPC   NC347087  43.712  27.379   5.431
 3614POPC   PO447088  43.968  26.829   5.192
 3614POPC   GL147089  43.965  26.779   5.618
 3614POPC   GL247090  44.169  26.506   5.660
 3614POPC   C1A47091  43.882  26.921   6.038
 3614POPC   D2A47092  43.897  26.757   6.470
 3614POPC   C3A47093  43.839  27.013   6.837
 3614POPC   C4A47094  43.711  26.801   7.231
 3614POPC   C1B47095  44.245  26.527   6.124
 3614POPC   C2B47096  44.376  26.607   6.567
 3614POPC   C3B47097  44.158  26.625   6.972
 3614POPC   C4B47098  44.078  26.448   7.392
 3615POPC   NC347099  16.468  19.359   5.442
 3615POPC   PO447100  16.880  18.913   5.168
 3615POPC   GL147101  16.815  18.929   5.655
 3615POPC   GL247102  16.793  19.246   5.864
 3615POPC   C1A47103  16.726  18.787   6.100
 3615POPC   D2A47104  16.792  18.992   6.526
 3615POPC   C3A47105  16.644  18.837   6.949
 3615POPC   C4A47106  16.859  18.758   7.369
 3615POPC   C1B47107  16.394  19.180   6.120
 3615POPC   C2B47108  16.335  19.250   6.560
 3615POPC   C3B47109  16.618  19.359   6.918
 3615POPC   C4B47110  16.881  19.254   7.253
 3616POPC   NC347111  36.273  30.215   5.443
 3616POPC   PO447112  36.100  29.620   5.604
 3616POPC   GL147113  36.048  29.766   5.965
 3616POPC   GL247114  36.177  30.087   5.932
 3616POPC   C1A47115  35.832  29.704   6.347
 3616POPC   D2A47116  35.952  29.599   6.748
 3616POPC   C3A47117  35.830  29.879   7.079
 3616POPC   C4A47118  36.009  29.914   7.487
 3616POPC   C1B47119  36.324  29.963   6.314
 3616POPC   C2B47120  36.224  30.017   6.706
 3616POPC   C3B47121  36.350  29.796   7.038
 3616POPC   C4B47122  36.512  29.963   7.385
 3617POPC   NC347123   0.755  41.038   5.383
 3617POPC   PO447124   0.398  40.467   5.467
 3617POPC   GL147125   0.513  40.749   5.814
 3617POPC   GL247126   0.352  41.086   5.749
 3617POPC   C1A47127   0.532  40.685   6.278
 3617POPC   D2A47128   0.408  40.511   6.690
 3617POPC   C3A47129   0.672  40.503   7.055
 3617POPC   C4A47130   0.331  40.677   7.238
 3617POPC   C1B47131   0.384  41.210   6.197
 3617POPC   C2B47132   0.477  41.178   6.638
 3617POPC   C3B47133   0.783  40.970   6.894
 3617POPC   C4B47134   0.713  40.999   7.321
 3618POPC   NC347135  38.817  17.635   5.674
 3618POPC   PO447136  39.403  17.570   5.461
 3618POPC   GL147137  39.274  17.462   5.896
 3618POPC   GL247138  38.960  17.304   6.039
 3618POPC   C1A47139  39.363  17.468   6.339
 3618POPC   D2A47140  39.598  17.751   6.598
 3618POPC   C3A47141  39.519  17.677   7.024
 3618POPC   C4A47142  39.206  17.383   7.212
 3618POPC   C1B47143  38.893  17.716   6.276
 3618POPC   C2B47144  38.776  17.894   6.620
 3618POPC   C3B47145  39.026  17.764   6.907
 3618POPC   C4B47146  38.994  17.840   7.309
 3619POPC   NC347147  37.213  15.358   5.581
 3619POPC   PO447148  36.647  15.161   5.278
 3619POPC   GL147149  36.678  15.148   5.745
 3619POPC   GL247150  36.421  14.882   5.684
 3619POPC   C1A47151  36.943  15.213   6.168
 3619POPC   D2A47152  37.146  15.034   6.560
 3619POPC   C3A47153  37.112  15.261   6.940
 3619POPC   C4A47154  36.945  15.358   7.320
 3619POPC   C1B47155  36.471  14.751   6.104
 3619POPC   C2B47156  36.572  14.997   6.450
 3619POPC   C3B47157  36.678  14.977   6.860
 3619POPC   C4B47158  36.611  14.953   7.253
 3620POPC   NC347159  18.582  14.439   5.308
 3620POPC   PO447160  17.966  14.135   5.483
 3620POPC   GL147161  18.191  14.377   5.788
 3620POPC   GL247162  18.533  14.323   5.804
 3620POPC   C1A47163  18.198  14.298   6.224
 3620POPC   D2A47164  18.095  14.290   6.661
 3620POPC   C3A47165  18.165  14.629   6.972
 3620POPC   C4A47166  18.276  14.708   7.392
 3620POPC   C1B47167  18.645  14.530   6.187
 3620POPC   C2B47168  18.534  14.532   6.602
 3620POPC   C3B47169  18.522  14.218   6.937
 3620POPC   C4B47170  18.294  14.202   7.336
 3621POPC   NC347171  29.755  40.177   5.597
 3621POPC   PO447172  30.261  39.739   5.656
 3621POPC   GL147173  29.989  39.863   6.011
 3621POPC   GL247174  29.963  40.151   6.068
 3621POPC   C1A47175  29.880  39.882   6.482
 3621POPC   D2A47176  29.623  40.108   6.779
 3621POPC   C3A47177  29.791  40.071   7.181
 3621POPC   C4A47178  29.694  40.215   7.581
 3621POPC   C1B47179  30.233  40.378   6.359
 3621POPC   C2B47180  30.460  40.253   6.725
 3621POPC   C3B47181  30.244  40.367   7.107
 3621POPC   C4B47182  30.048  40.568   7.440
 3622POPC   NC347183   9.495  41.770   5.673
 3622POPC   PO447184   9.830  41.096   5.617
 3622POPC   GL147185   9.787  41.411   5.931
 3622POPC   GL247186   9.479  41.327   6.005
 3622POPC   C1A47187   9.727  41.685   6.303
 3622POPC   D2A47188   9.967  41.857   6.644
 3622POPC   C3A47189   9.742  41.882   7.025
 3622POPC   C4A47190  10.041  41.825   7.337
 3622POPC   C1B47191   9.420  41.279   6.443
 3622POPC   C2B47192   9.648  41.446   6.781
 3622POPC   C3B47193   9.731  41.409   7.202
 3622POPC   C4B47194   9.634  41.128   7.457
 3623POPC   NC347195   9.138  10.995   5.331
 3623POPC   PO447196   8.792  11.532   5.307
 3623POPC   GL147197   8.912  11.380   5.713
 3623POPC   GL247198   9.105  11.630   5.871
 3623POPC   C1A47199   8.889  11.134   6.109
 3623POPC   D2A47200   9.198  11.129   6.438
 3623POPC   C3A47201   9.153  11.230   6.881
 3623POPC   C4A47202   8.862  11.028   7.155
 3623POPC   C1B47203   8.850  11.623   6.264
 3623POPC   C2B47204   8.875  11.666   6.712
 3623POPC   C3B47205   8.829  11.548   7.145
 3623POPC   C4B47206   8.663  11.598   7.556
 3624POPC   NC347207  23.817   3.412   5.431
 3624POPC   PO447208  24.104   4.048   5.645
 3624POPC   GL147209  23.914   3.670   5.930
 3624POPC   GL247210  23.616   3.450   5.884
 3624POPC   C1A47211  23.635   3.738   6.291
 3624POPC   D2A47212  23.805   3.955   6.588
 3624POPC   C3A47213  23.996   3.785   6.947
 3624POPC   C4A47214  23.897   3.814   7.386
 3624POPC   C1B47215  23.786   3.255   6.259
 3624POPC   C2B47216  23.537   3.346   6.650
 3624POPC   C3B47217  23.582   3.477   7.077
 3624POPC   C4B47218  23.965   3.307   7.250
 3625POPC   NC347219  42.474  24.433   5.558
 3625POPC   PO447220  41.799  24.314   5.383
 3625POPC   GL147221  42.010  24.433   5.763
 3625POPC   GL247222  42.104  24.788   5.754
 3625POPC   C1A47223  42.187  24.313   6.169
 3625POPC   D2A47224  42.194  24.543   6.535
 3625POPC   C3A47225  42.179  24.496   6.936
 3625POPC   C4A47226  42.461  24.285   7.159
 3625POPC   C1B47227  42.372  24.825   6.156
 3625POPC   C2B47228  42.589  24.844   6.605
 3625POPC   C3B47229  42.590  24.798   7.069
 3625POPC   C4B47230  42.285  24.679   7.426
 3626POPC   NC347231  13.799  16.292   5.430
 3626POPC   PO447232  13.436  15.705   5.396
 3626POPC   GL147233  13.486  16.010   5.753
 3626POPC   GL247234  13.807  15.871   5.779
 3626POPC   C1A47235  13.679  16.255   6.141
 3626POPC   D2A47236  13.996  16.202   6.486
 3626POPC   C3A47237  13.830  16.220   6.921
 3626POPC   C4A47238  13.555  16.172   7.291
 3626POPC   C1B47239  13.646  15.762   6.193
 3626POPC   C2B47240  13.851  15.690   6.564
 3626POPC   C3B47241  13.696  15.723   6.949
 3626POPC   C4B47242  13.889  15.578   7.284
 3627POPC   NC347243  25.309   4.182   5.520
 3627POPC   PO447244  24.802   4.759   5.565
 3627POPC   GL147245  25.042   4.570   5.930
 3627POPC   GL247246  25.041   4.202   5.981
 3627POPC   C1A47247  25.155   4.520   6.404
 3627POPC   D2A47248  25.480   4.370   6.718
 3627POPC   C3A47249  25.361   4.222   7.136
 3627POPC   C4A47250  25.082   4.460   7.415
 3627POPC   C1B47251  24.823   4.118   6.385
 3627POPC   C2B47252  24.901   4.119   6.845
 3627POPC   C3B47253  24.913   3.988   7.297
 3627POPC   C4B47254  24.807   4.126   7.718
 3628POPC   NC347255  25.893  23.471   5.382
 3628POPC   PO447256  26.436  23.008   5.532
 3628POPC   GL147257  26.045  23.063   5.812
 3628POPC   GL247258  25.816  22.752   5.802
 3628POPC   C1A47259  25.980  23.243   6.265
 3628POPC   D2A47260  25.841  23.103   6.701
 3628POPC   C3A47261  26.111  23.083   7.057
 3628POPC   C4A47262  26.267  22.649   7.125
 3628POPC   C1B47263  25.974  22.731   6.240
 3628POPC   C2B47264  25.967  22.597   6.688
 3628POPC   C3B47265  25.731  22.713   7.064
 3628POPC   C4B47266  25.912  22.814   7.492
 3629POPC   NC347267  22.487  33.459   5.397
 3629POPC   PO447268  21.999  33.951   5.402
 3629POPC   GL147269  22.092  33.927   5.808
 3629POPC   GL247270  22.411  34.049   5.896
 3629POPC   C1A47271  22.029  33.733   6.191
 3629POPC   D2A47272  22.079  33.930   6.556
 3629POPC   C3A47273  22.235  33.707   6.860
 3629POPC   C4A47274  22.040  33.559   7.175
 3629POPC   C1B47275  22.531  33.781   6.224
 3629POPC   C2B47276  22.485  33.423   6.481
 3629POPC   C3B47277  22.556  33.294   6.910
 3629POPC   C4B47278  22.545  33.513   7.303
 3630POPC   NC347279  31.733  28.579   5.096
 3630POPC   PO447280  31.334  28.157   5.503
 3630POPC   GL147281  31.465  28.348   5.869
 3630POPC   GL247282  31.748  28.560   5.819
 3630POPC   C1A47283  31.303  28.526   6.240
 3630POPC   D2A47284  31.489  28.593   6.618
 3630POPC   C3A47285  31.242  28.511   6.946
 3630POPC   C4A47286  31.352  28.646   7.332
 3630POPC   C1B47287  31.795  28.360   6.262
 3630POPC   C2B47288  31.810  28.200   6.679
 3630POPC   C3B47289  31.728  28.388   7.073
 3630POPC   C4B47290  31.615  28.243   7.477
 3631POPC   NC347291  11.895  19.236   4.938
 3631POPC   PO447292  11.823  18.689   5.430
 3631POPC   GL147293  12.102  18.761   5.825
 3631POPC   GL247294  11.966  19.057   5.946
 3631POPC   C1A47295  12.353  18.829   6.225
 3631POPC   D2A47296  12.229  18.735   6.676
 3631POPC   C3A47297  11.840  18.852   6.913
 3631POPC   C4A47298  11.880  18.937   7.351
 3631POPC   C1B47299  11.894  19.000   6.346
 3631POPC   C2B47300  11.865  19.309   6.646
 3631POPC   C3B47301  12.016  19.340   7.057
 3631POPC   C4B47302  11.779  19.431   7.419
 3632POPC   NC347303  38.396  39.050   5.400
 3632POPC   PO447304  38.257  39.722   5.376
 3632POPC   GL147305  38.188  39.403   5.713
 3632POPC   GL247306  38.521  39.281   5.853
 3632POPC   C1A47307  38.151  39.407   6.171
 3632POPC   D2A47308  38.518  39.432   6.450
 3632POPC   C3A47309  38.555  39.501   6.904
 3632POPC   C4A47310  38.504  39.302   7.314
 3632POPC   C1B47311  38.466  38.973   6.219
 3632POPC   C2B47312  38.625  38.953   6.662
 3632POPC   C3B47313  38.518  38.834   7.104
 3632POPC   C4B47314  38.485  38.834   7.586
 3633POPC   NC347315  43.351  21.040   5.490
 3633POPC   PO447316  42.810  21.449   5.366
 3633POPC   GL147317  43.070  21.427   5.736
 3633POPC   GL247318  43.384  21.562   5.583
 3633POPC   C1A47319  43.158  21.165   6.145
 3633POPC   D2A47320  43.025  21.080   6.589
 3633POPC   C3A47321  43.169  21.256   7.009
 3633POPC   C4A47322  43.168  21.318   7.482
 3633POPC   C1B47323  43.464  21.546   6.043
 3633POPC   C2B47324  43.506  21.388   6.532
 3633POPC   C3B47325  43.506  21.624   6.965
 3633POPC   C4B47326  43.093  21.730   7.210
 3634POPC   NC347327   5.497  13.897   5.596
 3634POPC   PO447328   5.870  14.517   5.414
 3634POPC   GL147329   5.851  14.484   5.848
 3634POPC   GL247330   5.550  14.352   5.851
 3634POPC   C1A47331   6.096  14.451   6.247
 3634POPC   D2A47332   6.254  14.608   6.655
 3634POPC   C3A47333   6.044  14.379   6.984
 3634POPC   C4A47334   5.722  14.152   7.176
 3634POPC   C1B47335   5.535  14.550   6.287
 3634POPC   C2B47336   5.552  14.438   6.751
 3634POPC   C3B47337   5.473  14.590   7.187
 3634POPC   C4B47338   5.716  14.815   7.486
 3635POPC   NC347339   4.656  16.163   5.529
 3635POPC   PO447340   4.314  15.483   5.383
 3635POPC   GL147341   4.199  15.673   5.800
 3635POPC   GL247342   4.037  16.011   5.781
 3635POPC   C1A47343   4.107  15.718   6.256
 3635POPC   D2A47344   4.383  15.722   6.616
 3635POPC   C3A47345   4.260  15.790   7.052
 3635POPC   C4A47346   4.638  15.770   7.289
 3635POPC   C1B47347   4.208  16.224   6.161
 3635POPC   C2B47348   4.483  16.336   6.527
 3635POPC   C3B47349   4.621  16.158   6.920
 3635POPC   C4B47350   4.442  16.255   7.284
 3636POPC   NC347351  17.921  12.307   5.580
 3636POPC   PO447352  18.539  12.010   5.367
 3636POPC   GL147353  18.252  11.905   5.719
 3636POPC   GL247354  18.292  12.236   5.933
 3636POPC   C1A47355  18.199  11.806   6.159
 3636POPC   D2A47356  18.296  12.148   6.480
 3636POPC   C3A47357  18.237  12.056   6.906
 3636POPC   C4A47358  18.257  11.715   7.176
 3636POPC   C1B47359  18.042  12.530   6.212
 3636POPC   C2B47360  17.839  12.498   6.627
 3636POPC   C3B47361  18.030  12.518   7.037
 3636POPC   C4B47362  18.274  12.276   7.378
 3637POPC   NC347363  34.152   2.635   5.328
 3637POPC   PO447364  33.702   3.154   5.409
 3637POPC   GL147365  33.626   2.897   5.800
 3637POPC   GL247366  33.932   2.693   5.818
 3637POPC   C1A47367  33.713   2.842   6.267
 3637POPC   D2A47368  33.822   2.526   6.623
 3637POPC   C3A47369  33.609   2.598   7.006
 3637POPC   C4A47370  33.687   2.904   7.303
 3637POPC   C1B47371  34.111   2.517   6.204
 3637POPC   C2B47372  34.276   2.803   6.535
 3637POPC   C3B47373  34.126   2.900   6.958
 3637POPC   C4B47374  34.173   2.687   7.353
 3638POPC   NC347375   8.886  32.967   5.021
 3638POPC   PO447376   9.112  32.885   5.605
 3638POPC   GL147377   8.995  33.092   5.922
 3638POPC   GL247378   8.970  32.769   6.087
 3638POPC   C1A47379   9.128  33.233   6.296
 3638POPC   D2A47380   9.124  32.954   6.593
 3638POPC   C3A47381   9.218  33.163   6.955
 3638POPC   C4A47382   9.018  33.124   7.321
 3638POPC   C1B47383   8.638  32.574   6.259
 3638POPC   C2B47384   8.470  32.689   6.672
 3638POPC   C3B47385   8.719  32.662   7.077
 3638POPC   C4B47386   8.658  32.668   7.522
 3639POPC   NC347387  28.114  38.562   5.449
 3639POPC   PO447388  28.620  38.215   5.629
 3639POPC   GL147389  28.359  38.376   5.910
 3639POPC   GL247390  28.042  38.198   5.807
 3639POPC   C1A47391  28.569  38.448   6.309
 3639POPC   D2A47392  28.806  38.401   6.694
 3639POPC   C3A47393  28.517  38.465   7.012
 3639POPC   C4A47394  28.344  38.718   7.344
 3639POPC   C1B47395  27.971  38.308   6.236
 3639POPC   C2B47396  28.172  38.404   6.609
 3639POPC   C3B47397  28.096  38.190   6.982
 3639POPC   C4B47398  28.140  38.228   7.395
 3640POPC   NC347399   7.898   2.673   5.350
 3640POPC   PO447400   7.230   2.838   5.332
 3640POPC   GL147401   7.525   2.881   5.686
 3640POPC   GL247402   7.543   2.557   5.731
 3640POPC   C1A47403   7.669   3.026   6.109
 3640POPC   D2A47404   7.600   2.866   6.517
 3640POPC   C3A47405   7.665   3.068   6.926
 3640POPC   C4A47406   7.538   3.014   7.370
 3640POPC   C1B47407   7.654   2.494   6.148
 3640POPC   C2B47408   7.768   2.391   6.559
 3640POPC   C3B47409   7.623   2.553   6.928
 3640POPC   C4B47410   7.558   2.486   7.327
 3641POPC   NC347411  23.727  22.512   5.648
 3641POPC   PO447412  23.642  23.160   5.361
 3641POPC   GL147413  23.693  23.126   5.811
 3641POPC   GL247414  23.350  23.181   5.989
 3641POPC   C1A47415  23.773  23.135   6.266
 3641POPC   D2A47416  23.381  23.338   6.520
 3641POPC   C3A47417  23.435  23.359   6.989
 3641POPC   C4A47418  23.764  23.220   7.311
 3641POPC   C1B47419  23.371  22.858   6.347
 3641POPC   C2B47420  23.624  22.938   6.724
 3641POPC   C3B47421  23.437  22.862   7.096
 3641POPC   C4B47422  23.320  22.529   7.343
 3642POPC   NC347423   0.608  30.566   5.523
 3642POPC   PO447424   0.611  29.862   5.609
 3642POPC   GL147425   0.437  29.781   5.989
 3642POPC   GL247426   0.217  29.482   5.862
 3642POPC   C1A47427   0.283  30.071   6.343
 3642POPC   D2A47428   0.460  30.281   6.719
 3642POPC   C3A47429   0.366  30.256   7.122
 3642POPC   C4A47430   0.614  29.960   7.261
 3642POPC   C1B47431   0.004  29.662   6.206
 3642POPC   C2B47432   0.113  29.665   6.612
 3642POPC   C3B47433   0.158  29.708   7.013
 3642POPC   C4B47434   0.416  29.497   7.320
 3643POPC   NC347435  28.033  28.666   5.630
 3643POPC   PO447436  28.262  28.064   5.422
 3643POPC   GL147437  28.382  28.310   5.854
 3643POPC   GL247438  28.470  28.589   5.949
 3643POPC   C1A47439  28.484  28.288   6.332
 3643POPC   D2A47440  28.321  28.051   6.646
 3643POPC   C3A47441  28.319  28.251   7.004
 3643POPC   C4A47442  28.204  28.342   7.396
 3643POPC   C1B47443  28.084  28.604   6.236
 3643POPC   C2B47444  28.034  28.521   6.625
 3643POPC   C3B47445  28.033  28.664   7.005
 3643POPC   C4B47446  28.007  28.957   7.276
 3644POPC   NC347447   9.687  26.527   5.521
 3644POPC   PO447448  10.057  25.970   5.463
 3644POPC   GL147449   9.886  25.856   5.838
 3644POPC   GL247450   9.657  26.145   5.894
 3644POPC   C1A47451   9.786  25.798   6.286
 3644POPC   D2A47452   9.895  26.109   6.606
 3644POPC   C3A47453   9.807  26.045   6.991
 3644POPC   C4A47454   9.862  25.652   7.184
 3644POPC   C1B47455   9.445  26.174   6.318
 3644POPC   C2B47456   9.404  25.834   6.687
 3644POPC   C3B47457   9.378  25.833   7.180
 3644POPC   C4B47458   9.397  26.123   7.571
 3645POPC   NC347459  30.805  24.728   5.585
 3645POPC   PO447460  30.342  24.248   5.363
 3645POPC   GL147461  30.557  24.221   5.782
 3645POPC   GL247462  30.931  24.215   5.803
 3645POPC   C1A47463  30.505  24.331   6.221
 3645POPC   D2A47464  30.650  24.642   6.581
 3645POPC   C3A47465  30.506  24.479   7.014
 3645POPC   C4A47466  30.538  24.618   7.453
 3645POPC   C1B47467  31.003  24.317   6.251
 3645POPC   C2B47468  30.821  24.180   6.654
 3645POPC   C3B47469  30.984  24.327   7.055
 3645POPC   C4B47470  31.007  24.387   7.495
 3646POPC   NC347471  38.347  18.417   5.286
 3646POPC   PO447472  38.516  19.031   5.472
 3646POPC   GL147473  38.567  18.943   5.875
 3646POPC   GL247474  38.807  19.239   5.887
 3646POPC   C1A47475  38.734  18.746   6.232
 3646POPC   D2A47476  38.529  18.857   6.621
 3646POPC   C3A47477  38.740  18.771   7.015
 3646POPC   C4A47478  38.405  18.807   7.279
 3646POPC   C1B47479  38.657  19.240   6.282
 3646POPC   C2B47480  38.453  19.396   6.607
 3646POPC   C3B47481  38.496  19.251   6.976
 3646POPC   C4B47482  38.406  19.486   7.304
 3647POPC   NC347483   1.229   1.393   5.357
 3647POPC   PO447484   1.366   0.733   5.425
 3647POPC   GL147485   1.228   0.864   5.838
 3647POPC   GL247486   1.113   1.188   5.824
 3647POPC   C1A47487   1.047   0.931   6.274
 3647POPC   D2A47488   1.072   0.958   6.742
 3647POPC   C3A47489   1.461   1.164   6.904
 3647POPC   C4A47490   1.518   1.349   7.299
 3647POPC   C1B47491   1.093   1.444   6.204
 3647POPC   C2B47492   0.908   1.525   6.575
 3647POPC   C3B47493   1.025   1.447   6.997
 3647POPC   C4B47494   1.044   1.142   7.265
 3648POPC   NC347495  34.313  21.259   5.507
 3648POPC   PO447496  34.933  21.421   5.602
 3648POPC   GL147497  34.614  21.337   5.906
 3648POPC   GL247498  34.365  21.631   5.864
 3648POPC   C1A47499  34.520  21.084   6.279
 3648POPC   D2A47500  34.779  21.078   6.640
 3648POPC   C3A47501  34.684  21.330   7.009
 3648POPC   C4A47502  34.741  21.184   7.446
 3648POPC   C1B47503  34.426  21.574   6.305
 3648POPC   C2B47504  34.241  21.387   6.666
 3648POPC   C3B47505  34.190  21.614   7.062
 3648POPC   C4B47506  34.427  21.581   7.401
 3649POPC   NC347507  15.461  43.349   5.406
 3649POPC   PO447508  14.796  42.975   5.568
 3649POPC   GL147509  15.000  43.269   5.864
 3649POPC   GL247510  15.183  42.968   5.973
 3649POPC   C1A47511  15.161  43.321   6.325
 3649POPC   D2A47512  15.105  43.277   6.775
 3649POPC   C3A47513  15.305  43.058   7.065
 3649POPC   C4A47514  15.028  43.226   7.374
 3649POPC   C1B47515  14.762  42.992   6.239
 3649POPC   C2B47516  14.634  42.901   6.671
 3649POPC   C3B47517  14.863  42.825   7.057
 3649POPC   C4B47518  14.930  42.762   7.505
 3650POPC   NC347519   1.660   5.267   5.517
 3650POPC   PO447520   2.180   4.982   5.348
 3650POPC   GL147521   2.037   5.012   5.768
 3650POPC   GL247522   1.776   4.764   5.772
 3650POPC   C1A47523   2.060   5.137   6.206
 3650POPC   D2A47524   2.244   5.101   6.613
 3650POPC   C3A47525   2.033   5.196   6.974
 3650POPC   C4A47526   2.303   5.128   7.281
 3650POPC   C1B47527   1.644   4.760   6.200
 3650POPC   C2B47528   1.777   4.881   6.596
 3650POPC   C3B47529   1.641   4.851   6.987
 3650POPC   C4B47530   1.548   5.190   7.181
 3651POPC   NC347531  23.463   4.966   5.537
 3651POPC   PO447532  23.713   5.579   5.693
 3651POPC   GL147533  24.011   5.344   5.846
 3651POPC   GL247534  23.862   5.016   5.862
 3651POPC   C1A47535  23.921   5.339   6.270
 3651POPC   D2A47536  23.648   5.281   6.587
 3651POPC   C3A47537  23.836   5.256   6.973
 3651POPC   C4A47538  23.573   4.998   7.239
 3651POPC   C1B47539  23.659   4.873   6.245
 3651POPC   C2B47540  23.789   4.794   6.682
 3651POPC   C3B47541  24.013   4.777   7.106
 3651POPC   C4B47542  24.108   4.666   7.554
 3652POPC   NC347543   0.050  14.071   5.757
 3652POPC   PO447544  44.686  13.693   5.375
 3652POPC   GL147545  44.697  13.670   5.786
 3652POPC   GL247546  44.544  13.986   5.864
 3652POPC   C1A47547  44.593  13.528   6.197
 3652POPC   D2A47548  44.682  13.586   6.631
 3652POPC   C3A47549  44.428  13.835   6.905
 3652POPC   C4A47550  44.287  13.641   7.280
 3652POPC   C1B47551  44.675  14.085   6.299
 3652POPC   C2B47552  44.873  14.060   6.702
 3652POPC   C3B47553  44.916  13.887   7.141
 3652POPC   C4B47554   0.167  13.953   7.547
 3653POPC   NC347555   9.483  23.568   5.596
 3653POPC   PO447556  10.058  23.234   5.464
 3653POPC   GL147557   9.871  23.361   5.873
 3653POPC   GL247558   9.788  23.776   5.936
 3653POPC   C1A47559   9.986  23.464   6.291
 3653POPC   D2A47560   9.875  23.660   6.676
 3653POPC   C3A47561  10.026  23.524   7.043
 3653POPC   C4A47562   9.929  23.770   7.353
 3653POPC   C1B47563   9.513  23.691   6.298
 3653POPC   C2B47564   9.472  23.358   6.623
 3653POPC   C3B47565   9.468  23.513   7.044
 3653POPC   C4B47566   9.516  23.949   7.078
 3654POPC   NC347567  23.196  23.133   5.496
 3654POPC   PO447568  22.661  22.868   5.185
 3654POPC   GL147569  22.795  22.826   5.687
 3654POPC   GL247570  22.846  23.156   5.849
 3654POPC   C1A47571  22.885  22.787   6.194
 3654POPC   D2A47572  23.008  22.563   6.569
 3654POPC   C3A47573  22.952  22.767   6.978
 3654POPC   C4A47574  23.015  23.088   7.324
 3654POPC   C1B47575  22.740  23.283   6.233
 3654POPC   C2B47576  22.904  23.125   6.596
 3654POPC   C3B47577  22.688  23.225   6.928
 3654POPC   C4B47578  22.563  23.349   7.299
 3655POPC   NC347579  30.331   5.007   5.430
 3655POPC   PO447580  29.650   4.953   5.622
 3655POPC   GL147581  29.762   5.067   5.984
 3655POPC   GL247582  30.101   4.963   5.903
 3655POPC   C1A47583  29.690   5.266   6.368
 3655POPC   D2A47584  29.914   5.268   6.752
 3655POPC   C3A47585  29.603   5.188   7.066
 3655POPC   C4A47586  29.493   5.155   7.498
 3655POPC   C1B47587  30.173   5.126   6.302
 3655POPC   C2B47588  30.265   4.872   6.679
 3655POPC   C3B47589  30.170   4.713   7.059
 3655POPC   C4B47590  29.968   4.958   7.350
 3656POPC   NC347591  34.666  42.038   5.468
 3656POPC   PO447592  34.421  42.666   5.678
 3656POPC   GL147593  34.552  42.318   5.882
 3656POPC   GL247594  34.335  42.047   5.876
 3656POPC   C1A47595  34.660  42.342   6.297
 3656POPC   D2A47596  34.476  42.578   6.623
 3656POPC   C3A47597  34.680  42.426   6.979
 3656POPC   C4A47598  34.429  42.420   7.280
 3656POPC   C1B47599  34.423  41.910   6.283
 3656POPC   C2B47600  34.426  42.065   6.717
 3656POPC   C3B47601  34.333  41.934   7.147
 3656POPC   C4B47602  34.493  42.007   7.568
 3657POPC   NC347603   6.756  33.327   5.054
 3657POPC   PO447604   6.880  33.906   5.400
 3657POPC   GL147605   6.672  33.856   5.806
 3657POPC   GL247606   6.854  33.629   6.047
 3657POPC   C1A47607   6.423  33.851   6.191
 3657POPC   D2A47608   6.257  33.967   6.600
 3657POPC   C3A47609   6.416  33.865   7.023
 3657POPC   C4A47610   6.612  34.264   7.138
 3657POPC   C1B47611   6.830  33.718   6.469
 3657POPC   C2B47612   6.819  34.013   6.748
 3657POPC   C3B47613   6.913  33.840   7.142
 3657POPC   C4B47614   6.733  33.502   7.301
 3658POPC   NC347615  26.013  10.880   5.385
 3658POPC   PO447616  25.929  10.289   5.440
 3658POPC   GL147617  26.181  10.416   5.794
 3658POPC   GL247618  26.337  10.742   5.757
 3658POPC   C1A47619  26.109  10.492   6.264
 3658POPC   D2A47620  25.996  10.662   6.696
 3658POPC   C3A47621  25.898  10.386   7.071
 3658POPC   C4A47622  25.686  10.530   7.452
 3658POPC   C1B47623  26.358  10.949   6.138
 3658POPC   C2B47624  26.467  10.778   6.514
 3658POPC   C3B47625  26.460  10.592   6.883
 3658POPC   C4B47626  26.251  10.736   7.203
 3659POPC   NC347627  24.693  28.902   5.233
 3659POPC   PO447628  24.670  29.580   5.321
 3659POPC   GL147629  24.588  29.252   5.638
 3659POPC   GL247630  24.245  29.261   5.751
 3659POPC   C1A47631  24.623  29.227   6.129
 3659POPC   D2A47632  24.449  29.213   6.559
 3659POPC   C3A47633  24.623  29.292   6.941
 3659POPC   C4A47634  25.003  29.271   7.149
 3659POPC   C1B47635  24.097  29.178   6.185
 3659POPC   C2B47636  24.024  28.959   6.640
 3659POPC   C3B47637  24.226  28.974   7.051
 3659POPC   C4B47638  24.290  29.336   7.330
 3660POPC   NC347639  24.953  31.654   5.123
 3660POPC   PO447640  25.480  31.233   5.245
 3660POPC   GL147641  25.197  31.299   5.604
 3660POPC   GL247642  25.008  31.613   5.667
 3660POPC   C1A47643  25.212  31.350   6.076
 3660POPC   D2A47644  25.102  31.482   6.508
 3660POPC   C3A47645  25.399  31.453   6.873
 3660POPC   C4A47646  25.307  31.308   7.282
 3660POPC   C1B47647  24.970  31.803   6.101
 3660POPC   C2B47648  24.886  31.938   6.532
 3660POPC   C3B47649  24.996  31.748   6.961
 3660POPC   C4B47650  25.194  31.811   7.398
 3661POPC   NC347651   1.719  14.418   5.394
 3661POPC   PO447652   2.285  14.075   5.441
 3661POPC   GL147653   2.230  14.453   5.685
 3661POPC   GL247654   1.899  14.483   5.876
 3661POPC   C1A47655   2.315  14.656   6.078
 3661POPC   D2A47656   2.015  14.596   6.409
 3661POPC   C3A47657   2.089  14.732   6.846
 3661POPC   C4A47658   1.915  14.781   7.263
 3661POPC   C1B47659   2.174  14.179   6.146
 3661POPC   C2B47660   2.215  14.165   6.602
 3661POPC   C3B47661   2.416  14.122   7.021
 3661POPC   C4B47662   2.226  14.067   7.430
 3662POPC   NC347663  28.235   5.357   5.468
 3662POPC   PO447664  28.198   4.771   5.743
 3662POPC   GL147665  28.437   5.107   5.895
 3662POPC   GL247666  28.161   5.219   6.033
 3662POPC   C1A47667  28.612   5.319   6.262
 3662POPC   D2A47668  28.433   5.318   6.677
 3662POPC   C3A47669  28.595   4.998   6.945
 3662POPC   C4A47670  28.517   5.024   7.380
 3662POPC   C1B47671  28.351   4.892   6.357
 3662POPC   C2B47672  28.217   4.731   6.733
 3662POPC   C3B47673  28.091   4.951   7.094
 3662POPC   C4B47674  28.026   5.405   7.089
 3663POPC   NC347675  36.249  15.421   5.301
 3663POPC   PO447676  35.664  15.012   5.372
 3663POPC   GL147677  36.006  15.185   5.701
 3663POPC   GL247678  36.289  15.478   5.810
 3663POPC   C1A47679  36.139  15.137   6.137
 3663POPC   D2A47680  35.955  15.302   6.487
 3663POPC   C3A47681  36.181  15.132   6.820
 3663POPC   C4A47682  36.114  14.878   7.176
 3663POPC   C1B47683  36.510  15.489   6.253
 3663POPC   C2B47684  36.680  15.444   6.700
 3663POPC   C3B47685  36.478  15.415   7.118
 3663POPC   C4B47686  36.504  15.345   7.600
 3664POPC   NC347687  19.103  13.690   5.209
 3664POPC   PO447688  19.050  14.409   5.284
 3664POPC   GL147689  19.058  14.427   5.706
 3664POPC   GL247690  18.870  14.709   5.783
 3664POPC   C1A47691  19.139  14.206   6.089
 3664POPC   D2A47692  19.312  14.024   6.471
 3664POPC   C3A47693  19.050  14.092   6.835
 3664POPC   C4A47694  19.258  14.088   7.218
 3664POPC   C1B47695  19.120  14.722   6.153
 3664POPC   C2B47696  19.062  14.505   6.529
 3664POPC   C3B47697  18.909  14.604   6.943
 3664POPC   C4B47698  18.733  14.491   7.327
 3665POPC   NC347699  35.485  34.199   5.403
 3665POPC   PO447700  35.227  33.530   5.313
 3665POPC   GL147701  35.318  33.787   5.694
 3665POPC   GL247702  35.072  33.677   5.942
 3665POPC   C1A47703  35.569  33.759   6.083
 3665POPC   D2A47704  35.690  33.795   6.506
 3665POPC   C3A47705  35.455  33.777   6.906
 3665POPC   C4A47706  35.733  33.850   7.283
 3665POPC   C1B47707  35.141  33.704   6.403
 3665POPC   C2B47708  35.050  33.442   6.748
 3665POPC   C3B47709  35.061  33.557   7.185
 3665POPC   C4B47710  34.885  33.657   7.593
 3666POPC   NC347711  33.019  37.425   5.363
 3666POPC   PO447712  32.720  38.020   5.155
 3666POPC   GL147713  33.027  37.880   5.622
 3666POPC   GL247714  32.850  37.556   5.827
 3666POPC   C1A47715  33.114  37.872   6.122
 3666POPC   D2A47716  33.177  37.593   6.528
 3666POPC   C3A47717  33.113  37.769   6.959
 3666POPC   C4A47718  33.125  38.129   7.268
 3666POPC   C1B47719  32.747  37.409   6.269
 3666POPC   C2B47720  32.662  37.518   6.741
 3666POPC   C3B47721  32.677  37.450   7.210
 3666POPC   C4B47722  32.828  37.171   7.586
 3667POPC   NC347723  11.373  25.880   5.411
 3667POPC   PO447724  10.955  26.422   5.486
 3667POPC   GL147725  11.132  26.134   5.807
 3667POPC   GL247726  11.034  25.750   5.817
 3667POPC   C1A47727  11.282  26.185   6.238
 3667POPC   D2A47728  11.611  26.225   6.552
 3667POPC   C3A47729  11.442  26.241   6.940
 3667POPC   C4A47730  11.251  26.027   7.257
 3667POPC   C1B47731  11.136  25.707   6.254
 3667POPC   C2B47732  11.173  25.874   6.681
 3667POPC   C3B47733  11.045  25.637   7.016
 3667POPC   C4B47734  11.246  25.454   7.343
 3668POPC   NC347735   0.617  19.452   5.427
 3668POPC   PO447736   0.957  19.998   5.409
 3668POPC   GL147737   0.646  19.896   5.732
 3668POPC   GL247738   0.820  20.194   5.866
 3668POPC   C1A47739   0.442  19.618   6.063
 3668POPC   D2A47740   0.312  19.484   6.521
 3668POPC   C3A47741   0.331  19.793   6.837
 3668POPC   C4A47742   0.443  19.833   7.250
 3668POPC   C1B47743   0.786  19.955   6.218
 3668POPC   C2B47744   0.767  19.717   6.556
 3668POPC   C3B47745   0.820  19.877   6.930
 3668POPC   C4B47746   0.893  20.064   7.311
 3669POPC   NC347747  38.435  36.681   5.277
 3669POPC   PO447748  38.930  36.318   5.470
 3669POPC   GL147749  38.588  36.199   5.768
 3669POPC   GL247750  38.302  36.398   5.732
 3669POPC   C1A47751  38.599  36.116   6.229
 3669POPC   D2A47752  38.669  35.916   6.627
 3669POPC   C3A47753  38.761  36.168   6.999
 3669POPC   C4A47754  38.608  35.911   7.320
 3669POPC   C1B47755  38.169  36.396   6.190
 3669POPC   C2B47756  38.383  36.432   6.612
 3669POPC   C3B47757  38.370  36.507   7.083
 3669POPC   C4B47758  38.302  36.618   7.533
 3670POPC   NC347759  42.865  31.217   5.393
 3670POPC   PO447760  43.287  31.763   5.339
 3670POPC   GL147761  43.320  31.575   5.743
 3670POPC   GL247762  42.957  31.541   5.795
 3670POPC   C1A47763  43.278  31.696   6.186
 3670POPC   D2A47764  43.224  31.483   6.564
 3670POPC   C3A47765  43.210  31.623   6.978
 3670POPC   C4A47766  43.215  31.310   7.316
 3670POPC   C1B47767  42.786  31.494   6.216
 3670POPC   C2B47768  42.717  31.345   6.641
 3670POPC   C3B47769  42.764  31.407   7.083
 3670POPC   C4B47770  42.763  31.361   7.527
 3671POPC   NC347771  31.818   3.060   5.380
 3671POPC   PO447772  31.684   3.716   5.621
 3671POPC   GL147773  31.431   3.565   5.955
 3671POPC   GL247774  31.144   3.754   6.039
 3671POPC   C1A47775  31.471   3.588   6.406
 3671POPC   D2A47776  31.458   3.219   6.653
 3671POPC   C3A47777  31.670   3.315   6.970
 3671POPC   C4A47778  31.576   3.305   7.330
 3671POPC   C1B47779  31.176   4.035   6.354
 3671POPC   C2B47780  31.449   4.024   6.705
 3671POPC   C3B47781  31.343   3.705   6.964
 3671POPC   C4B47782  30.971   3.733   7.175
 3672POPC   NC347783  23.484   7.401   5.281
 3672POPC   PO447784  24.083   7.466   5.488
 3672POPC   GL147785  23.862   7.370   5.849
 3672POPC   GL247786  23.572   7.186   5.745
 3672POPC   C1A47787  23.745   7.554   6.266
 3672POPC   D2A47788  23.972   7.644   6.687
 3672POPC   C3A47789  23.706   7.805   7.039
 3672POPC   C4A47790  23.382   7.825   7.396
 3672POPC   C1B47791  23.697   7.019   6.178
 3672POPC   C2B47792  23.768   7.152   6.597
 3672POPC   C3B47793  23.741   7.309   7.020
 3672POPC   C4B47794  23.536   7.332   7.446
 3673POPC   NC347795  27.083   4.567   5.306
 3673POPC   PO447796  26.599   4.113   5.485
 3673POPC   GL147797  26.806   4.378   5.853
 3673POPC   GL247798  27.173   4.482   5.830
 3673POPC   C1A47799  26.790   4.400   6.358
 3673POPC   D2A47800  26.559   4.510   6.787
 3673POPC   C3A47801  26.584   4.172   7.115
 3673POPC   C4A47802  26.868   4.104   7.479
 3673POPC   C1B47803  27.201   4.120   6.150
 3673POPC   C2B47804  27.152   4.048   6.604
 3673POPC   C3B47805  27.044   4.314   6.950
 3673POPC   C4B47806  27.272   4.379   7.348
 3674POPC   NC347807   3.112  27.241   5.502
 3674POPC   PO447808   2.795  27.800   5.278
 3674POPC   GL147809   2.742  27.699   5.721
 3674POPC   GL247810   3.094  27.617   5.835
 3674POPC   C1A47811   2.620  27.582   6.160
 3674POPC   D2A47812   2.678  27.603   6.616
 3674POPC   C3A47813   2.448  27.356   6.941
 3674POPC   C4A47814   2.601  27.377   7.369
 3674POPC   C1B47815   3.094  27.715   6.265
 3674POPC   C2B47816   3.229  27.528   6.646
 3674POPC   C3B47817   3.010  27.461   7.025
 3674POPC   C4B47818   3.010  27.667   7.416
 3675POPC   NC347819  37.106  12.159   5.442
 3675POPC   PO447820  36.430  12.006   5.346
 3675POPC   GL147821  36.715  12.079   5.746
 3675POPC   GL247822  36.889  11.776   5.801
 3675POPC   C1A47823  36.849  12.213   6.193
 3675POPC   D2A47824  36.664  12.325   6.635
 3675POPC   C3A47825  36.749  12.110   7.046
 3675POPC   C4A47826  36.487  12.084   7.437
 3675POPC   C1B47827  37.076  11.746   6.201
 3675POPC   C2B47828  37.081  11.966   6.599
 3675POPC   C3B47829  37.178  11.798   6.996
 3675POPC   C4B47830  37.184  11.892   7.467
 3676POPC   NC347831  27.442  18.745   5.380
 3676POPC   PO447832  27.489  19.374   5.324
 3676POPC   GL147833  27.565  19.107   5.747
 3676POPC   GL247834  27.307  18.874   5.863
 3676POPC   C1A47835  27.808  18.964   6.164
 3676POPC   D2A47836  27.749  19.120   6.590
 3676POPC   C3A47837  28.011  18.999   6.972
 3676POPC   C4A47838  27.910  19.140   7.364
 3676POPC   C1B47839  27.331  19.011   6.295
 3676POPC   C2B47840  27.248  18.946   6.706
 3676POPC   C3B47841  27.501  19.002   7.059
 3676POPC   C4B47842  27.416  18.968   7.486
 3677POPC   NC347843  10.446  31.734   5.590
 3677POPC   PO447844  10.786  31.270   5.240
 3677POPC   GL147845  10.806  31.453   5.721
 3677POPC   GL247846  10.495  31.305   5.855
 3677POPC   C1A47847  10.863  31.482   6.161
 3677POPC   D2A47848  10.709  31.469   6.579
 3677POPC   C3A47849  10.498  31.713   6.874
 3677POPC   C4A47850  10.747  31.686   7.223
 3677POPC   C1B47851  10.346  31.540   6.207
 3677POPC   C2B47852  10.201  31.360   6.569
 3677POPC   C3B47853  10.049  31.273   6.944
 3677POPC   C4B47854  10.110  31.564   7.267
 3678POPC   NC347855  25.888  11.651   5.437
 3678POPC   PO447856  26.375  11.182   5.497
 3678POPC   GL147857  26.219  11.470   5.803
 3678POPC   GL247858  25.974  11.221   5.853
 3678POPC   C1A47859  26.225  11.444   6.259
 3678POPC   D2A47860  26.189  11.184   6.634
 3678POPC   C3A47861  26.205  11.361   7.039
 3678POPC   C4A47862  26.380  11.185   7.402
 3678POPC   C1B47863  25.869  11.014   6.258
 3678POPC   C2B47864  25.692  11.076   6.680
 3678POPC   C3B47865  25.829  11.016   7.126
 3678POPC   C4B47866  25.875  11.320   7.466
 3679POPC   NC347867  36.314  27.835   5.387
 3679POPC   PO447868  35.987  27.258   5.239
 3679POPC   GL147869  35.913  27.349   5.709
 3679POPC   GL247870  35.886  27.723   5.776
 3679POPC   C1A47871  36.051  27.380   6.157
 3679POPC   D2A47872  36.252  27.618   6.522
 3679POPC   C3A47873  36.106  27.502   6.935
 3679POPC   C4A47874  36.379  27.380   7.261
 3679POPC   C1B47875  35.930  27.877   6.221
 3679POPC   C2B47876  35.734  27.833   6.653
 3679POPC   C3B47877  35.874  27.907   7.129
 3679POPC   C4B47878  36.184  27.782   7.482
 3680POPC   NC347879   1.215  10.205   5.528
 3680POPC   PO447880   1.492   9.789   5.008
 3680POPC   GL147881   1.290   9.721   5.534
 3680POPC   GL247882   0.964   9.676   5.729
 3680POPC   C1A47883   1.326   9.810   6.046
 3680POPC   D2A47884   1.240   9.605   6.476
 3680POPC   C3A47885   1.311   9.776   6.898
 3680POPC   C4A47886   1.491   9.967   7.265
 3680POPC   C1B47887   0.819   9.726   6.185
 3680POPC   C2B47888   0.794   9.846   6.644
 3680POPC   C3B47889   0.840   9.638   7.053
 3680POPC   C4B47890   1.146   9.562   7.384
 3681POPC   NC347891  43.437   0.892   5.324
 3681POPC   PO447892  42.999   1.410   5.300
 3681POPC   GL147893  43.211   1.294   5.692
 3681POPC   GL247894  43.245   0.937   5.825
 3681POPC   C1A47895  43.295   1.347   6.133
 3681POPC   D2A47896  43.145   1.169   6.525
 3681POPC   C3A47897  43.236   1.431   6.881
 3681POPC   C4A47898  43.161   1.357   7.320
 3681POPC   C1B47899  43.381   0.761   6.256
 3681POPC   C2B47900  43.294   0.684   6.698
 3681POPC   C3B47901  43.305   0.961   7.045
 3681POPC   C4B47902  43.631   1.251   7.211
 3682POPC   NC347903  31.996  12.155   5.231
 3682POPC   PO447904  32.500  11.896   5.250
 3682POPC   GL147905  32.299  11.953   5.736
 3682POPC   GL247906  32.031  12.184   5.850
 3682POPC   C1A47907  32.339  12.112   6.228
 3682POPC   D2A47908  32.081  12.144   6.624
 3682POPC   C3A47909  32.333  12.102   6.965
 3682POPC   C4A47910  32.395  12.246   7.377
 3682POPC   C1B47911  31.847  11.931   6.223
 3682POPC   C2B47912  31.834  11.619   6.558
 3682POPC   C3B47913  32.007  11.690   6.965
 3682POPC   C4B47914  31.927  12.047   7.267
 3683POPC   NC347915   0.614  24.294   5.447
 3683POPC   PO447916   0.076  24.004   5.553
 3683POPC   GL147917   0.198  24.321   5.876
 3683POPC   GL247918   0.548  24.502   5.910
 3683POPC   C1A47919   0.344  24.292   6.318
 3683POPC   D2A47920   0.440  24.561   6.675
 3683POPC   C3A47921   0.281  24.433   7.047
 3683POPC   C4A47922   0.290  24.041   7.314
 3683POPC   C1B47923   0.408  24.830   6.235
 3683POPC   C2B47924   0.611  25.024   6.646
 3683POPC   C3B47925   0.680  24.827   7.106
 3683POPC   C4B47926   0.686  24.397   7.334
 3684POPC   NC347927  41.646   4.488   5.270
 3684POPC   PO447928  41.266   4.059   5.512
 3684POPC   GL147929  41.611   4.267   5.729
 3684POPC   GL247930  41.689   4.001   5.898
 3684POPC   C1A47931  41.711   4.436   6.161
 3684POPC   D2A47932  41.716   4.186   6.569
 3684POPC   C3A47933  41.711   4.412   6.981
 3684POPC   C4A47934  41.450   4.658   7.276
 3684POPC   C1B47935  41.405   3.963   6.204
 3684POPC   C2B47936  41.298   3.846   6.594
 3684POPC   C3B47937  41.508   3.939   6.976
 3684POPC   C4B47938  41.452   4.152   7.354
 3685POPC   NC347939  26.674  14.989   5.198
 3685POPC   PO447940  26.979  15.597   5.351
 3685POPC   GL147941  26.851  15.341   5.752
 3685POPC   GL247942  26.689  15.017   5.838
 3685POPC   C1A47943  26.672  15.395   6.188
 3685POPC   D2A47944  26.522  15.218   6.608
 3685POPC   C3A47945  26.677  15.380   6.992
 3685POPC   C4A47946  26.559  15.722   7.241
 3685POPC   C1B47947  26.715  14.872   6.291
 3685POPC   C2B47948  26.860  14.856   6.756
 3685POPC   C3B47949  26.915  14.990   7.221
 3685POPC   C4B47950  26.672  15.170   7.516
 3686POPC   NC347951  44.537  21.538   5.056
 3686POPC   PO447952  44.244  21.117   5.485
 3686POPC   GL147953  44.428  21.242   5.897
 3686POPC   GL247954  44.690  21.517   5.887
 3686POPC   C1A47955  44.624  21.277   6.334
 3686POPC   D2A47956  44.620  21.200   6.733
 3686POPC   C3A47957  44.348  21.163   7.038
 3686POPC   C4A47958  44.692  21.246   7.314
 3686POPC   C1B47959  44.334  21.645   6.202
 3686POPC   C2B47960  44.322  21.701   6.659
 3686POPC   C3B47961  44.468  21.652   7.118
 3686POPC   C4B47962  44.504  21.610   7.607
 3687POPC   NC347963  23.730  42.079   5.562
 3687POPC   PO447964  23.528  41.464   5.330
 3687POPC   GL147965  23.767  41.539   5.745
 3687POPC   GL247966  23.990  41.257   5.833
 3687POPC   C1A47967  23.710  41.793   6.164
 3687POPC   D2A47968  23.454  41.785   6.545
 3687POPC   C3A47969  23.654  41.889   6.929
 3687POPC   C4A47970  23.718  41.669   7.331
 3687POPC   C1B47971  23.752  41.281   6.253
 3687POPC   C2B47972  23.623  41.329   6.692
 3687POPC   C3B47973  23.381  41.459   7.018
 3687POPC   C4B47974  23.194  41.656   7.351
 3688POPC   NC347975   6.389  34.021   5.367
 3688POPC   PO447976   5.655  33.748   5.413
 3688POPC   GL147977   5.806  33.616   5.827
 3688POPC   GL247978   6.146  33.749   5.762
 3688POPC   C1A47979   5.971  33.648   6.263
 3688POPC   D2A47980   6.172  33.474   6.624
 3688POPC   C3A47981   5.942  33.746   6.916
 3688POPC   C4A47982   5.928  33.787   7.343
 3688POPC   C1B47983   5.883  34.079   5.994
 3688POPC   C2B47984   5.786  34.151   6.419
 3688POPC   C3B47985   5.621  34.336   6.799
 3688POPC   C4B47986   5.836  34.310   7.185
 3689POPC   NC347987  11.250   5.018   5.177
 3689POPC   PO447988  11.298   4.331   5.432
 3689POPC   GL147989  11.523   4.318   5.834
 3689POPC   GL247990  11.221   4.430   5.979
 3689POPC   C1A47991  11.578   4.302   6.324
 3689POPC   D2A47992  11.498   4.435   6.773
 3689POPC   C3A47993  11.730   4.229   7.101
 3689POPC   C4A47994  11.888   4.010   7.465
 3689POPC   C1B47995  11.285   4.720   6.321
 3689POPC   C2B47996  11.151   4.842   6.717
 3689POPC   C3B47997  11.198   4.702   7.120
 3689POPC   C4B47998  11.284   4.333   7.302
 3690POPC   NC347999  17.238  37.012   5.197
 3690POPC   PO448000  17.866  36.692   5.449
 3690POPC   GL148001  17.829  37.002   5.783
 3690POPC   GL248002  17.479  37.139   5.813
 3690POPC   C1A48003  17.739  36.943   6.230
 3690POPC   D2A48004  17.874  37.158   6.586
 3690POPC   C3A48005  17.688  37.023   6.949
 3690POPC   C4A48006  17.612  36.852   7.324
 3690POPC   C1B48007  17.261  37.158   6.242
 3690POPC   C2B48008  17.217  37.079   6.713
 3690POPC   C3B48009  17.288  37.243   7.169
 3690POPC   C4B48010  17.260  37.414   7.621
 3691POPC   NC348011  22.627  17.592   5.426
 3691POPC   PO448012  23.126  18.001   5.325
 3691POPC   GL148013  23.056  17.719   5.719
 3691POPC   GL248014  23.307  17.786   5.950
 3691POPC   C1A48015  22.880  17.519   6.127
 3691POPC   D2A48016  22.970  17.334   6.540
 3691POPC   C3A48017  22.872  17.443   6.937
 3691POPC   C4A48018  22.569  17.526   7.227
 3691POPC   C1B48019  23.346  17.596   6.329
 3691POPC   C2B48020  23.383  17.647   6.745
 3691POPC   C3B48021  23.334  17.479   7.137
 3691POPC   C4B48022  23.029  17.672   7.401
 3692POPC   NC348023  18.222  22.477   5.177
 3692POPC   PO448024  18.392  21.857   5.474
 3692POPC   GL148025  18.260  22.103   5.849
 3692POPC   GL248026  18.569  22.229   6.033
 3692POPC   C1A48027  17.986  22.142   6.218
 3692POPC   D2A48028  18.008  22.005   6.614
 3692POPC   C3A48029  18.222  22.182   6.944
 3692POPC   C4A48030  18.204  22.092   7.357
 3692POPC   C1B48031  18.446  21.909   6.326
 3692POPC   C2B48032  18.496  21.778   6.746
 3692POPC   C3B48033  18.656  21.943   7.141
 3692POPC   C4B48034  18.645  22.019   7.622
 3693POPC   NC348035  43.439  37.767   5.415
 3693POPC   PO448036  42.710  37.863   5.402
 3693POPC   GL148037  42.880  37.681   5.824
 3693POPC   GL248038  43.175  37.868   5.855
 3693POPC   C1A48039  42.981  37.550   6.259
 3693POPC   D2A48040  42.945  37.766   6.680
 3693POPC   C3A48041  42.932  37.501   7.038
 3693POPC   C4A48042  42.826  37.239   7.373
 3693POPC   C1B48043  43.273  38.000   6.283
 3693POPC   C2B48044  43.444  37.879   6.687
 3693POPC   C3B48045  43.256  37.910   7.099
 3693POPC   C4B48046  43.425  37.942   7.499
 3694POPC   NC348047   3.235  43.985   5.470
 3694POPC   PO448048   2.586  44.073   5.332
 3694POPC   GL148049   2.786  44.032   5.770
 3694POPC   GL248050   2.486  43.963   5.948
 3694POPC   C1A48051   3.033  43.829   6.145
 3694POPC   D2A48052   2.925  43.517   6.500
 3694POPC   C3A48053   3.018  43.654   6.952
 3694POPC   C4A48054   2.959  43.535   7.410
 3694POPC   C1B48055   2.584  43.864   6.361
 3694POPC   C2B48056   2.554  43.768   6.774
 3694POPC   C3B48057   2.633  44.021   7.108
 3694POPC   C4B48058   2.531  44.283   7.459
 3695POPC   NC348059  20.672  34.071   5.393
 3695POPC   PO448060  20.397  33.387   5.398
 3695POPC   GL148061  20.669  33.520   5.801
 3695POPC   GL248062  20.840  33.886   5.846
 3695POPC   C1A48063  20.562  33.667   6.249
 3695POPC   D2A48064  20.351  33.529   6.631
 3695POPC   C3A48065  20.472  33.616   7.089
 3695POPC   C4A48066  20.860  33.697   7.400
 3695POPC   C1B48067  21.007  34.116   6.215
 3695POPC   C2B48068  20.869  33.977   6.641
 3695POPC   C3B48069  20.735  34.041   7.062
 3695POPC   C4B48070  20.793  34.172   7.540
 3696POPC   NC348071  16.773   3.262   5.440
 3696POPC   PO448072  16.207   3.677   5.306
 3696POPC   GL148073  16.581   3.732   5.670
 3696POPC   GL248074  16.613   3.435   5.888
 3696POPC   C1A48075  16.852   3.837   6.097
 3696POPC   D2A48076  17.132   3.663   6.451
 3696POPC   C3A48077  16.893   3.607   6.843
 3696POPC   C4A48078  16.766   3.590   7.292
 3696POPC   C1B48079  16.802   3.317   6.293
 3696POPC   C2B48080  17.108   3.184   6.645
 3696POPC   C3B48081  17.066   3.199   7.101
 3696POPC   C4B48082  16.695   2.972   7.228
 3697POPC   NC348083  42.945  11.443   5.376
 3697POPC   PO448084  43.087  10.880   5.731
 3697POPC   GL148085  43.140  11.366   5.842
 3697POPC   GL248086  42.813  11.584   5.848
 3697POPC   C1A48087  43.363  11.508   6.212
 3697POPC   D2A48088  43.280  11.174   6.514
 3697POPC   C3A48089  43.298  11.207   6.948
 3697POPC   C4A48090  43.074  11.034   7.299
 3697POPC   C1B48091  42.862  11.424   6.282
 3697POPC   C2B48092  42.991  11.614   6.698
 3697POPC   C3B48093  42.911  11.484   7.141
 3697POPC   C4B48094  42.951  11.431   7.576
 3698POPC   NC348095   4.042  22.954   5.584
 3698POPC   PO448096   4.700  22.779   5.499
 3698POPC   GL148097   4.446  22.713   5.844
 3698POPC   GL248098   4.470  23.070   5.934
 3698POPC   C1A48099   4.171  22.773   6.226
 3698POPC   D2A48100   4.180  22.993   6.596
 3698POPC   C3A48101   4.227  22.771   6.999
 3698POPC   C4A48102   4.032  23.062   7.280
 3698POPC   C1B48103   4.703  22.847   6.272
 3698POPC   C2B48104   4.659  22.852   6.705
 3698POPC   C3B48105   4.507  23.186   6.947
 3698POPC   C4B48106   4.546  23.180   7.376
 3699POPC   NC348107  35.075  11.679   5.705
 3699POPC   PO448108  35.467  12.059   5.287
 3699POPC   GL148109  35.376  12.090   5.785
 3699POPC   GL248110  35.525  11.759   5.931
 3699POPC   C1A48111  35.229  12.049   6.255
 3699POPC   D2A48112  35.062  12.257   6.656
 3699POPC   C3A48113  35.030  12.021   7.046
 3699POPC   C4A48114  35.140  12.120   7.499
 3699POPC   C1B48115  35.723  11.871   6.347
 3699POPC   C2B48116  35.527  12.056   6.714
 3699POPC   C3B48117  35.519  11.966   7.151
 3699POPC   C4B48118  35.515  11.758   7.553
 3700POPC   NC348119  35.285  21.041   5.526
 3700POPC   PO448120  35.619  21.580   5.195
 3700POPC   GL148121  35.461  21.525   5.709
 3700POPC   GL248122  35.430  21.225   5.966
 3700POPC   C1A48123  35.238  21.642   6.163
 3700POPC   D2A48124  34.914  21.570   6.515
 3700POPC   C3A48125  35.011  21.738   6.945
 3700POPC   C4A48126  35.422  21.647   7.153
 3700POPC   C1B48127  35.238  21.132   6.379
 3700POPC   C2B48128  35.221  21.269   6.828
 3700POPC   C3B48129  35.373  21.151   7.239
 3700POPC   C4B48130  35.782  21.102   7.449
 3701POPC   NC348131  40.499   9.556   5.713
 3701POPC   PO448132  40.995   9.682   5.330
 3701POPC   GL148133  41.006   9.624   5.788
 3701POPC   GL248134  40.848   9.288   5.960
 3701POPC   C1A48135  40.939   9.736   6.215
 3701POPC   D2A48136  40.693   9.672   6.561
 3701POPC   C3A48137  40.887   9.761   6.941
 3701POPC   C4A48138  40.871   9.932   7.340
 3701POPC   C1B48139  40.433   9.324   6.270
 3701POPC   C2B48140  40.286   9.350   6.657
 3701POPC   C3B48141  40.493   9.438   6.971
 3701POPC   C4B48142  40.474   9.587   7.311
 3702POPC   NC348143  27.765  36.144   5.236
 3702POPC   PO448144  27.188  36.352   5.302
 3702POPC   GL148145  27.455  36.103   5.652
 3702POPC   GL248146  27.824  36.115   5.762
 3702POPC   C1A48147  27.442  36.040   6.116
 3702POPC   D2A48148  27.353  36.329   6.463
 3702POPC   C3A48149  27.452  36.154   6.889
 3702POPC   C4A48150  27.443  36.264   7.305
 3702POPC   C1B48151  27.917  36.218   6.199
 3702POPC   C2B48152  27.837  36.365   6.640
 3702POPC   C3B48153  27.918  36.354   7.091
 3702POPC   C4B48154  27.856  36.355   7.586
 3703POPC   NC348155   2.156  36.577   5.586
 3703POPC   PO448156   2.692  36.751   5.257
 3703POPC   GL148157   2.737  36.934   5.708
 3703POPC   GL248158   2.826  37.303   5.783
 3703POPC   C1A48159   2.676  36.995   6.178
 3703POPC   D2A48160   2.832  36.765   6.535
 3703POPC   C3A48161   2.687  36.644   6.922
 3703POPC   C4A48162   2.938  36.791   7.239
 3703POPC   C1B48163   3.058  37.458   6.151
 3703POPC   C2B48164   2.934  37.296   6.561
 3703POPC   C3B48165   2.584  37.189   6.758
 3703POPC   C4B48166   2.515  37.073   7.156
 3704POPC   NC348167  44.156  18.136   5.291
 3704POPC   PO448168  44.861  18.177   5.170
 3704POPC   GL148169  44.659  18.208   5.581
 3704POPC   GL248170  44.495  18.526   5.608
 3704POPC   C1A48171  44.636  18.028   5.998
 3704POPC   D2A48172  44.544  18.088   6.439
 3704POPC   C3A48173  44.792  18.094   6.831
 3704POPC   C4A48174  44.710  18.194   7.293
 3704POPC   C1B48175  44.727  18.546   6.015
 3704POPC   C2B48176  44.721  18.562   6.506
 3704POPC   C3B48177  44.554  18.550   6.938
 3704POPC   C4B48178  44.751  18.680   7.328
 3705POPC   NC348179  24.853  18.799   5.302
 3705POPC   PO448180  25.449  18.960   5.085
 3705POPC   GL148181  25.340  19.123   5.579
 3705POPC   GL248182  25.580  19.382   5.749
 3705POPC   C1A48183  25.163  19.230   6.040
 3705POPC   D2A48184  25.006  19.204   6.499
 3705POPC   C3A48185  25.096  18.876   6.818
 3705POPC   C4A48186  25.293  19.003   7.225
 3705POPC   C1B48187  25.630  18.987   6.023
 3705POPC   C2B48188  25.575  18.894   6.472
 3705POPC   C3B48189  25.491  19.208   6.790
 3705POPC   C4B48190  25.687  19.328   7.154
 3706POPC   NC348191   7.830  24.720   5.458
 3706POPC   PO448192   8.286  24.216   5.340
 3706POPC   GL148193   8.348  24.356   5.781
 3706POPC   GL248194   8.073  24.543   5.889
 3706POPC   C1A48195   8.299  24.188   6.227
 3706POPC   D2A48196   8.325  24.027   6.682
 3706POPC   C3A48197   8.153  24.235   7.030
 3706POPC   C4A48198   8.191  24.507   7.369
 3706POPC   C1B48199   8.042  24.673   6.323
 3706POPC   C2B48200   7.902  24.620   6.752
 3706POPC   C3B48201   7.833  24.816   7.145
 3706POPC   C4B48202   7.801  24.737   7.599
 3707POPC   NC348203   8.815  41.639   5.360
 3707POPC   PO448204   9.473  41.419   5.369
 3707POPC   GL148205   9.082  41.442   5.735
 3707POPC   GL248206   8.737  41.635   5.857
 3707POPC   C1A48207   9.062  41.569   6.206
 3707POPC   D2A48208   8.821  41.522   6.576
 3707POPC   C3A48209   9.094  41.352   6.855
 3707POPC   C4A48210   9.276  41.580   7.163
 3707POPC   C1B48211   8.499  41.821   6.242
 3707POPC   C2B48212   8.450  41.982   6.668
 3707POPC   C3B48213   8.490  41.914   7.101
 3707POPC   C4B48214   8.819  41.995   7.362
 3708POPC   NC348215  35.923   4.839   5.487
 3708POPC   PO448216  36.472   5.261   5.499
 3708POPC   GL148217  36.113   5.236   5.784
 3708POPC   GL248218  36.107   4.910   5.949
 3708POPC   C1A48219  35.991   5.312   6.226
 3708POPC   D2A48220  36.284   5.289   6.568
 3708POPC   C3A48221  36.180   5.146   6.995
 3708POPC   C4A48222  35.890   5.433   7.212
 3708POPC   C1B48223  35.796   4.816   6.295
 3708POPC   C2B48224  35.709   4.905   6.737
 3708POPC   C3B48225  35.806   4.826   7.189
 3708POPC   C4B48226  35.968   4.727   7.636
 3709POPC   NC348227  26.234  14.854   5.604
 3709POPC   PO448228  25.839  14.230   5.504
 3709POPC   GL148229  26.018  14.413   5.861
 3709POPC   GL248230  25.888  14.761   5.967
 3709POPC   C1A48231  25.827  14.343   6.270
 3709POPC   D2A48232  25.873  14.536   6.682
 3709POPC   C3A48233  25.895  14.278   7.041
 3709POPC   C4A48234  26.010  14.176   7.438
 3709POPC   C1B48235  26.244  14.632   6.271
 3709POPC   C2B48236  26.362  14.716   6.692
 3709POPC   C3B48237  26.193  14.678   7.118
 3709POPC   C4B48238  26.331  14.693   7.534
 3710POPC   NC348239  33.236  26.255   5.511
 3710POPC   PO448240  32.639  26.076   5.359
 3710POPC   GL148241  32.896  25.913   5.729
 3710POPC   GL248242  33.261  25.761   5.648
 3710POPC   C1A48243  32.870  26.148   6.147
 3710POPC   D2A48244  32.688  26.279   6.587
 3710POPC   C3A48245  32.753  26.393   7.061
 3710POPC   C4A48246  32.593  26.329   7.496
 3710POPC   C1B48247  33.248  25.728   6.093
 3710POPC   C2B48248  33.100  25.892   6.503
 3710POPC   C3B48249  33.004  25.960   6.923
 3710POPC   C4B48250  33.259  25.823   7.236
 3711POPC   NC348251  12.925  11.420   5.463
 3711POPC   PO448252  13.229  10.903   5.749
 3711POPC   GL148253  13.011  11.288   5.947
 3711POPC   GL248254  13.158  11.652   5.864
 3711POPC   C1A48255  12.719  11.282   6.314
 3711POPC   D2A48256  12.896  11.292   6.712
 3711POPC   C3A48257  12.825  11.147   7.100
 3711POPC   C4A48258  12.659  11.273   7.439
 3711POPC   C1B48259  13.274  11.854   6.234
 3711POPC   C2B48260  13.237  11.661   6.627
 3711POPC   C3B48261  13.020  11.672   7.040
 3711POPC   C4B48262  13.282  11.552   7.389
 3712POPC   NC348263  24.346  40.302   5.486
 3712POPC   PO448264  24.546  39.723   5.265
 3712POPC   GL148265  24.452  39.753   5.692
 3712POPC   GL248266  24.641  40.046   5.809
 3712POPC   C1A48267  24.591  39.644   6.113
 3712POPC   D2A48268  24.379  39.748   6.503
 3712POPC   C3A48269  24.550  39.657   6.900
 3712POPC   C4A48270  24.454  39.970   7.206
 3712POPC   C1B48271  24.291  40.093   6.107
 3712POPC   C2B48272  24.261  40.314   6.485
 3712POPC   C3B48273  24.368  40.372   6.900
 3712POPC   C4B48274  24.421  40.479   7.339
 3713POPC   NC348275  18.750  37.891   5.349
 3713POPC   PO448276  18.183  37.518   5.317
 3713POPC   GL148277  18.315  37.727   5.686
 3713POPC   GL248278  18.273  37.382   5.828
 3713POPC   C1A48279  18.480  37.867   6.100
 3713POPC   D2A48280  18.609  37.683   6.509
 3713POPC   C3A48281  18.674  37.892   6.883
 3713POPC   C4A48282  18.473  37.928   7.287
 3713POPC   C1B48283  18.509  37.291   6.184
 3713POPC   C2B48284  18.412  37.200   6.578
 3713POPC   C3B48285  18.457  37.406   6.948
 3713POPC   C4B48286  18.216  37.489   7.277
 3714POPC   NC348287   5.361  31.567   5.418
 3714POPC   PO448288   4.751  31.329   5.488
 3714POPC   GL148289   5.061  31.378   5.781
 3714POPC   GL248290   5.187  31.045   5.837
 3714POPC   C1A48291   5.038  31.632   6.173
 3714POPC   D2A48292   4.950  31.782   6.628
 3714POPC   C3A48293   4.807  31.462   6.969
 3714POPC   C4A48294   5.020  31.301   7.369
 3714POPC   C1B48295   4.880  31.135   6.177
 3714POPC   C2B48296   5.068  31.288   6.565
 3714POPC   C3B48297   5.324  31.320   6.946
 3714POPC   C4B48298   5.398  30.983   7.234
 3715POPC   NC348299  39.081  17.947   5.295
 3715POPC   PO448300  39.367  18.569   5.500
 3715POPC   GL148301  39.255  18.321   5.846
 3715POPC   GL248302  39.017  18.077   5.806
 3715POPC   C1A48303  39.342  18.007   6.187
 3715POPC   D2A48304  39.240  18.136   6.600
 3715POPC   C3A48305  39.581  18.187   6.873
 3715POPC   C4A48306  39.579  18.176   7.281
 3715POPC   C1B48307  38.882  18.241   6.209
 3715POPC   C2B48308  38.788  18.404   6.629
 3715POPC   C3B48309  38.947  18.262   7.032
 3715POPC   C4B48310  39.071  18.289   7.504
 3716POPC   NC348311  21.347  17.164   5.165
 3716POPC   PO448312  21.586  17.669   5.571
 3716POPC   GL148313  21.298  17.485   5.848
 3716POPC   GL248314  21.158  17.179   5.674
 3716POPC   C1A48315  21.328  17.438   6.285
 3716POPC   D2A48316  21.294  17.499   6.703
 3716POPC   C3A48317  21.553  17.264   6.967
 3716POPC   C4A48318  21.668  17.547   7.280
 3716POPC   C1B48319  20.941  17.159   6.084
 3716POPC   C2B48320  21.057  17.054   6.532
 3716POPC   C3B48321  21.012  17.179   6.980
 3716POPC   C4B48322  21.255  17.217   7.396
 3717POPC   NC348323  21.654  29.094   5.454
 3717POPC   PO448324  21.062  29.477   5.489
 3717POPC   GL148325  21.363  29.334   5.804
 3717POPC   GL248326  21.684  29.503   5.803
 3717POPC   C1A48327  21.493  29.135   6.195
 3717POPC   D2A48328  21.311  28.884   6.534
 3717POPC   C3A48329  21.341  29.055   6.950
 3717POPC   C4A48330  21.450  28.910   7.364
 3717POPC   C1B48331  21.848  29.538   6.226
 3717POPC   C2B48332  21.705  29.612   6.662
 3717POPC   C3B48333  21.720  29.401   7.064
 3717POPC   C4B48334  21.536  29.395   7.507
 3718POPC   NC348335  43.131   3.548   5.397
 3718POPC   PO448336  42.518   3.935   5.406
 3718POPC   GL148337  42.765   3.676   5.751
 3718POPC   GL248338  43.145   3.714   5.882
 3718POPC   C1A48339  42.817   3.496   6.215
 3718POPC   D2A48340  43.165   3.547   6.534
 3718POPC   C3A48341  43.085   3.557   6.985
 3718POPC   C4A48342  42.772   3.541   7.297
 3718POPC   C1B48343  43.403   3.922   6.234
 3718POPC   C2B48344  43.572   3.849   6.684
 3718POPC   C3B48345  43.498   3.861   7.138
 3718POPC   C4B48346  43.201   3.723   7.480
 3719POPC   NC348347   4.800  15.362   5.522
 3719POPC   PO448348   5.427  15.136   5.314
 3719POPC   GL148349   5.265  15.200   5.774
 3719POPC   GL248350   5.003  15.397   5.981
 3719POPC   C1A48351   5.328  15.064   6.207
 3719POPC   D2A48352   5.217  15.280   6.608
 3719POPC   C3A48353   5.341  15.058   6.969
 3719POPC   C4A48354   5.036  14.898   7.220
 3719POPC   C1B48355   4.898  15.671   6.352
 3719POPC   C2B48356   4.878  15.681   6.802
 3719POPC   C3B48357   4.860  15.346   7.091
 3719POPC   C4B48358   4.786  15.282   7.540
 3720POPC   NC348359  41.617  14.589   5.681
 3720POPC   PO448360  41.774  13.983   5.562
 3720POPC   GL148361  41.352  14.043   5.789
 3720POPC   GL248362  41.226  14.364   5.867
 3720POPC   C1A48363  41.396  14.119   6.241
 3720POPC   D2A48364  41.695  14.327   6.490
 3720POPC   C3A48365  41.554  14.192   6.851
 3720POPC   C4A48366  41.447  14.111   7.225
 3720POPC   C1B48367  41.322  14.632   6.273
 3720POPC   C2B48368  41.223  14.587   6.722
 3720POPC   C3B48369  41.262  14.588   7.191
 3720POPC   C4B48370  41.475  14.502   7.608
 3721POPC   NC348371   7.220  23.269   5.367
 3721POPC   PO448372   7.586  23.830   5.328
 3721POPC   GL148373   7.591  23.605   5.730
 3721POPC   GL248374   7.229  23.565   5.802
 3721POPC   C1A48375   7.561  23.645   6.192
 3721POPC   D2A48376   7.332  23.470   6.561
 3721POPC   C3A48377   7.556  23.465   6.948
 3721POPC   C4A48378   7.385  23.322   7.319
 3721POPC   C1B48379   7.089  23.814   6.173
 3721POPC   C2B48380   7.333  23.979   6.535
 3721POPC   C3B48381   7.315  23.899   6.991
 3721POPC   C4B48382   7.326  23.937   7.437
 3722POPC   NC348383  31.644  24.405   5.099
 3722POPC   PO448384  31.244  24.607   5.602
 3722POPC   GL148385  31.397  24.442   5.952
 3722POPC   GL248386  31.704  24.539   5.883
 3722POPC   C1A48387  31.444  24.634   6.363
 3722POPC   D2A48388  31.169  24.668   6.720
 3722POPC   C3A48389  31.438  24.669   7.092
 3722POPC   C4A48390  31.399  24.700   7.533
 3722POPC   C1B48391  31.785  24.259   6.243
 3722POPC   C2B48392  31.832  24.090   6.663
 3722POPC   C3B48393  31.880  24.303   7.047
 3722POPC   C4B48394  31.669  24.271   7.414
 3723POPC   NC348395  23.289  29.508   5.572
 3723POPC   PO448396  22.699  29.122   5.522
 3723POPC   GL148397  22.859  28.963   5.924
 3723POPC   GL248398  23.203  29.091   5.896
 3723POPC   C1A48399  22.830  29.036   6.380
 3723POPC   D2A48400  22.727  29.458   6.530
 3723POPC   C3A48401  22.664  29.545   6.962
 3723POPC   C4A48402  22.962  29.463   7.280
 3723POPC   C1B48403  23.279  28.810   6.241
 3723POPC   C2B48404  23.142  28.721   6.652
 3723POPC   C3B48405  22.999  29.003   6.981
 3723POPC   C4B48406  23.314  29.094   7.302
 3724POPC   NC348407  27.508  17.281   5.372
 3724POPC   PO448408  27.570  17.952   5.407
 3724POPC   GL148409  27.667  17.664   5.785
 3724POPC   GL248410  27.894  17.368   5.731
 3724POPC   C1A48411  27.625  17.707   6.252
 3724POPC   D2A48412  27.390  17.468   6.574
 3724POPC   C3A48413  27.419  17.675   6.948
 3724POPC   C4A48414  27.504  17.678   7.375
 3724POPC   C1B48415  27.839  17.251   6.191
 3724POPC   C2B48416  27.888  17.414   6.644
 3724POPC   C3B48417  27.807  17.361   7.093
 3724POPC   C4B48418  27.973  17.078   7.412
 3725POPC   NC348419   9.559  31.984   5.514
 3725POPC   PO448420   9.947  32.390   5.291
 3725POPC   GL148421   9.982  32.349   5.742
 3725POPC   GL248422   9.816  32.042   5.938
 3725POPC   C1A48423   9.818  32.489   6.145
 3725POPC   D2A48424   9.619  32.223   6.432
 3725POPC   C3A48425   9.743  32.319   6.828
 3725POPC   C4A48426   9.879  32.634   7.123
 3725POPC   C1B48427   9.900  31.782   6.305
 3725POPC   C2B48428   9.992  31.796   6.771
 3725POPC   C3B48429   9.929  32.026   7.179
 3725POPC   C4B48430   9.916  31.937   7.595
 3726POPC   NC348431  37.805  20.553   5.379
 3726POPC   PO448432  37.164  20.626   5.369
 3726POPC   GL148433  37.414  20.488   5.726
 3726POPC   GL248434  37.584  20.800   5.814
 3726POPC   C1A48435  37.586  20.399   6.155
 3726POPC   D2A48436  37.518  20.640   6.554
 3726POPC   C3A48437  37.450  20.486   6.985
 3726POPC   C4A48438  37.560  20.721   7.398
 3726POPC   C1B48439  37.876  20.813   6.171
 3726POPC   C2B48440  38.045  20.702   6.591
 3726POPC   C3B48441  37.929  20.665   7.019
 3726POPC   C4B48442  38.059  20.905   7.380
 3727POPC   NC348443   8.750  28.639   5.075
 3727POPC   PO448444   8.379  28.252   5.497
 3727POPC   GL148445   8.227  28.315   5.855
 3727POPC   GL248446   8.095  27.987   5.882
 3727POPC   C1A48447   8.426  28.450   6.228
 3727POPC   D2A48448   8.320  28.360   6.650
 3727POPC   C3A48449   8.354  28.714   6.898
 3727POPC   C4A48450   8.362  28.516   7.267
 3727POPC   C1B48451   8.020  28.140   6.293
 3727POPC   C2B48452   7.831  28.091   6.680
 3727POPC   C3B48453   7.957  28.292   7.042
 3727POPC   C4B48454   8.108  28.008   7.334
 3728POPC   NC348455  36.023  10.919   5.598
 3728POPC   PO448456  36.425  10.443   5.501
 3728POPC   GL148457  36.306  10.270   5.902
 3728POPC   GL248458  35.919  10.249   5.916
 3728POPC   C1A48459  36.450  10.228   6.349
 3728POPC   D2A48460  36.559  10.609   6.631
 3728POPC   C3A48461  36.357  10.754   7.026
 3728POPC   C4A48462  36.180  10.636   7.430
 3728POPC   C1B48463  36.010  10.472   6.287
 3728POPC   C2B48464  36.119  10.353   6.724
 3728POPC   C3B48465  35.876  10.509   7.055
 3728POPC   C4B48466  35.637  10.899   7.076
 3729POPC   NC348467  28.122  34.564   5.339
 3729POPC   PO448468  28.739  34.368   5.456
 3729POPC   GL148469  28.450  34.627   5.762
 3729POPC   GL248470  28.135  34.426   5.839
 3729POPC   C1A48471  28.223  34.841   6.155
 3729POPC   D2A48472  28.183  34.974   6.633
 3729POPC   C3A48473  28.352  34.680   6.983
 3729POPC   C4A48474  28.530  34.439   7.369
 3729POPC   C1B48475  28.054  34.250   6.277
 3729POPC   C2B48476  28.107  34.292   6.746
 3729POPC   C3B48477  28.044  34.300   7.218
 3729POPC   C4B48478  28.175  34.187   7.667
 3730POPC   NC348479  21.177  11.255   5.458
 3730POPC   PO448480  21.809  11.227   5.531
 3730POPC   GL148481  21.455  11.276   5.891
 3730POPC   GL248482  21.167  11.026   5.925
 3730POPC   C1A48483  21.346  11.427   6.346
 3730POPC   D2A48484  21.498  11.615   6.738
 3730POPC   C3A48485  21.349  11.478   7.153
 3730POPC   C4A48486  21.459  11.321   7.581
 3730POPC   C1B48487  21.224  10.933   6.370
 3730POPC   C2B48488  21.362  11.075   6.787
 3730POPC   C3B48489  21.274  10.973   7.228
 3730POPC   C4B48490  21.542  10.787   7.553
 3731POPC   NC348491  24.040  42.710   5.521
 3731POPC   PO448492  23.384  42.412   5.424
 3731POPC   GL148493  23.662  42.537   5.798
 3731POPC   GL248494  23.990  42.361   5.885
 3731POPC   C1A48495  23.766  42.592   6.259
 3731POPC   D2A48496  23.719  42.311   6.585
 3731POPC   C3A48497  23.621  42.495   6.975
 3731POPC   C4A48498  23.843  42.660   7.320
 3731POPC   C1B48499  24.172  42.121   6.202
 3731POPC   C2B48500  24.127  42.018   6.627
 3731POPC   C3B48501  24.054  42.215   7.028
 3731POPC   C4B48502  23.767  42.170   7.351
 3732POPC   NC348503  12.667  34.541   5.381
 3732POPC   PO448504  13.304  34.762   5.431
 3732POPC   GL148505  12.994  34.672   5.764
 3732POPC   GL248506  12.773  34.955   5.770
 3732POPC   C1A48507  12.772  34.636   6.192
 3732POPC   D2A48508  12.882  34.492   6.617
 3732POPC   C3A48509  12.608  34.549   6.937
 3732POPC   C4A48510  12.625  34.308   7.285
 3732POPC   C1B48511  13.103  35.015   6.111
 3732POPC   C2B48512  13.005  34.984   6.532
 3732POPC   C3B48513  13.139  34.859   6.930
 3732POPC   C4B48514  12.951  34.709   7.297
 3733POPC   NC348515   9.505  28.345   5.409
 3733POPC   PO448516  10.213  28.460   5.549
 3733POPC   GL148517   9.928  28.426   5.892
 3733POPC   GL248518   9.579  28.330   5.899
 3733POPC   C1A48519   9.858  28.373   6.332
 3733POPC   D2A48520   9.836  28.555   6.731
 3733POPC   C3A48521   9.937  28.217   7.044
 3733POPC   C4A48522  10.039  28.137   7.478
 3733POPC   C1B48523   9.389  28.582   6.174
 3733POPC   C2B48524   9.318  28.532   6.591
 3733POPC   C3B48525   9.439  28.329   6.952
 3733POPC   C4B48526   9.554  28.256   7.416
 3734POPC   NC348527  24.942  29.897   5.102
 3734POPC   PO448528  24.542  30.055   5.630
 3734POPC   GL148529  24.507  29.702   5.912
 3734POPC   GL248530  24.841  29.635   5.842
 3734POPC   C1A48531  24.425  29.699   6.375
 3734POPC   D2A48532  24.427  30.091   6.630
 3734POPC   C3A48533  24.354  30.030   7.063
 3734POPC   C4A48534  24.678  30.141   7.354
 3734POPC   C1B48535  25.062  29.470   6.186
 3734POPC   C2B48536  24.914  29.519   6.578
 3734POPC   C3B48537  24.764  29.775   6.894
 3734POPC   C4B48538  24.693  29.648   7.313
 3735POPC   NC348539  20.852  15.112   5.478
 3735POPC   PO448540  20.174  15.232   5.419
 3735POPC   GL148541  20.375  15.171   5.803
 3735POPC   GL248542  20.483  14.843   5.817
 3735POPC   C1A48543  20.566  15.326   6.197
 3735POPC   D2A48544  20.720  15.197   6.616
 3735POPC   C3A48545  20.479  15.173   7.016
 3735POPC   C4A48546  20.393  15.046   7.474
 3735POPC   C1B48547  20.792  14.841   6.177
 3735POPC   C2B48548  20.999  14.744   6.573
 3735POPC   C3B48549  20.914  14.887   6.993
 3735POPC   C4B48550  20.867  14.847   7.428
 3736POPC   NC348551  25.465  21.926   5.469
 3736POPC   PO448552  25.032  22.461   5.362
 3736POPC   GL148553  25.271  22.295   5.756
 3736POPC   GL248554  25.071  21.995   5.801
 3736POPC   C1A48555  25.364  22.089   6.198
 3736POPC   D2A48556  25.464  21.976   6.632
 3736POPC   C3A48557  25.468  22.194   7.047
 3736POPC   C4A48558  25.356  22.143   7.510
 3736POPC   C1B48559  24.907  22.316   6.068
 3736POPC   C2B48560  24.987  22.382   6.470
 3736POPC   C3B48561  25.016  22.122   6.819
 3736POPC   C4B48562  24.953  22.248   7.238
 3737POPC   NC348563  24.464  37.656   5.433
 3737POPC   PO448564  23.848  37.928   5.535
 3737POPC   GL148565  24.224  37.887   5.825
 3737POPC   GL248566  24.435  37.557   5.918
 3737POPC   C1A48567  24.364  38.058   6.206
 3737POPC   D2A48568  24.515  37.960   6.612
 3737POPC   C3A48569  24.323  37.912   7.008
 3737POPC   C4A48570  24.493  37.751   7.410
 3737POPC   C1B48571  24.415  37.530   6.345
 3737POPC   C2B48572  24.386  37.459   6.776
 3737POPC   C3B48573  24.556  37.322   7.152
 3737POPC   C4B48574  24.354  37.179   7.505
 3738POPC   NC348575  41.437  15.481   5.499
 3738POPC   PO448576  41.853  14.969   5.712
 3738POPC   GL148577  41.446  15.112   5.875
 3738POPC   GL248578  41.534  15.456   5.991
 3738POPC   C1A48579  41.274  15.148   6.297
 3738POPC   D2A48580  41.522  15.077   6.664
 3738POPC   C3A48581  41.555  15.290   7.077
 3738POPC   C4A48582  41.529  14.970   7.407
 3738POPC   C1B48583  41.824  15.261   6.275
 3738POPC   C2B48584  42.112  15.024   6.539
 3738POPC   C3B48585  41.935  14.950   6.948
 3738POPC   C4B48586  41.990  15.169   7.351
 3739POPC   NC348587  41.200  12.269   5.038
 3739POPC   PO448588  41.564  11.783   5.388
 3739POPC   GL148589  41.657  12.088   5.718
 3739POPC   GL248590  41.358  12.141   5.875
 3739POPC   C1A48591  41.791  12.179   6.158
 3739POPC   D2A48592  41.783  12.003   6.583
 3739POPC   C3A48593  41.724  12.229   6.984
 3739POPC   C4A48594  41.633  12.082   7.407
 3739POPC   C1B48595  41.357  11.945   6.282
 3739POPC   C2B48596  41.306  12.114   6.688
 3739POPC   C3B48597  41.300  11.910   7.053
 3739POPC   C4B48598  41.144  11.975   7.445
 3740POPC   NC348599  14.438  34.701   5.357
 3740POPC   PO448600  14.287  34.066   5.515
 3740POPC   GL148601  14.483  34.409   5.776
 3740POPC   GL248602  14.254  34.716   5.835
 3740POPC   C1A48603  14.606  34.536   6.176
 3740POPC   D2A48604  14.337  34.497   6.529
 3740POPC   C3A48605  14.533  34.668   6.863
 3740POPC   C4A48606  14.551  34.609   7.269
 3740POPC   C1B48607  14.276  34.930   6.237
 3740POPC   C2B48608  14.424  35.181   6.571
 3740POPC   C3B48609  14.540  35.183   6.999
 3740POPC   C4B48610  14.231  34.973   7.235
 3741POPC   NC348611  11.652  28.616   5.697
 3741POPC   PO448612  12.224  28.421   5.415
 3741POPC   GL148613  12.094  28.312   5.797
 3741POPC   GL248614  12.380  28.476   5.937
 3741POPC   C1A48615  12.012  28.177   6.223
 3741POPC   D2A48616  11.950  28.373   6.648
 3741POPC   C3A48617  12.077  28.226   7.026
 3741POPC   C4A48618  12.291  27.915   7.256
 3741POPC   C1B48619  12.101  28.664   6.260
 3741POPC   C2B48620  12.145  28.846   6.692
 3741POPC   C3B48621  11.932  28.716   7.097
 3741POPC   C4B48622  11.917  28.749   7.565
 3742POPC   NC348623   9.670  31.245   5.444
 3742POPC   PO448624  10.010  31.846   5.497
 3742POPC   GL148625   9.975  31.530   5.792
 3742POPC   GL248626   9.600  31.571   5.865
 3742POPC   C1A48627   9.902  31.252   6.146
 3742POPC   D2A48628   9.683  31.378   6.531
 3742POPC   C3A48629   9.500  31.145   6.841
 3742POPC   C4A48630   9.661  31.126   7.224
 3742POPC   C1B48631   9.378  31.787   6.230
 3742POPC   C2B48632   9.475  31.819   6.686
 3742POPC   C3B48633   9.612  31.614   7.047
 3742POPC   C4B48634   9.445  31.889   7.318
 3743POPC   NC348635  33.459  13.572   5.503
 3743POPC   PO448636  32.769  13.693   5.547
 3743POPC   GL148637  32.971  13.844   5.888
 3743POPC   GL248638  33.309  14.037   5.804
 3743POPC   C1A48639  32.921  13.581   6.271
 3743POPC   D2A48640  33.108  13.337   6.626
 3743POPC   C3A48641  32.897  13.498   6.984
 3743POPC   C4A48642  32.827  13.846   7.278
 3743POPC   C1B48643  33.392  13.810   6.192
 3743POPC   C2B48644  33.219  13.843   6.609
 3743POPC   C3B48645  33.374  13.732   7.034
 3743POPC   C4B48646  33.682  13.394   7.126
 3744POPC   NC348647   6.807  19.154   5.482
 3744POPC   PO448648   6.266  19.488   5.210
 3744POPC   GL148649   6.234  19.412   5.739
 3744POPC   GL248650   6.521  19.194   5.886
 3744POPC   C1A48651   6.216  19.408   6.197
 3744POPC   D2A48652   6.500  19.133   6.477
 3744POPC   C3A48653   6.454  19.142   6.927
 3744POPC   C4A48654   6.381  19.033   7.350
 3744POPC   C1B48655   6.854  18.974   6.142
 3744POPC   C2B48656   6.985  18.941   6.589
 3744POPC   C3B48657   6.995  18.835   7.059
 3744POPC   C4B48658   7.133  18.527   7.392
 3745POPC   NC348659  30.302  35.059   5.113
 3745POPC   PO448660  29.933  35.310   5.626
 3745POPC   GL148661  30.164  35.275   5.977
 3745POPC   GL248662  30.234  34.934   6.010
 3745POPC   C1A48663  30.236  35.533   6.311
 3745POPC   D2A48664  29.967  35.491   6.645
 3745POPC   C3A48665  30.074  35.565   7.055
 3745POPC   C4A48666  29.859  35.414   7.434
 3745POPC   C1B48667  29.977  35.036   6.399
 3745POPC   C2B48668  30.017  34.903   6.855
 3745POPC   C3B48669  30.167  35.064   7.263
 3745POPC   C4B48670  30.241  34.973   7.713
 3746POPC   NC348671   0.220  17.896   5.091
 3746POPC   PO448672   0.556  18.373   5.447
 3746POPC   GL148673   0.534  18.238   5.856
 3746POPC   GL248674   0.169  18.170   5.824
 3746POPC   C1A48675   0.565  18.097   6.288
 3746POPC   D2A48676   0.274  17.884   6.566
 3746POPC   C3A48677   0.305  18.037   6.978
 3746POPC   C4A48678   0.042  17.827   7.237
 3746POPC   C1B48679   0.053  18.232   6.245
 3746POPC   C2B48680   0.219  18.419   6.591
 3746POPC   C3B48681   0.069  18.503   6.972
 3746POPC   C4B48682   0.158  18.382   7.374
 3747POPC   NC348683  33.391   5.040   5.486
 3747POPC   PO448684  32.950   5.503   5.258
 3747POPC   GL148685  32.992   5.355   5.718
 3747POPC   GL248686  32.687   5.209   5.932
 3747POPC   C1A48687  33.185   5.270   6.152
 3747POPC   D2A48688  33.200   5.065   6.596
 3747POPC   C3A48689  33.018   5.344   6.924
 3747POPC   C4A48690  32.627   5.341   7.169
 3747POPC   C1B48691  32.817   4.877   6.291
 3747POPC   C2B48692  32.823   4.764   6.772
 3747POPC   C3B48693  32.775   4.835   7.240
 3747POPC   C4B48694  32.705   4.669   7.715
 3748POPC   NC348695  11.850  41.202   5.478
 3748POPC   PO448696  11.960  41.935   5.479
 3748POPC   GL148697  12.063  41.707   5.828
 3748POPC   GL248698  12.229  41.390   5.766
 3748POPC   C1A48699  11.986  41.470   6.212
 3748POPC   D2A48700  11.738  41.462   6.568
 3748POPC   C3A48701  12.018  41.533   6.906
 3748POPC   C4A48702  11.951  41.680   7.303
 3748POPC   C1B48703  12.397  41.171   6.120
 3748POPC   C2B48704  12.585  41.050   6.531
 3748POPC   C3B48705  12.385  41.117   6.938
 3748POPC   C4B48706  12.401  41.403   7.269
 3749POPC   NC348707  27.944  25.344   5.398
 3749POPC   PO448708  28.513  25.514   5.319
 3749POPC   GL148709  28.447  25.232   5.664
 3749POPC   GL248710  28.162  25.021   5.712
 3749POPC   C1A48711  28.505  25.146   6.100
 3749POPC   D2A48712  28.686  25.418   6.423
 3749POPC   C3A48713  28.547  25.409   6.842
 3749POPC   C4A48714  28.450  25.350   7.265
 3749POPC   C1B48715  28.003  25.233   6.101
 3749POPC   C2B48716  28.184  25.168   6.507
 3749POPC   C3B48717  28.090  25.179   6.932
 3749POPC   C4B48718  28.095  24.978   7.364
 3750POPC   NC348719  18.610  19.487   5.485
 3750POPC   PO448720  18.441  20.174   5.312
 3750POPC   GL148721  18.358  19.922   5.732
 3750POPC   GL248722  18.655  19.766   5.905
 3750POPC   C1A48723  18.260  19.809   6.196
 3750POPC   D2A48724  18.553  19.851   6.539
 3750POPC   C3A48725  18.302  19.820   6.902
 3750POPC   C4A48726  18.036  20.041   7.190
 3750POPC   C1B48727  18.646  19.418   6.208
 3750POPC   C2B48728  18.636  19.355   6.679
 3750POPC   C3B48729  18.705  19.546   7.098
 3750POPC   C4B48730  18.380  19.688   7.396
 3751POPC   NC348731  12.280  29.694   5.540
 3751POPC   PO448732  11.797  30.166   5.517
 3751POPC   GL148733  11.956  29.947   5.869
 3751POPC   GL248734  12.284  30.070   5.938
 3751POPC   C1A48735  12.088  29.720   6.264
 3751POPC   D2A48736  11.936  29.894   6.657
 3751POPC   C3A48737  12.132  29.927   7.053
 3751POPC   C4A48738  11.956  30.029   7.470
 3751POPC   C1B48739  12.249  30.202   6.381
 3751POPC   C2B48740  12.353  30.359   6.822
 3751POPC   C3B48741  12.363  30.300   7.308
 3751POPC   C4B48742  12.321  30.205   7.795
 3752POPC   NC348743  16.249  30.346   5.481
 3752POPC   PO448744  15.699  29.948   5.463
 3752POPC   GL148745  15.777  29.784   5.873
 3752POPC   GL248746  15.674  30.116   5.964
 3752POPC   C1A48747  15.712  29.783   6.333
 3752POPC   D2A48748  15.901  30.118   6.567
 3752POPC   C3A48749  16.046  29.988   6.938
 3752POPC   C4A48750  15.900  29.800   7.312
 3752POPC   C1B48751  15.467  30.279   6.322
 3752POPC   C2B48752  15.529  30.447   6.748
 3752POPC   C3B48753  15.641  30.234   7.149
 3752POPC   C4B48754  15.615  30.327   7.591
 3753POPC   NC348755  14.641   2.205   5.437
 3753POPC   PO448756  13.976   2.478   5.413
 3753POPC   GL148757  14.224   2.189   5.760
 3753POPC   GL248758  14.556   2.275   5.916
 3753POPC   C1A48759  14.287   1.917   6.150
 3753POPC   D2A48760  14.103   1.742   6.530
 3753POPC   C3A48761  14.335   1.760   6.937
 3753POPC   C4A48762  14.187   1.883   7.367
 3753POPC   C1B48763  14.797   2.444   6.260
 3753POPC   C2B48764  14.828   2.240   6.654
 3753POPC   C3B48765  14.613   2.180   7.034
 3753POPC   C4B48766  14.680   1.893   7.348
 3754POPC   NC348767   5.906  25.377   5.399
 3754POPC   PO448768   6.353  25.904   5.229
 3754POPC   GL148769   6.112  25.799   5.698
 3754POPC   GL248770   6.122  25.433   5.838
 3754POPC   C1A48771   5.870  25.706   6.156
 3754POPC   D2A48772   5.740  25.346   6.419
 3754POPC   C3A48773   5.641  25.391   6.855
 3754POPC   C4A48774   5.663  25.296   7.286
 3754POPC   C1B48775   6.230  25.294   6.267
 3754POPC   C2B48776   6.157  25.416   6.700
 3754POPC   C3B48777   6.132  25.397   7.133
 3754POPC   C4B48778   6.154  25.166   7.471
 3755POPC   NC348779  20.792   3.970   5.533
 3755POPC   PO448780  20.471   3.314   5.486
 3755POPC   GL148781  20.706   3.483   5.809
 3755POPC   GL248782  20.559   3.756   5.946
 3755POPC   C1A48783  20.788   3.320   6.230
 3755POPC   D2A48784  20.915   3.291   6.675
 3755POPC   C3A48785  20.645   3.567   6.910
 3755POPC   C4A48786  20.357   3.529   7.247
 3755POPC   C1B48787  20.950   3.814   6.166
 3755POPC   C2B48788  21.003   3.834   6.605
 3755POPC   C3B48789  20.709   4.060   6.863
 3755POPC   C4B48790  20.596   3.979   7.284
 3756POPC   NC348791  39.591  37.835   5.314
 3756POPC   PO448792  40.291  37.607   5.424
 3756POPC   GL148793  40.110  37.634   5.835
 3756POPC   GL248794  40.342  37.382   5.930
 3756POPC   C1A48795  39.913  37.585   6.266
 3756POPC   D2A48796  39.846  37.502   6.729
 3756POPC   C3A48797  39.893  37.757   7.115
 3756POPC   C4A48798  39.776  37.585   7.552
 3756POPC   C1B48799  40.410  37.693   6.279
 3756POPC   C2B48800  40.334  37.696   6.726
 3756POPC   C3B48801  40.305  37.468   7.128
 3756POPC   C4B48802  40.255  37.727   7.478
 3757POPC   NC348803  29.530  17.260   5.367
 3757POPC   PO448804  28.959  17.584   5.383
 3757POPC   GL148805  28.903  17.426   5.813
 3757POPC   GL248806  28.902  17.058   5.716
 3757POPC   C1A48807  29.074  17.428   6.265
 3757POPC   D2A48808  29.304  17.511   6.682
 3757POPC   C3A48809  29.216  17.522   7.133
 3757POPC   C4A48810  29.466  17.565   7.540
 3757POPC   C1B48811  28.826  16.958   6.145
 3757POPC   C2B48812  29.032  17.007   6.554
 3757POPC   C3B48813  28.863  17.177   6.945
 3757POPC   C4B48814  29.001  17.067   7.361
 3758POPC   NC348815  24.072   0.564   5.523
 3758POPC   PO448816  24.734   0.274   5.490
 3758POPC   GL148817  24.469   0.448   5.841
 3758POPC   GL248818  24.132   0.273   5.929
 3758POPC   C1A48819  24.392   0.752   6.183
 3758POPC   D2A48820  24.220   0.856   6.591
 3758POPC   C3A48821  24.475   0.773   6.958
 3758POPC   C4A48822  24.426   0.663   7.382
 3758POPC   C1B48823  24.350   0.244   6.311
 3758POPC   C2B48824  24.417   0.286   6.747
 3758POPC   C3B48825  24.689   0.191   7.096
 3758POPC   C4B48826  24.595   0.213   7.560
 3759POPC   NC348827  14.283  26.909   5.420
 3759POPC   PO448828  14.845  26.594   5.558
 3759POPC   GL148829  14.542  26.756   5.849
 3759POPC   GL248830  14.206  26.572   5.804
 3759POPC   C1A48831  14.621  26.924   6.277
 3759POPC   D2A48832  14.668  26.739   6.706
 3759POPC   C3A48833  14.462  26.914   7.073
 3759POPC   C4A48834  14.532  27.021   7.495
 3759POPC   C1B48835  14.142  26.756   6.222
 3759POPC   C2B48836  14.148  26.821   6.666
 3759POPC   C3B48837  14.106  26.561   7.007
 3759POPC   C4B48838  14.200  26.625   7.450
 3760POPC   NC348839  22.679  16.729   5.658
 3760POPC   PO448840  23.324  16.559   5.420
 3760POPC   GL148841  23.182  16.730   5.838
 3760POPC   GL248842  23.000  17.048   5.922
 3760POPC   C1A48843  23.133  16.695   6.309
 3760POPC   D2A48844  22.978  16.858   6.732
 3760POPC   C3A48845  23.020  16.646   7.148
 3760POPC   C4A48846  23.212  16.691   7.557
 3760POPC   C1B48847  22.684  17.030   6.260
 3760POPC   C2B48848  22.506  17.105   6.698
 3760POPC   C3B48849  22.617  17.025   7.128
 3760POPC   C4B48850  22.677  16.799   7.514
 3761POPC   NC348851  20.921  25.899   5.498
 3761POPC   PO448852  20.390  25.773   5.065
 3761POPC   GL148853  20.402  25.899   5.589
 3761POPC   GL248854  20.667  26.134   5.850
 3761POPC   C1A48855  20.366  25.804   6.055
 3761POPC   D2A48856  20.374  25.775   6.541
 3761POPC   C3A48857  20.747  25.912   6.807
 3761POPC   C4A48858  20.845  25.855   7.267
 3761POPC   C1B48859  20.574  26.254   6.302
 3761POPC   C2B48860  20.695  26.423   6.714
 3761POPC   C3B48861  20.702  26.329   7.109
 3761POPC   C4B48862  20.374  26.050   7.211
 3762POPC   NC348863  23.390  18.306   5.098
 3762POPC   PO448864  23.974  18.064   5.455
 3762POPC   GL148865  23.810  18.326   5.793
 3762POPC   GL248866  23.471  18.272   5.930
 3762POPC   C1A48867  23.891  18.258   6.225
 3762POPC   D2A48868  23.882  17.998   6.584
 3762POPC   C3A48869  23.893  18.189   6.948
 3762POPC   C4A48870  23.789  18.476   7.241
 3762POPC   C1B48871  23.407  18.120   6.355
 3762POPC   C2B48872  23.398  18.157   6.793
 3762POPC   C3B48873  23.484  17.952   7.167
 3762POPC   C4B48874  23.466  17.913   7.596
 3763POPC   NC348875  43.685  29.087   5.409
 3763POPC   PO448876  44.309  28.954   5.262
 3763POPC   GL148877  44.103  28.973   5.707
 3763POPC   GL248878  44.009  29.336   5.764
 3763POPC   C1A48879  43.955  28.913   6.183
 3763POPC   D2A48880  44.121  29.116   6.595
 3763POPC   C3A48881  44.046  28.987   7.029
 3763POPC   C4A48882  43.805  28.984   7.463
 3763POPC   C1B48883  43.613  29.256   6.038
 3763POPC   C2B48884  43.638  29.237   6.495
 3763POPC   C3B48885  43.593  29.200   6.984
 3763POPC   C4B48886  43.429  29.386   7.393
 3764POPC   NC348887   4.116  14.998   5.324
 3764POPC   PO448888   4.817  14.851   5.529
 3764POPC   GL148889   4.629  14.990   5.864
 3764POPC   GL248890   4.303  15.145   5.794
 3764POPC   C1A48891   4.433  14.835   6.218
 3764POPC   D2A48892   4.313  14.763   6.630
 3764POPC   C3A48893   4.634  14.809   6.911
 3764POPC   C4A48894   4.542  14.898   7.317
 3764POPC   C1B48895   4.477  15.361   6.181
 3764POPC   C2B48896   4.609  15.254   6.614
 3764POPC   C3B48897   4.356  15.269   7.001
 3764POPC   C4B48898   4.055  15.356   7.330
 3765POPC   NC348899  27.332  24.690   5.389
 3765POPC   PO448900  27.870  24.350   5.169
 3765POPC   GL148901  27.700  24.442   5.626
 3765POPC   GL248902  27.940  24.570   5.765
 3765POPC   C1A48903  27.615  24.416   6.127
 3765POPC   D2A48904  27.419  24.476   6.571
 3765POPC   C3A48905  27.593  24.338   6.979
 3765POPC   C4A48906  27.474  24.448   7.398
 3765POPC   C1B48907  28.047  24.733   6.167
 3765POPC   C2B48908  27.812  24.815   6.557
 3765POPC   C3B48909  27.942  24.696   6.975
 3765POPC   C4B48910  27.993  24.465   7.357
 3766POPC   NC348911  35.327  35.622   5.382
 3766POPC   PO448912  35.255  34.954   5.646
 3766POPC   GL148913  35.430  35.323   5.773
 3766POPC   GL248914  35.770  35.282   5.832
 3766POPC   C1A48915  35.386  35.528   6.162
 3766POPC   D2A48916  35.273  35.281   6.528
 3766POPC   C3A48917  35.502  35.442   6.865
 3766POPC   C4A48918  35.217  35.629   7.084
 3766POPC   C1B48919  35.604  35.052   6.200
 3766POPC   C2B48920  35.743  35.056   6.618
 3766POPC   C3B48921  35.619  34.967   7.030
 3766POPC   C4B48922  35.614  35.252   7.364
 3767POPC   NC348923  41.473   1.055   5.549
 3767POPC   PO448924  41.213   1.709   5.716
 3767POPC   GL148925  41.450   1.392   5.915
 3767POPC   GL248926  41.826   1.349   5.943
 3767POPC   C1A48927  41.426   1.135   6.257
 3767POPC   D2A48928  41.272   1.338   6.589
 3767POPC   C3A48929  41.280   1.201   7.001
 3767POPC   C4A48930  41.416   1.289   7.427
 3767POPC   C1B48931  41.919   1.034   6.294
 3767POPC   C2B48932  41.662   0.935   6.689
 3767POPC   C3B48933  41.779   1.120   7.085
 3767POPC   C4B48934  41.883   1.103   7.523
 3768POPC   NC348935  18.578   8.906   5.386
 3768POPC   PO448936  18.098   9.350   5.462
 3768POPC   GL148937  18.309   9.116   5.770
 3768POPC   GL248938  18.648   9.284   5.742
 3768POPC   C1A48939  18.269   8.796   6.126
 3768POPC   D2A48940  18.101   8.841   6.546
 3768POPC   C3A48941  18.355   8.756   6.915
 3768POPC   C4A48942  18.156   9.002   7.188
 3768POPC   C1B48943  18.587   9.194   6.170
 3768POPC   C2B48944  18.571   9.069   6.568
 3768POPC   C3B48945  18.524   9.275   6.948
 3768POPC   C4B48946  18.773   9.205   7.304
 3769POPC   NC348947  32.722  38.472   5.067
 3769POPC   PO448948  32.755  38.314   5.680
 3769POPC   GL148949  32.826  38.591   5.980
 3769POPC   GL248950  33.124  38.778   5.883
 3769POPC   C1A48951  32.877  38.367   6.364
 3769POPC   D2A48952  33.098  38.276   6.730
 3769POPC   C3A48953  32.833  38.510   6.991
 3769POPC   C4A48954  32.607  38.482   7.363
 3769POPC   C1B48955  33.159  38.795   6.327
 3769POPC   C2B48956  33.205  38.823   6.758
 3769POPC   C3B48957  33.343  38.575   7.096
 3769POPC   C4B48958  33.079  38.623   7.456
 3770POPC   NC348959  23.348  14.532   5.642
 3770POPC   PO448960  23.907  14.544   5.355
 3770POPC   GL148961  23.765  14.398   5.879
 3770POPC   GL248962  23.792  14.062   6.007
 3770POPC   C1A48963  23.765  14.447   6.341
 3770POPC   D2A48964  23.680  14.194   6.724
 3770POPC   C3A48965  23.686  14.417   7.098
 3770POPC   C4A48966  23.596  14.831   7.066
 3770POPC   C1B48967  24.107  14.054   6.370
 3770POPC   C2B48968  24.156  14.007   6.829
 3770POPC   C3B48969  23.839  13.933   7.184
 3770POPC   C4B48970  23.926  14.148   7.656
 3771POPC   NC348971   2.508  21.855   5.579
 3771POPC   PO448972   1.782  21.960   5.505
 3771POPC   GL148973   1.918  22.266   5.835
 3771POPC   GL248974   2.290  22.279   5.804
 3771POPC   C1A48975   1.825  22.322   6.283
 3771POPC   D2A48976   1.780  22.004   6.625
 3771POPC   C3A48977   1.761  22.188   7.049
 3771POPC   C4A48978   1.696  22.650   7.137
 3771POPC   C1B48979   2.241  22.015   6.194
 3771POPC   C2B48980   2.300  22.209   6.590
 3771POPC   C3B48981   2.245  22.342   7.008
 3771POPC   C4B48982   2.260  22.045   7.341
 3772POPC   NC348983  24.364  44.983   5.567
 3772POPC   PO448984  24.570  44.413   5.244
 3772POPC   GL148985  24.555  44.505   5.723
 3772POPC   GL248986  24.716  44.262   5.938
 3772POPC   C1A48987  24.504  44.729   6.154
 3772POPC   D2A48988  24.653  44.590   6.581
 3772POPC   C3A48989  24.444  44.774   6.913
 3772POPC   C4A48990  24.484  44.779   7.337
 3772POPC   C1B48991  24.351  44.266   6.271
 3772POPC   C2B48992  24.266  44.302   6.745
 3772POPC   C3B48993  24.580  44.313   7.126
 3772POPC   C4B48994  24.711  44.379   7.583
 3773POPC   NC348995  36.338  35.140   5.095
 3773POPC   PO448996  35.779  35.446   5.302
 3773POPC   GL148997  36.200  35.341   5.565
 3773POPC   GL248998  36.257  35.039   5.778
 3773POPC   C1A48999  36.228  35.474   6.039
 3773POPC   D2A49000  35.875  35.504   6.345
 3773POPC   C3A49001  35.984  35.674   6.753
 3773POPC   C4A49002  35.911  35.611   7.182
 3773POPC   C1B49003  36.112  35.018   6.217
 3773POPC   C2B49004  36.227  35.237   6.605
 3773POPC   C3B49005  36.111  35.157   7.023
 3773POPC   C4B49006  36.264  34.778   7.256
 3774POPC   NC349007  11.351  29.329   5.590
 3774POPC   PO449008  11.200  28.704   5.670
 3774POPC   GL149009  11.395  28.984   5.977
 3774POPC   GL249010  11.110  29.207   6.034
 3774POPC   C1A49011  11.567  29.340   6.251
 3774POPC   D2A49012  11.488  29.540   6.676
 3774POPC   C3A49013  11.474  29.277   7.046
 3774POPC   C4A49014  11.446  29.285   7.505
 3774POPC   C1B49015  11.109  29.262   6.489
 3774POPC   C2B49016  10.971  29.387   6.903
 3774POPC   C3B49017  11.002  29.106   7.250
 3774POPC   C4B49018  11.059  28.925   7.655
 3775POPC   NC349019  28.938  25.334   5.386
 3775POPC   PO449020  29.436  24.869   5.463
 3775POPC   GL149021  29.102  25.066   5.797
 3775POPC   GL249022  28.904  25.413   5.879
 3775POPC   C1A49023  28.984  25.049   6.237
 3775POPC   D2A49024  29.136  24.896   6.605
 3775POPC   C3A49025  28.967  25.092   6.962
 3775POPC   C4A49026  29.220  25.177   7.301
 3775POPC   C1B49027  29.263  25.460   6.157
 3775POPC   C2B49028  29.167  25.438   6.610
 3775POPC   C3B49029  29.028  25.600   7.019
 3775POPC   C4B49030  29.274  25.692   7.393
 3776POPC   NC349031   8.203  42.082   5.278
 3776POPC   PO449032   8.622  42.552   5.272
 3776POPC   GL149033   8.595  42.396   5.731
 3776POPC   GL249034   8.483  42.061   5.745
 3776POPC   C1A49035   8.493  42.370   6.211
 3776POPC   D2A49036   8.239  42.463   6.595
 3776POPC   C3A49037   8.372  42.414   7.042
 3776POPC   C4A49038   8.038  42.476   7.332
 3776POPC   C1B49039   8.096  42.068   6.033
 3776POPC   C2B49040   7.965  42.003   6.477
 3776POPC   C3B49041   7.970  42.129   6.920
 3776POPC   C4B49042   7.931  41.970   7.340
 3777POPC   NC349043   8.360  15.019   5.421
 3777POPC   PO449044   7.786  14.894   5.643
 3777POPC   GL149045   7.939  15.039   5.983
 3777POPC   GL249046   8.185  15.245   5.857
 3777POPC   C1A49047   8.041  14.992   6.397
 3777POPC   D2A49048   8.402  14.799   6.584
 3777POPC   C3A49049   8.455  14.952   7.012
 3777POPC   C4A49050   8.187  14.842   7.399
 3777POPC   C1B49051   8.510  15.080   6.152
 3777POPC   C2B49052   8.533  15.301   6.556
 3777POPC   C3B49053   8.237  15.417   6.904
 3777POPC   C4B49054   8.326  15.336   7.361
 3778POPC   NC349055  36.513  37.712   5.495
 3778POPC   PO449056  36.755  37.072   5.402
 3778POPC   GL149057  36.668  37.361   5.831
 3778POPC   GL249058  36.751  37.768   5.931
 3778POPC   C1A49059  36.876  37.395   6.240
 3778POPC   D2A49060  37.064  37.660   6.528
 3778POPC   C3A49061  37.304  37.465   6.822
 3778POPC   C4A49062  37.224  37.428   7.245
 3778POPC   C1B49063  36.737  37.995   6.335
 3778POPC   C2B49064  36.754  37.992   6.781
 3778POPC   C3B49065  36.758  37.881   7.222
 3778POPC   C4B49066  36.623  37.929   7.672
 3779POPC   NC349067  15.169  40.957   5.345
 3779POPC   PO449068  15.418  40.440   5.601
 3779POPC   GL149069  15.338  40.744   5.889
 3779POPC   GL249070  15.412  41.086   5.774
 3779POPC   C1A49071  15.247  40.632   6.328
 3779POPC   D2A49072  15.365  40.355   6.669
 3779POPC   C3A49073  15.272  40.547   7.056
 3779POPC   C4A49074  14.880  40.716   7.093
 3779POPC   C1B49075  15.201  41.133   6.189
 3779POPC   C2B49076  15.281  41.283   6.624
 3779POPC   C3B49077  15.233  41.103   7.082
 3779POPC   C4B49078  15.369  41.035   7.537
 3780POPC   NC349079  28.993  36.933   5.332
 3780POPC   PO449080  29.646  37.292   5.441
 3780POPC   GL149081  29.342  37.235   5.860
 3780POPC   GL249082  29.088  36.945   5.840
 3780POPC   C1A49083  29.401  36.998   6.268
 3780POPC   D2A49084  29.226  37.116   6.662
 3780POPC   C3A49085  29.421  36.898   6.990
 3780POPC   C4A49086  29.347  36.617   7.288
 3780POPC   C1B49087  28.935  37.158   6.194
 3780POPC   C2B49088  28.809  37.406   6.551
 3780POPC   C3B49089  28.896  37.320   7.005
 3780POPC   C4B49090  28.955  36.913   7.193
 3781POPC   NC349091  33.681  34.872   5.714
 3781POPC   PO449092  33.693  35.401   5.272
 3781POPC   GL149093  33.817  35.502   5.760
 3781POPC   GL249094  34.004  35.229   5.918
 3781POPC   C1A49095  33.782  35.576   6.223
 3781POPC   D2A49096  33.631  35.439   6.650
 3781POPC   C3A49097  33.629  35.032   6.896
 3781POPC   C4A49098  33.724  35.049   7.336
 3781POPC   C1B49099  34.219  35.097   6.313
 3781POPC   C2B49100  34.154  35.112   6.771
 3781POPC   C3B49101  33.968  35.392   7.044
 3781POPC   C4B49102  33.776  35.763   7.076
 3782POPC   NC349103  13.591  11.697   5.358
 3782POPC   PO449104  13.247  11.092   5.266
 3782POPC   GL149105  13.487  11.315   5.680
 3782POPC   GL249106  13.785  11.493   5.782
 3782POPC   C1A49107  13.451  11.390   6.176
 3782POPC   D2A49108  13.348  11.121   6.522
 3782POPC   C3A49109  13.356  11.276   6.942
 3782POPC   C4A49110  13.409  11.035   7.277
 3782POPC   C1B49111  13.887  11.181   6.097
 3782POPC   C2B49112  13.868  11.350   6.529
 3782POPC   C3B49113  13.862  11.231   6.950
 3782POPC   C4B49114  13.797  11.419   7.372
 3783POPC   NC349115  36.950   7.817   5.447
 3783POPC   PO449116  36.706   7.219   5.433
 3783POPC   GL149117  36.930   7.414   5.790
 3783POPC   GL249118  37.278   7.562   5.754
 3783POPC   C1A49119  36.821   7.494   6.232
 3783POPC   D2A49120  36.668   7.241   6.603
 3783POPC   C3A49121  36.790   7.373   7.016
 3783POPC   C4A49122  36.947   7.663   7.284
 3783POPC   C1B49123  37.332   7.367   6.168
 3783POPC   C2B49124  37.178   7.463   6.612
 3783POPC   C3B49125  37.316   7.373   7.029
 3783POPC   C4B49126  37.251   7.077   7.336
 3784POPC   NC349127  26.909  14.020   5.128
 3784POPC   PO449128  26.747  14.648   5.493
 3784POPC   GL149129  26.923  14.407   5.760
 3784POPC   GL249130  26.781  14.069   5.816
 3784POPC   C1A49131  26.960  14.432   6.172
 3784POPC   D2A49132  26.678  14.360   6.469
 3784POPC   C3A49133  26.913  14.280   6.820
 3784POPC   C4A49134  26.844  14.508   7.162
 3784POPC   C1B49135  26.851  13.896   6.255
 3784POPC   C2B49136  26.585  13.883   6.647
 3784POPC   C3B49137  26.428  14.248   6.915
 3784POPC   C4B49138  26.476  14.229   7.319
 3785POPC   NC349139  33.654  32.380   5.402
 3785POPC   PO449140  34.319  32.385   5.267
 3785POPC   GL149141  34.022  32.480   5.744
 3785POPC   GL249142  33.676  32.306   5.892
 3785POPC   C1A49143  34.025  32.331   6.228
 3785POPC   D2A49144  33.700  32.349   6.554
 3785POPC   C3A49145  33.932  32.366   6.958
 3785POPC   C4A49146  34.214  32.550   7.292
 3785POPC   C1B49147  33.435  32.043   6.206
 3785POPC   C2B49148  33.408  31.881   6.648
 3785POPC   C3B49149  33.485  32.083   7.035
 3785POPC   C4B49150  33.385  32.309   7.425
 3786POPC   NC349151  24.198  26.407   5.500
 3786POPC   PO449152  24.617  25.928   5.406
 3786POPC   GL149153  24.511  25.896   5.846
 3786POPC   GL249154  24.172  26.003   5.847
 3786POPC   C1A49155  24.460  25.845   6.294
 3786POPC   D2A49156  24.486  26.149   6.619
 3786POPC   C3A49157  24.398  25.937   6.982
 3786POPC   C4A49158  24.557  25.941   7.358
 3786POPC   C1B49159  24.171  26.278   6.192
 3786POPC   C2B49160  24.035  26.434   6.568
 3786POPC   C3B49161  24.195  26.462   6.948
 3786POPC   C4B49162  24.203  26.289   7.354
 3787POPC   NC349163  21.995  41.413   5.575
 3787POPC   PO449164  22.594  41.800   5.469
 3787POPC   GL149165  22.540  41.517   5.805
 3787POPC   GL249166  22.474  41.202   5.671
 3787POPC   C1A49167  22.260  41.528   6.189
 3787POPC   D2A49168  22.087  41.369   6.610
 3787POPC   C3A49169  21.975  41.721   6.857
 3787POPC   C4A49170  21.756  41.690   7.228
 3787POPC   C1B49171  22.533  41.110   6.124
 3787POPC   C2B49172  22.578  41.271   6.505
 3787POPC   C3B49173  22.468  41.107   6.919
 3787POPC   C4B49174  22.217  41.383   7.171
 3788POPC   NC349175   6.246   7.572   5.381
 3788POPC   PO449176   6.761   7.157   5.487
 3788POPC   GL149177   6.525   7.457   5.796
 3788POPC   GL249178   6.284   7.742   5.838
 3788POPC   C1A49179   6.629   7.526   6.229
 3788POPC   D2A49180   6.749   7.299   6.593
 3788POPC   C3A49181   6.684   7.426   7.016
 3788POPC   C4A49182   6.894   7.360   7.409
 3788POPC   C1B49183   6.187   7.756   6.222
 3788POPC   C2B49184   6.369   7.818   6.592
 3788POPC   C3B49185   6.274   7.734   7.019
 3788POPC   C4B49186   6.447   7.651   7.462
 3789POPC   NC349187  10.200  40.195   5.009
 3789POPC   PO449188  10.105  39.850   5.612
 3789POPC   GL149189   9.849  40.038   5.865
 3789POPC   GL249190   9.495  39.919   5.817
 3789POPC   C1A49191   9.984  40.022   6.289
 3789POPC   D2A49192   9.793  40.024   6.687
 3789POPC   C3A49193  10.023  40.176   7.040
 3789POPC   C4A49194   9.751  40.236   7.370
 3789POPC   C1B49195   9.464  40.110   6.247
 3789POPC   C2B49196   9.256  40.101   6.652
 3789POPC   C3B49197   9.416  40.018   7.057
 3789POPC   C4B49198   9.794  39.741   7.152
 3790POPC   NC349199  26.289  42.684   5.496
 3790POPC   PO449200  25.685  42.948   5.548
 3790POPC   GL149201  25.760  43.033   5.950
 3790POPC   GL249202  25.992  42.749   5.965
 3790POPC   C1A49203  25.880  43.387   6.235
 3790POPC   D2A49204  26.141  43.422   6.600
 3790POPC   C3A49205  25.980  43.386   7.041
 3790POPC   C4A49206  26.033  43.178   7.447
 3790POPC   C1B49207  25.985  42.924   6.393
 3790POPC   C2B49208  25.765  42.985   6.781
 3790POPC   C3B49209  25.952  42.786   7.137
 3790POPC   C4B49210  26.336  42.709   7.363
 3791POPC   NC349211  42.204   3.705   5.177
 3791POPC   PO449212  41.831   3.209   5.409
 3791POPC   GL149213  42.119   3.192   5.783
 3791POPC   GL249214  42.221   3.570   5.740
 3791POPC   C1A49215  42.258   3.334   6.198
 3791POPC   D2A49216  42.255   3.611   6.537
 3791POPC   C3A49217  42.468   3.523   6.876
 3791POPC   C4A49218  42.300   3.305   7.222
 3791POPC   C1B49219  42.427   3.798   6.097
 3791POPC   C2B49220  42.501   4.040   6.509
 3791POPC   C3B49221  42.644   4.010   6.940
 3791POPC   C4B49222  42.368   3.833   7.256
 3792POPC   NC349223  36.596  22.576   5.048
 3792POPC   PO449224  36.422  21.990   5.118
 3792POPC   GL149225  36.262  21.867   5.623
 3792POPC   GL249226  35.924  21.749   5.756
 3792POPC   C1A49227  36.240  21.978   6.153
 3792POPC   D2A49228  36.433  22.107   6.617
 3792POPC   C3A49229  36.379  22.225   7.083
 3792POPC   C4A49230  36.669  22.222   7.469
 3792POPC   C1B49231  35.734  21.833   6.188
 3792POPC   C2B49232  35.814  22.181   6.482
 3792POPC   C3B49233  35.887  22.340   6.889
 3792POPC   C4B49234  35.887  22.050   7.176
 3793POPC   NC349235  28.677   1.814   5.457
 3793POPC   PO449236  28.247   2.251   5.501
 3793POPC   GL149237  28.109   2.096   5.883
 3793POPC   GL249238  28.455   1.954   5.915
 3793POPC   C1A49239  28.200   2.193   6.300
 3793POPC   D2A49240  28.582   2.255   6.484
 3793POPC   C3A49241  28.516   2.220   6.909
 3793POPC   C4A49242  28.285   2.004   7.219
 3793POPC   C1B49243  28.659   1.665   6.192
 3793POPC   C2B49244  28.641   1.467   6.581
 3793POPC   C3B49245  28.586   1.683   6.931
 3793POPC   C4B49246  28.550   1.528   7.292
 3794POPC   NC349247  34.006  27.095   5.400
 3794POPC   PO449248  33.534  26.508   5.251
 3794POPC   GL149249  33.750  26.694   5.627
 3794POPC   GL249250  34.027  26.566   5.837
 3794POPC   C1A49251  33.760  26.994   6.000
 3794POPC   D2A49252  33.846  27.121   6.425
 3794POPC   C3A49253  33.575  27.011   6.769
 3794POPC   C4A49254  33.669  27.057   7.193
 3794POPC   C1B49255  33.872  26.584   6.292
 3794POPC   C2B49256  33.980  26.691   6.695
 3794POPC   C3B49257  33.754  26.549   7.040
 3794POPC   C4B49258  34.068  26.492   7.303
 3795POPC   NC349259   7.082  26.618   5.494
 3795POPC   PO449260   7.735  26.800   5.508
 3795POPC   GL149261   7.399  26.875   5.841
 3795POPC   GL249262   7.244  27.229   5.863
 3795POPC   C1A49263   7.405  26.660   6.257
 3795POPC   D2A49264   7.640  26.696   6.639
 3795POPC   C3A49265   7.420  26.644   7.028
 3795POPC   C4A49266   7.525  26.876   7.420
 3795POPC   C1B49267   7.051  27.030   6.227
 3795POPC   C2B49268   7.091  26.848   6.656
 3795POPC   C3B49269   7.102  27.006   7.138
 3795POPC   C4B49270   7.040  26.837   7.587
 3796POPC   NC349271  37.766  32.869   5.634
 3796POPC   PO449272  37.534  33.471   5.482
 3796POPC   GL149273  37.606  33.277   5.906
 3796POPC   GL249274  37.913  33.088   6.060
 3796POPC   C1A49275  37.446  32.994   6.236
 3796POPC   D2A49276  37.651  32.900   6.626
 3796POPC   C3A49277  37.321  32.881   6.924
 3796POPC   C4A49278  37.260  32.707   7.316
 3796POPC   C1B49279  37.805  33.373   6.379
 3796POPC   C2B49280  38.070  33.543   6.668
 3796POPC   C3B49281  38.084  33.212   6.931
 3796POPC   C4B49282  37.772  32.951   7.159
 3797POPC   NC349283  38.093  27.684   5.552
 3797POPC   PO449284  38.747  27.409   5.397
 3797POPC   GL149285  38.477  27.426   5.761
 3797POPC   GL249286  38.728  27.348   5.952
 3797POPC   C1A49287  38.315  27.573   6.180
 3797POPC   D2A49288  38.500  27.534   6.595
 3797POPC   C3A49289  38.431  27.280   6.919
 3797POPC   C4A49290  38.218  27.397   7.286
 3797POPC   C1B49291  38.769  27.795   6.128
 3797POPC   C2B49292  38.510  28.010   6.485
 3797POPC   C3B49293  38.332  27.910   6.930
 3797POPC   C4B49294  38.549  27.765   7.315
 3798POPC   NC349295  12.207  33.712   5.336
 3798POPC   PO449296  11.625  34.093   5.392
 3798POPC   GL149297  11.786  33.820   5.738
 3798POPC   GL249298  12.148  33.857   5.814
 3798POPC   C1A49299  11.810  33.775   6.211
 3798POPC   D2A49300  11.779  34.032   6.614
 3798POPC   C3A49301  11.887  33.849   7.035
 3798POPC   C4A49302  12.009  33.917   7.469
 3798POPC   C1B49303  12.334  33.721   6.197
 3798POPC   C2B49304  12.166  33.637   6.622
 3798POPC   C3B49305  12.217  33.428   7.036
 3798POPC   C4B49306  12.273  33.508   7.494
 3799POPC   NC349307  19.476   1.047   5.152
 3799POPC   PO449308  20.203   0.892   5.285
 3799POPC   GL149309  20.045   0.966   5.710
 3799POPC   GL249310  19.892   1.270   5.709
 3799POPC   C1A49311  19.890   1.073   6.164
 3799POPC   D2A49312  20.026   0.989   6.550
 3799POPC   C3A49313  20.077   1.301   6.829
 3799POPC   C4A49314  20.052   1.259   7.231
 3799POPC   C1B49315  19.646   1.495   6.080
 3799POPC   C2B49316  19.634   1.370   6.547
 3799POPC   C3B49317  19.688   1.594   6.961
 3799POPC   C4B49318  19.450   1.502   7.326
 3800POPC   NC349319  34.690  28.884   5.473
 3800POPC   PO449320  34.486  29.507   5.191
 3800POPC   GL149321  34.625  29.488   5.659
 3800POPC   GL249322  34.737  29.175   5.868
 3800POPC   C1A49323  34.640  29.580   6.134
 3800POPC   D2A49324  34.390  29.352   6.439
 3800POPC   C3A49325  34.457  29.299   6.895
 3800POPC   C4A49326  34.286  29.490   7.263
 3800POPC   C1B49327  34.463  28.913   6.196
 3800POPC   C2B49328  34.246  28.835   6.632
 3800POPC   C3B49329  34.358  28.769   7.053
 3800POPC   C4B49330  34.777  28.864   7.145
 3801POPC   NC349331  26.839  22.778   5.427
 3801POPC   PO449332  27.094  23.472   5.458
 3801POPC   GL149333  26.984  23.111   5.807
 3801POPC   GL249334  26.971  22.714   5.885
 3801POPC   C1A49335  26.774  23.054   6.215
 3801POPC   D2A49336  26.883  23.110   6.638
 3801POPC   C3A49337  26.614  22.978   6.960
 3801POPC   C4A49338  26.809  23.162   7.310
 3801POPC   C1B49339  26.708  22.517   6.179
 3801POPC   C2B49340  26.829  22.582   6.591
 3801POPC   C3B49341  27.016  22.698   6.967
 3801POPC   C4B49342  26.804  22.667   7.358
 3802POPC   NC349343  17.666  16.963   5.171
 3802POPC   PO449344  17.845  17.671   5.034
 3802POPC   GL149345  17.762  17.555   5.529
 3802POPC   GL249346  17.743  17.887   5.739
 3802POPC   C1A49347  17.549  17.448   5.981
 3802POPC   D2A49348  17.310  17.356   6.394
 3802POPC   C3A49349  17.492  17.265   6.809
 3802POPC   C4A49350  17.406  17.466   7.188
 3802POPC   C1B49351  17.778  17.881   6.195
 3802POPC   C2B49352  17.790  17.552   6.506
 3802POPC   C3B49353  17.938  17.513   6.945
 3802POPC   C4B49354  17.809  17.772   7.305
 3803POPC   NC349355  25.191   4.640   5.354
 3803POPC   PO449356  25.221   5.326   5.287
 3803POPC   GL149357  25.264   5.362   5.706
 3803POPC   GL249358  25.222   5.018   5.749
 3803POPC   C1A49359  25.147   5.419   6.130
 3803POPC   D2A49360  25.012   5.158   6.485
 3803POPC   C3A49361  25.168   5.200   6.912
 3803POPC   C4A49362  24.971   5.023   7.264
 3803POPC   C1B49363  25.370   4.927   6.171
 3803POPC   C2B49364  25.520   4.892   6.623
 3803POPC   C3B49365  25.384   4.756   7.073
 3803POPC   C4B49366  25.372   4.856   7.534
 3804POPC   NC349367  25.419  32.598   5.658
 3804POPC   PO449368  25.208  31.978   5.363
 3804POPC   GL149369  25.145  32.178   5.792
 3804POPC   GL249370  24.912  32.446   5.742
 3804POPC   C1A49371  25.216  32.237   6.276
 3804POPC   D2A49372  25.382  31.909   6.608
 3804POPC   C3A49373  25.517  32.014   7.032
 3804POPC   C4A49374  25.547  32.466   7.114
 3804POPC   C1B49375  24.725  32.246   6.119
 3804POPC   C2B49376  24.692  32.412   6.509
 3804POPC   C3B49377  24.963  32.478   6.813
 3804POPC   C4B49378  25.064  32.222   7.129
 3805POPC   NC349379  43.309   9.211   5.372
 3805POPC   PO449380  43.022   8.557   5.510
 3805POPC   GL149381  43.229   8.842   5.740
 3805POPC   GL249382  42.914   8.906   5.907
 3805POPC   C1A49383  43.390   9.054   6.118
 3805POPC   D2A49384  43.506   8.920   6.536
 3805POPC   C3A49385  43.371   9.075   6.931
 3805POPC   C4A49386  43.465   8.831   7.274
 3805POPC   C1B49387  42.757   8.881   6.333
 3805POPC   C2B49388  42.894   9.029   6.747
 3805POPC   C3B49389  42.942   8.875   7.184
 3805POPC   C4B49390  42.677   8.705   7.526
 3806POPC   NC349391  43.805  25.376   5.290
 3806POPC   PO449392  44.093  24.818   5.405
 3806POPC   GL149393  44.080  25.098   5.827
 3806POPC   GL249394  44.150  25.458   5.774
 3806POPC   C1A49395  44.153  25.276   6.278
 3806POPC   D2A49396  44.007  25.205   6.702
 3806POPC   C3A49397  44.209  25.050   7.059
 3806POPC   C4A49398  43.916  24.973   7.314
 3806POPC   C1B49399  43.872  25.673   6.096
 3806POPC   C2B49400  43.838  25.662   6.539
 3806POPC   C3B49401  43.689  25.534   6.939
 3806POPC   C4B49402  43.968  25.465   7.270
 3807POPC   NC349403  14.759   7.961   5.650
 3807POPC   PO449404  15.249   8.225   5.241
 3807POPC   GL149405  15.181   8.310   5.673
 3807POPC   GL249406  15.233   7.989   5.848
 3807POPC   C1A49407  15.086   8.421   6.108
 3807POPC   D2A49408  14.993   8.207   6.515
 3807POPC   C3A49409  15.057   8.390   6.929
 3807POPC   C4A49410  15.112   8.362   7.359
 3807POPC   C1B49411  15.157   7.713   6.224
 3807POPC   C2B49412  15.075   7.609   6.660
 3807POPC   C3B49413  15.092   7.843   7.042
 3807POPC   C4B49414  14.744   8.045   7.221
 3808POPC   NC349415  10.552  23.215   5.453
 3808POPC   PO449416  10.796  22.559   5.462
 3808POPC   GL149417  10.524  22.737   5.821
 3808POPC   GL249418  10.350  23.090   5.901
 3808POPC   C1A49419  10.435  22.691   6.260
 3808POPC   D2A49420  10.426  22.963   6.629
 3808POPC   C3A49421  10.561  22.766   7.001
 3808POPC   C4A49422  10.423  22.499   7.293
 3808POPC   C1B49423  10.694  23.138   6.214
 3808POPC   C2B49424  10.829  23.292   6.648
 3808POPC   C3B49425  10.840  23.176   7.096
 3808POPC   C4B49426  11.105  23.154   7.466
 3809POPC   NC349427   6.005   1.343   5.445
 3809POPC   PO449428   5.949   0.722   5.575
 3809POPC   GL149429   5.904   1.080   5.891
 3809POPC   GL249430   5.732   1.451   5.849
 3809POPC   C1A49431   5.942   1.280   6.299
 3809POPC   D2A49432   6.054   1.185   6.684
 3809POPC   C3A49433   5.739   1.002   6.928
 3809POPC   C4A49434   5.999   0.983   7.282
 3809POPC   C1B49435   5.654   1.687   6.218
 3809POPC   C2B49436   5.753   1.634   6.668
 3809POPC   C3B49437   5.715   1.480   7.098
 3809POPC   C4B49438   5.499   1.642   7.439
 3810POPC   NC349439  41.617  29.645   5.201
 3810POPC   PO449440  41.154  30.027   5.275
 3810POPC   GL149441  41.327  29.980   5.746
 3810POPC   GL249442  41.696  29.888   5.835
 3810POPC   C1A49443  41.354  30.087   6.208
 3810POPC   D2A49444  41.525  30.053   6.667
 3810POPC   C3A49445  41.298  30.085   7.081
 3810POPC   C4A49446  41.457  30.071   7.501
 3810POPC   C1B49447  41.612  29.656   6.266
 3810POPC   C2B49448  41.411  29.544   6.686
 3810POPC   C3B49449  41.544  29.623   7.116
 3810POPC   C4B49450  41.442  29.571   7.567
 3811POPC   NC349451  36.000  21.376   5.379
 3811POPC   PO449452  36.028  20.713   5.221
 3811POPC   GL149453  36.140  20.995   5.665
 3811POPC   GL249454  35.916  21.235   5.850
 3811POPC   C1A49455  36.223  20.982   6.132
 3811POPC   D2A49456  36.309  21.034   6.559
 3811POPC   C3A49457  36.089  21.245   6.858
 3811POPC   C4A49458  36.255  21.179   7.235
 3811POPC   C1B49459  36.117  21.477   6.206
 3811POPC   C2B49460  36.098  21.723   6.602
 3811POPC   C3B49461  36.241  21.714   7.035
 3811POPC   C4B49462  35.918  21.550   7.269
 3812POPC   NC349463  33.647  10.685   5.558
 3812POPC   PO449464  34.022  10.336   5.043
 3812POPC   GL149465  34.046  10.340   5.549
 3812POPC   GL249466  33.721  10.235   5.753
 3812POPC   C1A49467  34.139  10.373   6.024
 3812POPC   D2A49468  34.130  10.317   6.507
 3812POPC   C3A49469  34.076  10.546   6.967
 3812POPC   C4A49470  33.812  10.766   7.309
 3812POPC   C1B49471  33.669  10.541   6.166
 3812POPC   C2B49472  33.760  10.697   6.580
 3812POPC   C3B49473  33.557  10.547   6.946
 3812POPC   C4B49474  33.650  10.278   7.300
 3813POPC   NC349475  22.741  37.061   5.476
 3813POPC   PO449476  22.910  36.469   5.722
 3813POPC   GL149477  22.704  36.822   5.916
 3813POPC   GL249478  22.965  37.073   5.925
 3813POPC   C1A49479  22.605  37.068   6.268
 3813POPC   D2A49480  22.805  37.042   6.699
 3813POPC   C3A49481  22.508  37.096   7.056
 3813POPC   C4A49482  22.542  36.959   7.454
 3813POPC   C1B49483  23.067  37.292   6.315
 3813POPC   C2B49484  23.333  37.093   6.625
 3813POPC   C3B49485  23.201  36.959   7.017
 3813POPC   C4B49486  22.949  37.231   7.225
 3814POPC   NC349487  40.567  25.446   5.355
 3814POPC   PO449488  41.230  25.134   5.429
 3814POPC   GL149489  40.936  25.294   5.711
 3814POPC   GL249490  40.610  25.194   5.797
 3814POPC   C1A49491  40.990  25.342   6.148
 3814POPC   D2A49492  40.962  25.115   6.540
 3814POPC   C3A49493  41.034  25.346   6.886
 3814POPC   C4A49494  40.762  25.297   7.254
 3814POPC   C1B49495  40.501  25.116   6.246
 3814POPC   C2B49496  40.527  24.793   6.600
 3814POPC   C3B49497  40.599  24.820   7.070
 3814POPC   C4B49498  40.542  24.873   7.537
 3815POPC   NC349499  43.477  39.472   5.451
 3815POPC   PO449500  43.077  39.002   5.129
 3815POPC   GL149501  43.030  39.205   5.617
 3815POPC   GL249502  42.682  39.233   5.737
 3815POPC   C1A49503  43.180  39.287   6.100
 3815POPC   D2A49504  43.369  39.253   6.552
 3815POPC   C3A49505  43.209  39.345   6.985
 3815POPC   C4A49506  43.342  39.144   7.403
 3815POPC   C1B49507  42.700  39.102   6.175
 3815POPC   C2B49508  42.852  39.295   6.551
 3815POPC   C3B49509  42.681  39.178   6.935
 3815POPC   C4B49510  42.836  39.257   7.309
 3816POPC   NC349511  38.953  22.275   5.443
 3816POPC   PO449512  39.646  22.420   5.351
 3816POPC   GL149513  39.465  22.341   5.789
 3816POPC   GL249514  39.262  22.070   5.791
 3816POPC   C1A49515  39.161  22.372   6.183
 3816POPC   D2A49516  39.286  22.415   6.641
 3816POPC   C3A49517  39.072  22.257   7.002
 3816POPC   C4A49518  39.367  22.172   7.334
 3816POPC   C1B49519  39.328  21.893   6.179
 3816POPC   C2B49520  39.221  21.914   6.599
 3816POPC   C3B49521  39.172  21.753   7.009
 3816POPC   C4B49522  39.347  21.669   7.409
 3817POPC   NC349523   6.769   6.778   5.255
 3817POPC   PO449524   6.360   6.253   5.341
 3817POPC   GL149525   6.418   6.590   5.712
 3817POPC   GL249526   6.328   6.960   5.669
 3817POPC   C1A49527   6.736   6.655   6.096
 3817POPC   D2A49528   6.943   6.796   6.546
 3817POPC   C3A49529   6.923   6.601   6.985
 3817POPC   C4A49530   7.011   6.221   7.204
 3817POPC   C1B49531   6.440   7.059   6.088
 3817POPC   C2B49532   6.451   6.873   6.478
 3817POPC   C3B49533   6.537   6.929   6.881
 3817POPC   C4B49534   6.559   6.856   7.278
 3818POPC   NC349535  36.756  18.540   5.244
 3818POPC   PO449536  36.810  17.934   5.315
 3818POPC   GL149537  36.908  18.185   5.696
 3818POPC   GL249538  36.902  18.527   5.756
 3818POPC   C1A49539  36.861  18.273   6.172
 3818POPC   D2A49540  36.772  18.513   6.550
 3818POPC   C3A49541  36.909  18.199   6.814
 3818POPC   C4A49542  37.073  18.197   7.199
 3818POPC   C1B49543  37.234  18.611   6.095
 3818POPC   C2B49544  37.287  18.436   6.515
 3818POPC   C3B49545  37.135  18.655   6.907
 3818POPC   C4B49546  37.086  18.726   7.342
 3819POPC   NC349547   7.663  14.057   5.411
 3819POPC   PO449548   7.244  13.560   5.191
 3819POPC   GL149549   7.410  13.533   5.645
 3819POPC   GL249550   7.706  13.704   5.776
 3819POPC   C1A49551   7.369  13.394   6.058
 3819POPC   D2A49552   7.251  13.504   6.477
 3819POPC   C3A49553   7.443  13.611   6.856
 3819POPC   C4A49554   7.300  13.407   7.230
 3819POPC   C1B49555   7.547  13.835   6.207
 3819POPC   C2B49556   7.472  14.097   6.527
 3819POPC   C3B49557   7.405  14.111   6.961
 3819POPC   C4B49558   7.363  13.906   7.323
 3820POPC   NC349559  36.499  34.584   5.606
 3820POPC   PO449560  36.795  34.055   5.145
 3820POPC   GL149561  37.052  34.197   5.633
 3820POPC   GL249562  36.818  34.310   5.840
 3820POPC   C1A49563  37.210  34.428   6.090
 3820POPC   D2A49564  37.087  34.724   6.439
 3820POPC   C3A49565  37.203  34.577   6.859
 3820POPC   C4A49566  37.139  34.704   7.259
 3820POPC   C1B49567  36.654  34.221   6.236
 3820POPC   C2B49568  36.755  34.376   6.637
 3820POPC   C3B49569  36.762  34.397   7.074
 3820POPC   C4B49570  36.687  34.045   7.277
 3821POPC   NC349571   1.453  13.433   5.548
 3821POPC   PO449572   1.140  12.828   5.459
 3821POPC   GL149573   1.353  12.880   5.847
 3821POPC   GL249574   1.087  13.095   5.960
 3821POPC   C1A49575   1.497  12.982   6.273
 3821POPC   D2A49576   1.356  12.832   6.683
 3821POPC   C3A49577   1.521  12.986   7.059
 3821POPC   C4A49578   1.480  12.913   7.469
 3821POPC   C1B49579   0.926  12.873   6.326
 3821POPC   C2B49580   0.864  12.946   6.751
 3821POPC   C3B49581   0.831  12.819   7.173
 3821POPC   C4B49582   0.853  12.433   7.399
 3822POPC   NC349583   3.587  18.849   5.454
 3822POPC   PO449584   3.564  19.467   5.673
 3822POPC   GL149585   3.753  19.225   5.993
 3822POPC   GL249586   3.660  18.866   5.974
 3822POPC   C1A49587   3.691  19.115   6.434
 3822POPC   D2A49588   3.376  19.150   6.752
 3822POPC   C3A49589   3.662  19.250   7.086
 3822POPC   C4A49590   3.872  18.970   7.387
 3822POPC   C1B49591   3.296  18.817   6.293
 3822POPC   C2B49592   3.273  18.608   6.716
 3822POPC   C3B49593   3.458  18.782   7.116
 3822POPC   C4B49594   3.367  19.065   7.489
 3823POPC   NC349595   5.621  39.363   5.463
 3823POPC   PO449596   6.068  38.848   5.563
 3823POPC   GL149597   5.942  39.092   5.910
 3823POPC   GL249598   5.580  39.074   5.899
 3823POPC   C1A49599   6.081  39.342   6.289
 3823POPC   D2A49600   5.981  39.515   6.709
 3823POPC   C3A49601   6.129  39.295   7.098
 3823POPC   C4A49602   6.150  39.317   7.542
 3823POPC   C1B49603   5.633  39.084   6.344
 3823POPC   C2B49604   5.498  39.315   6.676
 3823POPC   C3B49605   5.624  39.384   7.090
 3823POPC   C4B49606   5.693  39.127   7.417
 3824POPC   NC349607  41.700   0.081   5.512
 3824POPC   PO449608  41.484   0.625   5.318
 3824POPC   GL149609  41.627   0.558   5.784
 3824POPC   GL249610  41.710   0.246   5.976
 3824POPC   C1A49611  41.580   0.640   6.253
 3824POPC   D2A49612  41.378   0.469   6.611
 3824POPC   C3A49613  41.523   0.466   7.030
 3824POPC   C4A49614  41.519   0.769   7.362
 3824POPC   C1B49615  41.729   0.132   6.402
 3824POPC   C2B49616  41.845   0.000   6.826
 3824POPC   C3B49617  41.572  44.913   7.188
 3824POPC   C4B49618  41.321  44.998   7.584
 3825POPC   NC349619  35.538  42.150   5.277
 3825POPC   PO449620  35.071  42.589   5.324
 3825POPC   GL149621  35.054  42.309   5.697
 3825POPC   GL249622  35.348  42.085   5.754
 3825POPC   C1A49623  35.165  42.340   6.164
 3825POPC   D2A49624  35.419  42.559   6.505
 3825POPC   C3A49625  35.361  42.404   6.943
 3825POPC   C4A49626  35.578  42.397   7.350
 3825POPC   C1B49627  35.476  41.903   6.152
 3825POPC   C2B49628  35.492  42.062   6.575
 3825POPC   C3B49629  35.661  41.989   6.994
 3825POPC   C4B49630  35.370  41.931   7.327
 3826POPC   NC349631   5.412  16.150   5.461
 3826POPC   PO449632   4.906  15.801   5.653
 3826POPC   GL149633   5.246  15.888   5.867
 3826POPC   GL249634   5.490  15.669   5.763
 3826POPC   C1A49635   5.227  16.102   6.226
 3826POPC   D2A49636   4.992  16.152   6.580
 3826POPC   C3A49637   5.162  16.084   6.989
 3826POPC   C4A49638   4.958  16.160   7.380
 3826POPC   C1B49639   5.401  15.592   6.235
 3826POPC   C2B49640   5.399  15.776   6.645
 3826POPC   C3B49641   5.335  15.571   7.051
 3826POPC   C4B49642   5.121  15.657   7.425
 3827POPC   NC349643  34.836  34.804   5.527
 3827POPC   PO449644  34.140  34.899   5.555
 3827POPC   GL149645  34.433  34.774   5.881
 3827POPC   GL249646  34.703  34.494   5.897
 3827POPC   C1A49647  34.707  34.944   6.172
 3827POPC   D2A49648  34.845  34.860   6.567
 3827POPC   C3A49649  34.570  34.846   6.876
 3827POPC   C4A49650  34.603  34.907   7.298
 3827POPC   C1B49651  34.518  34.484   6.314
 3827POPC   C2B49652  34.416  34.351   6.722
 3827POPC   C3B49653  34.757  34.388   7.010
 3827POPC   C4B49654  34.871  34.495   7.400
 3828POPC   NC349655  10.540  19.879   5.500
 3828POPC   PO449656  10.072  19.423   5.663
 3828POPC   GL149657  10.446  19.678   5.942
 3828POPC   GL249658  10.752  19.985   5.935
 3828POPC   C1A49659  10.495  19.873   6.340
 3828POPC   D2A49660  10.556  20.195   6.616
 3828POPC   C3A49661  10.549  19.919   6.941
 3828POPC   C4A49662  10.512  19.702   7.300
 3828POPC   C1B49663  10.952  20.250   6.293
 3828POPC   C2B49664  11.030  20.319   6.771
 3828POPC   C3B49665  10.962  20.091   7.170
 3828POPC   C4B49666  10.680  20.127   7.567
 3829POPC   NC349667  38.148  26.358   5.462
 3829POPC   PO449668  38.823  26.612   5.452
 3829POPC   GL149669  38.588  26.308   5.804
 3829POPC   GL249670  38.630  25.939   5.909
 3829POPC   C1A49671  38.192  26.127   6.085
 3829POPC   D2A49672  37.936  25.917   6.410
 3829POPC   C3A49673  38.025  25.912   6.860
 3829POPC   C4A49674  38.281  26.113   7.195
 3829POPC   C1B49675  38.564  25.966   6.390
 3829POPC   C2B49676  38.656  26.146   6.802
 3829POPC   C3B49677  38.751  25.931   7.195
 3829POPC   C4B49678  38.661  26.065   7.613
 3830POPC   NC349679  26.623  11.626   5.513
 3830POPC   PO449680  27.118  11.188   5.452
 3830POPC   GL149681  26.966  10.997   5.817
 3830POPC   GL249682  26.696  11.258   5.900
 3830POPC   C1A49683  26.862  10.902   6.219
 3830POPC   D2A49684  26.681  11.248   6.470
 3830POPC   C3A49685  26.638  11.095   6.903
 3830POPC   C4A49686  26.816  10.802   7.184
 3830POPC   C1B49687  26.846  11.639   6.128
 3830POPC   C2B49688  27.056  11.737   6.489
 3830POPC   C3B49689  26.965  11.529   6.853
 3830POPC   C4B49690  26.673  11.531   7.175
 3831POPC   NC349691   8.754  18.265   5.297
 3831POPC   PO449692   9.203  18.635   5.378
 3831POPC   GL149693   9.021  18.378   5.728
 3831POPC   GL249694   8.763  18.523   5.949
 3831POPC   C1A49695   8.975  18.090   6.102
 3831POPC   D2A49696   8.864  18.236   6.499
 3831POPC   C3A49697   9.068  18.082   6.842
 3831POPC   C4A49698   9.003  17.883   7.203
 3831POPC   C1B49699   9.166  18.595   6.194
 3831POPC   C2B49700   9.287  18.515   6.626
 3831POPC   C3B49701   9.011  18.586   6.960
 3831POPC   C4B49702   9.138  18.698   7.358
 3832POPC   NC349703   3.170  13.476   5.465
 3832POPC   PO449704   3.684  13.886   5.491
 3832POPC   GL149705   3.776  13.603   5.823
 3832POPC   GL249706   3.427  13.586   5.881
 3832POPC   C1A49707   3.784  13.596   6.291
 3832POPC   D2A49708   3.555  13.842   6.651
 3832POPC   C3A49709   3.720  13.852   7.084
 3832POPC   C4A49710   3.614  14.014   7.507
 3832POPC   C1B49711   3.263  13.665   6.263
 3832POPC   C2B49712   3.141  13.495   6.649
 3832POPC   C3B49713   3.297  13.548   7.056
 3832POPC   C4B49714   3.661  13.305   7.126
 3833POPC   NC349715  35.481  40.447   5.545
 3833POPC   PO449716  35.137  41.018   5.474
 3833POPC   GL149717  35.236  40.790   5.839
 3833POPC   GL249718  34.997  40.634   5.920
 3833POPC   C1A49719  35.461  40.787   6.233
 3833POPC   D2A49720  35.374  41.084   6.557
 3833POPC   C3A49721  35.281  41.013   6.964
 3833POPC   C4A49722  35.543  40.741   7.160
 3833POPC   C1B49723  35.061  40.496   6.305
 3833POPC   C2B49724  35.259  40.559   6.689
 3833POPC   C3B49725  35.048  40.577   7.073
 3833POPC   C4B49726  35.203  40.472   7.450
 3834POPC   NC349727   8.832  17.277   5.434
 3834POPC   PO449728   9.051  17.920   5.435
 3834POPC   GL149729   8.863  17.676   5.788
 3834POPC   GL249730   8.486  17.577   5.769
 3834POPC   C1A49731   9.048  17.496   6.199
 3834POPC   D2A49732   9.352  17.468   6.575
 3834POPC   C3A49733   9.211  17.332   7.006
 3834POPC   C4A49734   9.071  17.451   7.445
 3834POPC   C1B49735   8.583  17.734   6.207
 3834POPC   C2B49736   8.811  17.711   6.608
 3834POPC   C3B49737   8.726  17.490   6.994
 3834POPC   C4B49738   8.588  17.581   7.394
 3835POPC   NC349739  36.774  16.251   5.490
 3835POPC   PO449740  37.257  15.803   5.552
 3835POPC   GL149741  37.034  15.978   5.860
 3835POPC   GL249742  36.737  15.772   5.747
 3835POPC   C1A49743  37.084  15.999   6.316
 3835POPC   D2A49744  37.137  15.682   6.622
 3835POPC   C3A49745  37.073  15.812   7.034
 3835POPC   C4A49746  37.028  16.194   7.270
 3835POPC   C1B49747  36.599  15.990   6.131
 3835POPC   C2B49748  36.630  15.918   6.566
 3835POPC   C3B49749  36.511  15.967   7.008
 3835POPC   C4B49750  36.690  15.783   7.367
 3836POPC   NC349751   0.055  12.468   5.425
 3836POPC   PO449752  44.733  11.819   5.262
 3836POPC   GL149753  44.533  11.954   5.672
 3836POPC   GL249754  44.643  12.295   5.773
 3836POPC   C1A49755  44.640  11.933   6.167
 3836POPC   D2A49756  44.838  12.017   6.623
 3836POPC   C3A49757  44.571  12.002   7.057
 3836POPC   C4A49758  44.540  11.984   7.565
 3836POPC   C1B49759  44.994  12.335   6.110
 3836POPC   C2B49760   0.115  12.459   6.543
 3836POPC   C3B49761  44.929  12.400   6.982
 3836POPC   C4B49762  44.996  12.070   7.322
 3837POPC   NC349763  35.237   9.613   5.259
 3837POPC   PO449764  35.483   9.933   5.818
 3837POPC   GL149765  35.189   9.671   6.000
 3837POPC   GL249766  35.042   9.477   5.752
 3837POPC   C1A49767  34.977   9.807   6.372
 3837POPC   D2A49768  35.161  10.103   6.661
 3837POPC   C3A49769  35.506   9.956   6.927
 3837POPC   C4A49770  35.522   9.695   7.264
 3837POPC   C1B49771  34.830   9.326   6.137
 3837POPC   C2B49772  34.940   9.329   6.556
 3837POPC   C3B49773  35.199   9.477   6.870
 3837POPC   C4B49774  35.248   9.252   7.258
 3838POPC   NC349775   2.113  34.182   5.329
 3838POPC   PO449776   2.182  33.539   5.550
 3838POPC   GL149777   1.916  33.644   5.862
 3838POPC   GL249778   1.956  34.003   5.780
 3838POPC   C1A49779   1.989  33.638   6.318
 3838POPC   D2A49780   1.982  33.402   6.710
 3838POPC   C3A49781   1.918  33.704   7.052
 3838POPC   C4A49782   1.675  33.649   7.418
 3838POPC   C1B49783   2.261  33.989   6.076
 3838POPC   C2B49784   2.399  34.025   6.489
 3838POPC   C3B49785   2.365  34.172   6.895
 3838POPC   C4B49786   2.305  34.054   7.295
 3839POPC   NC349787  15.916  40.305   5.244
 3839POPC   PO449788  15.955  40.977   5.204
 3839POPC   GL149789  15.846  40.750   5.658
 3839POPC   GL249790  15.914  41.017   5.897
 3839POPC   C1A49791  15.968  40.572   6.138
 3839POPC   D2A49792  15.865  40.500   6.600
 3839POPC   C3A49793  16.124  40.651   6.964
 3839POPC   C4A49794  16.091  40.549   7.407
 3839POPC   C1B49795  15.660  40.941   6.297
 3839POPC   C2B49796  15.529  40.852   6.731
 3839POPC   C3B49797  15.681  40.827   7.171
 3839POPC   C4B49798  15.914  41.030   7.511
 3840POPC   NC349799  44.372  20.671   5.526
 3840POPC   PO449800   0.052  20.521   5.419
 3840POPC   GL149801  44.810  20.500   5.772
 3840POPC   GL249802  44.771  20.873   5.774
 3840POPC   C1A49803  44.934  20.423   6.192
 3840POPC   D2A49804   0.070  20.310   6.595
 3840POPC   C3A49805  44.767  20.319   6.913
 3840POPC   C4A49806  44.858  20.392   7.333
 3840POPC   C1B49807  44.612  20.808   6.176
 3840POPC   C2B49808  44.814  20.749   6.581
 3840POPC   C3B49809  44.799  20.821   7.032
 3840POPC   C4B49810  44.484  20.794   7.356
 3841POPC   NC349811  43.843  28.277   5.188
 3841POPC   PO449812  44.214  28.464   5.626
 3841POPC   GL149813  43.853  28.458   5.876
 3841POPC   GL249814  43.673  28.187   5.730
 3841POPC   C1A49815  43.634  28.537   6.279
 3841POPC   D2A49816  43.729  28.762   6.665
 3841POPC   C3A49817  43.679  28.643   7.103
 3841POPC   C4A49818  43.917  28.454   7.445
 3841POPC   C1B49819  43.811  28.031   6.172
 3841POPC   C2B49820  44.034  28.015   6.563
 3841POPC   C3B49821  43.895  28.163   6.966
 3841POPC   C4B49822  43.719  28.002   7.355
 3842POPC   NC349823   2.398  44.481   5.236
 3842POPC   PO449824   2.778   0.054   5.331
 3842POPC   GL149825   2.803  44.715   5.698
 3842POPC   GL249826   2.506  44.469   5.747
 3842POPC   C1A49827   2.864  44.478   6.121
 3842POPC   D2A49828   2.817  44.273   6.536
 3842POPC   C3A49829   2.739  44.497   6.921
 3842POPC   C4A49830   2.976  44.541   7.280
 3842POPC   C1B49831   2.461  44.815   6.069
 3842POPC   C2B49832   2.563  44.816   6.517
 3842POPC   C3B49833   2.402  44.902   6.934
 3842POPC   C4B49834   2.588  44.844   7.326
 3843POPC   NC349835  22.806   3.197   5.470
 3843POPC   PO449836  22.984   2.515   5.495
 3843POPC   GL149837  22.793   2.666   5.870
 3843POPC   GL249838  23.022   2.922   5.856
 3843POPC   C1A49839  22.810   2.745   6.319
 3843POPC   D2A49840  22.812   2.609   6.756
 3843POPC   C3A49841  22.662   2.541   7.174
 3843POPC   C4A49842  22.611   2.853   7.489
 3843POPC   C1B49843  23.255   2.619   6.124
 3843POPC   C2B49844  23.233   2.465   6.519
 3843POPC   C3B49845  23.288   2.535   6.958
 3843POPC   C4B49846  23.104   2.727   7.349
 3844POPC   NC349847  23.785  27.913   5.248
 3844POPC   PO449848  23.640  27.251   5.262
 3844POPC   GL149849  23.646  27.308   5.702
 3844POPC   GL249850  23.984  27.390   5.823
 3844POPC   C1A49851  23.547  27.547   6.075
 3844POPC   D2A49852  23.707  27.678   6.451
 3844POPC   C3A49853  23.535  27.515   6.817
 3844POPC   C4A49854  23.668  27.752   7.126
 3844POPC   C1B49855  24.111  27.378   6.279
 3844POPC   C2B49856  24.049  27.401   6.732
 3844POPC   C3B49857  23.988  27.367   7.155
 3844POPC   C4B49858  24.140  27.186   7.505
 3845POPC   NC349859  16.632  26.567   5.573
 3845POPC   PO449860  17.120  26.938   5.279
 3845POPC   GL149861  17.020  26.842   5.753
 3845POPC   GL249862  16.667  26.982   5.874
 3845POPC   C1A49863  16.978  26.788   6.236
 3845POPC   D2A49864  16.988  27.021   6.669
 3845POPC   C3A49865  16.849  26.802   7.067
 3845POPC   C4A49866  16.870  26.645   7.502
 3845POPC   C1B49867  16.448  26.864   6.275
 3845POPC   C2B49868  16.494  26.653   6.683
 3845POPC   C3B49869  16.307  26.753   7.077
 3845POPC   C4B49870  16.337  27.090   7.399
 3846POPC   NC349871  23.207  31.243   5.339
 3846POPC   PO449872  22.776  31.705   5.522
 3846POPC   GL149873  23.028  31.667   5.859
 3846POPC   GL249874  23.007  31.304   5.866
 3846POPC   C1A49875  23.046  31.868   6.267
 3846POPC   D2A49876  22.823  31.785   6.667
 3846POPC   C3A49877  23.097  31.680   7.018
 3846POPC   C4A49878  22.949  31.638   7.475
 3846POPC   C1B49879  22.789  31.421   6.269
 3846POPC   C2B49880  22.607  31.269   6.663
 3846POPC   C3B49881  22.735  31.331   7.048
 3846POPC   C4B49882  23.158  31.221   7.256
 3847POPC   NC349883  21.390  15.613   5.518
 3847POPC   PO449884  21.429  15.005   5.267
 3847POPC   GL149885  21.360  15.121   5.695
 3847POPC   GL249886  21.663  15.287   5.843
 3847POPC   C1A49887  21.266  15.046   6.132
 3847POPC   D2A49888  21.224  15.210   6.544
 3847POPC   C3A49889  21.407  14.985   6.860
 3847POPC   C4A49890  21.345  14.986   7.279
 3847POPC   C1B49891  21.523  15.489   6.239
 3847POPC   C2B49892  21.564  15.580   6.696
 3847POPC   C3B49893  21.554  15.451   7.137
 3847POPC   C4B49894  21.702  15.325   7.533
 3848POPC   NC349895  43.579  18.124   5.622
 3848POPC   PO449896  43.945  18.562   5.281
 3848POPC   GL149897  44.017  18.385   5.734
 3848POPC   GL249898  43.778  18.320   6.035
 3848POPC   C1A49899  44.257  18.409   6.133
 3848POPC   D2A49900  44.193  18.455   6.580
 3848POPC   C3A49901  44.249  18.103   6.870
 3848POPC   C4A49902  44.213  18.273   7.259
 3848POPC   C1B49903  43.707  17.995   6.302
 3848POPC   C2B49904  43.748  18.193   6.686
 3848POPC   C3B49905  43.757  18.386   7.065
 3848POPC   C4B49906  43.576  18.004   7.231
 3849POPC   NC349907  24.353  11.464   5.354
 3849POPC   PO449908  23.749  11.438   5.243
 3849POPC   GL149909  23.666  11.311   5.688
 3849POPC   GL249910  23.969  11.385   5.904
 3849POPC   C1A49911  23.536  11.325   6.157
 3849POPC   D2A49912  23.555  11.481   6.604
 3849POPC   C3A49913  23.396  11.203   6.938
 3849POPC   C4A49914  23.493  10.930   7.291
 3849POPC   C1B49915  23.990  11.269   6.399
 3849POPC   C2B49916  23.908  11.167   6.875
 3849POPC   C3B49917  24.003  11.071   7.342
 3849POPC   C4B49918  23.784  10.969   7.746
 3850POPC   NC349919   6.152  40.463   5.597
 3850POPC   PO449920   5.846  39.814   5.428
 3850POPC   GL149921   6.070  39.977   5.765
 3850POPC   GL249922   5.769  40.151   5.860
 3850POPC   C1A49923   6.062  39.885   6.222
 3850POPC   D2A49924   5.893  40.038   6.620
 3850POPC   C3A49925   6.070  39.931   6.996
 3850POPC   C4A49926   5.929  39.728   7.351
 3850POPC   C1B49927   5.637  40.323   6.286
 3850POPC   C2B49928   5.477  40.321   6.713
 3850POPC   C3B49929   5.684  40.259   7.114
 3850POPC   C4B49930   6.097  40.446   7.163
 3851POPC   NC349931  39.108   3.094   5.050
 3851POPC   PO449932  39.144   2.501   5.404
 3851POPC   GL149933  39.181   2.678   5.815
 3851POPC   GL249934  38.882   2.730   5.956
 3851POPC   C1A49935  39.325   2.922   6.171
 3851POPC   D2A49936  39.371   2.809   6.614
 3851POPC   C3A49937  39.389   3.031   6.992
 3851POPC   C4A49938  39.398   2.869   7.407
 3851POPC   C1B49939  38.901   2.734   6.389
 3851POPC   C2B49940  38.855   2.753   6.807
 3851POPC   C3B49941  38.936   2.891   7.171
 3851POPC   C4B49942  38.934   2.591   7.418
 3852POPC   NC349943   9.336  19.072   5.396
 3852POPC   PO449944   8.700  18.852   5.383
 3852POPC   GL149945   8.701  18.997   5.807
 3852POPC   GL249946   9.061  18.945   5.814
 3852POPC   C1A49947   8.759  18.946   6.264
 3852POPC   D2A49948   8.715  19.256   6.579
 3852POPC   C3A49949   8.583  19.180   7.002
 3852POPC   C4A49950   8.732  18.983   7.396
 3852POPC   C1B49951   9.234  19.156   6.185
 3852POPC   C2B49952   9.194  19.042   6.618
 3852POPC   C3B49953   9.091  19.094   7.026
 3852POPC   C4B49954   9.324  19.178   7.368
 3853POPC   NC349955  13.626  34.432   5.382
 3853POPC   PO449956  14.010  34.990   5.395
 3853POPC   GL149957  13.742  34.804   5.774
 3853POPC   GL249958  13.494  34.535   5.868
 3853POPC   C1A49959  13.782  34.777   6.241
 3853POPC   D2A49960  13.959  34.939   6.650
 3853POPC   C3A49961  13.813  34.739   7.033
 3853POPC   C4A49962  13.472  34.765   7.333
 3853POPC   C1B49963  13.298  34.559   6.291
 3853POPC   C2B49964  13.400  34.447   6.732
 3853POPC   C3B49965  13.185  34.315   7.102
 3853POPC   C4B49966  13.236  34.360   7.564
 3854POPC   NC349967   6.879   3.103   5.174
 3854POPC   PO449968   6.292   3.003   5.442
 3854POPC   GL149969   6.608   2.863   5.764
 3854POPC   GL249970   6.947   2.642   5.763
 3854POPC   C1A49971   6.644   2.621   6.177
 3854POPC   D2A49972   6.740   2.392   6.543
 3854POPC   C3A49973   6.660   2.613   6.901
 3854POPC   C4A49974   6.540   2.636   7.320
 3854POPC   C1B49975   7.212   2.795   6.130
 3854POPC   C2B49976   7.116   2.962   6.560
 3854POPC   C3B49977   7.190   2.872   6.995
 3854POPC   C4B49978   7.045   3.021   7.423
 3855POPC   NC349979  41.992  41.549   5.179
 3855POPC   PO449980  42.323  42.069   5.445
 3855POPC   GL149981  42.258  41.680   5.722
 3855POPC   GL249982  42.537  41.584   5.963
 3855POPC   C1A49983  42.082  41.665   6.170
 3855POPC   D2A49984  42.290  41.542   6.553
 3855POPC   C3A49985  42.116  41.576   6.971
 3855POPC   C4A49986  42.332  41.610   7.363
 3855POPC   C1B49987  42.611  41.203   6.207
 3855POPC   C2B49988  42.564  41.084   6.622
 3855POPC   C3B49989  42.574  41.363   6.960
 3855POPC   C4B49990  42.669  41.234   7.353
 3856POPC   NC349991  40.472  14.068   5.471
 3856POPC   PO449992  39.773  14.014   5.589
 3856POPC   GL149993  40.171  13.849   5.853
 3856POPC   GL249994  40.273  14.183   5.922
 3856POPC   C1A49995  40.284  13.605   6.246
 3856POPC   D2A49996  39.925  13.536   6.574
 3856POPC   C3A49997  39.945  13.365   7.011
 3856POPC   C4A49998  40.149  13.476   7.409
 3856POPC   C1B49999  40.186  14.108   6.350
 3856POPC   C2B50000  40.362  13.877   6.699
 3856POPC   C3B50001  40.148  13.867   7.087
 3856POPC   C4B50002  39.731  13.790   7.268
 3857POPC   NC350003  13.445  20.108   5.477
 3857POPC   PO450004  14.128  19.888   5.462
 3857POPC   GL150005  13.788  19.854   5.774
 3857POPC   GL250006  13.895  19.598   5.971
 3857POPC   C1A50007  13.557  19.922   6.183
 3857POPC   D2A50008  13.774  20.018   6.577
 3857POPC   C3A50009  13.587  20.136   6.963
 3857POPC   C4A50010  13.279  19.991   7.255
 3857POPC   C1B50011  13.822  19.519   6.379
 3857POPC   C2B50012  13.646  19.542   6.753
 3857POPC   C3B50013  13.834  19.417   7.084
 3857POPC   C4B50014  13.617  19.638   7.357
 3858POPC   NC350015  40.417   0.863   5.500
 3858POPC   PO450016  41.033   1.118   5.192
 3858POPC   GL150017  40.965   1.226   5.685
 3858POPC   GL250018  40.592   1.273   5.798
 3858POPC   C1A50019  40.961   1.317   6.171
 3858POPC   D2A50020  40.729   1.294   6.577
 3858POPC   C3A50021  40.588   1.439   7.011
 3858POPC   C4A50022  40.866   1.253   7.302
 3858POPC   C1B50023  40.608   0.948   6.150
 3858POPC   C2B50024  40.545   0.805   6.589
 3858POPC   C3B50025  40.555   0.922   7.002
 3858POPC   C4B50026  40.718   0.780   7.401
 3859POPC   NC350027  12.716  40.977   5.555
 3859POPC   PO450028  13.066  40.443   5.450
 3859POPC   GL150029  13.112  40.577   5.824
 3859POPC   GL250030  13.115  40.945   5.894
 3859POPC   C1A50031  12.878  40.498   6.207
 3859POPC   D2A50032  12.818  40.333   6.629
 3859POPC   C3A50033  12.650  40.655   6.892
 3859POPC   C4A50034  12.798  40.757   7.275
 3859POPC   C1B50035  13.355  40.724   6.230
 3859POPC   C2B50036  13.171  40.683   6.632
 3859POPC   C3B50037  13.163  40.974   6.956
 3859POPC   C4B50038  12.871  41.258   7.124
 3860POPC   NC350039   5.678  23.420   5.464
 3860POPC   PO450040   6.148  22.911   5.469
 3860POPC   GL150041   5.873  23.033   5.834
 3860POPC   GL250042   5.718  23.364   5.955
 3860POPC   C1A50043   5.973  22.991   6.267
 3860POPC   D2A50044   6.005  22.677   6.604
 3860POPC   C3A50045   6.016  22.945   6.919
 3860POPC   C4A50046   6.090  22.794   7.269
 3860POPC   C1B50047   5.673  23.459   6.374
 3860POPC   C2B50048   5.652  23.158   6.633
 3860POPC   C3B50049   5.482  23.086   6.971
 3860POPC   C4B50050   5.681  23.068   7.294
 3861POPC   NC350051  12.114  11.247   5.365
 3861POPC   PO450052  12.511  11.715   5.521
 3861POPC   GL150053  12.168  11.507   5.825
 3861POPC   GL250054  12.023  11.127   5.840
 3861POPC   C1A50055  11.847  11.468   6.168
 3861POPC   D2A50056  11.741  11.248   6.536
 3861POPC   C3A50057  11.821  11.428   6.932
 3861POPC   C4A50058  12.081  11.505   7.288
 3861POPC   C1B50059  12.221  11.035   6.237
 3861POPC   C2B50060  12.364  11.024   6.662
 3861POPC   C3B50061  12.305  11.038   7.085
 3861POPC   C4B50062  12.508  10.757   7.270
 3862POPC   NC350063   6.352  17.361   5.484
 3862POPC   PO450064   7.015  17.550   5.548
 3862POPC   GL150065   6.682  17.516   5.888
 3862POPC   GL250066   6.357  17.709   5.891
 3862POPC   C1A50067   6.700  17.662   6.341
 3862POPC   D2A50068   7.022  17.721   6.681
 3862POPC   C3A50069   6.944  17.507   7.037
 3862POPC   C4A50070   6.669  17.409   7.338
 3862POPC   C1B50071   6.220  17.484   6.258
 3862POPC   C2B50072   6.371  17.422   6.695
 3862POPC   C3B50073   6.226  17.276   7.105
 3862POPC   C4B50074   6.278  17.257   7.594
 3863POPC   NC350075   8.196  16.025   5.504
 3863POPC   PO450076   8.616  15.418   5.435
 3863POPC   GL150077   8.429  15.702   5.821
 3863POPC   GL250078   8.493  15.586   6.122
 3863POPC   C1A50079   8.217  16.011   6.206
 3863POPC   D2A50080   8.157  16.360   6.550
 3863POPC   C3A50081   8.117  16.186   6.975
 3863POPC   C4A50082   8.302  15.825   7.215
 3863POPC   C1B50083   8.094  15.521   6.320
 3863POPC   C2B50084   7.915  15.831   6.600
 3863POPC   C3B50085   7.821  15.771   7.019
 3863POPC   C4B50086   7.895  15.579   7.419
 3864POPC   NC350087  40.060  34.255   5.382
 3864POPC   PO450088  39.839  33.592   5.433
 3864POPC   GL150089  40.007  33.644   5.843
 3864POPC   GL250090  40.343  33.737   5.799
 3864POPC   C1A50091  40.089  33.767   6.266
 3864POPC   D2A50092  40.263  33.979   6.613
 3864POPC   C3A50093  39.986  34.009   6.976
 3864POPC   C4A50094  40.222  33.970   7.356
 3864POPC   C1B50095  40.495  33.455   6.157
 3864POPC   C2B50096  40.366  33.450   6.604
 3864POPC   C3B50097  40.223  33.555   7.026
 3864POPC   C4B50098  40.210  33.465   7.484
 3865POPC   NC350099  37.885   2.986   5.227
 3865POPC   PO450100  37.424   2.685   5.615
 3865POPC   GL150101  37.534   2.657   5.988
 3865POPC   GL250102  37.529   3.019   6.068
 3865POPC   C1A50103  37.648   2.626   6.382
 3865POPC   D2A50104  37.601   2.839   6.700
 3865POPC   C3A50105  37.660   2.558   6.979
 3865POPC   C4A50106  37.818   2.507   7.372
 3865POPC   C1B50107  37.911   3.118   6.329
 3865POPC   C2B50108  38.019   3.138   6.770
 3865POPC   C3B50109  37.961   2.934   7.148
 3865POPC   C4B50110  38.075   2.925   7.594
 3866POPC   NC350111  44.949  19.351   5.198
 3866POPC   PO450112  44.472  19.033   5.509
 3866POPC   GL150113  44.796  19.036   5.804
 3866POPC   GL250114  44.937  19.394   5.724
 3866POPC   C1A50115  44.623  18.997   6.239
 3866POPC   D2A50116  44.384  18.954   6.620
 3866POPC   C3A50117  44.627  19.059   6.978
 3866POPC   C4A50118  44.752  19.175   7.382
 3866POPC   C1B50119  44.996  19.343   6.160
 3866POPC   C2B50120  44.793  19.359   6.574
 3866POPC   C3B50121   0.014  19.410   6.963
 3866POPC   C4B50122   0.144  19.468   7.380
 3867POPC   NC350123  28.091  12.764   5.325
 3867POPC   PO450124  28.548  13.275   5.571
 3867POPC   GL150125  28.443  12.880   5.799
 3867POPC   GL250126  28.101  12.750   5.851
 3867POPC   C1A50127  28.535  12.842   6.240
 3867POPC   D2A50128  28.484  13.085   6.629
 3867POPC   C3A50129  28.396  12.881   7.032
 3867POPC   C4A50130  28.256  12.432   7.186
 3867POPC   C1B50131  28.021  12.949   6.271
 3867POPC   C2B50132  27.900  12.803   6.679
 3867POPC   C3B50133  27.901  12.815   7.117
 3867POPC   C4B50134  28.096  13.113   7.401
 3868POPC   NC350135  11.840  42.233   5.150
 3868POPC   PO450136  11.214  42.170   5.480
 3868POPC   GL150137  11.132  42.202   5.894
 3868POPC   GL250138  10.849  42.431   5.830
 3868POPC   C1A50139  11.418  42.286   6.254
 3868POPC   D2A50140  11.620  42.405   6.662
 3868POPC   C3A50141  11.492  42.242   7.092
 3868POPC   C4A50142  11.540  42.352   7.557
 3868POPC   C1B50143  10.948  42.526   6.251
 3868POPC   C2B50144  11.053  42.299   6.628
 3868POPC   C3B50145  11.012  42.439   7.035
 3868POPC   C4B50146  11.085  42.203   7.403
 3869POPC   NC350147  21.541  42.392   5.424
 3869POPC   PO450148  21.056  42.153   5.550
 3869POPC   GL150149  21.121  42.469   5.857
 3869POPC   GL250150  21.476  42.535   5.887
 3869POPC   C1A50151  21.157  42.393   6.272
 3869POPC   D2A50152  21.407  42.337   6.614
 3869POPC   C3A50153  21.283  42.462   7.021
 3869POPC   C4A50154  21.507  42.148   7.300
 3869POPC   C1B50155  21.504  42.761   6.216
 3869POPC   C2B50156  21.366  42.846   6.608
 3869POPC   C3B50157  21.714  42.675   6.864
 3869POPC   C4B50158  21.680  42.626   7.305
 3870POPC   NC350159   8.791  21.661   5.543
 3870POPC   PO450160   9.205  21.150   5.455
 3870POPC   GL150161   9.084  21.258   5.872
 3870POPC   GL250162   9.153  21.632   5.946
 3870POPC   C1A50163   8.802  21.402   6.217
 3870POPC   D2A50164   8.948  21.604   6.574
 3870POPC   C3A50165   8.790  21.581   6.973
 3870POPC   C4A50166   8.713  21.265   7.251
 3870POPC   C1B50167   9.363  21.403   6.292
 3870POPC   C2B50168   9.489  21.289   6.713
 3870POPC   C3B50169   9.307  21.584   6.969
 3870POPC   C4B50170   9.107  21.830   7.285
 3871POPC   NC350171  26.480  29.212   5.561
 3871POPC   PO450172  26.087  28.712   5.212
 3871POPC   GL150173  26.037  28.694   5.701
 3871POPC   GL250174  26.259  28.892   5.896
 3871POPC   C1A50175  25.840  28.758   6.166
 3871POPC   D2A50176  25.828  28.984   6.638
 3871POPC   C3A50177  26.077  29.056   7.042
 3871POPC   C4A50178  25.963  29.407   7.316
 3871POPC   C1B50179  26.162  29.152   6.264
 3871POPC   C2B50180  26.306  29.288   6.664
 3871POPC   C3B50181  26.440  29.465   7.077
 3871POPC   C4B50182  26.427  29.580   7.513
 3872POPC   NC350183  30.979   5.384   5.530
 3872POPC   PO450184  30.761   4.795   5.405
 3872POPC   GL150185  30.631   4.903   5.876
 3872POPC   GL250186  30.819   5.180   5.948
 3872POPC   C1A50187  30.656   5.015   6.380
 3872POPC   D2A50188  30.438   5.368   6.663
 3872POPC   C3A50189  30.328   5.240   7.075
 3872POPC   C4A50190  30.631   4.992   7.262
 3872POPC   C1B50191  30.874   5.457   6.286
 3872POPC   C2B50192  30.950   5.323   6.721
 3872POPC   C3B50193  30.997   5.387   7.163
 3872POPC   C4B50194  30.875   5.346   7.590
 3873POPC   NC350195  38.847   2.920   5.492
 3873POPC   PO450196  38.253   2.667   5.221
 3873POPC   GL150197  38.436   2.635   5.685
 3873POPC   GL250198  38.444   2.986   5.800
 3873POPC   C1A50199  38.424   2.653   6.188
 3873POPC   D2A50200  38.135   2.660   6.563
 3873POPC   C3A50201  38.332   2.542   6.935
 3873POPC   C4A50202  38.396   2.618   7.333
 3873POPC   C1B50203  38.661   3.149   6.168
 3873POPC   C2B50204  38.503   3.054   6.588
 3873POPC   C3B50205  38.461   3.026   7.037
 3873POPC   C4B50206  38.593   3.073   7.487
 3874POPC   NC350207  20.702  23.405   5.435
 3874POPC   PO450208  20.458  24.063   5.507
 3874POPC   GL150209  20.365  23.843   5.907
 3874POPC   GL250210  20.368  23.491   5.829
 3874POPC   C1A50211  20.571  23.864   6.318
 3874POPC   D2A50212  20.661  24.003   6.737
 3874POPC   C3A50213  20.498  23.733   7.038
 3874POPC   C4A50214  20.828  23.528   7.228
 3874POPC   C1B50215  20.482  23.323   6.235
 3874POPC   C2B50216  20.387  23.408   6.650
 3874POPC   C3B50217  20.485  23.217   7.016
 3874POPC   C4B50218  20.451  23.242   7.469
 3875POPC   NC350219  17.427  33.054   5.027
 3875POPC   PO450220  17.850  33.178   5.489
 3875POPC   GL150221  17.612  33.060   5.859
 3875POPC   GL250222  17.345  32.791   5.816
 3875POPC   C1A50223  17.661  33.289   6.261
 3875POPC   D2A50224  17.617  33.551   6.625
 3875POPC   C3A50225  17.559  33.337   7.013
 3875POPC   C4A50226  17.845  33.239   7.365
 3875POPC   C1B50227  17.224  33.013   6.230
 3875POPC   C2B50228  17.434  33.003   6.631
 3875POPC   C3B50229  17.432  32.772   6.986
 3875POPC   C4B50230  17.473  32.866   7.396
 3876POPC   NC350231  36.744  44.937   5.391
 3876POPC   PO450232  36.919  44.345   5.364
 3876POPC   GL150233  36.646  44.509   5.753
 3876POPC   GL250234  36.826  44.806   5.862
 3876POPC   C1A50235  36.537  44.643   6.227
 3876POPC   D2A50236  36.708  44.523   6.646
 3876POPC   C3A50237  36.526  44.615   7.051
 3876POPC   C4A50238  36.679  44.842   7.391
 3876POPC   C1B50239  36.758   0.123   6.182
 3876POPC   C2B50240  36.618   0.034   6.614
 3876POPC   C3B50241  36.922  44.939   6.941
 3876POPC   C4B50242  37.128   0.066   7.333
 3877POPC   NC350243  17.627   9.464   5.495
 3877POPC   PO450244  17.386   8.914   5.209
 3877POPC   GL150245  17.596   8.969   5.691
 3877POPC   GL250246  17.811   9.241   5.902
 3877POPC   C1A50247  17.693   8.840   6.168
 3877POPC   D2A50248  17.663   9.124   6.545
 3877POPC   C3A50249  17.731   8.903   6.940
 3877POPC   C4A50250  17.490   8.804   7.322
 3877POPC   C1B50251  17.373   9.277   6.104
 3877POPC   C2B50252  17.147   9.328   6.514
 3877POPC   C3B50253  17.292   9.174   6.931
 3877POPC   C4B50254  17.278   9.325   7.350
 3878POPC   NC350255  44.477   7.961   5.445
 3878POPC   PO450256   0.082   8.213   5.509
 3878POPC   GL150257  44.717   8.236   5.802
 3878POPC   GL250258  44.410   8.470   5.800
 3878POPC   C1A50259  44.626   8.095   6.195
 3878POPC   D2A50260  44.688   8.339   6.547
 3878POPC   C3A50261  44.695   8.148   6.947
 3878POPC   C4A50262  44.840   8.326   7.323
 3878POPC   C1B50263  44.202   8.379   6.235
 3878POPC   C2B50264  44.254   8.020   6.561
 3878POPC   C3B50265  44.183   8.055   7.005
 3878POPC   C4B50266  44.330   8.452   7.153
 3879POPC   NC350267  14.923  27.062   5.484
 3879POPC   PO450268  15.521  26.666   5.537
 3879POPC   GL150269  15.312  26.928   5.840
 3879POPC   GL250270  15.519  27.189   5.941
 3879POPC   C1A50271  15.337  26.862   6.304
 3879POPC   D2A50272  15.564  26.875   6.688
 3879POPC   C3A50273  15.312  26.757   7.039
 3879POPC   C4A50274  14.962  26.766   7.367
 3879POPC   C1B50275  15.114  27.291   6.174
 3879POPC   C2B50276  14.916  27.235   6.574
 3879POPC   C3B50277  14.929  27.097   6.974
 3879POPC   C4B50278  14.952  27.280   7.350
 3880POPC   NC350279  41.233  20.242   5.685
 3880POPC   PO450280  41.353  20.765   5.272
 3880POPC   GL150281  41.483  20.742   5.719
 3880POPC   GL250282  41.813  20.614   5.828
 3880POPC   C1A50283  41.408  20.746   6.172
 3880POPC   D2A50284  41.521  20.603   6.602
 3880POPC   C3A50285  41.323  20.733   6.999
 3880POPC   C4A50286  41.436  20.683   7.424
 3880POPC   C1B50287  41.955  20.744   6.266
 3880POPC   C2B50288  42.123  20.966   6.641
 3880POPC   C3B50289  42.012  20.805   7.078
 3880POPC   C4B50290  41.844  20.417   7.247
 3881POPC   NC350291  41.671  37.657   5.214
 3881POPC   PO450292  41.160  37.313   5.593
 3881POPC   GL150293  41.572  37.556   5.741
 3881POPC   GL250294  41.385  37.491   6.022
 3881POPC   C1A50295  41.710  37.819   6.159
 3881POPC   D2A50296  41.431  37.764   6.561
 3881POPC   C3A50297  41.489  37.930   6.984
 3881POPC   C4A50298  41.697  37.763   7.348
 3881POPC   C1B50299  41.381  37.221   6.341
 3881POPC   C2B50300  41.487  37.093   6.737
 3881POPC   C3B50301  41.399  37.286   7.148
 3881POPC   C4B50302  41.181  37.649   7.285
 3882POPC   NC350303  17.698  28.058   5.604
 3882POPC   PO450304  17.582  28.521   5.196
 3882POPC   GL150305  17.500  28.533   5.672
 3882POPC   GL250306  17.247  28.299   5.758
 3882POPC   C1A50307  17.584  28.425   6.141
 3882POPC   D2A50308  17.828  28.386   6.540
 3882POPC   C3A50309  17.669  28.569   6.899
 3882POPC   C4A50310  17.285  28.569   7.112
 3882POPC   C1B50311  17.158  28.124   6.164
 3882POPC   C2B50312  17.336  28.260   6.584
 3882POPC   C3B50313  17.471  28.108   7.005
 3882POPC   C4B50314  17.264  28.154   7.446
 3883POPC   NC350315  33.448  21.077   5.526
 3883POPC   PO450316  33.922  21.513   5.426
 3883POPC   GL150317  33.883  21.358   5.811
 3883POPC   GL250318  33.553  21.466   5.858
 3883POPC   C1A50319  34.025  21.174   6.196
 3883POPC   D2A50320  33.811  21.066   6.598
 3883POPC   C3A50321  33.763  21.361   6.958
 3883POPC   C4A50322  33.901  21.354   7.394
 3883POPC   C1B50323  33.576  21.388   6.272
 3883POPC   C2B50324  33.425  21.526   6.620
 3883POPC   C3B50325  33.200  21.508   6.954
 3883POPC   C4B50326  33.351  21.368   7.319
 3884POPC   NC350327  30.085   0.711   5.519
 3884POPC   PO450328  29.624   1.171   5.366
 3884POPC   GL150329  30.029   1.223   5.669
 3884POPC   GL250330  30.189   0.982   5.933
 3884POPC   C1A50331  30.088   1.447   6.091
 3884POPC   D2A50332  29.908   1.449   6.514
 3884POPC   C3A50333  29.932   1.158   6.842
 3884POPC   C4A50334  29.723   1.147   7.230
 3884POPC   C1B50335  29.977   0.845   6.326
 3884POPC   C2B50336  30.115   0.694   6.721
 3884POPC   C3B50337  30.100   0.792   7.169
 3884POPC   C4B50338  29.921   0.902   7.607
 3885POPC   NC350339  36.603  44.011   5.408
 3885POPC   PO450340  35.959  43.873   5.486
 3885POPC   GL150341  36.042  43.865   5.929
 3885POPC   GL250342  36.385  44.030   5.921
 3885POPC   C1A50343  35.837  43.932   6.355
 3885POPC   D2A50344  36.044  43.743   6.727
 3885POPC   C3A50345  35.994  43.822   7.152
 3885POPC   C4A50346  35.800  43.984   7.538
 3885POPC   C1B50347  36.385  43.870   6.365
 3885POPC   C2B50348  36.428  44.094   6.796
 3885POPC   C3B50349  36.485  43.921   7.221
 3885POPC   C4B50350  36.573  43.468   7.328
 3886POPC   NC350351   7.164  17.237   5.205
 3886POPC   PO450352   7.496  16.678   5.466
 3886POPC   GL150353   7.399  16.617   5.879
 3886POPC   GL250354   7.042  16.600   5.857
 3886POPC   C1A50355   7.377  16.882   6.245
 3886POPC   D2A50356   7.373  17.161   6.593
 3886POPC   C3A50357   7.245  16.996   6.984
 3886POPC   C4A50358   7.437  16.734   7.299
 3886POPC   C1B50359   7.135  16.438   6.275
 3886POPC   C2B50360   7.294  16.572   6.668
 3886POPC   C3B50361   7.075  16.473   7.038
 3886POPC   C4B50362   7.071  16.254   7.432
 3887POPC   NC350363  27.920   4.475   5.527
 3887POPC   PO450364  27.309   4.171   5.404
 3887POPC   GL150365  27.578   4.149   5.772
 3887POPC   GL250366  27.855   3.932   5.715
 3887POPC   C1A50367  27.646   4.408   6.128
 3887POPC   D2A50368  27.447   4.497   6.499
 3887POPC   C3A50369  27.738   4.623   6.794
 3887POPC   C4A50370  27.738   4.598   7.243
 3887POPC   C1B50371  27.930   3.975   6.154
 3887POPC   C2B50372  27.761   4.087   6.564
 3887POPC   C3B50373  27.542   4.196   6.938
 3887POPC   C4B50374  27.685   4.073   7.331
 3888POPC   NC350375  33.031  40.330   5.272
 3888POPC   PO450376  33.053  39.740   5.255
 3888POPC   GL150377  33.138  39.884   5.722
 3888POPC   GL250378  32.896  40.098   5.831
 3888POPC   C1A50379  33.103  39.792   6.196
 3888POPC   D2A50380  32.854  39.747   6.578
 3888POPC   C3A50381  33.040  39.955   6.890
 3888POPC   C4A50382  33.371  39.883   7.115
 3888POPC   C1B50383  32.698  40.119   6.240
 3888POPC   C2B50384  32.579  40.176   6.675
 3888POPC   C3B50385  32.559  39.883   7.020
 3888POPC   C4B50386  32.780  39.889   7.399
 3889POPC   NC350387  15.419  16.330   5.163
 3889POPC   PO450388  14.924  16.148   5.658
 3889POPC   GL150389  14.998  15.865   5.980
 3889POPC   GL250390  15.349  15.833   5.949
 3889POPC   C1A50391  15.027  15.934   6.395
 3889POPC   D2A50392  15.200  16.329   6.473
 3889POPC   C3A50393  15.166  16.355   6.902
 3889POPC   C4A50394  15.082  16.116   7.259
 3889POPC   C1B50395  15.542  15.980   6.298
 3889POPC   C2B50396  15.459  15.952   6.706
 3889POPC   C3B50397  15.214  15.701   6.967
 3889POPC   C4B50398  15.353  15.665   7.402
 3890POPC   NC350399  36.229   7.291   5.366
 3890POPC   PO450400  36.500   8.005   5.463
 3890POPC   GL150401  36.415   7.620   5.781
 3890POPC   GL250402  36.038   7.504   5.799
 3890POPC   C1A50403  36.311   7.351   6.203
 3890POPC   D2A50404  36.058   7.232   6.596
 3890POPC   C3A50405  36.286   7.266   6.996
 3890POPC   C4A50406  36.372   7.436   7.415
 3890POPC   C1B50407  35.793   7.439   6.195
 3890POPC   C2B50408  35.706   7.641   6.589
 3890POPC   C3B50409  35.879   7.626   7.009
 3890POPC   C4B50410  35.863   7.306   7.292
 3891POPC   NC350411  20.311   7.634   5.413
 3891POPC   PO450412  20.716   7.180   5.381
 3891POPC   GL150413  20.638   7.395   5.800
 3891POPC   GL250414  20.266   7.415   5.869
 3891POPC   C1A50415  20.807   7.351   6.246
 3891POPC   D2A50416  21.006   7.306   6.675
 3891POPC   C3A50417  20.722   7.369   7.028
 3891POPC   C4A50418  20.764   7.472   7.461
 3891POPC   C1B50419  20.378   7.092   6.153
 3891POPC   C2B50420  20.387   7.249   6.565
 3891POPC   C3B50421  20.184   7.111   6.919
 3891POPC   C4B50422  20.276   7.318   7.261
 3892POPC   NC350423   0.024  43.187   5.403
 3892POPC   PO450424   0.557  42.810   5.339
 3892POPC   GL150425   0.509  43.022   5.754
 3892POPC   GL250426   0.247  43.281   5.842
 3892POPC   C1A50427   0.595  43.029   6.209
 3892POPC   D2A50428   0.470  42.748   6.537
 3892POPC   C3A50429   0.577  42.843   6.943
 3892POPC   C4A50430   0.456  42.908   7.360
 3892POPC   C1B50431   0.267  43.426   6.247
 3892POPC   C2B50432   0.529  43.396   6.630
 3892POPC   C3B50433   0.439  43.331   7.068
 3892POPC   C4B50434   0.093  43.278   7.375
 3893POPC   NC350435  41.453  30.344   5.415
 3893POPC   PO450436  41.845  30.861   5.330
 3893POPC   GL150437  41.824  30.555   5.695
 3893POPC   GL250438  41.483  30.675   5.838
 3893POPC   C1A50439  41.772  30.377   6.142
 3893POPC   D2A50440  41.443  30.527   6.471
 3893POPC   C3A50441  41.485  30.561   6.957
 3893POPC   C4A50442  41.426  30.642   7.431
 3893POPC   C1B50443  41.424  30.973   6.215
 3893POPC   C2B50444  41.275  30.973   6.687
 3893POPC   C3B50445  41.490  31.065   7.115
 3893POPC   C4B50446  41.440  31.137   7.592
 3894POPC   NC350447  16.100  11.009   5.383
 3894POPC   PO450448  15.735  11.546   5.472
 3894POPC   GL150449  15.945  11.347   5.829
 3894POPC   GL250450  15.979  10.985   5.877
 3894POPC   C1A50451  15.859  11.287   6.272
 3894POPC   D2A50452  15.836  11.076   6.654
 3894POPC   C3A50453  15.887  11.407   6.927
 3894POPC   C4A50454  15.674  11.601   7.251
 3894POPC   C1B50455  16.070  10.787   6.277
 3894POPC   C2B50456  16.271  10.750   6.664
 3894POPC   C3B50457  16.138  10.937   7.070
 3894POPC   C4B50458  15.688  11.006   7.158
 3895POPC   NC350459   7.119  21.552   5.404
 3895POPC   PO450460   7.480  20.979   5.465
 3895POPC   GL150461   7.299  21.209   5.848
 3895POPC   GL250462   7.376  21.572   5.849
 3895POPC   C1A50463   7.277  21.131   6.329
 3895POPC   D2A50464   7.523  20.972   6.711
 3895POPC   C3A50465   7.405  21.143   7.127
 3895POPC   C4A50466   7.666  21.383   7.441
 3895POPC   C1B50467   7.459  21.625   6.290
 3895POPC   C2B50468   7.365  21.482   6.714
 3895POPC   C3B50469   7.501  21.664   7.067
 3895POPC   C4B50470   7.429  21.850   7.445
 3896POPC   NC350471  10.806  36.826   5.391
 3896POPC   PO450472  10.246  37.291   5.444
 3896POPC   GL150473  10.501  37.041   5.822
 3896POPC   GL250474  10.753  36.750   5.875
 3896POPC   C1A50475  10.397  36.910   6.282
 3896POPC   D2A50476  10.210  36.723   6.658
 3896POPC   C3A50477  10.305  36.881   7.064
 3896POPC   C4A50478  10.406  36.489   7.160
 3896POPC   C1B50479  10.903  36.903   6.236
 3896POPC   C2B50480  10.799  36.675   6.583
 3896POPC   C3B50481  10.878  36.610   7.003
 3896POPC   C4B50482  10.794  36.918   7.293
 3897POPC   NC350483  19.617  35.708   5.385
 3897POPC   PO450484  20.099  36.211   5.450
 3897POPC   GL150485  19.890  36.181   5.850
 3897POPC   GL250486  19.904  35.848   5.788
 3897POPC   C1A50487  19.871  36.396   6.271
 3897POPC   D2A50488  19.729  36.534   6.700
 3897POPC   C3A50489  19.917  36.303   7.065
 3897POPC   C4A50490  19.826  36.366   7.566
 3897POPC   C1B50491  19.695  35.795   6.192
 3897POPC   C2B50492  19.694  35.988   6.632
 3897POPC   C3B50493  19.691  35.781   7.053
 3897POPC   C4B50494  19.776  35.856   7.517
 3898POPC   NC350495  38.713  35.103   5.466
 3898POPC   PO450496  38.238  35.598   5.409
 3898POPC   GL150497  38.425  35.394   5.761
 3898POPC   GL250498  38.273  35.023   5.707
 3898POPC   C1A50499  38.569  35.522   6.181
 3898POPC   D2A50500  38.301  35.433   6.524
 3898POPC   C3A50501  38.398  35.554   6.944
 3898POPC   C4A50502  38.667  35.386   7.253
 3898POPC   C1B50503  38.411  35.013   6.115
 3898POPC   C2B50504  38.625  34.995   6.471
 3898POPC   C3B50505  38.454  35.044   6.876
 3898POPC   C4B50506  38.397  34.930   7.289
 3899POPC   NC350507  41.447   9.738   5.452
 3899POPC   PO450508  42.113   9.972   5.322
 3899POPC   GL150509  41.911   9.731   5.699
 3899POPC   GL250510  41.783  10.021   5.879
 3899POPC   C1A50511  41.671   9.495   6.077
 3899POPC   D2A50512  41.739   9.338   6.547
 3899POPC   C3A50513  41.622   9.532   6.972
 3899POPC   C4A50514  41.249   9.557   7.241
 3899POPC   C1B50515  41.423   9.950   6.171
 3899POPC   C2B50516  41.288   9.837   6.610
 3899POPC   C3B50517  41.337  10.015   7.033
 3899POPC   C4B50518  41.681  10.004   7.312
 3900POPC   NC350519  20.891  12.212   5.402
 3900POPC   PO450520  20.270  11.831   5.491
 3900POPC   GL150521  20.625  11.897   5.761
 3900POPC   GL250522  20.626  12.260   5.814
 3900POPC   C1A50523  20.583  11.943   6.211
 3900POPC   D2A50524  20.294  12.009   6.554
 3900POPC   C3A50525  20.558  12.020   6.864
 3900POPC   C4A50526  20.718  11.738   7.143
 3900POPC   C1B50527  20.926  12.315   6.119
 3900POPC   C2B50528  20.827  12.315   6.521
 3900POPC   C3B50529  20.590  12.527   6.806
 3900POPC   C4B50530  20.626  12.376   7.226
 3901POPC   NC350531  41.436   5.438   5.503
 3901POPC   PO450532  41.874   4.862   5.457
 3901POPC   GL150533  41.539   4.780   5.769
 3901POPC   GL250534  41.214   4.962   5.767
 3901POPC   C1A50535  41.457   4.863   6.211
 3901POPC   D2A50536  41.559   4.685   6.587
 3901POPC   C3A50537  41.578   4.978   6.886
 3901POPC   C4A50538  41.787   5.055   7.260
 3901POPC   C1B50539  41.186   5.276   6.117
 3901POPC   C2B50540  41.403   5.353   6.516
 3901POPC   C3B50541  41.340   5.458   6.949
 3901POPC   C4B50542  41.316   5.187   7.293
 3902POPC   NC350543  20.694   9.359   5.521
 3902POPC   PO450544  20.648   8.665   5.467
 3902POPC   GL150545  20.539   8.940   5.788
 3902POPC   GL250546  20.225   8.895   5.842
 3902POPC   C1A50547  20.427   9.210   6.163
 3902POPC   D2A50548  20.346   9.135   6.586
 3902POPC   C3A50549  20.648   8.900   6.801
 3902POPC   C4A50550  20.783   8.963   7.197
 3902POPC   C1B50551  20.101   8.734   6.234
 3902POPC   C2B50552  20.231   8.615   6.662
 3902POPC   C3B50553  20.289   8.690   7.123
 3902POPC   C4B50554  20.097   8.508   7.562
 3903POPC   NC350555  11.088   2.163   5.374
 3903POPC   PO450556  11.752   1.949   5.500
 3903POPC   GL150557  11.411   2.000   5.790
 3903POPC   GL250558  11.123   1.781   5.729
 3903POPC   C1A50559  11.471   2.096   6.226
 3903POPC   D2A50560  11.430   2.328   6.608
 3903POPC   C3A50561  11.589   2.075   6.928
 3903POPC   C4A50562  11.526   1.965   7.333
 3903POPC   C1B50563  10.980   1.908   6.143
 3903POPC   C2B50564  11.120   1.922   6.563
 3903POPC   C3B50565  11.081   2.066   6.949
 3903POPC   C4B50566  11.044   1.860   7.320
 3904POPC   NC350567  31.961  35.739   5.606
 3904POPC   PO450568  31.328  36.044   5.358
 3904POPC   GL150569  31.486  35.933   5.741
 3904POPC   GL250570  31.757  36.160   5.828
 3904POPC   C1A50571  31.362  36.017   6.152
 3904POPC   D2A50572  31.562  36.110   6.526
 3904POPC   C3A50573  31.405  36.070   6.922
 3904POPC   C4A50574  31.700  35.963   7.232
 3904POPC   C1B50575  31.694  36.437   6.159
 3904POPC   C2B50576  31.821  36.575   6.550
 3904POPC   C3B50577  31.888  36.306   6.879
 3904POPC   C4B50578  31.700  36.502   7.206
 3905POPC   NC350579  33.976  41.171   5.437
 3905POPC   PO450580  33.750  40.455   5.308
 3905POPC   GL150581  33.725  40.585   5.745
 3905POPC   GL250582  33.808  40.899   5.818
 3905POPC   C1A50583  33.569  40.653   6.185
 3905POPC   D2A50584  33.769  40.647   6.604
 3905POPC   C3A50585  33.632  40.878   6.972
 3905POPC   C4A50586  33.286  40.767   7.198
 3905POPC   C1B50587  33.928  41.032   6.204
 3905POPC   C2B50588  33.886  41.154   6.616
 3905POPC   C3B50589  34.249  41.051   6.836
 3905POPC   C4B50590  34.164  40.782   7.172
 3906POPC   NC350591  29.081  36.067   5.312
 3906POPC   PO450592  29.502  36.471   5.457
 3906POPC   GL150593  29.409  36.107   5.724
 3906POPC   GL250594  29.053  36.166   5.829
 3906POPC   C1A50595  29.386  36.005   6.176
 3906POPC   D2A50596  29.151  36.080   6.566
 3906POPC   C3A50597  29.362  35.991   6.962
 3906POPC   C4A50598  29.069  35.878   7.247
 3906POPC   C1B50599  29.179  36.491   6.173
 3906POPC   C2B50600  29.173  36.601   6.638
 3906POPC   C3B50601  29.008  36.379   7.010
 3906POPC   C4B50602  28.756  36.450   7.400
 3907POPC   NC350603  44.017  18.996   5.466
 3907POPC   PO450604  43.541  18.590   5.692
 3907POPC   GL150605  43.811  18.839   5.914
 3907POPC   GL250606  43.814  19.207   5.904
 3907POPC   C1A50607  43.973  18.842   6.309
 3907POPC   D2A50608  43.794  18.818   6.724
 3907POPC   C3A50609  44.059  19.009   7.012
 3907POPC   C4A50610  44.288  18.837   7.312
 3907POPC   C1B50611  43.532  19.135   6.258
 3907POPC   C2B50612  43.426  19.239   6.677
 3907POPC   C3B50613  43.557  19.164   7.085
 3907POPC   C4B50614  43.833  19.333   7.347
 3908POPC   NC350615  10.079  10.330   5.167
 3908POPC   PO450616   9.614  10.832   5.326
 3908POPC   GL150617   9.834  10.659   5.698
 3908POPC   GL250618   9.929  10.304   5.672
 3908POPC   C1A50619   9.738  10.722   6.158
 3908POPC   D2A50620   9.632  10.903   6.571
 3908POPC   C3A50621   9.750  10.714   6.965
 3908POPC   C4A50622   9.479  10.491   7.268
 3908POPC   C1B50623   9.743  10.214   6.066
 3908POPC   C2B50624   9.621  10.318   6.490
 3908POPC   C3B50625   9.669  10.205   6.908
 3908POPC   C4B50626   9.958  10.303   7.242
 3909POPC   NC350627  13.015   4.484   5.502
 3909POPC   PO450628  12.688   5.045   5.202
 3909POPC   GL150629  12.803   4.954   5.634
 3909POPC   GL250630  12.619   4.694   5.783
 3909POPC   C1A50631  12.874   5.087   6.059
 3909POPC   D2A50632  12.788   5.071   6.505
 3909POPC   C3A50633  12.931   5.343   6.823
 3909POPC   C4A50634  12.949   5.237   7.242
 3909POPC   C1B50635  12.346   4.687   6.147
 3909POPC   C2B50636  12.261   4.889   6.532
 3909POPC   C3B50637  12.502   4.903   6.898
 3909POPC   C4B50638  12.512   4.784   7.302
 3910POPC   NC350639   3.966  39.400   5.458
 3910POPC   PO450640   3.513  38.854   5.511
 3910POPC   GL150641   3.569  39.271   5.787
 3910POPC   GL250642   3.778  39.606   5.878
 3910POPC   C1A50643   3.489  39.354   6.228
 3910POPC   D2A50644   3.582  39.137   6.595
 3910POPC   C3A50645   3.517  39.310   6.996
 3910POPC   C4A50646   3.516  38.991   7.320
 3910POPC   C1B50647   3.994  39.526   6.268
 3910POPC   C2B50648   4.008  39.423   6.700
 3910POPC   C3B50649   3.953  39.705   7.015
 3910POPC   C4B50650   3.644  39.698   7.323
 3911POPC   NC350651  32.901  44.406   5.553
 3911POPC   PO450652  32.784   0.059   5.578
 3911POPC   GL150653  33.084  44.790   5.841
 3911POPC   GL250654  33.325  44.491   5.812
 3911POPC   C1A50655  32.997  44.550   6.226
 3911POPC   D2A50656  32.795  44.702   6.582
 3911POPC   C3A50657  32.965  44.626   6.994
 3911POPC   C4A50658  32.807  44.657   7.384
 3911POPC   C1B50659  33.428  44.249   6.183
 3911POPC   C2B50660  33.336  44.193   6.617
 3911POPC   C3B50661  33.265  44.182   7.045
 3911POPC   C4B50662  33.263  44.414   7.438
 3912POPC   NC350663   3.397   6.181   5.409
 3912POPC   PO450664   3.789   5.661   5.414
 3912POPC   GL150665   3.504   5.809   5.745
 3912POPC   GL250666   3.700   6.089   5.815
 3912POPC   C1A50667   3.306   5.884   6.158
 3912POPC   D2A50668   3.259   5.697   6.579
 3912POPC   C3A50669   3.413   5.964   6.898
 3912POPC   C4A50670   3.214   6.133   7.249
 3912POPC   C1B50671   3.830   6.316   6.227
 3912POPC   C2B50672   3.834   6.192   6.659
 3912POPC   C3B50673   3.983   6.307   7.068
 3912POPC   C4B50674   3.872   6.127   7.454
 3913POPC   NC350675   5.630  29.488   5.403
 3913POPC   PO450676   5.982  28.932   5.453
 3913POPC   GL150677   6.007  29.131   5.845
 3913POPC   GL250678   5.645  29.096   5.821
 3913POPC   C1A50679   5.875  29.161   6.298
 3913POPC   D2A50680   5.577  29.194   6.679
 3913POPC   C3A50681   5.808  29.343   7.019
 3913POPC   C4A50682   5.986  29.610   7.335
 3913POPC   C1B50683   5.583  28.735   6.115
 3913POPC   C2B50684   5.744  28.702   6.527
 3913POPC   C3B50685   5.612  28.741   6.955
 3913POPC   C4B50686   5.788  28.920   7.312
 3914POPC   NC350687  39.473   6.320   5.539
 3914POPC   PO450688  38.837   6.512   5.548
 3914POPC   GL150689  39.089   6.469   5.912
 3914POPC   GL250690  39.039   6.834   5.968
 3914POPC   C1A50691  39.304   6.495   6.337
 3914POPC   D2A50692  39.180   6.600   6.781
 3914POPC   C3A50693  39.429   6.641   7.169
 3914POPC   C4A50694  39.286   6.359   7.463
 3914POPC   C1B50695  38.721   7.062   6.203
 3914POPC   C2B50696  38.629   6.998   6.614
 3914POPC   C3B50697  38.852   6.959   6.961
 3914POPC   C4B50698  38.959   6.749   7.334
 3915POPC   NC350699  15.689   8.214   5.385
 3915POPC   PO450700  16.245   7.965   5.430
 3915POPC   GL150701  16.028   8.162   5.852
 3915POPC   GL250702  15.675   8.264   5.890
 3915POPC   C1A50703  15.969   8.298   6.343
 3915POPC   D2A50704  15.977   8.472   6.805
 3915POPC   C3A50705  16.312   8.313   7.082
 3915POPC   C4A50706  16.291   7.856   7.097
 3915POPC   C1B50707  15.474   8.125   6.278
 3915POPC   C2B50708  15.438   7.980   6.678
 3915POPC   C3B50709  15.489   8.178   7.063
 3915POPC   C4B50710  15.855   8.235   7.256
 3916POPC   NC350711   8.547  40.710   5.616
 3916POPC   PO450712   7.926  41.032   5.632
 3916POPC   GL150713   8.061  40.720   5.907
 3916POPC   GL250714   8.340  40.887   6.032
 3916POPC   C1A50715   8.168  40.555   6.346
 3916POPC   D2A50716   8.408  40.456   6.699
 3916POPC   C3A50717   8.373  40.730   7.030
 3916POPC   C4A50718   8.218  40.652   7.437
 3916POPC   C1B50719   8.021  41.050   6.333
 3916POPC   C2B50720   7.977  41.044   6.798
 3916POPC   C3B50721   8.004  41.102   7.254
 3916POPC   C4B50722   8.280  41.127   7.650
 3917POPC   NC350723  36.199  43.486   5.562
 3917POPC   PO450724  36.423  42.856   5.433
 3917POPC   GL150725  36.249  42.868   5.840
 3917POPC   GL250726  36.000  43.147   5.905
 3917POPC   C1A50727  36.352  42.998   6.257
 3917POPC   D2A50728  36.288  43.317   6.572
 3917POPC   C3A50729  36.434  43.144   6.960
 3917POPC   C4A50730  36.390  42.765   7.197
 3917POPC   C1B50731  35.886  43.436   6.251
 3917POPC   C2B50732  35.694  43.381   6.685
 3917POPC   C3B50733  35.752  43.125   7.048
 3917POPC   C4B50734  36.068  43.296   7.287
 3918POPC   NC350735  11.767   0.108   5.288
 3918POPC   PO450736  12.327   0.495   5.564
 3918POPC   GL150737  12.316   0.579   5.962
 3918POPC   GL250738  12.617   0.739   5.955
 3918POPC   C1A50739  12.024   0.482   6.309
 3918POPC   D2A50740  11.716   0.552   6.627
 3918POPC   C3A50741  11.884   0.342   7.011
 3918POPC   C4A50742  12.026   0.138   7.443
 3918POPC   C1B50743  12.566   0.610   6.413
 3918POPC   C2B50744  12.357   0.372   6.766
 3918POPC   C3B50745  12.301   0.557   7.188
 3918POPC   C4B50746  12.610   0.708   7.481
 3919POPC   NC350747  14.746   9.578   5.345
 3919POPC   PO450748  15.083  10.121   5.523
 3919POPC   GL150749  15.003   9.728   5.786
 3919POPC   GL250750  15.299   9.509   5.917
 3919POPC   C1A50751  14.826   9.679   6.199
 3919POPC   D2A50752  14.733   9.859   6.600
 3919POPC   C3A50753  15.070   9.998   6.850
 3919POPC   C4A50754  15.169   9.891   7.293
 3919POPC   C1B50755  15.228   9.400   6.324
 3919POPC   C2B50756  15.203   9.523   6.733
 3919POPC   C3B50757  15.164   9.390   7.142
 3919POPC   C4B50758  15.275   9.482   7.592
 3920POPC   NC350759  18.834   4.486   5.586
 3920POPC   PO450760  19.511   4.630   5.748
 3920POPC   GL150761  19.220   4.312   5.887
 3920POPC   GL250762  19.298   3.990   5.774
 3920POPC   C1A50763  18.955   4.145   6.234
 3920POPC   D2A50764  18.949   4.098   6.669
 3920POPC   C3A50765  18.908   4.467   6.939
 3920POPC   C4A50766  18.949   4.478   7.376
 3920POPC   C1B50767  19.442   3.906   6.183
 3920POPC   C2B50768  19.439   3.938   6.636
 3920POPC   C3B50769  19.352   4.175   7.015
 3920POPC   C4B50770  19.342   4.017   7.433
 3921POPC   NC350771  10.627   3.065   5.514
 3921POPC   PO450772  10.695   2.424   5.500
 3921POPC   GL150773  10.520   2.624   5.835
 3921POPC   GL250774  10.174   2.482   5.843
 3921POPC   C1A50775  10.563   2.727   6.273
 3921POPC   D2A50776  10.396   2.556   6.649
 3921POPC   C3A50777  10.638   2.777   6.942
 3921POPC   C4A50778  10.841   2.826   7.350
 3921POPC   C1B50779  10.079   2.846   6.131
 3921POPC   C2B50780  10.145   3.043   6.560
 3921POPC   C3B50781  10.132   2.871   6.993
 3921POPC   C4B50782  10.347   2.611   7.326
 3922POPC   NC350783  40.259  33.298   5.541
 3922POPC   PO450784  39.929  32.721   5.478
 3922POPC   GL150785  40.005  32.974   5.853
 3922POPC   GL250786  39.762  33.208   5.814
 3922POPC   C1A50787  40.093  33.133   6.273
 3922POPC   D2A50788  40.001  32.928   6.698
 3922POPC   C3A50789  40.083  33.073   7.118
 3922POPC   C4A50790  39.931  32.882   7.482
 3922POPC   C1B50791  39.667  33.448   6.193
 3922POPC   C2B50792  39.844  33.432   6.603
 3922POPC   C3B50793  39.670  33.427   6.983
 3922POPC   C4B50794  39.773  33.659   7.321
 3923POPC   NC350795   1.271  34.717   5.404
 3923POPC   PO450796   0.759  34.304   5.315
 3923POPC   GL150797   1.030  34.284   5.763
 3923POPC   GL250798   1.367  34.433   5.870
 3923POPC   C1A50799   1.004  34.338   6.228
 3923POPC   D2A50800   0.925  34.620   6.604
 3923POPC   C3A50801   0.995  34.497   7.043
 3923POPC   C4A50802   0.904  34.795   7.287
 3923POPC   C1B50803   1.584  34.757   6.172
 3923POPC   C2B50804   1.521  34.954   6.609
 3923POPC   C3B50805   1.371  34.841   7.038
 3923POPC   C4B50806   1.449  34.478   7.318
 3924POPC   NC350807  41.996  25.478   5.329
 3924POPC   PO450808  42.471  25.022   5.178
 3924POPC   GL150809  42.384  25.220   5.650
 3924POPC   GL250810  42.150  25.503   5.816
 3924POPC   C1A50811  42.498  25.321   6.128
 3924POPC   D2A50812  42.295  25.275   6.542
 3924POPC   C3A50813  42.538  25.318   6.952
 3924POPC   C4A50814  42.439  25.165   7.425
 3924POPC   C1B50815  42.058  25.689   6.254
 3924POPC   C2B50816  41.951  25.630   6.724
 3924POPC   C3B50817  42.084  25.429   7.138
 3924POPC   C4B50818  42.046  25.440   7.615
 3925POPC   NC350819  37.497  26.643   5.454
 3925POPC   PO450820  38.021  27.201   5.505
 3925POPC   GL150821  37.775  27.012   5.791
 3925POPC   GL250822  37.478  27.047   5.760
 3925POPC   C1A50823  37.876  26.885   6.247
 3925POPC   D2A50824  37.847  26.757   6.697
 3925POPC   C3A50825  38.005  27.029   6.972
 3925POPC   C4A50826  38.098  26.935   7.407
 3925POPC   C1B50827  37.407  27.015   6.148
 3925POPC   C2B50828  37.542  27.165   6.530
 3925POPC   C3B50829  37.471  27.071   6.911
 3925POPC   C4B50830  37.627  26.820   7.210
 3926POPC   NC350831  10.958  34.455   5.538
 3926POPC   PO450832  11.423  34.731   5.228
 3926POPC   GL150833  11.443  34.600   5.710
 3926POPC   GL250834  11.370  34.236   5.813
 3926POPC   C1A50835  11.171  34.641   6.127
 3926POPC   D2A50836  11.151  34.844   6.527
 3926POPC   C3A50837  11.208  34.741   6.965
 3926POPC   C4A50838  11.290  34.647   7.438
 3926POPC   C1B50839  11.601  34.364   6.192
 3926POPC   C2B50840  11.481  34.461   6.609
 3926POPC   C3B50841  11.651  34.455   7.011
 3926POPC   C4B50842  11.686  34.304   7.410
 3927POPC   NC350843   7.403  17.811   5.552
 3927POPC   PO450844   7.739  18.296   5.500
 3927POPC   GL150845   7.500  18.420   5.864
 3927POPC   GL250846   7.203  18.192   5.855
 3927POPC   C1A50847   7.230  18.530   6.248
 3927POPC   D2A50848   7.090  18.450   6.672
 3927POPC   C3A50849   7.415  18.510   6.917
 3927POPC   C4A50850   7.632  18.365   7.277
 3927POPC   C1B50851   7.489  18.016   6.175
 3927POPC   C2B50852   7.574  18.171   6.560
 3927POPC   C3B50853   7.446  18.008   6.947
 3927POPC   C4B50854   7.046  18.124   7.072
 3928POPC   NC350855  37.514  11.246   5.440
 3928POPC   PO450856  38.092  11.669   5.532
 3928POPC   GL150857  37.943  11.244   5.746
 3928POPC   GL250858  37.629  11.092   5.921
 3928POPC   C1A50859  38.067  11.225   6.182
 3928POPC   D2A50860  38.179  11.172   6.605
 3928POPC   C3A50861  37.813  11.074   6.805
 3928POPC   C4A50862  37.760  11.118   7.209
 3928POPC   C1B50863  37.607  11.524   6.083
 3928POPC   C2B50864  37.498  11.663   6.502
 3928POPC   C3B50865  37.651  11.562   6.913
 3928POPC   C4B50866  37.494  11.519   7.309
 3929POPC   NC350867   8.054  32.538   5.342
 3929POPC   PO450868   8.461  32.128   5.593
 3929POPC   GL150869   8.249  32.396   5.865
 3929POPC   GL250870   7.885  32.398   5.804
 3929POPC   C1A50871   8.187  32.348   6.309
 3929POPC   D2A50872   8.514  32.183   6.568
 3929POPC   C3A50873   8.425  32.261   6.934
 3929POPC   C4A50874   8.375  32.259   7.321
 3929POPC   C1B50875   7.732  32.159   6.186
 3929POPC   C2B50876   7.791  32.083   6.640
 3929POPC   C3B50877   7.927  32.318   7.000
 3929POPC   C4B50878   7.719  32.540   7.310
 3930POPC   NC350879  41.646   3.777   5.447
 3930POPC   PO450880  41.329   3.260   5.128
 3930POPC   GL150881  41.358   3.404   5.650
 3930POPC   GL250882  41.698   3.463   5.823
 3930POPC   C1A50883  41.352   3.448   6.164
 3930POPC   D2A50884  41.459   3.230   6.537
 3930POPC   C3A50885  41.400   3.433   6.902
 3930POPC   C4A50886  41.379   3.574   7.294
 3930POPC   C1B50887  41.858   3.646   6.194
 3930POPC   C2B50888  41.759   3.652   6.606
 3930POPC   C3B50889  41.951   3.680   6.997
 3930POPC   C4B50890  41.927   4.032   7.316
 3931POPC   NC350891  20.185   0.428   5.173
 3931POPC   PO450892  19.581   0.567   5.243
 3931POPC   GL150893  19.812   0.512   5.647
 3931POPC   GL250894  19.909   0.178   5.573
 3931POPC   C1A50895  20.061   0.612   6.094
 3931POPC   D2A50896  20.273   0.505   6.489
 3931POPC   C3A50897  20.058   0.609   6.888
 3931POPC   C4A50898  20.059   0.364   7.264
 3931POPC   C1B50899  19.874   0.151   6.025
 3931POPC   C2B50900  19.798   0.282   6.485
 3931POPC   C3B50901  19.671   0.237   6.932
 3931POPC   C4B50902  19.595   0.216   7.395
 3932POPC   NC350903  34.812  27.337   5.384
 3932POPC   PO450904  34.363  26.761   5.453
 3932POPC   GL150905  34.449  26.956   5.822
 3932POPC   GL250906  34.811  27.036   5.835
 3932POPC   C1A50907  34.264  26.890   6.209
 3932POPC   D2A50908  34.359  27.089   6.572
 3932POPC   C3A50909  34.360  26.955   6.985
 3932POPC   C4A50910  34.709  27.049   7.236
 3932POPC   C1B50911  34.763  26.846   6.269
 3932POPC   C2B50912  34.551  26.619   6.642
 3932POPC   C3B50913  34.632  26.529   7.108
 3932POPC   C4B50914  34.976  26.576   7.400
 3933POPC   NC350915  39.590  12.598   5.500
 3933POPC   PO450916  39.069  12.136   5.474
 3933POPC   GL150917  39.145  12.042   5.872
 3933POPC   GL250918  39.458  12.096   5.878
 3933POPC   C1A50919  39.108  12.192   6.277
 3933POPC   D2A50920  39.236  12.098   6.667
 3933POPC   C3A50921  39.547  11.864   6.825
 3933POPC   C4A50922  39.360  11.923   7.231
 3933POPC   C1B50923  39.628  12.291   6.187
 3933POPC   C2B50924  39.585  12.453   6.567
 3933POPC   C3B50925  39.636  12.344   6.986
 3933POPC   C4B50926  39.434  12.407   7.372
 3934POPC   NC350927  12.996  35.900   5.417
 3934POPC   PO450928  12.769  36.547   5.485
 3934POPC   GL150929  12.868  36.193   5.810
 3934POPC   GL250930  12.547  36.049   5.906
 3934POPC   C1A50931  12.891  35.981   6.246
 3934POPC   D2A50932  12.663  36.032   6.622
 3934POPC   C3A50933  12.840  35.935   7.016
 3934POPC   C4A50934  13.083  35.892   7.406
 3934POPC   C1B50935  12.417  35.734   6.243
 3934POPC   C2B50936  12.400  35.584   6.692
 3934POPC   C3B50937  12.393  35.714   7.146
 3934POPC   C4B50938  12.622  35.829   7.559
 3935POPC   NC350939  18.944   5.576   5.689
 3935POPC   PO450940  18.918   4.938   5.421
 3935POPC   GL150941  19.074   4.908   5.838
 3935POPC   GL250942  19.287   5.207   5.846
 3935POPC   C1A50943  19.151   5.024   6.293
 3935POPC   D2A50944  19.021   5.348   6.588
 3935POPC   C3A50945  18.848   5.161   6.960
 3935POPC   C4A50946  18.809   5.331   7.363
 3935POPC   C1B50947  19.434   5.453   6.208
 3935POPC   C2B50948  19.549   5.336   6.630
 3935POPC   C3B50949  19.342   5.305   7.039
 3935POPC   C4B50950  19.198   4.913   7.245
 3936POPC   NC350951  31.094  14.130   5.421
 3936POPC   PO450952  31.387  14.695   5.502
 3936POPC   GL150953  31.564  14.436   5.875
 3936POPC   GL250954  31.800  14.119   5.844
 3936POPC   C1A50955  31.473  14.540   6.337
 3936POPC   D2A50956  31.148  14.417   6.649
 3936POPC   C3A50957  31.187  14.687   7.015
 3936POPC   C4A50958  31.394  14.895   7.381
 3936POPC   C1B50959  31.913  14.285   6.235
 3936POPC   C2B50960  31.942  14.509   6.610
 3936POPC   C3B50961  31.708  14.577   6.990
 3936POPC   C4B50962  31.687  14.422   7.406
 3937POPC   NC350963   6.728  15.412   5.457
 3937POPC   PO450964   6.544  16.138   5.431
 3937POPC   GL150965   6.534  15.977   5.822
 3937POPC   GL250966   6.786  15.736   5.847
 3937POPC   C1A50967   6.700  16.140   6.220
 3937POPC   D2A50968   6.913  16.151   6.623
 3937POPC   C3A50969   6.671  16.145   6.968
 3937POPC   C4A50970   6.592  16.062   7.357
 3937POPC   C1B50971   6.590  15.620   6.237
 3937POPC   C2B50972   6.595  15.482   6.663
 3937POPC   C3B50973   6.714  15.628   7.022
 3937POPC   C4B50974   6.583  15.569   7.419
 3938POPC   NC350975  31.425  31.228   5.460
 3938POPC   PO450976  31.730  31.883   5.498
 3938POPC   GL150977  31.662  31.538   5.802
 3938POPC   GL250978  31.326  31.548   5.881
 3938POPC   C1A50979  31.740  31.305   6.195
 3938POPC   D2A50980  31.587  31.320   6.603
 3938POPC   C3A50981  31.737  31.506   6.937
 3938POPC   C4A50982  31.690  31.377   7.332
 3938POPC   C1B50983  31.409  31.688   6.301
 3938POPC   C2B50984  31.288  31.756   6.734
 3938POPC   C3B50985  31.316  31.713   7.177
 3938POPC   C4B50986  31.259  31.484   7.575
 3939POPC   NC350987  15.388   3.808   5.314
 3939POPC   PO450988  15.357   3.198   5.527
 3939POPC   GL150989  15.285   3.607   5.772
 3939POPC   GL250990  14.932   3.662   5.858
 3939POPC   C1A50991  15.360   3.826   6.175
 3939POPC   D2A50992  15.439   3.567   6.573
 3939POPC   C3A50993  15.412   3.779   6.978
 3939POPC   C4A50994  15.325   4.025   7.345
 3939POPC   C1B50995  15.007   3.480   6.269
 3939POPC   C2B50996  14.934   3.688   6.655
 3939POPC   C3B50997  14.946   3.582   7.067
 3939POPC   C4B50998  15.229   3.350   7.305
 3940POPC   NC350999  22.270  42.793   5.145
 3940POPC   PO451000  22.137  43.453   5.306
 3940POPC   GL151001  22.200  43.415   5.785
 3940POPC   GL251002  22.543  43.453   5.918
 3940POPC   C1A51003  21.960  43.178   6.106
 3940POPC   D2A51004  21.828  43.037   6.509
 3940POPC   C3A51005  21.912  43.139   6.943
 3940POPC   C4A51006  22.143  42.788   7.150
 3940POPC   C1B51007  22.452  43.095   6.195
 3940POPC   C2B51008  22.323  43.039   6.651
 3940POPC   C3B51009  22.395  43.232   7.062
 3940POPC   C4B51010  22.452  42.994   7.492
 3941POPC   NC351011  10.503  12.745   5.484
 3941POPC   PO451012  10.299  13.334   5.342
 3941POPC   GL151013  10.389  13.054   5.838
 3941POPC   GL251014  10.715  12.768   5.941
 3941POPC   C1A51015  10.418  12.938   6.299
 3941POPC   D2A51016  10.209  12.921   6.681
 3941POPC   C3A51017  10.468  12.909   7.033
 3941POPC   C4A51018  10.328  12.800   7.455
 3941POPC   C1B51019  10.947  13.043   6.231
 3941POPC   C2B51020  10.868  13.113   6.671
 3941POPC   C3B51021  10.981  12.783   6.961
 3941POPC   C4B51022  10.820  12.700   7.347
 3942POPC   NC351023   5.992   5.936   5.269
 3942POPC   PO451024   5.580   5.510   5.565
 3942POPC   GL151025   5.765   5.738   5.871
 3942POPC   GL251026   5.709   6.074   5.726
 3942POPC   C1A51027   5.808   5.702   6.323
 3942POPC   D2A51028   5.708   5.903   6.707
 3942POPC   C3A51029   5.778   5.657   7.065
 3942POPC   C4A51030   6.164   5.695   7.299
 3942POPC   C1B51031   5.921   6.168   6.148
 3942POPC   C2B51032   6.185   6.028   6.525
 3942POPC   C3B51033   6.106   6.103   6.981
 3942POPC   C4B51034   5.716   6.153   7.201
 3943POPC   NC351035   8.715  10.106   5.169
 3943POPC   PO451036   8.343   9.667   5.464
 3943POPC   GL151037   8.177   9.737   5.904
 3943POPC   GL251038   8.135   9.384   5.930
 3943POPC   C1A51039   8.222   9.935   6.347
 3943POPC   D2A51040   8.041   9.830   6.783
 3943POPC   C3A51041   8.260   9.855   7.167
 3943POPC   C4A51042   8.435   9.728   7.575
 3943POPC   C1B51043   8.002   9.480   6.340
 3943POPC   C2B51044   8.151   9.320   6.700
 3943POPC   C3B51045   8.262   9.348   7.114
 3943POPC   C4B51046   7.986   9.512   7.422
 3944POPC   NC351047  32.298  34.067   5.260
 3944POPC   PO451048  32.546  33.534   5.599
 3944POPC   GL151049  32.301  33.695   5.890
 3944POPC   GL251050  32.103  33.902   5.717
 3944POPC   C1A51051  32.195  33.784   6.288
 3944POPC   D2A51052  31.990  33.616   6.592
 3944POPC   C3A51053  32.097  33.809   6.959
 3944POPC   C4A51054  32.072  33.526   7.308
 3944POPC   C1B51055  31.887  34.138   6.083
 3944POPC   C2B51056  31.755  34.083   6.545
 3944POPC   C3B51057  31.758  34.204   7.012
 3944POPC   C4B51058  31.905  33.996   7.410
 3945POPC   NC351059   6.364  22.489   5.434
 3945POPC   PO451060   6.897  21.994   5.463
 3945POPC   GL151061   6.795  22.248   5.888
 3945POPC   GL251062   6.464  22.408   5.921
 3945POPC   C1A51063   6.682  22.248   6.362
 3945POPC   D2A51064   6.573  22.465   6.766
 3945POPC   C3A51065   6.616  22.153   7.111
 3945POPC   C4A51066   6.652  22.248   7.564
 3945POPC   C1B51067   6.166  22.287   6.263
 3945POPC   C2B51068   6.198  22.141   6.680
 3945POPC   C3B51069   6.124  22.298   7.095
 3945POPC   C4B51070   6.228  22.023   7.458
 3946POPC   NC351071   0.765  27.176   5.265
 3946POPC   PO451072   0.636  27.817   5.439
 3946POPC   GL151073   0.397  27.508   5.723
 3946POPC   GL251074   0.504  27.137   5.731
 3946POPC   C1A51075   0.130  27.638   6.109
 3946POPC   D2A51076   0.067  27.858   6.536
 3946POPC   C3A51077   0.142  27.696   6.925
 3946POPC   C4A51078   0.493  27.788   7.184
 3946POPC   C1B51079   0.482  27.242   6.195
 3946POPC   C2B51080   0.558  27.432   6.626
 3946POPC   C3B51081   0.442  27.296   7.049
 3946POPC   C4B51082   0.539  27.378   7.509
 3947POPC   NC351083  44.297  23.285   5.454
 3947POPC   PO451084  44.928  23.267   5.663
 3947POPC   GL151085  44.761  23.522   5.919
 3947POPC   GL251086  44.553  23.763   5.822
 3947POPC   C1A51087  44.676  23.592   6.325
 3947POPC   D2A51088  44.368  23.569   6.663
 3947POPC   C3A51089  44.549  23.515   7.067
 3947POPC   C4A51090  44.622  23.534   7.515
 3947POPC   C1B51091  44.719  24.067   6.123
 3947POPC   C2B51092  44.683  24.057   6.556
 3947POPC   C3B51093  44.881  24.095   6.952
 3947POPC   C4B51094  44.728  23.971   7.324
 3948POPC   NC351095  25.756  37.372   5.434
 3948POPC   PO451096  25.697  38.050   5.659
 3948POPC   GL151097  25.997  37.774   5.846
 3948POPC   GL251098  25.770  37.506   5.924
 3948POPC   C1A51099  26.101  37.668   6.286
 3948POPC   D2A51100  26.043  37.440   6.674
 3948POPC   C3A51101  25.868  37.756   6.918
 3948POPC   C4A51102  25.925  37.911   7.312
 3948POPC   C1B51103  25.657  37.313   6.319
 3948POPC   C2B51104  25.550  37.317   6.785
 3948POPC   C3B51105  25.711  37.389   7.221
 3948POPC   C4B51106  25.605  37.337   7.656
 3949POPC   NC351107  13.062  20.907   5.477
 3949POPC   PO451108  12.601  20.430   5.416
 3949POPC   GL151109  12.713  20.385   5.850
 3949POPC   GL251110  13.000  20.195   5.736
 3949POPC   C1A51111  12.767  20.573   6.290
 3949POPC   D2A51112  12.628  20.538   6.726
 3949POPC   C3A51113  12.826  20.720   7.092
 3949POPC   C4A51114  13.140  21.045   7.205
 3949POPC   C1B51115  13.194  20.296   6.133
 3949POPC   C2B51116  13.266  20.343   6.591
 3949POPC   C3B51117  12.982  20.236   6.922
 3949POPC   C4B51118  12.854  20.269   7.348
 3950POPC   NC351119  25.649   6.606   5.060
 3950POPC   PO451120  25.162   6.837   5.499
 3950POPC   GL151121  25.274   6.725   5.934
 3950POPC   GL251122  25.386   6.404   5.907
 3950POPC   C1A51123  25.469   6.855   6.331
 3950POPC   D2A51124  25.503   6.718   6.743
 3950POPC   C3A51125  25.500   6.959   7.097
 3950POPC   C4A51126  25.203   6.713   7.258
 3950POPC   C1B51127  25.488   6.354   6.317
 3950POPC   C2B51128  25.652   6.221   6.714
 3950POPC   C3B51129  25.401   6.283   7.075
 3950POPC   C4B51130  25.409   6.300   7.565
 3951POPC   NC351131   4.105  18.072   5.488
 3951POPC   PO451132   4.764  18.295   5.372
 3951POPC   GL151133   4.604  18.440   5.759
 3951POPC   GL251134   4.252  18.498   5.744
 3951POPC   C1A51135   4.524  18.314   6.167
 3951POPC   D2A51136   4.631  18.432   6.564
 3951POPC   C3A51137   4.472  18.164   6.855
 3951POPC   C4A51138   4.640  18.034   7.208
 3951POPC   C1B51139   3.925  18.437   6.088
 3951POPC   C2B51140   3.839  18.609   6.513
 3951POPC   C3B51141   4.011  18.394   6.897
 3951POPC   C4B51142   4.131  18.098   7.256
 3952POPC   NC351143   8.466   6.189   5.458
 3952POPC   PO451144   8.747   5.652   5.684
 3952POPC   GL151145   9.019   5.696   6.059
 3952POPC   GL251146   9.242   6.006   6.121
 3952POPC   C1A51147   8.983   5.740   6.500
 3952POPC   D2A51148   8.707   5.740   6.837
 3952POPC   C3A51149   8.938   5.589   7.198
 3952POPC   C4A51150   8.998   5.796   7.594
 3952POPC   C1B51151   9.272   6.227   6.532
 3952POPC   C2B51152   9.165   5.981   6.916
 3952POPC   C3B51153   8.807   6.082   7.214
 3952POPC   C4B51154   8.586   6.333   7.586
 3953POPC   NC351155  11.558  24.735   5.303
 3953POPC   PO451156  11.335  24.208   5.367
 3953POPC   GL151157  11.271  24.539   5.712
 3953POPC   GL251158  10.947  24.670   5.775
 3953POPC   C1A51159  11.430  24.703   6.126
 3953POPC   D2A51160  11.486  24.885   6.541
 3953POPC   C3A51161  11.540  24.667   6.888
 3953POPC   C4A51162  11.230  24.731   7.176
 3953POPC   C1B51163  10.994  24.392   6.139
 3953POPC   C2B51164  11.208  24.442   6.548
 3953POPC   C3B51165  11.262  24.244   6.962
 3953POPC   C4B51166  11.276  24.013   7.360
 3954POPC   NC351167  10.018  42.605   5.492
 3954POPC   PO451168   9.924  41.935   5.610
 3954POPC   GL151169   9.867  42.263   5.864
 3954POPC   GL251170   9.565  42.358   5.692
 3954POPC   C1A51171   9.866  42.229   6.297
 3954POPC   D2A51172   9.626  42.242   6.667
 3954POPC   C3A51173   9.850  42.369   7.053
 3954POPC   C4A51174   9.685  42.295   7.464
 3954POPC   C1B51175   9.467  42.513   6.091
 3954POPC   C2B51176   9.447  42.693   6.500
 3954POPC   C3B51177   9.399  42.617   6.936
 3954POPC   C4B51178   9.266  42.611   7.332
 3955POPC   NC351179  23.597   0.972   5.230
 3955POPC   PO451180  23.343   1.303   5.729
 3955POPC   GL151181  23.619   1.031   5.877
 3955POPC   GL251182  23.879   1.234   5.962
 3955POPC   C1A51183  23.592   1.060   6.335
 3955POPC   D2A51184  23.846   1.211   6.688
 3955POPC   C3A51185  23.685   1.038   7.093
 3955POPC   C4A51186  23.469   0.652   7.226
 3955POPC   C1B51187  23.707   1.558   6.263
 3955POPC   C2B51188  23.813   1.741   6.688
 3955POPC   C3B51189  23.800   1.542   7.108
 3955POPC   C4B51190  23.680   1.368   7.516
 3956POPC   NC351191  29.381   2.419   5.454
 3956POPC   PO451192  29.140   1.805   5.444
 3956POPC   GL151193  29.000   2.001   5.820
 3956POPC   GL251194  29.102   2.348   5.912
 3956POPC   C1A51195  29.115   1.913   6.223
 3956POPC   D2A51196  28.931   1.888   6.598
 3956POPC   C3A51197  29.100   1.736   6.932
 3956POPC   C4A51198  28.973   1.799   7.346
 3956POPC   C1B51199  29.480   2.264   6.195
 3956POPC   C2B51200  29.470   2.052   6.646
 3956POPC   C3B51201  29.450   2.067   7.124
 3956POPC   C4B51202  29.408   2.413   7.418
 3957POPC   NC351203  18.913  18.181   5.453
 3957POPC   PO451204  19.413  18.595   5.497
 3957POPC   GL151205  19.254  18.287   5.839
 3957POPC   GL251206  18.884  18.277   5.958
 3957POPC   C1A51207  19.255  18.149   6.287
 3957POPC   D2A51208  19.109  18.041   6.708
 3957POPC   C3A51209  19.340  18.296   7.021
 3957POPC   C4A51210  19.477  18.232   7.477
 3957POPC   C1B51211  18.712  18.369   6.384
 3957POPC   C2B51212  18.740  18.353   6.853
 3957POPC   C3B51213  18.766  17.993   7.132
 3957POPC   C4B51214  18.553  18.096   7.506
 3958POPC   NC351215   5.496  21.982   5.475
 3958POPC   PO451216   6.104  21.912   5.465
 3958POPC   GL151217   5.940  22.079   5.845
 3958POPC   GL251218   5.944  22.467   5.830
 3958POPC   C1A51219   5.705  22.007   6.243
 3958POPC   D2A51220   5.699  22.216   6.651
 3958POPC   C3A51221   5.633  22.063   7.078
 3958POPC   C4A51222   5.774  22.247   7.467
 3958POPC   C1B51223   5.688  22.554   6.230
 3958POPC   C2B51224   5.494  22.672   6.640
 3958POPC   C3B51225   5.629  22.600   7.096
 3958POPC   C4B51226   5.588  22.671   7.604
 3959POPC   NC351227   1.898   1.782   5.315
 3959POPC   PO451228   1.883   2.396   5.649
 3959POPC   GL151229   1.992   1.972   5.790
 3959POPC   GL251230   1.742   1.681   5.803
 3959POPC   C1A51231   2.061   1.819   6.202
 3959POPC   D2A51232   1.809   1.953   6.533
 3959POPC   C3A51233   2.016   2.155   6.838
 3959POPC   C4A51234   2.301   2.119   7.170
 3959POPC   C1B51235   1.481   1.764   6.184
 3959POPC   C2B51236   1.396   1.664   6.645
 3959POPC   C3B51237   1.741   1.645   6.941
 3959POPC   C4B51238   1.815   1.962   7.257
 3960POPC   NC351239   1.970  10.254   5.655
 3960POPC   PO451240   1.604  10.721   5.352
 3960POPC   GL151241   1.935  10.743   5.787
 3960POPC   GL251242   1.910  10.510   6.100
 3960POPC   C1A51243   2.249  10.873   6.148
 3960POPC   D2A51244   2.121  10.943   6.562
 3960POPC   C3A51245   2.209  10.761   6.955
 3960POPC   C4A51246   1.843  10.600   7.148
 3960POPC   C1B51247   1.704  10.202   6.381
 3960POPC   C2B51248   1.623  10.244   6.844
 3960POPC   C3B51249   1.972  10.116   7.148
 3960POPC   C4B51250   2.278  10.165   7.518
 3961POPC   NC351251  20.714  22.506   5.465
 3961POPC   PO451252  20.106  22.082   5.262
 3961POPC   GL151253  20.333  21.912   5.749
 3961POPC   GL251254  20.665  22.063   5.759
 3961POPC   C1A51255  20.496  22.065   6.240
 3961POPC   D2A51256  20.545  21.968   6.733
 3961POPC   C3A51257  20.523  22.302   7.107
 3961POPC   C4A51258  20.425  22.383   7.591
 3961POPC   C1B51259  20.912  21.851   6.053
 3961POPC   C2B51260  21.008  22.000   6.473
 3961POPC   C3B51261  21.039  21.834   6.895
 3961POPC   C4B51262  20.916  22.006   7.296
 3962POPC   NC351263   0.196  11.817   5.305
 3962POPC   PO451264   0.523  12.375   5.377
 3962POPC   GL151265   0.363  12.134   5.732
 3962POPC   GL251266   0.037  11.946   5.767
 3962POPC   C1A51267   0.506  12.190   6.140
 3962POPC   D2A51268   0.657  12.447   6.499
 3962POPC   C3A51269   0.726  12.191   6.872
 3962POPC   C4A51270   0.684  11.972   7.281
 3962POPC   C1B51271   0.148  11.813   6.193
 3962POPC   C2B51272   0.355  11.969   6.569
 3962POPC   C3B51273   0.300  11.863   6.977
 3962POPC   C4B51274   0.234  11.585   7.337
 3963POPC   NC351275  24.222  24.670   5.543
 3963POPC   PO451276  24.721  24.428   5.230
 3963POPC   GL151277  24.627  24.429   5.737
 3963POPC   GL251278  24.281  24.315   5.880
 3963POPC   C1A51279  24.613  24.609   6.182
 3963POPC   D2A51280  24.770  24.866   6.527
 3963POPC   C3A51281  24.505  24.932   6.917
 3963POPC   C4A51282  24.600  24.721   7.321
 3963POPC   C1B51283  24.444  24.121   6.235
 3963POPC   C2B51284  24.336  24.283   6.590
 3963POPC   C3B51285  24.467  24.391   6.955
 3963POPC   C4B51286  24.390  24.261   7.339
 3964POPC   NC351287  32.629   0.549   5.575
 3964POPC   PO451288  33.274   0.659   5.390
 3964POPC   GL151289  33.083   0.477   5.784
 3964POPC   GL251290  33.295   0.250   5.976
 3964POPC   C1A51291  33.000   0.576   6.231
 3964POPC   D2A51292  33.283   0.361   6.533
 3964POPC   C3A51293  33.302   0.613   6.911
 3964POPC   C4A51294  33.041   0.582   7.278
 3964POPC   C1B51295  32.918   0.078   6.222
 3964POPC   C2B51296  32.738   0.209   6.597
 3964POPC   C3B51297  32.980   0.152   6.924
 3964POPC   C4B51298  33.091   0.067   7.304
 3965POPC   NC351299  33.647   3.642   5.428
 3965POPC   PO451300  34.352   3.739   5.469
 3965POPC   GL151301  33.961   3.587   5.824
 3965POPC   GL251302  33.547   3.410   5.853
 3965POPC   C1A51303  33.771   3.551   6.269
 3965POPC   D2A51304  33.692   3.623   6.696
 3965POPC   C3A51305  33.831   3.347   6.975
 3965POPC   C4A51306  34.051   3.673   7.188
 3965POPC   C1B51307  33.318   3.253   6.251
 3965POPC   C2B51308  33.333   3.210   6.727
 3965POPC   C3B51309  33.350   3.309   7.203
 3965POPC   C4B51310  33.347   3.533   7.611
 3966POPC   NC351311  26.512  41.347   4.956
 3966POPC   PO451312  26.700  41.277   5.516
 3966POPC   GL151313  26.554  41.447   5.886
 3966POPC   GL251314  26.887  41.552   5.917
 3966POPC   C1A51315  26.545  41.720   6.238
 3966POPC   D2A51316  26.702  41.554   6.619
 3966POPC   C3A51317  26.713  41.737   6.980
 3966POPC   C4A51318  26.713  41.588   7.351
 3966POPC   C1B51319  26.992  41.916   6.124
 3966POPC   C2B51320  27.053  41.945   6.566
 3966POPC   C3B51321  27.224  41.865   6.962
 3966POPC   C4B51322  27.057  41.942   7.368
 3967POPC   NC351323  35.813  18.839   5.100
 3967POPC   PO451324  36.076  18.230   5.445
 3967POPC   GL151325  36.085  18.309   5.848
 3967POPC   GL251326  36.429  18.361   5.869
 3967POPC   C1A51327  35.894  18.475   6.210
 3967POPC   D2A51328  35.947  18.263   6.607
 3967POPC   C3A51329  36.030  18.455   6.994
 3967POPC   C4A51330  35.827  18.259   7.335
 3967POPC   C1B51331  36.365  18.334   6.305
 3967POPC   C2B51332  36.417  18.136   6.697
 3967POPC   C3B51333  36.487  18.236   7.094
 3967POPC   C4B51334  36.656  18.583   7.147
 3968POPC   NC351335  40.312  11.250   5.584
 3968POPC   PO451336  39.659  11.331   5.540
 3968POPC   GL151337  39.900  11.296   5.910
 3968POPC   GL251338  39.658  11.081   6.028
 3968POPC   C1A51339  40.189  11.456   6.260
 3968POPC   D2A51340  40.047  11.615   6.682
 3968POPC   C3A51341  40.092  11.293   6.989
 3968POPC   C4A51342  40.182  11.299   7.418
 3968POPC   C1B51343  39.695  11.354   6.390
 3968POPC   C2B51344  39.593  11.354   6.816
 3968POPC   C3B51345  39.621  11.091   7.148
 3968POPC   C4B51346  39.584  11.215   7.561
 3969POPC   NC351347   0.329  10.250   5.499
 3969POPC   PO451348   0.892  10.669   5.421
 3969POPC   GL151349   0.710  10.642   5.861
 3969POPC   GL251350   0.453  10.412   5.949
 3969POPC   C1A51351   0.462  10.806   6.248
 3969POPC   D2A51352   0.368  10.562   6.659
 3969POPC   C3A51353   0.522  10.785   7.041
 3969POPC   C4A51354   0.866  10.625   7.273
 3969POPC   C1B51355   0.316  10.133   6.303
 3969POPC   C2B51356  44.941  10.162   6.561
 3969POPC   C3B51357  44.977  10.273   6.966
 3969POPC   C4B51358   0.393  10.315   7.153
 3970POPC   NC351359  37.930  40.965   4.997
 3970POPC   PO451360  37.655  40.518   5.312
 3970POPC   GL151361  37.640  40.577   5.747
 3970POPC   GL251362  37.578  40.930   5.809
 3970POPC   C1A51363  37.651  40.566   6.200
 3970POPC   D2A51364  37.690  40.765   6.591
 3970POPC   C3A51365  37.774  40.606   6.962
 3970POPC   C4A51366  37.581  40.826   7.258
 3970POPC   C1B51367  37.848  41.042   6.154
 3970POPC   C2B51368  37.878  41.243   6.533
 3970POPC   C3B51369  37.965  41.095   6.927
 3970POPC   C4B51370  38.106  40.911   7.303
 3971POPC   NC351371  32.690   6.541   5.301
 3971POPC   PO451372  32.219   6.932   5.623
 3971POPC   GL151373  32.416   6.809   5.966
 3971POPC   GL251374  32.578   6.504   5.860
 3971POPC   C1A51375  32.170   6.893   6.319
 3971POPC   D2A51376  32.200   7.188   6.622
 3971POPC   C3A51377  32.234   6.952   6.963
 3971POPC   C4A51378  31.950   6.758   7.226
 3971POPC   C1B51379  32.386   6.409   6.320
 3971POPC   C2B51380  32.430   6.475   6.794
 3971POPC   C3B51381  32.175   6.314   7.164
 3971POPC   C4B51382  32.235   6.391   7.644
 3972POPC   NC351383  33.286  27.095   5.263
 3972POPC   PO451384  32.746  27.055   5.530
 3972POPC   GL151385  32.828  27.091   5.982
 3972POPC   GL251386  32.486  27.121   6.042
 3972POPC   C1A51387  33.140  26.940   6.332
 3972POPC   D2A51388  33.326  26.582   6.617
 3972POPC   C3A51389  33.232  26.660   7.063
 3972POPC   C4A51390  33.403  26.677   7.466
 3972POPC   C1B51391  32.603  26.750   6.319
 3972POPC   C2B51392  32.845  26.772   6.723
 3972POPC   C3B51393  32.892  27.105   7.044
 3972POPC   C4B51394  32.720  27.218   7.474
 3973POPC   NC351395  21.154  17.894   5.551
 3973POPC   PO451396  21.465  18.579   5.423
 3973POPC   GL151397  21.474  18.458   5.811
 3973POPC   GL251398  21.619  18.129   5.786
 3973POPC   C1A51399  21.627  18.409   6.215
 3973POPC   D2A51400  21.443  18.565   6.544
 3973POPC   C3A51401  21.537  18.417   6.938
 3973POPC   C4A51402  21.485  18.577   7.318
 3973POPC   C1B51403  21.584  17.897   6.186
 3973POPC   C2B51404  21.465  18.039   6.583
 3973POPC   C3B51405  21.444  17.900   6.993
 3973POPC   C4B51406  21.593  18.074   7.370
 3974POPC   NC351407  18.186   9.821   5.482
 3974POPC   PO451408  18.674  10.155   5.200
 3974POPC   GL151409  18.565  10.028   5.725
 3974POPC   GL251410  18.187  10.060   5.925
 3974POPC   C1A51411  18.506   9.682   6.045
 3974POPC   D2A51412  18.619   9.598   6.489
 3974POPC   C3A51413  18.419   9.793   6.842
 3974POPC   C4A51414  18.613   9.710   7.231
 3974POPC   C1B51415  18.009   9.662   6.149
 3974POPC   C2B51416  18.131   9.381   6.511
 3974POPC   C3B51417  18.010   9.450   6.947
 3974POPC   C4B51418  18.088   9.775   7.261
 3975POPC   NC351419  22.027  19.468   5.326
 3975POPC   PO451420  22.197  18.799   5.338
 3975POPC   GL151421  22.300  19.124   5.665
 3975POPC   GL251422  22.052  18.952   5.833
 3975POPC   C1A51423  22.326  19.242   6.137
 3975POPC   D2A51424  22.099  19.051   6.511
 3975POPC   C3A51425  22.277  19.151   6.917
 3975POPC   C4A51426  22.285  18.976   7.350
 3975POPC   C1B51427  22.135  18.659   6.193
 3975POPC   C2B51428  21.960  18.560   6.625
 3975POPC   C3B51429  21.866  18.834   7.022
 3975POPC   C4B51430  21.828  18.881   7.531
 3976POPC   NC351431  10.373  24.009   5.483
 3976POPC   PO451432  10.875  23.550   5.466
 3976POPC   GL151433  10.601  23.556   5.854
 3976POPC   GL251434  10.276  23.688   5.869
 3976POPC   C1A51435  10.525  23.618   6.303
 3976POPC   D2A51436  10.348  23.470   6.644
 3976POPC   C3A51437  10.546  23.620   6.967
 3976POPC   C4A51438  10.512  23.535   7.361
 3976POPC   C1B51439  10.138  23.950   6.286
 3976POPC   C2B51440  10.283  24.003   6.739
 3976POPC   C3B51441  10.310  24.025   7.187
 3976POPC   C4B51442  10.013  24.230   7.531
 3977POPC   NC351443  34.817  26.515   5.469
 3977POPC   PO451444  34.642  25.851   5.228
 3977POPC   GL151445  34.598  25.987   5.691
 3977POPC   GL251446  34.523  26.344   5.834
 3977POPC   C1A51447  34.577  25.807   6.115
 3977POPC   D2A51448  34.516  25.972   6.532
 3977POPC   C3A51449  34.407  25.771   6.885
 3977POPC   C4A51450  34.508  25.615   7.265
 3977POPC   C1B51451  34.746  26.324   6.247
 3977POPC   C2B51452  34.906  26.256   6.702
 3977POPC   C3B51453  34.815  26.043   7.109
 3977POPC   C4B51454  34.733  26.165   7.550
 3978POPC   NC351455   9.951  41.502   5.448
 3978POPC   PO451456  10.686  41.599   5.492
 3978POPC   GL151457  10.614  41.485   5.909
 3978POPC   GL251458  10.295  41.402   5.817
 3978POPC   C1A51459  10.637  41.290   6.311
 3978POPC   D2A51460  10.707  41.569   6.618
 3978POPC   C3A51461  10.413  41.641   6.948
 3978POPC   C4A51462  10.636  41.622   7.344
 3978POPC   C1B51463  10.225  41.616   6.204
 3978POPC   C2B51464  10.116  41.378   6.541
 3978POPC   C3B51465  10.113  41.224   6.943
 3978POPC   C4B51466  10.204  41.355   7.339
 3979POPC   NC351467  44.426   4.140   5.507
 3979POPC   PO451468  44.992   4.475   5.488
 3979POPC   GL151469  44.782   4.364   5.882
 3979POPC   GL251470  44.905   3.999   5.925
 3979POPC   C1A51471  44.637   4.509   6.313
 3979POPC   D2A51472  44.829   4.614   6.703
 3979POPC   C3A51473  44.750   4.305   7.013
 3979POPC   C4A51474  44.318   4.371   7.179
 3979POPC   C1B51475  44.576   4.017   6.257
 3979POPC   C2B51476  44.384   4.149   6.652
 3979POPC   C3B51477  44.414   3.879   7.004
 3979POPC   C4B51478  44.612   3.946   7.369
 3980POPC   NC351479  15.132  15.689   5.518
 3980POPC   PO451480  15.370  15.021   5.432
 3980POPC   GL151481  15.189  15.010   5.854
 3980POPC   GL251482  15.080  15.357   5.905
 3980POPC   C1A51483  14.986  15.041   6.288
 3980POPC   D2A51484  14.922  15.312   6.673
 3980POPC   C3A51485  15.045  15.087   7.054
 3980POPC   C4A51486  15.012  14.971   7.503
 3980POPC   C1B51487  15.263  15.467   6.325
 3980POPC   C2B51488  15.418  15.114   6.620
 3980POPC   C3B51489  15.466  14.830   7.001
 3980POPC   C4B51490  15.470  15.143   7.369
 3981POPC   NC351491  11.664  39.960   5.631
 3981POPC   PO451492  12.322  39.851   5.431
 3981POPC   GL151493  12.157  39.984   5.821
 3981POPC   GL251494  12.282  40.308   5.886
 3981POPC   C1A51495  12.140  39.759   6.219
 3981POPC   D2A51496  12.271  39.818   6.632
 3981POPC   C3A51497  12.169  39.785   7.069
 3981POPC   C4A51498  12.137  39.973   7.507
 3981POPC   C1B51499  11.977  40.242   6.262
 3981POPC   C2B51500  11.837  40.100   6.707
 3981POPC   C3B51501  11.840  40.226   7.162
 3981POPC   C4B51502  12.052  40.470   7.528
 3982POPC   NC351503   5.887  31.094   5.351
 3982POPC   PO451504   5.773  31.751   5.490
 3982POPC   GL151505   6.000  31.450   5.771
 3982POPC   GL251506   5.662  31.301   5.824
 3982POPC   C1A51507   6.277  31.520   6.176
 3982POPC   D2A51508   6.334  31.792   6.575
 3982POPC   C3A51509   6.243  31.605   7.005
 3982POPC   C4A51510   5.970  31.722   7.369
 3982POPC   C1B51511   5.821  31.252   6.268
 3982POPC   C2B51512   5.831  31.394   6.741
 3982POPC   C3B51513   5.813  31.279   7.195
 3982POPC   C4B51514   5.515  31.465   7.460
 3983POPC   NC351515  27.161   1.645   5.549
 3983POPC   PO451516  26.907   1.019   5.290
 3983POPC   GL151517  26.813   1.244   5.668
 3983POPC   GL251518  26.576   1.015   5.827
 3983POPC   C1A51519  26.910   1.322   6.131
 3983POPC   D2A51520  26.974   1.167   6.585
 3983POPC   C3A51521  26.727   1.412   6.892
 3983POPC   C4A51522  26.719   1.565   7.310
 3983POPC   C1B51523  26.595   0.943   6.292
 3983POPC   C2B51524  26.520   0.940   6.754
 3983POPC   C3B51525  26.833   0.917   7.088
 3983POPC   C4B51526  27.278   0.812   7.139
 3984POPC   NC351527  14.170  32.852   5.453
 3984POPC   PO451528  14.772  32.921   5.156
 3984POPC   GL151529  14.610  32.931   5.677
 3984POPC   GL251530  14.284  33.134   5.848
 3984POPC   C1A51531  14.524  32.807   6.137
 3984POPC   D2A51532  14.193  32.715   6.471
 3984POPC   C3A51533  14.273  32.688   6.909
 3984POPC   C4A51534  14.669  32.762   7.108
 3984POPC   C1B51535  14.098  33.134   6.231
 3984POPC   C2B51536  14.234  33.174   6.678
 3984POPC   C3B51537  14.327  33.171   7.117
 3984POPC   C4B51538  14.602  33.108   7.457
 3985POPC   NC351539  40.849  40.474   5.555
 3985POPC   PO451540  40.806  39.903   5.306
 3985POPC   GL151541  40.632  39.722   5.717
 3985POPC   GL251542  40.685  40.042   5.836
 3985POPC   C1A51543  40.766  39.632   6.161
 3985POPC   D2A51544  40.742  39.886   6.530
 3985POPC   C3A51545  40.910  39.787   6.930
 3985POPC   C4A51546  40.670  39.951   7.270
 3985POPC   C1B51547  41.045  40.065   6.133
 3985POPC   C2B51548  41.081  40.263   6.545
 3985POPC   C3B51549  40.900  40.301   6.949
 3985POPC   C4B51550  40.933  40.610   7.267
 3986POPC   NC351551   6.564   9.150   5.604
 3986POPC   PO451552   6.959   8.690   5.358
 3986POPC   GL151553   6.740   8.660   5.777
 3986POPC   GL251554   6.406   8.758   5.909
 3986POPC   C1A51555   6.800   8.767   6.238
 3986POPC   D2A51556   6.693   8.910   6.683
 3986POPC   C3A51557   6.707   8.613   7.054
 3986POPC   C4A51558   6.605   8.566   7.520
 3986POPC   C1B51559   6.387   9.114   6.250
 3986POPC   C2B51560   6.519   9.382   6.617
 3986POPC   C3B51561   6.577   9.296   7.049
 3986POPC   C4B51562   6.360   8.935   7.236
 3987POPC   NC351563  20.981  16.524   5.561
 3987POPC   PO451564  21.567  16.732   5.257
 3987POPC   GL151565  21.472  16.749   5.706
 3987POPC   GL251566  21.752  16.553   5.801
 3987POPC   C1A51567  21.257  16.761   6.131
 3987POPC   D2A51568  21.226  16.476   6.496
 3987POPC   C3A51569  21.164  16.665   6.909
 3987POPC   C4A51570  21.205  16.663   7.356
 3987POPC   C1B51571  21.742  16.664   6.234
 3987POPC   C2B51572  21.566  16.848   6.616
 3987POPC   C3B51573  21.669  16.709   7.035
 3987POPC   C4B51574  21.706  16.949   7.371
 3988POPC   NC351575  38.460  27.038   5.424
 3988POPC   PO451576  37.911  26.714   5.277
 3988POPC   GL151577  38.196  26.774   5.730
 3988POPC   GL251578  38.229  26.606   5.986
 3988POPC   C1A51579  38.323  27.068   6.118
 3988POPC   D2A51580  38.317  26.903   6.556
 3988POPC   C3A51581  38.671  26.753   6.786
 3988POPC   C4A51582  38.696  26.849   7.239
 3988POPC   C1B51583  38.465  26.472   6.335
 3988POPC   C2B51584  38.211  26.382   6.688
 3988POPC   C3B51585  38.266  26.601   7.065
 3988POPC   C4B51586  38.407  26.509   7.492
 3989POPC   NC351587   7.271  22.515   5.625
 3989POPC   PO451588   7.491  21.858   5.369
 3989POPC   GL151589   7.603  22.091   5.757
 3989POPC   GL251590   7.272  22.070   5.860
 3989POPC   C1A51591   7.608  22.150   6.241
 3989POPC   D2A51592   7.493  21.989   6.666
 3989POPC   C3A51593   7.589  22.183   7.082
 3989POPC   C4A51594   7.728  22.542   7.296
 3989POPC   C1B51595   7.022  21.878   6.180
 3989POPC   C2B51596   6.971  21.829   6.632
 3989POPC   C3B51597   7.098  21.972   7.036
 3989POPC   C4B51598   7.080  22.326   7.279
 3990POPC   NC351599  24.836  41.721   5.431
 3990POPC   PO451600  25.237  41.187   5.385
 3990POPC   GL151601  25.159  41.445   5.747
 3990POPC   GL251602  25.139  41.823   5.838
 3990POPC   C1A51603  25.078  41.349   6.146
 3990POPC   D2A51604  25.234  41.417   6.552
 3990POPC   C3A51605  25.068  41.661   6.885
 3990POPC   C4A51606  25.181  41.480   7.280
 3990POPC   C1B51607  25.203  41.868   6.296
 3990POPC   C2B51608  25.472  41.960   6.687
 3990POPC   C3B51609  25.376  42.007   7.149
 3990POPC   C4B51610  25.482  41.811   7.575
 3991POPC   NC351611  40.177  24.642   5.435
 3991POPC   PO451612  39.768  24.070   5.440
 3991POPC   GL151613  39.913  24.344   5.774
 3991POPC   GL251614  40.253  24.257   5.806
 3991POPC   C1A51615  39.857  24.728   6.033
 3991POPC   D2A51616  40.048  24.917   6.422
 3991POPC   C3A51617  40.039  24.762   6.860
 3991POPC   C4A51618  40.098  24.869   7.297
 3991POPC   C1B51619  40.165  24.395   6.238
 3991POPC   C2B51620  39.973  24.322   6.596
 3991POPC   C3B51621  39.762  24.199   6.955
 3991POPC   C4B51622  39.734  24.498   7.289
 3992POPC   NC351623  10.387  37.896   5.482
 3992POPC   PO451624  10.991  37.778   5.239
 3992POPC   GL151625  10.730  37.626   5.718
 3992POPC   GL251626  10.413  37.541   5.848
 3992POPC   C1A51627  10.545  37.874   6.188
 3992POPC   D2A51628  10.295  37.762   6.564
 3992POPC   C3A51629  10.314  37.874   7.010
 3992POPC   C4A51630  10.592  37.783   7.346
 3992POPC   C1B51631  10.631  37.356   6.224
 3992POPC   C2B51632  10.722  37.188   6.656
 3992POPC   C3B51633  10.573  37.342   7.061
 3992POPC   C4B51634  10.492  37.278   7.497
 3993POPC   NC351635  23.092   1.876   5.471
 3993POPC   PO451636  22.454   1.726   5.554
 3993POPC   GL151637  22.670   1.970   5.866
 3993POPC   GL251638  23.000   2.163   5.873
 3993POPC   C1A51639  22.747   1.766   6.265
 3993POPC   D2A51640  22.977   1.714   6.667
 3993POPC   C3A51641  22.847   1.659   7.074
 3993POPC   C4A51642  22.642   1.378   7.320
 3993POPC   C1B51643  22.824   2.262   6.259
 3993POPC   C2B51644  22.673   2.125   6.641
 3993POPC   C3B51645  22.946   2.147   6.976
 3993POPC   C4B51646  23.210   2.150   7.328
 3994POPC   NC351647  19.979  13.236   5.369
 3994POPC   PO451648  19.942  12.661   5.567
 3994POPC   GL151649  19.804  12.992   5.816
 3994POPC   GL251650  19.607  12.760   5.977
 3994POPC   C1A51651  19.812  13.138   6.249
 3994POPC   D2A51652  19.716  12.847   6.620
 3994POPC   C3A51653  19.940  12.880   6.998
 3994POPC   C4A51654  19.809  13.112   7.350
 3994POPC   C1B51655  19.788  12.524   6.240
 3994POPC   C2B51656  19.606  12.327   6.590
 3994POPC   C3B51657  19.649  12.452   6.983
 3994POPC   C4B51658  19.731  12.608   7.406
 3995POPC   NC351659  35.714  12.413   5.494
 3995POPC   PO451660  35.223  12.926   5.531
 3995POPC   GL151661  35.311  12.619   5.857
 3995POPC   GL251662  35.639  12.738   5.901
 3995POPC   C1A51663  35.376  12.543   6.322
 3995POPC   D2A51664  35.488  12.575   6.767
 3995POPC   C3A51665  35.158  12.598   7.092
 3995POPC   C4A51666  34.889  12.879   7.398
 3995POPC   C1B51667  35.515  13.062   6.192
 3995POPC   C2B51668  35.362  13.080   6.633
 3995POPC   C3B51669  35.509  13.004   7.063
 3995POPC   C4B51670  35.801  12.646   7.184
 3996POPC   NC351671  33.259  23.988   5.561
 3996POPC   PO451672  32.741  23.833   5.234
 3996POPC   GL151673  32.808  23.735   5.747
 3996POPC   GL251674  32.854  24.061   5.877
 3996POPC   C1A51675  32.883  23.816   6.300
 3996POPC   D2A51676  32.723  23.953   6.745
 3996POPC   C3A51677  33.006  23.911   7.124
 3996POPC   C4A51678  33.175  23.645   7.481
 3996POPC   C1B51679  33.222  24.174   6.186
 3996POPC   C2B51680  33.205  24.114   6.624
 3996POPC   C3B51681  33.401  24.233   7.011
 3996POPC   C4B51682  33.402  24.098   7.450
 3997POPC   NC351683   3.886   9.305   5.503
 3997POPC   PO451684   3.378   8.736   5.542
 3997POPC   GL151685   3.736   8.945   5.849
 3997POPC   GL251686   3.892   9.293   5.997
 3997POPC   C1A51687   3.608   8.940   6.265
 3997POPC   D2A51688   3.263   9.026   6.488
 3997POPC   C3A51689   3.408   9.034   6.886
 3997POPC   C4A51690   3.376   8.786   7.190
 3997POPC   C1B51691   3.517   9.432   6.197
 3997POPC   C2B51692   3.505   9.452   6.616
 3997POPC   C3B51693   3.822   9.333   6.925
 3997POPC   C4B51694   3.707   9.181   7.332
 3998POPC   NC351695  23.832  31.987   5.102
 3998POPC   PO451696  23.507  32.436   5.452
 3998POPC   GL151697  23.658  32.249   5.852
 3998POPC   GL251698  23.467  31.949   5.867
 3998POPC   C1A51699  23.956  32.192   6.225
 3998POPC   D2A51700  23.881  32.105   6.688
 3998POPC   C3A51701  23.914  32.431   7.013
 3998POPC   C4A51702  23.894  32.646   7.434
 3998POPC   C1B51703  23.550  31.916   6.292
 3998POPC   C2B51704  23.369  32.004   6.692
 3998POPC   C3B51705  23.539  31.981   7.108
 3998POPC   C4B51706  23.425  31.824   7.560
 3999POPC   NC351707  38.103  17.760   5.202
 3999POPC   PO451708  38.511  17.346   5.500
 3999POPC   GL151709  38.383  17.541   5.912
 3999POPC   GL251710  38.503  17.912   5.960
 3999POPC   C1A51711  38.494  17.338   6.301
 3999POPC   D2A51712  38.792  17.343   6.625
 3999POPC   C3A51713  38.563  17.527   6.940
 3999POPC   C4A51714  38.489  17.764   7.272
 3999POPC   C1B51715  38.340  17.826   6.366
 3999POPC   C2B51716  38.091  17.752   6.732
 3999POPC   C3B51717  38.023  17.917   7.136
 3999POPC   C4B51718  38.186  18.059   7.571
 4000POPC   NC351719  22.662   3.929   5.731
 4000POPC   PO451720  23.324   3.751   5.585
 4000POPC   GL151721  23.159   3.683   6.002
 4000POPC   GL251722  22.987   3.447   5.880
 4000POPC   C1A51723  22.782   3.704   6.315
 4000POPC   D2A51724  22.598   3.604   6.716
 4000POPC   C3A51725  22.970   3.491   6.890
 4000POPC   C4A51726  23.128   3.722   7.224
 4000POPC   C1B51727  22.758   3.220   6.186
 4000POPC   C2B51728  22.587   3.098   6.589
 4000POPC   C3B51729  22.708   3.050   7.012
 4000POPC   C4B51730  22.888   3.271   7.335
 4001POPC   NC351731  33.250  27.677   5.271
 4001POPC   PO451732  32.602  27.643   5.307
 4001POPC   GL151733  32.802  27.559   5.714
 4001POPC   GL251734  33.134  27.413   5.708
 4001POPC   C1A51735  32.830  27.576   6.157
 4001POPC   D2A51736  32.910  27.384   6.544
 4001POPC   C3A51737  32.640  27.565   6.872
 4001POPC   C4A51738  32.783  27.677   7.253
 4001POPC   C1B51739  33.270  27.748   6.004
 4001POPC   C2B51740  33.209  27.814   6.471
 4001POPC   C3B51741  33.163  27.676   6.897
 4001POPC   C4B51742  33.317  27.697   7.306
 4002POPC   NC351743  35.647  29.633   5.691
 4002POPC   PO451744  35.241  29.893   5.170
 4002POPC   GL151745  35.365  30.059   5.657
 4002POPC   GL251746  35.685  30.120   5.846
 4002POPC   C1A51747  35.285  30.086   6.130
 4002POPC   D2A51748  35.153  29.710   6.340
 4002POPC   C3A51749  35.081  29.748   6.773
 4002POPC   C4A51750  35.332  29.690   7.128
 4002POPC   C1B51751  35.774  30.212   6.292
 4002POPC   C2B51752  35.513  30.014   6.631
 4002POPC   C3B51753  35.366  30.191   7.000
 4002POPC   C4B51754  35.694  30.412   7.151
 4003POPC   NC351755  13.211  28.847   5.099
 4003POPC   PO451756  13.623  29.339   5.448
 4003POPC   GL151757  13.617  29.151   5.864
 4003POPC   GL251758  13.901  28.939   5.835
 4003POPC   C1A51759  13.486  28.968   6.275
 4003POPC   D2A51760  13.617  28.846   6.705
 4003POPC   C3A51761  13.360  29.011   7.069
 4003POPC   C4A51762  13.257  29.196   7.472
 4003POPC   C1B51763  14.000  29.052   6.249
 4003POPC   C2B51764  14.107  29.067   6.661
 4003POPC   C3B51765  13.863  29.214   6.969
 4003POPC   C4B51766  13.754  29.245   7.368
 4004POPC   NC351767  12.414  28.867   5.410
 4004POPC   PO451768  11.778  29.129   5.608
 4004POPC   GL151769  12.067  28.965   5.861
 4004POPC   GL251770  12.297  29.209   5.794
 4004POPC   C1A51771  12.064  29.162   6.274
 4004POPC   D2A51772  11.971  29.376   6.648
 4004POPC   C3A51773  12.005  29.226   7.055
 4004POPC   C4A51774  11.845  29.568   7.268
 4004POPC   C1B51775  12.479  29.418   6.132
 4004POPC   C2B51776  12.465  29.306   6.563
 4004POPC   C3B51777  12.436  29.509   6.943
 4004POPC   C4B51778  12.372  29.416   7.360
 4005POPC   NC351779  23.914  34.387   5.292
 4005POPC   PO451780  23.353  34.795   5.468
 4005POPC   GL151781  23.572  34.432   5.735
 4005POPC   GL251782  23.846  34.121   5.730
 4005POPC   C1A51783  23.654  34.500   6.185
 4005POPC   D2A51784  23.715  34.806   6.521
 4005POPC   C3A51785  23.631  34.673   6.937
 4005POPC   C4A51786  23.352  34.857   7.234
 4005POPC   C1B51787  23.985  34.131   6.147
 4005POPC   C2B51788  23.773  34.076   6.533
 4005POPC   C3B51789  23.896  34.061   6.946
 4005POPC   C4B51790  23.843  34.341   7.273
 4006POPC   NC351791  10.669  13.670   5.351
 4006POPC   PO451792  10.835  13.076   5.564
 4006POPC   GL151793  10.736  13.402   5.844
 4006POPC   GL251794  10.462  13.613   5.876
 4006POPC   C1A51795  10.605  13.416   6.308
 4006POPC   D2A51796  10.748  13.658   6.630
 4006POPC   C3A51797  10.685  13.548   7.046
 4006POPC   C4A51798  10.382  13.777   7.291
 4006POPC   C1B51799  10.124  13.347   6.127
 4006POPC   C2B51800  10.022  13.375   6.545
 4006POPC   C3B51801  10.179  13.429   6.951
 4006POPC   C4B51802  10.325  13.284   7.340
 4007POPC   NC351803  27.928  18.165   5.166
 4007POPC   PO451804  28.605  18.448   5.131
 4007POPC   GL151805  28.474  18.386   5.652
 4007POPC   GL251806  28.202  18.437   5.902
 4007POPC   C1A51807  28.616  18.424   6.155
 4007POPC   D2A51808  28.580  18.171   6.542
 4007POPC   C3A51809  28.729  18.271   6.966
 4007POPC   C4A51810  28.745  18.152   7.385
 4007POPC   C1B51811  28.089  18.420   6.341
 4007POPC   C2B51812  27.865  18.073   6.578
 4007POPC   C3B51813  27.907  17.881   7.004
 4007POPC   C4B51814  28.280  18.026   7.236
 4008POPC   NC351815  15.345  30.206   5.569
 4008POPC   PO451816  15.160  29.565   5.535
 4008POPC   GL151817  15.245  29.805   5.891
 4008POPC   GL251818  14.986  30.053   5.892
 4008POPC   C1A51819  15.197  29.842   6.347
 4008POPC   D2A51820  15.434  29.949   6.738
 4008POPC   C3A51821  15.407  29.774   7.129
 4008POPC   C4A51822  15.177  29.552   7.421
 4008POPC   C1B51823  14.910  30.271   6.231
 4008POPC   C2B51824  15.049  30.292   6.640
 4008POPC   C3B51825  15.128  30.315   7.057
 4008POPC   C4B51826  14.757  30.298   7.308
 4009POPC   NC351827   7.583  30.119   5.387
 4009POPC   PO451828   7.064  30.070   5.797
 4009POPC   GL151829   7.439  29.887   5.816
 4009POPC   GL251830   7.337  29.589   5.952
 4009POPC   C1A51831   7.647  29.993   6.160
 4009POPC   D2A51832   7.556  29.952   6.578
 4009POPC   C3A51833   7.230  30.036   6.880
 4009POPC   C4A51834   7.555  30.025   7.179
 4009POPC   C1B51835   7.193  29.648   6.380
 4009POPC   C2B51836   7.377  29.519   6.786
 4009POPC   C3B51837   7.293  29.554   7.217
 4009POPC   C4B51838   6.857  29.612   7.173
 4010POPC   NC351839  10.154  27.143   5.510
 4010POPC   PO451840   9.469  26.940   5.567
 4010POPC   GL151841   9.835  26.906   5.821
 4010POPC   GL251842   9.705  26.651   6.011
 4010POPC   C1A51843  10.032  26.988   6.195
 4010POPC   D2A51844   9.760  27.052   6.524
 4010POPC   C3A51845   9.964  27.072   6.916
 4010POPC   C4A51846   9.628  27.100   7.201
 4010POPC   C1B51847   9.963  26.436   6.228
 4010POPC   C2B51848   9.970  26.616   6.619
 4010POPC   C3B51849   9.749  26.610   6.988
 4010POPC   C4B51850   9.802  26.377   7.370
 4011POPC   NC351851  40.084  36.275   5.568
 4011POPC   PO451852  40.136  35.600   5.565
 4011POPC   GL151853  40.169  35.890   5.876
 4011POPC   GL251854  39.830  35.945   5.879
 4011POPC   C1A51855  40.134  36.189   6.219
 4011POPC   D2A51856  40.018  36.240   6.633
 4011POPC   C3A51857  40.303  36.407   6.943
 4011POPC   C4A51858  40.387  36.177   7.285
 4011POPC   C1B51859  39.626  36.040   6.282
 4011POPC   C2B51860  39.701  35.850   6.693
 4011POPC   C3B51861  39.903  35.982   7.074
 4011POPC   C4B51862  39.609  36.070   7.416
 4012POPC   NC351863   3.178  24.488   5.504
 4012POPC   PO451864   2.491  24.679   5.490
 4012POPC   GL151865   2.765  24.609   5.864
 4012POPC   GL251866   3.034  24.839   5.864
 4012POPC   C1A51867   2.723  24.628   6.343
 4012POPC   D2A51868   2.441  24.657   6.741
 4012POPC   C3A51869   2.672  24.535   7.104
 4012POPC   C4A51870   3.016  24.230   7.230
 4012POPC   C1B51871   3.244  24.774   6.235
 4012POPC   C2B51872   3.200  24.578   6.646
 4012POPC   C3B51873   3.185  24.674   7.093
 4012POPC   C4B51874   2.926  24.784   7.474
 4013POPC   NC351875   4.493  24.725   5.350
 4013POPC   PO451876   5.107  24.334   5.381
 4013POPC   GL151877   5.330  24.409   5.803
 4013POPC   GL251878   5.076  24.666   5.837
 4013POPC   C1A51879   5.137  24.352   6.225
 4013POPC   D2A51880   5.001  24.632   6.548
 4013POPC   C3A51881   5.188  24.388   6.845
 4013POPC   C4A51882   5.175  24.360   7.282
 4013POPC   C1B51883   5.371  24.827   6.195
 4013POPC   C2B51884   5.456  24.939   6.646
 4013POPC   C3B51885   5.355  24.798   7.069
 4013POPC   C4B51886   4.945  24.810   7.303
 4014POPC   NC351887  14.471  30.466   5.497
 4014POPC   PO451888  14.103  31.002   5.315
 4014POPC   GL151889  14.265  31.008   5.746
 4014POPC   GL251890  14.185  30.688   5.896
 4014POPC   C1A51891  14.542  30.943   6.127
 4014POPC   D2A51892  14.464  30.991   6.568
 4014POPC   C3A51893  14.634  30.678   6.841
 4014POPC   C4A51894  14.421  30.652   7.222
 4014POPC   C1B51895  14.069  30.618   6.346
 4014POPC   C2B51896  14.126  30.616   6.801
 4014POPC   C3B51897  13.960  30.488   7.223
 4014POPC   C4B51898  14.137  30.589   7.658
 4015POPC   NC351899  17.132  21.411   5.397
 4015POPC   PO451900  16.400  21.443   5.456
 4015POPC   GL151901  16.761  21.529   5.727
 4015POPC   GL251902  16.927  21.182   5.830
 4015POPC   C1A51903  16.994  21.593   6.130
 4015POPC   D2A51904  16.967  21.324   6.496
 4015POPC   C3A51905  16.821  21.538   6.872
 4015POPC   C4A51906  16.950  21.651   7.265
 4015POPC   C1B51907  16.563  21.294   6.118
 4015POPC   C2B51908  16.430  21.438   6.519
 4015POPC   C3B51909  16.338  21.384   6.966
 4015POPC   C4B51910  16.604  21.234   7.297
 4016POPC   NC351911  31.969   2.086   5.550
 4016POPC   PO451912  31.311   2.042   5.439
 4016POPC   GL151913  31.500   2.174   5.777
 4016POPC   GL251914  31.207   2.288   5.942
 4016POPC   C1A51915  31.718   1.983   6.131
 4016POPC   D2A51916  31.913   2.009   6.522
 4016POPC   C3A51917  31.693   1.962   6.906
 4016POPC   C4A51918  31.743   2.200   7.299
 4016POPC   C1B51919  31.215   1.861   6.119
 4016POPC   C2B51920  31.456   1.719   6.482
 4016POPC   C3B51921  31.192   1.838   6.814
 4016POPC   C4B51922  31.233   2.037   7.183
 4017POPC   NC351923  19.168  24.220   5.413
 4017POPC   PO451924  19.039  24.950   5.335
 4017POPC   GL151925  19.152  24.653   5.714
 4017POPC   GL251926  18.944  24.345   5.867
 4017POPC   C1A51927  19.214  24.654   6.187
 4017POPC   D2A51928  18.940  24.588   6.552
 4017POPC   C3A51929  19.138  24.609   6.965
 4017POPC   C4A51930  18.903  24.553   7.359
 4017POPC   C1B51931  19.260  24.143   6.191
 4017POPC   C2B51932  19.270  24.195   6.672
 4017POPC   C3B51933  19.034  24.135   7.116
 4017POPC   C4B51934  19.216  24.190   7.569
 4018POPC   NC351935  31.570  24.083   5.589
 4018POPC   PO451936  31.854  23.384   5.589
 4018POPC   GL151937  31.683  23.605   5.908
 4018POPC   GL251938  31.376  23.455   6.019
 4018POPC   C1A51939  31.751  23.701   6.336
 4018POPC   D2A51940  31.521  23.634   6.697
 4018POPC   C3A51941  31.580  23.672   7.150
 4018POPC   C4A51942  31.353  23.395   7.476
 4018POPC   C1B51943  31.286  23.877   6.229
 4018POPC   C2B51944  31.324  24.113   6.600
 4018POPC   C3B51945  31.138  23.870   6.923
 4018POPC   C4B51946  31.157  23.931   7.329
 4019POPC   NC351947  28.971  11.564   5.430
 4019POPC   PO451948  29.351  10.998   5.296
 4019POPC   GL151949  29.234  11.173   5.692
 4019POPC   GL251950  29.350  11.513   5.782
 4019POPC   C1A51951  29.155  11.102   6.150
 4019POPC   D2A51952  29.165  10.937   6.601
 4019POPC   C3A51953  28.936  11.073   6.949
 4019POPC   C4A51954  28.961  10.937   7.398
 4019POPC   C1B51955  29.026  11.601   6.127
 4019POPC   C2B51956  29.074  11.458   6.561
 4019POPC   C3B51957  29.285  11.447   6.959
 4019POPC   C4B51958  29.007  11.419   7.315
 4020POPC   NC351959  22.716  24.627   5.344
 4020POPC   PO451960  22.112  24.270   5.479
 4020POPC   GL151961  22.195  24.477   5.856
 4020POPC   GL251962  22.442  24.704   5.805
 4020POPC   C1A51963  22.001  24.543   6.247
 4020POPC   D2A51964  22.041  24.262   6.579
 4020POPC   C3A51965  21.998  24.462   6.950
 4020POPC   C4A51966  22.401  24.479   7.168
 4020POPC   C1B51967  22.521  24.594   6.257
 4020POPC   C2B51968  22.387  24.683   6.685
 4020POPC   C3B51969  22.455  24.960   7.075
 4020POPC   C4B51970  22.771  24.796   7.405
 4021POPC   NC351971  32.948  20.028   5.480
 4021POPC   PO451972  33.494  19.707   5.398
 4021POPC   GL151973  33.275  19.772   5.785
 4021POPC   GL251974  33.416  20.071   5.863
 4021POPC   C1A51975  33.182  19.853   6.261
 4021POPC   D2A51976  33.393  19.798   6.704
 4021POPC   C3A51977  33.099  19.617   7.054
 4021POPC   C4A51978  32.791  19.673   7.403
 4021POPC   C1B51979  33.378  20.341   6.193
 4021POPC   C2B51980  33.153  20.270   6.570
 4021POPC   C3B51981  33.089  20.107   6.982
 4021POPC   C4B51982  33.162  20.019   7.442
 4022POPC   NC351983  14.551  16.495   5.631
 4022POPC   PO451984  14.194  16.044   5.309
 4022POPC   GL151985  14.299  16.022   5.746
 4022POPC   GL251986  14.122  16.283   5.890
 4022POPC   C1A51987  14.168  15.821   6.157
 4022POPC   D2A51988  14.380  15.848   6.568
 4022POPC   C3A51989  14.213  15.871   6.986
 4022POPC   C4A51990  14.372  15.614   7.359
 4022POPC   C1B51991  14.472  16.235   6.219
 4022POPC   C2B51992  14.702  16.299   6.594
 4022POPC   C3B51993  14.758  16.000   6.893
 4022POPC   C4B51994  14.589  16.046   7.287
 4023POPC   NC351995  23.768  41.033   5.391
 4023POPC   PO451996  23.501  40.491   5.556
 4023POPC   GL151997  23.745  40.772   5.820
 4023POPC   GL251998  23.513  41.077   5.847
 4023POPC   C1A51999  24.007  40.839   6.192
 4023POPC   D2A52000  23.870  40.892   6.643
 4023POPC   C3A52001  23.945  40.664   7.040
 4023POPC   C4A52002  23.614  40.471   7.301
 4023POPC   C1B52003  23.470  40.823   6.239
 4023POPC   C2B52004  23.321  40.898   6.644
 4023POPC   C3B52005  23.481  40.942   7.064
 4023POPC   C4B52006  23.855  41.203   7.136
 4024POPC   NC352007   6.311  16.479   5.170
 4024POPC   PO452008   6.683  17.007   5.446
 4024POPC   GL152009   6.562  16.894   5.830
 4024POPC   GL252010   6.302  17.107   5.928
 4024POPC   C1A52011   6.664  16.659   6.205
 4024POPC   D2A52012   6.785  16.665   6.624
 4024POPC   C3A52013   6.449  16.597   6.909
 4024POPC   C4A52014   6.641  16.550   7.308
 4024POPC   C1B52015   6.624  17.164   6.259
 4024POPC   C2B52016   6.849  17.195   6.633
 4024POPC   C3B52017   6.721  17.015   7.025
 4024POPC   C4B52018   6.939  16.939   7.402
 4025POPC   NC352019  27.169  18.220   5.308
 4025POPC   PO452020  26.580  17.945   5.551
 4025POPC   GL152021  26.743  18.191   5.922
 4025POPC   GL252022  26.980  18.446   5.854
 4025POPC   C1A52023  26.786  18.173   6.388
 4025POPC   D2A52024  26.543  18.329   6.779
 4025POPC   C3A52025  26.783  18.262   7.148
 4025POPC   C4A52026  26.974  17.879   7.079
 4025POPC   C1B52027  27.066  18.578   6.265
 4025POPC   C2B52028  27.073  18.464   6.713
 4025POPC   C3B52029  27.192  18.590   7.136
 4025POPC   C4B52030  26.974  18.680   7.544
 4026POPC   NC352031  42.917  26.772   5.424
 4026POPC   PO452032  43.238  27.324   5.531
 4026POPC   GL152033  43.011  27.112   5.871
 4026POPC   GL252034  42.661  27.024   5.785
 4026POPC   C1A52035  43.075  26.928   6.310
 4026POPC   D2A52036  43.374  26.879   6.665
 4026POPC   C3A52037  43.221  26.713   7.055
 4026POPC   C4A52038  42.811  26.594   7.160
 4026POPC   C1B52039  42.616  27.137   6.202
 4026POPC   C2B52040  42.753  27.247   6.574
 4026POPC   C3B52041  42.975  27.131   6.895
 4026POPC   C4B52042  42.927  27.473   7.104
 4027POPC   NC352043  31.944  22.866   5.505
 4027POPC   PO452044  32.465  23.254   5.253
 4027POPC   GL152045  32.548  23.209   5.728
 4027POPC   GL252046  32.220  23.128   5.839
 4027POPC   C1A52047  32.534  23.046   6.213
 4027POPC   D2A52048  32.504  22.778   6.594
 4027POPC   C3A52049  32.527  23.018   6.989
 4027POPC   C4A52050  32.280  22.946   7.358
 4027POPC   C1B52051  32.065  23.321   6.210
 4027POPC   C2B52052  32.179  23.179   6.595
 4027POPC   C3B52053  32.010  22.972   6.926
 4027POPC   C4B52054  32.016  23.379   7.133
 4028POPC   NC352055  18.541   6.994   5.550
 4028POPC   PO452056  18.255   7.561   5.380
 4028POPC   GL152057  18.391   7.416   5.782
 4028POPC   GL252058  18.066   7.328   5.900
 4028POPC   C1A52059  18.445   7.146   6.179
 4028POPC   D2A52060  18.376   6.977   6.570
 4028POPC   C3A52061  18.496   7.155   6.923
 4028POPC   C4A52062  18.193   7.312   7.187
 4028POPC   C1B52063  18.263   7.657   6.201
 4028POPC   C2B52064  18.175   7.859   6.612
 4028POPC   C3B52065  18.244   7.808   7.059
 4028POPC   C4B52066  18.140   7.691   7.508
 4029POPC   NC352067  39.777  15.445   5.390
 4029POPC   PO452068  40.408  15.231   5.362
 4029POPC   GL152069  40.116  15.179   5.779
 4029POPC   GL252070  39.734  15.162   5.818
 4029POPC   C1A52071  39.957  15.085   6.259
 4029POPC   D2A52072  39.956  15.394   6.593
 4029POPC   C3A52073  40.077  15.222   6.948
 4029POPC   C4A52074  40.012  14.838   7.114
 4029POPC   C1B52075  39.595  15.462   6.163
 4029POPC   C2B52076  39.496  15.606   6.624
 4029POPC   C3B52077  39.602  15.387   7.043
 4029POPC   C4B52078  39.876  15.329   7.428
 4030POPC   NC352079  40.044   3.339   5.430
 4030POPC   PO452080  39.655   3.821   5.543
 4030POPC   GL152081  39.936   3.692   5.879
 4030POPC   GL252082  40.220   3.452   5.885
 4030POPC   C1A52083  39.966   3.577   6.333
 4030POPC   D2A52084  40.031   3.719   6.742
 4030POPC   C3A52085  40.139   3.389   7.032
 4030POPC   C4A52086  40.149   3.376   7.487
 4030POPC   C1B52087  40.408   3.761   6.151
 4030POPC   C2B52088  40.501   3.590   6.543
 4030POPC   C3B52089  40.497   3.744   6.944
 4030POPC   C4B52090  40.146   3.849   7.248
 4031POPC   NC352091  19.091  14.899   5.378
 4031POPC   PO452092  19.262  15.637   5.356
 4031POPC   GL152093  19.141  15.310   5.661
 4031POPC   GL252094  18.775  15.216   5.733
 4031POPC   C1A52095  19.176  15.222   6.081
 4031POPC   D2A52096  19.072  15.389   6.451
 4031POPC   C3A52097  19.243  15.237   6.819
 4031POPC   C4A52098  19.172  15.377   7.233
 4031POPC   C1B52099  18.699  15.047   6.148
 4031POPC   C2B52100  18.810  14.964   6.548
 4031POPC   C3B52101  18.769  15.127   6.940
 4031POPC   C4B52102  18.896  14.969   7.317
 4032POPC   NC352103  37.733   6.199   5.301
 4032POPC   PO452104  37.322   5.730   5.495
 4032POPC   GL152105  37.575   5.970   5.777
 4032POPC   GL252106  37.650   5.637   5.896
 4032POPC   C1A52107  37.642   6.127   6.216
 4032POPC   D2A52108  37.383   6.115   6.607
 4032POPC   C3A52109  37.617   6.092   6.986
 4032POPC   C4A52110  37.616   5.715   7.212
 4032POPC   C1B52111  37.867   5.614   6.241
 4032POPC   C2B52112  37.802   5.779   6.627
 4032POPC   C3B52113  38.055   5.765   6.972
 4032POPC   C4B52114  38.117   5.543   7.348
 4033POPC   NC352115  32.278  19.902   5.397
 4033POPC   PO452116  32.754  19.616   5.582
 4033POPC   GL152117  32.547  19.982   5.828
 4033POPC   GL252118  32.154  20.085   5.856
 4033POPC   C1A52119  32.451  19.916   6.255
 4033POPC   D2A52120  32.735  19.929   6.626
 4033POPC   C3A52121  32.498  19.813   6.986
 4033POPC   C4A52122  32.391  20.010   7.359
 4033POPC   C1B52123  31.913  19.996   6.235
 4033POPC   C2B52124  32.099  19.980   6.623
 4033POPC   C3B52125  32.029  20.068   7.013
 4033POPC   C4B52126  31.896  20.135   7.378
 4034POPC   NC352127  22.472  32.774   5.146
 4034POPC   PO452128  22.050  32.392   5.543
 4034POPC   GL152129  22.038  32.027   5.802
 4034POPC   GL252130  21.682  31.955   5.915
 4034POPC   C1A52131  22.258  32.072   6.180
 4034POPC   D2A52132  22.435  32.154   6.592
 4034POPC   C3A52133  22.236  32.141   7.012
 4034POPC   C4A52134  22.314  32.410   7.367
 4034POPC   C1B52135  21.783  32.295   6.193
 4034POPC   C2B52136  22.075  32.532   6.463
 4034POPC   C3B52137  22.063  32.599   6.901
 4034POPC   C4B52138  21.803  32.391   7.206
 4035POPC   NC352139  35.523  13.840   5.488
 4035POPC   PO452140  34.993  13.736   5.765
 4035POPC   GL152141  35.360  13.702   5.978
 4035POPC   GL252142  35.613  13.462   5.854
 4035POPC   C1A52143  35.233  13.479   6.331
 4035POPC   D2A52144  35.125  13.516   6.735
 4035POPC   C3A52145  35.008  13.793   7.028
 4035POPC   C4A52146  35.334  13.767   7.282
 4035POPC   C1B52147  35.736  13.543   6.292
 4035POPC   C2B52148  35.651  13.540   6.724
 4035POPC   C3B52149  35.765  13.566   7.143
 4035POPC   C4B52150  35.779  13.256   7.452
 4036POPC   NC352151   4.863  44.628   5.666
 4036POPC   PO452152   4.297  44.574   5.312
 4036POPC   GL152153   4.207  44.518   5.786
 4036POPC   GL252154   4.450  44.701   5.948
 4036POPC   C1A52155   4.187  44.413   6.258
 4036POPC   D2A52156   4.145  44.672   6.649
 4036POPC   C3A52157   4.389  44.495   6.975
 4036POPC   C4A52158   4.300  44.234   7.317
 4036POPC   C1B52159   4.421  44.966   6.296
 4036POPC   C2B52160   4.680  44.872   6.666
 4036POPC   C3B52161   4.723  44.881   7.115
 4036POPC   C4B52162   4.494  44.677   7.472
 4037POPC   NC352163  17.256  25.874   5.538
 4037POPC   PO452164  17.787  26.232   5.209
 4037POPC   GL152165  17.776  26.261   5.706
 4037POPC   GL252166  17.419  26.220   5.863
 4037POPC   C1A52167  17.806  26.156   6.171
 4037POPC   D2A52168  17.631  26.093   6.592
 4037POPC   C3A52169  17.573  26.260   7.027
 4037POPC   C4A52170  17.153  26.386   7.170
 4037POPC   C1B52171  17.386  25.841   6.186
 4037POPC   C2B52172  17.416  25.637   6.613
 4037POPC   C3B52173  17.459  25.713   7.073
 4037POPC   C4B52174  17.422  25.503   7.486
 4038POPC   NC352175  36.734   3.900   5.637
 4038POPC   PO452176  36.830   3.361   5.337
 4038POPC   GL152177  36.850   3.427   5.813
 4038POPC   GL252178  37.209   3.347   5.818
 4038POPC   C1A52179  36.864   3.728   6.235
 4038POPC   D2A52180  36.733   3.917   6.659
 4038POPC   C3A52181  36.950   3.761   7.058
 4038POPC   C4A52182  36.821   3.656   7.489
 4038POPC   C1B52183  37.093   3.271   6.248
 4038POPC   C2B52184  36.970   3.444   6.653
 4038POPC   C3B52185  36.809   3.267   7.057
 4038POPC   C4B52186  37.106   3.259   7.372
 4039POPC   NC352187  41.651  24.750   5.336
 4039POPC   PO452188  41.310  24.234   5.613
 4039POPC   GL152189  41.516  24.407   5.902
 4039POPC   GL252190  41.598  24.733   5.846
 4039POPC   C1A52191  41.418  24.466   6.302
 4039POPC   D2A52192  41.704  24.439   6.627
 4039POPC   C3A52193  41.771  24.175   6.966
 4039POPC   C4A52194  41.936  24.309   7.358
 4039POPC   C1B52195  41.848  24.733   6.213
 4039POPC   C2B52196  41.881  24.927   6.651
 4039POPC   C3B52197  41.721  24.723   7.050
 4039POPC   C4B52198  41.424  24.450   7.249
 4040POPC   NC352199   0.487   7.038   5.318
 4040POPC   PO452200   0.542   6.352   5.270
 4040POPC   GL152201   0.511   6.634   5.723
 4040POPC   GL252202   0.619   6.373   6.001
 4040POPC   C1A52203   0.289   6.738   6.165
 4040POPC   D2A52204   0.323   6.624   6.635
 4040POPC   C3A52205   0.037   6.752   6.976
 4040POPC   C4A52206   0.150   6.941   7.376
 4040POPC   C1B52207   0.801   6.766   6.157
 4040POPC   C2B52208   0.795   6.948   6.550
 4040POPC   C3B52209   0.764   6.725   6.927
 4040POPC   C4B52210   0.461   6.599   7.206
 4041POPC   NC352211  21.001   1.679   5.630
 4041POPC   PO452212  21.393   1.963   5.161
 4041POPC   GL152213  21.497   1.917   5.635
 4041POPC   GL252214  21.246   2.155   5.764
 4041POPC   C1A52215  21.434   1.826   6.126
 4041POPC   D2A52216  21.320   1.968   6.562
 4041POPC   C3A52217  21.554   1.870   6.949
 4041POPC   C4A52218  21.416   1.665   7.336
 4041POPC   C1B52219  21.153   2.394   6.155
 4041POPC   C2B52220  20.974   2.346   6.592
 4041POPC   C3B52221  21.267   2.328   6.951
 4041POPC   C4B52222  21.369   2.538   7.345
 4042POPC   NC352223  14.736  13.081   4.997
 4042POPC   PO452224  15.126  13.076   5.484
 4042POPC   GL152225  15.114  12.901   5.872
 4042POPC   GL252226  14.850  12.687   5.848
 4042POPC   C1A52227  15.373  12.961   6.232
 4042POPC   D2A52228  15.215  13.103   6.608
 4042POPC   C3A52229  15.329  12.857   6.946
 4042POPC   C4A52230  15.552  12.959   7.307
 4042POPC   C1B52231  14.977  12.620   6.281
 4042POPC   C2B52232  14.836  12.740   6.673
 4042POPC   C3B52233  14.814  12.965   7.048
 4042POPC   C4B52234  15.067  12.838   7.388
 4043POPC   NC352235  40.932  20.550   5.271
 4043POPC   PO452236  40.983  21.106   5.560
 4043POPC   GL152237  40.984  20.720   5.808
 4043POPC   GL252238  40.718  20.470   5.762
 4043POPC   C1A52239  40.945  20.525   6.233
 4043POPC   D2A52240  41.009  20.448   6.662
 4043POPC   C3A52241  40.820  20.789   6.874
 4043POPC   C4A52242  40.874  20.947   7.278
 4043POPC   C1B52243  40.547  20.816   6.081
 4043POPC   C2B52244  40.376  20.679   6.501
 4043POPC   C3B52245  40.482  20.404   6.832
 4043POPC   C4B52246  40.598  20.489   7.236
 4044POPC   NC352247  21.919  18.504   5.570
 4044POPC   PO452248  22.369  17.989   5.472
 4044POPC   GL152249  22.256  18.211   5.805
 4044POPC   GL252250  22.412  18.543   5.746
 4044POPC   C1A52251  22.069  18.148   6.211
 4044POPC   D2A52252  22.108  17.993   6.619
 4044POPC   C3A52253  21.930  18.112   6.977
 4044POPC   C4A52254  21.967  18.424   7.302
 4044POPC   C1B52255  22.567  18.374   6.156
 4044POPC   C2B52256  22.476  18.313   6.561
 4044POPC   C3B52257  22.337  18.432   6.941
 4044POPC   C4B52258  22.461  18.508   7.330
 4045POPC   NC352259  40.622  17.617   5.444
 4045POPC   PO452260  41.265  17.587   5.276
 4045POPC   GL152261  40.980  17.427   5.724
 4045POPC   GL252262  40.850  17.696   5.920
 4045POPC   C1A52263  40.634  17.270   6.066
 4045POPC   D2A52264  40.696  17.125   6.500
 4045POPC   C3A52265  40.803  17.386   6.872
 4045POPC   C4A52266  40.631  17.276   7.258
 4045POPC   C1B52267  40.883  17.595   6.355
 4045POPC   C2B52268  40.765  17.855   6.658
 4045POPC   C3B52269  40.500  17.824   6.978
 4045POPC   C4B52270  40.725  17.775   7.306
 4046POPC   NC352271   0.768   5.451   5.559
 4046POPC   PO452272   0.394   5.005   5.250
 4046POPC   GL152273   0.286   5.060   5.758
 4046POPC   GL252274   0.390   5.362   5.878
 4046POPC   C1A52275   0.248   5.142   6.290
 4046POPC   D2A52276   0.285   4.956   6.713
 4046POPC   C3A52277   0.136   4.753   7.116
 4046POPC   C4A52278   0.361   4.944   7.466
 4046POPC   C1B52279   0.735   5.112   6.122
 4046POPC   C2B52280   0.803   5.101   6.594
 4046POPC   C3B52281   0.658   5.176   7.026
 4046POPC   C4B52282   0.894   5.220   7.415
 4047POPC   NC352283   0.143  13.628   5.318
 4047POPC   PO452284   0.672  13.830   5.282
 4047POPC   GL152285   0.518  13.640   5.740
 4047POPC   GL252286   0.204  13.597   5.878
 4047POPC   C1A52287   0.632  13.765   6.225
 4047POPC   D2A52288   0.994  13.666   6.531
 4047POPC   C3A52289   0.818  13.622   6.978
 4047POPC   C4A52290   0.427  13.641   7.235
 4047POPC   C1B52291   0.095  13.705   6.313
 4047POPC   C2B52292   0.189  13.650   6.749
 4047POPC   C3B52293  44.994  13.392   7.043
 4047POPC   C4B52294   0.041  13.399   7.485
 4048POPC   NC352295  14.781  27.853   5.394
 4048POPC   PO452296  14.425  27.331   5.565
 4048POPC   GL152297  14.215  27.539   5.932
 4048POPC   GL252298  14.465  27.781   5.918
 4048POPC   C1A52299  14.171  27.622   6.379
 4048POPC   D2A52300  14.331  27.303   6.678
 4048POPC   C3A52301  14.041  27.251   7.042
 4048POPC   C4A52302  14.102  27.527   7.425
 4048POPC   C1B52303  14.615  27.456   6.222
 4048POPC   C2B52304  14.652  27.714   6.562
 4048POPC   C3B52305  14.463  27.773   6.948
 4048POPC   C4B52306  14.517  27.414   7.150
 4049POPC   NC352307  20.346  11.374   5.459
 4049POPC   PO452308  20.851  10.916   5.485
 4049POPC   GL152309  20.730  11.277   5.789
 4049POPC   GL252310  20.976  11.519   5.906
 4049POPC   C1A52311  20.426  11.465   6.119
 4049POPC   D2A52312  20.534  11.568   6.569
 4049POPC   C3A52313  20.244  11.599   6.890
 4049POPC   C4A52314  20.194  11.426   7.265
 4049POPC   C1B52315  20.870  11.296   6.305
 4049POPC   C2B52316  20.954  11.366   6.780
 4049POPC   C3B52317  20.875  11.282   7.238
 4049POPC   C4B52318  20.964  11.243   7.678
 4050POPC   NC352319  39.175  19.943   5.445
 4050POPC   PO452320  39.894  19.963   5.401
 4050POPC   GL152321  39.599  19.727   5.776
 4050POPC   GL252322  39.203  19.689   5.873
 4050POPC   C1A52323  39.499  19.806   6.249
 4050POPC   D2A52324  39.226  19.929   6.589
 4050POPC   C3A52325  39.345  19.669   6.903
 4050POPC   C4A52326  39.443  19.759   7.314
 4050POPC   C1B52327  38.958  19.645   6.232
 4050POPC   C2B52328  38.955  19.432   6.660
 4050POPC   C3B52329  38.904  19.552   7.091
 4050POPC   C4B52330  39.016  20.019   7.108
 4051POPC   NC352331  38.052  40.831   5.567
 4051POPC   PO452332  38.673  40.780   5.216
 4051POPC   GL152333  38.574  40.790   5.709
 4051POPC   GL252334  38.646  41.134   5.834
 4051POPC   C1A52335  38.479  40.625   6.173
 4051POPC   D2A52336  38.479  40.385   6.574
 4051POPC   C3A52337  38.389  40.542   6.976
 4051POPC   C4A52338  38.717  40.583   7.257
 4051POPC   C1B52339  38.356  41.130   6.193
 4051POPC   C2B52340  38.331  40.929   6.593
 4051POPC   C3B52341  38.494  41.033   6.996
 4051POPC   C4B52342  38.582  41.081   7.434
 4052POPC   NC352343  13.740  17.077   5.567
 4052POPC   PO452344  13.391  16.536   5.452
 4052POPC   GL152345  13.417  16.755   5.811
 4052POPC   GL252346  13.756  16.685   5.886
 4052POPC   C1A52347  13.370  16.658   6.247
 4052POPC   D2A52348  13.097  16.520   6.548
 4052POPC   C3A52349  13.368  16.441   6.883
 4052POPC   C4A52350  13.527  16.691   7.238
 4052POPC   C1B52351  13.784  16.947   6.236
 4052POPC   C2B52352  13.771  16.673   6.587
 4052POPC   C3B52353  13.946  16.731   6.964
 4052POPC   C4B52354  14.005  16.876   7.344
 4053POPC   NC352355  28.000  41.996   5.403
 4053POPC   PO452356  28.654  42.074   5.241
 4053POPC   GL152357  28.444  42.125   5.699
 4053POPC   GL252358  28.158  42.358   5.758
 4053POPC   C1A52359  28.418  42.183   6.185
 4053POPC   D2A52360  28.506  42.293   6.656
 4053POPC   C3A52361  28.382  42.093   7.054
 4053POPC   C4A52362  28.498  42.276   7.483
 4053POPC   C1B52363  28.088  42.585   6.170
 4053POPC   C2B52364  28.059  42.610   6.655
 4053POPC   C3B52365  28.273  42.591   7.095
 4053POPC   C4B52366  28.115  42.650   7.548
 4054POPC   NC352367  23.560  37.483   5.491
 4054POPC   PO452368  23.454  37.016   5.873
 4054POPC   GL152369  23.496  37.453   6.021
 4054POPC   GL252370  23.457  37.810   5.862
 4054POPC   C1A52371  23.904  37.584   6.181
 4054POPC   D2A52372  24.025  37.816   6.539
 4054POPC   C3A52373  23.872  37.682   6.905
 4054POPC   C4A52374  24.077  37.509   7.236
 4054POPC   C1B52375  23.641  38.021   6.228
 4054POPC   C2B52376  23.556  38.056   6.673
 4054POPC   C3B52377  23.531  37.987   7.135
 4054POPC   C4B52378  23.486  38.022   7.566
 4055POPC   NC352379  34.378  15.962   5.142
 4055POPC   PO452380  34.669  16.319   5.639
 4055POPC   GL152381  34.657  16.005   5.890
 4055POPC   GL252382  34.967  15.882   5.720
 4055POPC   C1A52383  34.634  16.040   6.358
 4055POPC   D2A52384  34.636  16.326   6.739
 4055POPC   C3A52385  34.465  16.193   7.180
 4055POPC   C4A52386  34.343  16.154   7.649
 4055POPC   C1B52387  34.994  15.742   6.138
 4055POPC   C2B52388  35.096  15.825   6.558
 4055POPC   C3B52389  34.891  15.894   6.940
 4055POPC   C4B52390  34.832  15.686   7.346
 4056POPC   NC352391  16.375  41.983   5.438
 4056POPC   PO452392  17.007  42.234   5.225
 4056POPC   GL152393  16.969  42.214   5.724
 4056POPC   GL252394  16.673  42.026   5.834
 4056POPC   C1A52395  16.837  42.346   6.182
 4056POPC   D2A52396  17.058  42.173   6.559
 4056POPC   C3A52397  16.988  42.288   6.951
 4056POPC   C4A52398  16.763  42.226   7.323
 4056POPC   C1B52399  16.439  42.020   6.191
 4056POPC   C2B52400  16.427  42.260   6.538
 4056POPC   C3B52401  16.462  42.099   6.934
 4056POPC   C4B52402  16.444  41.819   7.268
 4057POPC   NC352403   5.124  22.785   5.334
 4057POPC   PO452404   5.221  23.353   5.541
 4057POPC   GL152405   5.334  23.025   5.783
 4057POPC   GL252406   4.997  22.968   5.877
 4057POPC   C1A52407   5.408  23.001   6.218
 4057POPC   D2A52408   5.125  23.032   6.573
 4057POPC   C3A52409   5.096  22.763   6.957
 4057POPC   C4A52410   5.209  22.850   7.353
 4057POPC   C1B52411   4.935  23.337   6.180
 4057POPC   C2B52412   4.913  23.515   6.615
 4057POPC   C3B52413   5.000  23.287   7.008
 4057POPC   C4B52414   5.039  23.305   7.426
 4058POPC   NC352415  12.233  18.446   5.448
 4058POPC   PO452416  11.906  17.956   5.429
 4058POPC   GL152417  11.937  18.231   5.791
 4058POPC   GL252418  12.206  17.994   5.891
 4058POPC   C1A52419  11.954  18.430   6.212
 4058POPC   D2A52420  12.137  18.223   6.584
 4058POPC   C3A52421  11.962  18.346   6.986
 4058POPC   C4A52422  11.685  18.475   7.330
 4058POPC   C1B52423  11.853  17.908   6.191
 4058POPC   C2B52424  11.710  17.910   6.621
 4058POPC   C3B52425  12.023  17.827   6.931
 4058POPC   C4B52426  12.263  17.986   7.264
 4059POPC   NC352427   4.701  14.368   5.478
 4059POPC   PO452428   4.076  14.517   5.281
 4059POPC   GL152429   4.270  14.579   5.745
 4059POPC   GL252430   4.516  14.335   5.930
 4059POPC   C1A52431   4.101  14.436   6.185
 4059POPC   D2A52432   3.859  14.256   6.510
 4059POPC   C3A52433   4.166  14.240   6.798
 4059POPC   C4A52434   4.370  14.410   7.141
 4059POPC   C1B52435   4.710  14.166   6.276
 4059POPC   C2B52436   4.661  14.326   6.666
 4059POPC   C3B52437   4.747  14.067   7.005
 4059POPC   C4B52438   4.709  13.902   7.399
 4060POPC   NC352439   2.135  31.678   5.356
 4060POPC   PO452440   1.553  31.555   5.281
 4060POPC   GL152441   1.798  31.602   5.751
 4060POPC   GL252442   2.154  31.782   5.838
 4060POPC   C1A52443   1.968  31.511   6.211
 4060POPC   D2A52444   1.753  31.457   6.607
 4060POPC   C3A52445   1.826  31.623   7.012
 4060POPC   C4A52446   1.829  31.451   7.432
 4060POPC   C1B52447   2.009  32.017   6.203
 4060POPC   C2B52448   2.045  31.928   6.640
 4060POPC   C3B52449   2.172  32.042   7.053
 4060POPC   C4B52450   1.856  31.985   7.363
 4061POPC   NC352451  34.752  33.643   5.307
 4061POPC   PO452452  34.134  33.909   5.414
 4061POPC   GL152453  34.479  33.833   5.725
 4061POPC   GL252454  34.814  34.030   5.665
 4061POPC   C1A52455  34.444  33.663   6.161
 4061POPC   D2A52456  34.491  33.832   6.586
 4061POPC   C3A52457  34.573  33.509   6.905
 4061POPC   C4A52458  34.460  33.441   7.313
 4061POPC   C1B52459  34.761  34.053   6.127
 4061POPC   C2B52460  34.888  34.187   6.524
 4061POPC   C3B52461  34.924  33.931   6.863
 4061POPC   C4B52462  34.636  33.918   7.228
 4062POPC   NC352463   2.731  43.161   5.398
 4062POPC   PO452464   3.254  43.416   5.654
 4062POPC   GL152465   2.882  43.219   5.892
 4062POPC   GL252466   2.554  43.411   5.915
 4062POPC   C1A52467   2.807  43.034   6.293
 4062POPC   D2A52468   3.047  43.054   6.679
 4062POPC   C3A52469   2.890  42.916   7.038
 4062POPC   C4A52470   2.538  42.874   7.285
 4062POPC   C1B52471   2.398  43.378   6.350
 4062POPC   C2B52472   2.549  43.197   6.724
 4062POPC   C3B52473   2.594  43.362   7.098
 4062POPC   C4B52474   2.241  43.546   7.270
 4063POPC   NC352475  42.627  30.466   5.487
 4063POPC   PO452476  43.179  30.858   5.377
 4063POPC   GL152477  42.927  30.775   5.748
 4063POPC   GL252478  42.806  31.054   5.904
 4063POPC   C1A52479  42.961  30.438   6.079
 4063POPC   D2A52480  43.207  30.407   6.468
 4063POPC   C3A52481  42.968  30.536   6.824
 4063POPC   C4A52482  43.180  30.520   7.195
 4063POPC   C1B52483  43.206  31.169   6.117
 4063POPC   C2B52484  43.386  31.002   6.521
 4063POPC   C3B52485  43.134  31.069   6.874
 4063POPC   C4B52486  42.858  30.922   7.173
 4064POPC   NC352487   3.849  19.762   5.453
 4064POPC   PO452488   3.252  19.887   5.113
 4064POPC   GL152489   3.438  20.026   5.634
 4064POPC   GL252490   3.430  19.824   5.991
 4064POPC   C1A52491   3.649  20.252   6.076
 4064POPC   D2A52492   3.814  20.214   6.525
 4064POPC   C3A52493   3.719  19.819   6.777
 4064POPC   C4A52494   3.783  19.759   7.223
 4064POPC   C1B52495   3.394  19.605   6.413
 4064POPC   C2B52496   3.268  19.636   6.870
 4064POPC   C3B52497   3.320  19.544   7.307
 4064POPC   C4B52498   3.267  19.521   7.779
 4065POPC   NC352499  32.913  32.553   5.305
 4065POPC   PO452500  33.305  32.056   5.375
 4065POPC   GL152501  33.208  32.382   5.701
 4065POPC   GL252502  32.876  32.314   5.758
 4065POPC   C1A52503  33.205  32.519   6.162
 4065POPC   D2A52504  33.171  32.357   6.624
 4065POPC   C3A52505  32.991  32.651   6.979
 4065POPC   C4A52506  32.874  32.772   7.432
 4065POPC   C1B52507  32.900  32.111   6.151
 4065POPC   C2B52508  32.960  31.793   6.443
 4065POPC   C3B52509  32.884  31.848   6.860
 4065POPC   C4B52510  32.950  32.160   7.198
 4066POPC   NC352511  14.868  36.181   5.156
 4066POPC   PO452512  15.365  36.378   5.731
 4066POPC   GL152513  15.315  36.060   5.991
 4066POPC   GL252514  15.522  35.781   5.868
 4066POPC   C1A52515  15.208  36.122   6.448
 4066POPC   D2A52516  15.116  36.012   6.903
 4066POPC   C3A52517  15.081  36.381   7.201
 4066POPC   C4A52518  14.992  36.362   7.641
 4066POPC   C1B52519  15.371  35.656   6.289
 4066POPC   C2B52520  15.551  35.797   6.665
 4066POPC   C3B52521  15.632  35.624   7.041
 4066POPC   C4B52522  15.536  35.716   7.475
 4067POPC   NC352523   8.314  44.325   5.414
 4067POPC   PO452524   8.232  43.739   5.056
 4067POPC   GL152525   8.195  43.829   5.563
 4067POPC   GL252526   7.892  43.707   5.725
 4067POPC   C1A52527   8.231  43.863   6.069
 4067POPC   D2A52528   8.097  44.058   6.479
 4067POPC   C3A52529   8.288  44.093   6.873
 4067POPC   C4A52530   8.384  43.833   7.258
 4067POPC   C1B52531   7.755  43.689   6.182
 4067POPC   C2B52532   7.661  43.817   6.627
 4067POPC   C3B52533   7.892  43.827   7.028
 4067POPC   C4B52534   7.945  43.566   7.398
 4068POPC   NC352535  10.301  32.093   5.219
 4068POPC   PO452536  10.642  32.615   5.392
 4068POPC   GL152537  10.515  32.246   5.712
 4068POPC   GL252538  10.707  31.960   5.939
 4068POPC   C1A52539  10.276  32.139   6.108
 4068POPC   D2A52540  10.124  32.203   6.499
 4068POPC   C3A52541  10.316  32.228   6.905
 4068POPC   C4A52542  10.369  32.557   7.198
 4068POPC   C1B52543  10.740  32.346   6.190
 4068POPC   C2B52544  10.613  32.522   6.599
 4068POPC   C3B52545  10.824  32.447   7.004
 4068POPC   C4B52546  11.024  32.115   7.249
 4069POPC   NC352547   9.012  15.777   5.404
 4069POPC   PO452548   8.580  16.192   5.718
 4069POPC   GL152549   8.888  15.920   5.944
 4069POPC   GL252550   9.235  15.916   5.828
 4069POPC   C1A52551   8.824  15.855   6.401
 4069POPC   D2A52552   8.448  15.850   6.656
 4069POPC   C3A52553   8.620  16.109   6.958
 4069POPC   C4A52554   8.852  15.933   7.264
 4069POPC   C1B52555   9.317  15.772   6.238
 4069POPC   C2B52556   9.301  15.885   6.667
 4069POPC   C3B52557   9.284  15.730   7.085
 4069POPC   C4B52558   9.349  16.081   7.338
 4070POPC   NC352559   5.050  13.342   5.239
 4070POPC   PO452560   5.143  12.720   5.499
 4070POPC   GL152561   5.034  12.820   5.904
 4070POPC   GL252562   5.162  13.154   5.932
 4070POPC   C1A52563   5.141  12.718   6.337
 4070POPC   D2A52564   5.017  12.726   6.771
 4070POPC   C3A52565   5.294  12.707   7.115
 4070POPC   C4A52566   5.333  12.280   7.135
 4070POPC   C1B52567   4.853  13.171   6.242
 4070POPC   C2B52568   4.877  13.200   6.679
 4070POPC   C3B52569   4.915  13.087   7.122
 4070POPC   C4B52570   4.978  13.153   7.537
 4071POPC   NC352571   3.597  28.469   5.424
 4071POPC   PO452572   3.063  28.102   5.701
 4071POPC   GL152573   3.471  28.249   5.899
 4071POPC   GL252574   3.607  28.613   5.897
 4071POPC   C1A52575   3.563  28.420   6.349
 4071POPC   D2A52576   3.361  28.666   6.666
 4071POPC   C3A52577   3.425  28.396   6.998
 4071POPC   C4A52578   3.367  28.279   7.411
 4071POPC   C1B52579   3.527  28.931   6.225
 4071POPC   C2B52580   3.808  28.904   6.576
 4071POPC   C3B52581   3.892  28.553   6.839
 4071POPC   C4B52582   3.850  28.488   7.285
 4072POPC   NC352583  16.745  17.659   5.433
 4072POPC   PO452584  17.269  17.153   5.372
 4072POPC   GL152585  17.047  17.161   5.765
 4072POPC   GL252586  16.722  17.019   5.830
 4072POPC   C1A52587  16.924  17.469   6.079
 4072POPC   D2A52588  16.846  17.635   6.495
 4072POPC   C3A52589  17.018  17.779   6.901
 4072POPC   C4A52590  16.876  17.726   7.325
 4072POPC   C1B52591  16.507  17.182   6.217
 4072POPC   C2B52592  16.468  17.314   6.629
 4072POPC   C3B52593  16.764  17.340   6.939
 4072POPC   C4B52594  16.518  17.369   7.262
 4073POPC   NC352595  18.033  34.108   5.477
 4073POPC   PO452596  18.243  34.782   5.432
 4073POPC   GL152597  18.397  34.590   5.834
 4073POPC   GL252598  18.233  34.294   5.910
 4073POPC   C1A52599  18.496  34.573   6.302
 4073POPC   D2A52600  18.394  34.363   6.718
 4073POPC   C3A52601  18.377  34.505   7.157
 4073POPC   C4A52602  18.312  34.895   7.358
 4073POPC   C1B52603  18.084  34.257   6.302
 4073POPC   C2B52604  17.882  34.299   6.687
 4073POPC   C3B52605  17.964  34.163   7.100
 4073POPC   C4B52606  17.961  34.412   7.446
 4074POPC   NC352607  32.832  22.411   5.320
 4074POPC   PO452608  32.948  21.721   5.339
 4074POPC   GL152609  33.051  22.046   5.648
 4074POPC   GL252610  33.338  21.945   5.863
 4074POPC   C1A52611  33.086  22.366   5.983
 4074POPC   D2A52612  33.190  22.354   6.415
 4074POPC   C3A52613  32.850  22.394   6.742
 4074POPC   C4A52614  32.867  22.343   7.212
 4074POPC   C1B52615  33.215  21.765   6.227
 4074POPC   C2B52616  33.085  21.914   6.615
 4074POPC   C3B52617  33.220  22.088   6.950
 4074POPC   C4B52618  33.165  21.887   7.311
 4075POPC   NC352619  25.485  21.272   5.538
 4075POPC   PO452620  24.959  21.639   5.459
 4075POPC   GL152621  25.094  21.440   5.853
 4075POPC   GL252622  25.417  21.621   5.926
 4075POPC   C1A52623  25.184  21.080   6.166
 4075POPC   D2A52624  25.037  20.932   6.599
 4075POPC   C3A52625  25.299  20.973   6.987
 4075POPC   C4A52626  25.452  21.317   7.240
 4075POPC   C1B52627  25.224  21.587   6.345
 4075POPC   C2B52628  25.251  21.515   6.800
 4075POPC   C3B52629  25.203  21.762   7.186
 4075POPC   C4B52630  25.325  21.644   7.627
 4076POPC   NC352631  24.635   1.390   5.482
 4076POPC   PO452632  24.006   1.093   5.439
 4076POPC   GL152633  24.339   1.063   5.786
 4076POPC   GL252634  24.696   0.918   5.727
 4076POPC   C1A52635  24.302   1.272   6.220
 4076POPC   D2A52636  24.274   1.510   6.613
 4076POPC   C3A52637  24.257   1.261   6.991
 4076POPC   C4A52638  24.499   1.277   7.353
 4076POPC   C1B52639  24.792   1.151   6.114
 4076POPC   C2B52640  24.667   1.142   6.547
 4076POPC   C3B52641  24.785   1.182   6.948
 4076POPC   C4B52642  24.849   0.914   7.325
 4077POPC   NC352643   1.185  26.419   5.391
 4077POPC   PO452644   1.188  27.052   5.118
 4077POPC   GL152645   1.256  27.000   5.607
 4077POPC   GL252646   1.152  26.692   5.830
 4077POPC   C1A52647   1.455  27.031   6.046
 4077POPC   D2A52648   1.407  26.846   6.443
 4077POPC   C3A52649   1.451  27.055   6.857
 4077POPC   C4A52650   1.214  26.922   7.223
 4077POPC   C1B52651   1.412  26.439   6.093
 4077POPC   C2B52652   1.456  26.333   6.521
 4077POPC   C3B52653   1.418  26.548   6.898
 4077POPC   C4B52654   1.319  26.387   7.288
 4078POPC   NC352655  35.255   5.601   5.430
 4078POPC   PO452656  35.229   6.239   5.443
 4078POPC   GL152657  35.109   6.065   5.845
 4078POPC   GL252658  34.814   6.205   5.957
 4078POPC   C1A52659  35.354   5.982   6.236
 4078POPC   D2A52660  35.385   5.694   6.607
 4078POPC   C3A52661  35.552   5.799   7.021
 4078POPC   C4A52662  35.471   5.582   7.446
 4078POPC   C1B52663  34.870   6.146   6.359
 4078POPC   C2B52664  35.184   6.245   6.637
 4078POPC   C3B52665  35.121   6.235   7.038
 4078POPC   C4B52666  35.286   6.041   7.378
 4079POPC   NC352667  38.927  37.430   5.402
 4079POPC   PO452668  39.114  38.056   5.379
 4079POPC   GL152669  39.213  37.730   5.715
 4079POPC   GL252670  39.564  37.577   5.756
 4079POPC   C1A52671  39.047  37.675   6.183
 4079POPC   D2A52672  38.973  37.876   6.647
 4079POPC   C3A52673  39.032  37.667   7.093
 4079POPC   C4A52674  39.417  37.447   7.184
 4079POPC   C1B52675  39.527  37.878   6.076
 4079POPC   C2B52676  39.451  37.776   6.490
 4079POPC   C3B52677  39.458  37.885   6.900
 4079POPC   C4B52678  39.499  37.989   7.356
 4080POPC   NC352679  10.422  39.654   5.348
 4080POPC   PO452680  10.750  39.105   5.443
 4080POPC   GL152681  10.674  39.287   5.843
 4080POPC   GL252682  10.319  39.391   5.801
 4080POPC   C1A52683  10.707  39.292   6.313
 4080POPC   D2A52684  10.886  39.171   6.757
 4080POPC   C3A52685  10.632  38.910   7.086
 4080POPC   C4A52686  10.574  38.997   7.535
 4080POPC   C1B52687  10.307  39.019   6.101
 4080POPC   C2B52688  10.453  38.915   6.541
 4080POPC   C3B52689  10.370  39.254   6.826
 4080POPC   C4B52690  10.225  39.251   7.249
 4081POPC   NC352691  34.784  29.853   5.248
 4081POPC   PO452692  35.198  29.567   5.641
 4081POPC   GL152693  34.890  29.915   5.820
 4081POPC   GL252694  34.507  29.982   5.838
 4081POPC   C1A52695  34.796  30.092   6.249
 4081POPC   D2A52696  35.015  30.246   6.614
 4081POPC   C3A52697  34.751  30.098   6.969
 4081POPC   C4A52698  34.771  29.667   7.186
 4081POPC   C1B52699  34.291  29.921   6.287
 4081POPC   C2B52700  34.363  29.821   6.747
 4081POPC   C3B52701  34.141  29.972   7.121
 4081POPC   C4B52702  34.234  30.346   7.378
 4082POPC   NC352703  12.613  14.764   5.614
 4082POPC   PO452704  12.832  15.475   5.508
 4082POPC   GL152705  12.805  15.294   5.874
 4082POPC   GL252706  13.098  15.076   5.854
 4082POPC   C1A52707  12.747  15.076   6.241
 4082POPC   D2A52708  12.956  15.165   6.601
 4082POPC   C3A52709  12.800  15.160   7.004
 4082POPC   C4A52710  12.938  15.304   7.378
 4082POPC   C1B52711  13.318  14.923   6.254
 4082POPC   C2B52712  13.376  14.916   6.727
 4082POPC   C3B52713  13.292  15.003   7.155
 4082POPC   C4B52714  13.253  14.986   7.604
 4083POPC   NC352715  18.680  28.346   5.438
 4083POPC   PO452716  19.269  28.090   5.503
 4083POPC   GL152717  19.166  28.285   5.885
 4083POPC   GL252718  18.822  28.185   5.912
 4083POPC   C1A52719  19.112  28.505   6.280
 4083POPC   D2A52720  18.904  28.450   6.689
 4083POPC   C3A52721  19.137  28.441   7.082
 4083POPC   C4A52722  19.279  28.299   7.476
 4083POPC   C1B52723  18.717  28.132   6.324
 4083POPC   C2B52724  18.785  27.944   6.728
 4083POPC   C3B52725  18.696  28.158   7.073
 4083POPC   C4B52726  18.706  28.384   7.449
 4084POPC   NC352727  21.581   2.411   5.272
 4084POPC   PO452728  21.449   3.122   5.327
 4084POPC   GL152729  21.495   2.968   5.747
 4084POPC   GL252730  21.538   2.591   5.779
 4084POPC   C1A52731  21.353   2.901   6.172
 4084POPC   D2A52732  21.374   2.663   6.570
 4084POPC   C3A52733  21.198   2.848   6.980
 4084POPC   C4A52734  21.251   3.014   7.465
 4084POPC   C1B52735  21.664   2.313   6.156
 4084POPC   C2B52736  21.725   2.260   6.630
 4084POPC   C3B52737  21.768   2.383   7.082
 4084POPC   C4B52738  21.814   2.417   7.600
 4085POPC   NC352739  14.080  33.640   5.532
 4085POPC   PO452740  13.442  34.009   5.396
 4085POPC   GL152741  13.660  33.879   5.742
 4085POPC   GL252742  13.564  33.525   5.766
 4085POPC   C1A52743  13.680  34.068   6.158
 4085POPC   D2A52744  13.814  33.921   6.575
 4085POPC   C3A52745  13.565  33.960   6.967
 4085POPC   C4A52746  13.666  34.296   7.258
 4085POPC   C1B52747  13.818  33.555   6.139
 4085POPC   C2B52748  13.807  33.412   6.546
 4085POPC   C3B52749  13.877  33.403   6.955
 4085POPC   C4B52750  13.645  33.446   7.307
 4086POPC   NC352751  13.373  32.823   5.531
 4086POPC   PO452752  13.887  33.211   5.519
 4086POPC   GL152753  13.758  32.992   5.847
 4086POPC   GL252754  13.954  32.705   5.941
 4086POPC   C1A52755  13.581  33.047   6.241
 4086POPC   D2A52756  13.731  32.890   6.626
 4086POPC   C3A52757  13.548  33.024   7.002
 4086POPC   C4A52758  13.890  32.924   7.257
 4086POPC   C1B52759  13.558  32.540   6.149
 4086POPC   C2B52760  13.354  32.536   6.567
 4086POPC   C3B52761  13.476  32.516   6.992
 4086POPC   C4B52762  13.444  32.720   7.403
 4087POPC   NC352763  14.938  12.283   5.565
 4087POPC   PO452764  15.372  11.979   5.223
 4087POPC   GL152765  15.390  11.910   5.700
 4087POPC   GL252766  15.063  11.853   5.862
 4087POPC   C1A52767  15.485  11.798   6.131
 4087POPC   D2A52768  15.347  12.038   6.481
 4087POPC   C3A52769  15.296  11.869   6.885
 4087POPC   C4A52770  15.330  12.072   7.270
 4087POPC   C1B52771  14.899  12.110   6.219
 4087POPC   C2B52772  14.883  12.221   6.672
 4087POPC   C3B52773  15.011  12.447   7.062
 4087POPC   C4B52774  14.894  12.386   7.511
 4088POPC   NC352775   0.983  41.548   5.573
 4088POPC   PO452776   1.555  41.523   5.383
 4088POPC   GL152777   1.426  41.433   5.823
 4088POPC   GL252778   1.280  41.748   5.947
 4088POPC   C1A52779   1.314  41.332   6.259
 4088POPC   D2A52780   1.402  41.636   6.585
 4088POPC   C3A52781   1.287  41.623   7.005
 4088POPC   C4A52782   1.528  41.581   7.324
 4088POPC   C1B52783   1.150  41.993   6.309
 4088POPC   C2B52784   0.992  41.942   6.748
 4088POPC   C3B52785   1.149  42.107   7.170
 4088POPC   C4B52786   1.401  42.019   7.569
 4089POPC   NC352787  24.843  33.816   5.114
 4089POPC   PO452788  24.290  33.993   5.486
 4089POPC   GL152789  24.307  33.736   5.876
 4089POPC   GL252790  24.456  34.005   6.052
 4089POPC   C1A52791  24.613  33.548   6.185
 4089POPC   D2A52792  24.664  33.729   6.574
 4089POPC   C3A52793  24.682  33.451   6.904
 4089POPC   C4A52794  24.559  33.664   7.235
 4089POPC   C1B52795  24.430  34.192   6.476
 4089POPC   C2B52796  24.440  34.069   6.902
 4089POPC   C3B52797  24.282  34.071   7.306
 4089POPC   C4B52798  24.219  34.035   7.756
 4090POPC   NC352799  14.614  16.434   5.099
 4090POPC   PO452800  14.099  16.651   5.521
 4090POPC   GL152801  14.183  17.001   5.830
 4090POPC   GL252802  14.522  16.907   5.930
 4090POPC   C1A52803  14.257  17.165   6.287
 4090POPC   D2A52804  14.202  17.138   6.745
 4090POPC   C3A52805  14.451  16.872   7.033
 4090POPC   C4A52806  14.616  16.892   7.470
 4090POPC   C1B52807  14.211  16.667   6.207
 4090POPC   C2B52808  14.293  16.609   6.611
 4090POPC   C3B52809  14.317  16.366   6.976
 4090POPC   C4B52810  14.310  16.472   7.426
 4091POPC   NC352811   9.417  32.941   5.260
 4091POPC   PO452812   9.920  33.288   5.553
 4091POPC   GL152813   9.853  32.919   5.804
 4091POPC   GL252814   9.578  32.687   5.711
 4091POPC   C1A52815   9.926  33.042   6.226
 4091POPC   D2A52816   9.646  33.227   6.509
 4091POPC   C3A52817   9.771  33.074   6.869
 4091POPC   C4A52818   9.675  33.187   7.230
 4091POPC   C1B52819   9.464  32.863   6.145
 4091POPC   C2B52820   9.580  32.722   6.543
 4091POPC   C3B52821   9.402  32.694   6.941
 4091POPC   C4B52822   9.393  32.770   7.360
 4092POPC   NC352823  33.761  28.517   5.443
 4092POPC   PO452824  34.374  28.099   5.309
 4092POPC   GL152825  33.980  28.112   5.634
 4092POPC   GL252826  34.014  28.391   5.869
 4092POPC   C1A52827  33.653  28.087   5.990
 4092POPC   D2A52828  33.425  28.256   6.335
 4092POPC   C3A52829  33.544  28.173   6.763
 4092POPC   C4A52830  33.586  28.193   7.218
 4092POPC   C1B52831  34.125  28.464   6.266
 4092POPC   C2B52832  33.790  28.594   6.496
 4092POPC   C3B52833  33.826  28.615   6.885
 4092POPC   C4B52834  34.068  28.321   7.082
 4093POPC   NC352835  21.996   1.625   5.554
 4093POPC   PO452836  22.000   2.335   5.471
 4093POPC   GL152837  22.157   2.087   5.809
 4093POPC   GL252838  21.933   1.857   6.006
 4093POPC   C1A52839  22.327   2.115   6.224
 4093POPC   D2A52840  22.170   1.986   6.612
 4093POPC   C3A52841  22.280   2.243   6.957
 4093POPC   C4A52842  22.113   2.117   7.341
 4093POPC   C1B52843  22.267   1.600   6.238
 4093POPC   C2B52844  22.487   1.581   6.673
 4093POPC   C3B52845  22.341   1.742   7.068
 4093POPC   C4B52846  22.268   1.675   7.531
 4094POPC   NC352847  28.111  13.282   5.695
 4094POPC   PO452848  28.400  13.732   5.213
 4094POPC   GL152849  28.288  13.746   5.702
 4094POPC   GL252850  28.553  13.656   5.918
 4094POPC   C1A52851  28.175  13.755   6.207
 4094POPC   D2A52852  28.187  13.528   6.621
 4094POPC   C3A52853  28.164  13.738   7.045
 4094POPC   C4A52854  28.164  13.610   7.489
 4094POPC   C1B52855  28.661  13.583   6.335
 4094POPC   C2B52856  28.653  13.767   6.724
 4094POPC   C3B52857  28.715  13.613   7.138
 4094POPC   C4B52858  28.648  13.713   7.576
 4095POPC   NC352859  29.742  13.217   5.500
 4095POPC   PO452860  30.050  12.587   5.531
 4095POPC   GL152861  29.759  12.756   5.861
 4095POPC   GL252862  29.792  13.121   5.995
 4095POPC   C1A52863  29.856  12.737   6.318
 4095POPC   D2A52864  30.106  12.855   6.682
 4095POPC   C3A52865  29.879  13.054   7.013
 4095POPC   C4A52866  29.798  12.782   7.313
 4095POPC   C1B52867  30.226  13.107   6.214
 4095POPC   C2B52868  30.486  13.203   6.613
 4095POPC   C3B52869  30.395  13.144   7.059
 4095POPC   C4B52870  30.223  13.006   7.454
 4096POPC   NC352871  24.099  31.331   5.491
 4096POPC   PO452872  23.528  31.679   5.291
 4096POPC   GL152873  23.499  31.454   5.719
 4096POPC   GL252874  23.733  31.175   5.832
 4096POPC   C1A52875  23.399  31.429   6.180
 4096POPC   D2A52876  23.601  31.514   6.590
 4096POPC   C3A52877  23.576  31.461   7.027
 4096POPC   C4A52878  23.830  31.630   7.338
 4096POPC   C1B52879  23.836  31.108   6.286
 4096POPC   C2B52880  23.853  31.093   6.745
 4096POPC   C3B52881  24.067  31.246   7.099
 4096POPC   C4B52882  24.025  31.230   7.550
 4097POPC   NC352883  27.389  27.941   5.405
 4097POPC   PO452884  27.703  27.335   5.377
 4097POPC   GL152885  27.775  27.648   5.711
 4097POPC   GL252886  27.488  27.815   5.897
 4097POPC   C1A52887  27.907  27.626   6.145
 4097POPC   D2A52888  27.742  27.681   6.557
 4097POPC   C3A52889  27.970  27.771   6.929
 4097POPC   C4A52890  27.808  27.438   7.133
 4097POPC   C1B52891  27.320  27.559   6.268
 4097POPC   C2B52892  27.235  27.659   6.718
 4097POPC   C3B52893  27.451  27.819   7.081
 4097POPC   C4B52894  27.295  28.005   7.465
 4098POPC   NC352895  40.821   5.709   5.320
 4098POPC   PO452896  40.681   6.378   5.402
 4098POPC   GL152897  40.727   6.060   5.781
 4098POPC   GL252898  40.679   5.668   5.799
 4098POPC   C1A52899  40.708   5.885   6.237
 4098POPC   D2A52900  40.512   6.044   6.589
 4098POPC   C3A52901  40.886   6.148   6.780
 4098POPC   C4A52902  41.111   5.908   7.085
 4098POPC   C1B52903  40.315   5.546   6.111
 4098POPC   C2B52904  40.386   5.506   6.575
 4098POPC   C3B52905  40.670   5.670   6.924
 4098POPC   C4B52906  40.619   6.033   7.211
 4099POPC   NC352907  16.241  34.575   5.272
 4099POPC   PO452908  15.578  34.775   5.445
 4099POPC   GL152909  15.697  34.566   5.806
 4099POPC   GL252910  15.969  34.361   5.677
 4099POPC   C1A52911  15.557  34.523   6.232
 4099POPC   D2A52912  15.405  34.718   6.623
 4099POPC   C3A52913  15.774  34.767   6.803
 4099POPC   C4A52914  15.999  34.567   7.100
 4099POPC   C1B52915  16.175  34.561   6.044
 4099POPC   C2B52916  16.092  34.492   6.492
 4099POPC   C3B52917  16.326  34.254   6.820
 4099POPC   C4B52918  16.241  34.127   7.245
 4100POPC   NC352919  25.177  17.129   5.284
 4100POPC   PO452920  25.445  17.743   5.462
 4100POPC   GL152921  25.201  17.541   5.800
 4100POPC   GL252922  25.095  17.192   5.792
 4100POPC   C1A52923  25.298  17.368   6.208
 4100POPC   D2A52924  25.166  17.505   6.570
 4100POPC   C3A52925  25.344  17.454   6.951
 4100POPC   C4A52926  25.131  17.694   7.222
 4100POPC   C1B52927  24.952  16.970   6.172
 4100POPC   C2B52928  25.137  16.993   6.560
 4100POPC   C3B52929  25.004  17.051   6.964
 4100POPC   C4B52930  25.105  17.181   7.393
 4101POPC   NC352931   1.871  18.362   5.477
 4101POPC   PO452932   2.546  18.077   5.491
 4101POPC   GL152933   2.225  18.164   5.780
 4101POPC   GL252934   2.197  18.528   5.859
 4101POPC   C1A52935   2.038  18.130   6.192
 4101POPC   D2A52936   2.277  18.189   6.585
 4101POPC   C3A52937   2.154  18.034   6.962
 4101POPC   C4A52938   1.794  18.209   7.131
 4101POPC   C1B52939   2.085  18.634   6.307
 4101POPC   C2B52940   2.298  18.706   6.706
 4101POPC   C3B52941   2.263  18.498   7.097
 4101POPC   C4B52942   2.056  18.594   7.438
 4102POPC   NC352943  18.369  27.398   5.373
 4102POPC   PO452944  17.798  27.660   5.395
 4102POPC   GL152945  18.078  27.727   5.716
 4102POPC   GL252946  18.141  27.414   5.829
 4102POPC   C1A52947  18.077  27.796   6.160
 4102POPC   D2A52948  18.348  27.823   6.502
 4102POPC   C3A52949  18.300  27.725   6.926
 4102POPC   C4A52950  18.099  27.529   7.267
 4102POPC   C1B52951  18.372  27.382   6.218
 4102POPC   C2B52952  18.516  27.355   6.640
 4102POPC   C3B52953  18.442  27.209   7.047
 4102POPC   C4B52954  18.601  27.284   7.419
 4103POPC   NC352955  32.450   7.690   5.315
 4103POPC   PO452956  32.063   8.235   5.306
 4103POPC   GL152957  32.188   8.153   5.753
 4103POPC   GL252958  31.900   7.908   5.796
 4103POPC   C1A52959  32.404   8.123   6.192
 4103POPC   D2A52960  32.431   7.948   6.630
 4103POPC   C3A52961  32.525   8.184   6.998
 4103POPC   C4A52962  32.357   8.113   7.399
 4103POPC   C1B52963  31.900   8.068   6.214
 4103POPC   C2B52964  32.005   8.185   6.639
 4103POPC   C3B52965  31.990   8.030   7.045
 4103POPC   C4B52966  31.807   8.296   7.360
 4104POPC   NC352967   2.721  28.239   5.420
 4104POPC   PO452968   3.186  28.719   5.324
 4104POPC   GL152969   2.864  28.571   5.764
 4104POPC   GL252970   2.536  28.278   5.869
 4104POPC   C1A52971   2.687  28.589   6.227
 4104POPC   D2A52972   2.861  28.516   6.650
 4104POPC   C3A52973   2.682  28.498   7.064
 4104POPC   C4A52974   2.892  28.189   7.257
 4104POPC   C1B52975   2.392  28.061   6.270
 4104POPC   C2B52976   2.497  28.087   6.740
 4104POPC   C3B52977   2.611  27.814   7.101
 4104POPC   C4B52978   2.585  27.867   7.595
 4105POPC   NC352979  32.556  30.115   5.358
 4105POPC   PO452980  32.335  29.429   5.450
 4105POPC   GL152981  32.276  29.812   5.692
 4105POPC   GL252982  32.603  29.936   5.828
 4105POPC   C1A52983  32.169  29.872   6.125
 4105POPC   D2A52984  32.401  29.659   6.440
 4105POPC   C3A52985  32.263  29.681   6.842
 4105POPC   C4A52986  32.293  29.625   7.261
 4105POPC   C1B52987  32.651  30.086   6.253
 4105POPC   C2B52988  32.482  30.120   6.671
 4105POPC   C3B52989  32.519  30.103   7.113
 4105POPC   C4B52990  32.554  30.037   7.549
 4106POPC   NC352991   5.317   8.229   5.113
 4106POPC   PO452992   4.770   8.336   5.425
 4106POPC   GL152993   5.003   8.174   5.802
 4106POPC   GL252994   5.346   8.089   5.701
 4106POPC   C1A52995   5.020   8.214   6.267
 4106POPC   D2A52996   5.195   8.360   6.670
 4106POPC   C3A52997   5.030   8.300   7.080
 4106POPC   C4A52998   5.095   8.278   7.524
 4106POPC   C1B52999   5.341   7.886   6.074
 4106POPC   C2B53000   5.119   7.737   6.432
 4106POPC   C3B53001   5.183   7.850   6.842
 4106POPC   C4B53002   5.371   7.942   7.224
 4107POPC   NC353003   3.173   4.645   5.488
 4107POPC   PO453004   2.673   4.207   5.497
 4107POPC   GL153005   2.781   4.495   5.825
 4107POPC   GL253006   3.127   4.422   5.937
 4107POPC   C1A53007   2.659   4.444   6.253
 4107POPC   D2A53008   2.476   4.153   6.570
 4107POPC   C3A53009   2.696   4.256   6.961
 4107POPC   C4A53010   2.967   4.607   7.076
 4107POPC   C1B53011   3.089   4.027   6.157
 4107POPC   C2B53012   2.942   3.926   6.576
 4107POPC   C3B53013   3.105   3.923   6.990
 4107POPC   C4B53014   3.142   3.928   7.418
 4108POPC   NC353015  29.932  16.497   5.252
 4108POPC   PO453016  29.936  15.888   5.411
 4108POPC   GL153017  29.943  15.836   5.849
 4108POPC   GL253018  30.291  15.909   5.907
 4108POPC   C1A53019  29.742  15.921   6.247
 4108POPC   D2A53020  29.665  16.180   6.618
 4108POPC   C3A53021  29.870  16.028   6.965
 4108POPC   C4A53022  30.104  16.240   7.285
 4108POPC   C1B53023  30.226  15.689   6.285
 4108POPC   C2B53024  30.192  15.718   6.717
 4108POPC   C3B53025  30.262  15.761   7.180
 4108POPC   C4B53026  30.321  15.922   7.637
 4109POPC   NC353027  26.219  33.136   5.391
 4109POPC   PO453028  25.682  32.867   5.406
 4109POPC   GL153029  25.903  33.116   5.804
 4109POPC   GL253030  26.275  33.253   5.882
 4109POPC   C1A53031  25.987  33.058   6.272
 4109POPC   D2A53032  25.748  32.876   6.637
 4109POPC   C3A53033  25.971  32.752   7.022
 4109POPC   C4A53034  26.064  32.869   7.456
 4109POPC   C1B53035  26.452  33.321   6.333
 4109POPC   C2B53036  26.499  33.314   6.815
 4109POPC   C3B53037  26.220  33.291   7.214
 4109POPC   C4B53038  26.261  33.528   7.691
 4110POPC   NC353039  15.204  21.726   5.551
 4110POPC   PO453040  15.152  21.034   5.458
 4110POPC   GL153041  15.201  21.292   5.813
 4110POPC   GL253042  14.840  21.340   5.798
 4110POPC   C1A53043  15.409  21.491   6.183
 4110POPC   D2A53044  15.600  21.335   6.567
 4110POPC   C3A53045  15.345  21.445   6.900
 4110POPC   C4A53046  15.121  21.218   7.157
 4110POPC   C1B53047  14.882  21.527   6.216
 4110POPC   C2B53048  14.797  21.413   6.673
 4110POPC   C3B53049  14.607  21.532   7.084
 4110POPC   C4B53050  14.377  21.567   7.490
 4111POPC   NC353051  19.030  34.027   5.439
 4111POPC   PO453052  18.830  33.438   5.237
 4111POPC   GL153053  18.989  33.556   5.706
 4111POPC   GL253054  19.223  33.803   5.865
 4111POPC   C1A53055  18.906  33.622   6.193
 4111POPC   D2A53056  19.090  33.737   6.592
 4111POPC   C3A53057  18.944  33.651   6.995
 4111POPC   C4A53058  19.145  33.592   7.418
 4111POPC   C1B53059  19.467  33.817   6.269
 4111POPC   C2B53060  19.509  34.032   6.685
 4111POPC   C3B53061  19.260  34.039   7.103
 4111POPC   C4B53062  19.441  34.009   7.549
 4112POPC   NC353063  40.705  40.612   4.981
 4112POPC   PO453064  41.105  40.844   5.538
 4112POPC   GL153065  40.916  40.858   5.925
 4112POPC   GL253066  40.590  40.764   5.875
 4112POPC   C1A53067  40.746  40.883   6.346
 4112POPC   D2A53068  41.000  40.807   6.664
 4112POPC   C3A53069  40.857  41.135   6.880
 4112POPC   C4A53070  40.708  41.070   7.218
 4112POPC   C1B53071  40.697  40.424   6.170
 4112POPC   C2B53072  40.589  40.404   6.561
 4112POPC   C3B53073  40.564  40.677   6.901
 4112POPC   C4B53074  40.444  40.461   7.251
 4113POPC   NC353075  39.426   0.993   5.502
 4113POPC   PO453076  40.106   1.213   5.556
 4113POPC   GL153077  40.093   1.006   5.928
 4113POPC   GL253078  39.731   1.059   5.989
 4113POPC   C1A53079  40.141   1.008   6.366
 4113POPC   D2A53080  40.229   1.279   6.677
 4113POPC   C3A53081  40.100   1.227   7.077
 4113POPC   C4A53082  40.341   1.129   7.420
 4113POPC   C1B53083  39.922   1.444   6.222
 4113POPC   C2B53084  39.888   1.652   6.627
 4113POPC   C3B53085  39.715   1.582   7.033
 4113POPC   C4B53086  39.810   1.384   7.469
 4114POPC   NC353087  30.191  24.642   5.158
 4114POPC   PO453088  29.674  24.335   5.242
 4114POPC   GL153089  29.844  24.490   5.645
 4114POPC   GL253090  29.527  24.522   5.826
 4114POPC   C1A53091  29.978  24.526   6.134
 4114POPC   D2A53092  30.176  24.444   6.584
 4114POPC   C3A53093  30.023  24.664   6.942
 4114POPC   C4A53094  30.000  24.598   7.373
 4114POPC   C1B53095  29.535  24.250   6.209
 4114POPC   C2B53096  29.670  24.428   6.606
 4114POPC   C3B53097  29.505  24.479   7.013
 4114POPC   C4B53098  29.319  24.156   7.244
 4115POPC   NC353099   5.119   7.138   5.419
 4115POPC   PO453100   5.244   7.807   5.282
 4115POPC   GL153101   5.144   7.586   5.701
 4115POPC   GL253102   4.875   7.669   5.944
 4115POPC   C1A53103   5.292   7.374   6.082
 4115POPC   D2A53104   5.409   7.315   6.523
 4115POPC   C3A53105   5.055   7.335   6.801
 4115POPC   C4A53106   5.189   7.460   7.215
 4115POPC   C1B53107   4.766   7.370   6.287
 4115POPC   C2B53108   4.657   7.018   6.585
 4115POPC   C3B53109   4.744   6.936   7.025
 4115POPC   C4B53110   4.739   7.280   7.339
 4116POPC   NC353111  36.368   2.266   5.354
 4116POPC   PO453112  36.974   1.868   5.436
 4116POPC   GL153113  36.880   1.774   5.888
 4116POPC   GL253114  36.883   2.105   6.030
 4116POPC   C1A53115  36.900   1.681   6.330
 4116POPC   D2A53116  37.138   1.935   6.623
 4116POPC   C3A53117  37.256   1.767   6.960
 4116POPC   C4A53118  37.061   1.692   7.309
 4116POPC   C1B53119  37.237   2.283   6.269
 4116POPC   C2B53120  37.207   2.435   6.741
 4116POPC   C3B53121  37.007   2.194   7.101
 4116POPC   C4B53122  36.844   2.307   7.532
 4117POPC   NC353123  12.193   3.429   5.075
 4117POPC   PO453124  12.015   3.895   5.536
 4117POPC   GL153125  12.089   3.498   5.773
 4117POPC   GL253126  12.374   3.420   5.592
 4117POPC   C1A53127  12.082   3.232   6.202
 4117POPC   D2A53128  11.881   3.028   6.600
 4117POPC   C3A53129  11.900   3.284   6.999
 4117POPC   C4A53130  11.826   3.732   7.037
 4117POPC   C1B53131  12.528   3.452   6.053
 4117POPC   C2B53132  12.574   3.651   6.496
 4117POPC   C3B53133  12.450   3.637   6.954
 4117POPC   C4B53134  12.392   3.246   7.163
 4118POPC   NC353135  35.089   4.877   5.453
 4118POPC   PO453136  35.634   5.286   5.468
 4118POPC   GL153137  35.609   5.065   5.868
 4118POPC   GL253138  35.615   4.702   5.854
 4118POPC   C1A53139  35.428   5.172   6.277
 4118POPC   D2A53140  35.173   5.212   6.643
 4118POPC   C3A53141  35.421   5.285   7.010
 4118POPC   C4A53142  35.161   5.188   7.348
 4118POPC   C1B53143  35.313   4.648   6.168
 4118POPC   C2B53144  35.208   4.623   6.594
 4118POPC   C3B53145  35.272   4.801   6.982
 4118POPC   C4B53146  35.352   4.699   7.390
 4119POPC   NC353147   4.867   1.694   5.522
 4119POPC   PO453148   4.995   1.012   5.496
 4119POPC   GL153149   5.241   1.303   5.776
 4119POPC   GL253150   5.187   1.657   5.936
 4119POPC   C1A53151   5.421   1.225   6.184
 4119POPC   D2A53152   5.330   1.010   6.565
 4119POPC   C3A53153   5.307   1.295   6.876
 4119POPC   C4A53154   5.353   1.132   7.291
 4119POPC   C1B53155   4.904   1.359   6.180
 4119POPC   C2B53156   4.840   1.142   6.591
 4119POPC   C3B53157   4.938   0.995   7.010
 4119POPC   C4B53158   4.919   1.396   7.263
 4120POPC   NC353159  16.522  12.668   5.466
 4120POPC   PO453160  17.036  13.137   5.421
 4120POPC   GL153161  16.865  13.045   5.825
 4120POPC   GL253162  16.520  13.161   5.815
 4120POPC   C1A53163  16.973  12.868   6.238
 4120POPC   D2A53164  16.769  12.854   6.649
 4120POPC   C3A53165  17.025  12.891   7.024
 4120POPC   C4A53166  17.036  12.545   7.299
 4120POPC   C1B53167  16.471  13.026   6.221
 4120POPC   C2B53168  16.365  13.192   6.609
 4120POPC   C3B53169  16.501  13.076   7.034
 4120POPC   C4B53170  16.565  12.702   7.229
 4121POPC   NC353171  29.532   9.645   5.498
 4121POPC   PO453172  30.164   9.815   5.441
 4121POPC   GL153173  30.045  10.006   5.833
 4121POPC   GL253174  29.683   9.962   5.877
 4121POPC   C1A53175  30.255   9.941   6.227
 4121POPC   D2A53176  30.348  10.014   6.620
 4121POPC   C3A53177  30.133   9.790   6.937
 4121POPC   C4A53178  29.782   9.783   7.150
 4121POPC   C1B53179  29.815   9.650   6.184
 4121POPC   C2B53180  29.759   9.645   6.626
 4121POPC   C3B53181  29.500   9.417   6.913
 4121POPC   C4B53182  29.378   9.394   7.337
 4122POPC   NC353183  27.766  23.129   5.550
 4122POPC   PO453184  27.317  22.539   5.469
 4122POPC   GL153185  27.454  22.840   5.807
 4122POPC   GL253186  27.517  22.573   5.996
 4122POPC   C1A53187  27.656  22.998   6.217
 4122POPC   D2A53188  27.776  22.623   6.484
 4122POPC   C3A53189  28.004  22.727   6.857
 4122POPC   C4A53190  27.925  22.944   7.248
 4122POPC   C1B53191  27.218  22.782   6.301
 4122POPC   C2B53192  27.373  22.940   6.659
 4122POPC   C3B53193  27.509  22.760   7.018
 4122POPC   C4B53194  27.276  22.935   7.336
 4123POPC   NC353195  27.405  44.453   5.280
 4123POPC   PO453196  27.997  44.759   5.543
 4123POPC   GL153197  27.681  44.495   5.752
 4123POPC   GL253198  27.412  44.750   5.737
 4123POPC   C1A53199  27.508  44.488   6.181
 4123POPC   D2A53200  27.603  44.635   6.591
 4123POPC   C3A53201  27.531  44.452   6.983
 4123POPC   C4A53202  27.718  44.471   7.359
 4123POPC   C1B53203  27.268  44.929   6.181
 4123POPC   C2B53204  27.112  44.838   6.628
 4123POPC   C3B53205  27.286  44.908   7.061
 4123POPC   C4B53206  27.456  44.877   7.491
 4124POPC   NC353207  34.790  28.020   5.508
 4124POPC   PO453208  34.357  27.504   5.341
 4124POPC   GL153209  34.534  27.501   5.778
 4124POPC   GL253210  34.871  27.603   5.840
 4124POPC   C1A53211  34.603  27.378   6.209
 4124POPC   D2A53212  34.680  27.655   6.548
 4124POPC   C3A53213  34.539  27.461   6.906
 4124POPC   C4A53214  34.671  27.591   7.315
 4124POPC   C1B53215  35.023  27.876   6.165
 4124POPC   C2B53216  35.183  27.869   6.582
 4124POPC   C3B53217  34.942  27.913   6.969
 4124POPC   C4B53218  35.051  27.944   7.407
 4125POPC   NC353219   1.369  15.874   5.693
 4125POPC   PO453220   1.827  15.701   5.226
 4125POPC   GL153221   1.890  15.764   5.664
 4125POPC   GL253222   2.186  15.964   5.713
 4125POPC   C1A53223   1.879  15.827   6.137
 4125POPC   D2A53224   1.755  15.952   6.567
 4125POPC   C3A53225   1.863  15.725   6.973
 4125POPC   C4A53226   1.754  15.750   7.424
 4125POPC   C1B53227   2.257  16.230   6.086
 4125POPC   C2B53228   2.220  16.173   6.509
 4125POPC   C3B53229   2.281  16.332   6.916
 4125POPC   C4B53230   2.404  16.151   7.309
 4126POPC   NC353231  25.801   6.181   5.653
 4126POPC   PO453232  26.144   5.616   5.421
 4126POPC   GL153233  26.234   5.748   5.821
 4126POPC   GL253234  26.232   6.092   5.892
 4126POPC   C1A53235  26.027   5.718   6.218
 4126POPC   D2A53236  26.187   5.716   6.629
 4126POPC   C3A53237  25.916   5.841   6.976
 4126POPC   C4A53238  25.941   5.582   7.365
 4126POPC   C1B53239  26.465   5.996   6.267
 4126POPC   C2B53240  26.630   5.977   6.702
 4126POPC   C3B53241  26.399   5.812   7.093
 4126POPC   C4B53242  26.255   5.981   7.495
 4127POPC   NC353243  25.753  29.873   5.376
 4127POPC   PO453244  26.327  29.657   5.433
 4127POPC   GL153245  26.142  29.886   5.768
 4127POPC   GL253246  25.962  30.222   5.681
 4127POPC   C1A53247  26.039  29.681   6.171
 4127POPC   D2A53248  25.854  29.496   6.545
 4127POPC   C3A53249  26.013  29.674   6.886
 4127POPC   C4A53250  26.139  29.884   7.241
 4127POPC   C1B53251  25.930  30.192   6.139
 4127POPC   C2B53252  26.084  30.048   6.537
 4127POPC   C3B53253  26.259  30.230   6.899
 4127POPC   C4B53254  25.894  30.344   7.170
 4128POPC   NC353255   2.900  21.791   5.212
 4128POPC   PO453256   2.680  22.421   5.452
 4128POPC   GL153257   2.826  22.304   5.809
 4128POPC   GL253258   2.977  22.004   5.747
 4128POPC   C1A53259   2.671  22.286   6.206
 4128POPC   D2A53260   2.862  22.469   6.545
 4128POPC   C3A53261   2.740  22.278   6.890
 4128POPC   C4A53262   2.688  22.356   7.291
 4128POPC   C1B53263   3.121  22.026   6.199
 4128POPC   C2B53264   3.213  22.102   6.652
 4128POPC   C3B53265   3.165  22.116   7.105
 4128POPC   C4B53266   3.092  22.105   7.541
 4129POPC   NC353267   6.778  11.619   5.419
 4129POPC   PO453268   6.522  12.228   5.354
 4129POPC   GL153269   6.508  12.174   5.791
 4129POPC   GL253270   6.723  11.893   5.849
 4129POPC   C1A53271   6.616  12.277   6.210
 4129POPC   D2A53272   6.412  12.480   6.559
 4129POPC   C3A53273   6.525  12.254   6.924
 4129POPC   C4A53274   6.485  12.104   7.343
 4129POPC   C1B53275   6.756  11.732   6.263
 4129POPC   C2B53276   6.821  11.943   6.650
 4129POPC   C3B53277   6.838  11.827   7.086
 4129POPC   C4B53278   6.966  11.987   7.507
 4130POPC   NC353279  19.116  10.181   5.409
 4130POPC   PO453280  19.518   9.619   5.170
 4130POPC   GL153281  19.035   9.608   5.599
 4130POPC   GL253282  19.020   9.976   5.882
 4130POPC   C1A53283  18.995   9.561   6.123
 4130POPC   D2A53284  19.133   9.835   6.510
 4130POPC   C3A53285  19.027   9.863   6.975
 4130POPC   C4A53286  19.239   9.798   7.403
 4130POPC   C1B53287  18.738  10.074   6.256
 4130POPC   C2B53288  18.710  10.222   6.707
 4130POPC   C3B53289  18.647  10.214   7.171
 4130POPC   C4B53290  18.828  10.036   7.561
 4131POPC   NC353291  15.561  22.286   5.512
 4131POPC   PO453292  16.229  22.425   5.546
 4131POPC   GL153293  16.032  22.204   5.884
 4131POPC   GL253294  16.056  21.852   5.890
 4131POPC   C1A53295  16.205  22.179   6.314
 4131POPC   D2A53296  16.306  22.415   6.660
 4131POPC   C3A53297  16.132  22.327   7.041
 4131POPC   C4A53298  16.132  22.193   7.459
 4131POPC   C1B53299  15.774  21.934   6.264
 4131POPC   C2B53300  15.809  22.141   6.678
 4131POPC   C3B53301  15.772  21.966   7.115
 4131POPC   C4B53302  15.503  21.975   7.498
 4132POPC   NC353303   1.752  20.713   5.451
 4132POPC   PO453304   2.390  20.483   5.494
 4132POPC   GL153305   2.081  20.481   5.864
 4132POPC   GL253306   1.868  20.777   5.938
 4132POPC   C1A53307   1.977  20.494   6.325
 4132POPC   D2A53308   1.815  20.721   6.684
 4132POPC   C3A53309   1.965  20.543   7.067
 4132POPC   C4A53310   1.761  20.516   7.489
 4132POPC   C1B53311   1.873  21.071   6.281
 4132POPC   C2B53312   2.136  21.128   6.650
 4132POPC   C3B53313   2.029  21.123   7.017
 4132POPC   C4B53314   2.101  20.924   7.365
 4133POPC   NC353315  30.007  36.432   5.407
 4133POPC   PO453316  29.973  35.784   5.323
 4133POPC   GL153317  29.926  36.010   5.762
 4133POPC   GL253318  30.139  36.306   5.898
 4133POPC   C1A53319  29.922  35.953   6.249
 4133POPC   D2A53320  29.881  35.991   6.726
 4133POPC   C3A53321  30.085  36.170   7.079
 4133POPC   C4A53322  30.062  35.917   7.454
 4133POPC   C1B53323  29.730  36.410   6.089
 4133POPC   C2B53324  29.588  36.341   6.498
 4133POPC   C3B53325  29.637  36.419   6.926
 4133POPC   C4B53326  29.663  36.241   7.348
 4134POPC   NC353327   9.738  22.894   5.402
 4134POPC   PO453328   9.246  23.196   5.718
 4134POPC   GL153329   9.574  22.884   5.893
 4134POPC   GL253330   9.955  22.765   5.832
 4134POPC   C1A53331   9.551  22.715   6.298
 4134POPC   D2A53332   9.417  22.823   6.697
 4134POPC   C3A53333   9.670  22.801   7.028
 4134POPC   C4A53334   9.679  23.117   7.287
 4134POPC   C1B53335   9.993  22.967   6.249
 4134POPC   C2B53336   9.933  23.117   6.692
 4134POPC   C3B53337  10.134  23.011   7.086
 4134POPC   C4B53338  10.059  22.794   7.495
 4135POPC   NC353339  39.411  33.444   5.517
 4135POPC   PO453340  39.035  32.917   5.431
 4135POPC   GL153341  39.279  33.010   5.812
 4135POPC   GL253342  39.530  32.746   5.844
 4135POPC   C1A53343  39.197  33.221   6.230
 4135POPC   D2A53344  39.236  33.463   6.651
 4135POPC   C3A53345  39.051  33.256   7.030
 4135POPC   C4A53346  38.983  32.914   7.314
 4135POPC   C1B53347  39.647  32.900   6.233
 4135POPC   C2B53348  39.511  33.038   6.616
 4135POPC   C3B53349  39.576  32.912   7.034
 4135POPC   C4B53350  39.470  33.162   7.393
 4136POPC   NC353351  14.869  29.919   5.421
 4136POPC   PO453352  14.194  29.819   5.497
 4136POPC   GL153353  14.454  30.004   5.812
 4136POPC   GL253354  14.176  30.177   5.917
 4136POPC   C1A53355  14.512  29.962   6.289
 4136POPC   D2A53356  14.773  29.726   6.614
 4136POPC   C3A53357  14.868  29.871   7.046
 4136POPC   C4A53358  14.706  29.793   7.464
 4136POPC   C1B53359  13.970  30.023   6.288
 4136POPC   C2B53360  14.022  30.108   6.718
 4136POPC   C3B53361  14.327  30.130   7.040
 4136POPC   C4B53362  14.297  30.133   7.479
 4137POPC   NC353363  37.377  38.839   5.724
 4137POPC   PO453364  37.524  38.290   5.294
 4137POPC   GL153365  37.568  38.357   5.738
 4137POPC   GL253366  37.880  38.525   5.858
 4137POPC   C1A53367  37.573  38.378   6.211
 4137POPC   D2A53368  37.870  38.302   6.522
 4137POPC   C3A53369  37.660  38.257   6.921
 4137POPC   C4A53370  37.744  38.413   7.318
 4137POPC   C1B53371  37.946  38.791   6.218
 4137POPC   C2B53372  37.696  38.811   6.586
 4137POPC   C3B53373  37.707  38.840   7.021
 4137POPC   C4B53374  38.041  38.859   7.356
 4138POPC   NC353375  31.129   4.407   5.380
 4138POPC   PO453376  30.815   3.956   5.719
 4138POPC   GL153377  30.653   4.214   5.983
 4138POPC   GL253378  30.904   4.470   5.833
 4138POPC   C1A53379  30.670   4.069   6.418
 4138POPC   D2A53380  30.943   4.154   6.810
 4138POPC   C3A53381  30.670   4.128   7.158
 4138POPC   C4A53382  30.242   4.122   7.128
 4138POPC   C1B53383  30.967   4.498   6.260
 4138POPC   C2B53384  30.651   4.544   6.564
 4138POPC   C3B53385  30.669   4.593   6.963
 4138POPC   C4B53386  30.971   4.533   7.301
 4139POPC   NC353387  43.993  35.927   5.263
 4139POPC   PO453388  44.231  36.478   5.539
 4139POPC   GL153389  44.102  36.083   5.760
 4139POPC   GL253390  43.740  35.914   5.710
 4139POPC   C1A53391  44.177  35.866   6.158
 4139POPC   D2A53392  44.031  35.657   6.551
 4139POPC   C3A53393  44.175  35.830   6.927
 4139POPC   C4A53394  44.007  36.057   7.272
 4139POPC   C1B53395  43.655  36.170   6.067
 4139POPC   C2B53396  43.660  36.140   6.515
 4139POPC   C3B53397  43.725  36.371   6.908
 4139POPC   C4B53398  43.540  36.256   7.282
 4140POPC   NC353399  30.323  41.695   5.407
 4140POPC   PO453400  30.952  41.401   5.499
 4140POPC   GL153401  30.731  41.677   5.781
 4140POPC   GL253402  30.427  41.519   5.892
 4140POPC   C1A53403  30.750  41.768   6.231
 4140POPC   D2A53404  30.832  41.557   6.639
 4140POPC   C3A53405  30.535  41.745   6.923
 4140POPC   C4A53406  30.574  41.855   7.360
 4140POPC   C1B53407  30.733  41.267   6.134
 4140POPC   C2B53408  30.689  41.064   6.524
 4140POPC   C3B53409  30.805  41.057   6.962
 4140POPC   C4B53410  30.738  41.379   7.231
 4141POPC   NC353411  16.134  41.373   5.029
 4141POPC   PO453412  15.930  41.988   5.273
 4141POPC   GL153413  15.855  41.842   5.706
 4141POPC   GL253414  15.776  41.477   5.662
 4141POPC   C1A53415  16.016  41.735   6.132
 4141POPC   D2A53416  16.019  41.898   6.586
 4141POPC   C3A53417  16.218  41.605   6.855
 4141POPC   C4A53418  16.139  41.415   7.265
 4141POPC   C1B53419  15.623  41.419   6.102
 4141POPC   C2B53420  15.851  41.382   6.500
 4141POPC   C3B53421  15.806  41.251   6.907
 4141POPC   C4B53422  15.625  41.383   7.278
 4142POPC   NC353423  29.283  42.581   5.445
 4142POPC   PO453424  29.140  41.966   5.606
 4142POPC   GL153425  28.921  42.205   5.900
 4142POPC   GL253426  29.036  42.564   5.890
 4142POPC   C1A53427  28.899  42.338   6.331
 4142POPC   D2A53428  29.026  42.156   6.706
 4142POPC   C3A53429  28.846  42.326   7.091
 4142POPC   C4A53430  28.955  42.511   7.484
 4142POPC   C1B53431  29.375  42.395   6.160
 4142POPC   C2B53432  29.471  42.443   6.622
 4142POPC   C3B53433  29.337  42.496   7.086
 4142POPC   C4B53434  29.435  42.715   7.508
 4143POPC   NC353435  32.470  21.664   5.368
 4143POPC   PO453436  32.414  20.895   5.280
 4143POPC   GL153437  32.298  21.125   5.708
 4143POPC   GL253438  32.248  21.493   5.783
 4143POPC   C1A53439  32.148  21.183   6.159
 4143POPC   D2A53440  32.347  21.380   6.530
 4143POPC   C3A53441  32.191  21.300   6.898
 4143POPC   C4A53442  32.385  21.259   7.239
 4143POPC   C1B53443  32.225  21.737   6.185
 4143POPC   C2B53444  32.065  21.799   6.635
 4143POPC   C3B53445  32.082  21.764   7.089
 4143POPC   C4B53446  32.145  22.078   7.409
 4144POPC   NC353447   4.216  33.154   5.502
 4144POPC   PO453448   4.390  32.439   5.506
 4144POPC   GL153449   4.336  32.692   5.927
 4144POPC   GL253450   4.181  33.036   6.005
 4144POPC   C1A53451   4.618  32.969   6.232
 4144POPC   D2A53452   4.661  33.313   6.548
 4144POPC   C3A53453   4.444  33.219   6.917
 4144POPC   C4A53454   4.599  32.838   7.046
 4144POPC   C1B53455   4.153  32.818   6.409
 4144POPC   C2B53456   4.122  32.817   6.851
 4144POPC   C3B53457   4.024  32.987   7.277
 4144POPC   C4B53458   4.035  32.966   7.759
 4145POPC   NC353459   1.675  25.727   5.352
 4145POPC   PO453460   1.015  25.979   5.310
 4145POPC   GL153461   1.262  25.984   5.714
 4145POPC   GL253462   1.502  25.724   5.821
 4145POPC   C1A53463   1.175  25.989   6.158
 4145POPC   D2A53464   0.954  26.227   6.437
 4145POPC   C3A53465   1.091  26.149   6.852
 4145POPC   C4A53466   0.923  26.020   7.232
 4145POPC   C1B53467   1.460  25.557   6.220
 4145POPC   C2B53468   1.409  25.783   6.602
 4145POPC   C3B53469   1.517  25.607   7.010
 4145POPC   C4B53470   1.392  25.870   7.373
 4146POPC   NC353471  36.050   3.169   5.066
 4146POPC   PO453472  36.395   3.557   5.553
 4146POPC   GL153473  36.181   3.575   5.909
 4146POPC   GL253474  35.913   3.759   5.844
 4146POPC   C1A53475  36.345   3.594   6.293
 4146POPC   D2A53476  36.467   3.386   6.650
 4146POPC   C3A53477  36.435   3.645   7.001
 4146POPC   C4A53478  36.349   3.431   7.357
 4146POPC   C1B53479  35.829   3.731   6.271
 4146POPC   C2B53480  35.979   3.567   6.653
 4146POPC   C3B53481  35.918   3.534   7.066
 4146POPC   C4B53482  35.626   3.836   7.264
 4147POPC   NC353483  26.545  17.478   5.557
 4147POPC   PO453484  27.102  17.093   5.508
 4147POPC   GL153485  27.035  17.487   5.791
 4147POPC   GL253486  26.702  17.681   5.977
 4147POPC   C1A53487  27.136  17.677   6.181
 4147POPC   D2A53488  26.903  17.688   6.551
 4147POPC   C3A53489  26.961  17.380   6.873
 4147POPC   C4A53490  27.078  17.434   7.290
 4147POPC   C1B53491  26.679  17.287   6.174
 4147POPC   C2B53492  26.534  17.282   6.561
 4147POPC   C3B53493  26.515  17.620   6.869
 4147POPC   C4B53494  26.571  17.526   7.279
 4148POPC   NC353495  41.082   1.582   5.298
 4148POPC   PO453496  40.570   1.989   5.360
 4148POPC   GL153497  40.572   1.825   5.761
 4148POPC   GL253498  40.530   2.156   5.877
 4148POPC   C1A53499  40.693   1.761   6.194
 4148POPC   D2A53500  41.079   1.814   6.450
 4148POPC   C3A53501  41.017   1.665   6.868
 4148POPC   C4A53502  40.952   1.881   7.234
 4148POPC   C1B53503  40.819   2.269   6.216
 4148POPC   C2B53504  40.985   2.432   6.609
 4148POPC   C3B53505  40.804   2.373   7.035
 4148POPC   C4B53506  40.514   2.167   7.336
 4149POPC   NC353507  42.387  27.338   5.495
 4149POPC   PO453508  42.454  26.636   5.465
 4149POPC   GL153509  42.265  26.703   5.861
 4149POPC   GL253510  42.066  27.001   5.777
 4149POPC   C1A53511  42.495  26.633   6.251
 4149POPC   D2A53512  42.723  26.740   6.660
 4149POPC   C3A53513  42.511  26.999   7.005
 4149POPC   C4A53514  42.382  26.893   7.422
 4149POPC   C1B53515  42.136  27.058   6.221
 4149POPC   C2B53516  42.210  26.817   6.623
 4149POPC   C3B53517  42.158  26.637   7.043
 4149POPC   C4B53518  41.878  26.928   7.307
 4150POPC   NC353519   7.099  28.603   5.535
 4150POPC   PO453520   6.464  28.512   5.363
 4150POPC   GL153521   6.625  28.545   5.800
 4150POPC   GL253522   6.867  28.313   5.862
 4150POPC   C1A53523   6.523  28.447   6.215
 4150POPC   D2A53524   6.626  28.455   6.638
 4150POPC   C3A53525   6.380  28.263   6.959
 4150POPC   C4A53526   6.614  28.456   7.270
 4150POPC   C1B53527   7.021  28.337   6.257
 4150POPC   C2B53528   6.951  28.035   6.562
 4150POPC   C3B53529   6.874  28.109   6.957
 4150POPC   C4B53530   7.118  28.271   7.235
 4151POPC   NC353531  23.657   4.032   5.721
 4151POPC   PO453532  23.232   4.524   5.524
 4151POPC   GL153533  23.551   4.538   5.846
 4151POPC   GL253534  23.871   4.546   5.647
 4151POPC   C1A53535  23.619   4.358   6.269
 4151POPC   D2A53536  23.426   4.322   6.648
 4151POPC   C3A53537  23.395   4.595   6.945
 4151POPC   C4A53538  23.611   4.485   7.304
 4151POPC   C1B53539  24.065   4.576   6.059
 4151POPC   C2B53540  24.086   4.387   6.467
 4151POPC   C3B53541  23.905   4.336   6.880
 4151POPC   C4B53542  24.063   4.268   7.251
 4152POPC   NC353543  26.490  21.802   5.448
 4152POPC   PO453544  25.920  21.388   5.424
 4152POPC   GL153545  25.912  21.415   5.834
 4152POPC   GL253546  25.889  21.786   5.752
 4152POPC   C1A53547  26.051  21.233   6.244
 4152POPC   D2A53548  26.158  21.280   6.701
 4152POPC   C3A53549  26.242  20.964   7.036
 4152POPC   C4A53550  26.196  21.040   7.480
 4152POPC   C1B53551  25.853  21.768   6.191
 4152POPC   C2B53552  25.727  21.558   6.545
 4152POPC   C3B53553  25.731  21.677   6.970
 4152POPC   C4B53554  25.979  21.398   7.196
 4153POPC   NC353555  35.193  14.923   5.418
 4153POPC   PO453556  35.449  14.294   5.412
 4153POPC   GL153557  35.528  14.376   5.800
 4153POPC   GL253558  35.493  14.733   5.780
 4153POPC   C1A53559  35.361  14.185   6.168
 4153POPC   D2A53560  35.358  13.942   6.529
 4153POPC   C3A53561  35.151  14.225   6.812
 4153POPC   C4A53562  35.204  14.252   7.251
 4153POPC   C1B53563  35.236  14.707   6.132
 4153POPC   C2B53564  35.287  14.696   6.558
 4153POPC   C3B53565  35.372  14.665   6.980
 4153POPC   C4B53566  34.999  14.762   7.233
 4154POPC   NC353567   0.003  16.583   5.419
 4154POPC   PO453568   0.633  16.692   5.419
 4154POPC   GL153569   0.362  16.658   5.783
 4154POPC   GL253570   0.097  16.869   5.864
 4154POPC   C1A53571   0.305  16.459   6.166
 4154POPC   D2A53572   0.369  16.354   6.584
 4154POPC   C3A53573   0.319  16.585   6.979
 4154POPC   C4A53574   0.138  16.422   7.351
 4154POPC   C1B53575   0.337  16.944   6.273
 4154POPC   C2B53576   0.601  17.184   6.545
 4154POPC   C3B53577   0.670  17.059   6.959
 4154POPC   C4B53578   0.419  16.961   7.318
 4155POPC   NC353579   6.967   8.244   5.425
 4155POPC   PO453580   6.313   8.044   5.375
 4155POPC   GL153581   6.522   8.192   5.721
 4155POPC   GL253582   6.752   7.955   5.870
 4155POPC   C1A53583   6.413   8.212   6.158
 4155POPC   D2A53584   6.571   8.412   6.539
 4155POPC   C3A53585   6.500   8.184   6.912
 4155POPC   C4A53586   6.387   8.141   7.318
 4155POPC   C1B53587   6.822   7.986   6.346
 4155POPC   C2B53588   6.861   7.840   6.781
 4155POPC   C3B53589   6.837   7.873   7.242
 4155POPC   C4B53590   7.151   7.888   7.586
 4156POPC   NC353591   4.365   8.429   5.200
 4156POPC   PO453592   4.253   9.032   5.433
 4156POPC   GL153593   4.288   8.974   5.848
 4156POPC   GL253594   4.214   8.619   5.867
 4156POPC   C1A53595   4.472   8.862   6.250
 4156POPC   D2A53596   4.359   8.731   6.672
 4156POPC   C3A53597   4.424   9.085   6.969
 4156POPC   C4A53598   4.629   9.076   7.376
 4156POPC   C1B53599   4.007   8.630   6.288
 4156POPC   C2B53600   3.748   8.656   6.690
 4156POPC   C3B53601   3.982   8.796   7.062
 4156POPC   C4B53602   4.426   8.622   7.193
 4157POPC   NC353603  19.444  23.273   5.567
 4157POPC   PO453604  18.882  23.816   5.439
 4157POPC   GL153605  19.025  23.704   5.804
 4157POPC   GL253606  19.364  23.781   5.732
 4157POPC   C1A53607  18.880  23.804   6.212
 4157POPC   D2A53608  18.799  24.013   6.609
 4157POPC   C3A53609  18.913  23.700   6.909
 4157POPC   C4A53610  18.767  23.503   7.271
 4157POPC   C1B53611  19.404  23.610   6.149
 4157POPC   C2B53612  19.293  23.688   6.556
 4157POPC   C3B53613  19.448  23.572   6.941
 4157POPC   C4B53614  19.246  23.685   7.321
 4158POPC   NC353615  16.896  28.122   5.432
 4158POPC   PO453616  17.043  28.763   5.601
 4158POPC   GL153617  16.752  28.480   5.830
 4158POPC   GL253618  16.448  28.663   5.924
 4158POPC   C1A53619  16.666  28.234   6.203
 4158POPC   D2A53620  16.863  28.048   6.577
 4158POPC   C3A53621  16.938  28.246   6.930
 4158POPC   C4A53622  16.774  28.209   7.278
 4158POPC   C1B53623  16.566  28.712   6.343
 4158POPC   C2B53624  16.500  28.427   6.686
 4158POPC   C3B53625  16.499  28.580   7.087
 4158POPC   C4B53626  16.528  28.930   7.375
 4159POPC   NC353627  11.062  43.607   5.446
 4159POPC   PO453628  11.719  43.732   5.432
 4159POPC   GL153629  11.470  43.844   5.837
 4159POPC   GL253630  11.139  44.034   5.763
 4159POPC   C1A53631  11.424  43.779   6.313
 4159POPC   D2A53632  11.723  43.741   6.695
 4159POPC   C3A53633  11.663  43.924   7.099
 4159POPC   C4A53634  11.232  43.885   7.197
 4159POPC   C1B53635  11.150  44.242   6.177
 4159POPC   C2B53636  11.228  44.162   6.632
 4159POPC   C3B53637  11.037  44.330   7.020
 4159POPC   C4B53638  10.897  44.409   7.399
 4160POPC   NC353639  25.892  17.663   5.391
 4160POPC   PO453640  26.242  17.138   5.457
 4160POPC   GL153641  26.059  17.374   5.809
 4160POPC   GL253642  25.697  17.408   5.777
 4160POPC   C1A53643  26.120  17.515   6.236
 4160POPC   D2A53644  26.071  17.496   6.671
 4160POPC   C3A53645  25.857  17.362   7.007
 4160POPC   C4A53646  26.059  17.418   7.378
 4160POPC   C1B53647  25.661  17.695   6.111
 4160POPC   C2B53648  25.652  17.752   6.528
 4160POPC   C3B53649  25.692  17.854   6.946
 4160POPC   C4B53650  25.638  17.696   7.350
 4161POPC   NC353651  42.991  13.845   5.293
 4161POPC   PO453652  43.209  13.321   5.541
 4161POPC   GL153653  43.054  13.657   5.816
 4161POPC   GL253654  42.760  13.932   5.724
 4161POPC   C1A53655  43.313  13.779   6.207
 4161POPC   D2A53656  43.395  14.018   6.604
 4161POPC   C3A53657  43.370  13.807   6.965
 4161POPC   C4A53658  43.365  13.494   7.238
 4161POPC   C1B53659  42.877  14.016   6.125
 4161POPC   C2B53660  42.903  13.869   6.550
 4161POPC   C3B53661  42.895  13.985   6.967
 4161POPC   C4B53662  42.922  13.727   7.318
 4162POPC   NC353663  30.308  29.986   5.638
 4162POPC   PO453664  30.047  29.624   5.203
 4162POPC   GL153665  29.866  29.753   5.704
 4162POPC   GL253666  29.788  30.095   5.804
 4162POPC   C1A53667  29.973  29.758   6.188
 4162POPC   D2A53668  29.891  29.945   6.626
 4162POPC   C3A53669  30.165  29.949   7.005
 4162POPC   C4A53670  30.191  30.167   7.410
 4162POPC   C1B53671  29.553  30.072   6.237
 4162POPC   C2B53672  29.408  30.192   6.688
 4162POPC   C3B53673  29.220  30.244   7.111
 4162POPC   C4B53674  29.173  29.962   7.452
 4163POPC   NC353675  39.434   8.479   5.438
 4163POPC   PO453676  38.771   8.311   5.484
 4163POPC   GL153677  39.077   8.225   5.768
 4163POPC   GL253678  38.999   7.904   5.946
 4163POPC   C1A53679  39.340   8.291   6.115
 4163POPC   D2A53680  39.270   8.264   6.538
 4163POPC   C3A53681  39.514   8.523   6.797
 4163POPC   C4A53682  39.357   8.348   7.166
 4163POPC   C1B53683  39.316   7.786   6.255
 4163POPC   C2B53684  39.522   7.816   6.642
 4163POPC   C3B53685  39.380   7.839   7.051
 4163POPC   C4B53686  39.025   7.930   7.269
 4164POPC   NC353687  10.886  41.197   5.610
 4164POPC   PO453688  10.670  40.629   5.338
 4164POPC   GL153689  10.579  40.782   5.734
 4164POPC   GL253690  10.814  40.541   5.842
 4164POPC   C1A53691  10.315  40.957   6.087
 4164POPC   D2A53692  10.335  40.916   6.555
 4164POPC   C3A53693  10.596  41.139   6.890
 4164POPC   C4A53694  10.463  40.923   7.268
 4164POPC   C1B53695  10.734  40.719   6.247
 4164POPC   C2B53696  10.919  40.870   6.617
 4164POPC   C3B53697  10.880  40.714   7.053
 4164POPC   C4B53698  10.657  40.442   7.340
 4165POPC   NC353699  20.807  42.522   5.440
 4165POPC   PO453700  20.329  42.132   5.115
 4165POPC   GL153701  20.322  42.320   5.625
 4165POPC   GL253702  20.339  42.631   5.736
 4165POPC   C1A53703  20.436  42.230   6.111
 4165POPC   D2A53704  20.399  42.025   6.553
 4165POPC   C3A53705  20.548  42.117   7.001
 4165POPC   C4A53706  20.900  42.237   7.247
 4165POPC   C1B53707  20.466  42.732   6.171
 4165POPC   C2B53708  20.328  42.589   6.564
 4165POPC   C3B53709  20.458  42.674   6.987
 4165POPC   C4B53710  20.421  42.497   7.381
 4166POPC   NC353711  36.874  43.049   5.454
 4166POPC   PO453712  36.902  43.703   5.200
 4166POPC   GL153713  37.082  43.454   5.666
 4166POPC   GL253714  37.230  43.136   5.835
 4166POPC   C1A53715  36.809  43.210   6.090
 4166POPC   D2A53716  36.769  43.114   6.561
 4166POPC   C3A53717  36.866  42.851   6.946
 4166POPC   C4A53718  36.812  42.971   7.407
 4166POPC   C1B53719  37.162  42.893   6.230
 4166POPC   C2B53720  37.270  43.031   6.653
 4166POPC   C3B53721  37.139  43.274   7.034
 4166POPC   C4B53722  37.068  43.414   7.454
 4167POPC   NC353723  17.809   7.553   5.204
 4167POPC   PO453724  17.486   6.937   5.241
 4167POPC   GL153725  17.560   7.187   5.646
 4167POPC   GL253726  17.492   7.546   5.635
 4167POPC   C1A53727  17.610   7.273   6.116
 4167POPC   D2A53728  17.959   7.270   6.431
 4167POPC   C3A53729  17.864   7.486   6.800
 4167POPC   C4A53730  17.667   7.389   7.188
 4167POPC   C1B53731  17.350   7.748   6.026
 4167POPC   C2B53732  17.287   7.593   6.460
 4167POPC   C3B53733  17.291   7.596   6.907
 4167POPC   C4B53734  17.181   7.735   7.321
 4168POPC   NC353735  40.612  31.836   5.567
 4168POPC   PO453736  40.958  31.316   5.411
 4168POPC   GL153737  40.818  31.376   5.795
 4168POPC   GL253738  40.970  31.685   5.896
 4168POPC   C1A53739  40.998  31.273   6.182
 4168POPC   D2A53740  41.013  31.494   6.543
 4168POPC   C3A53741  40.925  31.274   6.910
 4168POPC   C4A53742  41.108  31.390   7.285
 4168POPC   C1B53743  40.652  31.708   6.207
 4168POPC   C2B53744  40.689  31.906   6.594
 4168POPC   C3B53745  40.839  31.774   6.977
 4168POPC   C4B53746  40.646  31.627   7.342
 4169POPC   NC353747  40.464   2.370   5.069
 4169POPC   PO453748  40.989   2.670   5.448
 4169POPC   GL153749  40.782   2.610   5.805
 4169POPC   GL253750  41.102   2.616   5.967
 4169POPC   C1A53751  40.656   2.772   6.203
 4169POPC   D2A53752  40.612   3.048   6.566
 4169POPC   C3A53753  40.613   2.867   6.969
 4169POPC   C4A53754  40.925   2.831   7.260
 4169POPC   C1B53755  41.168   2.847   6.348
 4169POPC   C2B53756  41.128   2.910   6.786
 4169POPC   C3B53757  41.296   2.578   7.053
 4169POPC   C4B53758  41.149   2.365   7.431
 4170POPC   NC353759  32.317  23.696   5.298
 4170POPC   PO453760  31.730  23.928   5.175
 4170POPC   GL153761  32.027  23.903   5.659
 4170POPC   GL253762  32.251  23.635   5.786
 4170POPC   C1A53763  32.169  23.945   6.157
 4170POPC   D2A53764  32.218  23.719   6.580
 4170POPC   C3A53765  32.238  23.918   7.011
 4170POPC   C4A53766  32.032  23.846   7.405
 4170POPC   C1B53767  32.508  23.542   6.136
 4170POPC   C2B53768  32.638  23.429   6.575
 4170POPC   C3B53769  32.584  23.527   7.025
 4170POPC   C4B53770  32.593  23.783   7.407
 4171POPC   NC353771  26.954  16.703   5.330
 4171POPC   PO453772  26.443  16.412   5.129
 4171POPC   GL153773  26.503  16.671   5.574
 4171POPC   GL253774  26.351  16.408   5.750
 4171POPC   C1A53775  26.764  16.774   6.008
 4171POPC   D2A53776  26.935  16.492   6.383
 4171POPC   C3A53777  26.921  16.604   6.868
 4171POPC   C4A53778  26.931  16.957   7.206
 4171POPC   C1B53779  26.383  16.500   6.183
 4171POPC   C2B53780  26.518  16.747   6.532
 4171POPC   C3B53781  26.403  16.657   6.944
 4171POPC   C4B53782  26.586  16.617   7.321
 4172POPC   NC353783   1.855  42.959   5.588
 4172POPC   PO453784   2.516  42.756   5.511
 4172POPC   GL153785   2.423  42.876   5.950
 4172POPC   GL253786   2.112  43.095   6.014
 4172POPC   C1A53787   2.332  42.848   6.405
 4172POPC   D2A53788   2.002  43.042   6.651
 4172POPC   C3A53789   2.140  43.086   7.059
 4172POPC   C4A53790   2.056  43.143   7.495
 4172POPC   C1B53791   1.870  43.396   6.290
 4172POPC   C2B53792   1.587  43.454   6.626
 4172POPC   C3B53793   1.739  43.396   7.034
 4172POPC   C4B53794   1.752  43.548   7.454
 4173POPC   NC353795  21.707  23.958   5.427
 4173POPC   PO453796  21.171  23.503   5.389
 4173POPC   GL153797  21.204  23.799   5.723
 4173POPC   GL253798  20.861  23.751   5.815
 4173POPC   C1A53799  21.433  23.789   6.133
 4173POPC   D2A53800  21.519  23.629   6.576
 4173POPC   C3A53801  21.341  23.703   6.992
 4173POPC   C4A53802  21.598  23.641   7.392
 4173POPC   C1B53803  20.969  23.562   6.207
 4173POPC   C2B53804  20.888  23.522   6.637
 4173POPC   C3B53805  21.090  23.249   6.884
 4173POPC   C4B53806  21.260  23.292   7.300
 4174POPC   NC353807  10.631   1.387   5.508
 4174POPC   PO453808  10.525   0.739   5.563
 4174POPC   GL153809  10.632   1.031   5.910
 4174POPC   GL253810  10.506   1.353   6.004
 4174POPC   C1A53811  10.815   1.056   6.357
 4174POPC   D2A53812  10.548   1.157   6.738
 4174POPC   C3A53813  10.713   1.115   7.149
 4174POPC   C4A53814  10.866   1.419   7.443
 4174POPC   C1B53815  10.033   1.510   6.106
 4174POPC   C2B53816   9.866   1.575   6.521
 4174POPC   C3B53817  10.138   1.608   6.875
 4174POPC   C4B53818  10.265   1.349   7.212
 4175POPC   NC353819  24.315  12.332   5.256
 4175POPC   PO453820  24.650  11.785   5.504
 4175POPC   GL153821  24.623  12.195   5.768
 4175POPC   GL253822  24.283  12.365   5.776
 4175POPC   C1A53823  24.568  12.279   6.248
 4175POPC   D2A53824  24.480  11.994   6.618
 4175POPC   C3A53825  24.679  12.012   7.026
 4175POPC   C4A53826  24.704  12.298   7.373
 4175POPC   C1B53827  24.105  12.497   6.193
 4175POPC   C2B53828  24.124  12.365   6.617
 4175POPC   C3B53829  24.327  12.368   7.002
 4175POPC   C4B53830  24.261  12.064   7.364
 4176POPC   NC353831  19.403  41.503   5.443
 4176POPC   PO453832  18.756  41.767   5.441
 4176POPC   GL153833  19.072  41.689   5.786
 4176POPC   GL253834  19.157  41.362   5.882
 4176POPC   C1A53835  19.260  41.710   6.237
 4176POPC   D2A53836  19.120  41.457   6.596
 4176POPC   C3A53837  19.368  41.525   6.947
 4176POPC   C4A53838  19.275  41.810   7.236
 4176POPC   C1B53839  19.037  41.113   6.214
 4176POPC   C2B53840  19.013  40.956   6.611
 4176POPC   C3B53841  19.041  41.152   7.042
 4176POPC   C4B53842  19.329  41.246   7.398
 4177POPC   NC353843  27.988   1.098   5.413
 4177POPC   PO453844  28.638   1.339   5.381
 4177POPC   GL153845  28.401   1.419   5.782
 4177POPC   GL253846  28.065   1.559   5.775
 4177POPC   C1A53847  28.379   1.230   6.195
 4177POPC   D2A53848  28.264   0.990   6.580
 4177POPC   C3A53849  28.437   1.139   6.955
 4177POPC   C4A53850  28.405   1.045   7.394
 4177POPC   C1B53851  28.129   1.670   6.206
 4177POPC   C2B53852  28.142   1.498   6.612
 4177POPC   C3B53853  28.091   1.543   7.018
 4177POPC   C4B53854  28.068   1.425   7.420
 4178POPC   NC353855  30.539   9.507   5.407
 4178POPC   PO453856  30.811  10.131   5.405
 4178POPC   GL153857  30.859   9.849   5.738
 4178POPC   GL253858  30.525   9.796   5.832
 4178POPC   C1A53859  30.886   9.602   6.130
 4178POPC   D2A53860  30.713   9.650   6.544
 4178POPC   C3A53861  30.963   9.564   6.904
 4178POPC   C4A53862  30.934   9.676   7.318
 4178POPC   C1B53863  30.397   9.463   6.152
 4178POPC   C2B53864  30.243   9.449   6.583
 4178POPC   C3B53865  30.472   9.455   7.003
 4178POPC   C4B53866  30.364   9.657   7.388
 4179POPC   NC353867  22.939  35.077   5.424
 4179POPC   PO453868  22.920  35.688   5.346
 4179POPC   GL153869  22.891  35.452   5.781
 4179POPC   GL253870  23.197  35.210   5.833
 4179POPC   C1A53871  23.082  35.578   6.194
 4179POPC   D2A53872  23.287  35.663   6.593
 4179POPC   C3A53873  22.963  35.682   6.922
 4179POPC   C4A53874  22.756  35.543   7.312
 4179POPC   C1B53875  22.967  35.064   6.197
 4179POPC   C2B53876  22.970  35.240   6.613
 4179POPC   C3B53877  22.999  35.170   7.053
 4179POPC   C4B53878  23.100  35.222   7.500
 4180POPC   NC353879   4.081  36.412   5.296
 4180POPC   PO453880   4.406  35.931   5.541
 4180POPC   GL153881   4.451  36.289   5.755
 4180POPC   GL253882   4.112  36.281   5.795
 4180POPC   C1A53883   4.389  36.388   6.194
 4180POPC   D2A53884   4.404  36.124   6.543
 4180POPC   C3A53885   4.368  36.310   6.950
 4180POPC   C4A53886   4.395  35.992   7.225
 4180POPC   C1B53887   4.031  35.993   6.144
 4180POPC   C2B53888   3.945  35.851   6.563
 4180POPC   C3B53889   3.933  36.020   6.965
 4180POPC   C4B53890   3.987  36.282   7.344
 4181POPC   NC353891   1.424   4.389   5.530
 4181POPC   PO453892   0.863   4.261   5.190
 4181POPC   GL153893   0.952   4.401   5.690
 4181POPC   GL253894   0.823   4.606   5.927
 4181POPC   C1A53895   1.215   4.333   6.137
 4181POPC   D2A53896   1.124   4.166   6.580
 4181POPC   C3A53897   1.329   4.214   6.974
 4181POPC   C4A53898   1.649   4.388   7.201
 4181POPC   C1B53899   0.720   4.251   6.254
 4181POPC   C2B53900   0.638   4.062   6.653
 4181POPC   C3B53901   0.811   4.181   7.045
 4181POPC   C4B53902   1.013   4.458   7.311
 4182POPC   NC353903   0.786  28.169   5.152
 4182POPC   PO453904   1.292  28.537   5.554
 4182POPC   GL153905   1.270  28.414   5.897
 4182POPC   GL253906   1.458  28.114   5.838
 4182POPC   C1A53907   1.092  28.507   6.269
 4182POPC   D2A53908   0.837  28.332   6.543
 4182POPC   C3A53909   1.015  28.393   6.924
 4182POPC   C4A53910   1.062  28.527   7.342
 4182POPC   C1B53911   1.296  28.028   6.229
 4182POPC   C2B53912   1.217  27.998   6.632
 4182POPC   C3B53913   1.406  28.103   7.012
 4182POPC   C4B53914   1.256  28.062   7.412
 4183POPC   NC353915  16.515   6.571   5.626
 4183POPC   PO453916  17.219   6.626   5.570
 4183POPC   GL153917  16.979   6.528   5.899
 4183POPC   GL253918  16.853   6.834   5.905
 4183POPC   C1A53919  16.760   6.460   6.281
 4183POPC   D2A53920  16.551   6.518   6.673
 4183POPC   C3A53921  16.780   6.467   7.043
 4183POPC   C4A53922  17.031   6.693   7.388
 4183POPC   C1B53923  17.032   6.910   6.307
 4183POPC   C2B53924  17.020   6.811   6.751
 4183POPC   C3B53925  16.712   6.961   7.101
 4183POPC   C4B53926  16.383   7.089   7.352
 4184POPC   NC353927  27.877  35.345   5.540
 4184POPC   PO453928  27.259  35.130   5.554
 4184POPC   GL153929  27.471  35.423   5.861
 4184POPC   GL253930  27.807  35.254   6.031
 4184POPC   C1A53931  27.418  35.494   6.290
 4184POPC   D2A53932  27.517  35.099   6.459
 4184POPC   C3A53933  27.469  35.089   6.884
 4184POPC   C4A53934  27.351  35.377   7.205
 4184POPC   C1B53935  27.858  35.710   6.120
 4184POPC   C2B53936  27.723  35.859   6.543
 4184POPC   C3B53937  27.738  35.548   6.917
 4184POPC   C4B53938  27.895  35.162   7.163
 4185POPC   NC353939  18.012  39.309   5.376
 4185POPC   PO453940  18.632  39.048   5.472
 4185POPC   GL153941  18.497  39.164   5.892
 4185POPC   GL253942  18.180  39.327   5.860
 4185POPC   C1A53943  18.573  39.181   6.351
 4185POPC   D2A53944  18.624  39.139   6.817
 4185POPC   C3A53945  18.717  39.389   7.144
 4185POPC   C4A53946  18.523  39.143   7.495
 4185POPC   C1B53947  18.073  39.345   6.282
 4185POPC   C2B53948  18.188  39.362   6.697
 4185POPC   C3B53949  18.211  39.355   7.137
 4185POPC   C4B53950  17.936  39.219   7.468
 4186POPC   NC353951  37.308   9.661   5.599
 4186POPC   PO453952  37.868   9.860   5.266
 4186POPC   GL153953  37.798   9.721   5.733
 4186POPC   GL253954  38.094   9.626   5.922
 4186POPC   C1A53955  37.659   9.817   6.186
 4186POPC   D2A53956  37.670   9.670   6.633
 4186POPC   C3A53957  37.649   9.859   7.062
 4186POPC   C4A53958  37.597   9.502   7.366
 4186POPC   C1B53959  38.180   9.832   6.350
 4186POPC   C2B53960  38.188   9.783   6.783
 4186POPC   C3B53961  37.978   9.467   7.018
 4186POPC   C4B53962  38.067   9.296   7.410
 4187POPC   NC353963  28.874  18.036   5.289
 4187POPC   PO453964  28.897  18.642   5.549
 4187POPC   GL153965  28.978  18.304   5.821
 4187POPC   GL253966  28.758  17.976   5.823
 4187POPC   C1A53967  29.123  18.467   6.229
 4187POPC   D2A53968  28.897  18.578   6.584
 4187POPC   C3A53969  29.159  18.591   6.917
 4187POPC   C4A53970  29.092  18.503   7.327
 4187POPC   C1B53971  28.984  17.982   6.240
 4187POPC   C2B53972  29.126  18.110   6.671
 4187POPC   C3B53973  29.177  18.044   7.123
 4187POPC   C4B53974  29.532  18.072   7.418
 4188POPC   NC353975  36.437  17.918   5.590
 4188POPC   PO453976  36.270  17.278   5.295
 4188POPC   GL153977  36.208  17.488   5.708
 4188POPC   GL253978  35.975  17.794   5.747
 4188POPC   C1A53979  36.329  17.436   6.139
 4188POPC   D2A53980  36.216  17.206   6.498
 4188POPC   C3A53981  36.307  17.253   6.932
 4188POPC   C4A53982  36.157  17.488   7.285
 4188POPC   C1B53983  36.107  17.896   6.186
 4188POPC   C2B53984  36.129  17.720   6.606
 4188POPC   C3B53985  36.065  17.918   7.021
 4188POPC   C4B53986  36.269  17.973   7.456
 4189POPC   NC353987  44.847  35.536   5.047
 4189POPC   PO453988  44.729  35.126   5.512
 4189POPC   GL153989  44.551  35.308   5.830
 4189POPC   GL253990  44.465  34.984   5.918
 4189POPC   C1A53991  44.282  35.362   6.182
 4189POPC   D2A53992  44.421  35.136   6.514
 4189POPC   C3A53993  44.244  35.272   6.857
 4189POPC   C4A53994  44.320  35.430   7.224
 4189POPC   C1B53995  44.839  35.091   6.199
 4189POPC   C2B53996  44.906  35.282   6.610
 4189POPC   C3B53997  44.740  35.191   7.031
 4189POPC   C4B53998  44.907  35.104   7.446
 4190POPC   NC353999  26.406   9.294   5.494
 4190POPC   PO454000  25.913   8.853   5.338
 4190POPC   GL154001  26.110   8.946   5.743
 4190POPC   GL254002  25.957   9.259   5.834
 4190POPC   C1A54003  26.221   8.871   6.183
 4190POPC   D2A54004  26.035   8.628   6.514
 4190POPC   C3A54005  26.055   8.774   6.948
 4190POPC   C4A54006  25.880   8.831   7.364
 4190POPC   C1B54007  26.182   9.364   6.205
 4190POPC   C2B54008  26.249   9.202   6.629
 4190POPC   C3B54009  25.992   9.294   6.997
 4190POPC   C4B54010  26.217   9.501   7.326
 4191POPC   NC354011   4.747  32.707   5.617
 4191POPC   PO454012   5.203  32.215   5.380
 4191POPC   GL154013   5.184  32.144   5.785
 4191POPC   GL254014   5.177  32.493   5.838
 4191POPC   C1A54015   5.033  32.142   6.205
 4191POPC   D2A54016   5.025  32.314   6.596
 4191POPC   C3A54017   5.278  32.080   6.901
 4191POPC   C4A54018   5.156  31.757   7.193
 4191POPC   C1B54019   5.050  32.685   6.228
 4191POPC   C2B54020   4.935  32.855   6.629
 4191POPC   C3B54021   5.146  32.662   6.937
 4191POPC   C4B54022   5.187  32.416   7.263
 4192POPC   NC354023  44.129  24.364   5.350
 4192POPC   PO454024  43.686  23.967   5.612
 4192POPC   GL154025  43.865  24.352   5.770
 4192POPC   GL254026  44.179  24.168   5.849
 4192POPC   C1A54027  43.932  24.646   6.117
 4192POPC   D2A54028  43.750  24.819   6.483
 4192POPC   C3A54029  43.886  24.693   6.877
 4192POPC   C4A54030  43.725  24.518   7.266
 4192POPC   C1B54031  43.837  24.135   6.205
 4192POPC   C2B54032  43.733  24.314   6.570
 4192POPC   C3B54033  43.852  24.155   6.949
 4192POPC   C4B54034  43.672  24.013   7.304
 4193POPC   NC354035  20.227   5.043   5.037
 4193POPC   PO454036  20.793   5.083   5.418
 4193POPC   GL154037  20.943   5.118   5.812
 4193POPC   GL254038  20.608   5.099   5.928
 4193POPC   C1A54039  20.994   5.286   6.241
 4193POPC   D2A54040  20.717   5.186   6.588
 4193POPC   C3A54041  20.641   5.393   6.981
 4193POPC   C4A54042  20.354   5.245   7.267
 4193POPC   C1B54043  20.337   4.970   6.245
 4193POPC   C2B54044  20.353   4.830   6.642
 4193POPC   C3B54045  20.120   4.840   7.002
 4193POPC   C4B54046  20.217   4.785   7.421
 4194POPC   NC354047   1.124  34.033   5.347
 4194POPC   PO454048   1.255  33.414   5.211
 4194POPC   GL154049   1.313  33.617   5.677
 4194POPC   GL254050   1.457  33.942   5.720
 4194POPC   C1A54051   1.123  33.830   6.092
 4194POPC   D2A54052   1.236  33.989   6.533
 4194POPC   C3A54053   1.134  33.831   6.948
 4194POPC   C4A54054   1.251  33.936   7.382
 4194POPC   C1B54055   1.611  33.968   6.154
 4194POPC   C2B54056   1.773  34.030   6.589
 4194POPC   C3B54057   1.583  34.088   6.990
 4194POPC   C4B54058   1.818  34.130   7.355
 4195POPC   NC354059  30.258  27.469   5.321
 4195POPC   PO454060  30.852  27.753   5.314
 4195POPC   GL154061  30.598  27.707   5.727
 4195POPC   GL254062  30.480  28.052   5.732
 4195POPC   C1A54063  30.613  27.532   6.204
 4195POPC   D2A54064  30.851  27.685   6.610
 4195POPC   C3A54065  30.713  27.547   7.036
 4195POPC   C4A54066  30.604  27.381   7.484
 4195POPC   C1B54067  30.444  28.006   6.161
 4195POPC   C2B54068  30.353  27.832   6.557
 4195POPC   C3B54069  30.355  27.989   6.956
 4195POPC   C4B54070  30.429  27.853   7.347
 4196POPC   NC354071   1.674   9.432   5.444
 4196POPC   PO454072   1.123   9.076   5.514
 4196POPC   GL154073   1.310   8.774   5.813
 4196POPC   GL254074   1.631   8.929   5.886
 4196POPC   C1A54075   1.167   8.696   6.247
 4196POPC   D2A54076   1.251   8.891   6.637
 4196POPC   C3A54077   1.103   8.695   6.951
 4196POPC   C4A54078   1.290   8.595   7.279
 4196POPC   C1B54079   1.480   9.152   6.266
 4196POPC   C2B54080   1.597   9.291   6.679
 4196POPC   C3B54081   1.358   9.270   7.012
 4196POPC   C4B54082   1.329   9.076   7.444
 4197POPC   NC354083  26.529  12.417   5.471
 4197POPC   PO454084  27.015  11.948   5.552
 4197POPC   GL154085  26.661  12.044   5.813
 4197POPC   GL254086  26.793  12.332   5.905
 4197POPC   C1A54087  26.416  11.920   6.160
 4197POPC   D2A54088  26.540  11.743   6.560
 4197POPC   C3A54089  26.774  12.008   6.841
 4197POPC   C4A54090  26.713  12.017   7.280
 4197POPC   C1B54091  26.819  12.185   6.326
 4197POPC   C2B54092  26.807  12.571   6.573
 4197POPC   C3B54093  26.981  12.664   6.947
 4197POPC   C4B54094  27.073  12.329   7.154
 4198POPC   NC354095  35.040  25.942   5.023
 4198POPC   PO454096  35.277  26.355   5.445
 4198POPC   GL154097  35.085  26.272   5.865
 4198POPC   GL254098  35.049  25.909   5.959
 4198POPC   C1A54099  35.253  26.224   6.314
 4198POPC   D2A54100  35.390  26.457   6.694
 4198POPC   C3A54101  35.272  26.299   7.079
 4198POPC   C4A54102  35.236  26.122   7.499
 4198POPC   C1B54103  35.053  25.757   6.412
 4198POPC   C2B54104  35.241  25.861   6.814
 4198POPC   C3B54105  35.485  25.788   7.217
 4198POPC   C4B54106  35.444  25.656   7.656
 4199POPC   NC354107  21.006  37.198   5.561
 4199POPC   PO454108  21.604  37.074   5.254
 4199POPC   GL154109  21.495  37.118   5.731
 4199POPC   GL254110  21.710  36.896   5.899
 4199POPC   C1A54111  21.252  37.144   6.178
 4199POPC   D2A54112  21.347  37.244   6.658
 4199POPC   C3A54113  21.273  37.085   7.114
 4199POPC   C4A54114  21.525  37.154   7.522
 4199POPC   C1B54115  21.607  36.780   6.336
 4199POPC   C2B54116  21.591  36.770   6.786
 4199POPC   C3B54117  21.646  36.760   7.222
 4199POPC   C4B54118  21.399  36.607   7.550
 4200POPC   NC354119  16.969  16.752   5.356
 4200POPC   PO454120  16.350  16.900   5.366
 4200POPC   GL154121  16.495  16.569   5.694
 4200POPC   GL254122  16.876  16.533   5.805
 4200POPC   C1A54123  16.468  16.626   6.172
 4200POPC   D2A54124  16.691  16.858   6.539
 4200POPC   C3A54125  16.574  16.862   6.971
 4200POPC   C4A54126  16.662  16.831   7.433
 4200POPC   C1B54127  16.962  16.505   6.253
 4200POPC   C2B54128  16.815  16.395   6.668
 4200POPC   C3B54129  16.991  16.581   7.047
 4200POPC   C4B54130  17.106  16.559   7.500
 4201POPC   NC354131  20.240   1.380   5.308
 4201POPC   PO454132  20.956   1.235   5.402
 4201POPC   GL154133  20.714   1.292   5.788
 4201POPC   GL254134  20.419   1.300   5.765
 4201POPC   C1A54135  20.707   1.470   6.200
 4201POPC   D2A54136  20.452   1.434   6.525
 4201POPC   C3A54137  20.592   1.433   6.951
 4201POPC   C4A54138  20.539   1.253   7.375
 4201POPC   C1B54139  20.391   1.064   6.133
 4201POPC   C2B54140  20.526   0.936   6.527
 4201POPC   C3B54141  20.432   0.959   6.947
 4201POPC   C4B54142  20.298   0.800   7.318
 4202POPC   NC354143  15.841   2.596   5.453
 4202POPC   PO454144  16.346   3.051   5.543
 4202POPC   GL154145  16.060   2.906   5.838
 4202POPC   GL254146  15.780   3.093   5.803
 4202POPC   C1A54147  16.060   2.850   6.309
 4202POPC   D2A54148  15.951   2.825   6.762
 4202POPC   C3A54149  16.244   2.648   7.076
 4202POPC   C4A54150  16.310   2.762   7.495
 4202POPC   C1B54151  15.582   2.993   6.164
 4202POPC   C2B54152  15.482   3.003   6.589
 4202POPC   C3B54153  15.578   3.090   7.015
 4202POPC   C4B54154  15.810   2.838   7.323
 4203POPC   NC354155  34.683  24.571   5.140
 4203POPC   PO454156  34.376  24.154   5.545
 4203POPC   GL154157  34.608  24.423   5.823
 4203POPC   GL254158  34.728  24.732   5.635
 4203POPC   C1A54159  34.539  24.443   6.293
 4203POPC   D2A54160  34.259  24.529   6.643
 4203POPC   C3A54161  34.358  24.360   7.049
 4203POPC   C4A54162  34.712  24.357   7.326
 4203POPC   C1B54163  34.635  24.879   6.059
 4203POPC   C2B54164  34.569  24.926   6.519
 4203POPC   C3B54165  34.623  24.809   6.983
 4203POPC   C4B54166  34.763  24.858   7.436
 4204POPC   NC354167  37.125  20.177   5.403
 4204POPC   PO454168  36.808  19.605   5.544
 4204POPC   GL154169  36.797  19.877   5.915
 4204POPC   GL254170  37.071  20.150   5.944
 4204POPC   C1A54171  36.930  19.851   6.367
 4204POPC   D2A54172  37.190  19.939   6.741
 4204POPC   C3A54173  37.187  19.683   7.098
 4204POPC   C4A54174  37.165  19.668   7.573
 4204POPC   C1B54175  36.682  20.280   6.200
 4204POPC   C2B54176  36.505  20.083   6.558
 4204POPC   C3B54177  36.715  19.997   6.952
 4204POPC   C4B54178  36.742  20.192   7.368
 4205POPC   NC354179  12.898  25.673   5.252
 4205POPC   PO454180  12.514  25.195   5.344
 4205POPC   GL154181  12.553  25.401   5.771
 4205POPC   GL254182  12.788  25.700   5.770
 4205POPC   C1A54183  12.684  25.292   6.226
 4205POPC   D2A54184  12.892  25.260   6.653
 4205POPC   C3A54185  12.629  25.145   7.009
 4205POPC   C4A54186  12.713  24.813   7.312
 4205POPC   C1B54187  12.553  25.781   6.176
 4205POPC   C2B54188  12.563  25.667   6.651
 4205POPC   C3B54189  12.794  25.628   7.065
 4205POPC   C4B54190  12.885  25.330   7.403
 4206POPC   NC354191  29.644  23.030   5.379
 4206POPC   PO454192  30.203  23.520   5.481
 4206POPC   GL154193  29.912  23.219   5.767
 4206POPC   GL254194  29.524  23.262   5.817
 4206POPC   C1A54195  30.026  22.962   6.129
 4206POPC   D2A54196  30.240  22.803   6.500
 4206POPC   C3A54197  29.937  22.679   6.804
 4206POPC   C4A54198  29.849  22.846   7.179
 4206POPC   C1B54199  29.592  23.203   6.246
 4206POPC   C2B54200  29.860  23.177   6.601
 4206POPC   C3B54201  29.671  23.284   6.978
 4206POPC   C4B54202  29.593  23.245   7.387
 4207POPC   NC354203  22.186  38.413   5.377
 4207POPC   PO454204  21.747  38.884   5.569
 4207POPC   GL154205  22.050  38.596   5.853
 4207POPC   GL254206  22.255  38.299   5.865
 4207POPC   C1A54207  22.094  38.488   6.305
 4207POPC   D2A54208  22.059  38.294   6.696
 4207POPC   C3A54209  22.163  38.531   7.054
 4207POPC   C4A54210  21.976  38.411   7.395
 4207POPC   C1B54211  22.201  37.976   6.189
 4207POPC   C2B54212  22.276  37.854   6.608
 4207POPC   C3B54213  22.483  38.098   6.938
 4207POPC   C4B54214  22.498  38.278   7.353
 4208POPC   NC354215   5.092  21.075   5.408
 4208POPC   PO454216   5.055  21.847   5.426
 4208POPC   GL154217   5.219  21.562   5.718
 4208POPC   GL254218   4.924  21.354   5.805
 4208POPC   C1A54219   5.267  21.548   6.167
 4208POPC   D2A54220   5.030  21.412   6.524
 4208POPC   C3A54221   5.211  21.536   6.922
 4208POPC   C4A54222   5.007  21.733   7.263
 4208POPC   C1B54223   5.098  21.048   6.112
 4208POPC   C2B54224   5.115  20.906   6.551
 4208POPC   C3B54225   4.946  21.075   6.921
 4208POPC   C4B54226   5.167  21.142   7.288
 4209POPC   NC354227  38.971  18.830   5.587
 4209POPC   PO454228  39.248  19.455   5.431
 4209POPC   GL154229  39.324  19.194   5.807
 4209POPC   GL254230  39.527  18.896   5.863
 4209POPC   C1A54231  39.188  19.180   6.245
 4209POPC   D2A54232  39.419  19.171   6.647
 4209POPC   C3A54233  39.187  19.115   7.029
 4209POPC   C4A54234  39.238  19.296   7.436
 4209POPC   C1B54235  39.313  18.683   6.223
 4209POPC   C2B54236  39.394  18.648   6.687
 4209POPC   C3B54237  39.307  18.589   7.115
 4209POPC   C4B54238  39.112  18.798   7.454
 4210POPC   NC354239  19.633  17.460   5.176
 4210POPC   PO454240  20.189  17.164   5.362
 4210POPC   GL154241  20.065  17.432   5.742
 4210POPC   GL254242  19.747  17.544   5.731
 4210POPC   C1A54243  19.986  17.607   6.168
 4210POPC   D2A54244  19.812  17.452   6.552
 4210POPC   C3A54245  19.977  17.550   6.956
 4210POPC   C4A54246  19.927  17.354   7.375
 4210POPC   C1B54247  19.462  17.727   6.054
 4210POPC   C2B54248  19.326  17.636   6.463
 4210POPC   C3B54249  19.520  17.756   6.836
 4210POPC   C4B54250  19.363  17.832   7.196
 4211POPC   NC354251  27.319  40.365   5.129
 4211POPC   PO454252  27.868  40.021   5.392
 4211POPC   GL154253  27.819  39.832   5.809
 4211POPC   GL254254  27.479  39.884   5.901
 4211POPC   C1A54255  27.824  39.734   6.275
 4211POPC   D2A54256  27.967  39.885   6.693
 4211POPC   C3A54257  27.643  39.873   7.017
 4211POPC   C4A54258  27.555  39.886   7.449
 4211POPC   C1B54259  27.479  40.111   6.311
 4211POPC   C2B54260  27.445  40.292   6.738
 4211POPC   C3B54261  27.194  40.228   7.109
 4211POPC   C4B54262  27.035  39.883   7.347
 4212POPC   NC354263  16.005  32.518   5.268
 4212POPC   PO454264  16.072  31.874   5.410
 4212POPC   GL154265  15.864  32.008   5.840
 4212POPC   GL254266  15.901  32.356   5.930
 4212POPC   C1A54267  16.013  32.026   6.301
 4212POPC   D2A54268  16.365  32.229   6.593
 4212POPC   C3A54269  16.300  32.201   7.061
 4212POPC   C4A54270  15.943  32.172   7.354
 4212POPC   C1B54271  15.989  32.517   6.368
 4212POPC   C2B54272  15.940  32.446   6.807
 4212POPC   C3B54273  15.617  32.512   7.092
 4212POPC   C4B54274  15.471  32.682   7.480
 4213POPC   NC354275  12.820  43.281   5.584
 4213POPC   PO454276  12.751  42.603   5.600
 4213POPC   GL154277  12.615  42.887   5.918
 4213POPC   GL254278  12.937  42.973   6.015
 4213POPC   C1A54279  12.576  43.009   6.378
 4213POPC   D2A54280  12.318  43.013   6.743
 4213POPC   C3A54281  12.595  43.024   7.088
 4213POPC   C4A54282  13.062  43.062   7.050
 4213POPC   C1B54283  12.911  43.390   6.226
 4213POPC   C2B54284  13.161  43.568   6.542
 4213POPC   C3B54285  13.323  43.522   6.925
 4213POPC   C4B54286  13.046  43.515   7.269
 4214POPC   NC354287  17.501  27.238   5.450
 4214POPC   PO454288  17.332  27.914   5.338
 4214POPC   GL154289  17.339  27.777   5.815
 4214POPC   GL254290  17.596  27.538   5.864
 4214POPC   C1A54291  17.593  27.896   6.245
 4214POPC   D2A54292  17.835  27.894   6.634
 4214POPC   C3A54293  17.705  27.639   6.973
 4214POPC   C4A54294  17.513  27.698   7.353
 4214POPC   C1B54295  17.798  27.362   6.213
 4214POPC   C2B54296  18.000  27.415   6.590
 4214POPC   C3B54297  17.954  27.161   6.924
 4214POPC   C4B54298  17.710  27.130   7.270
 4215POPC   NC354299  12.871  14.451   5.056
 4215POPC   PO454300  12.651  14.305   5.683
 4215POPC   GL154301  12.905  14.268   5.975
 4215POPC   GL254302  13.007  14.593   5.939
 4215POPC   C1A54303  12.782  14.118   6.375
 4215POPC   D2A54304  12.430  14.202   6.626
 4215POPC   C3A54305  12.554  14.377   7.027
 4215POPC   C4A54306  12.932  14.228   7.240
 4215POPC   C1B54307  12.915  14.614   6.356
 4215POPC   C2B54308  12.664  14.744   6.662
 4215POPC   C3B54309  12.956  14.677   6.934
 4215POPC   C4B54310  12.909  14.746   7.314
 4216POPC   NC354311   3.052  16.209   5.384
 4216POPC   PO454312   2.489  16.422   5.425
 4216POPC   GL154313   2.676  16.150   5.775
 4216POPC   GL254314   3.034  16.158   5.872
 4216POPC   C1A54315   2.698  16.001   6.232
 4216POPC   D2A54316   2.713  16.278   6.595
 4216POPC   C3A54317   2.920  16.161   6.957
 4216POPC   C4A54318   2.880  15.939   7.333
 4216POPC   C1B54319   3.213  16.046   6.222
 4216POPC   C2B54320   3.242  15.919   6.619
 4216POPC   C3B54321   3.218  15.706   6.990
 4216POPC   C4B54322   3.304  15.669   7.408
 4217POPC   NC354323   5.155  29.936   5.406
 4217POPC   PO454324   4.632  30.336   5.491
 4217POPC   GL154325   4.858  30.100   5.802
 4217POPC   GL254326   4.857  29.747   5.786
 4217POPC   C1A54327   5.205  30.004   6.084
 4217POPC   D2A54328   5.335  29.814   6.469
 4217POPC   C3A54329   5.229  30.078   6.816
 4217POPC   C4A54330   5.198  29.958   7.233
 4217POPC   C1B54331   4.987  29.548   6.164
 4217POPC   C2B54332   5.060  29.369   6.561
 4217POPC   C3B54333   5.206  29.536   6.907
 4217POPC   C4B54334   4.972  29.482   7.254
 4218POPC   NC354335  27.568  37.726   5.391
 4218POPC   PO454336  27.842  37.112   5.659
 4218POPC   GL154337  27.857  37.544   5.795
 4218POPC   GL254338  27.514  37.491   5.853
 4218POPC   C1A54339  27.688  37.901   6.079
 4218POPC   D2A54340  27.463  37.859   6.480
 4218POPC   C3A54341  27.763  37.806   6.832
 4218POPC   C4A54342  27.735  37.951   7.240
 4218POPC   C1B54343  27.509  37.311   6.280
 4218POPC   C2B54344  27.461  37.385   6.732
 4218POPC   C3B54345  27.366  37.606   7.106
 4218POPC   C4B54346  27.163  37.436   7.503
 4219POPC   NC354347  35.080  10.007   5.609
 4219POPC   PO454348  34.814  10.629   5.481
 4219POPC   GL154349  34.575  10.544   5.811
 4219POPC   GL254350  34.549  10.209   5.715
 4219POPC   C1A54351  34.499  10.649   6.246
 4219POPC   D2A54352  34.687  10.894   6.536
 4219POPC   C3A54353  34.483  10.885   6.899
 4219POPC   C4A54354  34.563  10.792   7.323
 4219POPC   C1B54355  34.801  10.239   6.143
 4219POPC   C2B54356  34.674  10.256   6.553
 4219POPC   C3B54357  34.430  10.179   6.893
 4219POPC   C4B54358  34.585  10.251   7.273
 4220POPC   NC354359  44.250  41.395   5.394
 4220POPC   PO454360  43.689  41.377   5.154
 4220POPC   GL154361  43.818  41.379   5.676
 4220POPC   GL254362  44.045  41.622   5.844
 4220POPC   C1A54363  43.734  41.349   6.173
 4220POPC   D2A54364  43.889  41.574   6.597
 4220POPC   C3A54365  43.744  41.553   7.071
 4220POPC   C4A54366  43.859  41.709   7.540
 4220POPC   C1B54367  44.230  41.386   6.226
 4220POPC   C2B54368  44.414  41.427   6.615
 4220POPC   C3B54369  44.273  41.680   6.940
 4220POPC   C4B54370  44.222  41.489   7.293
 4221POPC   NC354371   5.627  11.360   5.432
 4221POPC   PO454372   6.260  11.538   5.499
 4221POPC   GL154373   6.107  11.284   5.887
 4221POPC   GL254374   5.782  11.153   5.871
 4221POPC   C1A54375   5.907  11.459   6.251
 4221POPC   D2A54376   5.936  11.648   6.613
 4221POPC   C3A54377   6.029  11.387   6.957
 4221POPC   C4A54378   6.091  11.214   7.355
 4221POPC   C1B54379   5.570  11.063   6.250
 4221POPC   C2B54380   5.508  11.116   6.695
 4221POPC   C3B54381   5.517  11.050   7.153
 4221POPC   C4B54382   5.597  11.073   7.600
 4222POPC   NC354383  39.423  23.770   5.431
 4222POPC   PO454384  38.819  23.522   5.486
 4222POPC   GL154385  39.142  23.514   5.812
 4222POPC   GL254386  38.988  23.212   5.972
 4222POPC   C1A54387  39.339  23.767   6.198
 4222POPC   D2A54388  39.510  23.599   6.631
 4222POPC   C3A54389  39.389  23.743   7.070
 4222POPC   C4A54390  39.238  23.829   7.508
 4222POPC   C1B54391  38.871  23.541   6.274
 4222POPC   C2B54392  38.981  23.677   6.720
 4222POPC   C3B54393  38.884  23.656   7.184
 4222POPC   C4B54394  38.557  23.651   7.532
 4223POPC   NC354395  11.131  14.237   5.462
 4223POPC   PO454396  11.513  14.765   5.190
 4223POPC   GL154397  11.536  14.498   5.664
 4223POPC   GL254398  11.214  14.443   5.914
 4223POPC   C1A54399  11.661  14.364   6.116
 4223POPC   D2A54400  11.396  14.170   6.464
 4223POPC   C3A54401  11.519  14.207   6.903
 4223POPC   C4A54402  11.189  14.335   7.181
 4223POPC   C1B54403  11.137  14.688   6.294
 4223POPC   C2B54404  11.200  14.604   6.704
 4223POPC   C3B54405  11.293  14.828   7.028
 4223POPC   C4B54406  11.073  14.853   7.395
 4224POPC   NC354407  17.691   6.614   5.533
 4224POPC   PO454408  18.394   6.573   5.451
 4224POPC   GL154409  18.431   6.643   5.901
 4224POPC   GL254410  18.117   6.816   5.813
 4224POPC   C1A54411  18.434   6.523   6.335
 4224POPC   D2A54412  18.549   6.370   6.750
 4224POPC   C3A54413  18.325   6.660   7.012
 4224POPC   C4A54414  18.429   6.908   7.381
 4224POPC   C1B54415  17.998   6.821   6.195
 4224POPC   C2B54416  17.971   6.690   6.597
 4224POPC   C3B54417  17.932   6.981   6.888
 4224POPC   C4B54418  17.900   6.829   7.265
 4225POPC   NC354419   5.370  43.915   5.455
 4225POPC   PO454420   4.704  43.882   5.625
 4225POPC   GL154421   4.998  44.051   5.890
 4225POPC   GL254422   5.205  43.766   5.908
 4225POPC   C1A54423   5.016  43.950   6.330
 4225POPC   D2A54424   4.905  43.901   6.737
 4225POPC   C3A54425   5.205  43.933   7.064
 4225POPC   C4A54426   5.248  44.103   7.512
 4225POPC   C1B54427   4.900  43.480   6.165
 4225POPC   C2B54428   4.901  43.396   6.606
 4225POPC   C3B54429   4.864  43.498   7.048
 4225POPC   C4B54430   5.094  43.622   7.424
 4226POPC   NC354431  31.238  12.270   5.555
 4226POPC   PO454432  31.785  11.891   5.535
 4226POPC   GL154433  31.495  11.897   5.847
 4226POPC   GL254434  31.223  11.687   5.742
 4226POPC   C1A54435  31.423  12.198   6.180
 4226POPC   D2A54436  31.584  12.287   6.565
 4226POPC   C3A54437  31.596  12.018   6.869
 4226POPC   C4A54438  31.425  12.164   7.225
 4226POPC   C1B54439  31.130  11.712   6.181
 4226POPC   C2B54440  31.187  11.938   6.563
 4226POPC   C3B54441  31.080  11.871   6.999
 4226POPC   C4B54442  31.171  11.791   7.443
 4227POPC   NC354443  29.978   7.124   5.283
 4227POPC   PO454444  29.674   7.680   5.488
 4227POPC   GL154445  29.837   7.556   5.884
 4227POPC   GL254446  30.121   7.770   5.869
 4227POPC   C1A54447  29.719   7.520   6.348
 4227POPC   D2A54448  29.772   7.548   6.807
 4227POPC   C3A54449  29.638   7.332   7.172
 4227POPC   C4A54450  29.795   7.380   7.583
 4227POPC   C1B54451  30.046   7.903   6.317
 4227POPC   C2B54452  30.178   7.849   6.768
 4227POPC   C3B54453  30.110   7.636   7.205
 4227POPC   C4B54454  30.301   7.396   7.573
 4228POPC   NC354455  25.650  27.643   5.511
 4228POPC   PO454456  26.259  27.192   5.479
 4228POPC   GL154457  26.121  27.488   5.785
 4228POPC   GL254458  25.806  27.476   5.968
 4228POPC   C1A54459  26.233  27.541   6.225
 4228POPC   D2A54460  25.982  27.340   6.511
 4228POPC   C3A54461  26.067  27.576   6.834
 4228POPC   C4A54462  26.151  27.626   7.233
 4228POPC   C1B54463  25.732  27.727   6.323
 4228POPC   C2B54464  25.581  27.671   6.713
 4228POPC   C3B54465  25.622  27.550   7.108
 4228POPC   C4B54466  25.735  27.608   7.515
 4229POPC   NC354467  27.385   0.923   5.121
 4229POPC   PO454468  27.644   1.454   5.469
 4229POPC   GL154469  27.594   1.284   5.868
 4229POPC   GL254470  27.894   1.075   5.897
 4229POPC   C1A54471  27.433   1.392   6.299
 4229POPC   D2A54472  27.634   1.603   6.663
 4229POPC   C3A54473  27.549   1.457   7.060
 4229POPC   C4A54474  27.153   1.306   7.206
 4229POPC   C1B54475  27.890   1.195   6.289
 4229POPC   C2B54476  27.774   1.109   6.691
 4229POPC   C3B54477  27.939   1.057   7.070
 4229POPC   C4B54478  27.697   1.085   7.403
 4230POPC   NC354479  36.887  32.555   5.271
 4230POPC   PO454480  36.863  31.943   5.442
 4230POPC   GL154481  37.033  32.294   5.728
 4230POPC   GL254482  36.829  32.564   5.793
 4230POPC   C1A54483  37.042  32.309   6.184
 4230POPC   D2A54484  36.991  31.942   6.418
 4230POPC   C3A54485  36.954  32.020   6.842
 4230POPC   C4A54486  36.946  32.133   7.285
 4230POPC   C1B54487  36.606  32.610   6.209
 4230POPC   C2B54488  36.698  32.418   6.611
 4230POPC   C3B54489  36.923  32.516   6.964
 4230POPC   C4B54490  36.635  32.628   7.258
 4231POPC   NC354491   5.262  37.785   5.243
 4231POPC   PO454492   4.823  37.436   5.618
 4231POPC   GL154493   5.163  37.536   5.849
 4231POPC   GL254494   5.186  37.901   5.770
 4231POPC   C1A54495   5.244  37.628   6.305
 4231POPC   D2A54496   5.425  37.730   6.705
 4231POPC   C3A54497   5.243  37.584   7.090
 4231POPC   C4A54498   4.856  37.551   7.246
 4231POPC   C1B54499   4.838  37.879   6.113
 4231POPC   C2B54500   4.803  37.743   6.560
 4231POPC   C3B54501   5.011  37.975   6.882
 4231POPC   C4B54502   5.181  38.041   7.289
 4232POPC   NC354503  36.714   4.789   5.495
 4232POPC   PO454504  37.130   4.188   5.529
 4232POPC   GL154505  36.988   4.220   5.944
 4232POPC   GL254506  36.693   4.403   5.836
 4232POPC   C1A54507  37.062   4.227   6.378
 4232POPC   D2A54508  37.073   4.563   6.693
 4232POPC   C3A54509  37.049   4.270   7.027
 4232POPC   C4A54510  37.108   4.073   7.437
 4232POPC   C1B54511  36.741   4.588   6.234
 4232POPC   C2B54512  36.580   4.425   6.622
 4232POPC   C3B54513  36.628   4.594   7.017
 4232POPC   C4B54514  36.834   4.513   7.412
 4233POPC   NC354515  30.120  37.311   5.324
 4233POPC   PO454516  29.895  37.939   5.424
 4233POPC   GL154517  29.863  37.663   5.730
 4233POPC   GL254518  29.573  37.675   5.900
 4233POPC   C1A54519  30.048  37.765   6.127
 4233POPC   D2A54520  30.043  37.694   6.553
 4233POPC   C3A54521  29.851  38.047   6.759
 4233POPC   C4A54522  29.857  37.907   7.183
 4233POPC   C1B54523  29.747  37.367   6.163
 4233POPC   C2B54524  29.686  37.311   6.596
 4233POPC   C3B54525  29.809  37.200   7.010
 4233POPC   C4B54526  29.916  37.258   7.426
 4234POPC   NC354527  11.777   8.661   5.464
 4234POPC   PO454528  12.158   8.117   5.336
 4234POPC   GL154529  12.230   8.027   5.776
 4234POPC   GL254530  12.388   8.305   5.909
 4234POPC   C1A54531  12.034   8.070   6.212
 4234POPC   D2A54532  12.063   8.351   6.589
 4234POPC   C3A54533  12.075   8.246   7.043
 4234POPC   C4A54534  11.786   8.459   7.339
 4234POPC   C1B54535  12.513   7.926   6.193
 4234POPC   C2B54536  12.354   7.915   6.602
 4234POPC   C3B54537  12.458   7.877   6.995
 4234POPC   C4B54538  12.506   8.128   7.367
 4235POPC   NC354539  32.872   9.226   5.413
 4235POPC   PO454540  32.718   8.574   5.539
 4235POPC   GL154541  33.036   8.855   5.793
 4235POPC   GL254542  33.111   9.264   5.857
 4235POPC   C1A54543  32.970   8.981   6.226
 4235POPC   D2A54544  32.979   9.349   6.491
 4235POPC   C3A54545  33.009   9.153   6.896
 4235POPC   C4A54546  32.809   8.990   7.218
 4235POPC   C1B54547  33.425   9.194   6.214
 4235POPC   C2B54548  33.453   9.212   6.668
 4235POPC   C3B54549  33.520   9.270   7.111
 4235POPC   C4B54550  33.276   9.146   7.435
 4236POPC   NC354551  26.013  20.924   5.482
 4236POPC   PO454552  26.320  20.379   5.197
 4236POPC   GL154553  26.124  20.449   5.693
 4236POPC   GL254554  26.145  20.802   5.946
 4236POPC   C1A54555  25.866  20.433   6.100
 4236POPC   D2A54556  25.996  20.704   6.495
 4236POPC   C3A54557  26.023  20.505   6.912
 4236POPC   C4A54558  25.844  20.375   7.304
 4236POPC   C1B54559  26.369  20.514   6.203
 4236POPC   C2B54560  26.418  20.357   6.601
 4236POPC   C3B54561  26.568  20.458   6.981
 4236POPC   C4B54562  26.358  20.541   7.354
 4237POPC   NC354563  24.107  14.757   5.713
 4237POPC   PO454564  24.352  15.349   5.497
 4237POPC   GL154565  24.521  15.098   5.866
 4237POPC   GL254566  24.643  14.719   5.788
 4237POPC   C1A54567  24.688  15.296   6.274
 4237POPC   D2A54568  24.779  15.388   6.707
 4237POPC   C3A54569  24.422  15.372   6.953
 4237POPC   C4A54570  24.352  15.238   7.372
 4237POPC   C1B54571  24.544  14.742   6.239
 4237POPC   C2B54572  24.414  14.987   6.599
 4237POPC   C3B54573  24.562  14.900   7.002
 4237POPC   C4B54574  24.349  14.747   7.373
 4238POPC   NC354575  27.415  21.447   5.315
 4238POPC   PO454576  27.811  20.882   5.505
 4238POPC   GL154577  27.575  21.206   5.745
 4238POPC   GL254578  27.752  21.511   5.693
 4238POPC   C1A54579  27.236  21.277   6.061
 4238POPC   D2A54580  27.410  21.360   6.471
 4238POPC   C3A54581  27.307  21.332   6.902
 4238POPC   C4A54582  27.624  21.179   7.193
 4238POPC   C1B54583  27.685  21.607   6.096
 4238POPC   C2B54584  27.880  21.567   6.471
 4238POPC   C3B54585  27.789  21.644   6.883
 4238POPC   C4B54586  28.013  21.564   7.239
 4239POPC   NC354587  37.284  17.863   5.435
 4239POPC   PO454588  37.970  18.180   5.395
 4239POPC   GL154589  37.737  18.336   5.746
 4239POPC   GL254590  37.399  18.332   5.698
 4239POPC   C1A54591  37.742  18.336   6.203
 4239POPC   D2A54592  37.653  18.034   6.540
 4239POPC   C3A54593  37.706  18.308   6.866
 4239POPC   C4A54594  37.531  18.507   7.209
 4239POPC   C1B54595  37.322  18.060   6.065
 4239POPC   C2B54596  37.113  17.868   6.426
 4239POPC   C3B54597  37.206  17.783   6.863
 4239POPC   C4B54598  37.514  17.938   7.151
 4240POPC   NC354599  32.188   0.958   5.390
 4240POPC   PO454600  32.039   1.582   5.588
 4240POPC   GL154601  32.275   1.270   5.874
 4240POPC   GL254602  32.280   0.864   5.885
 4240POPC   C1A54603  32.620   1.319   6.165
 4240POPC   D2A54604  32.765   1.547   6.500
 4240POPC   C3A54605  32.557   1.375   6.833
 4240POPC   C4A54606  32.336   1.381   7.194
 4240POPC   C1B54607  32.244   0.969   6.316
 4240POPC   C2B54608  32.189   1.022   6.746
 4240POPC   C3B54609  32.303   0.885   7.140
 4240POPC   C4B54610  32.082   0.899   7.527
 4241POPC   NC354611  26.071  16.683   5.303
 4241POPC   PO454612  25.594  16.391   5.656
 4241POPC   GL154613  25.869  16.574   5.898
 4241POPC   GL254614  26.053  16.839   5.815
 4241POPC   C1A54615  25.887  16.636   6.309
 4241POPC   D2A54616  26.078  16.451   6.600
 4241POPC   C3A54617  25.881  16.583   6.934
 4241POPC   C4A54618  25.957  16.872   7.239
 4241POPC   C1B54619  26.214  17.012   6.206
 4241POPC   C2B54620  26.086  16.988   6.658
 4241POPC   C3B54621  26.323  17.154   7.005
 4241POPC   C4B54622  26.404  17.062   7.412
 4242POPC   NC354623  19.551  20.835   5.508
 4242POPC   PO454624  18.943  20.609   5.328
 4242POPC   GL154625  19.035  20.710   5.735
 4242POPC   GL254626  19.276  20.466   5.761
 4242POPC   C1A54627  18.818  20.711   6.150
 4242POPC   D2A54628  18.952  20.860   6.560
 4242POPC   C3A54629  19.082  20.618   6.921
 4242POPC   C4A54630  18.958  20.440   7.334
 4242POPC   C1B54631  19.289  20.505   6.219
 4242POPC   C2B54632  19.307  20.229   6.604
 4242POPC   C3B54633  19.320  20.190   7.073
 4242POPC   C4B54634  19.463  20.432   7.480
 4243POPC   NC354635   7.066  30.535   5.691
 4243POPC   PO454636   7.776  30.526   5.499
 4243POPC   GL154637   7.550  30.415   5.851
 4243POPC   GL254638   7.469  30.781   5.891
 4243POPC   C1A54639   7.440  30.468   6.292
 4243POPC   D2A54640   7.474  30.767   6.622
 4243POPC   C3A54641   7.548  30.509   6.972
 4243POPC   C4A54642   7.270  30.439   7.297
 4243POPC   C1B54643   7.755  30.958   6.199
 4243POPC   C2B54644   7.687  31.240   6.535
 4243POPC   C3B54645   7.434  31.212   6.892
 4243POPC   C4B54646   7.429  30.946   7.220
 4244POPC   NC354647  42.064  16.991   5.488
 4244POPC   PO454648  42.496  16.408   5.363
 4244POPC   GL154649  42.444  16.470   5.764
 4244POPC   GL254650  42.099  16.582   5.814
 4244POPC   C1A54651  42.392  16.381   6.182
 4244POPC   D2A54652  42.497  16.627   6.524
 4244POPC   C3A54653  42.359  16.710   6.939
 4244POPC   C4A54654  42.587  16.634   7.304
 4244POPC   C1B54655  42.062  16.761   6.240
 4244POPC   C2B54656  41.960  16.541   6.648
 4244POPC   C3B54657  41.867  16.678   7.081
 4244POPC   C4B54658  41.926  17.132   7.154
 4245POPC   NC354659   3.951  26.735   5.317
 4245POPC   PO454660   3.326  26.551   5.202
 4245POPC   GL154661   3.448  26.813   5.580
 4245POPC   GL254662   3.311  26.568   5.778
 4245POPC   C1A54663   3.744  26.908   5.996
 4245POPC   D2A54664   3.832  26.657   6.424
 4245POPC   C3A54665   3.776  26.847   6.859
 4245POPC   C4A54666   3.358  26.987   7.032
 4245POPC   C1B54667   3.343  26.669   6.199
 4245POPC   C2B54668   3.362  26.613   6.640
 4245POPC   C3B54669   3.534  26.430   7.000
 4245POPC   C4B54670   3.432  26.581   7.375
 4246POPC   NC354671   0.318  21.846   5.531
 4246POPC   PO454672   0.386  22.480   5.455
 4246POPC   GL154673   0.402  22.263   5.854
 4246POPC   GL254674   0.100  22.044   5.944
 4246POPC   C1A54675   0.552  22.066   6.246
 4246POPC   D2A54676   0.846  21.993   6.605
 4246POPC   C3A54677   0.659  21.834   6.959
 4246POPC   C4A54678   0.535  22.006   7.324
 4246POPC   C1B54679   0.090  22.345   6.253
 4246POPC   C2B54680   0.286  22.337   6.619
 4246POPC   C3B54681   0.156  22.123   6.971
 4246POPC   C4B54682   0.146  22.327   7.318
 4247POPC   NC354683  25.652  13.819   5.627
 4247POPC   PO454684  25.083  13.561   5.486
 4247POPC   GL154685  25.233  13.431   5.874
 4247POPC   GL254686  25.578  13.348   5.832
 4247POPC   C1A54687  25.192  13.600   6.284
 4247POPC   D2A54688  25.080  13.864   6.630
 4247POPC   C3A54689  25.343  13.710   6.972
 4247POPC   C4A54690  25.101  13.527   7.251
 4247POPC   C1B54691  25.599  13.239   6.239
 4247POPC   C2B54692  25.606  13.448   6.634
 4247POPC   C3B54693  25.574  13.266   7.074
 4247POPC   C4B54694  25.463  13.317   7.550
 4248POPC   NC354695   5.569  27.112   5.638
 4248POPC   PO454696   5.875  26.613   5.258
 4248POPC   GL154697   5.703  26.606   5.646
 4248POPC   GL254698   5.982  26.797   5.747
 4248POPC   C1A54699   5.692  26.638   6.128
 4248POPC   D2A54700   5.697  26.935   6.483
 4248POPC   C3A54701   5.792  26.826   6.908
 4248POPC   C4A54702   5.546  26.929   7.230
 4248POPC   C1B54703   6.199  26.789   6.128
 4248POPC   C2B54704   6.169  26.741   6.556
 4248POPC   C3B54705   6.265  26.646   6.975
 4248POPC   C4B54706   6.101  26.829   7.371
 4249POPC   NC354707  21.311  14.579   5.396
 4249POPC   PO454708  21.148  13.991   5.473
 4249POPC   GL154709  21.258  14.248   5.791
 4249POPC   GL254710  21.598  14.225   5.789
 4249POPC   C1A54711  21.208  14.498   6.160
 4249POPC   D2A54712  21.203  14.257   6.568
 4249POPC   C3A54713  21.236  14.479   6.966
 4249POPC   C4A54714  21.294  14.511   7.389
 4249POPC   C1B54715  21.644  14.269   6.253
 4249POPC   C2B54716  21.638  14.537   6.656
 4249POPC   C3B54717  21.731  14.382   7.120
 4249POPC   C4B54718  21.642  14.165   7.559
 4250POPC   NC354719  30.366  10.239   5.484
 4250POPC   PO454720  30.829  10.846   5.472
 4250POPC   GL154721  30.701  10.689   5.842
 4250POPC   GL254722  30.668  10.321   5.889
 4250POPC   C1A54723  30.619  10.841   6.261
 4250POPC   D2A54724  30.413  10.729   6.663
 4250POPC   C3A54725  30.555  10.414   6.843
 4250POPC   C4A54726  30.822  10.380   7.166
 4250POPC   C1B54727  30.781  10.113   6.290
 4250POPC   C2B54728  30.936  10.067   6.735
 4250POPC   C3B54729  30.629   9.940   7.032
 4250POPC   C4B54730  30.288  10.175   7.207
 4251POPC   NC354731  42.045  19.884   5.490
 4251POPC   PO454732  42.693  19.746   5.468
 4251POPC   GL154733  42.427  19.759   5.828
 4251POPC   GL254734  42.187  19.479   5.836
 4251POPC   C1A54735  42.461  19.861   6.266
 4251POPC   D2A54736  42.627  19.742   6.675
 4251POPC   C3A54737  42.417  19.969   7.010
 4251POPC   C4A54738  42.128  20.010   7.345
 4251POPC   C1B54739  42.235  19.395   6.303
 4251POPC   C2B54740  42.216  19.428   6.783
 4251POPC   C3B54741  42.261  19.536   7.226
 4251POPC   C4B54742  42.065  19.485   7.667
 4252POPC   NC354743  24.614  32.853   5.254
 4252POPC   PO454744  24.601  33.510   5.377
 4252POPC   GL154745  24.553  33.200   5.724
 4252POPC   GL254746  24.555  32.814   5.746
 4252POPC   C1A54747  24.387  33.085   6.139
 4252POPC   D2A54748  24.309  33.281   6.533
 4252POPC   C3A54749  24.262  33.064   6.905
 4252POPC   C4A54750  24.226  33.282   7.288
 4252POPC   C1B54751  24.763  32.738   6.127
 4252POPC   C2B54752  24.658  32.915   6.548
 4252POPC   C3B54753  24.778  32.946   6.963
 4252POPC   C4B54754  24.829  32.647   7.286
 4253POPC   NC354755  16.537  44.373   5.208
 4253POPC   PO454756  15.969  44.578   5.380
 4253POPC   GL154757  15.785  44.646   5.795
 4253POPC   GL254758  15.616  44.367   5.781
 4253POPC   C1A54759  15.874  44.735   6.252
 4253POPC   D2A54760  15.572  44.809   6.605
 4253POPC   C3A54761  15.639  44.611   7.012
 4253POPC   C4A54762  15.920  44.440   7.350
 4253POPC   C1B54763  15.820  44.230   6.171
 4253POPC   C2B54764  15.896  44.368   6.597
 4253POPC   C3B54765  15.814  44.135   6.934
 4253POPC   C4B54766  15.783  43.936   7.300
 4254POPC   NC354767  27.637  39.618   5.358
 4254POPC   PO454768  28.001  39.037   5.504
 4254POPC   GL154769  27.755  39.154   5.841
 4254POPC   GL254770  27.531  39.395   5.826
 4254POPC   C1A54771  27.598  39.105   6.241
 4254POPC   D2A54772  27.520  39.241   6.662
 4254POPC   C3A54773  27.504  38.952   7.013
 4254POPC   C4A54774  27.605  39.145   7.396
 4254POPC   C1B54775  27.353  39.555   6.251
 4254POPC   C2B54776  27.314  39.730   6.670
 4254POPC   C3B54777  27.277  39.499   7.094
 4254POPC   C4B54778  27.276  39.489   7.580
 4255POPC   NC354779  28.395  23.896   5.421
 4255POPC   PO454780  28.641  23.277   5.385
 4255POPC   GL154781  28.487  23.463   5.734
 4255POPC   GL254782  28.184  23.571   5.768
 4255POPC   C1A54783  28.514  23.810   6.055
 4255POPC   D2A54784  28.599  23.784   6.488
 4255POPC   C3A54785  28.417  23.638   6.866
 4255POPC   C4A54786  28.581  23.692   7.265
 4255POPC   C1B54787  28.052  23.701   6.221
 4255POPC   C2B54788  28.114  24.003   6.599
 4255POPC   C3B54789  28.015  24.013   7.037
 4255POPC   C4B54790  28.050  23.640   7.292
 4256POPC   NC354791  36.320  20.552   5.529
 4256POPC   PO454792  35.673  20.812   5.649
 4256POPC   GL154793  35.949  20.616   5.914
 4256POPC   GL254794  35.914  20.328   5.832
 4256POPC   C1A54795  36.230  20.493   6.285
 4256POPC   D2A54796  36.489  20.565   6.681
 4256POPC   C3A54797  36.243  20.735   6.983
 4256POPC   C4A54798  36.075  20.699   7.382
 4256POPC   C1B54799  35.732  20.351   6.265
 4256POPC   C2B54800  35.893  20.469   6.686
 4256POPC   C3B54801  36.030  20.281   7.095
 4256POPC   C4B54802  35.788  20.263   7.499
 4257POPC   NC354803   0.899  40.428   5.581
 4257POPC   PO454804   1.168  41.101   5.546
 4257POPC   GL154805   1.016  40.894   5.859
 4257POPC   GL254806   0.820  41.193   5.921
 4257POPC   C1A54807   1.099  40.598   6.207
 4257POPC   D2A54808   0.914  40.479   6.592
 4257POPC   C3A54809   1.176  40.491   6.921
 4257POPC   C4A54810   1.150  40.725   7.254
 4257POPC   C1B54811   0.884  41.040   6.339
 4257POPC   C2B54812   1.230  40.920   6.616
 4257POPC   C3B54813   1.384  41.109   6.985
 4257POPC   C4B54814   1.156  41.241   7.330
 4258POPC   NC354815   4.183   2.679   5.472
 4258POPC   PO454816   4.287   3.356   5.644
 4258POPC   GL154817   4.455   2.979   5.856
 4258POPC   GL254818   4.569   2.590   5.793
 4258POPC   C1A54819   4.362   2.822   6.270
 4258POPC   D2A54820   4.255   2.699   6.696
 4258POPC   C3A54821   4.301   2.997   7.027
 4258POPC   C4A54822   4.315   3.305   7.336
 4258POPC   C1B54823   4.597   2.375   6.191
 4258POPC   C2B54824   4.742   2.515   6.574
 4258POPC   C3B54825   4.582   2.436   6.988
 4258POPC   C4B54826   4.185   2.534   7.187
 4259POPC   NC354827   0.060  37.291   5.610
 4259POPC   PO454828   0.363  37.830   5.347
 4259POPC   GL154829   0.230  37.784   5.815
 4259POPC   GL254830   0.263  38.092   6.056
 4259POPC   C1A54831   0.137  37.590   6.243
 4259POPC   D2A54832   0.001  37.619   6.679
 4259POPC   C3A54833   0.321  37.535   6.997
 4259POPC   C4A54834   0.513  37.323   7.369
 4259POPC   C1B54835   0.593  37.826   6.272
 4259POPC   C2B54836   0.769  37.636   6.666
 4259POPC   C3B54837   0.769  37.756   7.113
 4259POPC   C4B54838   0.424  37.990   7.360
 4260POPC   NC354839  36.727  19.162   5.494
 4260POPC   PO454840  37.174  18.689   5.383
 4260POPC   GL154841  37.147  18.995   5.743
 4260POPC   GL254842  36.803  18.976   5.971
 4260POPC   C1A54843  37.230  19.183   6.143
 4260POPC   D2A54844  37.067  18.962   6.491
 4260POPC   C3A54845  37.013  19.193   6.868
 4260POPC   C4A54846  36.765  19.077   7.194
 4260POPC   C1B54847  36.583  19.366   6.121
 4260POPC   C2B54848  36.487  19.574   6.510
 4260POPC   C3B54849  36.527  19.445   6.938
 4260POPC   C4B54850  36.744  19.575   7.287
 4261POPC   NC354851   9.722  37.755   5.112
 4261POPC   PO454852   9.661  38.073   5.661
 4261POPC   GL154853   9.784  37.715   5.841
 4261POPC   GL254854  10.050  37.837   6.050
 4261POPC   C1A54855   9.632  37.599   6.255
 4261POPC   D2A54856   9.827  37.562   6.666
 4261POPC   C3A54857   9.691  37.703   7.068
 4261POPC   C4A54858   9.625  37.446   7.444
 4261POPC   C1B54859  10.118  37.404   6.245
 4261POPC   C2B54860  10.214  37.242   6.681
 4261POPC   C3B54861  10.060  37.339   7.126
 4261POPC   C4B54862  10.130  37.631   7.473
 4262POPC   NC354863   4.375  33.681   5.068
 4262POPC   PO454864   4.004  33.820   5.601
 4262POPC   GL154865   4.208  33.549   5.879
 4262POPC   GL254866   4.467  33.778   5.996
 4262POPC   C1A54867   4.225  33.440   6.321
 4262POPC   D2A54868   4.274  33.743   6.656
 4262POPC   C3A54869   4.194  33.647   7.059
 4262POPC   C4A54870   4.623  33.617   7.207
 4262POPC   C1B54871   4.168  34.026   6.246
 4262POPC   C2B54872   3.888  34.079   6.588
 4262POPC   C3B54873   4.077  34.220   6.962
 4262POPC   C4B54874   4.379  34.064   7.275
 4263POPC   NC354875  23.424  20.718   5.473
 4263POPC   PO454876  23.803  20.188   5.382
 4263POPC   GL154877  23.917  20.432   5.754
 4263POPC   GL254878  23.851  20.807   5.801
 4263POPC   C1A54879  23.919  20.401   6.213
 4263POPC   D2A54880  23.489  20.432   6.403
 4263POPC   C3A54881  23.368  20.322   6.830
 4263POPC   C4A54882  23.454  20.528   7.235
 4263POPC   C1B54883  23.880  20.915   6.255
 4263POPC   C2B54884  24.058  20.750   6.644
 4263POPC   C3B54885  23.937  20.646   7.078
 4263POPC   C4B54886  23.724  20.951   7.394
 4264POPC   NC354887  17.844  37.856   5.354
 4264POPC   PO454888  17.314  37.452   5.299
 4264POPC   GL154889  17.437  37.662   5.707
 4264POPC   GL254890  17.794  37.615   5.818
 4264POPC   C1A54891  17.274  37.693   6.151
 4264POPC   D2A54892  17.381  37.543   6.570
 4264POPC   C3A54893  17.197  37.695   6.947
 4264POPC   C4A54894  17.540  37.786   7.227
 4264POPC   C1B54895  17.969  37.970   6.095
 4264POPC   C2B54896  18.159  37.994   6.544
 4264POPC   C3B54897  18.035  37.888   6.996
 4264POPC   C4B54898  17.977  37.883   7.476
 4265POPC   NC354899  40.670  38.768   5.487
 4265POPC   PO454900  40.958  38.281   5.743
 4265POPC   GL154901  40.716  38.627   5.959
 4265POPC   GL254902  41.012  38.786   5.934
 4265POPC   C1A54903  40.453  38.606   6.316
 4265POPC   D2A54904  40.363  38.184   6.458
 4265POPC   C3A54905  40.514  38.178   6.844
 4265POPC   C4A54906  40.534  38.555   7.075
 4265POPC   C1B54907  41.019  38.534   6.343
 4265POPC   C2B54908  40.952  38.499   6.769
 4265POPC   C3B54909  40.996  38.769   7.131
 4265POPC   C4B54910  40.856  38.508   7.494
 4266POPC   NC354911  12.921  13.080   5.558
 4266POPC   PO454912  12.731  12.460   5.398
 4266POPC   GL154913  12.727  12.627   5.793
 4266POPC   GL254914  13.071  12.708   5.900
 4266POPC   C1A54915  12.679  12.645   6.229
 4266POPC   D2A54916  13.022  12.660   6.528
 4266POPC   C3A54917  12.876  12.547   6.913
 4266POPC   C4A54918  12.831  12.867   7.195
 4266POPC   C1B54919  12.958  13.069   6.216
 4266POPC   C2B54920  12.705  13.116   6.608
 4266POPC   C3B54921  12.704  13.322   6.997
 4266POPC   C4B54922  13.065  13.331   7.215
 4267POPC   NC354923  15.199  10.556   5.358
 4267POPC   PO454924  15.826  10.624   5.406
 4267POPC   GL154925  15.460  10.522   5.798
 4267POPC   GL254926  15.038  10.514   5.848
 4267POPC   C1A54927  15.319  10.699   6.232
 4267POPC   D2A54928  15.340  10.922   6.626
 4267POPC   C3A54929  15.359  10.666   7.007
 4267POPC   C4A54930  15.177  10.771   7.410
 4267POPC   C1B54931  14.996  10.294   6.280
 4267POPC   C2B54932  14.983  10.492   6.704
 4267POPC   C3B54933  14.961  10.378   7.167
 4267POPC   C4B54934  14.951  10.245   7.620
 4268POPC   NC354935   4.033  24.957   5.566
 4268POPC   PO454936   4.280  24.299   5.454
 4268POPC   GL154937   4.540  24.445   5.819
 4268POPC   GL254938   4.448  24.777   5.863
 4268POPC   C1A54939   4.576  24.468   6.297
 4268POPC   D2A54940   4.364  24.274   6.692
 4268POPC   C3A54941   4.134  24.400   7.049
 4268POPC   C4A54942   4.135  24.333   7.463
 4268POPC   C1B54943   4.277  24.886   6.229
 4268POPC   C2B54944   4.471  24.883   6.612
 4268POPC   C3B54945   4.517  24.753   6.995
 4268POPC   C4B54946   4.260  24.835   7.333
 4269POPC   NC354947  42.025  11.554   5.394
 4269POPC   PO454948  41.461  11.086   5.539
 4269POPC   GL154949  41.537  11.250   5.948
 4269POPC   GL254950  41.513  11.625   5.895
 4269POPC   C1A54951  41.323  11.421   6.329
 4269POPC   D2A54952  41.478  11.600   6.691
 4269POPC   C3A54953  41.526  11.295   7.022
 4269POPC   C4A54954  41.186  11.204   7.334
 4269POPC   C1B54955  41.824  11.611   6.250
 4269POPC   C2B54956  41.990  11.556   6.692
 4269POPC   C3B54957  41.847  11.740   7.079
 4269POPC   C4B54958  41.972  11.713   7.542
 4270POPC   NC354959  13.278  28.030   5.316
 4270POPC   PO454960  12.701  27.698   5.339
 4270POPC   GL154961  12.772  27.564   5.774
 4270POPC   GL254962  13.120  27.428   5.775
 4270POPC   C1A54963  12.712  27.444   6.232
 4270POPC   D2A54964  12.791  27.146   6.597
 4270POPC   C3A54965  12.889  27.340   6.980
 4270POPC   C4A54966  12.598  27.520   7.259
 4270POPC   C1B54967  13.154  27.713   6.146
 4270POPC   C2B54968  13.321  27.884   6.557
 4270POPC   C3B54969  13.257  27.757   6.983
 4270POPC   C4B54970  13.080  27.661   7.374
 4271POPC   NC354971  30.321  34.133   5.344
 4271POPC   PO454972  30.940  33.813   5.349
 4271POPC   GL154973  30.890  33.722   5.807
 4271POPC   GL254974  30.538  33.661   5.830
 4271POPC   C1A54975  30.982  33.661   6.279
 4271POPC   D2A54976  31.011  33.605   6.745
 4271POPC   C3A54977  30.792  33.923   6.980
 4271POPC   C4A54978  30.510  34.155   7.191
 4271POPC   C1B54979  30.512  33.424   6.232
 4271POPC   C2B54980  30.564  33.371   6.675
 4271POPC   C3B54981  30.602  33.487   7.091
 4271POPC   C4B54982  31.039  33.521   7.252
 4272POPC   NC354983  31.305  27.714   5.357
 4272POPC   PO454984  31.817  27.353   5.307
 4272POPC   GL154985  31.564  27.411   5.728
 4272POPC   GL254986  31.435  27.757   5.845
 4272POPC   C1A54987  31.610  27.456   6.215
 4272POPC   D2A54988  31.729  27.680   6.611
 4272POPC   C3A54989  31.618  27.432   6.978
 4272POPC   C4A54990  31.215  27.451   7.142
 4272POPC   C1B54991  31.446  27.983   6.243
 4272POPC   C2B54992  31.253  28.107   6.621
 4272POPC   C3B54993  31.399  27.977   7.011
 4272POPC   C4B54994  31.815  27.892   7.140
 4273POPC   NC354995  34.836  40.660   5.446
 4273POPC   PO454996  34.194  40.767   5.507
 4273POPC   GL154997  34.503  40.803   5.831
 4273POPC   GL254998  34.756  41.087   5.841
 4273POPC   C1A54999  34.573  40.649   6.237
 4273POPC   D2A55000  34.746  40.681   6.651
 4273POPC   C3A55001  34.551  40.479   6.977
 4273POPC   C4A55002  34.651  40.522   7.400
 4273POPC   C1B55003  34.952  41.015   6.262
 4273POPC   C2B55004  34.875  41.168   6.704
 4273POPC   C3B55005  34.695  40.969   7.086
 4273POPC   C4B55006  34.478  41.039   7.487
 4274POPC   NC355007   7.736  19.524   5.473
 4274POPC   PO455008   8.408  19.755   5.386
 4274POPC   GL155009   8.277  19.837   5.833
 4274POPC   GL255010   7.912  19.877   5.835
 4274POPC   C1A55011   8.139  19.711   6.277
 4274POPC   D2A55012   8.264  19.494   6.680
 4274POPC   C3A55013   8.422  19.679   7.059
 4274POPC   C4A55014   8.116  19.729   7.405
 4274POPC   C1B55015   7.703  20.089   6.185
 4274POPC   C2B55016   7.907  20.074   6.557
 4274POPC   C3B55017   7.969  19.892   6.917
 4274POPC   C4B55018   7.781  20.095   7.231
 4275POPC   NC355019  38.925  30.949   5.504
 4275POPC   PO455020  39.279  30.569   5.118
 4275POPC   GL155021  39.228  30.551   5.683
 4275POPC   GL255022  39.176  30.857   5.916
 4275POPC   C1A55023  39.300  30.451   6.187
 4275POPC   D2A55024  39.182  30.219   6.624
 4275POPC   C3A55025  39.260  30.462   7.051
 4275POPC   C4A55026  39.594  30.752   7.130
 4275POPC   C1B55027  39.008  30.975   6.306
 4275POPC   C2B55028  39.218  30.869   6.712
 4275POPC   C3B55029  39.133  30.980   7.140
 4275POPC   C4B55030  38.751  30.778   7.374
 4276POPC   NC355031   8.995  15.074   5.377
 4276POPC   PO455032   9.421  15.538   5.360
 4276POPC   GL155033   9.093  15.418   5.749
 4276POPC   GL255034   9.125  15.045   5.854
 4276POPC   C1A55035   8.953  15.409   6.182
 4276POPC   D2A55036   9.062  15.427   6.620
 4276POPC   C3A55037   8.764  15.539   6.952
 4276POPC   C4A55038   8.842  15.392   7.371
 4276POPC   C1B55039   9.062  14.921   6.243
 4276POPC   C2B55040   8.904  14.912   6.621
 4276POPC   C3B55041   8.973  15.068   7.006
 4276POPC   C4B55042   9.047  14.867   7.382
 4277POPC   NC355043  14.628  41.496   5.461
 4277POPC   PO455044  14.055  41.273   5.513
 4277POPC   GL155045  14.222  41.521   5.858
 4277POPC   GL255046  14.578  41.610   5.960
 4277POPC   C1A55047  14.181  41.505   6.296
 4277POPC   D2A55048  14.435  41.397   6.622
 4277POPC   C3A55049  14.455  41.632   6.931
 4277POPC   C4A55050  14.434  41.581   7.329
 4277POPC   C1B55051  14.720  41.282   6.226
 4277POPC   C2B55052  14.813  41.051   6.628
 4277POPC   C3B55053  14.690  41.186   7.040
 4277POPC   C4B55054  14.459  41.093   7.396
 4278POPC   NC355055  43.202   8.425   5.113
 4278POPC   PO455056  42.610   8.107   5.410
 4278POPC   GL155057  42.864   8.163   5.780
 4278POPC   GL255058  42.981   7.866   5.909
 4278POPC   C1A55059  42.981   8.432   6.154
 4278POPC   D2A55060  43.097   8.588   6.557
 4278POPC   C3A55061  43.277   8.527   6.924
 4278POPC   C4A55062  43.176   8.404   7.337
 4278POPC   C1B55063  43.229   8.007   6.267
 4278POPC   C2B55064  43.344   8.079   6.695
 4278POPC   C3B55065  43.072   8.004   7.050
 4278POPC   C4B55066  43.054   7.828   7.470
 4279POPC   NC355067  34.748  37.600   5.514
 4279POPC   PO455068  34.200  37.510   5.239
 4279POPC   GL155069  34.326  37.737   5.742
 4279POPC   GL255070  34.655  37.876   5.900
 4279POPC   C1A55071  34.392  37.601   6.209
 4279POPC   D2A55072  34.272  37.623   6.604
 4279POPC   C3A55073  34.575  37.428   6.869
 4279POPC   C4A55074  34.422  37.459   7.275
 4279POPC   C1B55075  34.546  38.086   6.240
 4279POPC   C2B55076  34.701  37.893   6.582
 4279POPC   C3B55077  34.626  37.917   6.978
 4279POPC   C4B55078  35.016  38.018   7.118
 4280POPC   NC355079   5.384  40.882   5.525
 4280POPC   PO455080   4.891  40.479   5.651
 4280POPC   GL155081   5.077  40.727   5.898
 4280POPC   GL255082   5.370  40.498   5.876
 4280POPC   C1A55083   4.959  40.846   6.292
 4280POPC   D2A55084   5.168  40.717   6.647
 4280POPC   C3A55085   4.996  40.794   7.033
 4280POPC   C4A55086   5.144  40.965   7.400
 4280POPC   C1B55087   5.129  40.346   6.265
 4280POPC   C2B55088   4.960  40.260   6.691
 4280POPC   C3B55089   5.161  40.313   7.127
 4280POPC   C4B55090   5.403  40.523   7.487
 4281POPC   NC355091  43.188  27.728   5.316
 4281POPC   PO455092  42.613  27.543   5.158
 4281POPC   GL155093  42.816  27.561   5.659
 4281POPC   GL255094  43.115  27.793   5.802
 4281POPC   C1A55095  42.843  27.586   6.164
 4281POPC   D2A55096  43.035  27.929   6.458
 4281POPC   C3A55097  43.181  27.822   6.860
 4281POPC   C4A55098  43.079  27.959   7.307
 4281POPC   C1B55099  43.353  27.657   6.164
 4281POPC   C2B55100  43.251  27.389   6.528
 4281POPC   C3B55101  43.428  27.327   6.949
 4281POPC   C4B55102  43.421  27.601   7.283
 4282POPC   NC355103  39.358  10.967   5.483
 4282POPC   PO455104  38.922  10.461   5.456
 4282POPC   GL155105  39.169  10.574   5.755
 4282POPC   GL255106  38.872  10.718   5.918
 4282POPC   C1A55107  39.367  10.677   6.129
 4282POPC   D2A55108  39.450  10.445   6.509
 4282POPC   C3A55109  39.431  10.632   6.928
 4282POPC   C4A55110  39.458  10.305   7.191
 4282POPC   C1B55111  38.928  10.796   6.357
 4282POPC   C2B55112  38.989  10.563   6.681
 4282POPC   C3B55113  38.904  10.509   7.087
 4282POPC   C4B55114  38.902  10.560   7.543
 4283POPC   NC355115   4.484  40.292   5.549
 4283POPC   PO455116   4.330  39.654   5.586
 4283POPC   GL155117   4.235  39.891   5.953
 4283POPC   GL255118   3.989  40.113   5.782
 4283POPC   C1A55119   4.273  39.956   6.434
 4283POPC   D2A55120   4.475  40.069   6.866
 4283POPC   C3A55121   4.420  39.771   7.225
 4283POPC   C4A55122   4.101  39.653   7.534
 4283POPC   C1B55123   4.131  40.392   6.118
 4283POPC   C2B55124   3.976  40.472   6.505
 4283POPC   C3B55125   3.979  40.212   6.825
 4283POPC   C4B55126   4.096  40.159   7.228
 4284POPC   NC355127  11.403  42.582   5.594
 4284POPC   PO455128  11.209  43.169   5.435
 4284POPC   GL155129  11.315  43.093   5.829
 4284POPC   GL255130  11.672  42.954   5.858
 4284POPC   C1A55131  11.237  43.287   6.230
 4284POPC   D2A55132  11.511  43.246   6.610
 4284POPC   C3A55133  11.282  43.239   7.005
 4284POPC   C4A55134  10.954  42.949   7.159
 4284POPC   C1B55135  11.414  42.803   6.236
 4284POPC   C2B55136  11.228  42.787   6.651
 4284POPC   C3B55137  11.431  42.743   7.047
 4284POPC   C4B55138  11.571  42.992   7.368
 4285POPC   NC355139   2.109  20.068   5.523
 4285POPC   PO455140   1.796  19.455   5.466
 4285POPC   GL155141   2.084  19.602   5.857
 4285POPC   GL255142   2.140  19.964   6.014
 4285POPC   C1A55143   2.028  19.583   6.342
 4285POPC   D2A55144   1.901  19.778   6.738
 4285POPC   C3A55145   1.781  19.551   7.103
 4285POPC   C4A55146   2.042  19.662   7.449
 4285POPC   C1B55147   1.779  20.036   6.303
 4285POPC   C2B55148   1.635  20.220   6.719
 4285POPC   C3B55149   1.755  20.086   7.182
 4285POPC   C4B55150   1.703  20.002   7.652
 4286POPC   NC355151  27.813  10.006   5.388
 4286POPC   PO455152  27.264   9.509   5.492
 4286POPC   GL155153  27.565   9.776   5.772
 4286POPC   GL255154  27.559  10.139   5.823
 4286POPC   C1A55155  27.767   9.720   6.175
 4286POPC   D2A55156  27.956   9.571   6.586
 4286POPC   C3A55157  27.791   9.684   6.999
 4286POPC   C4A55158  27.871   9.722   7.427
 4286POPC   C1B55159  27.356  10.016   6.208
 4286POPC   C2B55160  27.481   9.922   6.642
 4286POPC   C3B55161  27.428  10.087   7.074
 4286POPC   C4B55162  27.519  10.089   7.509
 4287POPC   NC355163  11.909  37.331   5.444
 4287POPC   PO455164  12.123  36.689   5.593
 4287POPC   GL155165  12.044  37.042   5.901
 4287POPC   GL255166  11.679  37.194   5.870
 4287POPC   C1A55167  12.067  36.974   6.400
 4287POPC   D2A55168  11.809  36.740   6.740
 4287POPC   C3A55169  12.032  36.671   7.142
 4287POPC   C4A55170  12.433  36.779   7.031
 4287POPC   C1B55171  11.858  37.398   6.229
 4287POPC   C2B55172  12.008  37.496   6.634
 4287POPC   C3B55173  12.076  37.159   6.914
 4287POPC   C4B55174  11.685  37.065   7.132
 4288POPC   NC355175  18.020  13.654   5.526
 4288POPC   PO455176  18.660  13.507   5.383
 4288POPC   GL155177  18.486  13.572   5.833
 4288POPC   GL255178  18.271  13.874   5.892
 4288POPC   C1A55179  18.395  13.392   6.272
 4288POPC   D2A55180  18.112  13.411   6.663
 4288POPC   C3A55181  18.328  13.482   7.073
 4288POPC   C4A55182  18.241  13.706   7.446
 4288POPC   C1B55183  18.107  13.806   6.288
 4288POPC   C2B55184  17.841  13.862   6.607
 4288POPC   C3B55185  18.021  13.902   7.007
 4288POPC   C4B55186  17.825  13.986   7.395
 4289POPC   NC355187  25.580   9.204   5.304
 4289POPC   PO455188  25.408   8.590   5.526
 4289POPC   GL155189  25.575   8.913   5.733
 4289POPC   GL255190  25.294   9.038   5.881
 4289POPC   C1A55191  25.732   8.879   6.132
 4289POPC   D2A55192  25.772   9.064   6.533
 4289POPC   C3A55193  25.556   8.851   6.813
 4289POPC   C4A55194  25.315   8.865   7.162
 4289POPC   C1B55195  25.277   8.928   6.354
 4289POPC   C2B55196  25.055   9.028   6.762
 4289POPC   C3B55197  24.907   9.209   7.170
 4289POPC   C4B55198  24.525   9.169   7.475
 4290POPC   NC355199  36.891  35.464   5.304
 4290POPC   PO455200  36.899  34.791   5.512
 4290POPC   GL155201  36.780  35.215   5.770
 4290POPC   GL255202  36.984  35.570   5.807
 4290POPC   C1A55203  36.975  35.273   6.206
 4290POPC   D2A55204  37.371  35.339   6.445
 4290POPC   C3A55205  37.321  35.085   6.792
 4290POPC   C4A55206  37.023  35.222   7.097
 4290POPC   C1B55207  36.706  35.726   6.188
 4290POPC   C2B55208  36.521  35.691   6.626
 4290POPC   C3B55209  36.610  35.563   7.061
 4290POPC   C4B55210  36.561  35.206   7.326
 4291POPC   NC355211   6.282  16.470   5.697
 4291POPC   PO455212   5.898  17.069   5.428
 4291POPC   GL155213   5.863  16.856   5.806
 4291POPC   GL255214   5.676  16.556   5.736
 4291POPC   C1A55215   6.010  16.797   6.241
 4291POPC   D2A55216   5.955  16.557   6.626
 4291POPC   C3A55217   5.959  16.818   6.997
 4291POPC   C4A55218   6.239  16.834   7.327
 4291POPC   C1B55219   5.579  16.505   6.186
 4291POPC   C2B55220   5.473  16.352   6.597
 4291POPC   C3B55221   5.618  16.410   6.992
 4291POPC   C4B55222   5.413  16.363   7.340
 4292POPC   NC355223  34.129  39.300   5.302
 4292POPC   PO455224  34.083  39.862   5.636
 4292POPC   GL155225  33.969  39.421   5.795
 4292POPC   GL255226  33.663  39.169   5.828
 4292POPC   C1A55227  33.919  39.359   6.248
 4292POPC   D2A55228  34.185  39.439   6.605
 4292POPC   C3A55229  34.029  39.380   6.993
 4292POPC   C4A55230  33.659  39.475   7.156
 4292POPC   C1B55231  33.639  38.938   6.258
 4292POPC   C2B55232  33.666  39.074   6.715
 4292POPC   C3B55233  33.741  38.956   7.162
 4292POPC   C4B55234  33.569  38.727   7.540
 4293POPC   NC355235  27.846  42.851   5.415
 4293POPC   PO455236  27.341  43.245   5.554
 4293POPC   GL155237  27.538  43.166   5.924
 4293POPC   GL255238  27.578  42.839   5.878
 4293POPC   C1A55239  27.510  43.171   6.386
 4293POPC   D2A55240  27.760  43.277   6.749
 4293POPC   C3A55241  27.507  43.341   7.110
 4293POPC   C4A55242  27.048  43.225   7.139
 4293POPC   C1B55243  27.605  42.667   6.295
 4293POPC   C2B55244  27.543  42.779   6.723
 4293POPC   C3B55245  27.415  42.833   7.131
 4293POPC   C4B55246  27.581  42.610   7.527
 4294POPC   NC355247   2.399  17.605   5.484
 4294POPC   PO455248   1.762  17.880   5.474
 4294POPC   GL155249   1.969  17.702   5.835
 4294POPC   GL255250   2.143  17.402   5.895
 4294POPC   C1A55251   1.777  17.631   6.221
 4294POPC   D2A55252   1.852  17.847   6.589
 4294POPC   C3A55253   1.771  17.693   6.989
 4294POPC   C4A55254   2.069  17.502   7.206
 4294POPC   C1B55255   2.050  17.208   6.289
 4294POPC   C2B55256   1.919  17.297   6.700
 4294POPC   C3B55257   1.723  17.146   7.095
 4294POPC   C4B55258   1.983  17.091   7.490
 4295POPC   NC355259   1.448  27.380   5.305
 4295POPC   PO455260   1.223  28.029   5.315
 4295POPC   GL155261   1.205  27.702   5.660
 4295POPC   GL255262   0.960  27.448   5.640
 4295POPC   C1A55263   1.375  27.538   6.092
 4295POPC   D2A55264   1.600  27.444   6.527
 4295POPC   C3A55265   1.377  27.586   6.936
 4295POPC   C4A55266   0.974  27.844   7.042
 4295POPC   C1B55267   0.960  27.175   6.000
 4295POPC   C2B55268   1.037  27.199   6.438
 4295POPC   C3B55269   0.920  27.146   6.859
 4295POPC   C4B55270   0.940  27.371   7.203
 4296POPC   NC355271  32.535  40.708   5.425
 4296POPC   PO455272  32.142  41.139   5.299
 4296POPC   GL155273  32.113  41.163   5.747
 4296POPC   GL255274  31.766  41.091   5.722
 4296POPC   C1A55275  32.290  41.049   6.173
 4296POPC   D2A55276  32.198  40.816   6.557
 4296POPC   C3A55277  32.425  40.754   6.943
 4296POPC   C4A55278  32.545  40.365   7.159
 4296POPC   C1B55279  31.794  41.261   6.146
 4296POPC   C2B55280  32.032  41.323   6.536
 4296POPC   C3B55281  31.998  41.107   6.924
 4296POPC   C4B55282  32.202  41.063   7.318
 4297POPC   NC355283  10.774  10.423   5.318
 4297POPC   PO455284  10.209  10.762   5.286
 4297POPC   GL155285  10.355  10.576   5.657
 4297POPC   GL255286  10.673  10.584   5.784
 4297POPC   C1A55287  10.210  10.515   6.084
 4297POPC   D2A55288  10.392  10.545   6.515
 4297POPC   C3A55289  10.260  10.563   6.930
 4297POPC   C4A55290  10.482  10.280   7.223
 4297POPC   C1B55291  10.657  10.794   6.165
 4297POPC   C2B55292  10.904  10.767   6.540
 4297POPC   C3B55293  10.771  10.634   6.966
 4297POPC   C4B55294  10.514  10.851   7.297
 4298POPC   NC355295  41.447  14.226   5.315
 4298POPC   PO455296  41.477  13.559   5.299
 4298POPC   GL155297  41.478  13.539   5.800
 4298POPC   GL255298  41.699  13.741   5.999
 4298POPC   C1A55299  41.247  13.624   6.202
 4298POPC   D2A55300  41.492  13.745   6.552
 4298POPC   C3A55301  41.400  13.691   6.938
 4298POPC   C4A55302  41.624  13.632   7.315
 4298POPC   C1B55303  41.779  13.389   6.222
 4298POPC   C2B55304  41.847  13.360   6.638
 4298POPC   C3B55305  42.110  13.310   6.972
 4298POPC   C4B55306  42.098  13.465   7.368
 4299POPC   NC355307   2.133  32.674   5.443
 4299POPC   PO455308   1.890  32.044   5.497
 4299POPC   GL155309   2.122  32.294   5.779
 4299POPC   GL255310   2.469  32.196   5.712
 4299POPC   C1A55311   1.931  32.547   6.114
 4299POPC   D2A55312   1.643  32.533   6.474
 4299POPC   C3A55313   1.800  32.354   6.840
 4299POPC   C4A55314   1.925  32.479   7.254
 4299POPC   C1B55315   2.489  32.248   6.159
 4299POPC   C2B55316   2.227  32.389   6.496
 4299POPC   C3B55317   2.288  32.531   6.884
 4299POPC   C4B55318   2.453  32.479   7.256
 4300POPC   NC355319  34.292   8.162   5.529
 4300POPC   PO455320  33.565   8.129   5.522
 4300POPC   GL155321  33.879   8.206   5.824
 4300POPC   GL255322  34.004   7.833   5.840
 4300POPC   C1A55323  33.873   8.476   6.198
 4300POPC   D2A55324  33.773   8.274   6.579
 4300POPC   C3A55325  33.771   8.445   6.965
 4300POPC   C4A55326  34.058   8.480   7.262
 4300POPC   C1B55327  33.664   7.923   6.185
 4300POPC   C2B55328  33.464   7.873   6.595
 4300POPC   C3B55329  33.607   7.949   7.009
 4300POPC   C4B55330  33.776   8.093   7.422
 4301POPC   NC355331  14.284  20.303   5.640
 4301POPC   PO455332  14.221  20.975   5.506
 4301POPC   GL155333  14.438  20.866   5.932
 4301POPC   GL255334  14.410  20.524   6.082
 4301POPC   C1A55335  14.542  20.881   6.410
 4301POPC   D2A55336  14.259  20.743   6.755
 4301POPC   C3A55337  14.338  20.918   7.156
 4301POPC   C4A55338  14.188  21.067   7.550
 4301POPC   C1B55339  14.160  20.353   6.419
 4301POPC   C2B55340  14.130  20.262   6.866
 4301POPC   C3B55341  14.489  20.401   7.084
 4301POPC   C4B55342  14.729  20.162   7.378
 4302POPC   NC355343  33.939   8.929   5.296
 4302POPC   PO455344  33.335   9.092   5.418
 4302POPC   GL155345  33.579   8.993   5.754
 4302POPC   GL255346  33.577   8.636   5.730
 4302POPC   C1A55347  33.889   9.008   6.096
 4302POPC   D2A55348  33.926   9.206   6.509
 4302POPC   C3A55349  33.860   8.951   6.865
 4302POPC   C4A55350  34.031   9.069   7.230
 4302POPC   C1B55351  33.376   8.656   6.141
 4302POPC   C2B55352  33.479   8.708   6.575
 4302POPC   C3B55353  33.367   8.786   7.012
 4302POPC   C4B55354  33.626   8.759   7.374
 4303POPC   NC355355  22.443   2.510   5.512
 4303POPC   PO455356  22.332   3.243   5.420
 4303POPC   GL155357  22.376   2.971   5.732
 4303POPC   GL255358  22.025   2.859   5.728
 4303POPC   C1A55359  22.344   2.908   6.168
 4303POPC   D2A55360  22.360   2.567   6.488
 4303POPC   C3A55361  22.304   2.758   6.878
 4303POPC   C4A55362  22.153   2.654   7.255
 4303POPC   C1B55363  21.849   2.809   6.144
 4303POPC   C2B55364  21.878   2.740   6.591
 4303POPC   C3B55365  21.753   2.929   6.987
 4303POPC   C4B55366  21.740   2.889   7.430
 4304POPC   NC355367  42.626  34.601   5.598
 4304POPC   PO455368  43.291  34.637   5.338
 4304POPC   GL155369  43.229  34.359   5.716
 4304POPC   GL255370  43.039  34.612   5.868
 4304POPC   C1A55371  43.238  34.348   6.217
 4304POPC   D2A55372  43.088  34.657   6.520
 4304POPC   C3A55373  43.149  34.507   6.929
 4304POPC   C4A55374  43.254  34.665   7.301
 4304POPC   C1B55375  42.810  34.913   6.146
 4304POPC   C2B55376  42.581  34.828   6.514
 4304POPC   C3B55377  42.772  34.864   6.904
 4304POPC   C4B55378  42.807  34.903   7.309
 4305POPC   NC355379  40.741  12.748   5.474
 4305POPC   PO455380  41.106  13.244   5.647
 4305POPC   GL155381  40.976  12.856   5.925
 4305POPC   GL255382  40.654  12.626   5.953
 4305POPC   C1A55383  41.007  12.747   6.360
 4305POPC   D2A55384  40.879  13.001   6.714
 4305POPC   C3A55385  41.147  12.852   7.058
 4305POPC   C4A55386  41.255  12.416   7.190
 4305POPC   C1B55387  40.532  12.883   6.273
 4305POPC   C2B55388  40.492  12.677   6.648
 4305POPC   C3B55389  40.681  12.613   7.054
 4305POPC   C4B55390  40.509  12.687   7.461
 4306POPC   NC355391   6.452  28.944   5.549
 4306POPC   PO455392   6.451  29.597   5.470
 4306POPC   GL155393   6.516  29.350   5.893
 4306POPC   GL255394   6.489  29.005   6.047
 4306POPC   C1A55395   6.754  29.362   6.307
 4306POPC   D2A55396   6.927  29.278   6.751
 4306POPC   C3A55397   6.662  29.132   7.090
 4306POPC   C4A55398   6.236  29.121   7.190
 4306POPC   C1B55399   6.822  28.841   6.332
 4306POPC   C2B55400   7.081  28.757   6.693
 4306POPC   C3B55401   7.002  28.751   7.134
 4306POPC   C4B55402   7.005  28.654   7.582
 4307POPC   NC355403  10.884  24.287   5.385
 4307POPC   PO455404  10.222  24.345   5.188
 4307POPC   GL155405  10.468  24.472   5.665
 4307POPC   GL255406  10.468  24.173   5.939
 4307POPC   C1A55407  10.472  24.609   6.153
 4307POPC   D2A55408  10.196  24.508   6.553
 4307POPC   C3A55409  10.358  24.505   6.994
 4307POPC   C4A55410  10.714  24.675   7.225
 4307POPC   C1B55411  10.599  24.159   6.372
 4307POPC   C2B55412  10.753  24.348   6.742
 4307POPC   C3B55413  10.803  24.148   7.148
 4307POPC   C4B55414  10.797  23.913   7.543
 4308POPC   NC355415  26.478   2.967   5.265
 4308POPC   PO455416  27.092   2.685   5.370
 4308POPC   GL155417  26.936   2.830   5.741
 4308POPC   GL255418  26.602   2.805   5.745
 4308POPC   C1A55419  26.838   3.040   6.129
 4308POPC   D2A55420  26.528   3.043   6.474
 4308POPC   C3A55421  26.704   3.030   6.888
 4308POPC   C4A55422  26.553   2.906   7.295
 4308POPC   C1B55423  26.639   2.575   6.179
 4308POPC   C2B55424  26.761   2.588   6.616
 4308POPC   C3B55425  26.704   2.467   7.043
 4308POPC   C4B55426  26.482   2.414   7.451
 4309POPC   NC355427   6.209  44.385   5.557
 4309POPC   PO455428   6.875  44.296   5.363
 4309POPC   GL155429   6.710  44.488   5.740
 4309POPC   GL255430   6.532  44.276   5.900
 4309POPC   C1A55431   6.784  44.671   6.162
 4309POPC   D2A55432   6.590  44.761   6.563
 4309POPC   C3A55433   6.725  44.693   7.003
 4309POPC   C4A55434   6.435  44.709   7.387
 4309POPC   C1B55435   6.293  44.475   6.212
 4309POPC   C2B55436   6.213  44.371   6.613
 4309POPC   C3B55437   6.372  44.321   6.997
 4309POPC   C4B55438   6.198  44.231   7.345
 4310POPC   NC355439  24.278  19.476   5.498
 4310POPC   PO455440  24.761  20.020   5.351
 4310POPC   GL155441  24.658  19.872   5.818
 4310POPC   GL255442  24.548  19.513   5.916
 4310POPC   C1A55443  24.502  19.839   6.276
 4310POPC   D2A55444  24.467  19.633   6.658
 4310POPC   C3A55445  24.269  19.854   6.987
 4310POPC   C4A55446  24.540  19.913   7.311
 4310POPC   C1B55447  24.187  19.434   6.257
 4310POPC   C2B55448  24.002  19.463   6.732
 4310POPC   C3B55449  24.248  19.363   7.124
 4310POPC   C4B55450  24.627  19.426   7.430
 4311POPC   NC355451  38.163   2.218   5.292
 4311POPC   PO455452  38.535   1.708   5.438
 4311POPC   GL155453  38.489   2.095   5.690
 4311POPC   GL255454  38.817   2.264   5.722
 4311POPC   C1A55455  38.348   2.141   6.130
 4311POPC   D2A55456  38.519   1.843   6.435
 4311POPC   C3A55457  38.409   1.925   6.854
 4311POPC   C4A55458  38.258   1.665   7.181
 4311POPC   C1B55459  38.835   2.267   6.186
 4311POPC   C2B55460  38.657   2.312   6.611
 4311POPC   C3B55461  38.750   2.241   7.085
 4311POPC   C4B55462  38.608   2.214   7.561
 4312POPC   NC355463  35.668  20.432   5.376
 4312POPC   PO455464  35.041  20.667   5.376
 4312POPC   GL155465  35.228  20.474   5.776
 4312POPC   GL255466  35.380  20.708   6.029
 4312POPC   C1A55467  35.180  20.310   6.236
 4312POPC   D2A55468  35.393  20.592   6.556
 4312POPC   C3A55469  35.232  20.751   6.917
 4312POPC   C4A55470  35.056  20.391   7.086
 4312POPC   C1B55471  35.718  20.889   6.282
 4312POPC   C2B55472  35.672  21.038   6.660
 4312POPC   C3B55473  35.745  20.851   7.009
 4312POPC   C4B55474  35.546  20.667   7.328
 4313POPC   NC355475   2.624  18.595   5.365
 4313POPC   PO455476   3.098  18.267   5.107
 4313POPC   GL155477   3.021  18.345   5.631
 4313POPC   GL255478   2.711  18.440   5.820
 4313POPC   C1A55479   2.990  18.096   6.070
 4313POPC   D2A55480   2.732  17.878   6.413
 4313POPC   C3A55481   2.691  18.012   6.819
 4313POPC   C4A55482   2.614  18.145   7.231
 4313POPC   C1B55483   2.535  18.306   6.168
 4313POPC   C2B55484   2.774  18.405   6.493
 4313POPC   C3B55485   2.738  18.508   6.885
 4313POPC   C4B55486   3.001  18.537   7.182
 4314POPC   NC355487  42.668  10.800   5.529
 4314POPC   PO455488  42.494  11.428   5.293
 4314POPC   GL155489  42.382  11.303   5.732
 4314POPC   GL255490  42.436  10.984   5.933
 4314POPC   C1A55491  42.349  11.481   6.156
 4314POPC   D2A55492  42.485  11.609   6.575
 4314POPC   C3A55493  42.447  11.370   6.937
 4314POPC   C4A55494  42.110  11.327   7.198
 4314POPC   C1B55495  42.466  11.027   6.386
 4314POPC   C2B55496  42.098  11.051   6.661
 4314POPC   C3B55497  41.901  10.889   7.031
 4314POPC   C4B55498  42.240  10.790   7.269
 4315POPC   NC355499  14.038  29.407   5.642
 4315POPC   PO455500  14.456  28.866   5.650
 4315POPC   GL155501  14.391  29.155   5.937
 4315POPC   GL255502  14.506  29.493   5.859
 4315POPC   C1A55503  14.515  29.161   6.355
 4315POPC   D2A55504  14.604  29.233   6.773
 4315POPC   C3A55505  14.358  29.064   7.126
 4315POPC   C4A55506  14.571  28.974   7.552
 4315POPC   C1B55507  14.214  29.556   6.235
 4315POPC   C2B55508  14.272  29.618   6.666
 4315POPC   C3B55509  14.423  29.601   7.084
 4315POPC   C4B55510  14.350  29.412   7.485
 4316POPC   NC355511   9.323  25.082   5.474
 4316POPC   PO455512   8.929  25.627   5.473
 4316POPC   GL155513   9.040  25.373   5.777
 4316POPC   GL255514   8.854  25.068   5.705
 4316POPC   C1A55515   9.232  25.474   6.149
 4316POPC   D2A55516   8.991  25.545   6.511
 4316POPC   C3A55517   9.087  25.409   6.914
 4316POPC   C4A55518   8.993  25.548   7.342
 4316POPC   C1B55519   8.959  25.005   6.136
 4316POPC   C2B55520   8.840  25.034   6.541
 4316POPC   C3B55521   8.913  24.859   6.894
 4316POPC   C4B55522   9.024  25.053   7.257
 4317POPC   NC355523   2.560  16.901   5.415
 4317POPC   PO455524   3.232  16.644   5.342
 4317POPC   GL155525   2.896  16.625   5.696
 4317POPC   GL255526   2.816  16.964   5.853
 4317POPC   C1A55527   2.746  16.515   6.136
 4317POPC   D2A55528   2.801  16.789   6.533
 4317POPC   C3A55529   2.671  16.654   6.969
 4317POPC   C4A55530   2.825  16.467   7.358
 4317POPC   C1B55531   2.575  17.244   6.123
 4317POPC   C2B55532   2.486  17.200   6.563
 4317POPC   C3B55533   2.670  17.166   6.966
 4317POPC   C4B55534   2.479  17.220   7.396
 4318POPC   NC355535   4.001  17.378   5.335
 4318POPC   PO455536   3.370  17.637   5.280
 4318POPC   GL155537   3.355  17.431   5.689
 4318POPC   GL255538   3.713  17.494   5.764
 4318POPC   C1A55539   3.423  17.283   6.136
 4318POPC   D2A55540   3.490  17.436   6.568
 4318POPC   C3A55541   3.375  17.258   6.972
 4318POPC   C4A55542   3.410  17.627   7.256
 4318POPC   C1B55543   3.953  17.219   6.064
 4318POPC   C2B55544   3.893  17.108   6.524
 4318POPC   C3B55545   3.986  17.175   6.992
 4318POPC   C4B55546   3.728  17.255   7.358
 4319POPC   NC355547  17.183  16.122   5.414
 4319POPC   PO455548  17.664  15.603   5.432
 4319POPC   GL155549  17.418  15.784   5.760
 4319POPC   GL255550  17.674  16.023   5.889
 4319POPC   C1A55551  17.398  15.754   6.209
 4319POPC   D2A55552  17.621  15.918   6.591
 4319POPC   C3A55553  17.390  15.776   6.946
 4319POPC   C4A55554  17.270  15.868   7.380
 4319POPC   C1B55555  17.950  16.185   6.225
 4319POPC   C2B55556  17.862  16.420   6.623
 4319POPC   C3B55557  17.882  16.399   7.078
 4319POPC   C4B55558  17.797  15.979   7.196
 4320POPC   NC355559  21.633   0.934   5.494
 4320POPC   PO455560  21.601   0.286   5.414
 4320POPC   GL155561  21.424   0.551   5.797
 4320POPC   GL255562  21.077   0.701   5.794
 4320POPC   C1A55563  21.344   0.616   6.275
 4320POPC   D2A55564  21.328   0.776   6.737
 4320POPC   C3A55565  21.555   0.544   7.073
 4320POPC   C4A55566  21.576   0.145   7.194
 4320POPC   C1B55567  21.015   0.281   6.063
 4320POPC   C2B55568  21.156   0.150   6.507
 4320POPC   C3B55569  21.093   0.264   6.963
 4320POPC   C4B55570  21.053   0.075   7.380
 4321POPC   NC355571  26.477  40.597   5.616
 4321POPC   PO455572  25.798  40.794   5.686
 4321POPC   GL155573  26.149  40.795   5.962
 4321POPC   GL255574  26.122  40.433   5.942
 4321POPC   C1A55575  26.226  40.966   6.378
 4321POPC   D2A55576  25.866  41.087   6.684
 4321POPC   C3A55577  25.946  40.920   7.098
 4321POPC   C4A55578  26.350  40.830   7.270
 4321POPC   C1B55579  26.271  40.464   6.357
 4321POPC   C2B55580  26.230  40.638   6.770
 4321POPC   C3B55581  26.170  40.393   7.120
 4321POPC   C4B55582  25.907  40.507   7.478
 4322POPC   NC355583   4.788  22.288   5.573
 4322POPC   PO455584   4.339  21.889   5.220
 4322POPC   GL155585   4.337  22.057   5.672
 4322POPC   GL255586   4.004  22.110   5.779
 4322POPC   C1A55587   4.515  22.071   6.136
 4322POPC   D2A55588   4.374  22.093   6.589
 4322POPC   C3A55589   4.456  21.790   6.935
 4322POPC   C4A55590   4.442  21.816   7.382
 4322POPC   C1B55591   4.032  22.288   6.207
 4322POPC   C2B55592   3.959  22.439   6.656
 4322POPC   C3B55593   4.081  22.150   7.025
 4322POPC   C4B55594   4.298  22.278   7.443
 4323POPC   NC355595  40.339  12.234   5.408
 4323POPC   PO455596  39.721  12.148   5.441
 4323POPC   GL155597  39.973  12.029   5.815
 4323POPC   GL255598  40.197  12.303   5.929
 4323POPC   C1A55599  39.941  11.908   6.264
 4323POPC   D2A55600  40.007  12.170   6.645
 4323POPC   C3A55601  39.980  11.987   7.068
 4323POPC   C4A55602  39.772  11.604   7.251
 4323POPC   C1B55603  40.061  12.588   6.260
 4323POPC   C2B55604  39.995  12.721   6.683
 4323POPC   C3B55605  40.152  12.510   7.034
 4323POPC   C4B55606  40.024  12.450   7.436
 4324POPC   NC355607   5.768  18.146   5.399
 4324POPC   PO455608   5.649  18.748   5.477
 4324POPC   GL155609   5.762  18.508   5.835
 4324POPC   GL255610   6.098  18.416   5.714
 4324POPC   C1A55611   5.795  18.549   6.300
 4324POPC   D2A55612   5.583  18.370   6.676
 4324POPC   C3A55613   5.760  18.355   7.096
 4324POPC   C4A55614   5.753  17.951   7.304
 4324POPC   C1B55615   6.165  18.200   6.094
 4324POPC   C2B55616   6.251  18.335   6.496
 4324POPC   C3B55617   6.216  18.208   6.890
 4324POPC   C4B55618   6.221  18.221   7.301
 4325POPC   NC355619  10.324  16.612   5.357
 4325POPC   PO455620  10.884  16.909   5.281
 4325POPC   GL155621  10.637  16.818   5.713
 4325POPC   GL255622  10.550  16.440   5.780
 4325POPC   C1A55623  10.635  16.903   6.188
 4325POPC   D2A55624  10.376  16.780   6.567
 4325POPC   C3A55625  10.295  16.988   6.947
 4325POPC   C4A55626  10.197  16.793   7.371
 4325POPC   C1B55627  10.759  16.410   6.171
 4325POPC   C2B55628  10.866  16.602   6.573
 4325POPC   C3B55629  10.711  16.656   6.982
 4325POPC   C4B55630  10.571  16.462   7.343
 4326POPC   NC355631  21.492   6.435   5.463
 4326POPC   PO455632  21.640   7.102   5.569
 4326POPC   GL155633  21.534   6.833   5.899
 4326POPC   GL255634  21.266   6.648   5.937
 4326POPC   C1A55635  21.696   6.740   6.323
 4326POPC   D2A55636  21.694   6.602   6.755
 4326POPC   C3A55637  21.336   6.721   6.982
 4326POPC   C4A55638  21.571   6.864   7.320
 4326POPC   C1B55639  21.547   6.311   6.084
 4326POPC   C2B55640  21.643   6.190   6.469
 4326POPC   C3B55641  21.645   6.117   6.910
 4326POPC   C4B55642  21.584   6.375   7.274
 4327POPC   NC355643  12.962  29.702   5.354
 4327POPC   PO455644  12.497  30.112   5.470
 4327POPC   GL155645  12.709  29.834   5.783
 4327POPC   GL255646  13.024  29.997   5.826
 4327POPC   C1A55647  12.682  29.882   6.231
 4327POPC   D2A55648  12.788  30.138   6.603
 4327POPC   C3A55649  12.664  29.970   7.017
 4327POPC   C4A55650  12.592  29.874   7.460
 4327POPC   C1B55651  13.181  29.630   6.113
 4327POPC   C2B55652  13.351  29.383   6.537
 4327POPC   C3B55653  13.390  29.538   6.981
 4327POPC   C4B55654  13.148  29.899   7.176
 4328POPC   NC355655  35.570  28.655   5.062
 4328POPC   PO455656  35.993  28.250   5.438
 4328POPC   GL155657  36.081  28.452   5.864
 4328POPC   GL255658  36.346  28.722   5.959
 4328POPC   C1A55659  36.057  28.373   6.324
 4328POPC   D2A55660  36.131  28.135   6.713
 4328POPC   C3A55661  35.924  28.398   7.036
 4328POPC   C4A55662  35.597  28.687   7.071
 4328POPC   C1B55663  36.524  28.611   6.408
 4328POPC   C2B55664  36.392  28.540   6.859
 4328POPC   C3B55665  36.400  28.160   7.173
 4328POPC   C4B55666  36.548  28.192   7.631
 4329POPC   NC355667  43.161  38.723   5.507
 4329POPC   PO455668  43.608  38.195   5.564
 4329POPC   GL155669  43.235  38.400   5.898
 4329POPC   GL255670  43.100  38.795   5.978
 4329POPC   C1A55671  42.949  38.414   6.269
 4329POPC   D2A55672  42.929  38.294   6.683
 4329POPC   C3A55673  43.291  38.389   6.887
 4329POPC   C4A55674  43.410  38.437   7.305
 4329POPC   C1B55675  43.330  38.788   6.304
 4329POPC   C2B55676  43.072  38.820   6.644
 4329POPC   C3B55677  43.103  38.848   7.057
 4329POPC   C4B55678  42.977  38.732   7.441
 4330POPC   NC355679  42.715  42.236   5.254
 4330POPC   PO455680  43.205  42.038   5.728
 4330POPC   GL155681  43.128  42.407   5.942
 4330POPC   GL255682  42.816  42.460   5.763
 4330POPC   C1A55683  43.312  42.511   6.358
 4330POPC   D2A55684  43.684  42.448   6.650
 4330POPC   C3A55685  43.545  42.403   7.103
 4330POPC   C4A55686  43.228  42.354   7.457
 4330POPC   C1B55687  42.706  42.458   6.218
 4330POPC   C2B55688  42.807  42.235   6.632
 4330POPC   C3B55689  42.880  42.396   7.061
 4330POPC   C4B55690  42.701  42.414   7.491
 4331POPC   NC355691  44.429  39.757   5.338
 4331POPC   PO455692  44.919  40.186   5.045
 4331POPC   GL155693  44.798  40.060   5.594
 4331POPC   GL255694  44.513  39.927   5.796
 4331POPC   C1A55695  44.858  40.140   6.118
 4331POPC   D2A55696   0.089  40.105   6.569
 4331POPC   C3A55697  44.852  40.133   6.982
 4331POPC   C4A55698  44.611  40.385   7.283
 4331POPC   C1B55699  44.580  39.725   6.178
 4331POPC   C2B55700  44.702  39.782   6.579
 4331POPC   C3B55701  44.586  39.696   6.975
 4331POPC   C4B55702  44.404  39.891   7.315
 4332POPC   NC355703  17.270  12.011   5.369
 4332POPC   PO455704  16.605  12.147   5.390
 4332POPC   GL155705  16.882  12.106   5.751
 4332POPC   GL255706  16.909  11.766   5.883
 4332POPC   C1A55707  16.786  12.364   6.124
 4332POPC   D2A55708  16.754  12.345   6.568
 4332POPC   C3A55709  16.639  11.988   6.822
 4332POPC   C4A55710  16.723  12.129   7.245
 4332POPC   C1B55711  16.836  11.870   6.316
 4332POPC   C2B55712  17.088  11.784   6.698
 4332POPC   C3B55713  16.941  11.697   7.137
 4332POPC   C4B55714  17.137  11.668   7.552
 4333POPC   NC355715  33.454   9.511   5.557
 4333POPC   PO455716  34.107   9.380   5.327
 4333POPC   GL155717  33.969   9.555   5.728
 4333POPC   GL255718  34.108   9.885   5.840
 4333POPC   C1A55719  33.818   9.539   6.154
 4333POPC   D2A55720  34.031   9.714   6.537
 4333POPC   C3A55721  33.925   9.561   6.955
 4333POPC   C4A55722  33.601   9.776   7.208
 4333POPC   C1B55723  33.792  10.032   6.196
 4333POPC   C2B55724  33.624  10.203   6.555
 4333POPC   C3B55725  33.836  10.084   6.874
 4333POPC   C4B55726  34.081  10.009   7.221
 4334POPC   NC355727  39.719  20.407   5.399
 4334POPC   PO455728  40.303  20.565   5.065
 4334POPC   GL155729  40.237  20.473   5.563
 4334POPC   GL255730  40.023  20.725   5.723
 4334POPC   C1A55731  40.222  20.422   6.072
 4334POPC   D2A55732  39.885  20.492   6.442
 4334POPC   C3A55733  39.978  20.473   6.906
 4334POPC   C4A55734  40.187  20.806   7.160
 4334POPC   C1B55735  40.028  20.909   6.155
 4334POPC   C2B55736  39.767  21.035   6.518
 4334POPC   C3B55737  39.658  20.876   6.904
 4334POPC   C4B55738  39.697  20.939   7.315
 4335POPC   NC355739  42.879  25.015   5.406
 4335POPC   PO455740  43.371  25.455   5.134
 4335POPC   GL155741  43.304  25.332   5.589
 4335POPC   GL255742  43.609  25.408   5.767
 4335POPC   C1A55743  43.146  25.274   6.061
 4335POPC   D2A55744  42.893  25.230   6.477
 4335POPC   C3A55745  43.027  25.167   6.939
 4335POPC   C4A55746  42.890  25.370   7.345
 4335POPC   C1B55747  43.645  25.229   6.190
 4335POPC   C2B55748  43.441  25.212   6.595
 4335POPC   C3B55749  43.521  25.047   7.004
 4335POPC   C4B55750  43.436  25.289   7.384
 4336POPC   NC355751  34.797  17.000   5.111
 4336POPC   PO455752  34.453  16.421   5.141
 4336POPC   GL155753  34.473  16.781   5.521
 4336POPC   GL255754  34.812  16.846   5.645
 4336POPC   C1A55755  34.370  16.785   6.029
 4336POPC   D2A55756  34.450  16.896   6.517
 4336POPC   C3A55757  34.378  16.738   6.980
 4336POPC   C4A55758  34.355  17.047   7.338
 4336POPC   C1B55759  34.822  16.982   6.103
 4336POPC   C2B55760  34.916  16.726   6.441
 4336POPC   C3B55761  34.913  16.744   6.909
 4336POPC   C4B55762  34.941  16.356   7.146
 4337POPC   NC355763  29.525  15.731   5.535
 4337POPC   PO455764  28.950  16.035   5.331
 4337POPC   GL155765  29.092  16.051   5.780
 4337POPC   GL255766  29.459  16.181   5.810
 4337POPC   C1A55767  28.866  15.974   6.213
 4337POPC   D2A55768  28.702  15.862   6.660
 4337POPC   C3A55769  29.045  15.641   6.906
 4337POPC   C4A55770  29.484  15.681   7.059
 4337POPC   C1B55771  29.314  16.232   6.240
 4337POPC   C2B55772  29.159  16.097   6.647
 4337POPC   C3B55773  29.217  16.129   7.085
 4337POPC   C4B55774  29.579  16.233   7.322
 4338POPC   NC355775  39.159   3.804   5.430
 4338POPC   PO455776  39.301   3.061   5.463
 4338POPC   GL155777  39.097   3.295   5.829
 4338POPC   GL255778  39.281   3.666   5.895
 4338POPC   C1A55779  39.115   3.409   6.294
 4338POPC   D2A55780  39.420   3.745   6.416
 4338POPC   C3A55781  39.249   4.014   6.744
 4338POPC   C4A55782  39.199   3.719   7.095
 4338POPC   C1B55783  39.579   3.357   6.052
 4338POPC   C2B55784  39.622   3.230   6.474
 4338POPC   C3B55785  39.590   3.476   6.828
 4338POPC   C4B55786  39.627   3.440   7.243
 4339POPC   NC355787  44.031   7.147   5.612
 4339POPC   PO455788  44.180   6.574   5.269
 4339POPC   GL155789  43.878   6.647   5.648
 4339POPC   GL255790  43.607   6.422   5.732
 4339POPC   C1A55791  43.853   6.700   6.114
 4339POPC   D2A55792  43.823   6.899   6.509
 4339POPC   C3A55793  44.036   6.727   6.856
 4339POPC   C4A55794  43.972   6.715   7.274
 4339POPC   C1B55795  43.631   6.235   6.185
 4339POPC   C2B55796  43.766   6.250   6.650
 4339POPC   C3B55797  43.621   6.392   7.090
 4339POPC   C4B55798  43.457   6.384   7.583
 4340POPC   NC355799  15.497  34.252   5.435
 4340POPC   PO455800  14.886  34.509   5.408
 4340POPC   GL155801  15.020  34.483   5.839
 4340POPC   GL255802  15.284  34.235   5.899
 4340POPC   C1A55803  15.068  34.732   6.242
 4340POPC   D2A55804  14.923  34.960   6.651
 4340POPC   C3A55805  15.047  34.759   7.064
 4340POPC   C4A55806  15.467  34.603   7.172
 4340POPC   C1B55807  15.048  34.204   6.290
 4340POPC   C2B55808  14.979  34.400   6.704
 4340POPC   C3B55809  14.864  34.251   7.163
 4340POPC   C4B55810  14.875  34.470   7.621
 4341POPC   NC355811  20.022  41.945   5.418
 4341POPC   PO455812  19.862  41.296   5.402
 4341POPC   GL155813  19.882  41.561   5.745
 4341POPC   GL255814  19.595  41.732   5.857
 4341POPC   C1A55815  19.883  41.434   6.174
 4341POPC   D2A55816  19.637  41.396   6.531
 4341POPC   C3A55817  19.906  41.371   6.888
 4341POPC   C4A55818  20.128  41.166   7.227
 4341POPC   C1B55819  19.822  41.951   6.178
 4341POPC   C2B55820  19.919  41.846   6.602
 4341POPC   C3B55821  19.768  41.853   7.018
 4341POPC   C4B55822  19.737  41.548   7.340
 4342POPC   NC355823  22.600  37.903   5.591
 4342POPC   PO455824  23.034  37.423   5.451
 4342POPC   GL155825  22.961  37.589   5.866
 4342POPC   GL255826  22.610  37.433   5.876
 4342POPC   C1A55827  23.166  37.790   6.269
 4342POPC   D2A55828  23.459  37.581   6.572
 4342POPC   C3A55829  23.236  37.584   6.993
 4342POPC   C4A55830  23.144  37.649   7.465
 4342POPC   C1B55831  22.656  37.693   6.267
 4342POPC   C2B55832  22.806  37.743   6.700
 4342POPC   C3B55833  22.697  37.674   7.149
 4342POPC   C4B55834  22.662  37.836   7.568
 4343POPC   NC355835  11.586   3.751   5.434
 4343POPC   PO455836  11.027   3.366   5.454
 4343POPC   GL155837  11.174   3.623   5.795
 4343POPC   GL255838  11.084   3.980   5.748
 4343POPC   C1A55839  11.297   3.486   6.219
 4343POPC   D2A55840  11.113   3.474   6.625
 4343POPC   C3A55841  11.365   3.464   7.002
 4343POPC   C4A55842  11.015   3.476   7.294
 4343POPC   C1B55843  11.184   3.983   6.191
 4343POPC   C2B55844  11.384   3.908   6.577
 4343POPC   C3B55845  11.280   3.961   6.965
 4343POPC   C4B55846  11.422   3.835   7.357
 4344POPC   NC355847   3.736  24.109   5.134
 4344POPC   PO455848   3.655  24.727   5.352
 4344POPC   GL155849   3.683  24.419   5.669
 4344POPC   GL255850   3.990  24.505   5.828
 4344POPC   C1A55851   3.542  24.359   6.102
 4344POPC   D2A55852   3.654  24.251   6.532
 4344POPC   C3A55853   3.614  24.434   6.919
 4344POPC   C4A55854   3.674  24.211   7.273
 4344POPC   C1B55855   4.062  24.398   6.250
 4344POPC   C2B55856   4.009  24.649   6.616
 4344POPC   C3B55857   3.890  24.851   6.984
 4344POPC   C4B55858   3.776  24.696   7.395
 4345POPC   NC355859  38.063   7.746   5.619
 4345POPC   PO455860  37.567   7.331   5.401
 4345POPC   GL155861  37.786   7.308   5.808
 4345POPC   GL255862  37.753   7.615   5.976
 4345POPC   C1A55863  37.878   7.237   6.257
 4345POPC   D2A55864  37.648   7.255   6.627
 4345POPC   C3A55865  37.818   7.153   7.028
 4345POPC   C4A55866  37.685   7.335   7.420
 4345POPC   C1B55867  38.012   7.795   6.315
 4345POPC   C2B55868  38.140   7.732   6.757
 4345POPC   C3B55869  38.052   7.615   7.182
 4345POPC   C4B55870  37.919   7.763   7.581
 4346POPC   NC355871   4.985  11.622   5.368
 4346POPC   PO455872   4.887  10.968   5.511
 4346POPC   GL155873   4.949  11.285   5.826
 4346POPC   GL255874   5.266  11.374   5.774
 4346POPC   C1A55875   5.078  11.261   6.271
 4346POPC   D2A55876   4.974  11.075   6.673
 4346POPC   C3A55877   5.105  11.342   6.988
 4346POPC   C4A55878   5.149  11.309   7.405
 4346POPC   C1B55879   5.438  11.592   6.099
 4346POPC   C2B55880   5.414  11.635   6.531
 4346POPC   C3B55881   5.556  11.574   6.948
 4346POPC   C4B55882   5.670  11.506   7.336
 4347POPC   NC355883  24.233   2.305   5.469
 4347POPC   PO455884  24.735   1.839   5.576
 4347POPC   GL155885  24.587   1.624   5.947
 4347POPC   GL255886  24.234   1.570   5.787
 4347POPC   C1A55887  24.654   1.805   6.391
 4347POPC   D2A55888  24.687   2.250   6.610
 4347POPC   C3A55889  24.811   2.213   7.045
 4347POPC   C4A55890  24.602   2.116   7.436
 4347POPC   C1B55891  24.150   1.786   6.173
 4347POPC   C2B55892  24.194   2.063   6.522
 4347POPC   C3B55893  24.369   1.957   6.896
 4347POPC   C4B55894  24.248   1.737   7.245
 4348POPC   NC355895  21.172   7.128   5.462
 4348POPC   PO455896  21.192   7.899   5.427
 4348POPC   GL155897  21.129   7.617   5.827
 4348POPC   GL255898  21.297   7.300   5.915
 4348POPC   C1A55899  21.240   7.621   6.299
 4348POPC   D2A55900  21.441   7.615   6.702
 4348POPC   C3A55901  21.163   7.643   7.096
 4348POPC   C4A55902  21.259   7.575   7.555
 4348POPC   C1B55903  21.269   7.065   6.287
 4348POPC   C2B55904  21.519   7.087   6.665
 4348POPC   C3B55905  21.474   7.249   7.044
 4348POPC   C4B55906  21.116   7.142   7.276
 4349POPC   NC355907  41.258  33.255   5.560
 4349POPC   PO455908  41.595  32.681   5.508
 4349POPC   GL155909  41.510  32.818   5.897
 4349POPC   GL255910  41.180  32.865   5.890
 4349POPC   C1A55911  41.526  32.805   6.337
 4349POPC   D2A55912  41.778  32.818   6.668
 4349POPC   C3A55913  41.542  32.755   7.031
 4349POPC   C4A55914  41.630  33.160   7.126
 4349POPC   C1B55915  41.298  33.228   6.223
 4349POPC   C2B55916  41.332  33.141   6.692
 4349POPC   C3B55917  41.119  33.034   7.101
 4349POPC   C4B55918  41.033  33.329   7.429
 4350POPC   NC355919  20.710  30.814   5.192
 4350POPC   PO455920  20.222  30.652   5.648
 4350POPC   GL155921  20.687  30.602   5.774
 4350POPC   GL255922  20.975  30.342   5.751
 4350POPC   C1A55923  20.836  30.698   6.193
 4350POPC   D2A55924  20.750  30.526   6.631
 4350POPC   C3A55925  20.672  30.776   7.024
 4350POPC   C4A55926  20.758  30.977   7.460
 4350POPC   C1B55927  20.995  30.198   6.199
 4350POPC   C2B55928  21.135  30.177   6.650
 4350POPC   C3B55929  20.972  30.328   7.049
 4350POPC   C4B55930  20.774  30.471   7.414
 4351POPC   NC355931  28.959  34.763   5.535
 4351POPC   PO455932  29.575  34.479   5.443
 4351POPC   GL155933  29.353  34.546   5.837
 4351POPC   GL255934  29.099  34.287   5.812
 4351POPC   C1A55935  29.353  34.852   6.231
 4351POPC   D2A55936  29.504  34.983   6.661
 4351POPC   C3A55937  29.149  35.061   6.933
 4351POPC   C4A55938  28.840  34.796   7.149
 4351POPC   C1B55939  29.064  34.431   6.256
 4351POPC   C2B55940  29.170  34.500   6.713
 4351POPC   C3B55941  28.977  34.306   7.112
 4351POPC   C4B55942  29.093  34.075   7.477
 4352POPC   NC355943  15.085  22.806   5.522
 4352POPC   PO455944  15.115  22.178   5.585
 4352POPC   GL155945  15.096  22.525   5.952
 4352POPC   GL255946  15.356  22.786   5.962
 4352POPC   C1A55947  14.968  22.896   6.290
 4352POPC   D2A55948  14.724  23.160   6.640
 4352POPC   C3A55949  14.845  23.067   7.090
 4352POPC   C4A55950  15.185  22.971   7.423
 4352POPC   C1B55951  15.517  22.985   6.346
 4352POPC   C2B55952  15.427  23.062   6.801
 4352POPC   C3B55953  15.642  22.992   7.183
 4352POPC   C4B55954  15.684  22.860   7.627
 4353POPC   NC355955   3.670  14.340   5.397
 4353POPC   PO455956   3.046  14.609   5.436
 4353POPC   GL155957   3.271  14.422   5.737
 4353POPC   GL255958   3.475  14.705   5.705
 4353POPC   C1A55959   3.512  14.387   6.125
 4353POPC   D2A55960   3.413  14.535   6.528
 4353POPC   C3A55961   3.489  14.306   6.919
 4353POPC   C4A55962   3.862  14.334   7.190
 4353POPC   C1B55963   3.828  14.793   5.949
 4353POPC   C2B55964   3.835  14.824   6.408
 4353POPC   C3B55965   3.850  14.679   6.816
 4353POPC   C4B55966   4.062  14.831   7.180
 4354POPC   NC355967  26.228   1.819   5.372
 4354POPC   PO455968  26.315   2.473   5.421
 4354POPC   GL155969  26.028   2.155   5.698
 4354POPC   GL255970  26.314   1.989   5.853
 4354POPC   C1A55971  25.866   1.897   6.097
 4354POPC   D2A55972  25.592   1.793   6.482
 4354POPC   C3A55973  25.759   1.937   6.859
 4354POPC   C4A55974  25.834   1.876   7.276
 4354POPC   C1B55975  26.304   2.163   6.262
 4354POPC   C2B55976  26.205   2.141   6.693
 4354POPC   C3B55977  26.196   2.183   7.112
 4354POPC   C4B55978  26.326   1.860   7.392
 4355POPC   NC355979  17.467  42.221   5.286
 4355POPC   PO455980  17.425  41.687   5.690
 4355POPC   GL155981  17.640  42.118   5.790
 4355POPC   GL255982  17.458  42.412   5.790
 4355POPC   C1A55983  17.781  42.280   6.196
 4355POPC   D2A55984  17.556  42.043   6.498
 4355POPC   C3A55985  17.482  42.132   6.918
 4355POPC   C4A55986  17.823  42.278   7.137
 4355POPC   C1B55987  17.311  42.496   6.224
 4355POPC   C2B55988  17.456  42.564   6.634
 4355POPC   C3B55989  17.291  42.698   7.023
 4355POPC   C4B55990  17.186  42.493   7.381
 4356POPC   NC355991   2.670  14.349   5.401
 4356POPC   PO455992   2.664  13.685   5.396
 4356POPC   GL155993   2.590  14.103   5.841
 4356POPC   GL255994   2.767  14.448   5.873
 4356POPC   C1A55995   2.631  14.317   6.330
 4356POPC   D2A55996   2.926  14.448   6.688
 4356POPC   C3A55997   2.869  14.358   7.127
 4356POPC   C4A55998   2.698  14.245   7.533
 4356POPC   C1B55999   3.028  14.644   6.201
 4356POPC   C2B56000   2.949  14.938   6.562
 4356POPC   C3B56001   2.692  14.845   6.974
 4356POPC   C4B56002   2.400  14.593   7.268
 4357POPC   NC356003  34.132   1.718   5.444
 4357POPC   PO456004  33.802   2.327   5.494
 4357POPC   GL156005  33.870   2.175   5.894
 4357POPC   GL256006  33.814   1.841   5.847
 4357POPC   C1A56007  33.837   2.072   6.336
 4357POPC   D2A56008  33.783   1.737   6.638
 4357POPC   C3A56009  33.677   1.910   7.035
 4357POPC   C4A56010  33.891   2.259   7.245
 4357POPC   C1B56011  34.173   1.742   6.108
 4357POPC   C2B56012  34.292   1.904   6.496
 4357POPC   C3B56013  34.166   2.019   6.875
 4357POPC   C4B56014  34.155   1.841   7.265
 4358POPC   NC356015  20.484  36.434   5.282
 4358POPC   PO456016  20.810  35.866   5.283
 4358POPC   GL156017  20.737  36.140   5.661
 4358POPC   GL256018  20.402  36.062   5.831
 4358POPC   C1A56019  20.709  36.354   6.088
 4358POPC   D2A56020  20.353  36.221   6.349
 4358POPC   C3A56021  20.402  36.258   6.801
 4358POPC   C4A56022  20.585  36.387   7.191
 4358POPC   C1B56023  20.693  35.826   6.079
 4358POPC   C2B56024  20.779  35.961   6.478
 4358POPC   C3B56025  20.763  35.882   6.898
 4358POPC   C4B56026  20.605  35.811   7.273
 4359POPC   NC356027   3.552  33.259   5.347
 4359POPC   PO456028   3.924  32.824   5.631
 4359POPC   GL156029   3.675  32.996   5.902
 4359POPC   GL256030   3.360  33.068   5.790
 4359POPC   C1A56031   3.752  33.146   6.284
 4359POPC   D2A56032   3.663  32.970   6.661
 4359POPC   C3A56033   3.617  33.219   7.013
 4359POPC   C4A56034   3.466  33.130   7.380
 4359POPC   C1B56035   3.263  32.899   6.206
 4359POPC   C2B56036   3.133  32.846   6.629
 4359POPC   C3B56037   3.341  32.744   7.014
 4359POPC   C4B56038   3.163  32.712   7.416
 4360POPC   NC356039   3.052   7.629   5.403
 4360POPC   PO456040   2.372   7.570   5.567
 4360POPC   GL156041   2.768   7.470   5.820
 4360POPC   GL256042   2.942   7.148   5.788
 4360POPC   C1A56043   3.045   7.438   6.213
 4360POPC   D2A56044   2.849   7.382   6.640
 4360POPC   C3A56045   2.901   7.581   7.059
 4360POPC   C4A56046   2.547   7.496   7.358
 4360POPC   C1B56047   2.734   7.026   6.222
 4360POPC   C2B56048   2.780   6.824   6.626
 4360POPC   C3B56049   2.746   7.010   7.029
 4360POPC   C4B56050   2.961   7.173   7.362
 4361POPC   NC356051  21.483  25.581   5.465
 4361POPC   PO456052  21.242  26.195   5.376
 4361POPC   GL156053  21.460  26.159   5.764
 4361POPC   GL256054  21.570  25.827   5.876
 4361POPC   C1A56055  21.380  26.125   6.227
 4361POPC   D2A56056  21.548  26.167   6.634
 4361POPC   C3A56057  21.225  26.125   6.959
 4361POPC   C4A56058  21.524  26.193   7.259
 4361POPC   C1B56059  21.601  25.515   6.180
 4361POPC   C2B56060  21.441  25.666   6.553
 4361POPC   C3B56061  21.594  25.755   6.942
 4361POPC   C4B56062  21.526  25.684   7.352
 4362POPC   NC356063  43.246  32.188   5.190
 4362POPC   PO456064  42.730  32.529   5.380
 4362POPC   GL156065  42.998  32.357   5.758
 4362POPC   GL256066  43.096  32.038   5.719
 4362POPC   C1A56067  43.341  32.205   6.142
 4362POPC   D2A56068  43.438  31.999   6.588
 4362POPC   C3A56069  43.275  32.120   7.006
 4362POPC   C4A56070  43.378  31.998   7.440
 4362POPC   C1B56071  42.856  31.990   6.111
 4362POPC   C2B56072  42.928  31.898   6.545
 4362POPC   C3B56073  42.761  31.908   6.946
 4362POPC   C4B56074  42.922  31.830   7.352
 4363POPC   NC356075  16.821   4.722   5.486
 4363POPC   PO456076  16.494   5.326   5.379
 4363POPC   GL156077  16.685   5.143   5.790
 4363POPC   GL256078  16.543   4.832   5.948
 4363POPC   C1A56079  17.000   5.006   6.146
 4363POPC   D2A56080  16.952   4.875   6.617
 4363POPC   C3A56081  16.973   5.122   7.033
 4363POPC   C4A56082  17.127   4.944   7.467
 4363POPC   C1B56083  16.555   5.105   6.343
 4363POPC   C2B56084  16.514   5.088   6.799
 4363POPC   C3B56085  16.427   4.934   7.192
 4363POPC   C4B56086  16.382   5.098   7.607
 4364POPC   NC356087  27.734  20.509   5.203
 4364POPC   PO456088  28.430  20.529   5.472
 4364POPC   GL156089  28.264  20.559   5.854
 4364POPC   GL256090  28.398  20.855   6.029
 4364POPC   C1A56091  28.254  20.351   6.233
 4364POPC   D2A56092  28.357  20.537   6.604
 4364POPC   C3A56093  28.194  20.367   6.954
 4364POPC   C4A56094  28.326  20.483   7.360
 4364POPC   C1B56095  28.021  20.808   6.298
 4364POPC   C2B56096  27.901  20.736   6.750
 4364POPC   C3B56097  27.879  20.723   7.241
 4364POPC   C4B56098  28.001  20.627   7.710
 4365POPC   NC356099   4.469  10.291   5.268
 4365POPC   PO456100   4.058  10.747   5.543
 4365POPC   GL156101   4.265  10.413   5.806
 4365POPC   GL256102   3.969  10.277   5.988
 4365POPC   C1A56103   4.394  10.405   6.247
 4365POPC   D2A56104   4.235  10.526   6.656
 4365POPC   C3A56105   4.451  10.503   7.065
 4365POPC   C4A56106   4.541  10.847   7.328
 4365POPC   C1B56107   3.913  10.676   6.221
 4365POPC   C2B56108   3.921  10.926   6.614
 4365POPC   C3B56109   3.932  10.707   7.018
 4365POPC   C4B56110   4.011  10.241   7.081
 4366POPC   NC356111   6.506  18.166   5.504
 4366POPC   PO456112   6.476  18.789   5.525
 4366POPC   GL156113   6.593  18.505   5.904
 4366POPC   GL256114   6.695  18.121   5.967
 4366POPC   C1A56115   6.702  18.521   6.339
 4366POPC   D2A56116   6.583  18.667   6.744
 4366POPC   C3A56117   6.646  18.446   7.112
 4366POPC   C4A56118   6.671  18.321   7.536
 4366POPC   C1B56119   6.971  18.087   6.320
 4366POPC   C2B56120   6.691  18.115   6.686
 4366POPC   C3B56121   6.592  17.895   7.064
 4366POPC   C4B56122   6.832  17.865   7.454
 4367POPC   NC356123   3.921  10.216   5.483
 4367POPC   PO456124   3.255  10.355   5.385
 4367POPC   GL156125   3.420  10.509   5.788
 4367POPC   GL256126   3.317  10.885   5.843
 4367POPC   C1A56127   3.475  10.332   6.205
 4367POPC   D2A56128   3.758  10.287   6.570
 4367POPC   C3A56129   3.534  10.345   6.962
 4367POPC   C4A56130   3.582  10.541   7.348
 4367POPC   C1B56131   3.427  10.840   6.303
 4367POPC   C2B56132   3.447  10.802   6.770
 4367POPC   C3B56133   3.284  10.933   7.190
 4367POPC   C4B56134   3.373  10.909   7.651
 4368POPC   NC356135  31.698  30.333   5.110
 4368POPC   PO456136  31.742  30.903   5.465
 4368POPC   GL156137  31.446  30.732   5.750
 4368POPC   GL256138  31.436  31.035   5.916
 4368POPC   C1A56139  31.305  30.647   6.187
 4368POPC   D2A56140  31.464  30.843   6.546
 4368POPC   C3A56141  31.342  30.673   6.925
 4368POPC   C4A56142  31.499  30.547   7.299
 4368POPC   C1B56143  31.199  31.172   6.241
 4368POPC   C2B56144  31.090  31.269   6.658
 4368POPC   C3B56145  31.290  31.199   7.042
 4368POPC   C4B56146  31.300  30.988   7.436
 4369POPC   NC356147  14.209  39.975   5.378
 4369POPC   PO456148  14.532  40.417   5.714
 4369POPC   GL156149  14.491  39.959   5.880
 4369POPC   GL256150  14.205  39.702   5.809
 4369POPC   C1A56151  14.636  39.936   6.327
 4369POPC   D2A56152  14.763  40.274   6.635
 4369POPC   C3A56153  14.430  40.279   6.942
 4369POPC   C4A56154  14.271  40.227   7.337
 4369POPC   C1B56155  14.269  39.586   6.251
 4369POPC   C2B56156  14.226  39.671   6.703
 4369POPC   C3B56157  14.139  39.667   7.118
 4369POPC   C4B56158  14.502  39.775   7.276
 4370POPC   NC356159  30.753   7.017   5.697
 4370POPC   PO456160  30.538   7.267   5.199
 4370POPC   GL156161  30.541   7.474   5.651
 4370POPC   GL256162  30.316   7.296   5.810
 4370POPC   C1A56163  30.533   7.617   6.133
 4370POPC   D2A56164  30.743   7.740   6.530
 4370POPC   C3A56165  30.593   7.614   6.940
 4370POPC   C4A56166  30.720   7.426   7.283
 4370POPC   C1B56167  30.490   7.115   6.247
 4370POPC   C2B56168  30.697   7.225   6.611
 4370POPC   C3B56169  30.766   7.023   7.010
 4370POPC   C4B56170  30.627   7.012   7.526
 4371POPC   NC356171  43.812  40.201   5.427
 4371POPC   PO456172  43.975  39.571   5.364
 4371POPC   GL156173  43.802  39.778   5.746
 4371POPC   GL256174  44.016  40.043   5.848
 4371POPC   C1A56175  43.584  39.787   6.149
 4371POPC   D2A56176  43.696  39.672   6.584
 4371POPC   C3A56177  43.575  39.858   6.992
 4371POPC   C4A56178  43.519  39.957   7.437
 4371POPC   C1B56179  44.281  40.220   6.143
 4371POPC   C2B56180  44.298  40.088   6.547
 4371POPC   C3B56181  44.256  40.213   6.948
 4371POPC   C4B56182  43.956  40.151   7.253
 4372POPC   NC356183  15.752  28.485   5.564
 4372POPC   PO456184  16.447  28.378   5.372
 4372POPC   GL156185  16.200  28.263   5.750
 4372POPC   GL256186  15.910  28.043   5.842
 4372POPC   C1A56187  16.160  28.363   6.208
 4372POPC   D2A56188  15.934  28.262   6.545
 4372POPC   C3A56189  15.889  28.459   6.937
 4372POPC   C4A56190  15.706  28.235   7.241
 4372POPC   C1B56191  16.303  27.877   6.070
 4372POPC   C2B56192  16.357  27.953   6.518
 4372POPC   C3B56193  16.135  28.001   6.915
 4372POPC   C4B56194  16.228  28.162   7.290
 4373POPC   NC356195   1.602  30.481   5.540
 4373POPC   PO456196   1.016  30.753   5.403
 4373POPC   GL156197   1.203  30.673   5.808
 4373POPC   GL256198   0.854  30.707   5.948
 4373POPC   C1A56199   1.488  30.553   6.192
 4373POPC   D2A56200   1.315  30.489   6.617
 4373POPC   C3A56201   1.436  30.686   7.006
 4373POPC   C4A56202   1.535  30.625   7.449
 4373POPC   C1B56203   1.116  30.894   6.260
 4373POPC   C2B56204   1.132  31.042   6.651
 4373POPC   C3B56205   0.928  30.962   6.995
 4373POPC   C4B56206   1.076  30.817   7.336
 4374POPC   NC356207   3.346  27.899   5.422
 4374POPC   PO456208   3.576  27.290   5.412
 4374POPC   GL156209   3.596  27.443   5.793
 4374POPC   GL256210   3.701  27.769   5.838
 4374POPC   C1A56211   3.416  27.328   6.156
 4374POPC   D2A56212   3.524  27.087   6.487
 4374POPC   C3A56213   3.690  27.343   6.813
 4374POPC   C4A56214   3.508  27.479   7.207
 4374POPC   C1B56215   3.566  27.902   6.272
 4374POPC   C2B56216   3.254  28.066   6.607
 4374POPC   C3B56217   3.269  27.913   7.028
 4374POPC   C4B56218   3.686  27.975   7.177
 4375POPC   NC356219   7.322   4.029   5.392
 4375POPC   PO456220   7.255   4.714   5.412
 4375POPC   GL156221   7.494   4.424   5.758
 4375POPC   GL256222   7.318   4.109   5.877
 4375POPC   C1A56223   7.609   4.277   6.227
 4375POPC   D2A56224   7.377   4.131   6.591
 4375POPC   C3A56225   7.653   4.243   6.912
 4375POPC   C4A56226   7.730   4.339   7.330
 4375POPC   C1B56227   7.102   4.383   6.161
 4375POPC   C2B56228   6.895   4.337   6.572
 4375POPC   C3B56229   7.102   4.415   6.953
 4375POPC   C4B56230   7.263   4.159   7.283
 4376POPC   NC356231  43.944  44.132   5.444
 4376POPC   PO456232  43.491  43.703   5.299
 4376POPC   GL156233  43.712  43.724   5.739
 4376POPC   GL256234  43.737  44.079   5.910
 4376POPC   C1A56235  43.859  43.666   6.202
 4376POPC   D2A56236  43.731  43.990   6.506
 4376POPC   C3A56237  43.843  43.894   6.939
 4376POPC   C4A56238  43.780  43.589   7.203
 4376POPC   C1B56239  44.121  44.172   6.156
 4376POPC   C2B56240  44.299  44.303   6.549
 4376POPC   C3B56241  44.067  44.361   6.923
 4376POPC   C4B56242  44.141  44.320   7.322
 4377POPC   NC356243   2.188  43.991   5.526
 4377POPC   PO456244   1.895  43.420   5.640
 4377POPC   GL156245   1.917  43.782   5.896
 4377POPC   GL256246   1.669  44.080   5.761
 4377POPC   C1A56247   2.099  43.851   6.304
 4377POPC   D2A56248   2.070  43.654   6.721
 4377POPC   C3A56249   2.115  43.972   7.064
 4377POPC   C4A56250   2.078  43.986   7.510
 4377POPC   C1B56251   1.638  44.025   6.224
 4377POPC   C2B56252   1.802  44.113   6.628
 4377POPC   C3B56253   1.647  43.886   6.944
 4377POPC   C4B56254   1.595  43.995   7.310
 4378POPC   NC356255  32.905  23.403   5.221
 4378POPC   PO456256  33.105  22.798   5.358
 4378POPC   GL156257  33.062  22.907   5.799
 4378POPC   GL256258  33.065  23.264   5.733
 4378POPC   C1A56259  32.972  22.800   6.260
 4378POPC   D2A56260  32.943  23.025   6.653
 4378POPC   C3A56261  33.003  22.817   7.043
 4378POPC   C4A56262  32.792  22.799   7.441
 4378POPC   C1B56263  32.995  23.319   6.187
 4378POPC   C2B56264  33.155  23.491   6.605
 4378POPC   C3B56265  33.112  23.353   7.049
 4378POPC   C4B56266  33.241  23.095   7.429
 4379POPC   NC356267  39.520  17.064   5.460
 4379POPC   PO456268  39.011  16.651   5.478
 4379POPC   GL156269  39.320  16.658   5.844
 4379POPC   GL256270  39.463  16.965   5.975
 4379POPC   C1A56271  39.359  16.475   6.264
 4379POPC   D2A56272  39.113  16.521   6.660
 4379POPC   C3A56273  39.289  16.547   7.066
 4379POPC   C4A56274  39.457  16.938   7.223
 4379POPC   C1B56275  39.204  16.959   6.353
 4379POPC   C2B56276  39.173  17.038   6.788
 4379POPC   C3B56277  38.919  16.933   7.129
 4379POPC   C4B56278  38.997  17.040   7.545
 4380POPC   NC356279  38.767  30.059   5.576
 4380POPC   PO456280  38.361  29.584   5.396
 4380POPC   GL156281  38.372  29.746   5.791
 4380POPC   GL256282  38.216  30.084   5.804
 4380POPC   C1A56283  38.566  29.778   6.190
 4380POPC   D2A56284  38.654  29.942   6.624
 4380POPC   C3A56285  38.567  29.681   7.022
 4380POPC   C4A56286  38.376  29.437   7.394
 4380POPC   C1B56287  38.323  30.243   6.230
 4380POPC   C2B56288  38.244  30.440   6.675
 4380POPC   C3B56289  38.384  30.175   7.013
 4380POPC   C4B56290  38.226  29.927   7.332
 4381POPC   NC356291   3.741  31.790   5.365
 4381POPC   PO456292   3.370  31.207   5.335
 4381POPC   GL156293   3.478  31.495   5.716
 4381POPC   GL256294   3.819  31.400   5.879
 4381POPC   C1A56295   3.440  31.715   6.132
 4381POPC   D2A56296   3.604  31.719   6.578
 4381POPC   C3A56297   3.341  31.685   6.952
 4381POPC   C4A56298   3.375  31.791   7.388
 4381POPC   C1B56299   3.596  31.238   6.283
 4381POPC   C2B56300   3.324  30.986   6.600
 4381POPC   C3B56301   3.313  31.186   6.977
 4381POPC   C4B56302   3.748  31.350   6.954
 4382POPC   NC356303   2.264  40.374   5.379
 4382POPC   PO456304   1.886  39.730   5.381
 4382POPC   GL156305   2.080  39.923   5.740
 4382POPC   GL256306   1.734  39.879   5.864
 4382POPC   C1A56307   2.132  40.112   6.165
 4382POPC   D2A56308   2.295  39.946   6.582
 4382POPC   C3A56309   2.251  40.146   6.955
 4382POPC   C4A56310   2.013  40.307   7.304
 4382POPC   C1B56311   1.576  39.941   6.225
 4382POPC   C2B56312   1.794  39.998   6.552
 4382POPC   C3B56313   1.731  40.164   6.921
 4382POPC   C4B56314   1.462  40.239   7.259
 4383POPC   NC356315  23.494  43.510   5.613
 4383POPC   PO456316  23.618  44.132   5.365
 4383POPC   GL156317  23.615  44.034   5.840
 4383POPC   GL256318  23.519  43.724   6.048
 4383POPC   C1A56319  23.862  44.066   6.219
 4383POPC   D2A56320  24.155  43.852   6.491
 4383POPC   C3A56321  23.964  43.858   6.886
 4383POPC   C4A56322  23.542  43.973   7.073
 4383POPC   C1B56323  23.816  43.511   6.231
 4383POPC   C2B56324  24.006  43.367   6.566
 4383POPC   C3B56325  23.991  43.356   6.944
 4383POPC   C4B56326  23.742  43.534   7.240
 4384POPC   NC356327  35.783   2.377   5.105
 4384POPC   PO456328  35.634   3.027   5.353
 4384POPC   GL156329  35.619   2.775   5.764
 4384POPC   GL256330  35.320   2.596   5.841
 4384POPC   C1A56331  35.492   2.904   6.215
 4384POPC   D2A56332  35.188   3.056   6.541
 4384POPC   C3A56333  35.292   2.962   6.969
 4384POPC   C4A56334  35.249   2.900   7.403
 4384POPC   C1B56335  35.445   2.396   6.223
 4384POPC   C2B56336  35.336   2.543   6.621
 4384POPC   C3B56337  35.521   2.491   7.013
 4384POPC   C4B56338  35.281   2.395   7.353
 4385POPC   NC356339  37.912  40.071   5.445
 4385POPC   PO456340  37.298  39.804   5.423
 4385POPC   GL156341  37.524  40.038   5.790
 4385POPC   GL256342  37.304  40.273   5.969
 4385POPC   C1A56343  37.826  40.057   6.176
 4385POPC   D2A56344  37.978  40.327   6.553
 4385POPC   C3A56345  38.044  40.180   7.006
 4385POPC   C4A56346  37.774  39.910   7.247
 4385POPC   C1B56347  37.396  40.179   6.416
 4385POPC   C2B56348  37.587  40.092   6.799
 4385POPC   C3B56349  37.269  39.915   7.050
 4385POPC   C4B56350  36.992  39.764   7.371
 4386POPC   NC356351  36.107  12.238   5.083
 4386POPC   PO456352  35.864  12.024   5.693
 4386POPC   GL156353  36.220  12.086   5.837
 4386POPC   GL256354  36.335  11.746   5.825
 4386POPC   C1A56355  36.336  12.257   6.231
 4386POPC   D2A56356  36.226  12.054   6.606
 4386POPC   C3A56357  35.976  12.252   6.889
 4386POPC   C4A56358  36.005  12.068   7.261
 4386POPC   C1B56359  36.544  11.793   6.238
 4386POPC   C2B56360  36.617  11.724   6.693
 4386POPC   C3B56361  36.342  11.722   7.053
 4386POPC   C4B56362  36.284  11.641   7.505
 4387POPC   NC356363   1.062  32.896   5.269
 4387POPC   PO456364   1.652  32.794   5.505
 4387POPC   GL156365   1.357  33.035   5.742
 4387POPC   GL256366   1.013  33.211   5.662
 4387POPC   C1A56367   1.383  32.865   6.160
 4387POPC   D2A56368   1.179  32.835   6.541
 4387POPC   C3A56369   1.437  32.802   6.904
 4387POPC   C4A56370   1.168  32.903   7.247
 4387POPC   C1B56371   1.139  33.315   6.105
 4387POPC   C2B56372   1.023  33.484   6.523
 4387POPC   C3B56373   1.152  33.335   6.949
 4387POPC   C4B56374   1.214  33.418   7.367
 4388POPC   NC356375  12.663   6.938   5.612
 4388POPC   PO456376  12.632   7.616   5.460
 4388POPC   GL156377  12.901   7.514   5.857
 4388POPC   GL256378  13.014   7.170   5.903
 4388POPC   C1A56379  13.068   7.443   6.309
 4388POPC   D2A56380  13.278   7.585   6.659
 4388POPC   C3A56381  12.947   7.541   6.946
 4388POPC   C4A56382  12.817   7.721   7.313
 4388POPC   C1B56383  12.892   6.929   6.265
 4388POPC   C2B56384  12.685   6.943   6.647
 4388POPC   C3B56385  12.922   6.989   7.000
 4388POPC   C4B56386  12.898   7.227   7.353
 4389POPC   NC356387  20.613  29.529   5.381
 4389POPC   PO456388  20.172  28.993   5.389
 4389POPC   GL156389  20.440  29.071   5.782
 4389POPC   GL256390  20.715  29.337   5.858
 4389POPC   C1A56391  20.418  28.993   6.243
 4389POPC   D2A56392  20.191  28.940   6.642
 4389POPC   C3A56393  20.403  29.104   7.013
 4389POPC   C4A56394  20.726  28.914   7.231
 4389POPC   C1B56395  20.931  29.072   6.183
 4389POPC   C2B56396  20.801  28.982   6.629
 4389POPC   C3B56397  20.884  29.304   6.941
 4389POPC   C4B56398  21.073  29.275   7.358
 4390POPC   NC356399   1.006  18.132   5.351
 4390POPC   PO456400   1.444  18.580   5.413
 4390POPC   GL156401   1.344  18.362   5.789
 4390POPC   GL256402   0.994  18.524   5.786
 4390POPC   C1A56403   1.505  18.117   6.197
 4390POPC   D2A56404   1.650  18.305   6.612
 4390POPC   C3A56405   1.346  18.395   6.953
 4390POPC   C4A56406   1.322  18.121   7.314
 4390POPC   C1B56407   1.066  18.396   6.223
 4390POPC   C2B56408   1.078  18.117   6.568
 4390POPC   C3B56409   0.872  18.106   6.982
 4390POPC   C4B56410   0.903  18.425   7.308
 4391POPC   NC356411  18.873  20.192   5.166
 4391POPC   PO456412  19.119  19.630   5.424
 4391POPC   GL156413  19.008  20.038   5.671
 4391POPC   GL256414  18.742  20.281   5.709
 4391POPC   C1A56415  19.045  20.032   6.141
 4391POPC   D2A56416  19.030  19.659   6.435
 4391POPC   C3A56417  19.062  19.805   6.821
 4391POPC   C4A56418  19.206  19.703   7.212
 4391POPC   C1B56419  18.567  20.239   6.138
 4391POPC   C2B56420  18.723  20.356   6.565
 4391POPC   C3B56421  18.724  20.138   6.970
 4391POPC   C4B56422  18.811  19.955   7.404
 4392POPC   NC356423  17.346  33.683   5.430
 4392POPC   PO456424  17.957  33.691   5.301
 4392POPC   GL156425  17.742  33.761   5.788
 4392POPC   GL256426  17.346  33.858   5.908
 4392POPC   C1A56427  17.697  33.922   6.247
 4392POPC   D2A56428  17.436  34.073   6.582
 4392POPC   C3A56429  17.533  33.906   6.977
 4392POPC   C4A56430  17.665  33.725   7.329
 4392POPC   C1B56431  17.221  33.631   6.314
 4392POPC   C2B56432  17.078  33.749   6.761
 4392POPC   C3B56433  17.157  33.627   7.201
 4392POPC   C4B56434  17.358  33.339   7.494
 4393POPC   NC356435   0.386  20.184   5.413
 4393POPC   PO456436   0.781  20.724   5.464
 4393POPC   GL156437   0.486  20.545   5.772
 4393POPC   GL256438   0.255  20.724   5.877
 4393POPC   C1A56439   0.440  20.342   6.209
 4393POPC   D2A56440   0.555  20.185   6.612
 4393POPC   C3A56441   0.364  20.299   7.022
 4393POPC   C4A56442   0.467  20.284   7.464
 4393POPC   C1B56443   0.547  20.830   6.203
 4393POPC   C2B56444   0.453  20.681   6.617
 4393POPC   C3B56445   0.530  20.810   7.031
 4393POPC   C4B56446   0.230  20.729   7.319
 4394POPC   NC356447   8.838  33.948   5.209
 4394POPC   PO456448   9.113  33.328   5.174
 4394POPC   GL156449   9.147  33.525   5.639
 4394POPC   GL256450   9.378  33.848   5.671
 4394POPC   C1A56451   9.043  33.706   6.075
 4394POPC   D2A56452   8.907  33.910   6.505
 4394POPC   C3A56453   8.928  33.651   6.908
 4394POPC   C4A56454   8.773  33.591   7.352
 4394POPC   C1B56455   9.486  34.007   6.085
 4394POPC   C2B56456   9.544  34.135   6.506
 4394POPC   C3B56457   9.276  34.073   6.846
 4394POPC   C4B56458   9.118  34.085   7.242
 4395POPC   NC356459  27.409   9.014   5.404
 4395POPC   PO456460  27.745   9.572   5.303
 4395POPC   GL156461  27.694   9.294   5.773
 4395POPC   GL256462  27.544   8.959   5.885
 4395POPC   C1A56463  27.815   9.204   6.241
 4395POPC   D2A56464  27.552   9.019   6.591
 4395POPC   C3A56465  27.424   9.162   7.017
 4395POPC   C4A56466  27.249   9.143   7.462
 4395POPC   C1B56467  27.718   8.692   6.207
 4395POPC   C2B56468  27.547   8.517   6.575
 4395POPC   C3B56469  27.681   8.576   6.971
 4395POPC   C4B56470  27.537   8.757   7.334
 4396POPC   NC356471   0.755  32.357   5.500
 4396POPC   PO456472   0.179  32.112   5.551
 4396POPC   GL156473   0.364  32.184   5.945
 4396POPC   GL256474   0.694  32.093   5.946
 4396POPC   C1A56475   0.479  32.562   6.184
 4396POPC   D2A56476   0.588  32.646   6.612
 4396POPC   C3A56477   0.552  32.325   6.919
 4396POPC   C4A56478   0.415  32.098   7.276
 4396POPC   C1B56479   0.710  32.156   6.417
 4396POPC   C2B56480   0.912  31.963   6.811
 4396POPC   C3B56481   0.897  31.861   7.271
 4396POPC   C4B56482   0.740  32.018   7.690
 4397POPC   NC356483  23.139  28.627   5.255
 4397POPC   PO456484  22.518  28.325   5.379
 4397POPC   GL156485  22.770  28.468   5.749
 4397POPC   GL256486  23.133  28.550   5.758
 4397POPC   C1A56487  22.868  28.505   6.206
 4397POPC   D2A56488  22.649  28.573   6.601
 4397POPC   C3A56489  22.837  28.441   6.989
 4397POPC   C4A56490  22.743  28.565   7.411
 4397POPC   C1B56491  23.362  28.315   6.078
 4397POPC   C2B56492  23.453  28.132   6.484
 4397POPC   C3B56493  23.358  28.263   6.898
 4397POPC   C4B56494  23.288  28.615   7.143
 4398POPC   NC356495  37.791  16.261   5.683
 4398POPC   PO456496  37.467  15.965   5.125
 4398POPC   GL156497  37.561  15.889   5.880
 4398POPC   GL256498  37.498  16.152   6.074
 4398POPC   C1A56499  37.808  15.833   6.297
 4398POPC   D2A56500  37.644  15.895   6.690
 4398POPC   C3A56501  37.855  15.927   7.068
 4398POPC   C4A56502  37.523  16.043   7.319
 4398POPC   C1B56503  37.763  16.351   6.397
 4398POPC   C2B56504  37.851  16.379   6.840
 4398POPC   C3B56505  37.956  16.519   7.226
 4398POPC   C4B56506  37.796  16.413   7.574
 4399POPC   NC356507  37.067   2.972   5.468
 4399POPC   PO456508  36.769   2.334   5.582
 4399POPC   GL156509  37.005   2.594   5.895
 4399POPC   GL256510  36.857   2.908   5.944
 4399POPC   C1A56511  37.152   2.770   6.329
 4399POPC   D2A56512  37.073   2.958   6.732
 4399POPC   C3A56513  37.304   2.886   7.110
 4399POPC   C4A56514  37.305   2.505   7.353
 4399POPC   C1B56515  36.581   2.566   6.206
 4399POPC   C2B56516  36.313   2.414   6.578
 4399POPC   C3B56517  36.517   2.382   7.004
 4399POPC   C4B56518  36.837   2.683   7.162
 4400POPC   NC356519   3.720  34.860   5.293
 4400POPC   PO456520   3.288  34.312   5.427
 4400POPC   GL156521   3.423  34.701   5.690
 4400POPC   GL256522   3.818  34.723   5.783
 4400POPC   C1A56523   3.435  34.773   6.142
 4400POPC   D2A56524   3.207  34.664   6.532
 4400POPC   C3A56525   3.387  34.670   6.919
 4400POPC   C4A56526   3.558  34.293   7.056
 4400POPC   C1B56527   3.843  34.465   6.186
 4400POPC   C2B56528   3.831  34.590   6.645
 4400POPC   C3B56529   3.858  34.736   7.086
 4400POPC   C4B56530   3.997  34.887   7.481
 4401POPC   NC356531  36.006  38.495   5.391
 4401POPC   PO456532  35.556  38.018   5.309
 4401POPC   GL156533  35.925  38.154   5.736
 4401POPC   GL256534  36.281  38.135   5.681
 4401POPC   C1A56535  35.966  38.486   6.094
 4401POPC   D2A56536  36.186  38.516   6.505
 4401POPC   C3A56537  36.005  38.604   6.943
 4401POPC   C4A56538  35.891  38.270   7.262
 4401POPC   C1B56539  36.292  38.087   6.123
 4401POPC   C2B56540  36.268  38.020   6.579
 4401POPC   C3B56541  36.364  38.245   6.980
 4401POPC   C4B56542  36.440  38.348   7.421
 4402POPC   NC356543  34.250  13.901   5.407
 4402POPC   PO456544  33.827  13.348   5.361
 4402POPC   GL156545  33.990  13.567   5.762
 4402POPC   GL256546  34.129  13.256   5.876
 4402POPC   C1A56547  33.937  13.854   6.166
 4402POPC   D2A56548  33.742  13.759   6.594
 4402POPC   C3A56549  33.887  13.915   7.003
 4402POPC   C4A56550  33.703  13.819   7.439
 4402POPC   C1B56551  34.060  13.382   6.297
 4402POPC   C2B56552  34.246  13.652   6.604
 4402POPC   C3B56553  34.178  13.496   7.025
 4402POPC   C4B56554  34.114  13.357   7.435
 4403POPC   NC356555   1.767  37.494   5.499
 4403POPC   PO456556   2.338  37.762   5.443
 4403POPC   GL156557   2.150  37.771   5.815
 4403POPC   GL256558   2.305  37.475   5.912
 4403POPC   C1A56559   2.116  37.840   6.255
 4403POPC   D2A56560   1.844  37.752   6.600
 4403POPC   C3A56561   2.015  37.943   6.945
 4403POPC   C4A56562   1.865  37.817   7.298
 4403POPC   C1B56563   2.260  37.268   6.325
 4403POPC   C2B56564   2.046  37.272   6.714
 4403POPC   C3B56565   2.136  37.435   7.100
 4403POPC   C4B56566   2.366  37.424   7.475
 4404POPC   NC356567  17.689  11.362   5.487
 4404POPC   PO456568  17.130  11.562   5.471
 4404POPC   GL156569  17.352  11.473   5.871
 4404POPC   GL256570  17.702  11.613   5.957
 4404POPC   C1A56571  17.485  11.167   6.212
 4404POPC   D2A56572  17.739  10.995   6.573
 4404POPC   C3A56573  17.562  11.076   6.978
 4404POPC   C4A56574  17.437  11.205   7.371
 4404POPC   C1B56575  17.465  11.696   6.310
 4404POPC   C2B56576  17.483  11.461   6.650
 4404POPC   C3B56577  17.415  11.574   7.041
 4404POPC   C4B56578  17.657  11.664   7.365
 4405POPC   NC356579   8.249  10.876   5.451
 4405POPC   PO456580   8.166  10.180   5.539
 4405POPC   GL156581   8.324  10.473   5.791
 4405POPC   GL256582   8.022  10.665   5.856
 4405POPC   C1A56583   8.343  10.488   6.243
 4405POPC   D2A56584   8.098  10.377   6.586
 4405POPC   C3A56585   8.259  10.340   6.964
 4405POPC   C4A56586   7.905  10.231   7.162
 4405POPC   C1B56587   8.062  10.938   6.223
 4405POPC   C2B56588   8.288  10.870   6.621
 4405POPC   C3B56589   8.193  10.829   7.060
 4405POPC   C4B56590   8.492  10.708   7.337
 4406POPC   NC356591  16.400  21.971   5.521
 4406POPC   PO456592  17.046  21.862   5.416
 4406POPC   GL156593  16.863  22.023   5.816
 4406POPC   GL256594  16.555  22.224   5.926
 4406POPC   C1A56595  17.006  22.097   6.231
 4406POPC   D2A56596  17.031  22.358   6.578
 4406POPC   C3A56597  16.969  22.105   6.914
 4406POPC   C4A56598  16.787  22.134   7.283
 4406POPC   C1B56599  16.527  21.821   6.151
 4406POPC   C2B56600  16.638  21.907   6.557
 4406POPC   C3B56601  16.441  21.928   6.942
 4406POPC   C4B56602  16.438  21.761   7.348
 4407POPC   NC356603   4.385   0.105   5.096
 4407POPC   PO456604   4.181   0.603   5.549
 4407POPC   GL156605   4.371   0.458   5.905
 4407POPC   GL256606   4.253   0.135   5.798
 4407POPC   C1A56607   4.299   0.566   6.345
 4407POPC   D2A56608   4.469   0.331   6.692
 4407POPC   C3A56609   4.340   0.447   7.074
 4407POPC   C4A56610   4.063   0.735   7.191
 4407POPC   C1B56611   3.944   0.264   6.103
 4407POPC   C2B56612   4.000   0.173   6.520
 4407POPC   C3B56613   3.912   0.214   6.939
 4407POPC   C4B56614   4.186  44.949   7.155
 4408POPC   NC356615  38.490  11.450   5.362
 4408POPC   PO456616  38.149  10.836   5.347
 4408POPC   GL156617  38.455  11.069   5.708
 4408POPC   GL256618  38.399  11.434   5.854
 4408POPC   C1A56619  38.725  11.181   6.103
 4408POPC   D2A56620  38.739  11.339   6.536
 4408POPC   C3A56621  38.604  11.225   6.944
 4408POPC   C4A56622  38.639  11.329   7.366
 4408POPC   C1B56623  38.403  11.632   6.259
 4408POPC   C2B56624  38.311  11.656   6.692
 4408POPC   C3B56625  38.145  11.427   7.053
 4408POPC   C4B56626  38.003  11.564   7.440
 4409POPC   NC356627   4.522  31.992   5.385
 4409POPC   PO456628   3.968  31.892   5.751
 4409POPC   GL156629   4.293  32.156   5.940
 4409POPC   GL256630   4.666  32.220   5.859
 4409POPC   C1A56631   4.134  32.287   6.348
 4409POPC   D2A56632   3.992  32.030   6.693
 4409POPC   C3A56633   4.175  32.199   7.046
 4409POPC   C4A56634   4.280  32.527   7.260
 4409POPC   C1B56635   4.612  32.430   6.257
 4409POPC   C2B56636   4.514  32.510   6.666
 4409POPC   C3B56637   4.718  32.329   7.016
 4409POPC   C4B56638   4.724  31.990   7.306
 4410POPC   NC356639   6.733  14.922   5.195
 4410POPC   PO456640   6.351  15.309   5.680
 4410POPC   GL156641   6.649  15.196   5.943
 4410POPC   GL256642   6.801  14.935   5.721
 4410POPC   C1A56643   6.427  15.138   6.343
 4410POPC   D2A56644   6.186  15.128   6.714
 4410POPC   C3A56645   6.370  15.254   7.091
 4410POPC   C4A56646   6.568  15.079   7.497
 4410POPC   C1B56647   7.013  14.898   6.119
 4410POPC   C2B56648   6.966  15.247   6.393
 4410POPC   C3B56649   6.985  15.210   6.850
 4410POPC   C4B56650   7.001  15.238   7.278
 4411POPC   NC356651  10.213  27.932   5.523
 4411POPC   PO456652  10.630  27.312   5.441
 4411POPC   GL156653  10.430  27.519   5.759
 4411POPC   GL256654  10.712  27.731   5.711
 4411POPC   C1A56655  10.363  27.591   6.214
 4411POPC   D2A56656  10.253  27.469   6.670
 4411POPC   C3A56657  10.314  27.772   7.046
 4411POPC   C4A56658  10.264  27.701   7.517
 4411POPC   C1B56659  10.863  27.455   6.032
 4411POPC   C2B56660  10.823  27.479   6.472
 4411POPC   C3B56661  10.709  27.307   6.863
 4411POPC   C4B56662  10.673  27.485   7.281
 4412POPC   NC356663  36.372  34.162   5.300
 4412POPC   PO456664  36.135  34.771   5.374
 4412POPC   GL156665  36.057  34.551   5.843
 4412POPC   GL256666  36.277  34.221   5.877
 4412POPC   C1A56667  36.218  34.527   6.316
 4412POPC   D2A56668  36.099  34.712   6.748
 4412POPC   C3A56669  35.814  34.490   7.070
 4412POPC   C4A56670  35.682  34.314   7.484
 4412POPC   C1B56671  35.949  34.117   6.193
 4412POPC   C2B56672  35.963  34.199   6.644
 4412POPC   C3B56673  36.279  34.271   6.950
 4412POPC   C4B56674  36.243  34.278   7.373
 4413POPC   NC356675  17.867  16.909   5.664
 4413POPC   PO456676  17.389  16.555   5.299
 4413POPC   GL156677  17.370  16.728   5.705
 4413POPC   GL256678  17.613  16.532   5.901
 4413POPC   C1A56679  17.300  16.895   6.127
 4413POPC   D2A56680  17.202  16.847   6.571
 4413POPC   C3A56681  17.529  16.750   6.846
 4413POPC   C4A56682  17.514  16.748   7.262
 4413POPC   C1B56683  17.432  16.292   6.249
 4413POPC   C2B56684  17.317  16.329   6.673
 4413POPC   C3B56685  17.387  16.277   7.100
 4413POPC   C4B56686  17.534  16.281   7.532
 4414POPC   NC356687  29.965  21.079   5.474
 4414POPC   PO456688  30.200  21.734   5.559
 4414POPC   GL156689  30.243  21.563   5.965
 4414POPC   GL256690  30.172  21.218   5.927
 4414POPC   C1A56691  30.022  21.442   6.356
 4414POPC   D2A56692  29.626  21.383   6.572
 4414POPC   C3A56693  29.781  21.307   6.984
 4414POPC   C4A56694  29.921  21.691   7.218
 4414POPC   C1B56695  30.295  20.997   6.273
 4414POPC   C2B56696  30.025  20.941   6.636
 4414POPC   C3B56697  30.181  20.925   7.024
 4414POPC   C4B56698  30.258  21.298   7.210
 4415POPC   NC356699   4.324  34.139   5.634
 4415POPC   PO456700   4.199  34.734   5.377
 4415POPC   GL156701   4.397  34.623   5.797
 4415POPC   GL256702   4.709  34.396   5.853
 4415POPC   C1A56703   4.344  34.544   6.227
 4415POPC   D2A56704   4.301  34.880   6.500
 4415POPC   C3A56705   4.312  34.674   6.861
 4415POPC   C4A56706   4.325  34.579   7.267
 4415POPC   C1B56707   4.714  34.181   6.262
 4415POPC   C2B56708   4.519  34.226   6.676
 4415POPC   C3B56709   4.735  34.360   7.068
 4415POPC   C4B56710   4.695  34.352   7.560
 4416POPC   NC356711  13.450   2.544   5.459
 4416POPC   PO456712  13.648   3.216   5.338
 4416POPC   GL156713  13.690   2.930   5.714
 4416POPC   GL256714  13.336   2.936   5.814
 4416POPC   C1A56715  13.712   2.626   6.093
 4416POPC   D2A56716  13.848   2.586   6.562
 4416POPC   C3A56717  13.625   2.479   6.965
 4416POPC   C4A56718  13.362   2.495   7.359
 4416POPC   C1B56719  13.341   2.918   6.279
 4416POPC   C2B56720  13.226   2.825   6.709
 4416POPC   C3B56721  13.428   2.933   7.099
 4416POPC   C4B56722  13.801   3.101   7.328
 4417POPC   NC356723   3.975  38.656   5.353
 4417POPC   PO456724   4.656  38.405   5.359
 4417POPC   GL156725   4.509  38.396   5.816
 4417POPC   GL256726   4.252  38.693   5.803
 4417POPC   C1A56727   4.364  38.114   6.198
 4417POPC   D2A56728   4.339  37.963   6.643
 4417POPC   C3A56729   4.154  38.232   6.998
 4417POPC   C4A56730   4.413  38.377   7.369
 4417POPC   C1B56731   4.279  38.625   6.225
 4417POPC   C2B56732   4.332  38.492   6.618
 4417POPC   C3B56733   4.361  38.740   6.991
 4417POPC   C4B56734   4.209  38.844   7.411
 4418POPC   NC356735  23.538  17.955   5.534
 4418POPC   PO456736  23.887  17.362   5.471
 4418POPC   GL156737  23.706  17.514   5.801
 4418POPC   GL256738  23.432  17.305   5.818
 4418POPC   C1A56739  23.806  17.713   6.178
 4418POPC   D2A56740  23.855  17.477   6.561
 4418POPC   C3A56741  23.846  17.653   6.967
 4418POPC   C4A56742  23.778  17.540   7.372
 4418POPC   C1B56743  23.607  17.165   6.208
 4418POPC   C2B56744  23.437  17.149   6.626
 4418POPC   C3B56745  23.398  16.980   7.029
 4418POPC   C4B56746  23.630  17.021   7.397
 4419POPC   NC356747  22.526  29.583   5.479
 4419POPC   PO456748  23.144  29.792   5.224
 4419POPC   GL156749  22.946  29.878   5.649
 4419POPC   GL256750  22.965  30.255   5.723
 4419POPC   C1A56751  22.904  29.905   6.117
 4419POPC   D2A56752  23.162  30.183   6.402
 4419POPC   C3A56753  23.066  30.241   6.855
 4419POPC   C4A56754  22.984  29.943   7.191
 4419POPC   C1B56755  22.748  30.404   6.116
 4419POPC   C2B56756  22.497  30.270   6.463
 4419POPC   C3B56757  22.563  30.073   6.880
 4419POPC   C4B56758  22.679  30.321   7.266
 4420POPC   NC356759  17.665  14.081   5.138
 4420POPC   PO456760  17.661  13.436   5.328
 4420POPC   GL156761  17.557  13.417   5.771
 4420POPC   GL256762  17.332  13.659   5.876
 4420POPC   C1A56763  17.657  13.529   6.235
 4420POPC   D2A56764  17.343  13.717   6.542
 4420POPC   C3A56765  17.507  13.810   6.986
 4420POPC   C4A56766  17.756  13.495   7.212
 4420POPC   C1B56767  17.101  13.406   6.164
 4420POPC   C2B56768  17.082  13.255   6.579
 4420POPC   C3B56769  17.273  13.358   6.950
 4420POPC   C4B56770  17.154  13.295   7.355
 4421POPC   NC356771   3.328  25.665   5.607
 4421POPC   PO456772   2.864  26.155   5.470
 4421POPC   GL156773   2.849  26.015   5.873
 4421POPC   GL256774   3.122  26.152   5.998
 4421POPC   C1A56775   2.711  25.935   6.290
 4421POPC   D2A56776   2.598  26.185   6.693
 4421POPC   C3A56777   2.674  26.013   7.085
 4421POPC   C4A56778   2.813  25.799   7.476
 4421POPC   C1B56779   3.011  26.330   6.399
 4421POPC   C2B56780   3.105  26.202   6.835
 4421POPC   C3B56781   3.130  26.168   7.290
 4421POPC   C4B56782   3.182  26.332   7.749
 4422POPC   NC356783  29.458  37.801   5.427
 4422POPC   PO456784  28.955  37.354   5.508
 4422POPC   GL156785  28.990  37.582   5.899
 4422POPC   GL256786  29.108  37.913   5.881
 4422POPC   C1A56787  29.251  37.539   6.271
 4422POPC   D2A56788  29.556  37.770   6.429
 4422POPC   C3A56789  29.477  37.715   6.878
 4422POPC   C4A56790  29.489  37.502   7.287
 4422POPC   C1B56791  28.862  37.879   6.301
 4422POPC   C2B56792  28.968  37.832   6.747
 4422POPC   C3B56793  29.054  37.761   7.192
 4422POPC   C4B56794  28.940  37.892   7.569
 4423POPC   NC356795   2.690   6.243   5.567
 4423POPC   PO456796   3.227   6.593   5.524
 4423POPC   GL156797   2.891   6.624   5.857
 4423POPC   GL256798   2.546   6.793   5.830
 4423POPC   C1A56799   2.933   6.471   6.270
 4423POPC   D2A56800   3.081   6.197   6.577
 4423POPC   C3A56801   2.930   6.394   6.922
 4423POPC   C4A56802   3.058   6.651   7.257
 4423POPC   C1B56803   2.428   6.558   6.228
 4423POPC   C2B56804   2.465   6.414   6.678
 4423POPC   C3B56805   2.460   6.478   7.144
 4423POPC   C4B56806   2.407   6.415   7.607
 4424POPC   NC356807  14.246  36.927   5.393
 4424POPC   PO456808  14.637  36.462   5.430
 4424POPC   GL156809  14.597  36.606   5.862
 4424POPC   GL256810  14.301  36.828   5.893
 4424POPC   C1A56811  14.537  36.684   6.323
 4424POPC   D2A56812  14.626  37.015   6.635
 4424POPC   C3A56813  14.462  36.849   7.013
 4424POPC   C4A56814  14.655  36.644   7.359
 4424POPC   C1B56815  14.344  37.158   6.223
 4424POPC   C2B56816  14.115  37.139   6.585
 4424POPC   C3B56817  14.145  37.284   6.987
 4424POPC   C4B56818  14.217  37.116   7.366
 4425POPC   NC356819  17.380  26.501   5.249
 4425POPC   PO456820  17.835  26.871   5.470
 4425POPC   GL156821  17.538  26.722   5.748
 4425POPC   GL256822  17.492  27.018   5.909
 4425POPC   C1A56823  17.541  26.610   6.208
 4425POPC   D2A56824  17.717  26.826   6.586
 4425POPC   C3A56825  17.423  26.814   6.939
 4425POPC   C4A56826  17.299  26.853   7.359
 4425POPC   C1B56827  17.376  27.093   6.318
 4425POPC   C2B56828  17.464  27.277   6.708
 4425POPC   C3B56829  17.252  27.312   7.120
 4425POPC   C4B56830  17.324  27.293   7.602
 4426POPC   NC356831  38.019  17.884   5.748
 4426POPC   PO456832  38.644  18.039   5.465
 4426POPC   GL156833  38.595  18.388   5.785
 4426POPC   GL256834  38.253  18.374   5.778
 4426POPC   C1A56835  38.392  18.357   6.252
 4426POPC   D2A56836  38.171  18.243   6.636
 4426POPC   C3A56837  38.448  18.163   6.960
 4426POPC   C4A56838  38.569  18.335   7.369
 4426POPC   C1B56839  38.083  18.704   6.013
 4426POPC   C2B56840  38.053  18.698   6.462
 4426POPC   C3B56841  38.079  18.695   6.899
 4426POPC   C4B56842  38.066  18.409   7.219
 4427POPC   NC356843  41.271  25.615   5.489
 4427POPC   PO456844  41.701  25.166   5.125
 4427POPC   GL156845  41.742  25.185   5.653
 4427POPC   GL256846  41.442  25.245   5.861
 4427POPC   C1A56847  41.843  25.232   6.157
 4427POPC   D2A56848  41.557  25.321   6.552
 4427POPC   C3A56849  41.607  25.231   7.011
 4427POPC   C4A56850  41.305  25.403   7.329
 4427POPC   C1B56851  41.366  24.976   6.224
 4427POPC   C2B56852  41.365  24.830   6.660
 4427POPC   C3B56853  41.208  24.908   7.050
 4427POPC   C4B56854  41.395  24.930   7.430
 4428POPC   NC356855  40.938  24.053   5.408
 4428POPC   PO456856  40.579  23.544   5.182
 4428POPC   GL156857  40.668  23.666   5.639
 4428POPC   GL256858  40.434  23.529   5.844
 4428POPC   C1A56859  40.794  23.822   6.099
 4428POPC   D2A56860  41.007  23.681   6.510
 4428POPC   C3A56861  40.860  23.933   6.862
 4428POPC   C4A56862  40.874  23.763   7.250
 4428POPC   C1B56863  40.285  23.379   6.232
 4428POPC   C2B56864  40.120  23.304   6.634
 4428POPC   C3B56865  40.326  23.206   6.995
 4428POPC   C4B56866  40.457  23.419   7.372
 4429POPC   NC356867   3.091  39.028   5.635
 4429POPC   PO456868   2.781  39.599   5.420
 4429POPC   GL156869   2.721  39.363   5.802
 4429POPC   GL256870   2.452  39.559   5.922
 4429POPC   C1A56871   2.957  39.286   6.229
 4429POPC   D2A56872   3.140  39.388   6.646
 4429POPC   C3A56873   2.909  39.293   7.038
 4429POPC   C4A56874   2.975  38.967   7.320
 4429POPC   C1B56875   2.463  39.213   6.219
 4429POPC   C2B56876   2.655  39.104   6.633
 4429POPC   C3B56877   2.513  38.964   7.054
 4429POPC   C4B56878   2.338  39.220   7.422
 4430POPC   NC356879  28.723   6.928   5.308
 4430POPC   PO456880  27.986   6.742   5.239
 4430POPC   GL156881  28.116   6.919   5.734
 4430POPC   GL256882  28.464   6.886   5.857
 4430POPC   C1A56883  28.117   6.716   6.223
 4430POPC   D2A56884  28.145   6.316   6.544
 4430POPC   C3A56885  28.081   6.389   7.015
 4430POPC   C4A56886  28.311   6.727   7.210
 4430POPC   C1B56887  28.630   6.661   6.218
 4430POPC   C2B56888  28.494   6.714   6.624
 4430POPC   C3B56889  28.573   6.392   6.885
 4430POPC   C4B56890  28.524   6.203   7.226
 4431POPC   NC356891  23.243  27.093   5.434
 4431POPC   PO456892  22.807  26.511   5.572
 4431POPC   GL156893  23.039  26.780   5.782
 4431POPC   GL256894  22.882  27.080   5.799
 4431POPC   C1A56895  23.214  26.764   6.178
 4431POPC   D2A56896  23.028  26.488   6.478
 4431POPC   C3A56897  23.105  26.652   6.856
 4431POPC   C4A56898  22.860  26.734   7.217
 4431POPC   C1B56899  22.995  27.248   6.193
 4431POPC   C2B56900  23.246  27.137   6.565
 4431POPC   C3B56901  23.084  27.150   6.974
 4431POPC   C4B56902  22.739  27.255   7.229
 4432POPC   NC356903  24.969  12.252   5.363
 4432POPC   PO456904  25.524  11.920   5.547
 4432POPC   GL156905  25.220  12.123   5.832
 4432POPC   GL256906  25.381  12.418   5.850
 4432POPC   C1A56907  25.090  12.294   6.268
 4432POPC   D2A56908  24.898  12.383   6.700
 4432POPC   C3A56909  25.142  12.224   7.095
 4432POPC   C4A56910  25.102  12.020   7.532
 4432POPC   C1B56911  25.610  12.263   6.209
 4432POPC   C2B56912  25.456  12.204   6.633
 4432POPC   C3B56913  25.545  11.918   6.957
 4432POPC   C4B56914  25.569  12.050   7.372
 4433POPC   NC356915  23.522  29.577   5.048
 4433POPC   PO456916  23.861  30.110   5.441
 4433POPC   GL156917  23.739  30.150   5.862
 4433POPC   GL256918  23.415  29.998   5.831
 4433POPC   C1A56919  23.742  30.109   6.318
 4433POPC   D2A56920  23.949  29.953   6.685
 4433POPC   C3A56921  23.853  30.171   7.047
 4433POPC   C4A56922  23.475  30.049   7.162
 4433POPC   C1B56923  23.399  29.746   6.210
 4433POPC   C2B56924  23.452  29.797   6.659
 4433POPC   C3B56925  23.420  29.541   7.020
 4433POPC   C4B56926  23.472  29.559   7.456
 4434POPC   NC356927   0.260  14.620   5.346
 4434POPC   PO456928   0.488  14.170   5.733
 4434POPC   GL156929   0.488  14.524   5.930
 4434POPC   GL256930   0.163  14.726   5.835
 4434POPC   C1A56931   0.607  14.445   6.371
 4434POPC   D2A56932   0.286  14.385   6.708
 4434POPC   C3A56933   0.355  14.161   7.077
 4434POPC   C4A56934   0.743  14.048   7.235
 4434POPC   C1B56935   0.111  14.610   6.267
 4434POPC   C2B56936   0.185  14.877   6.626
 4434POPC   C3B56937   0.217  14.753   7.065
 4434POPC   C4B56938   0.238  14.516   7.445
 4435POPC   NC356939  21.084  44.197   5.407
 4435POPC   PO456940  20.430  43.900   5.389
 4435POPC   GL156941  20.615  43.819   5.778
 4435POPC   GL256942  20.766  44.099   5.795
 4435POPC   C1A56943  20.700  43.772   6.197
 4435POPC   D2A56944  20.525  43.897   6.547
 4435POPC   C3A56945  20.763  43.758   6.873
 4435POPC   C4A56946  20.757  43.657   7.311
 4435POPC   C1B56947  20.541  44.255   6.168
 4435POPC   C2B56948  20.647  44.387   6.584
 4435POPC   C3B56949  20.451  44.184   6.950
 4435POPC   C4B56950  20.773  44.145   7.209
 4436POPC   NC356951   1.948  12.704   5.355
 4436POPC   PO456952   1.986  13.360   5.498
 4436POPC   GL156953   1.926  13.040   5.839
 4436POPC   GL256954   1.938  12.660   5.864
 4436POPC   C1A56955   2.066  12.946   6.268
 4436POPC   D2A56956   1.868  12.876   6.656
 4436POPC   C3A56957   2.015  13.010   7.054
 4436POPC   C4A56958   1.926  13.137   7.489
 4436POPC   C1B56959   1.913  12.405   6.253
 4436POPC   C2B56960   1.677  12.398   6.634
 4436POPC   C3B56961   1.785  12.537   7.045
 4436POPC   C4B56962   2.159  12.511   7.261
 4437POPC   NC356963   3.547  33.897   5.497
 4437POPC   PO456964   3.975  33.441   5.204
 4437POPC   GL156965   3.707  33.474   5.758
 4437POPC   GL256966   3.380  33.673   5.903
 4437POPC   C1A56967   3.780  33.660   6.208
 4437POPC   D2A56968   3.811  33.514   6.644
 4437POPC   C3A56969   3.701  33.786   6.988
 4437POPC   C4A56970   3.851  34.008   7.354
 4437POPC   C1B56971   3.324  33.403   6.201
 4437POPC   C2B56972   3.303  33.337   6.612
 4437POPC   C3B56973   3.216  33.577   6.972
 4437POPC   C4B56974   3.371  33.639   7.364
 4438POPC   NC356975  42.032  21.562   5.597
 4438POPC   PO456976  42.413  22.075   5.301
 4438POPC   GL156977  42.458  22.266   5.707
 4438POPC   GL256978  42.646  21.969   5.790
 4438POPC   C1A56979  42.235  22.312   6.110
 4438POPC   D2A56980  42.120  22.106   6.495
 4438POPC   C3A56981  42.086  22.336   6.882
 4438POPC   C4A56982  42.290  22.178   7.293
 4438POPC   C1B56983  42.492  21.852   6.190
 4438POPC   C2B56984  42.510  21.794   6.644
 4438POPC   C3B56985  42.684  21.993   7.020
 4438POPC   C4B56986  42.649  21.841   7.459
 4439POPC   NC356987  11.341  10.078   5.451
 4439POPC   PO456988  11.610   9.457   5.217
 4439POPC   GL156989  11.371   9.579   5.648
 4439POPC   GL256990  11.601   9.780   5.799
 4439POPC   C1A56991  11.145   9.824   6.031
 4439POPC   D2A56992  11.187   9.960   6.453
 4439POPC   C3A56993  11.187   9.747   6.841
 4439POPC   C4A56994  11.107   9.866   7.277
 4439POPC   C1B56995  11.637   9.859   6.243
 4439POPC   C2B56996  11.657   9.939   6.709
 4439POPC   C3B56997  11.596   9.732   7.139
 4439POPC   C4B56998  11.531   9.743   7.632
 4440POPC   NC356999  21.884   5.517   5.528
 4440POPC   PO457000  22.227   4.935   5.537
 4440POPC   GL157001  22.095   5.214   5.881
 4440POPC   GL257002  21.880   5.015   6.069
 4440POPC   C1A57003  22.111   5.436   6.295
 4440POPC   D2A57004  22.370   5.327   6.654
 4440POPC   C3A57005  22.180   5.281   7.057
 4440POPC   C4A57006  22.399   5.217   7.446
 4440POPC   C1B57007  22.314   4.954   6.278
 4440POPC   C2B57008  22.492   4.789   6.671
 4440POPC   C3B57009  22.363   4.765   7.109
 4440POPC   C4B57010  22.022   4.888   7.364
 4441POPC   NC357011  39.667  34.816   5.545
 4441POPC   PO457012  40.308  34.615   5.575
 4441POPC   GL157013  39.941  34.483   5.819
 4441POPC   GL257014  39.984  34.147   5.879
 4441POPC   C1A57015  39.790  34.530   6.227
 4441POPC   D2A57016  40.065  34.722   6.545
 4441POPC   C3A57017  39.893  34.735   6.955
 4441POPC   C4A57018  39.653  34.397   7.101
 4441POPC   C1B57019  40.277  34.319   6.189
 4441POPC   C2B57020  40.530  34.440   6.548
 4441POPC   C3B57021  40.359  34.371   6.960
 4441POPC   C4B57022  40.140  34.467   7.326
 4442POPC   NC357023  30.335  23.065   5.532
 4442POPC   PO457024  31.011  23.105   5.502
 4442POPC   GL157025  30.758  22.921   5.845
 4442POPC   GL257026  30.977  23.123   6.016
 4442POPC   C1A57027  30.736  22.786   6.299
 4442POPC   D2A57028  31.027  22.850   6.665
 4442POPC   C3A57029  30.792  22.955   7.053
 4442POPC   C4A57030  30.353  22.877   7.021
 4442POPC   C1B57031  31.003  23.364   6.371
 4442POPC   C2B57032  31.097  23.344   6.802
 4442POPC   C3B57033  30.949  23.468   7.187
 4442POPC   C4B57034  30.873  23.238   7.553
 4443POPC   NC357035  22.355  23.226   5.216
 4443POPC   PO457036  21.899  22.824   5.484
 4443POPC   GL157037  22.060  23.046   5.794
 4443POPC   GL257038  22.366  23.109   5.705
 4443POPC   C1A57039  21.905  22.950   6.205
 4443POPC   D2A57040  22.008  22.654   6.520
 4443POPC   C3A57041  21.875  22.822   6.892
 4443POPC   C4A57042  22.060  22.724   7.258
 4443POPC   C1B57043  22.409  22.884   6.100
 4443POPC   C2B57044  22.388  23.012   6.520
 4443POPC   C3B57045  22.416  22.807   6.893
 4443POPC   C4B57046  22.564  22.816   7.309
 4444POPC   NC357047  38.599  40.022   5.467
 4444POPC   PO457048  38.132  40.394   5.683
 4444POPC   GL157049  38.382  40.165   5.942
 4444POPC   GL257050  38.387  39.818   5.928
 4444POPC   C1A57051  38.704  40.110   6.220
 4444POPC   D2A57052  38.804  39.855   6.564
 4444POPC   C3A57053  38.603  40.021   6.928
 4444POPC   C4A57054  38.752  39.941   7.335
 4444POPC   C1B57055  38.272  39.887   6.400
 4444POPC   C2B57056  38.105  39.720   6.809
 4444POPC   C3B57057  38.267  39.785   7.244
 4444POPC   C4B57058  38.052  39.889   7.663
 4445POPC   NC357059  17.624   3.268   5.403
 4445POPC   PO457060  17.080   3.710   5.479
 4445POPC   GL157061  17.345   3.523   5.764
 4445POPC   GL257062  17.711   3.645   5.743
 4445POPC   C1A57063  17.323   3.292   6.149
 4445POPC   D2A57064  17.573   3.347   6.520
 4445POPC   C3A57065  17.417   3.529   6.908
 4445POPC   C4A57066  17.235   3.733   7.214
 4445POPC   C1B57067  17.595   3.732   6.170
 4445POPC   C2B57068  17.637   3.851   6.608
 4445POPC   C3B57069  17.640   4.002   7.061
 4445POPC   C4B57070  17.513   4.103   7.521
 4446POPC   NC357071  16.320  25.525   5.000
 4446POPC   PO457072  16.881  25.418   5.423
 4446POPC   GL157073  16.651  25.240   5.782
 4446POPC   GL257074  16.512  25.522   5.981
 4446POPC   C1A57075  16.648  25.095   6.188
 4446POPC   D2A57076  16.847  25.171   6.564
 4446POPC   C3A57077  16.868  24.873   6.863
 4446POPC   C4A57078  16.676  25.192   7.108
 4446POPC   C1B57079  16.380  25.737   6.299
 4446POPC   C2B57080  16.423  25.540   6.697
 4446POPC   C3B57081  16.495  25.682   7.105
 4446POPC   C4B57082  16.498  25.674   7.560
 4447POPC   NC357083  36.384  36.835   5.209
 4447POPC   PO457084  35.894  37.167   5.349
 4447POPC   GL157085  35.951  36.888   5.731
 4447POPC   GL257086  36.320  36.756   5.763
 4447POPC   C1A57087  35.857  36.885   6.205
 4447POPC   D2A57088  36.154  36.766   6.557
 4447POPC   C3A57089  36.246  36.827   7.012
 4447POPC   C4A57090  36.268  36.860   7.481
 4447POPC   C1B57091  36.370  37.049   6.135
 4447POPC   C2B57092  36.578  37.090   6.556
 4447POPC   C3B57093  36.639  37.169   7.006
 4447POPC   C4B57094  36.284  37.329   7.255
 4448POPC   NC357095  41.779  34.951   5.488
 4448POPC   PO457096  41.288  34.486   5.419
 4448POPC   GL157097  41.306  34.516   5.835
 4448POPC   GL257098  41.672  34.563   5.836
 4448POPC   C1A57099  41.391  34.625   6.258
 4448POPC   D2A57100  41.480  34.782   6.659
 4448POPC   C3A57101  41.591  34.462   6.951
 4448POPC   C4A57102  41.243  34.372   7.269
 4448POPC   C1B57103  41.848  34.836   6.185
 4448POPC   C2B57104  41.880  35.094   6.571
 4448POPC   C3B57105  41.809  35.010   6.976
 4448POPC   C4B57106  41.481  34.851   7.224
 4449POPC   NC357107  36.931  21.026   5.482
 4449POPC   PO457108  36.722  20.318   5.576
 4449POPC   GL157109  36.898  20.627   5.820
 4449POPC   GL257110  36.612  20.836   5.840
 4449POPC   C1A57111  37.126  20.606   6.205
 4449POPC   D2A57112  36.984  20.369   6.587
 4449POPC   C3A57113  36.943  20.518   6.993
 4449POPC   C4A57114  37.187  20.912   7.076
 4449POPC   C1B57115  36.680  20.807   6.274
 4449POPC   C2B57116  36.839  20.968   6.672
 4449POPC   C3B57117  36.685  20.931   7.115
 4449POPC   C4B57118  36.567  20.666   7.464
 4450POPC   NC357119   4.362  19.438   5.503
 4450POPC   PO457120   4.632  19.963   5.313
 4450POPC   GL157121   4.321  19.920   5.707
 4450POPC   GL257122   4.088  19.625   5.882
 4450POPC   C1A57123   4.128  20.052   6.124
 4450POPC   D2A57124   4.123  19.776   6.477
 4450POPC   C3A57125   4.171  20.006   6.843
 4450POPC   C4A57126   4.301  20.106   7.233
 4450POPC   C1B57127   4.492  19.664   6.143
 4450POPC   C2B57128   4.675  19.614   6.578
 4450POPC   C3B57129   4.520  19.662   7.012
 4450POPC   C4B57130   4.635  19.525   7.430
 4451POPC   NC357131  22.470  30.595   5.533
 4451POPC   PO457132  21.987  30.477   5.139
 4451POPC   GL157133  22.019  30.454   5.691
 4451POPC   GL257134  22.262  30.360   5.918
 4451POPC   C1A57135  21.831  30.543   6.126
 4451POPC   D2A57136  21.992  30.468   6.542
 4451POPC   C3A57137  21.942  30.703   6.907
 4451POPC   C4A57138  21.762  30.583   7.256
 4451POPC   C1B57139  22.309  30.686   6.190
 4451POPC   C2B57140  22.373  30.792   6.597
 4451POPC   C3B57141  22.418  30.562   6.910
 4451POPC   C4B57142  22.271  30.605   7.325
 4452POPC   NC357143  12.927   9.863   5.126
 4452POPC   PO457144  13.491   9.515   5.342
 4452POPC   GL157145  13.641   9.522   5.771
 4452POPC   GL257146  13.937   9.324   5.813
 4452POPC   C1A57147  13.616   9.770   6.184
 4452POPC   D2A57148  13.632  10.069   6.567
 4452POPC   C3A57149  13.634   9.949   7.012
 4452POPC   C4A57150  13.400   9.651   7.239
 4452POPC   C1B57151  13.920   9.355   6.279
 4452POPC   C2B57152  13.760   9.532   6.646
 4452POPC   C3B57153  13.998   9.607   6.994
 4452POPC   C4B57154  13.923   9.641   7.421
 4453POPC   NC357155  44.448  29.384   5.339
 4453POPC   PO457156  45.000  29.074   5.532
 4453POPC   GL157157  44.607  29.127   5.744
 4453POPC   GL257158  44.703  29.426   5.826
 4453POPC   C1A57159  44.382  29.141   6.129
 4453POPC   D2A57160  44.506  28.824   6.453
 4453POPC   C3A57161  44.538  28.917   6.896
 4453POPC   C4A57162  44.475  29.303   7.090
 4453POPC   C1B57163  44.865  29.192   6.199
 4453POPC   C2B57164  44.759  29.292   6.607
 4453POPC   C3B57165  44.968  29.230   6.986
 4453POPC   C4B57166  44.930  29.378   7.389
 4454POPC   NC357167  22.730  19.329   5.457
 4454POPC   PO457168  23.349  19.418   5.730
 4454POPC   GL157169  22.997  19.201   5.879
 4454POPC   GL257170  22.883  18.900   5.684
 4454POPC   C1A57171  22.920  19.195   6.322
 4454POPC   D2A57172  23.083  18.898   6.631
 4454POPC   C3A57173  23.066  19.121   7.025
 4454POPC   C4A57174  22.682  19.272   7.239
 4454POPC   C1B57175  22.643  18.860   6.059
 4454POPC   C2B57176  22.565  18.819   6.512
 4454POPC   C3B57177  22.658  18.825   6.969
 4454POPC   C4B57178  22.915  18.770   7.365
 4455POPC   NC357179  29.199  28.732   5.354
 4455POPC   PO457180  29.358  29.255   5.638
 4455POPC   GL157181  29.227  28.891   5.864
 4455POPC   GL257182  28.860  28.917   5.831
 4455POPC   C1A57183  29.350  28.897   6.287
 4455POPC   D2A57184  29.272  29.211   6.609
 4455POPC   C3A57185  29.343  29.049   6.986
 4455POPC   C4A57186  29.290  29.185   7.385
 4455POPC   C1B57187  28.900  29.145   6.253
 4455POPC   C2B57188  28.735  29.176   6.702
 4455POPC   C3B57189  28.891  29.329   7.099
 4455POPC   C4B57190  28.921  29.524   7.526
 4456POPC   NC357191  14.062   3.001   5.333
 4456POPC   PO457192  14.741   2.813   5.439
 4456POPC   GL157193  14.556   2.779   5.886
 4456POPC   GL257194  14.191   2.720   5.828
 4456POPC   C1A57195  14.479   2.827   6.372
 4456POPC   D2A57196  14.744   2.734   6.745
 4456POPC   C3A57197  14.630   2.738   7.190
 4456POPC   C4A57198  14.274   2.929   7.434
 4456POPC   C1B57199  14.196   2.445   6.202
 4456POPC   C2B57200  14.278   2.262   6.602
 4456POPC   C3B57201  14.194   2.491   7.000
 4456POPC   C4B57202  14.320   2.397   7.412
 4457POPC   NC357203   3.207  44.951   5.459
 4457POPC   PO457204   3.488  44.381   5.536
 4457POPC   GL157205   3.481  44.685   5.847
 4457POPC   GL257206   3.793  44.866   5.775
 4457POPC   C1A57207   3.305  44.698   6.264
 4457POPC   D2A57208   3.180  44.599   6.678
 4457POPC   C3A57209   3.405  44.708   7.040
 4457POPC   C4A57210   3.667  44.944   7.311
 4457POPC   C1B57211   3.827  44.773   6.218
 4457POPC   C2B57212   3.698  44.435   6.491
 4457POPC   C3B57213   3.693  44.285   6.896
 4457POPC   C4B57214   3.901  44.514   7.202
 4458POPC   NC357215  41.546  27.350   5.446
 4458POPC   PO457216  41.818  27.972   5.260
 4458POPC   GL157217  41.725  27.909   5.740
 4458POPC   GL257218  41.401  27.722   5.785
 4458POPC   C1A57219  41.767  27.612   6.140
 4458POPC   D2A57220  41.606  27.661   6.549
 4458POPC   C3A57221  41.863  27.606   6.873
 4458POPC   C4A57222  41.793  27.584   7.295
 4458POPC   C1B57223  41.252  27.588   6.181
 4458POPC   C2B57224  41.095  27.593   6.598
 4458POPC   C3B57225  41.319  27.641   6.983
 4458POPC   C4B57226  41.226  27.402   7.293
 4459POPC   NC357227  26.760  36.276   5.477
 4459POPC   PO457228  26.503  35.652   5.500
 4459POPC   GL157229  26.545  35.929   5.890
 4459POPC   GL257230  26.544  36.295   5.956
 4459POPC   C1A57231  26.934  35.989   6.179
 4459POPC   D2A57232  27.160  35.862   6.574
 4459POPC   C3A57233  26.955  36.033   6.976
 4459POPC   C4A57234  26.664  35.990   7.315
 4459POPC   C1B57235  26.840  36.483   6.174
 4459POPC   C2B57236  26.784  36.320   6.565
 4459POPC   C3B57237  26.727  36.526   6.920
 4459POPC   C4B57238  27.055  36.545   7.151
 4460POPC   NC357239  27.598  41.319   5.235
 4460POPC   PO457240  27.071  41.690   5.457
 4460POPC   GL157241  27.494  41.608   5.669
 4460POPC   GL257242  27.435  41.875   5.882
 4460POPC   C1A57243  27.803  41.586   6.063
 4460POPC   D2A57244  27.628  41.784   6.477
 4460POPC   C3A57245  27.644  41.586   6.876
 4460POPC   C4A57246  27.773  41.690   7.310
 4460POPC   C1B57247  27.320  41.512   6.166
 4460POPC   C2B57248  27.174  41.374   6.538
 4460POPC   C3B57249  27.142  41.353   6.961
 4460POPC   C4B57250  27.294  41.485   7.337
 4461POPC   NC357251  22.563  12.206   5.205
 4461POPC   PO457252  22.170  11.962   5.741
 4461POPC   GL157253  21.894  12.040   6.053
 4461POPC   GL257254  21.969  12.396   6.106
 4461POPC   C1A57255  21.930  11.891   6.476
 4461POPC   D2A57256  22.292  11.982   6.744
 4461POPC   C3A57257  22.109  12.349   6.878
 4461POPC   C4A57258  22.039  12.088   7.247
 4461POPC   C1B57259  22.373  12.259   6.328
 4461POPC   C2B57260  22.588  12.454   6.688
 4461POPC   C3B57261  22.544  12.288   7.127
 4461POPC   C4B57262  22.364  12.301   7.575
 4462POPC   NC357263  15.337  13.791   5.363
 4462POPC   PO457264  14.740  13.496   5.207
 4462POPC   GL157265  14.952  13.540   5.645
 4462POPC   GL257266  14.944  13.882   5.682
 4462POPC   C1A57267  15.085  13.376   6.085
 4462POPC   D2A57268  15.136  13.600   6.478
 4462POPC   C3A57269  15.323  13.521   6.891
 4462POPC   C4A57270  15.161  13.324   7.245
 4462POPC   C1B57271  15.206  13.910   6.038
 4462POPC   C2B57272  15.197  14.107   6.426
 4462POPC   C3B57273  15.114  13.986   6.834
 4462POPC   C4B57274  15.006  13.993   7.232
 4463POPC   NC357275  26.409   1.033   5.306
 4463POPC   PO457276  25.927   1.495   5.244
 4463POPC   GL157277  26.067   1.304   5.640
 4463POPC   GL257278  26.351   1.463   5.726
 4463POPC   C1A57279  26.091   1.029   6.030
 4463POPC   D2A57280  26.102   1.117   6.481
 4463POPC   C3A57281  26.001   1.108   6.925
 4463POPC   C4A57282  26.369   1.165   7.203
 4463POPC   C1B57283  26.221   1.520   6.128
 4463POPC   C2B57284  26.092   1.656   6.538
 4463POPC   C3B57285  26.152   1.597   6.988
 4463POPC   C4B57286  25.940   1.375   7.365
 4464POPC   NC357287  32.618  43.122   5.482
 4464POPC   PO457288  32.147  42.660   5.242
 4464POPC   GL157289  32.242  42.848   5.696
 4464POPC   GL257290  32.272  43.217   5.825
 4464POPC   C1A57291  32.411  42.860   6.144
 4464POPC   D2A57292  32.106  43.022   6.455
 4464POPC   C3A57293  32.200  42.979   6.878
 4464POPC   C4A57294  32.231  43.179   7.252
 4464POPC   C1B57295  32.348  43.434   6.242
 4464POPC   C2B57296  32.346  43.454   6.723
 4464POPC   C3B57297  32.407  43.622   7.152
 4464POPC   C4B57298  32.318  43.581   7.656
 4465POPC   NC357299  32.026  10.684   5.395
 4465POPC   PO457300  32.673  10.606   5.203
 4465POPC   GL157301  32.497  10.543   5.803
 4465POPC   GL257302  32.109  10.613   5.900
 4465POPC   C1A57303  32.439  10.662   6.284
 4465POPC   D2A57304  32.287  10.499   6.727
 4465POPC   C3A57305  32.482  10.735   7.068
 4465POPC   C4A57306  32.401  10.810   7.503
 4465POPC   C1B57307  31.936  10.564   6.345
 4465POPC   C2B57308  31.771  10.621   6.781
 4465POPC   C3B57309  31.995  10.584   7.146
 4465POPC   C4B57310  32.275  10.295   7.276
 4466POPC   NC357311  23.394  24.363   5.359
 4466POPC   PO457312  22.861  24.110   5.265
 4466POPC   GL157313  22.975  24.351   5.708
 4466POPC   GL257314  23.291  24.577   5.821
 4466POPC   C1A57315  22.863  24.188   6.149
 4466POPC   D2A57316  22.603  24.123   6.572
 4466POPC   C3A57317  22.878  24.098   6.948
 4466POPC   C4A57318  22.968  24.316   7.330
 4466POPC   C1B57319  23.042  24.711   6.165
 4466POPC   C2B57320  22.946  24.507   6.555
 4466POPC   C3B57321  22.844  24.645   6.927
 4466POPC   C4B57322  22.975  25.072   7.027
 4467POPC   NC357323  37.403  28.149   5.459
 4467POPC   PO457324  37.917  28.040   5.805
 4467POPC   GL157325  37.788  28.419   6.050
 4467POPC   GL257326  37.453  28.363   5.931
 4467POPC   C1A57327  37.991  28.815   6.256
 4467POPC   D2A57328  37.998  28.879   6.715
 4467POPC   C3A57329  37.591  28.691   6.832
 4467POPC   C4A57330  37.318  28.509   7.155
 4467POPC   C1B57331  37.342  28.122   6.301
 4467POPC   C2B57332  37.519  28.138   6.741
 4467POPC   C3B57333  37.760  28.257   7.125
 4467POPC   C4B57334  37.571  28.152   7.527
 4468POPC   NC357335   8.589  42.999   5.180
 4468POPC   PO457336   9.080  43.399   5.463
 4468POPC   GL157337   8.922  43.145   5.814
 4468POPC   GL257338   8.802  43.415   5.957
 4468POPC   C1A57339   8.862  43.051   6.297
 4468POPC   D2A57340   9.091  42.993   6.701
 4468POPC   C3A57341   8.899  42.900   7.096
 4468POPC   C4A57342   8.778  42.997   7.525
 4468POPC   C1B57343   9.134  43.473   6.271
 4468POPC   C2B57344   8.988  43.488   6.697
 4468POPC   C3B57345   8.818  43.412   7.123
 4468POPC   C4B57346   8.837  43.541   7.585
 4469POPC   NC357347  20.619  27.874   5.489
 4469POPC   PO457348  20.397  27.211   5.385
 4469POPC   GL157349  20.456  27.394   5.762
 4469POPC   GL257350  20.789  27.463   5.781
 4469POPC   C1A57351  20.450  27.374   6.214
 4469POPC   D2A57352  20.202  27.563   6.555
 4469POPC   C3A57353  20.303  27.414   6.949
 4469POPC   C4A57354  20.454  27.622   7.302
 4469POPC   C1B57355  20.894  27.667   6.198
 4469POPC   C2B57356  20.674  27.845   6.497
 4469POPC   C3B57357  20.733  27.816   6.908
 4469POPC   C4B57358  20.873  27.893   7.297
 4470POPC   NC357359  20.264  38.370   5.039
 4470POPC   PO457360  20.859  38.445   5.432
 4470POPC   GL157361  20.767  38.541   5.828
 4470POPC   GL257362  20.423  38.539   5.778
 4470POPC   C1A57363  20.638  38.635   6.273
 4470POPC   D2A57364  20.735  38.516   6.708
 4470POPC   C3A57365  20.475  38.500   7.066
 4470POPC   C4A57366  20.815  38.421   7.321
 4470POPC   C1B57367  20.237  38.327   6.154
 4470POPC   C2B57368  20.121  38.302   6.618
 4470POPC   C3B57369  20.154  38.038   6.967
 4470POPC   C4B57370  20.350  38.012   7.364
 4471POPC   NC357371   6.208  11.067   5.445
 4471POPC   PO457372   6.864  11.140   5.237
 4471POPC   GL157373   6.917  11.238   5.737
 4471POPC   GL257374   6.610  11.383   5.866
 4471POPC   C1A57375   6.918  11.172   6.235
 4471POPC   D2A57376   6.717  11.060   6.671
 4471POPC   C3A57377   6.884  11.028   7.107
 4471POPC   C4A57378   6.998  11.388   7.325
 4471POPC   C1B57379   6.422  11.334   6.287
 4471POPC   C2B57380   6.476  11.507   6.695
 4471POPC   C3B57381   6.516  11.418   7.132
 4471POPC   C4B57382   6.615  11.624   7.526
 4472POPC   NC357383  44.107   3.554   5.613
 4472POPC   PO457384  43.542   3.297   5.370
 4472POPC   GL157385  43.684   3.319   5.799
 4472POPC   GL257386  43.974   3.099   5.826
 4472POPC   C1A57387  43.787   3.582   6.179
 4472POPC   D2A57388  44.058   3.777   6.500
 4472POPC   C3A57389  43.992   3.574   6.880
 4472POPC   C4A57390  44.016   3.647   7.278
 4472POPC   C1B57391  43.899   3.094   6.300
 4472POPC   C2B57392  43.652   3.341   6.588
 4472POPC   C3B57393  43.542   3.301   6.977
 4472POPC   C4B57394  43.584   3.418   7.349
 4473POPC   NC357395  15.616  31.800   5.444
 4473POPC   PO457396  14.953  31.506   5.466
 4473POPC   GL157397  15.129  31.488   5.883
 4473POPC   GL257398  15.460  31.639   5.904
 4473POPC   C1A57399  15.120  31.730   6.276
 4473POPC   D2A57400  15.326  31.769   6.674
 4473POPC   C3A57401  15.214  31.665   7.087
 4473POPC   C4A57402  14.876  31.493   7.383
 4473POPC   C1B57403  15.544  31.462   6.331
 4473POPC   C2B57404  15.353  31.251   6.697
 4473POPC   C3B57405  15.273  31.175   7.153
 4473POPC   C4B57406  15.544  31.245   7.483
 4474POPC   NC357407   1.908   6.232   5.434
 4474POPC   PO457408   2.048   5.601   5.559
 4474POPC   GL157409   2.081   5.971   5.832
 4474POPC   GL257410   1.744   6.074   5.938
 4474POPC   C1A57411   2.262   6.062   6.214
 4474POPC   D2A57412   2.054   6.092   6.588
 4474POPC   C3A57413   2.259   6.011   6.982
 4474POPC   C4A57414   2.091   6.035   7.396
 4474POPC   C1B57415   1.862   5.680   6.206
 4474POPC   C2B57416   1.768   5.417   6.568
 4474POPC   C3B57417   1.708   5.635   6.955
 4474POPC   C4B57418   1.759   5.610   7.383
 4475POPC   NC357419  30.571  44.935   5.589
 4475POPC   PO457420  30.947  44.359   5.324
 4475POPC   GL157421  30.848  44.531   5.762
 4475POPC   GL257422  31.021  44.874   5.825
 4475POPC   C1A57423  30.622  44.455   6.166
 4475POPC   D2A57424  30.549  44.262   6.575
 4475POPC   C3A57425  30.358  44.498   6.922
 4475POPC   C4A57426  30.479  44.786   7.267
 4475POPC   C1B57427  31.138  44.652   6.198
 4475POPC   C2B57428  31.000  44.474   6.580
 4475POPC   C3B57429  30.905  44.424   7.011
 4475POPC   C4B57430  31.009  44.810   7.230
 4476POPC   NC357431  37.880   0.669   5.490
 4476POPC   PO457432  37.421   0.174   5.335
 4476POPC   GL157433  37.603   0.185   5.750
 4476POPC   GL257434  37.608   0.486   5.866
 4476POPC   C1A57435  37.700   0.098   6.171
 4476POPC   D2A57436  37.803   0.043   6.601
 4476POPC   C3A57437  37.760   0.352   6.956
 4476POPC   C4A57438  37.941   0.407   7.383
 4476POPC   C1B57439  37.728   0.567   6.338
 4476POPC   C2B57440  37.851   0.783   6.718
 4476POPC   C3B57441  38.136   0.801   7.060
 4476POPC   C4B57442  38.110   0.857   7.515
 4477POPC   NC357443  20.371  41.274   5.358
 4477POPC   PO457444  20.459  41.851   5.580
 4477POPC   GL157445  20.600  41.465   5.801
 4477POPC   GL257446  20.325  41.333   5.868
 4477POPC   C1A57447  20.736  41.343   6.222
 4477POPC   D2A57448  20.792  41.626   6.568
 4477POPC   C3A57449  20.962  41.433   6.889
 4477POPC   C4A57450  20.718  41.404   7.237
 4477POPC   C1B57451  20.329  41.669   6.184
 4477POPC   C2B57452  20.293  41.493   6.561
 4477POPC   C3B57453  20.356  41.636   6.947
 4477POPC   C4B57454  20.258  41.644   7.366
 4478POPC   NC357455  32.857  35.610   5.795
 4478POPC   PO457456  33.062  36.140   5.432
 4478POPC   GL157457  33.235  36.264   5.800
 4478POPC   GL257458  33.242  35.937   5.943
 4478POPC   C1A57459  33.076  36.382   6.204
 4478POPC   D2A57460  32.962  36.076   6.512
 4478POPC   C3A57461  32.918  36.085   6.962
 4478POPC   C4A57462  33.024  36.434   7.218
 4478POPC   C1B57463  33.297  35.723   6.355
 4478POPC   C2B57464  33.335  35.846   6.784
 4478POPC   C3B57465  33.409  36.096   7.142
 4478POPC   C4B57466  33.573  35.911   7.541
 4479POPC   NC357467  36.093  13.345   5.146
 4479POPC   PO457468  36.142  12.730   5.189
 4479POPC   GL157469  36.065  12.799   5.610
 4479POPC   GL257470  36.001  13.151   5.663
 4479POPC   C1A57471  36.124  12.680   6.047
 4479POPC   D2A57472  36.318  12.847   6.429
 4479POPC   C3A57473  36.235  12.722   6.835
 4479POPC   C4A57474  36.386  12.484   7.154
 4479POPC   C1B57475  36.039  13.175   6.126
 4479POPC   C2B57476  35.875  13.081   6.565
 4479POPC   C3B57477  36.006  13.145   6.994
 4479POPC   C4B57478  36.188  12.934   7.359
 4480POPC   NC357479  31.663   0.291   5.588
 4480POPC   PO457480  30.924   0.259   5.477
 4480POPC   GL157481  31.223   0.354   5.864
 4480POPC   GL257482  31.319   0.706   5.942
 4480POPC   C1A57483  31.474   0.354   6.272
 4480POPC   D2A57484  31.714   0.213   6.639
 4480POPC   C3A57485  31.560   0.343   6.994
 4480POPC   C4A57486  31.720   0.166   7.318
 4480POPC   C1B57487  31.313   0.929   6.373
 4480POPC   C2B57488  31.361   0.968   6.866
 4480POPC   C3B57489  31.268   1.010   7.340
 4480POPC   C4B57490  31.230   0.862   7.804
 4481POPC   NC357491  16.293  43.425   5.414
 4481POPC   PO457492  15.757  42.973   5.288
 4481POPC   GL157493  15.922  43.046   5.723
 4481POPC   GL257494  16.211  42.820   5.680
 4481POPC   C1A57495  15.769  43.198   6.177
 4481POPC   D2A57496  15.586  43.157   6.631
 4481POPC   C3A57497  15.802  43.219   7.068
 4481POPC   C4A57498  16.238  43.242   7.167
 4481POPC   C1B57499  16.259  42.713   6.123
 4481POPC   C2B57500  16.131  42.965   6.465
 4481POPC   C3B57501  16.111  42.853   6.865
 4481POPC   C4B57502  15.686  42.728   6.921
 4482POPC   NC357503  41.362  28.730   5.513
 4482POPC   PO457504  41.802  29.272   5.387
 4482POPC   GL157505  41.684  29.035   5.754
 4482POPC   GL257506  41.760  29.325   5.910
 4482POPC   C1A57507  41.474  28.967   6.179
 4482POPC   D2A57508  41.661  28.899   6.614
 4482POPC   C3A57509  41.519  29.106   6.971
 4482POPC   C4A57510  41.365  28.901   7.309
 4482POPC   C1B57511  41.904  29.221   6.296
 4482POPC   C2B57512  41.928  29.463   6.642
 4482POPC   C3B57513  42.004  29.342   7.018
 4482POPC   C4B57514  41.919  29.436   7.411
 4483POPC   NC357515  35.513  19.614   5.462
 4483POPC   PO457516  34.882  19.903   5.514
 4483POPC   GL157517  35.151  19.942   5.871
 4483POPC   GL257518  35.500  20.029   5.792
 4483POPC   C1A57519  35.130  19.749   6.281
 4483POPC   D2A57520  35.117  19.568   6.690
 4483POPC   C3A57521  35.215  19.797   7.080
 4483POPC   C4A57522  34.994  19.910   7.459
 4483POPC   C1B57523  35.618  19.873   6.174
 4483POPC   C2B57524  35.456  20.037   6.586
 4483POPC   C3B57525  35.532  20.205   6.991
 4483POPC   C4B57526  35.755  19.850   7.160
 4484POPC   NC357527  17.775  19.722   5.576
 4484POPC   PO457528  17.162  19.338   5.524
 4484POPC   GL157529  17.306  19.611   5.859
 4484POPC   GL257530  17.640  19.515   6.021
 4484POPC   C1A57531  17.214  19.551   6.310
 4484POPC   D2A57532  17.385  19.560   6.732
 4484POPC   C3A57533  17.093  19.688   7.061
 4484POPC   C4A57534  17.039  20.076   7.313
 4484POPC   C1B57535  17.628  19.897   6.300
 4484POPC   C2B57536  17.748  19.938   6.749
 4484POPC   C3B57537  17.577  19.821   7.166
 4484POPC   C4B57538  17.579  20.102   7.501
 4485POPC   NC357539   1.994   9.742   5.030
 4485POPC   PO457540   1.893   9.795   5.630
 4485POPC   GL157541   2.021   9.621   5.930
 4485POPC   GL257542   1.687   9.454   5.944
 4485POPC   C1A57543   2.227   9.792   6.248
 4485POPC   D2A57544   2.188  10.066   6.549
 4485POPC   C3A57545   2.264   9.813   6.851
 4485POPC   C4A57546   2.282   9.723   7.252
 4485POPC   C1B57547   1.729   9.651   6.326
 4485POPC   C2B57548   1.776   9.792   6.685
 4485POPC   C3B57549   1.819   9.639   7.032
 4485POPC   C4B57550   1.663   9.479   7.335
 4486POPC   NC357551  19.898  36.646   5.586
 4486POPC   PO457552  19.646  37.279   5.472
 4486POPC   GL157553  19.758  37.072   5.840
 4486POPC   GL257554  20.143  37.044   5.821
 4486POPC   C1A57555  19.867  36.955   6.255
 4486POPC   D2A57556  19.995  37.214   6.585
 4486POPC   C3A57557  19.780  37.064   6.904
 4486POPC   C4A57558  19.841  37.131   7.315
 4486POPC   C1B57559  20.308  36.711   6.113
 4486POPC   C2B57560  20.230  36.692   6.545
 4486POPC   C3B57561  20.257  36.842   6.942
 4486POPC   C4B57562  20.116  36.712   7.327
 4487POPC   NC357563  33.774  20.710   5.225
 4487POPC   PO457564  33.291  20.347   5.461
 4487POPC   GL157565  33.666  20.514   5.750
 4487POPC   GL257566  33.768  20.854   5.829
 4487POPC   C1A57567  33.870  20.514   6.180
 4487POPC   D2A57568  34.028  20.595   6.595
 4487POPC   C3A57569  33.735  20.548   6.939
 4487POPC   C4A57570  33.867  20.503   7.323
 4487POPC   C1B57571  33.512  20.883   6.172
 4487POPC   C2B57572  33.442  20.701   6.559
 4487POPC   C3B57573  33.427  20.969   6.935
 4487POPC   C4B57574  33.621  20.943   7.301
 4488POPC   NC357575  12.686  41.721   5.299
 4488POPC   PO457576  13.126  41.216   5.452
 4488POPC   GL157577  12.813  41.420   5.782
 4488POPC   GL257578  12.605  41.733   5.803
 4488POPC   C1A57579  12.803  41.445   6.228
 4488POPC   D2A57580  13.031  41.343   6.601
 4488POPC   C3A57581  13.043  41.693   6.862
 4488POPC   C4A57582  12.916  41.740   7.276
 4488POPC   C1B57583  12.397  41.801   6.185
 4488POPC   C2B57584  12.392  41.546   6.544
 4488POPC   C3B57585  12.519  41.718   6.916
 4488POPC   C4B57586  12.392  41.931   7.298
 4489POPC   NC357587  10.133  28.902   5.748
 4489POPC   PO457588  10.427  29.320   5.334
 4489POPC   GL157589  10.681  29.295   5.763
 4489POPC   GL257590  10.589  29.016   5.949
 4489POPC   C1A57591  10.671  29.413   6.288
 4489POPC   D2A57592  10.353  29.332   6.664
 4489POPC   C3A57593  10.506  29.249   7.114
 4489POPC   C4A57594  10.640  29.252   7.581
 4489POPC   C1B57595  10.777  28.905   6.308
 4489POPC   C2B57596  10.726  28.967   6.728
 4489POPC   C3B57597  10.633  28.720   7.052
 4489POPC   C4B57598  10.610  28.772   7.468
 4490POPC   NC357599  35.942  42.731   5.387
 4490POPC   PO457600  35.865  42.041   5.589
 4490POPC   GL157601  36.183  42.347   5.781
 4490POPC   GL257602  36.559  42.263   5.757
 4490POPC   C1A57603  36.215  42.469   6.220
 4490POPC   D2A57604  35.935  42.336   6.595
 4490POPC   C3A57605  35.943  42.529   7.013
 4490POPC   C4A57606  36.083  42.449   7.448
 4490POPC   C1B57607  36.427  41.992   6.103
 4490POPC   C2B57608  36.393  42.081   6.535
 4490POPC   C3B57609  36.250  42.100   6.971
 4490POPC   C4B57610  36.452  42.109   7.366
 4491POPC   NC357611  15.256  11.555   5.389
 4491POPC   PO457612  14.892  10.914   5.371
 4491POPC   GL157613  15.028  11.215   5.697
 4491POPC   GL257614  15.253  10.991   5.806
 4491POPC   C1A57615  15.189  11.370   6.149
 4491POPC   D2A57616  15.441  11.461   6.551
 4491POPC   C3A57617  15.307  11.340   6.972
 4491POPC   C4A57618  15.147  11.600   7.300
 4491POPC   C1B57619  14.877  10.968   6.104
 4491POPC   C2B57620  14.848  11.131   6.531
 4491POPC   C3B57621  14.938  10.979   6.953
 4491POPC   C4B57622  14.881  11.172   7.353
 4492POPC   NC357623  44.901  32.878   5.493
 4492POPC   PO457624  44.992  33.534   5.466
 4492POPC   GL157625  44.760  33.242   5.844
 4492POPC   GL257626  44.594  32.851   5.891
 4492POPC   C1A57627  44.749  33.073   6.296
 4492POPC   D2A57628  44.923  32.746   6.592
 4492POPC   C3A57629  44.843  32.952   6.999
 4492POPC   C4A57630  44.491  33.197   7.145
 4492POPC   C1B57631  44.513  32.626   6.262
 4492POPC   C2B57632  44.432  32.821   6.678
 4492POPC   C3B57633  44.415  32.666   7.103
 4492POPC   C4B57634  44.216  32.857   7.480
 4493POPC   NC357635   1.644   2.736   5.440
 4493POPC   PO457636   1.168   3.078   5.497
 4493POPC   GL157637   1.131   2.764   5.789
 4493POPC   GL257638   1.031   2.408   5.664
 4493POPC   C1A57639   1.392   2.772   6.144
 4493POPC   D2A57640   1.539   2.925   6.543
 4493POPC   C3A57641   1.389   2.721   6.919
 4493POPC   C4A57642   1.481   2.700   7.375
 4493POPC   C1B57643   0.868   2.440   6.078
 4493POPC   C2B57644   1.045   2.562   6.455
 4493POPC   C3B57645   0.922   2.484   6.843
 4493POPC   C4B57646   0.876   2.673   7.242
 4494POPC   NC357647  12.975  37.732   5.410
 4494POPC   PO457648  12.377  37.408   5.611
 4494POPC   GL157649  12.754  37.498   5.850
 4494POPC   GL257650  13.140  37.526   5.845
 4494POPC   C1A57651  12.802  37.621   6.267
 4494POPC   D2A57652  12.964  37.875   6.590
 4494POPC   C3A57653  12.954  37.664   6.958
 4494POPC   C4A57654  12.764  37.659   7.341
 4494POPC   C1B57655  13.306  37.712   6.237
 4494POPC   C2B57656  13.463  37.881   6.665
 4494POPC   C3B57657  13.269  38.078   7.038
 4494POPC   C4B57658  13.120  38.027   7.501
 4495POPC   NC357659   2.969  34.699   5.349
 4495POPC   PO457660   2.327  34.528   5.556
 4495POPC   GL157661   2.651  34.725   5.779
 4495POPC   GL257662   2.880  34.432   5.781
 4495POPC   C1A57663   2.865  34.820   6.180
 4495POPC   D2A57664   2.876  35.028   6.614
 4495POPC   C3A57665   2.902  34.818   7.015
 4495POPC   C4A57666   2.680  34.828   7.420
 4495POPC   C1B57667   3.157  34.333   6.131
 4495POPC   C2B57668   3.151  34.157   6.562
 4495POPC   C3B57669   3.037  34.300   6.964
 4495POPC   C4B57670   2.702  34.370   7.223
 4496POPC   NC357671  26.392   6.014   5.371
 4496POPC   PO457672  26.954   5.684   5.550
 4496POPC   GL157673  26.752   5.726   5.899
 4496POPC   GL257674  26.723   6.059   5.810
 4496POPC   C1A57675  26.929   5.776   6.299
 4496POPC   D2A57676  27.118   5.764   6.690
 4496POPC   C3A57677  26.821   5.573   6.957
 4496POPC   C4A57678  26.977   5.859   7.221
 4496POPC   C1B57679  26.901   6.270   6.164
 4496POPC   C2B57680  26.904   6.454   6.544
 4496POPC   C3B57681  26.987   6.295   6.927
 4496POPC   C4B57682  26.649   6.231   7.162
 4497POPC   NC357683   3.922  32.351   5.647
 4497POPC   PO457684   3.341  32.057   5.412
 4497POPC   GL157685   3.464  32.157   5.842
 4497POPC   GL257686   3.445  32.525   5.879
 4497POPC   C1A57687   3.425  32.198   6.311
 4497POPC   D2A57688   3.245  32.326   6.714
 4497POPC   C3A57689   3.504  32.155   7.046
 4497POPC   C4A57690   3.834  31.821   7.136
 4497POPC   C1B57691   3.703  32.618   6.257
 4497POPC   C2B57692   3.749  32.473   6.685
 4497POPC   C3B57693   3.790  32.558   7.123
 4497POPC   C4B57694   3.670  32.699   7.526
 4498POPC   NC357695  14.602  13.191   5.537
 4498POPC   PO457696  14.438  12.491   5.369
 4498POPC   GL157697  14.374  12.470   5.811
 4498POPC   GL257698  14.352  12.834   5.828
 4498POPC   C1A57699  14.450  12.538   6.264
 4498POPC   D2A57700  14.332  12.775   6.638
 4498POPC   C3A57701  14.424  12.555   7.050
 4498POPC   C4A57702  14.158  12.505   7.437
 4498POPC   C1B57703  14.638  13.021   6.166
 4498POPC   C2B57704  14.711  13.216   6.539
 4498POPC   C3B57705  14.398  13.235   6.858
 4498POPC   C4B57706  14.418  13.195   7.308
 4499POPC   NC357707  42.311  27.881   5.082
 4499POPC   PO457708  41.964  27.505   5.538
 4499POPC   GL157709  42.195  27.693   5.874
 4499POPC   GL257710  42.478  27.876   5.839
 4499POPC   C1A57711  42.262  27.596   6.311
 4499POPC   D2A57712  42.262  27.330   6.663
 4499POPC   C3A57713  42.330  27.484   7.063
 4499POPC   C4A57714  42.535  27.372   7.405
 4499POPC   C1B57715  42.572  28.001   6.254
 4499POPC   C2B57716  42.613  27.752   6.662
 4499POPC   C3B57717  42.642  27.912   7.062
 4499POPC   C4B57718  42.628  27.833   7.500
 4500POPC   NC357719  43.423  41.027   5.019
 4500POPC   PO457720  42.945  40.823   5.439
 4500POPC   GL157721  42.841  40.895   5.857
 4500POPC   GL257722  43.144  41.066   5.882
 4500POPC   C1A57723  42.848  40.738   6.287
 4500POPC   D2A57724  43.178  40.607   6.579
 4500POPC   C3A57725  43.092  40.613   7.017
 4500POPC   C4A57726  43.396  40.470   7.293
 4500POPC   C1B57727  43.320  41.023   6.256
 4500POPC   C2B57728  43.065  41.131   6.579
 4500POPC   C3B57729  43.040  41.195   6.984
 4500POPC   C4B57730  43.272  41.060   7.283
 4501POPC   NC357731  44.531  19.921   5.339
 4501POPC   PO457732   0.198  19.712   5.401
 4501POPC   GL157733  44.940  19.964   5.682
 4501POPC   GL257734   0.173  20.111   5.870
 4501POPC   C1A57735  44.634  20.016   6.056
 4501POPC   D2A57736  44.394  19.816   6.429
 4501POPC   C3A57737  44.405  19.919   6.891
 4501POPC   C4A57738  44.545  19.564   7.124
 4501POPC   C1B57739   0.090  19.905   6.287
 4501POPC   C2B57740  44.862  19.848   6.691
 4501POPC   C3B57741  44.930  19.896   7.161
 4501POPC   C4B57742   0.079  19.981   7.593
 4502POPC   NC357743  19.242  37.395   5.677
 4502POPC   PO457744  19.419  36.716   5.568
 4502POPC   GL157745  19.260  36.936   5.879
 4502POPC   GL257746  18.937  37.020   6.003
 4502POPC   C1A57747  19.350  36.993   6.290
 4502POPC   D2A57748  19.149  36.801   6.622
 4502POPC   C3A57749  19.262  36.914   7.009
 4502POPC   C4A57750  19.609  36.691   7.198
 4502POPC   C1B57751  18.703  36.828   6.346
 4502POPC   C2B57752  18.677  36.823   6.807
 4502POPC   C3B57753  18.718  37.045   7.199
 4502POPC   C4B57754  18.849  37.026   7.643
 4503POPC   NC357755  26.648  37.344   5.475
 4503POPC   PO457756  27.319  37.338   5.314
 4503POPC   GL157757  27.070  37.593   5.634
 4503POPC   GL257758  26.746  37.804   5.718
 4503POPC   C1A57759  27.073  37.569   6.108
 4503POPC   D2A57760  27.017  37.251   6.457
 4503POPC   C3A57761  26.932  37.433   6.858
 4503POPC   C4A57762  26.889  37.724   7.153
 4503POPC   C1B57763  26.558  37.568   6.086
 4503POPC   C2B57764  26.540  37.487   6.538
 4503POPC   C3B57765  26.422  37.619   6.994
 4503POPC   C4B57766  26.404  37.870   7.432
 4504POPC   NC357767  10.068  17.551   5.427
 4504POPC   PO457768   9.950  16.890   5.388
 4504POPC   GL157769   9.988  17.174   5.790
 4504POPC   GL257770   9.984  17.585   5.916
 4504POPC   C1A57771   9.749  17.248   6.187
 4504POPC   D2A57772   9.876  17.495   6.542
 4504POPC   C3A57773   9.727  17.352   6.944
 4504POPC   C4A57774   9.964  17.215   7.273
 4504POPC   C1B57775   9.685  17.825   6.211
 4504POPC   C2B57776   9.544  17.968   6.644
 4504POPC   C3B57777   9.476  17.792   7.065
 4504POPC   C4B57778   9.411  17.895   7.539
 4505POPC   NC357779  36.432  32.813   5.566
 4505POPC   PO457780  36.036  33.298   5.291
 4505POPC   GL157781  36.018  33.084   5.688
 4505POPC   GL257782  36.291  33.289   5.787
 4505POPC   C1A57783  36.045  32.879   6.107
 4505POPC   D2A57784  35.832  32.969   6.474
 4505POPC   C3A57785  35.943  32.920   6.882
 4505POPC   C4A57786  35.814  32.940   7.276
 4505POPC   C1B57787  36.401  33.229   6.186
 4505POPC   C2B57788  36.389  33.043   6.563
 4505POPC   C3B57789  36.345  33.209   6.973
 4505POPC   C4B57790  36.317  33.015   7.327
 4506POPC   NC357791  37.613  18.803   5.522
 4506POPC   PO457792  37.622  19.477   5.615
 4506POPC   GL157793  37.802  19.174   5.879
 4506POPC   GL257794  38.161  19.276   5.816
 4506POPC   C1A57795  37.650  18.917   6.257
 4506POPC   D2A57796  37.601  18.794   6.708
 4506POPC   C3A57797  37.495  19.002   7.098
 4506POPC   C4A57798  37.210  19.222   7.353
 4506POPC   C1B57799  38.148  19.153   6.260
 4506POPC   C2B57800  37.987  19.161   6.682
 4506POPC   C3B57801  38.023  19.158   7.136
 4506POPC   C4B57802  37.899  18.854   7.396
 4507POPC   NC357803  14.860   7.983   5.106
 4507POPC   PO457804  14.725   7.420   5.517
 4507POPC   GL157805  14.953   7.287   5.879
 4507POPC   GL257806  15.259   7.178   5.725
 4507POPC   C1A57807  15.092   7.194   6.324
 4507POPC   D2A57808  15.189   7.070   6.743
 4507POPC   C3A57809  15.061   7.325   7.092
 4507POPC   C4A57810  14.935   7.210   7.509
 4507POPC   C1B57811  15.513   7.359   6.075
 4507POPC   C2B57812  15.555   7.469   6.530
 4507POPC   C3B57813  15.615   7.288   6.949
 4507POPC   C4B57814  15.425   7.056   7.306
 4508POPC   NC357815  26.558  33.901   5.161
 4508POPC   PO457816  26.814  34.345   5.521
 4508POPC   GL157817  26.874  33.974   5.783
 4508POPC   GL257818  26.636  33.684   5.657
 4508POPC   C1A57819  26.970  33.935   6.252
 4508POPC   D2A57820  27.099  34.105   6.682
 4508POPC   C3A57821  27.255  33.806   7.019
 4508POPC   C4A57822  27.050  33.762   7.417
 4508POPC   C1B57823  26.472  33.776   6.076
 4508POPC   C2B57824  26.547  33.794   6.547
 4508POPC   C3B57825  26.708  33.802   6.992
 4508POPC   C4B57826  26.622  33.541   7.341
 4509POPC   NC357827   3.071  29.043   4.989
 4509POPC   PO457828   3.537  29.312   5.399
 4509POPC   GL157829   3.547  29.450   5.830
 4509POPC   GL257830   3.210  29.555   5.906
 4509POPC   C1A57831   3.788  29.387   6.245
 4509POPC   D2A57832   3.725  29.612   6.657
 4509POPC   C3A57833   3.786  29.363   7.043
 4509POPC   C4A57834   3.679  28.979   7.287
 4509POPC   C1B57835   3.289  29.402   6.304
 4509POPC   C2B57836   3.395  29.204   6.692
 4509POPC   C3B57837   3.270  29.247   7.125
 4509POPC   C4B57838   3.254  29.069   7.563
 4510POPC   NC357839  38.949  13.237   5.215
 4510POPC   PO457840  39.568  13.107   5.502
 4510POPC   GL157841  39.223  12.956   5.777
 4510POPC   GL257842  39.134  12.580   5.753
 4510POPC   C1A57843  39.179  13.082   6.209
 4510POPC   D2A57844  39.210  13.256   6.615
 4510POPC   C3A57845  39.029  13.005   6.929
 4510POPC   C4A57846  39.268  12.890   7.282
 4510POPC   C1B57847  38.919  12.654   6.135
 4510POPC   C2B57848  39.144  12.693   6.524
 4510POPC   C3B57849  39.164  12.520   6.922
 4510POPC   C4B57850  38.903  12.565   7.243
 4511POPC   NC357851  23.044  42.162   5.192
 4511POPC   PO457852  22.668  42.691   5.365
 4511POPC   GL157853  22.963  42.550   5.719
 4511POPC   GL257854  23.116  42.219   5.815
 4511POPC   C1A57855  22.873  42.491   6.184
 4511POPC   D2A57856  22.809  42.241   6.547
 4511POPC   C3A57857  22.820  42.341   6.979
 4511POPC   C4A57858  22.477  42.382   7.263
 4511POPC   C1B57859  23.289  42.193   6.271
 4511POPC   C2B57860  23.262  42.206   6.761
 4511POPC   C3B57861  23.273  42.164   7.227
 4511POPC   C4B57862  23.424  41.968   7.660
 4512POPC   NC357863   2.398   4.592   5.472
 4512POPC   PO457864   1.821   4.142   5.547
 4512POPC   GL157865   1.954   4.295   5.930
 4512POPC   GL257866   2.224   4.554   5.948
 4512POPC   C1A57867   1.744   4.248   6.302
 4512POPC   D2A57868   1.744   4.381   6.702
 4512POPC   C3A57869   2.117   4.337   6.925
 4512POPC   C4A57870   2.277   4.063   7.239
 4512POPC   C1B57871   2.166   4.608   6.382
 4512POPC   C2B57872   2.474   4.648   6.704
 4512POPC   C3B57873   2.444   4.657   7.144
 4512POPC   C4B57874   2.022   4.702   7.292
 4513POPC   NC357875  43.846  21.692   5.202
 4513POPC   PO457876  44.177  22.124   5.549
 4513POPC   GL157877  44.005  21.969   5.874
 4513POPC   GL257878  43.684  21.960   5.731
 4513POPC   C1A57879  44.129  22.123   6.265
 4513POPC   D2A57880  44.005  22.457   6.499
 4513POPC   C3A57881  44.227  22.440   6.845
 4513POPC   C4A57882  44.169  22.438   7.257
 4513POPC   C1B57883  43.590  22.146   6.146
 4513POPC   C2B57884  43.513  22.346   6.555
 4513POPC   C3B57885  43.719  22.346   6.958
 4513POPC   C4B57886  43.689  22.543   7.374
 4514POPC   NC357887   4.595   5.072   5.503
 4514POPC   PO457888   3.902   4.941   5.608
 4514POPC   GL157889   4.201   5.125   5.804
 4514POPC   GL257890   4.185   5.503   5.771
 4514POPC   C1A57891   4.362   4.946   6.173
 4514POPC   D2A57892   4.080   4.922   6.532
 4514POPC   C3A57893   4.312   4.882   6.904
 4514POPC   C4A57894   4.154   4.892   7.312
 4514POPC   C1B57895   4.056   5.365   6.217
 4514POPC   C2B57896   4.222   5.393   6.626
 4514POPC   C3B57897   4.159   5.352   7.046
 4514POPC   C4B57898   4.445   5.482   7.327
 4515POPC   NC357899  30.799  42.685   5.647
 4515POPC   PO457900  30.379  42.158   5.500
 4515POPC   GL157901  30.642  42.185   5.893
 4515POPC   GL257902  30.988  42.133   5.780
 4515POPC   C1A57903  30.767  42.455   6.266
 4515POPC   D2A57904  30.565  42.658   6.603
 4515POPC   C3A57905  30.730  42.440   6.933
 4515POPC   C4A57906  30.667  42.344   7.330
 4515POPC   C1B57907  31.133  42.106   6.193
 4515POPC   C2B57908  30.931  42.073   6.623
 4515POPC   C3B57909  30.991  41.937   7.064
 4515POPC   C4B57910  31.054  42.052   7.506
 4516POPC   NC357911   8.079  12.574   5.388
 4516POPC   PO457912   8.497  13.039   5.545
 4516POPC   GL157913   8.233  12.795   5.815
 4516POPC   GL257914   8.499  12.539   5.772
 4516POPC   C1A57915   7.962  12.743   6.207
 4516POPC   D2A57916   7.860  12.788   6.666
 4516POPC   C3A57917   8.166  13.055   6.877
 4516POPC   C4A57918   8.172  13.267   7.288
 4516POPC   C1B57919   8.503  12.697   6.217
 4516POPC   C2B57920   8.388  12.528   6.587
 4516POPC   C3B57921   8.457  12.567   7.018
 4516POPC   C4B57922   8.117  12.735   7.272
 4517POPC   NC357923  25.082  29.399   5.447
 4517POPC   PO457924  25.100  28.740   5.367
 4517POPC   GL157925  25.044  29.020   5.777
 4517POPC   GL257926  25.353  29.240   5.838
 4517POPC   C1A57927  25.091  28.960   6.228
 4517POPC   D2A57928  24.936  29.003   6.640
 4517POPC   C3A57929  25.250  28.887   6.945
 4517POPC   C4A57930  25.626  28.884   7.214
 4517POPC   C1B57931  25.555  29.186   6.226
 4517POPC   C2B57932  25.383  29.271   6.606
 4517POPC   C3B57933  25.554  29.390   6.989
 4517POPC   C4B57934  25.449  29.312   7.420
 4518POPC   NC357935  44.548   1.270   5.248
 4518POPC   PO457936  44.187   0.951   5.755
 4518POPC   GL157937  44.544   1.130   5.955
 4518POPC   GL257938  44.813   1.239   5.743
 4518POPC   C1A57939  44.536   1.165   6.400
 4518POPC   D2A57940  44.642   0.888   6.740
 4518POPC   C3A57941  44.632   1.160   7.072
 4518POPC   C4A57942  44.358   1.479   7.120
 4518POPC   C1B57943  44.997   1.258   6.194
 4518POPC   C2B57944  44.944   1.350   6.669
 4518POPC   C3B57945   0.114   1.414   7.094
 4518POPC   C4B57946   0.013   1.091   7.404
 4519POPC   NC357947  22.194  40.416   5.579
 4519POPC   PO457948  22.258  39.743   5.590
 4519POPC   GL157949  22.014  39.975   5.855
 4519POPC   GL257950  22.261  40.183   6.010
 4519POPC   C1A57951  21.970  39.878   6.286
 4519POPC   D2A57952  22.239  39.918   6.613
 4519POPC   C3A57953  22.029  39.771   6.959
 4519POPC   C4A57954  22.246  39.773   7.339
 4519POPC   C1B57955  21.998  40.406   6.276
 4519POPC   C2B57956  22.013  40.377   6.693
 4519POPC   C3B57957  22.093  40.256   7.095
 4519POPC   C4B57958  21.769  40.279   7.376
 4520POPC   NC357959  18.045  15.252   5.535
 4520POPC   PO457960  18.620  14.888   5.371
 4520POPC   GL157961  18.362  14.871   5.803
 4520POPC   GL257962  18.256  15.201   5.970
 4520POPC   C1A57963  18.200  14.804   6.271
 4520POPC   D2A57964  17.979  14.982   6.643
 4520POPC   C3A57965  18.259  15.220   6.889
 4520POPC   C4A57966  18.428  15.198   7.306
 4520POPC   C1B57967  18.297  15.320   6.381
 4520POPC   C2B57968  18.613  15.522   6.636
 4520POPC   C3B57969  18.555  15.636   7.055
 4520POPC   C4B57970  18.121  15.598   7.217
 4521POPC   NC357971  42.731  32.988   5.419
 4521POPC   PO457972  43.269  33.357   5.542
 4521POPC   GL157973  43.215  33.160   5.895
 4521POPC   GL257974  42.993  32.888   5.844
 4521POPC   C1A57975  43.181  33.069   6.298
 4521POPC   D2A57976  42.956  32.934   6.602
 4521POPC   C3A57977  43.117  33.079   6.951
 4521POPC   C4A57978  43.233  33.138   7.357
 4521POPC   C1B57979  43.043  32.606   6.190
 4521POPC   C2B57980  43.027  32.396   6.563
 4521POPC   C3B57981  43.100  32.582   6.959
 4521POPC   C4B57982  43.233  32.528   7.356
 4522POPC   NC357983  18.776  26.844   5.527
 4522POPC   PO457984  19.425  27.132   5.604
 4522POPC   GL157985  19.221  26.796   5.817
 4522POPC   GL257986  18.952  26.981   5.974
 4522POPC   C1A57987  19.253  26.689   6.249
 4522POPC   D2A57988  19.363  26.993   6.567
 4522POPC   C3A57989  19.323  26.839   6.966
 4522POPC   C4A57990  19.401  27.048   7.356
 4522POPC   C1B57991  18.854  27.062   6.380
 4522POPC   C2B57992  18.865  27.015   6.810
 4522POPC   C3B57993  18.880  26.922   7.221
 4522POPC   C4B57994  18.793  26.640   7.566
 4523POPC   NC357995  26.242  10.108   5.138
 4523POPC   PO457996  25.899   9.558   5.424
 4523POPC   GL157997  26.084   9.766   5.730
 4523POPC   GL257998  26.394   9.949   5.625
 4523POPC   C1A57999  25.883   9.768   6.128
 4523POPC   D2A58000  25.858   9.562   6.539
 4523POPC   C3A58001  25.675   9.765   6.853
 4523POPC   C4A58002  25.764   9.702   7.252
 4523POPC   C1B58003  26.331  10.013   6.096
 4523POPC   C2B58004  26.091  10.021   6.516
 4523POPC   C3B58005  26.160   9.799   6.894
 4523POPC   C4B58006  26.198  10.003   7.266
 4524POPC   NC358007   3.058  23.565   5.455
 4524POPC   PO458008   2.438  23.688   5.614
 4524POPC   GL158009   2.818  23.723   5.904
 4524POPC   GL258010   3.004  24.052   5.826
 4524POPC   C1A58011   2.834  23.533   6.344
 4524POPC   D2A58012   2.905  23.435   6.791
 4524POPC   C3A58013   2.772  23.698   7.132
 4524POPC   C4A58014   2.914  23.810   7.531
 4524POPC   C1B58015   2.613  24.166   6.081
 4524POPC   C2B58016   2.396  24.198   6.488
 4524POPC   C3B58017   2.435  24.094   6.927
 4524POPC   C4B58018   2.547  24.106   7.365
 4525POPC   NC358019   0.955  42.708   5.545
 4525POPC   PO458020   1.133  43.322   5.607
 4525POPC   GL158021   1.280  43.003   5.866
 4525POPC   GL258022   1.561  43.189   5.947
 4525POPC   C1A58023   1.122  42.936   6.288
 4525POPC   D2A58024   0.931  43.069   6.668
 4525POPC   C3A58025   1.040  43.054   7.125
 4525POPC   C4A58026   0.923  42.998   7.573
 4525POPC   C1B58027   1.652  42.914   6.259
 4525POPC   C2B58028   1.489  42.905   6.672
 4525POPC   C3B58029   1.672  42.857   7.075
 4525POPC   C4B58030   1.492  43.121   7.371
 4526POPC   NC358031  20.099  42.514   5.210
 4526POPC   PO458032  19.554  42.005   5.432
 4526POPC   GL158033  19.777  42.260   5.766
 4526POPC   GL258034  19.548  42.534   5.908
 4526POPC   C1A58035  19.992  42.462   6.123
 4526POPC   D2A58036  19.835  42.369   6.533
 4526POPC   C3A58037  20.077  42.276   6.889
 4526POPC   C4A58038  20.095  42.120   7.302
 4526POPC   C1B58039  19.608  42.780   6.292
 4526POPC   C2B58040  19.704  42.812   6.760
 4526POPC   C3B58041  19.880  42.653   7.182
 4526POPC   C4B58042  19.741  42.496   7.610
 4527POPC   NC358043  33.873  31.405   5.421
 4527POPC   PO458044  33.976  32.019   5.560
 4527POPC   GL158045  33.775  31.742   5.861
 4527POPC   GL258046  33.618  31.394   5.890
 4527POPC   C1A58047  33.880  31.747   6.286
 4527POPC   D2A58048  33.911  31.912   6.705
 4527POPC   C3A58049  33.895  31.639   7.044
 4527POPC   C4A58050  34.117  31.267   7.179
 4527POPC   C1B58051  33.420  31.528   6.252
 4527POPC   C2B58052  33.652  31.419   6.623
 4527POPC   C3B58053  33.671  31.132   6.945
 4527POPC   C4B58054  33.617  31.316   7.333
 4528POPC   NC358055  16.459   9.700   5.306
 4528POPC   PO458056  17.128   9.581   5.530
 4528POPC   GL158057  16.825   9.717   5.826
 4528POPC   GL258058  16.448   9.724   5.817
 4528POPC   C1A58059  16.819   9.688   6.268
 4528POPC   D2A58060  16.642   9.538   6.637
 4528POPC   C3A58061  16.933   9.545   6.955
 4528POPC   C4A58062  17.114   9.928   7.148
 4528POPC   C1B58063  16.347   9.811   6.246
 4528POPC   C2B58064  16.544  10.043   6.606
 4528POPC   C3B58065  16.563   9.913   7.020
 4528POPC   C4B58066  16.378   9.739   7.343
 4529POPC   NC358067  29.801  44.932   5.345
 4529POPC   PO458068  30.238  44.519   5.581
 4529POPC   GL158069  29.853  44.736   5.817
 4529POPC   GL258070  29.930  44.507   6.002
 4529POPC   C1A58071  29.573  44.738   6.247
 4529POPC   D2A58072  29.588  44.966   6.651
 4529POPC   C3A58073  29.829  44.895   7.039
 4529POPC   C4A58074  29.994  44.934   7.462
 4529POPC   C1B58075  30.078  44.701   6.367
 4529POPC   C2B58076  29.877  44.506   6.703
 4529POPC   C3B58077  29.891  44.362   7.127
 4529POPC   C4B58078  30.128  44.454   7.487
 4530POPC   NC358079  12.623  32.807   5.422
 4530POPC   PO458080  13.121  33.219   5.577
 4530POPC   GL158081  12.937  32.919   5.824
 4530POPC   GL258082  12.613  33.025   5.868
 4530POPC   C1A58083  12.932  32.787   6.237
 4530POPC   D2A58084  12.820  32.614   6.617
 4530POPC   C3A58085  13.073  32.816   6.916
 4530POPC   C4A58086  12.932  32.801   7.316
 4530POPC   C1B58087  12.535  33.234   6.217
 4530POPC   C2B58088  12.746  33.139   6.582
 4530POPC   C3B58089  12.603  32.985   6.943
 4530POPC   C4B58090  12.518  33.115   7.319
 4531POPC   NC358091  11.852   4.306   5.349
 4531POPC   PO458092  12.522   4.307   5.303
 4531POPC   GL158093  12.295   4.305   5.717
 4531POPC   GL258094  12.048   4.573   5.733
 4531POPC   C1A58095  12.074   4.235   6.121
 4531POPC   D2A58096  12.043   4.393   6.543
 4531POPC   C3A58097  12.195   4.146   6.911
 4531POPC   C4A58098  12.203   4.379   7.306
 4531POPC   C1B58099  11.804   4.693   6.101
 4531POPC   C2B58100  11.745   4.835   6.538
 4531POPC   C3B58101  11.930   4.694   6.944
 4531POPC   C4B58102  11.719   4.692   7.328
 4532POPC   NC358103  18.649  42.069   5.110
 4532POPC   PO458104  18.001  42.215   5.429
 4532POPC   GL158105  18.132  42.375   5.844
 4532POPC   GL258106  18.504  42.490   5.906
 4532POPC   C1A58107  18.335  42.162   6.248
 4532POPC   D2A58108  18.568  42.261   6.640
 4532POPC   C3A58109  18.293  42.122   6.964
 4532POPC   C4A58110  18.123  41.896   7.317
 4532POPC   C1B58111  18.211  42.666   6.240
 4532POPC   C2B58112  18.074  42.463   6.604
 4532POPC   C3B58113  18.280  42.672   6.907
 4532POPC   C4B58114  18.163  42.637   7.303
 4533POPC   NC358115  12.571  35.311   5.459
 4533POPC   PO458116  13.184  35.474   5.421
 4533POPC   GL158117  13.053  35.396   5.796
 4533POPC   GL258118  12.787  35.596   5.873
 4533POPC   C1A58119  13.143  35.532   6.225
 4533POPC   D2A58120  12.911  35.568   6.605
 4533POPC   C3A58121  13.087  35.466   7.009
 4533POPC   C4A58122  13.116  35.171   7.354
 4533POPC   C1B58123  12.671  35.280   6.199
 4533POPC   C2B58124  12.508  35.081   6.588
 4533POPC   C3B58125  12.661  35.087   7.025
 4533POPC   C4B58126  12.588  35.322   7.412
 4534POPC   NC358127  33.446   0.242   5.477
 4534POPC   PO458128  33.732   0.867   5.651
 4534POPC   GL158129  34.042   0.616   5.857
 4534POPC   GL258130  33.965   0.295   5.725
 4534POPC   C1A58131  34.177   0.527   6.288
 4534POPC   D2A58132  33.802   0.599   6.564
 4534POPC   C3A58133  33.826   0.521   6.989
 4534POPC   C4A58134  33.942   0.630   7.421
 4534POPC   C1B58135  33.791   0.217   6.175
 4534POPC   C2B58136  33.754   0.049   6.608
 4534POPC   C3B58137  33.497   0.135   6.974
 4534POPC   C4B58138  33.500   0.361   7.357
 4535POPC   NC358139  26.300  13.938   5.207
 4535POPC   PO458140  25.958  13.459   5.483
 4535POPC   GL158141  26.095  13.571   5.854
 4535POPC   GL258142  26.301  13.851   5.758
 4535POPC   C1A58143  25.921  13.660   6.248
 4535POPC   D2A58144  26.126  13.560   6.613
 4535POPC   C3A58145  26.084  13.342   6.993
 4535POPC   C4A58146  26.310  13.218   7.335
 4535POPC   C1B58147  26.303  14.039   6.193
 4535POPC   C2B58148  26.086  14.056   6.607
 4535POPC   C3B58149  26.163  13.843   7.045
 4535POPC   C4B58150  26.318  13.736   7.456
 4536POPC   NC358151   4.460  37.215   5.425
 4536POPC   PO458152   4.507  36.586   5.295
 4536POPC   GL158153   4.363  36.795   5.736
 4536POPC   GL258154   4.562  37.102   5.910
 4536POPC   C1A58155   4.226  36.871   6.181
 4536POPC   D2A58156   4.474  37.093   6.491
 4536POPC   C3A58157   4.350  36.993   6.887
 4536POPC   C4A58158   4.257  36.731   7.249
 4536POPC   C1B58159   4.861  37.292   6.235
 4536POPC   C2B58160   5.014  37.285   6.652
 4536POPC   C3B58161   4.842  37.098   6.988
 4536POPC   C4B58162   4.542  37.158   7.320
 4537POPC   NC358163  44.952  40.586   5.302
 4537POPC   PO458164  44.355  40.273   5.428
 4537POPC   GL158165  44.620  40.514   5.748
 4537POPC   GL258166   0.003  40.489   5.796
 4537POPC   C1A58167  44.574  40.669   6.176
 4537POPC   D2A58168  44.476  40.921   6.550
 4537POPC   C3A58169  44.379  40.722   6.931
 4537POPC   C4A58170  44.333  40.903   7.309
 4537POPC   C1B58171   0.062  40.814   6.082
 4537POPC   C2B58172   0.049  40.865   6.521
 4537POPC   C3B58173  44.916  40.662   6.907
 4537POPC   C4B58174  44.849  40.820   7.318
 4538POPC   NC358175  25.491   3.438   5.413
 4538POPC   PO458176  25.066   3.807   5.644
 4538POPC   GL158177  25.293   3.549   5.917
 4538POPC   GL258178  25.190   3.216   5.858
 4538POPC   C1A58179  25.404   3.686   6.330
 4538POPC   D2A58180  25.326   3.882   6.710
 4538POPC   C3A58181  25.260   3.682   7.073
 4538POPC   C4A58182  25.534   3.756   7.397
 4538POPC   C1B58183  25.208   3.196   6.332
 4538POPC   C2B58184  25.460   3.329   6.716
 4538POPC   C3B58185  25.608   3.320   7.160
 4538POPC   C4B58186  25.346   3.286   7.542
 4539POPC   NC358187  27.809  43.516   5.503
 4539POPC   PO458188  27.725  44.128   5.354
 4539POPC   GL158189  27.412  44.025   5.733
 4539POPC   GL258190  27.503  43.676   5.875
 4539POPC   C1A58191  27.362  44.011   6.221
 4539POPC   D2A58192  27.607  44.084   6.605
 4539POPC   C3A58193  27.605  43.917   7.004
 4539POPC   C4A58194  27.409  44.082   7.341
 4539POPC   C1B58195  27.729  43.642   6.314
 4539POPC   C2B58196  28.000  43.741   6.700
 4539POPC   C3B58197  27.983  43.609   7.147
 4539POPC   C4B58198  27.649  43.648   7.509
 4540POPC   NC358199  38.174   6.091   5.675
 4540POPC   PO458200  38.646   5.652   5.374
 4540POPC   GL158201  38.627   5.842   5.810
 4540POPC   GL258202  38.303   5.731   5.990
 4540POPC   C1A58203  38.563   6.070   6.230
 4540POPC   D2A58204  38.300   5.988   6.577
 4540POPC   C3A58205  38.301   6.205   6.992
 4540POPC   C4A58206  38.407   5.942   7.302
 4540POPC   C1B58207  38.598   5.537   6.239
 4540POPC   C2B58208  38.520   5.239   6.534
 4540POPC   C3B58209  38.385   5.360   6.924
 4540POPC   C4B58210  38.642   5.489   7.245
 4541POPC   NC358211  27.292  26.160   5.407
 4541POPC   PO458212  27.825  25.761   5.196
 4541POPC   GL158213  27.715  25.844   5.695
 4541POPC   GL258214  27.367  25.871   5.828
 4541POPC   C1A58215  27.686  26.051   6.164
 4541POPC   D2A58216  27.595  26.334   6.542
 4541POPC   C3A58217  27.746  26.086   6.910
 4541POPC   C4A58218  27.902  26.203   7.296
 4541POPC   C1B58219  27.230  25.781   6.272
 4541POPC   C2B58220  27.303  25.934   6.693
 4541POPC   C3B58221  27.364  25.816   7.132
 4541POPC   C4B58222  27.659  25.787   7.489
 4542POPC   NC358223  20.100  14.772   5.453
 4542POPC   PO458224  20.832  14.618   5.475
 4542POPC   GL158225  20.772  14.416   5.875
 4542POPC   GL258226  20.435  14.332   5.905
 4542POPC   C1A58227  20.764  14.282   6.305
 4542POPC   D2A58228  20.753  13.987   6.654
 4542POPC   C3A58229  20.764  14.274   6.978
 4542POPC   C4A58230  20.819  14.340   7.409
 4542POPC   C1B58231  20.345  14.598   6.267
 4542POPC   C2B58232  20.488  14.737   6.691
 4542POPC   C3B58233  20.456  14.658   7.138
 4542POPC   C4B58234  20.308  14.267   7.271
 4543POPC   NC358235  27.455  10.864   5.485
 4543POPC   PO458236  28.070  10.522   5.469
 4543POPC   GL158237  27.746  10.618   5.806
 4543POPC   GL258238  27.908  10.673   6.091
 4543POPC   C1A58239  27.432  10.795   6.150
 4543POPC   D2A58240  27.593  10.910   6.577
 4543POPC   C3A58241  27.424  10.706   6.962
 4543POPC   C4A58242  27.635  10.556   7.342
 4543POPC   C1B58243  27.772  10.306   6.302
 4543POPC   C2B58244  27.733  10.359   6.739
 4543POPC   C3B58245  27.911  10.192   7.110
 4543POPC   C4B58246  28.052  10.171   7.505
 4544POPC   NC358247  23.214  26.289   5.630
 4544POPC   PO458248  22.642  25.843   5.424
 4544POPC   GL158249  22.850  25.974   5.776
 4544POPC   GL258250  22.967  25.668   5.852
 4544POPC   C1A58251  22.839  26.080   6.220
 4544POPC   D2A58252  22.712  25.949   6.647
 4544POPC   C3A58253  22.931  26.183   6.969
 4544POPC   C4A58254  23.189  26.358   7.285
 4544POPC   C1B58255  22.785  25.562   6.250
 4544POPC   C2B58256  23.027  25.533   6.629
 4544POPC   C3B58257  23.019  25.656   7.022
 4544POPC   C4B58258  22.965  25.887   7.389
 4545POPC   NC358259  24.713  34.711   5.540
 4545POPC   PO458260  24.146  34.790   5.166
 4545POPC   GL158261  24.282  34.481   5.630
 4545POPC   GL258262  24.068  34.554   5.880
 4545POPC   C1A58263  24.577  34.488   6.090
 4545POPC   D2A58264  24.741  34.684   6.498
 4545POPC   C3A58265  24.606  34.542   6.882
 4545POPC   C4A58266  24.720  34.353   7.280
 4545POPC   C1B58267  24.147  34.611   6.317
 4545POPC   C2B58268  24.096  34.507   6.745
 4545POPC   C3B58269  24.200  34.690   7.137
 4545POPC   C4B58270  24.288  34.507   7.538
 4546POPC   NC358271   8.098  27.072   5.430
 4546POPC   PO458272   8.419  26.454   5.532
 4546POPC   GL158273   8.202  26.679   5.858
 4546POPC   GL258274   8.339  26.983   5.869
 4546POPC   C1A58275   8.072  26.548   6.313
 4546POPC   D2A58276   8.050  26.406   6.776
 4546POPC   C3A58277   7.909  26.726   7.099
 4546POPC   C4A58278   8.012  27.127   7.250
 4546POPC   C1B58279   8.101  27.084   6.239
 4546POPC   C2B58280   8.112  26.931   6.670
 4546POPC   C3B58281   8.401  26.768   6.982
 4546POPC   C4B58282   8.611  27.076   7.220
 4547POPC   NC358283   3.644  40.346   5.445
 4547POPC   PO458284   3.558  39.700   5.417
 4547POPC   GL158285   3.453  39.999   5.773
 4547POPC   GL258286   3.177  40.270   5.701
 4547POPC   C1A58287   3.666  40.009   6.188
 4547POPC   D2A58288   3.622  39.747   6.565
 4547POPC   C3A58289   3.546  39.996   6.915
 4547POPC   C4A58290   3.600  40.230   7.235
 4547POPC   C1B58291   3.196  40.253   6.151
 4547POPC   C2B58292   3.406  40.314   6.533
 4547POPC   C3B58293   3.221  40.407   6.911
 4547POPC   C4B58294   3.095  40.168   7.231
 4548POPC   NC358295  40.785  37.574   5.415
 4548POPC   PO458296  41.290  38.032   5.232
 4548POPC   GL158297  41.138  37.823   5.699
 4548POPC   GL258298  40.744  37.799   5.851
 4548POPC   C1A58299  41.096  37.848   6.195
 4548POPC   D2A58300  40.830  37.888   6.554
 4548POPC   C3A58301  40.987  38.023   6.964
 4548POPC   C4A58302  40.704  38.039   7.317
 4548POPC   C1B58303  40.816  37.428   6.121
 4548POPC   C2B58304  40.742  37.371   6.550
 4548POPC   C3B58305  40.782  37.544   6.976
 4548POPC   C4B58306  40.713  37.534   7.444
 4549POPC   NC358307  35.449  38.096   5.749
 4549POPC   PO458308  36.024  37.707   5.544
 4549POPC   GL158309  36.196  37.618   5.910
 4549POPC   GL258310  35.906  37.735   6.082
 4549POPC   C1A58311  36.415  37.591   6.293
 4549POPC   D2A58312  36.443  37.563   6.737
 4549POPC   C3A58313  36.084  37.725   6.971
 4549POPC   C4A58314  36.253  37.872   7.307
 4549POPC   C1B58315  35.966  37.365   6.359
 4549POPC   C2B58316  36.035  37.244   6.790
 4549POPC   C3B58317  35.772  37.291   7.183
 4549POPC   C4B58318  35.865  37.185   7.648
 4550POPC   NC358319  41.113   8.392   5.413
 4550POPC   PO458320  40.783   7.851   5.263
 4550POPC   GL158321  40.843   8.070   5.710
 4550POPC   GL258322  40.605   7.931   5.913
 4550POPC   C1A58323  40.961   8.146   6.193
 4550POPC   D2A58324  40.971   8.018   6.626
 4550POPC   C3A58325  40.851   8.228   6.982
 4550POPC   C4A58326  40.863   8.166   7.413
 4550POPC   C1B58327  40.399   8.022   6.307
 4550POPC   C2B58328  40.385   8.036   6.724
 4550POPC   C3B58329  40.452   7.943   7.103
 4550POPC   C4B58330  40.327   8.256   7.290
 4551POPC   NC358331  30.025  15.052   5.333
 4551POPC   PO458332  29.346  15.293   5.454
 4551POPC   GL158333  29.726  15.282   5.713
 4551POPC   GL258334  29.924  14.988   5.818
 4551POPC   C1A58335  29.824  15.406   6.141
 4551POPC   D2A58336  29.956  15.247   6.564
 4551POPC   C3A58337  29.908  15.395   6.987
 4551POPC   C4A58338  29.874  15.154   7.337
 4551POPC   C1B58339  29.933  14.864   6.222
 4551POPC   C2B58340  30.140  14.718   6.583
 4551POPC   C3B58341  30.144  14.924   6.962
 4551POPC   C4B58342  30.361  15.025   7.352
 4552POPC   NC358343  12.006   9.503   4.976
 4552POPC   PO458344  12.114   9.048   5.450
 4552POPC   GL158345  12.083   9.049   5.866
 4552POPC   GL258346  11.795   9.288   5.851
 4552POPC   C1A58347  12.177   8.750   6.230
 4552POPC   D2A58348  12.302   8.790   6.665
 4552POPC   C3A58349  11.983   8.760   6.977
 4552POPC   C4A58350  12.065   8.889   7.387
 4552POPC   C1B58351  11.798   9.099   6.278
 4552POPC   C2B58352  11.949   9.169   6.696
 4552POPC   C3B58353  11.882   9.277   7.116
 4552POPC   C4B58354  11.591   9.021   7.365
 4553POPC   NC358355  13.032  10.683   5.389
 4553POPC   PO458356  12.743  10.060   5.518
 4553POPC   GL158357  12.831  10.400   5.782
 4553POPC   GL258358  12.533  10.575   5.873
 4553POPC   C1A58359  12.914  10.572   6.210
 4553POPC   D2A58360  12.839  10.812   6.562
 4553POPC   C3A58361  13.124  10.809   6.887
 4553POPC   C4A58362  13.011  10.688   7.295
 4553POPC   C1B58363  12.571  10.185   6.171
 4553POPC   C2B58364  12.833  10.207   6.556
 4553POPC   C3B58365  12.731  10.428   6.935
 4553POPC   C4B58366  12.425  10.269   7.261
 4554POPC   NC358367   3.758   0.761   5.517
 4554POPC   PO458368   3.250   0.396   5.402
 4554POPC   GL158369   3.465   0.275   5.768
 4554POPC   GL258370   3.390   0.574   5.860
 4554POPC   C1A58371   3.453   0.176   6.213
 4554POPC   D2A58372   3.543  44.976   6.616
 4554POPC   C3A58373   3.391   0.229   6.932
 4554POPC   C4A58374   3.556   0.444   7.271
 4554POPC   C1B58375   3.616   0.672   6.187
 4554POPC   C2B58376   3.646   0.520   6.576
 4554POPC   C3B58377   3.644   0.768   6.903
 4554POPC   C4B58378   3.613   0.953   7.266
 4555POPC   NC358379  18.825  15.689   5.545
 4555POPC   PO458380  18.952  16.320   5.275
 4555POPC   GL158381  19.036  16.174   5.711
 4555POPC   GL258382  19.365  15.984   5.757
 4555POPC   C1A58383  18.994  15.992   6.143
 4555POPC   D2A58384  19.217  15.866   6.501
 4555POPC   C3A58385  19.035  15.730   6.864
 4555POPC   C4A58386  19.140  15.883   7.253
 4555POPC   C1B58387  19.474  16.223   6.172
 4555POPC   C2B58388  19.634  16.103   6.613
 4555POPC   C3B58389  19.520  16.165   7.023
 4555POPC   C4B58390  19.631  15.934   7.388
 4556POPC   NC358391  13.154  42.358   5.394
 4556POPC   PO458392  13.861  42.665   5.431
 4556POPC   GL158393  13.596  42.410   5.738
 4556POPC   GL258394  13.232  42.535   5.867
 4556POPC   C1A58395  13.803  42.217   6.090
 4556POPC   D2A58396  14.075  42.332   6.422
 4556POPC   C3A58397  13.769  42.314   6.748
 4556POPC   C4A58398  13.744  42.263   7.183
 4556POPC   C1B58399  13.312  42.129   6.083
 4556POPC   C2B58400  13.359  41.929   6.496
 4556POPC   C3B58401  13.290  42.150   6.898
 4556POPC   C4B58402  13.249  42.270   7.331
 4557POPC   NC358403   8.911  12.544   5.428
 4557POPC   PO458404   9.329  13.006   5.172
 4557POPC   GL158405   9.255  12.848   5.684
 4557POPC   GL258406   8.921  12.897   5.822
 4557POPC   C1A58407   9.316  12.773   6.167
 4557POPC   D2A58408   9.025  12.937   6.503
 4557POPC   C3A58409   9.105  13.040   6.961
 4557POPC   C4A58410   9.071  13.032   7.433
 4557POPC   C1B58411   8.925  12.497   6.056
 4557POPC   C2B58412   8.910  12.449   6.472
 4557POPC   C3B58413   9.027  12.486   6.909
 4557POPC   C4B58414   8.885  12.569   7.314
 4558POPC   NC358415  36.099   3.205   5.567
 4558POPC   PO458416  36.108   2.706   5.113
 4558POPC   GL158417  36.093   2.645   5.584
 4558POPC   GL258418  36.423   2.720   5.726
 4558POPC   C1A58419  36.042   2.624   6.068
 4558POPC   D2A58420  35.834   2.601   6.489
 4558POPC   C3A58421  35.998   2.737   6.893
 4558POPC   C4A58422  35.817   3.030   7.197
 4558POPC   C1B58423  36.386   3.032   6.091
 4558POPC   C2B58424  36.271   2.923   6.479
 4558POPC   C3B58425  36.521   2.874   6.804
 4558POPC   C4B58426  36.393   2.953   7.198
 4559POPC   NC358427  16.667  29.522   5.449
 4559POPC   PO458428  16.647  30.167   5.580
 4559POPC   GL158429  16.631  29.765   5.917
 4559POPC   GL258430  16.315  29.607   5.924
 4559POPC   C1A58431  16.753  29.656   6.399
 4559POPC   D2A58432  16.695  29.959   6.781
 4559POPC   C3A58433  16.894  29.818   7.169
 4559POPC   C4A58434  17.010  30.072   7.525
 4559POPC   C1B58435  16.247  29.714   6.394
 4559POPC   C2B58436  16.373  29.591   6.825
 4559POPC   C3B58437  16.404  29.827   7.254
 4559POPC   C4B58438  16.480  29.989   7.685
 4560POPC   NC358439   3.476  35.629   5.154
 4560POPC   PO458440   3.699  35.206   5.606
 4560POPC   GL158441   3.560  35.274   5.973
 4560POPC   GL258442   3.533  35.625   5.927
 4560POPC   C1A58443   3.214  35.203   6.247
 4560POPC   D2A58444   3.415  35.121   6.635
 4560POPC   C3A58445   3.265  35.161   7.035
 4560POPC   C4A58446   3.495  34.957   7.404
 4560POPC   C1B58447   3.536  35.577   6.389
 4560POPC   C2B58448   3.581  35.583   6.842
 4560POPC   C3B58449   3.708  35.344   7.180
 4560POPC   C4B58450   3.905  35.372   7.572
 4561POPC   NC358451  34.672  31.182   5.162
 4561POPC   PO458452  34.780  30.452   5.332
 4561POPC   GL158453  34.609  30.487   5.742
 4561POPC   GL258454  34.653  30.804   5.878
 4561POPC   C1A58455  34.431  30.436   6.161
 4561POPC   D2A58456  34.638  30.580   6.539
 4561POPC   C3A58457  34.492  30.552   6.968
 4561POPC   C4A58458  34.713  30.476   7.366
 4561POPC   C1B58459  34.413  30.964   6.217
 4561POPC   C2B58460  34.376  31.005   6.652
 4561POPC   C3B58461  34.716  31.029   6.919
 4561POPC   C4B58462  34.514  30.963   7.286
 4562POPC   NC358463  34.399  14.980   5.530
 4562POPC   PO458464  34.791  15.491   5.283
 4562POPC   GL158465  34.664  15.474   5.806
 4562POPC   GL258466  34.375  15.260   5.945
 4562POPC   C1A58467  34.769  15.302   6.283
 4562POPC   D2A58468  34.664  15.049   6.677
 4562POPC   C3A58469  34.612  15.231   7.110
 4562POPC   C4A58470  34.669  15.186   7.567
 4562POPC   C1B58471  34.349  15.587   6.255
 4562POPC   C2B58472  34.559  15.621   6.652
 4562POPC   C3B58473  34.414  15.713   7.058
 4562POPC   C4B58474  34.367  15.625   7.527
 4563POPC   NC358475  44.144  12.674   5.314
 4563POPC   PO458476  43.855  13.107   5.655
 4563POPC   GL158477  43.896  12.677   5.792
 4563POPC   GL258478  43.592  12.480   5.714
 4563POPC   C1A58479  43.971  12.690   6.238
 4563POPC   D2A58480  43.827  13.035   6.530
 4563POPC   C3A58481  43.970  12.965   6.946
 4563POPC   C4A58482  44.074  12.545   7.099
 4563POPC   C1B58483  43.470  12.688   6.109
 4563POPC   C2B58484  43.542  12.593   6.533
 4563POPC   C3B58485  43.519  12.686   6.947
 4563POPC   C4B58486  43.677  12.718   7.378
 4564POPC   NC358487  20.018  23.913   5.535
 4564POPC   PO458488  19.948  23.290   5.560
 4564POPC   GL158489  19.862  23.563   5.905
 4564POPC   GL258490  19.793  23.914   5.981
 4564POPC   C1A58491  20.089  23.639   6.287
 4564POPC   D2A58492  20.164  23.874   6.657
 4564POPC   C3A58493  19.951  23.777   7.007
 4564POPC   C4A58494  20.131  23.682   7.394
 4564POPC   C1B58495  19.709  23.958   6.413
 4564POPC   C2B58496  19.775  24.211   6.766
 4564POPC   C3B58497  19.523  24.051   7.105
 4564POPC   C4B58498  19.654  23.911   7.529
 4565POPC   NC358499  22.678   1.318   5.420
 4565POPC   PO458500  22.025   1.093   5.316
 4565POPC   GL158501  22.023   1.112   5.783
 4565POPC   GL258502  22.347   1.021   5.756
 4565POPC   C1A58503  21.930   1.209   6.254
 4565POPC   D2A58504  22.007   1.438   6.666
 4565POPC   C3A58505  22.113   1.297   7.111
 4565POPC   C4A58506  21.818   1.341   7.471
 4565POPC   C1B58507  22.313   0.872   6.192
 4565POPC   C2B58508  22.311   0.992   6.664
 4565POPC   C3B58509  22.413   0.876   7.140
 4565POPC   C4B58510  22.328   0.662   7.605
 4566POPC   NC358511  28.703  28.036   5.577
 4566POPC   PO458512  29.357  28.276   5.437
 4566POPC   GL158513  29.177  28.106   5.793
 4566POPC   GL258514  28.951  28.404   5.840
 4566POPC   C1A58515  29.048  28.061   6.216
 4566POPC   D2A58516  29.062  28.262   6.599
 4566POPC   C3A58517  28.836  28.174   6.948
 4566POPC   C4A58518  29.070  28.221   7.324
 4566POPC   C1B58519  28.894  28.615   6.247
 4566POPC   C2B58520  29.027  28.764   6.654
 4566POPC   C3B58521  28.976  28.692   7.065
 4566POPC   C4B58522  28.662  28.523   7.293
 4567POPC   NC358523  26.920  20.904   5.493
 4567POPC   PO458524  26.979  21.603   5.373
 4567POPC   GL158525  26.780  21.462   5.776
 4567POPC   GL258526  26.430  21.292   5.806
 4567POPC   C1A58527  26.691  21.535   6.218
 4567POPC   D2A58528  26.940  21.550   6.577
 4567POPC   C3A58529  26.813  21.747   6.945
 4567POPC   C4A58530  27.018  21.551   7.264
 4567POPC   C1B58531  26.542  21.023   6.190
 4567POPC   C2B58532  26.533  20.887   6.607
 4567POPC   C3B58533  26.648  21.246   6.865
 4567POPC   C4B58534  26.523  21.373   7.244
 4568POPC   NC358535  22.764  26.885   5.312
 4568POPC   PO458536  22.069  26.789   5.287
 4568POPC   GL158537  22.129  26.905   5.744
 4568POPC   GL258538  22.452  26.826   5.762
 4568POPC   C1A58539  22.168  26.785   6.231
 4568POPC   D2A58540  22.088  26.666   6.702
 4568POPC   C3A58541  21.958  26.945   7.064
 4568POPC   C4A58542  21.938  26.816   7.554
 4568POPC   C1B58543  22.682  26.762   6.165
 4568POPC   C2B58544  22.752  26.940   6.561
 4568POPC   C3B58545  22.508  26.899   6.915
 4568POPC   C4B58546  22.326  26.675   7.244
 4569POPC   NC358547  18.179  19.082   5.060
 4569POPC   PO458548  18.162  19.443   5.643
 4569POPC   GL158549  18.214  19.112   5.893
 4569POPC   GL258550  18.495  18.923   5.817
 4569POPC   C1A58551  18.227  19.172   6.323
 4569POPC   D2A58552  18.100  19.076   6.700
 4569POPC   C3A58553  18.239  19.293   7.056
 4569POPC   C4A58554  18.220  18.992   7.356
 4569POPC   C1B58555  18.637  18.864   6.238
 4569POPC   C2B58556  18.611  18.834   6.704
 4569POPC   C3B58557  18.687  19.035   7.119
 4569POPC   C4B58558  18.604  19.242   7.533
 4570POPC   NC358559  16.682   8.067   5.318
 4570POPC   PO458560  16.646   8.705   5.496
 4570POPC   GL158561  16.523   8.319   5.751
 4570POPC   GL258562  16.787   8.053   5.817
 4570POPC   C1A58563  16.436   8.114   6.170
 4570POPC   D2A58564  16.395   8.123   6.617
 4570POPC   C3A58565  16.751   8.363   6.823
 4570POPC   C4A58566  16.740   8.565   7.244
 4570POPC   C1B58567  16.951   8.293   6.162
 4570POPC   C2B58568  17.234   8.242   6.523
 4570POPC   C3B58569  17.196   8.094   6.936
 4570POPC   C4B58570  17.198   8.350   7.295
 4571POPC   NC358571  20.045   2.145   5.446
 4571POPC   PO458572  19.802   1.541   5.279
 4571POPC   GL158573  19.782   1.777   5.665
 4571POPC   GL258574  20.118   1.720   5.704
 4571POPC   C1A58575  19.820   1.983   6.088
 4571POPC   D2A58576  20.003   2.207   6.449
 4571POPC   C3A58577  19.868   2.151   6.889
 4571POPC   C4A58578  19.932   2.399   7.257
 4571POPC   C1B58579  20.153   1.546   6.104
 4571POPC   C2B58580  20.009   1.689   6.481
 4571POPC   C3B58581  20.235   1.798   6.816
 4571POPC   C4B58582  20.117   1.756   7.211
 4572POPC   NC358583   6.607  41.768   5.407
 4572POPC   PO458584   6.352  41.219   5.092
 4572POPC   GL158585   6.519  41.310   5.614
 4572POPC   GL258586   6.457  41.622   5.881
 4572POPC   C1A58587   6.670  41.196   6.080
 4572POPC   D2A58588   6.977  41.197   6.463
 4572POPC   C3A58589   6.804  41.414   6.866
 4572POPC   C4A58590   6.418  41.311   7.128
 4572POPC   C1B58591   6.436  41.858   6.340
 4572POPC   C2B58592   6.408  41.840   6.854
 4572POPC   C3B58593   6.289  41.790   7.333
 4572POPC   C4B58594   6.440  41.829   7.797
 4573POPC   NC358595  33.909  25.089   4.775
 4573POPC   PO458596  33.805  25.611   5.192
 4573POPC   GL158597  33.795  25.583   5.681
 4573POPC   GL258598  34.128  25.567   5.835
 4573POPC   C1A58599  33.710  25.405   6.141
 4573POPC   D2A58600  33.535  25.106   6.476
 4573POPC   C3A58601  33.681  25.168   6.886
 4573POPC   C4A58602  33.721  25.112   7.308
 4573POPC   C1B58603  34.105  25.709   6.276
 4573POPC   C2B58604  33.976  25.553   6.691
 4573POPC   C3B58605  34.024  25.512   7.149
 4573POPC   C4B58606  34.105  25.420   7.619
 4574POPC   NC358607   4.937  38.722   5.115
 4574POPC   PO458608   5.345  38.242   5.339
 4574POPC   GL158609   5.085  38.437   5.693
 4574POPC   GL258610   5.183  38.789   5.747
 4574POPC   C1A58611   4.934  38.462   6.146
 4574POPC   D2A58612   4.760  38.247   6.509
 4574POPC   C3A58613   4.754  38.411   6.938
 4574POPC   C4A58614   5.157  38.495   7.084
 4574POPC   C1B58615   5.171  38.916   6.196
 4574POPC   C2B58616   5.256  38.821   6.634
 4574POPC   C3B58617   5.348  38.953   7.048
 4574POPC   C4B58618   5.264  38.803   7.484
 4575POPC   NC358619  40.338  20.058   5.247
 4575POPC   PO458620  40.242  19.360   5.369
 4575POPC   GL158621  40.153  19.646   5.723
 4575POPC   GL258622  40.292  19.985   5.755
 4575POPC   C1A58623  40.114  19.580   6.176
 4575POPC   D2A58624  40.353  19.649   6.539
 4575POPC   C3A58625  40.232  19.949   6.880
 4575POPC   C4A58626  39.957  19.822   7.209
 4575POPC   C1B58627  39.921  20.029   6.041
 4575POPC   C2B58628  39.930  19.991   6.472
 4575POPC   C3B58629  39.682  20.049   6.838
 4575POPC   C4B58630  39.652  20.219   7.268
 4576POPC   NC358631  44.518  33.456   5.427
 4576POPC   PO458632  44.651  34.114   5.568
 4576POPC   GL158633  44.667  33.762   5.832
 4576POPC   GL258634  44.992  33.782   5.896
 4576POPC   C1A58635  44.496  33.518   6.204
 4576POPC   D2A58636  44.646  33.404   6.655
 4576POPC   C3A58637  44.538  33.687   6.976
 4576POPC   C4A58638  44.398  33.658   7.372
 4576POPC   C1B58639   0.013  33.541   6.255
 4576POPC   C2B58640   0.040  33.767   6.627
 4576POPC   C3B58641  44.885  34.050   6.938
 4576POPC   C4B58642  44.843  33.903   7.362
 4577POPC   NC358643   9.916  11.164   5.126
 4577POPC   PO458644  10.274  11.581   5.480
 4577POPC   GL158645  10.469  11.428   5.858
 4577POPC   GL258646  10.706  11.143   5.790
 4577POPC   C1A58647  10.306  11.220   6.249
 4577POPC   D2A58648  10.477  11.039   6.629
 4577POPC   C3A58649  10.496  11.368   6.917
 4577POPC   C4A58650  10.508  11.379   7.343
 4577POPC   C1B58651  10.805  11.270   6.232
 4577POPC   C2B58652  10.925  11.279   6.649
 4577POPC   C3B58653  10.898  11.107   7.043
 4577POPC   C4B58654  11.018  10.873   7.397
 4578POPC   NC358655  39.592  40.023   5.579
 4578POPC   PO458656  38.959  39.746   5.527
 4578POPC   GL158657  39.014  39.888   5.897
 4578POPC   GL258658  38.843  39.623   6.067
 4578POPC   C1A58659  39.207  40.139   6.237
 4578POPC   D2A58660  39.005  40.335   6.608
 4578POPC   C3A58661  39.082  40.203   7.027
 4578POPC   C4A58662  39.236  40.026   7.433
 4578POPC   C1B58663  39.243  39.624   6.263
 4578POPC   C2B58664  39.312  39.780   6.667
 4578POPC   C3B58665  39.087  39.685   7.031
 4578POPC   C4B58666  38.973  39.492   7.405
 4579POPC   NC358667  11.910  31.981   5.485
 4579POPC   PO458668  12.333  32.485   5.594
 4579POPC   GL158669  12.101  32.308   5.897
 4579POPC   GL258670  11.818  32.470   5.742
 4579POPC   C1A58671  12.083  31.942   6.176
 4579POPC   D2A58672  12.048  31.787   6.596
 4579POPC   C3A58673  12.146  32.129   6.862
 4579POPC   C4A58674  12.034  32.271   7.283
 4579POPC   C1B58675  11.727  32.626   6.129
 4579POPC   C2B58676  11.675  32.404   6.504
 4579POPC   C3B58677  11.831  32.538   6.884
 4579POPC   C4B58678  11.723  32.678   7.291
 4580POPC   NC358679  32.656  15.453   5.729
 4580POPC   PO458680  32.363  14.912   5.474
 4580POPC   GL158681  32.433  15.003   5.911
 4580POPC   GL258682  32.160  15.227   5.967
 4580POPC   C1A58683  32.473  15.105   6.349
 4580POPC   D2A58684  32.378  14.847   6.642
 4580POPC   C3A58685  32.398  15.006   7.008
 4580POPC   C4A58686  32.405  15.355   7.284
 4580POPC   C1B58687  31.996  14.920   6.299
 4580POPC   C2B58688  31.926  14.977   6.774
 4580POPC   C3B58689  31.900  15.207   7.137
 4580POPC   C4B58690  31.603  15.409   7.435
 4581POPC   NC358691  39.901  27.008   5.626
 4581POPC   PO458692  40.169  27.561   5.353
 4581POPC   GL158693  40.091  27.558   5.776
 4581POPC   GL258694  39.752  27.550   5.799
 4581POPC   C1A58695  40.162  27.436   6.201
 4581POPC   D2A58696  40.035  27.313   6.601
 4581POPC   C3A58697  40.314  27.486   6.904
 4581POPC   C4A58698  40.345  27.657   7.318
 4581POPC   C1B58699  39.655  27.453   6.223
 4581POPC   C2B58700  39.674  27.702   6.635
 4581POPC   C3B58701  39.844  27.613   7.058
 4581POPC   C4B58702  39.772  27.361   7.430
 4582POPC   NC358703   3.692  11.028   5.449
 4582POPC   PO458704   3.148  11.320   5.469
 4582POPC   GL158705   3.287  11.454   5.847
 4582POPC   GL258706   3.603  11.318   5.848
 4582POPC   C1A58707   3.209  11.298   6.248
 4582POPC   D2A58708   3.098  11.141   6.654
 4582POPC   C3A58709   3.238  11.396   6.982
 4582POPC   C4A58710   3.404  11.397   7.439
 4582POPC   C1B58711   3.747  11.244   6.231
 4582POPC   C2B58712   3.607  11.338   6.624
 4582POPC   C3B58713   3.710  11.188   7.019
 4582POPC   C4B58714   3.798  11.040   7.403
 4583POPC   NC358715  41.767  23.167   5.589
 4583POPC   PO458716  41.784  22.542   5.267
 4583POPC   GL158717  41.574  22.671   5.679
 4583POPC   GL258718  41.353  22.955   5.760
 4583POPC   C1A58719  41.654  22.760   6.147
 4583POPC   D2A58720  41.673  23.034   6.534
 4583POPC   C3A58721  41.851  22.831   6.925
 4583POPC   C4A58722  41.989  23.008   7.297
 4583POPC   C1B58723  41.264  23.139   6.156
 4583POPC   C2B58724  41.159  23.159   6.593
 4583POPC   C3B58725  41.349  22.969   6.972
 4583POPC   C4B58726  41.184  22.716   7.307
 4584POPC   NC358727  23.714   1.482   5.555
 4584POPC   PO458728  23.788   2.152   5.501
 4584POPC   GL158729  23.736   1.909   5.871
 4584POPC   GL258730  23.399   1.785   5.880
 4584POPC   C1A58731  23.727   2.081   6.293
 4584POPC   D2A58732  23.736   2.383   6.650
 4584POPC   C3A58733  23.724   2.235   7.056
 4584POPC   C4A58734  24.138   2.254   7.239
 4584POPC   C1B58735  23.241   1.935   6.263
 4584POPC   C2B58736  23.376   2.016   6.668
 4584POPC   C3B58737  23.385   1.813   6.999
 4584POPC   C4B58738  23.283   1.623   7.335
 4585POPC   NC358739  17.804  24.588   5.370
 4585POPC   PO458740  18.423  24.685   5.386
 4585POPC   GL158741  18.438  24.587   5.794
 4585POPC   GL258742  18.093  24.501   5.832
 4585POPC   C1A58743  18.488  24.597   6.239
 4585POPC   D2A58744  18.281  24.513   6.630
 4585POPC   C3A58745  18.594  24.396   6.920
 4585POPC   C4A58746  18.452  24.338   7.308
 4585POPC   C1B58747  17.966  24.597   6.242
 4585POPC   C2B58748  17.816  24.810   6.613
 4585POPC   C3B58749  17.967  24.820   7.006
 4585POPC   C4B58750  17.996  24.528   7.348
 4586POPC   NC358751   9.269  11.873   5.408
 4586POPC   PO458752   8.638  12.136   5.421
 4586POPC   GL158753   8.908  12.092   5.747
 4586POPC   GL258754   8.639  12.073   5.966
 4586POPC   C1A58755   9.119  12.048   6.178
 4586POPC   D2A58756   9.209  12.078   6.629
 4586POPC   C3A58757   9.243  11.864   7.016
 4586POPC   C4A58758   9.192  12.170   7.340
 4586POPC   C1B58759   8.594  12.065   6.374
 4586POPC   C2B58760   8.654  12.130   6.767
 4586POPC   C3B58761   8.766  12.061   7.104
 4586POPC   C4B58762   8.671  12.090   7.481
 4587POPC   NC358763  13.694  44.917   5.462
 4587POPC   PO458764  13.561  44.236   5.453
 4587POPC   GL158765  13.495  44.361   5.869
 4587POPC   GL258766  13.337  44.683   5.823
 4587POPC   C1A58767  13.550  44.348   6.311
 4587POPC   D2A58768  13.675  44.547   6.691
 4587POPC   C3A58769  13.658  44.446   7.102
 4587POPC   C4A58770  13.864  44.540   7.469
 4587POPC   C1B58771  13.520  44.834   6.214
 4587POPC   C2B58772  13.429   0.027   6.615
 4587POPC   C3B58773  13.297  44.867   6.999
 4587POPC   C4B58774  13.435  44.808   7.398
 4588POPC   NC358775  33.549  14.564   5.421
 4588POPC   PO458776  33.736  13.943   5.513
 4588POPC   GL158777  33.846  14.257   5.837
 4588POPC   GL258778  33.657  14.559   5.911
 4588POPC   C1A58779  34.021  14.366   6.261
 4588POPC   D2A58780  34.186  14.239   6.676
 4588POPC   C3A58781  33.912  14.482   6.946
 4588POPC   C4A58782  33.675  14.293   7.263
 4588POPC   C1B58783  33.492  14.305   6.243
 4588POPC   C2B58784  33.554  14.234   6.679
 4588POPC   C3B58785  33.413  14.564   6.931
 4588POPC   C4B58786  33.386  14.700   7.309
 4589POPC   NC358787  10.340  35.159   5.383
 4589POPC   PO458788   9.965  35.703   5.488
 4589POPC   GL158789  10.251  35.494   5.815
 4589POPC   GL258790  10.491  35.179   5.869
 4589POPC   C1A58791  10.306  35.429   6.275
 4589POPC   D2A58792  10.460  35.299   6.665
 4589POPC   C3A58793  10.208  35.331   7.025
 4589POPC   C4A58794  10.436  35.313   7.406
 4589POPC   C1B58795  10.644  34.979   6.283
 4589POPC   C2B58796  10.687  34.823   6.719
 4589POPC   C3B58797  10.744  35.070   7.094
 4589POPC   C4B58798  10.867  35.026   7.551
 4590POPC   NC358799  34.439  32.728   5.559
 4590POPC   PO458800  34.369  33.371   5.312
 4590POPC   GL158801  34.583  33.325   5.777
 4590POPC   GL258802  34.463  33.048   6.023
 4590POPC   C1A58803  34.832  33.306   6.235
 4590POPC   D2A58804  34.750  32.993   6.602
 4590POPC   C3A58805  34.988  32.977   6.995
 4590POPC   C4A58806  34.878  33.151   7.406
 4590POPC   C1B58807  34.195  32.823   6.346
 4590POPC   C2B58808  34.283  32.720   6.776
 4590POPC   C3B58809  34.483  32.978   7.085
 4590POPC   C4B58810  34.432  32.957   7.520
 4591POPC   NC358811  13.403   8.350   5.394
 4591POPC   PO458812  13.626   7.710   5.524
 4591POPC   GL158813  13.813   7.930   5.905
 4591POPC   GL258814  13.675   8.273   5.882
 4591POPC   C1A58815  13.670   8.013   6.348
 4591POPC   D2A58816  13.475   8.049   6.776
 4591POPC   C3A58817  13.762   7.980   7.130
 4591POPC   C4A58818  13.829   8.201   7.515
 4591POPC   C1B58819  13.337   8.389   6.208
 4591POPC   C2B58820  13.116   8.393   6.590
 4591POPC   C3B58821  13.329   8.529   6.945
 4591POPC   C4B58822  13.374   8.261   7.276
 4592POPC   NC358823  19.509   9.417   5.585
 4592POPC   PO458824  19.020   9.028   5.244
 4592POPC   GL158825  18.983   8.890   5.703
 4592POPC   GL258826  19.152   9.138   5.884
 4592POPC   C1A58827  18.835   8.710   6.108
 4592POPC   D2A58828  19.007   8.586   6.532
 4592POPC   C3A58829  18.912   8.839   6.918
 4592POPC   C4A58830  18.762   8.699   7.340
 4592POPC   C1B58831  19.046   9.114   6.343
 4592POPC   C2B58832  19.009   9.342   6.726
 4592POPC   C3B58833  19.211   9.369   7.105
 4592POPC   C4B58834  19.248   9.317   7.547
 4593POPC   NC358835  30.646  26.559   5.465
 4593POPC   PO458836  30.162  27.047   5.476
 4593POPC   GL158837  30.438  26.881   5.837
 4593POPC   GL258838  30.820  26.793   5.883
 4593POPC   C1A58839  30.523  26.932   6.293
 4593POPC   D2A58840  30.527  26.788   6.723
 4593POPC   C3A58841  30.557  27.052   7.067
 4593POPC   C4A58842  30.943  27.018   7.288
 4593POPC   C1B58843  31.073  26.586   6.229
 4593POPC   C2B58844  31.026  26.426   6.657
 4593POPC   C3B58845  30.926  26.498   7.084
 4593POPC   C4B58846  30.851  26.486   7.517
 4594POPC   NC358847  43.630  16.246   5.121
 4594POPC   PO458848  43.683  16.851   5.525
 4594POPC   GL158849  43.634  16.788   5.925
 4594POPC   GL258850  43.482  17.078   6.035
 4594POPC   C1A58851  43.778  16.546   6.285
 4594POPC   D2A58852  43.943  16.653   6.690
 4594POPC   C3A58853  43.822  16.459   7.082
 4594POPC   C4A58854  43.909  16.413   7.542
 4594POPC   C1B58855  43.905  17.069   6.255
 4594POPC   C2B58856  44.126  17.134   6.639
 4594POPC   C3B58857  43.972  17.014   7.085
 4594POPC   C4B58858  43.908  16.922   7.540
 4595POPC   NC358859   4.490  43.458   5.587
 4595POPC   PO458860   4.065  42.893   5.391
 4595POPC   GL158861   4.339  42.953   5.745
 4595POPC   GL258862   4.160  43.207   5.878
 4595POPC   C1A58863   4.537  42.857   6.153
 4595POPC   D2A58864   4.744  42.914   6.527
 4595POPC   C3A58865   4.567  42.754   6.894
 4595POPC   C4A58866   4.539  42.947   7.283
 4595POPC   C1B58867   4.363  43.337   6.262
 4595POPC   C2B58868   4.317  43.168   6.673
 4595POPC   C3B58869   4.297  43.351   7.086
 4595POPC   C4B58870   4.029  43.059   7.322
 4596POPC   NC358871  29.877  25.006   5.486
 4596POPC   PO458872  29.968  25.666   5.177
 4596POPC   GL158873  29.953  25.651   5.663
 4596POPC   GL258874  29.571  25.631   5.747
 4596POPC   C1A58875  30.178  25.602   6.092
 4596POPC   D2A58876  30.304  25.628   6.562
 4596POPC   C3A58877  30.060  25.330   6.862
 4596POPC   C4A58878  30.132  25.081   7.268
 4596POPC   C1B58879  29.688  25.760   6.148
 4596POPC   C2B58880  29.784  25.651   6.545
 4596POPC   C3B58881  29.556  25.594   6.924
 4596POPC   C4B58882  29.687  25.369   7.256
 4597POPC   NC358883  32.755  10.242   5.465
 4597POPC   PO458884  33.026   9.653   5.497
 4597POPC   GL158885  33.099   9.834   5.851
 4597POPC   GL258886  33.206  10.158   5.720
 4597POPC   C1A58887  33.319   9.699   6.230
 4597POPC   D2A58888  33.520   9.711   6.636
 4597POPC   C3A58889  33.184   9.640   6.926
 4597POPC   C4A58890  32.941   9.501   7.282
 4597POPC   C1B58891  33.287  10.205   6.161
 4597POPC   C2B58892  33.138  10.064   6.564
 4597POPC   C3B58893  33.234  10.148   6.992
 4597POPC   C4B58894  33.012  10.004   7.359
 4598POPC   NC358895   5.688   7.676   5.160
 4598POPC   PO458896   5.985   7.163   5.344
 4598POPC   GL158897   5.953   7.337   5.755
 4598POPC   GL258898   5.683   7.597   5.772
 4598POPC   C1A58899   5.963   7.180   6.168
 4598POPC   D2A58900   6.219   7.314   6.498
 4598POPC   C3A58901   6.065   7.129   6.844
 4598POPC   C4A58902   6.253   7.260   7.203
 4598POPC   C1B58903   5.717   7.608   6.236
 4598POPC   C2B58904   5.871   7.657   6.635
 4598POPC   C3B58905   5.625   7.577   6.950
 4598POPC   C4B58906   5.742   7.293   7.214
 4599POPC   NC358907   7.537   1.755   5.492
 4599POPC   PO458908   7.423   1.114   5.400
 4599POPC   GL158909   7.246   1.265   5.805
 4599POPC   GL258910   7.337   1.604   5.934
 4599POPC   C1A58911   7.312   1.050   6.227
 4599POPC   D2A58912   7.512   0.922   6.633
 4599POPC   C3A58913   7.333   1.056   7.029
 4599POPC   C4A58914   7.485   1.138   7.435
 4599POPC   C1B58915   7.050   1.488   6.254
 4599POPC   C2B58916   7.133   1.321   6.647
 4599POPC   C3B58917   7.405   1.544   6.948
 4599POPC   C4B58918   7.350   1.638   7.368
 4600POPC   NC358919  40.862  10.143   5.420
 4600POPC   PO458920  40.505  10.794   5.526
 4600POPC   GL158921  40.705  10.512   5.781
 4600POPC   GL258922  40.818  10.779   5.982
 4600POPC   C1A58923  40.792  10.232   6.136
 4600POPC   D2A58924  40.705  10.173   6.600
 4600POPC   C3A58925  40.883  10.324   7.004
 4600POPC   C4A58926  40.723  10.421   7.443
 4600POPC   C1B58927  40.814  10.673   6.406
 4600POPC   C2B58928  40.691  10.823   6.787
 4600POPC   C3B58929  40.885  10.822   7.177
 4600POPC   C4B58930  41.025  10.798   7.601
 4601POPC   NC358931  30.575  12.663   5.517
 4601POPC   PO458932  31.233  12.699   5.740
 4601POPC   GL158933  30.834  12.666   5.958
 4601POPC   GL258934  30.647  12.978   5.906
 4601POPC   C1A58935  30.639  12.789   6.357
 4601POPC   D2A58936  30.892  12.863   6.705
 4601POPC   C3A58937  30.772  12.736   7.096
 4601POPC   C4A58938  30.524  12.593   7.414
 4601POPC   C1B58939  31.002  13.106   6.215
 4601POPC   C2B58940  31.111  13.321   6.623
 4601POPC   C3B58941  30.906  13.252   7.052
 4601POPC   C4B58942  30.723  13.083   7.468
 4602POPC   NC358943  12.600  42.875   5.250
 4602POPC   PO458944  12.698  42.170   5.321
 4602POPC   GL158945  12.899  42.129   5.776
 4602POPC   GL258946  12.689  42.316   6.005
 4602POPC   C1A58947  12.882  41.946   6.255
 4602POPC   D2A58948  12.607  42.103   6.595
 4602POPC   C3A58949  12.783  42.148   7.031
 4602POPC   C4A58950  12.786  42.154   7.531
 4602POPC   C1B58951  12.800  42.539   6.346
 4602POPC   C2B58952  12.672  42.619   6.770
 4602POPC   C3B58953  12.870  42.607   7.186
 4602POPC   C4B58954  12.771  42.650   7.608
 4603POPC   NC358955  14.415   4.014   5.424
 4603POPC   PO458956  14.212   4.629   5.206
 4603POPC   GL158957  14.348   4.598   5.685
 4603POPC   GL258958  14.724   4.542   5.771
 4603POPC   C1A58959  14.373   4.390   6.137
 4603POPC   D2A58960  14.589   4.319   6.546
 4603POPC   C3A58961  14.505   3.973   6.827
 4603POPC   C4A58962  14.313   4.116   7.189
 4603POPC   C1B58963  14.790   4.686   6.217
 4603POPC   C2B58964  14.681   4.822   6.644
 4603POPC   C3B58965  14.573   4.550   7.019
 4603POPC   C4B58966  14.682   4.545   7.460
 4604POPC   NC358967  11.582  15.125   5.551
 4604POPC   PO458968  12.188  14.876   5.474
 4604POPC   GL158969  12.305  15.117   5.842
 4604POPC   GL258970  12.067  15.370   5.800
 4604POPC   C1A58971  12.275  15.257   6.276
 4604POPC   D2A58972  12.431  15.279   6.672
 4604POPC   C3A58973  12.299  15.006   7.010
 4604POPC   C4A58974  12.432  15.209   7.382
 4604POPC   C1B58975  11.792  15.342   6.170
 4604POPC   C2B58976  11.908  15.412   6.629
 4604POPC   C3B58977  12.118  15.483   7.050
 4604POPC   C4B58978  11.963  15.344   7.452
 4605POPC   NC358979  19.701  28.112   5.385
 4605POPC   PO458980  20.259  28.165   5.651
 4605POPC   GL158981  19.929  28.390   5.861
 4605POPC   GL258982  20.091  28.719   5.955
 4605POPC   C1A58983  19.607  28.292   6.204
 4605POPC   D2A58984  19.432  28.364   6.651
 4605POPC   C3A58985  19.580  28.173   7.049
 4605POPC   C4A58986  19.777  28.304   7.421
 4605POPC   C1B58987  20.059  28.517   6.348
 4605POPC   C2B58988  19.920  28.172   6.618
 4605POPC   C3B58989  20.087  28.175   7.017
 4605POPC   C4B58990  20.461  28.168   7.200
 4606POPC   NC358991   2.822  10.536   5.430
 4606POPC   PO458992   2.314  10.029   5.299
 4606POPC   GL158993   2.554  10.100   5.720
 4606POPC   GL258994   2.945  10.159   5.773
 4606POPC   C1A58995   2.500  10.288   6.149
 4606POPC   D2A58996   2.456  10.494   6.549
 4606POPC   C3A58997   2.436  10.281   6.963
 4606POPC   C4A58998   2.553  10.526   7.294
 4606POPC   C1B58999   2.982  10.531   6.074
 4606POPC   C2B59000   3.001  10.626   6.497
 4606POPC   C3B59001   2.906  10.443   6.858
 4606POPC   C4B59002   3.078  10.465   7.222
 4607POPC   NC359003   5.670  27.618   5.138
 4607POPC   PO459004   5.933  27.121   5.358
 4607POPC   GL159005   5.961  27.409   5.770
 4607POPC   GL259006   5.864  27.207   6.067
 4607POPC   C1A59007   5.764  27.756   6.099
 4607POPC   D2A59008   5.417  27.823   6.480
 4607POPC   C3A59009   5.522  27.826   6.967
 4607POPC   C4A59010   5.477  27.962   7.456
 4607POPC   C1B59011   5.798  27.434   6.475
 4607POPC   C2B59012   5.942  27.845   6.587
 4607POPC   C3B59013   6.073  27.715   6.970
 4607POPC   C4B59014   5.792  27.361   7.054
 4608POPC   NC359015  10.316  34.331   5.569
 4608POPC   PO459016  10.718  34.849   5.465
 4608POPC   GL159017  10.640  34.666   5.869
 4608POPC   GL259018  10.316  34.683   5.945
 4608POPC   C1A59019  10.627  34.442   6.269
 4608POPC   D2A59020  10.394  34.396   6.645
 4608POPC   C3A59021  10.612  34.359   7.011
 4608POPC   C4A59022  10.823  34.591   7.253
 4608POPC   C1B59023  10.103  34.837   6.280
 4608POPC   C2B59024  10.160  34.885   6.701
 4608POPC   C3B59025  10.312  34.804   7.073
 4608POPC   C4B59026  10.425  34.789   7.477
 4609POPC   NC359027  35.003  43.076   5.401
 4609POPC   PO459028  35.730  43.232   5.479
 4609POPC   GL159029  35.432  43.282   5.832
 4609POPC   GL259030  35.059  43.273   5.876
 4609POPC   C1A59031  35.380  43.315   6.283
 4609POPC   D2A59032  35.305  43.051   6.656
 4609POPC   C3A59033  35.255  43.293   7.021
 4609POPC   C4A59034  35.401  43.142   7.432
 4609POPC   C1B59035  35.160  42.882   6.102
 4609POPC   C2B59036  34.942  42.730   6.458
 4609POPC   C3B59037  34.854  42.876   6.843
 4609POPC   C4B59038  35.136  42.804   7.157
 4610POPC   NC359039   2.953  33.982   5.426
 4610POPC   PO459040   2.517  34.130   5.096
 4610POPC   GL159041   2.504  34.047   5.631
 4610POPC   GL259042   2.625  33.709   5.700
 4610POPC   C1A59043   2.762  34.011   6.080
 4610POPC   D2A59044   2.917  33.716   6.419
 4610POPC   C3A59045   2.793  33.857   6.835
 4610POPC   C4A59046   2.910  33.903   7.279
 4610POPC   C1B59047   2.528  33.545   6.107
 4610POPC   C2B59048   2.443  33.514   6.523
 4610POPC   C3B59049   2.400  33.567   6.959
 4610POPC   C4B59050   2.586  33.507   7.334
 4611POPC   NC359051  14.150  17.891   5.396
 4611POPC   PO459052  14.806  17.752   5.169
 4611POPC   GL159053  14.653  17.735   5.640
 4611POPC   GL259054  14.332  17.659   5.820
 4611POPC   C1A59055  14.721  17.617   6.123
 4611POPC   D2A59056  14.471  17.592   6.516
 4611POPC   C3A59057  14.660  17.440   6.896
 4611POPC   C4A59058  14.632  17.691   7.258
 4611POPC   C1B59059  14.054  17.623   6.202
 4611POPC   C2B59060  13.951  17.579   6.638
 4611POPC   C3B59061  14.183  17.656   6.999
 4611POPC   C4B59062  14.302  17.299   7.249
 4612POPC   NC359063  20.133   8.625   5.446
 4612POPC   PO459064  20.227   9.350   5.516
 4612POPC   GL159065  19.936   9.311   5.850
 4612POPC   GL259066  19.725   9.005   5.817
 4612POPC   C1A59067  19.918   9.215   6.277
 4612POPC   D2A59068  19.868   8.976   6.627
 4612POPC   C3A59069  20.031   9.137   7.001
 4612POPC   C4A59070  19.938   8.946   7.375
 4612POPC   C1B59071  19.504   8.928   6.209
 4612POPC   C2B59072  19.377   8.922   6.653
 4612POPC   C3B59073  19.543   8.945   7.035
 4612POPC   C4B59074  19.254   8.890   7.306
 4613POPC   NC359075   1.058  24.944   5.433
 4613POPC   PO459076   1.675  25.251   5.421
 4613POPC   GL159077   1.349  25.243   5.729
 4613POPC   GL259078   1.113  25.480   5.546
 4613POPC   C1A59079   1.220  25.090   6.163
 4613POPC   D2A59080   1.302  25.235   6.596
 4613POPC   C3A59081   1.155  25.035   6.962
 4613POPC   C4A59082   1.429  25.063   7.301
 4613POPC   C1B59083   1.004  25.539   5.978
 4613POPC   C2B59084   0.967  25.571   6.426
 4613POPC   C3B59085   0.987  25.635   6.857
 4613POPC   C4B59086   1.073  25.476   7.229
 4614POPC   NC359087  14.247   8.723   5.479
 4614POPC   PO459088  14.313   9.429   5.426
 4614POPC   GL159089  14.416   9.144   5.743
 4614POPC   GL259090  14.663   8.868   5.792
 4614POPC   C1A59091  14.223   8.968   6.102
 4614POPC   D2A59092  14.360   8.984   6.502
 4614POPC   C3A59093  14.139   9.133   6.831
 4614POPC   C4A59094  14.145   8.852   7.155
 4614POPC   C1B59095  14.730   9.159   6.170
 4614POPC   C2B59096  14.814   9.202   6.635
 4614POPC   C3B59097  14.650   9.049   7.062
 4614POPC   C4B59098  14.537   8.924   7.500
 4615POPC   NC359099  29.979  40.881   5.243
 4615POPC   PO459100  30.107  40.450   5.709
 4615POPC   GL159101  29.911  40.676   6.015
 4615POPC   GL259102  29.586  40.546   5.950
 4615POPC   C1A59103  29.705  40.936   6.344
 4615POPC   D2A59104  29.728  41.172   6.732
 4615POPC   C3A59105  29.951  40.971   7.060
 4615POPC   C4A59106  29.917  41.049   7.485
 4615POPC   C1B59107  29.672  40.400   6.365
 4615POPC   C2B59108  29.876  40.555   6.746
 4615POPC   C3B59109  29.648  40.550   7.147
 4615POPC   C4B59110  29.543  40.704   7.596
 4616POPC   NC359111  26.631  25.419   5.526
 4616POPC   PO459112  27.218  25.128   5.459
 4616POPC   GL159113  26.972  25.129   5.833
 4616POPC   GL259114  27.026  25.479   5.879
 4616POPC   C1A59115  26.618  25.110   6.176
 4616POPC   D2A59116  26.539  25.307   6.579
 4616POPC   C3A59117  26.768  25.149   6.933
 4616POPC   C4A59118  26.774  25.329   7.367
 4616POPC   C1B59119  27.055  25.317   6.319
 4616POPC   C2B59120  27.121  25.464   6.745
 4616POPC   C3B59121  27.228  25.325   7.170
 4616POPC   C4B59122  27.173  25.576   7.583
 4617POPC   NC359123   0.953   3.474   5.599
 4617POPC   PO459124   0.398   3.618   5.171
 4617POPC   GL159125   0.338   3.739   5.718
 4617POPC   GL259126   0.211   3.453   5.945
 4617POPC   C1A59127   0.338   3.853   6.229
 4617POPC   D2A59128   0.299   3.692   6.692
 4617POPC   C3A59129   0.542   3.760   7.096
 4617POPC   C4A59130   0.347   3.513   7.479
 4617POPC   C1B59131   0.596   3.413   6.219
 4617POPC   C2B59132   0.624   3.298   6.637
 4617POPC   C3B59133   0.528   3.279   7.040
 4617POPC   C4B59134   0.823   3.384   7.369
 4618POPC   NC359135   6.303  14.485   5.596
 4618POPC   PO459136   6.934  14.549   5.392
 4618POPC   GL159137   6.756  14.206   5.671
 4618POPC   GL259138   6.736  14.452   5.899
 4618POPC   C1A59139   6.538  14.045   6.098
 4618POPC   D2A59140   6.637  14.272   6.471
 4618POPC   C3A59141   6.517  14.150   6.857
 4618POPC   C4A59142   6.482  14.355   7.242
 4618POPC   C1B59143   6.560  14.685   6.195
 4618POPC   C2B59144   6.746  14.802   6.590
 4618POPC   C3B59145   6.680  14.816   7.032
 4618POPC   C4B59146   6.971  14.739   7.352
 4619POPC   NC359147  26.449  26.816   5.280
 4619POPC   PO459148  27.061  26.648   5.389
 4619POPC   GL159149  26.892  26.784   5.769
 4619POPC   GL259150  26.612  26.944   5.771
 4619POPC   C1A59151  26.747  26.589   6.144
 4619POPC   D2A59152  26.752  26.789   6.515
 4619POPC   C3A59153  26.638  26.580   6.853
 4619POPC   C4A59154  26.620  26.697   7.247
 4619POPC   C1B59155  26.460  27.082   6.172
 4619POPC   C2B59156  26.470  27.211   6.589
 4619POPC   C3B59157  26.300  27.005   6.939
 4619POPC   C4B59158  26.353  27.112   7.351
 4620POPC   NC359159  20.499   6.491   5.359
 4620POPC   PO459160  21.084   6.645   5.464
 4620POPC   GL159161  20.767   6.531   5.805
 4620POPC   GL259162  20.363   6.480   5.845
 4620POPC   C1A59163  20.807   6.782   6.172
 4620POPC   D2A59164  20.600   6.794   6.553
 4620POPC   C3A59165  20.824   6.887   6.929
 4620POPC   C4A59166  20.630   6.938   7.341
 4620POPC   C1B59167  20.502   6.367   6.241
 4620POPC   C2B59168  20.658   6.287   6.634
 4620POPC   C3B59169  20.861   6.390   7.013
 4620POPC   C4B59170  20.840   6.230   7.389
 4621POPC   NC359171  19.504  12.763   5.477
 4621POPC   PO459172  18.911  12.938   5.393
 4621POPC   GL159173  19.130  12.885   5.837
 4621POPC   GL259174  19.337  13.183   5.952
 4621POPC   C1A59175  19.172  12.592   6.241
 4621POPC   D2A59176  19.142  12.499   6.722
 4621POPC   C3A59177  18.919  12.752   7.038
 4621POPC   C4A59178  18.824  13.160   7.207
 4621POPC   C1B59179  19.313  13.073   6.353
 4621POPC   C2B59180  19.217  13.067   6.763
 4621POPC   C3B59181  19.424  12.898   7.073
 4621POPC   C4B59182  19.361  12.920   7.499
 4622POPC   NC359183  24.628   3.935   5.502
 4622POPC   PO459184  24.219   3.482   5.230
 4622POPC   GL159185  24.343   3.537   5.684
 4622POPC   GL259186  24.698   3.448   5.752
 4622POPC   C1A59187  24.286   3.403   6.140
 4622POPC   D2A59188  24.350   3.482   6.608
 4622POPC   C3A59189  24.402   3.167   6.966
 4622POPC   C4A59190  24.460   3.155   7.433
 4622POPC   C1B59191  24.731   3.638   6.167
 4622POPC   C2B59192  24.906   3.632   6.552
 4622POPC   C3B59193  24.753   3.622   6.938
 4622POPC   C4B59194  24.867   3.442   7.314
 4623POPC   NC359195  37.111  13.769   5.492
 4623POPC   PO459196  36.559  13.425   5.163
 4623POPC   GL159197  36.568  13.492   5.658
 4623POPC   GL259198  36.857  13.367   5.813
 4623POPC   C1A59199  36.694  13.751   6.081
 4623POPC   D2A59200  36.770  13.607   6.477
 4623POPC   C3A59201  36.755  13.639   6.883
 4623POPC   C4A59202  36.714  13.685   7.301
 4623POPC   C1B59203  37.079  13.268   6.228
 4623POPC   C2B59204  37.190  13.370   6.681
 4623POPC   C3B59205  37.035  13.273   7.100
 4623POPC   C4B59206  37.109  13.431   7.509
 4624POPC   NC359207  37.988  12.122   5.380
 4624POPC   PO459208  37.358  11.773   5.482
 4624POPC   GL159209  37.588  11.984   5.825
 4624POPC   GL259210  37.936  12.157   5.881
 4624POPC   C1A59211  37.470  12.128   6.242
 4624POPC   D2A59212  37.611  12.406   6.571
 4624POPC   C3A59213  37.382  12.281   6.930
 4624POPC   C4A59214  37.590  12.004   7.186
 4624POPC   C1B59215  37.941  11.886   6.244
 4624POPC   C2B59216  37.882  11.959   6.676
 4624POPC   C3B59217  38.051  11.934   7.067
 4624POPC   C4B59218  38.045  12.362   7.181
 4625POPC   NC359219  25.354  23.448   4.849
 4625POPC   PO459220  25.429  23.766   5.475
 4625POPC   GL159221  25.352  23.943   5.866
 4625POPC   GL259222  25.397  24.286   5.807
 4625POPC   C1A59223  25.322  23.782   6.294
 4625POPC   D2A59224  25.594  23.497   6.533
 4625POPC   C3A59225  25.583  23.484   6.997
 4625POPC   C4A59226  25.195  23.592   7.131
 4625POPC   C1B59227  25.587  24.288   6.218
 4625POPC   C2B59228  25.731  23.994   6.511
 4625POPC   C3B59229  25.432  23.934   6.804
 4625POPC   C4B59230  25.488  24.015   7.204
 4626POPC   NC359231   1.905  24.865   5.326
 4626POPC   PO459232   2.263  25.487   5.279
 4626POPC   GL159233   2.064  25.411   5.710
 4626POPC   GL259234   2.042  25.052   5.774
 4626POPC   C1A59235   1.975  25.565   6.140
 4626POPC   D2A59236   1.855  25.565   6.575
 4626POPC   C3A59237   2.144  25.343   6.816
 4626POPC   C4A59238   2.153  25.348   7.231
 4626POPC   C1B59239   1.727  25.129   6.067
 4626POPC   C2B59240   1.782  25.074   6.477
 4626POPC   C3B59241   1.707  25.123   6.892
 4626POPC   C4B59242   1.967  24.874   7.144
 4627POPC   NC359243  16.324  38.899   5.598
 4627POPC   PO459244  16.609  39.434   5.330
 4627POPC   GL159245  16.661  39.265   5.752
 4627POPC   GL259246  16.327  39.360   5.824
 4627POPC   C1A59247  16.710  39.021   6.161
 4627POPC   D2A59248  16.597  39.068   6.608
 4627POPC   C3A59249  16.884  38.967   6.945
 4627POPC   C4A59250  16.795  38.915   7.374
 4627POPC   C1B59251  16.395  39.418   6.260
 4627POPC   C2B59252  16.395  39.750   6.553
 4627POPC   C3B59253  16.377  39.688   6.981
 4627POPC   C4B59254  16.561  39.335   7.181
 4628POPC   NC359255  37.415  12.904   5.626
 4628POPC   PO459256  37.783  12.543   5.231
 4628POPC   GL159257  37.844  12.681   5.735
 4628POPC   GL259258  37.912  13.062   5.756
 4628POPC   C1A59259  37.916  12.734   6.215
 4628POPC   D2A59260  38.045  12.691   6.686
 4628POPC   C3A59261  37.698  12.685   7.025
 4628POPC   C4A59262  37.754  12.715   7.494
 4628POPC   C1B59263  37.764  13.255   6.160
 4628POPC   C2B59264  37.928  13.227   6.600
 4628POPC   C3B59265  37.817  13.173   7.051
 4628POPC   C4B59266  37.444  13.063   7.314
 4629POPC   NC359267  15.011  32.546   5.166
 4629POPC   PO459268  15.421  33.018   5.519
 4629POPC   GL159269  15.381  32.999   5.942
 4629POPC   GL259270  15.496  33.326   5.931
 4629POPC   C1A59271  15.058  32.902   6.282
 4629POPC   D2A59272  14.701  32.997   6.595
 4629POPC   C3A59273  14.829  33.242   6.967
 4629POPC   C4A59274  15.135  33.005   7.187
 4629POPC   C1B59275  15.369  33.350   6.371
 4629POPC   C2B59276  15.439  32.987   6.666
 4629POPC   C3B59277  15.620  33.028   7.065
 4629POPC   C4B59278  15.453  33.404   7.229
 4630POPC   NC359279  25.457  33.280   5.336
 4630POPC   PO459280  25.090  32.724   5.349
 4630POPC   GL159281  25.052  33.054   5.676
 4630POPC   GL259282  25.382  33.134   5.817
 4630POPC   C1A59283  24.984  33.162   6.133
 4630POPC   D2A59284  25.153  32.829   6.464
 4630POPC   C3A59285  25.295  32.891   6.895
 4630POPC   C4A59286  25.191  33.190   7.185
 4630POPC   C1B59287  25.493  33.179   6.269
 4630POPC   C2B59288  25.549  33.348   6.700
 4630POPC   C3B59289  25.709  33.174   7.078
 4630POPC   C4B59290  25.551  32.889   7.417
 4631POPC   NC359291  36.535   9.250   5.488
 4631POPC   PO459292  35.909   9.348   5.238
 4631POPC   GL159293  36.022   9.183   5.703
 4631POPC   GL259294  36.311   9.197   5.925
 4631POPC   C1A59295  35.876   8.938   6.086
 4631POPC   D2A59296  35.908   9.030   6.539
 4631POPC   C3A59297  35.894   8.747   6.888
 4631POPC   C4A59298  35.961   8.919   7.280
 4631POPC   C1B59299  36.358   8.891   6.269
 4631POPC   C2B59300  36.374   8.729   6.672
 4631POPC   C3B59301  36.441   8.865   7.073
 4631POPC   C4B59302  36.633   8.931   7.457
 4632POPC   NC359303  20.378  25.282   5.377
 4632POPC   PO459304  21.031  25.432   5.550
 4632POPC   GL159305  20.652  25.396   5.811
 4632POPC   GL259306  20.478  25.058   5.842
 4632POPC   C1A59307  20.568  25.375   6.252
 4632POPC   D2A59308  20.484  25.214   6.655
 4632POPC   C3A59309  20.564  25.473   6.992
 4632POPC   C4A59310  20.403  25.360   7.357
 4632POPC   C1B59311  20.792  24.916   6.158
 4632POPC   C2B59312  20.939  24.944   6.601
 4632POPC   C3B59313  20.922  25.084   7.042
 4632POPC   C4B59314  20.907  24.937   7.486
 4633POPC   NC359315  24.792   5.220   5.495
 4633POPC   PO459316  24.092   5.016   5.387
 4633POPC   GL159317  24.383   4.980   5.808
 4633POPC   GL259318  24.740   5.032   5.983
 4633POPC   C1A59319  24.295   5.009   6.243
 4633POPC   D2A59320  24.302   5.290   6.611
 4633POPC   C3A59321  24.443   4.981   6.887
 4633POPC   C4A59322  24.465   4.920   7.310
 4633POPC   C1B59323  24.632   5.427   6.194
 4633POPC   C2B59324  24.724   5.623   6.605
 4633POPC   C3B59325  24.696   5.402   7.017
 4633POPC   C4B59326  24.627   5.352   7.495
 4634POPC   NC359327   3.299  21.244   5.555
 4634POPC   PO459328   3.761  21.580   5.167
 4634POPC   GL159329   3.714  21.676   5.670
 4634POPC   GL259330   3.364  21.675   5.793
 4634POPC   C1A59331   3.692  21.510   6.167
 4634POPC   D2A59332   3.548  21.219   6.510
 4634POPC   C3A59333   3.768  21.228   6.915
 4634POPC   C4A59334   3.644  21.299   7.340
 4634POPC   C1B59335   3.171  21.493   6.173
 4634POPC   C2B59336   3.193  21.594   6.576
 4634POPC   C3B59337   3.268  21.438   6.976
 4634POPC   C4B59338   3.283  21.675   7.341
 4635POPC   NC359339  18.212  37.051   5.420
 4635POPC   PO459340  18.890  37.138   5.520
 4635POPC   GL159341  18.518  36.860   5.776
 4635POPC   GL259342  18.253  36.538   5.777
 4635POPC   C1A59343  18.228  36.883   6.134
 4635POPC   D2A59344  18.213  36.722   6.541
 4635POPC   C3A59345  18.185  36.879   6.921
 4635POPC   C4A59346  18.091  36.999   7.283
 4635POPC   C1B59347  18.389  36.371   6.215
 4635POPC   C2B59348  18.431  36.264   6.670
 4635POPC   C3B59349  18.468  36.457   7.092
 4635POPC   C4B59350  18.464  36.704   7.488
 4636POPC   NC359351  27.218  14.059   5.539
 4636POPC   PO459352  26.673  13.691   5.393
 4636POPC   GL159353  26.739  13.547   5.815
 4636POPC   GL259354  27.082  13.635   5.807
 4636POPC   C1A59355  26.503  13.515   6.220
 4636POPC   D2A59356  26.533  13.279   6.618
 4636POPC   C3A59357  26.610  13.506   7.025
 4636POPC   C4A59358  26.800  13.839   7.284
 4636POPC   C1B59359  27.312  13.592   6.164
 4636POPC   C2B59360  27.314  13.601   6.586
 4636POPC   C3B59361  27.117  13.820   6.896
 4636POPC   C4B59362  27.234  14.151   7.212
 4637POPC   NC359363   6.419  30.046   5.316
 4637POPC   PO459364   5.727  29.828   5.087
 4637POPC   GL159365   5.746  29.988   5.583
 4637POPC   GL259366   5.883  30.308   5.773
 4637POPC   C1A59367   5.725  29.883   6.076
 4637POPC   D2A59368   5.812  29.648   6.524
 4637POPC   C3A59369   5.646  29.813   6.939
 4637POPC   C4A59370   5.693  30.143   7.251
 4637POPC   C1B59371   6.114  30.233   6.163
 4637POPC   C2B59372   6.202  30.001   6.553
 4637POPC   C3B59373   6.117  30.020   6.970
 4637POPC   C4B59374   6.183  30.317   7.294
 4638POPC   NC359375   1.500  24.156   5.003
 4638POPC   PO459376   1.029  24.488   5.438
 4638POPC   GL159377   1.318  24.507   5.789
 4638POPC   GL259378   1.083  24.583   5.966
 4638POPC   C1A59379   1.398  24.217   6.209
 4638POPC   D2A59380   1.266  24.233   6.621
 4638POPC   C3A59381   1.456  24.109   6.997
 4638POPC   C4A59382   1.251  24.168   7.385
 4638POPC   C1B59383   0.892  24.714   6.309
 4638POPC   C2B59384   0.949  24.639   6.694
 4638POPC   C3B59385   1.067  24.488   7.036
 4638POPC   C4B59386   1.118  24.667   7.439
 4639POPC   NC359387  34.928  14.136   5.553
 4639POPC   PO459388  34.479  14.539   5.413
 4639POPC   GL159389  34.346  14.432   5.841
 4639POPC   GL259390  34.142  14.732   5.904
 4639POPC   C1A59391  34.533  14.312   6.263
 4639POPC   D2A59392  34.763  14.531   6.614
 4639POPC   C3A59393  34.645  14.422   7.035
 4639POPC   C4A59394  34.254  14.316   7.253
 4639POPC   C1B59395  34.397  14.822   6.247
 4639POPC   C2B59396  34.235  14.752   6.641
 4639POPC   C3B59397  34.270  14.836   7.069
 4639POPC   C4B59398  34.493  14.719   7.453
 4640POPC   NC359399  34.154   0.947   5.476
 4640POPC   PO459400  33.707   1.560   5.409
 4640POPC   GL159401  33.728   1.345   5.807
 4640POPC   GL259402  34.075   1.297   5.856
 4640POPC   C1A59403  33.685   1.329   6.255
 4640POPC   D2A59404  33.736   1.134   6.661
 4640POPC   C3A59405  33.568   1.403   6.969
 4640POPC   C4A59406  33.854   1.437   7.257
 4640POPC   C1B59407  34.086   1.009   6.213
 4640POPC   C2B59408  34.242   0.917   6.648
 4640POPC   C3B59409  34.104   0.986   7.070
 4640POPC   C4B59410  33.677   0.962   7.166
 4641POPC   NC359411  41.768  23.977   5.699
 4641POPC   PO459412  41.509  23.432   5.315
 4641POPC   GL159413  41.450  23.517   5.772
 4641POPC   GL259414  41.203  23.761   5.804
 4641POPC   C1A59415  41.616  23.516   6.208
 4641POPC   D2A59416  41.589  23.739   6.613
 4641POPC   C3A59417  41.375  23.508   6.913
 4641POPC   C4A59418  41.757  23.322   6.979
 4641POPC   C1B59419  41.310  23.970   6.224
 4641POPC   C2B59420  41.286  24.135   6.682
 4641POPC   C3B59421  41.328  23.972   7.110
 4641POPC   C4B59422  41.693  23.749   7.274
 4642POPC   NC359423  20.612  37.174   5.019
 4642POPC   PO459424  20.621  36.819   5.519
 4642POPC   GL159425  20.805  36.844   5.903
 4642POPC   GL259426  21.147  36.753   5.842
 4642POPC   C1A59427  20.719  37.017   6.306
 4642POPC   D2A59428  20.525  37.241   6.642
 4642POPC   C3A59429  20.810  37.254   6.963
 4642POPC   C4A59430  20.772  36.884   7.165
 4642POPC   C1B59431  21.100  36.666   6.287
 4642POPC   C2B59432  21.068  36.799   6.720
 4642POPC   C3B59433  21.153  36.558   7.111
 4642POPC   C4B59434  20.909  36.560   7.540
 4643POPC   NC359435   9.458  40.943   5.385
 4643POPC   PO459436   9.845  40.475   5.177
 4643POPC   GL159437   9.704  40.558   5.656
 4643POPC   GL259438   9.513  40.825   5.886
 4643POPC   C1A59439   9.806  40.481   6.100
 4643POPC   D2A59440   9.964  40.497   6.506
 4643POPC   C3A59441   9.717  40.523   6.872
 4643POPC   C4A59442   9.957  40.790   7.153
 4643POPC   C1B59443   9.811  40.979   6.240
 4643POPC   C2B59444   9.794  40.975   6.653
 4643POPC   C3B59445   9.494  40.978   6.978
 4643POPC   C4B59446   9.508  40.674   7.334
 4644POPC   NC359447  24.875  44.130   5.459
 4644POPC   PO459448  25.392  43.719   5.433
 4644POPC   GL159449  25.258  43.916   5.785
 4644POPC   GL259450  24.961  43.740   5.791
 4644POPC   C1A59451  25.140  44.051   6.194
 4644POPC   D2A59452  25.330  44.040   6.595
 4644POPC   C3A59453  25.098  44.089   6.961
 4644POPC   C4A59454  25.234  43.794   7.275
 4644POPC   C1B59455  24.917  43.441   6.096
 4644POPC   C2B59456  25.033  43.602   6.458
 4644POPC   C3B59457  24.978  43.604   6.839
 4644POPC   C4B59458  24.973  43.352   7.169
 4645POPC   NC359459  39.927  26.284   5.419
 4645POPC   PO459460  40.378  25.791   5.590
 4645POPC   GL159461  40.151  26.103   5.886
 4645POPC   GL259462  39.800  26.098   5.880
 4645POPC   C1A59463  40.054  25.946   6.328
 4645POPC   D2A59464  40.297  25.681   6.634
 4645POPC   C3A59465  40.148  25.787   7.039
 4645POPC   C4A59466  40.042  26.184   7.171
 4645POPC   C1B59467  39.562  26.026   6.206
 4645POPC   C2B59468  39.607  25.920   6.617
 4645POPC   C3B59469  39.624  25.906   7.028
 4645POPC   C4B59470  39.716  25.579   7.274
 4646POPC   NC359471  11.895  38.492   5.410
 4646POPC   PO459472  12.509  38.359   5.539
 4646POPC   GL159473  12.189  38.356   5.856
 4646POPC   GL259474  11.850  38.443   5.932
 4646POPC   C1A59475  12.229  38.250   6.263
 4646POPC   D2A59476  12.280  38.437   6.655
 4646POPC   C3A59477  12.361  38.178   7.008
 4646POPC   C4A59478  12.134  38.095   7.402
 4646POPC   C1B59479  12.051  38.750   6.200
 4646POPC   C2B59480  12.113  38.923   6.624
 4646POPC   C3B59481  11.983  38.718   6.985
 4646POPC   C4B59482  12.047  38.768   7.374
 4647POPC   NC359483  40.632  19.446   5.610
 4647POPC   PO459484  40.887  20.085   5.409
 4647POPC   GL159485  40.821  19.922   5.836
 4647POPC   GL259486  40.598  19.684   6.047
 4647POPC   C1A59487  40.931  20.005   6.271
 4647POPC   D2A59488  40.717  19.989   6.639
 4647POPC   C3A59489  40.941  20.054   6.991
 4647POPC   C4A59490  40.852  20.091   7.375
 4647POPC   C1B59491  40.912  19.477   6.312
 4647POPC   C2B59492  40.999  19.571   6.764
 4647POPC   C3B59493  40.642  19.626   7.039
 4647POPC   C4B59494  40.229  19.455   6.998
 4648POPC   NC359495  34.674  20.330   5.417
 4648POPC   PO459496  34.132  20.833   5.488
 4648POPC   GL159497  34.559  20.790   5.816
 4648POPC   GL259498  34.717  20.444   5.897
 4648POPC   C1A59499  34.901  20.768   6.212
 4648POPC   D2A59500  34.859  20.563   6.628
 4648POPC   C3A59501  34.689  20.771   7.043
 4648POPC   C4A59502  34.291  20.877   7.301
 4648POPC   C1B59503  34.445  20.490   6.273
 4648POPC   C2B59504  34.431  20.278   6.692
 4648POPC   C3B59505  34.371  20.383   7.162
 4648POPC   C4B59506  34.264  20.427   7.630
 4649POPC   NC359507  34.971  39.763   5.025
 4649POPC   PO459508  35.033  40.252   5.542
 4649POPC   GL159509  35.246  40.179   5.913
 4649POPC   GL259510  35.409  39.907   5.792
 4649POPC   C1A59511  35.490  40.230   6.284
 4649POPC   D2A59512  35.386  40.036   6.646
 4649POPC   C3A59513  35.360  40.172   7.047
 4649POPC   C4A59514  35.356  39.981   7.455
 4649POPC   C1B59515  35.375  39.699   6.217
 4649POPC   C2B59516  35.550  39.567   6.639
 4649POPC   C3B59517  35.341  39.640   7.074
 4649POPC   C4B59518  35.086  39.553   7.488
 4650POPC   NC359519  10.436  21.320   5.494
 4650POPC   PO459520  10.775  21.912   5.284
 4650POPC   GL159521  10.542  21.757   5.737
 4650POPC   GL259522  10.762  21.430   5.865
 4650POPC   C1A59523  10.584  21.718   6.231
 4650POPC   D2A59524  10.642  21.444   6.577
 4650POPC   C3A59525  10.327  21.585   6.853
 4650POPC   C4A59526  10.452  21.596   7.263
 4650POPC   C1B59527  10.409  21.229   6.151
 4650POPC   C2B59528  10.327  21.033   6.577
 4650POPC   C3B59529  10.480  21.128   6.994
 4650POPC   C4B59530  10.697  20.915   7.277
 4651POPC   NC359531  11.504  41.823   5.538
 4651POPC   PO459532  11.329  41.170   5.423
 4651POPC   GL159533  11.294  41.426   5.806
 4651POPC   GL259534  11.622  41.454   5.874
 4651POPC   C1A59535  11.106  41.543   6.218
 4651POPC   D2A59536  11.236  41.402   6.642
 4651POPC   C3A59537  11.026  41.485   7.023
 4651POPC   C4A59538  10.916  41.174   7.312
 4651POPC   C1B59539  11.576  41.787   6.190
 4651POPC   C2B59540  11.461  41.912   6.606
 4651POPC   C3B59541  11.509  41.731   6.981
 4651POPC   C4B59542  11.508  41.399   7.207
 4652POPC   NC359543  18.115  18.683   5.561
 4652POPC   PO459544  18.512  18.096   5.647
 4652POPC   GL159545  18.344  18.369   5.945
 4652POPC   GL259546  17.953  18.387   5.947
 4652POPC   C1A59547  18.205  18.170   6.331
 4652POPC   D2A59548  18.125  17.911   6.648
 4652POPC   C3A59549  18.285  18.131   6.975
 4652POPC   C4A59550  18.092  18.198   7.318
 4652POPC   C1B59551  18.132  18.667   6.293
 4652POPC   C2B59552  18.151  18.567   6.732
 4652POPC   C3B59553  17.948  18.642   7.135
 4652POPC   C4B59554  18.017  18.591   7.605
 4653POPC   NC359555  31.386  21.293   5.494
 4653POPC   PO459556  31.900  21.728   5.482
 4653POPC   GL159557  31.736  21.475   5.831
 4653POPC   GL259558  31.674  21.111   5.914
 4653POPC   C1A59559  31.757  21.570   6.244
 4653POPC   D2A59560  31.829  21.347   6.551
 4653POPC   C3A59561  31.671  21.466   6.905
 4653POPC   C4A59562  31.390  21.682   7.134
 4653POPC   C1B59563  31.326  21.311   6.205
 4653POPC   C2B59564  31.225  21.259   6.674
 4653POPC   C3B59565  31.301  21.152   7.133
 4653POPC   C4B59566  31.535  21.063   7.540
 4654POPC   NC359567   5.955  33.379   5.404
 4654POPC   PO459568   5.757  32.738   5.332
 4654POPC   GL159569   5.935  32.745   5.766
 4654POPC   GL259570   5.932  33.110   5.902
 4654POPC   C1A59571   5.912  32.681   6.224
 4654POPC   D2A59572   5.961  32.976   6.552
 4654POPC   C3A59573   5.878  32.798   6.953
 4654POPC   C4A59574   5.987  32.694   7.402
 4654POPC   C1B59575   5.617  33.306   6.217
 4654POPC   C2B59576   5.671  33.402   6.665
 4654POPC   C3B59577   5.903  33.279   7.085
 4654POPC   C4B59578   5.827  33.284   7.536
 4655POPC   NC359579   1.009  12.382   5.453
 4655POPC   PO459580   1.334  11.870   5.673
 4655POPC   GL159581   1.077  12.171   5.932
 4655POPC   GL259582   0.948  12.535   5.938
 4655POPC   C1A59583   0.965  12.085   6.336
 4655POPC   D2A59584   1.047  11.754   6.548
 4655POPC   C3A59585   1.062  11.817   6.970
 4655POPC   C4A59586   1.195  12.063   7.289
 4655POPC   C1B59587   1.264  12.501   6.288
 4655POPC   C2B59588   1.192  12.337   6.733
 4655POPC   C3B59589   1.284  12.536   7.139
 4655POPC   C4B59590   1.338  12.441   7.596
 4656POPC   NC359591  22.828  28.002   5.476
 4656POPC   PO459592  22.708  27.344   5.370
 4656POPC   GL159593  22.800  27.577   5.775
 4656POPC   GL259594  22.587  27.819   5.901
 4656POPC   C1A59595  23.091  27.814   6.067
 4656POPC   D2A59596  23.187  27.657   6.464
 4656POPC   C3A59597  23.079  27.835   6.844
 4656POPC   C4A59598  23.169  27.597   7.192
 4656POPC   C1B59599  22.672  27.653   6.308
 4656POPC   C2B59600  22.714  27.448   6.702
 4656POPC   C3B59601  22.623  27.709   7.049
 4656POPC   C4B59602  22.792  27.816   7.417
 4657POPC   NC359603  30.790  15.543   4.916
 4657POPC   PO459604  30.541  15.097   5.311
 4657POPC   GL159605  30.563  15.181   5.746
 4657POPC   GL259606  30.241  15.397   5.746
 4657POPC   C1A59607  30.796  15.075   6.180
 4657POPC   D2A59608  31.024  15.004   6.612
 4657POPC   C3A59609  30.997  15.274   7.018
 4657POPC   C4A59610  31.101  15.329   7.501
 4657POPC   C1B59611  30.293  15.206   6.163
 4657POPC   C2B59612  30.456  15.147   6.572
 4657POPC   C3B59613  30.456  15.335   6.962
 4657POPC   C4B59614  30.637  15.465   7.346
 4658POPC   NC359615   4.379   1.016   5.508
 4658POPC   PO459616   4.409   1.644   5.569
 4658POPC   GL159617   4.364   1.515   6.005
 4658POPC   GL259618   4.124   1.307   5.863
 4658POPC   C1A59619   4.358   1.208   6.411
 4658POPC   D2A59620   4.451   0.855   6.765
 4658POPC   C3A59621   4.478   1.068   7.174
 4658POPC   C4A59622   4.421   1.517   7.131
 4658POPC   C1B59623   3.998   0.992   6.112
 4658POPC   C2B59624   3.858   1.025   6.524
 4658POPC   C3B59625   4.056   1.158   6.897
 4658POPC   C4B59626   4.022   1.223   7.335
 4659POPC   NC359627  18.185  43.643   5.400
 4659POPC   PO459628  18.770  43.870   5.444
 4659POPC   GL159629  18.566  43.590   5.749
 4659POPC   GL259630  18.336  43.873   5.828
 4659POPC   C1A59631  18.411  43.524   6.186
 4659POPC   D2A59632  18.509  43.720   6.565
 4659POPC   C3A59633  18.439  43.608   6.962
 4659POPC   C4A59634  18.487  43.821   7.354
 4659POPC   C1B59635  18.665  43.977   6.128
 4659POPC   C2B59636  18.609  44.222   6.491
 4659POPC   C3B59637  18.656  44.094   6.906
 4659POPC   C4B59638  18.815  44.221   7.287
 4660POPC   NC359639  22.066   6.170   5.160
 4660POPC   PO459640  22.396   5.730   5.489
 4660POPC   GL159641  22.237   5.718   5.869
 4660POPC   GL259642  22.533   5.506   5.957
 4660POPC   C1A59643  21.949   5.906   6.159
 4660POPC   D2A59644  22.103   6.008   6.565
 4660POPC   C3A59645  22.037   5.789   6.944
 4660POPC   C4A59646  22.001   6.088   7.295
 4660POPC   C1B59647  22.546   5.823   6.286
 4660POPC   C2B59648  22.539   5.812   6.742
 4660POPC   C3B59649  22.497   5.916   7.148
 4660POPC   C4B59650  22.249   5.675   7.400
 4661POPC   NC359651  39.116   5.526   5.408
 4661POPC   PO459652  38.759   4.933   5.401
 4661POPC   GL159653  39.063   5.150   5.740
 4661POPC   GL259654  39.029   5.485   5.915
 4661POPC   C1A59655  39.283   4.994   6.104
 4661POPC   D2A59656  39.511   4.978   6.470
 4661POPC   C3A59657  39.305   4.957   6.869
 4661POPC   C4A59658  39.510   5.122   7.221
 4661POPC   C1B59659  39.063   5.372   6.361
 4661POPC   C2B59660  38.926   5.411   6.778
 4661POPC   C3B59661  39.150   5.518   7.114
 4661POPC   C4B59662  39.023   5.158   7.295
 4662POPC   NC359663   5.527  12.978   5.623
 4662POPC   PO459664   6.029  12.518   5.588
 4662POPC   GL159665   6.222  12.604   5.968
 4662POPC   GL259666   6.102  12.316   6.101
 4662POPC   C1A59667   6.003  12.836   6.272
 4662POPC   D2A59668   6.011  12.799   6.695
 4662POPC   C3A59669   5.700  13.023   6.928
 4662POPC   C4A59670   6.040  13.069   7.192
 4662POPC   C1B59671   5.646  12.471   6.223
 4662POPC   C2B59672   5.546  12.582   6.676
 4662POPC   C3B59673   5.789  12.536   7.094
 4662POPC   C4B59674   5.625  12.449   7.512
 4663POPC   NC359675   2.375   1.344   5.477
 4663POPC   PO459676   2.954   1.119   5.215
 4663POPC   GL159677   2.896   1.355   5.602
 4663POPC   GL259678   2.791   1.058   5.763
 4663POPC   C1A59679   3.032   1.422   6.067
 4663POPC   D2A59680   2.978   1.314   6.535
 4663POPC   C3A59681   2.631   1.389   6.841
 4663POPC   C4A59682   2.625   1.314   7.285
 4663POPC   C1B59683   2.624   1.118   6.194
 4663POPC   C2B59684   2.327   1.401   6.401
 4663POPC   C3B59685   2.229   1.696   6.730
 4663POPC   C4B59686   2.208   1.602   7.175
 4664POPC   NC359687  28.543  43.417   5.094
 4664POPC   PO459688  28.263  43.627   5.619
 4664POPC   GL159689  28.059  43.720   5.946
 4664POPC   GL259690  27.907  43.976   5.815
 4664POPC   C1A59691  28.306  43.873   6.298
 4664POPC   D2A59692  28.601  44.216   6.452
 4664POPC   C3A59693  28.538  44.203   6.888
 4664POPC   C4A59694  28.394  43.953   7.216
 4664POPC   C1B59695  27.871  44.143   6.184
 4664POPC   C2B59696  28.079  44.267   6.549
 4664POPC   C3B59697  28.014  44.246   6.964
 4664POPC   C4B59698  28.245  44.459   7.256
 4665POPC   NC359699  14.518  31.434   5.347
 4665POPC   PO459700  13.948  31.725   5.395
 4665POPC   GL159701  14.196  31.519   5.793
 4665POPC   GL259702  14.568  31.458   5.855
 4665POPC   C1A59703  14.231  31.339   6.233
 4665POPC   D2A59704  14.381  31.494   6.642
 4665POPC   C3A59705  14.277  31.244   7.007
 4665POPC   C4A59706  14.241  31.434   7.450
 4665POPC   C1B59707  14.752  31.387   6.260
 4665POPC   C2B59708  14.894  31.444   6.670
 4665POPC   C3B59709  14.786  31.174   6.978
 4665POPC   C4B59710  14.593  31.090   7.379
 4666POPC   NC359711  16.699  11.686   5.408
 4666POPC   PO459712  16.537  11.093   5.180
 4666POPC   GL159713  16.751  11.256   5.650
 4666POPC   GL259714  16.472  11.379   5.820
 4666POPC   C1A59715  16.890  11.290   6.119
 4666POPC   D2A59716  16.783  11.427   6.544
 4666POPC   C3A59717  17.034  11.260   6.885
 4666POPC   C4A59718  16.931  11.226   7.334
 4666POPC   C1B59719  16.389  11.186   6.239
 4666POPC   C2B59720  16.325  11.251   6.673
 4666POPC   C3B59721  16.509  11.415   7.031
 4666POPC   C4B59722  16.201  11.550   7.304
 4667POPC   NC359723  15.226  31.128   5.458
 4667POPC   PO459724  14.943  30.428   5.414
 4667POPC   GL159725  15.115  30.610   5.820
 4667POPC   GL259726  14.999  30.984   5.896
 4667POPC   C1A59727  15.173  30.688   6.269
 4667POPC   D2A59728  14.978  30.954   6.502
 4667POPC   C3A59729  15.134  30.794   6.848
 4667POPC   C4A59730  14.948  30.762   7.244
 4667POPC   C1B59731  15.437  31.053   6.067
 4667POPC   C2B59732  15.639  30.894   6.465
 4667POPC   C3B59733  15.657  30.908   6.931
 4667POPC   C4B59734  15.446  30.687   7.243
 4668POPC   NC359735  22.830  15.249   5.409
 4668POPC   PO459736  23.407  15.595   5.283
 4668POPC   GL159737  23.279  15.356   5.734
 4668POPC   GL259738  23.117  14.984   5.767
 4668POPC   C1A59739  23.119  15.245   6.208
 4668POPC   D2A59740  22.854  15.379   6.596
 4668POPC   C3A59741  22.914  15.286   7.054
 4668POPC   C4A59742  22.915  15.408   7.497
 4668POPC   C1B59743  22.915  14.742   6.148
 4668POPC   C2B59744  22.816  14.863   6.591
 4668POPC   C3B59745  22.563  14.848   6.959
 4668POPC   C4B59746  22.532  15.037   7.344
 4669POPC   NC359747  27.761  22.418   5.566
 4669POPC   PO459748  27.633  21.852   5.338
 4669POPC   GL159749  27.495  21.986   5.773
 4669POPC   GL259750  27.260  21.723   5.780
 4669POPC   C1A59751  27.633  22.113   6.196
 4669POPC   D2A59752  27.835  22.081   6.573
 4669POPC   C3A59753  27.707  22.288   6.927
 4669POPC   C4A59754  27.708  22.121   7.321
 4669POPC   C1B59755  27.207  21.778   6.203
 4669POPC   C2B59756  27.365  21.862   6.601
 4669POPC   C3B59757  27.358  21.864   7.033
 4669POPC   C4B59758  27.511  21.647   7.355
 4670POPC   NC359759   2.555  33.254   5.422
 4670POPC   PO459760   3.178  33.553   5.462
 4670POPC   GL159761   2.945  33.350   5.869
 4670POPC   GL259762   2.683  33.088   5.892
 4670POPC   C1A59763   2.861  33.204   6.338
 4670POPC   D2A59764   2.818  33.310   6.775
 4670POPC   C3A59765   3.010  33.117   7.098
 4670POPC   C4A59766   2.999  33.281   7.508
 4670POPC   C1B59767   2.552  32.772   6.215
 4670POPC   C2B59768   2.550  32.890   6.636
 4670POPC   C3B59769   2.498  33.004   7.063
 4670POPC   C4B59770   2.678  32.895   7.443
 4671POPC   NC359771   2.931  26.606   5.428
 4671POPC   PO459772   2.699  27.171   5.676
 4671POPC   GL159773   2.899  26.866   5.908
 4671POPC   GL259774   2.779  26.525   5.908
 4671POPC   C1A59775   2.884  26.825   6.361
 4671POPC   D2A59776   2.859  26.658   6.789
 4671POPC   C3A59777   2.803  26.997   7.078
 4671POPC   C4A59778   3.070  27.138   7.437
 4671POPC   C1B59779   2.518  26.455   6.279
 4671POPC   C2B59780   2.362  26.667   6.665
 4671POPC   C3B59781   2.437  26.616   7.125
 4671POPC   C4B59782   2.190  26.572   7.505
 4672POPC   NC359783  33.934  44.343   5.392
 4672POPC   PO459784  33.742  44.923   5.323
 4672POPC   GL159785  33.966  44.779   5.715
 4672POPC   GL259786  33.643  44.887   5.833
 4672POPC   C1A59787  33.944  44.692   6.194
 4672POPC   D2A59788  33.760  44.508   6.577
 4672POPC   C3A59789  34.014  44.597   6.928
 4672POPC   C4A59790  34.020  44.737   7.341
 4672POPC   C1B59791  33.436  44.820   6.229
 4672POPC   C2B59792  33.306  44.760   6.637
 4672POPC   C3B59793  33.491  44.642   7.028
 4672POPC   C4B59794  33.537  44.846   7.436
 4673POPC   NC359795  19.120  22.653   5.255
 4673POPC   PO459796  19.002  23.162   5.679
 4673POPC   GL159797  18.894  22.750   5.776
 4673POPC   GL259798  19.273  22.739   5.763
 4673POPC   C1A59799  18.743  22.696   6.212
 4673POPC   D2A59800  19.062  22.682   6.562
 4673POPC   C3A59801  19.032  22.747   7.012
 4673POPC   C4A59802  19.406  22.696   7.296
 4673POPC   C1B59803  19.393  22.837   6.176
 4673POPC   C2B59804  19.335  23.174   6.471
 4673POPC   C3B59805  19.076  23.226   6.828
 4673POPC   C4B59806  19.197  23.181   7.247
 4674POPC   NC359807  11.924  39.492   5.441
 4674POPC   PO459808  12.437  39.069   5.402
 4674POPC   GL159809  12.233  39.173   5.803
 4674POPC   GL259810  12.335  39.501   5.804
 4674POPC   C1A59811  12.031  39.258   6.235
 4674POPC   D2A59812  11.936  39.443   6.656
 4674POPC   C3A59813  12.005  39.239   7.054
 4674POPC   C4A59814  11.956  39.279   7.509
 4674POPC   C1B59815  12.533  39.392   6.181
 4674POPC   C2B59816  12.447  39.331   6.603
 4674POPC   C3B59817  12.528  39.392   7.017
 4674POPC   C4B59818  12.438  39.092   7.329
 4675POPC   NC359819  31.285  10.172   5.418
 4675POPC   PO459820  31.632   9.581   5.361
 4675POPC   GL159821  31.481   9.822   5.710
 4675POPC   GL259822  31.278   9.553   5.792
 4675POPC   C1A59823  31.255   9.977   6.099
 4675POPC   D2A59824  31.239   9.717   6.490
 4675POPC   C3A59825  31.400   9.814   6.911
 4675POPC   C4A59826  31.245  10.075   7.225
 4675POPC   C1B59827  31.618   9.603   6.151
 4675POPC   C2B59828  31.727   9.512   6.605
 4675POPC   C3B59829  31.658   9.362   7.038
 4675POPC   C4B59830  31.603   9.659   7.414
 4676POPC   NC359831  16.484  24.050   5.493
 4676POPC   PO459832  17.171  23.780   5.378
 4676POPC   GL159833  16.921  23.845   5.732
 4676POPC   GL259834  16.774  23.526   5.824
 4676POPC   C1A59835  16.965  23.873   6.179
 4676POPC   D2A59836  17.001  23.676   6.578
 4676POPC   C3A59837  16.907  23.897   6.951
 4676POPC   C4A59838  16.995  23.687   7.305
 4676POPC   C1B59839  16.594  23.497   6.264
 4676POPC   C2B59840  16.489  23.673   6.695
 4676POPC   C3B59841  16.489  23.557   7.141
 4676POPC   C4B59842  16.229  23.677   7.506
 4677POPC   NC359843  15.689  36.627   5.511
 4677POPC   PO459844  15.634  37.264   5.353
 4677POPC   GL159845  15.882  37.152   5.718
 4677POPC   GL259846  16.107  36.835   5.761
 4677POPC   C1A59847  15.947  37.237   6.145
 4677POPC   D2A59848  15.882  36.942   6.472
 4677POPC   C3A59849  15.826  37.081   6.865
 4677POPC   C4A59850  15.895  36.884   7.242
 4677POPC   C1B59851  16.041  36.557   6.130
 4677POPC   C2B59852  16.185  36.547   6.573
 4677POPC   C3B59853  16.268  36.709   6.949
 4677POPC   C4B59854  16.266  36.551   7.370
 4678POPC   NC359855  16.230   5.894   5.501
 4678POPC   PO459856  15.605   5.775   5.287
 4678POPC   GL159857  15.741   5.899   5.772
 4678POPC   GL259858  16.073   5.853   5.970
 4678POPC   C1A59859  15.672   5.901   6.273
 4678POPC   D2A59860  15.897   5.893   6.704
 4678POPC   C3A59861  15.747   5.801   7.153
 4678POPC   C4A59862  15.811   5.848   7.623
 4678POPC   C1B59863  16.298   5.521   6.161
 4678POPC   C2B59864  16.324   5.516   6.590
 4678POPC   C3B59865  16.157   5.459   6.992
 4678POPC   C4B59866  16.225   5.654   7.365
 4679POPC   NC359867  11.398  26.513   5.382
 4679POPC   PO459868  11.312  27.119   5.475
 4679POPC   GL159869  11.217  26.997   5.877
 4679POPC   GL259870  11.245  26.649   5.845
 4679POPC   C1A59871  11.045  27.035   6.301
 4679POPC   D2A59872  11.223  27.188   6.691
 4679POPC   C3A59873  11.123  27.197   7.142
 4679POPC   C4A59874  11.334  27.017   7.504
 4679POPC   C1B59875  11.394  26.672   6.233
 4679POPC   C2B59876  11.258  26.638   6.622
 4679POPC   C3B59877  11.294  26.727   7.031
 4679POPC   C4B59878  11.354  26.494   7.423
 4680POPC   NC359879  16.984   9.016   5.416
 4680POPC   PO459880  16.448   9.254   5.136
 4680POPC   GL159881  16.574   9.261   5.614
 4680POPC   GL259882  16.411   9.000   5.850
 4680POPC   C1A59883  16.812   9.235   6.036
 4680POPC   D2A59884  16.673   9.070   6.425
 4680POPC   C3A59885  16.878   8.895   6.781
 4680POPC   C4A59886  16.870   9.055   7.202
 4680POPC   C1B59887  16.548   8.655   6.148
 4680POPC   C2B59888  16.397   8.641   6.568
 4680POPC   C3B59889  16.407   8.825   6.972
 4680POPC   C4B59890  16.411   9.004   7.406
 4681POPC   NC359891  21.477  27.373   5.378
 4681POPC   PO459892  21.079  27.851   5.625
 4681POPC   GL159893  21.301  27.526   5.867
 4681POPC   GL259894  21.673  27.560   5.856
 4681POPC   C1A59895  21.353  27.463   6.314
 4681POPC   D2A59896  21.200  27.726   6.651
 4681POPC   C3A59897  21.285  27.548   7.056
 4681POPC   C4A59898  21.138  27.509   7.479
 4681POPC   C1B59899  21.868  27.411   6.258
 4681POPC   C2B59900  21.753  27.536   6.687
 4681POPC   C3B59901  21.790  27.424   7.105
 4681POPC   C4B59902  21.613  27.219   7.454
 4682POPC   NC359903   4.003  23.949   5.673
 4682POPC   PO459904   3.356  24.029   5.411
 4682POPC   GL159905   3.464  23.802   5.806
 4682POPC   GL259906   3.714  23.531   5.776
 4682POPC   C1A59907   3.437  23.841   6.279
 4682POPC   D2A59908   3.514  23.771   6.740
 4682POPC   C3A59909   3.304  23.827   7.148
 4682POPC   C4A59910   3.361  24.005   7.604
 4682POPC   C1B59911   3.754  23.416   6.216
 4682POPC   C2B59912   3.831  23.372   6.674
 4682POPC   C3B59913   3.620  23.397   7.088
 4682POPC   C4B59914   3.749  23.724   7.390
 4683POPC   NC359915  21.428   3.887   5.346
 4683POPC   PO459916  21.033   4.404   5.403
 4683POPC   GL159917  21.190   4.180   5.780
 4683POPC   GL259918  21.522   4.244   5.690
 4683POPC   C1A59919  21.144   4.292   6.238
 4683POPC   D2A59920  21.331   4.223   6.655
 4683POPC   C3A59921  21.101   4.335   7.019
 4683POPC   C4A59922  21.117   4.746   7.200
 4683POPC   C1B59923  21.613   4.413   6.094
 4683POPC   C2B59924  21.788   4.175   6.425
 4683POPC   C3B59925  21.791   4.099   6.867
 4683POPC   C4B59926  21.541   4.249   7.241
 4684POPC   NC359927  20.525  16.996   5.091
 4684POPC   PO459928  20.517  16.492   5.564
 4684POPC   GL159929  20.664  16.705   5.911
 4684POPC   GL259930  20.853  16.418   6.037
 4684POPC   C1A59931  20.532  16.894   6.280
 4684POPC   D2A59932  20.567  16.996   6.695
 4684POPC   C3A59933  20.669  16.717   7.020
 4684POPC   C4A59934  20.794  16.954   7.374
 4684POPC   C1B59935  20.922  16.100   6.319
 4684POPC   C2B59936  20.767  16.113   6.734
 4684POPC   C3B59937  20.929  16.222   7.141
 4684POPC   C4B59938  20.751  16.439   7.473
 4685POPC   NC359939  37.167  29.799   5.611
 4685POPC   PO459940  36.781  30.198   5.154
 4685POPC   GL159941  36.755  30.125   5.679
 4685POPC   GL259942  36.569  29.791   5.780
 4685POPC   C1A59943  36.858  29.998   6.160
 4685POPC   D2A59944  37.151  30.060   6.514
 4685POPC   C3A59945  37.114  29.820   6.904
 4685POPC   C4A59946  37.009  29.872   7.323
 4685POPC   C1B59947  36.632  29.567   6.200
 4685POPC   C2B59948  36.683  29.786   6.618
 4685POPC   C3B59949  36.713  30.136   6.891
 4685POPC   C4B59950  36.869  30.377   7.220
 4686POPC   NC359951  37.110  38.444   5.166
 4686POPC   PO459952  36.480  38.513   5.358
 4686POPC   GL159953  36.739  38.364   5.765
 4686POPC   GL259954  37.058  38.150   5.658
 4686POPC   C1A59955  36.709  38.514   6.232
 4686POPC   D2A59956  36.895  38.879   6.508
 4686POPC   C3A59957  37.061  38.842   6.942
 4686POPC   C4A59958  36.812  38.633   7.232
 4686POPC   C1B59959  37.166  38.086   6.089
 4686POPC   C2B59960  37.221  38.154   6.528
 4686POPC   C3B59961  37.240  37.964   6.919
 4686POPC   C4B59962  37.150  38.215   7.251
 4687POPC   NC359963  27.223   6.063   5.603
 4687POPC   PO459964  26.986   6.669   5.384
 4687POPC   GL159965  26.855   6.564   5.766
 4687POPC   GL259966  26.514   6.522   5.863
 4687POPC   C1A59967  26.856   6.802   6.140
 4687POPC   D2A59968  26.792   6.973   6.535
 4687POPC   C3A59969  26.927   6.809   6.935
 4687POPC   C4A59970  26.905   6.624   7.329
 4687POPC   C1B59971  26.435   6.506   6.298
 4687POPC   C2B59972  26.426   6.676   6.715
 4687POPC   C3B59973  26.456   6.731   7.147
 4687POPC   C4B59974  26.446   6.478   7.539
 4688POPC   NC359975   4.680  27.390   5.346
 4688POPC   PO459976   5.338  27.339   5.303
 4688POPC   GL159977   5.158  27.550   5.665
 4688POPC   GL259978   5.474  27.614   5.730
 4688POPC   C1A59979   5.030  27.781   6.077
 4688POPC   D2A59980   4.840  27.673   6.483
 4688POPC   C3A59981   5.016  27.731   6.874
 4688POPC   C4A59982   5.021  27.919   7.269
 4688POPC   C1B59983   5.371  27.411   6.157
 4688POPC   C2B59984   5.228  27.324   6.569
 4688POPC   C3B59985   5.278  27.294   6.986
 4688POPC   C4B59986   5.407  27.465   7.347
 4689POPC   NC359987  10.593  29.747   5.447
 4689POPC   PO459988  10.174  29.336   5.896
 4689POPC   GL159989  10.460  29.705   5.935
 4689POPC   GL259990  10.281  29.962   5.888
 4689POPC   C1A59991  10.703  30.026   6.190
 4689POPC   D2A59992  10.586  30.130   6.632
 4689POPC   C3A59993  10.564  29.745   6.876
 4689POPC   C4A59994  10.678  29.691   7.302
 4689POPC   C1B59995  10.224  29.910   6.334
 4689POPC   C2B59996  10.058  29.811   6.729
 4689POPC   C3B59997  10.149  29.856   7.161
 4689POPC   C4B59998  10.468  30.166   7.151
 4690POPC   NC359999  34.108  30.493   5.562
 4690POPC   PO460000  34.385  31.092   5.547
 4690POPC   GL160001  34.061  31.133   5.870
 4690POPC   GL260002  33.813  30.839   5.904
 4690POPC   C1A60003  33.930  31.108   6.321
 4690POPC   D2A60004  33.754  30.749   6.579
 4690POPC   C3A60005  33.944  30.522   6.912
 4690POPC   C4A60006  34.003  30.777   7.265
 4690POPC   C1B60007  33.548  30.515   6.169
 4690POPC   C2B60008  33.406  30.359   6.629
 4690POPC   C3B60009  33.351  30.491   7.119
 4690POPC   C4B60010  33.398  30.394   7.632
 4691POPC   NC360011  30.230   3.417   5.473
 4691POPC   PO460012  29.852   4.007   5.454
 4691POPC   GL160013  30.065   3.766   5.820
 4691POPC   GL260014  29.992   3.384   5.908
 4691POPC   C1A60015  30.215   3.730   6.258
 4691POPC   D2A60016  30.349   3.793   6.709
 4691POPC   C3A60017  30.025   3.667   7.006
 4691POPC   C4A60018  29.735   3.906   7.229
 4691POPC   C1B60019  29.758   3.286   6.263
 4691POPC   C2B60020  29.694   3.468   6.676
 4691POPC   C3B60021  29.609   3.377   7.108
 4691POPC   C4B60022  29.803   3.136   7.448
 4692POPC   NC360023   7.569   5.020   5.284
 4692POPC   PO460024   7.158   5.650   5.368
 4692POPC   GL160025   7.099   5.278   5.717
 4692POPC   GL260026   7.396   5.062   5.769
 4692POPC   C1A60027   7.152   5.164   6.195
 4692POPC   D2A60028   7.399   5.127   6.591
 4692POPC   C3A60029   7.258   5.215   7.044
 4692POPC   C4A60030   7.485   5.542   7.295
 4692POPC   C1B60031   7.457   4.767   6.130
 4692POPC   C2B60032   7.373   4.626   6.534
 4692POPC   C3B60033   7.523   4.744   6.922
 4692POPC   C4B60034   7.374   4.690   7.292
 4693POPC   NC360035  38.060  28.458   5.626
 4693POPC   PO460036  38.632  28.148   5.437
 4693POPC   GL160037  38.475  28.230   5.854
 4693POPC   GL260038  38.541  28.578   5.832
 4693POPC   C1A60039  38.324  28.428   6.261
 4693POPC   D2A60040  38.029  28.373   6.615
 4693POPC   C3A60041  38.224  28.442   7.020
 4693POPC   C4A60042  38.386  28.218   7.397
 4693POPC   C1B60043  38.855  28.467   6.142
 4693POPC   C2B60044  38.763  28.428   6.570
 4693POPC   C3B60045  38.734  28.240   6.961
 4693POPC   C4B60046  39.022  28.294   7.287
 4694POPC   NC360047  25.794  19.136   5.333
 4694POPC   PO460048  26.373  18.903   5.510
 4694POPC   GL160049  26.193  18.860   5.863
 4694POPC   GL260050  26.048  19.178   5.820
 4694POPC   C1A60051  26.287  18.994   6.268
 4694POPC   D2A60052  26.339  19.210   6.654
 4694POPC   C3A60053  26.188  18.953   6.978
 4694POPC   C4A60054  25.761  18.813   7.086
 4694POPC   C1B60055  25.968  19.396   6.220
 4694POPC   C2B60056  25.901  19.515   6.674
 4694POPC   C3B60057  26.140  19.502   7.070
 4694POPC   C4B60058  26.213  19.577   7.514
 4695POPC   NC360059   7.954  26.340   5.491
 4695POPC   PO460060   7.278  26.203   5.460
 4695POPC   GL160061   7.370  25.924   5.821
 4695POPC   GL260062   7.741  25.911   5.760
 4695POPC   C1A60063   7.281  25.968   6.302
 4695POPC   D2A60064   7.321  26.286   6.655
 4695POPC   C3A60065   7.210  26.163   7.100
 4695POPC   C4A60066   7.336  26.406   7.499
 4695POPC   C1B60067   7.686  26.222   6.100
 4695POPC   C2B60068   7.791  26.071   6.485
 4695POPC   C3B60069   7.658  25.938   6.874
 4695POPC   C4B60070   7.706  26.246   7.168
 4696POPC   NC360071  40.269  37.152   5.414
 4696POPC   PO460072  39.859  36.677   5.552
 4696POPC   GL160073  40.016  36.623   5.936
 4696POPC   GL260074  40.266  36.861   5.855
 4696POPC   C1A60075  39.819  36.596   6.318
 4696POPC   D2A60076  40.015  36.740   6.686
 4696POPC   C3A60077  39.849  36.762   7.095
 4696POPC   C4A60078  39.856  37.213   7.171
 4696POPC   C1B60079  40.256  37.007   6.282
 4696POPC   C2B60080  40.300  37.154   6.715
 4696POPC   C3B60081  40.327  36.935   7.123
 4696POPC   C4B60082  40.482  37.089   7.503
 4697POPC   NC360083  17.286  18.858   5.451
 4697POPC   PO460084  17.741  19.228   5.109
 4697POPC   GL160085  17.679  19.146   5.643
 4697POPC   GL260086  17.352  19.091   5.897
 4697POPC   C1A60087  17.771  18.977   6.113
 4697POPC   D2A60088  17.670  18.756   6.534
 4697POPC   C3A60089  17.646  19.006   6.928
 4697POPC   C4A60090  17.397  19.290   7.178
 4697POPC   C1B60091  17.238  18.774   6.171
 4697POPC   C2B60092  17.150  18.596   6.553
 4697POPC   C3B60093  17.153  18.823   6.924
 4697POPC   C4B60094  17.364  18.752   7.273
 4698POPC   NC360095   3.719  16.457   5.604
 4698POPC   PO460096   3.727  17.023   5.218
 4698POPC   GL160097   3.661  16.981   5.677
 4698POPC   GL260098   3.326  16.913   5.768
 4698POPC   C1A60099   3.657  16.830   6.145
 4698POPC   D2A60100   3.391  16.922   6.522
 4698POPC   C3A60101   3.644  16.803   6.879
 4698POPC   C4A60102   3.774  16.682   7.285
 4698POPC   C1B60103   3.235  16.575   6.109
 4698POPC   C2B60104   3.200  16.445   6.571
 4698POPC   C3B60105   3.191  16.606   7.016
 4698POPC   C4B60106   3.314  16.582   7.472
 4699POPC   NC360107  39.237  30.130   5.024
 4699POPC   PO460108  39.025  29.672   5.477
 4699POPC   GL160109  39.247  29.920   5.797
 4699POPC   GL260110  39.304  29.630   5.940
 4699POPC   C1A60111  39.524  29.991   6.222
 4699POPC   D2A60112  39.610  29.903   6.685
 4699POPC   C3A60113  39.376  29.970   7.068
 4699POPC   C4A60114  38.909  30.069   7.066
 4699POPC   C1B60115  39.071  29.773   6.299
 4699POPC   C2B60116  39.112  29.683   6.729
 4699POPC   C3B60117  39.046  29.573   7.157
 4699POPC   C4B60118  38.795  29.762   7.500
 4700POPC   NC360119   9.262  30.160   5.542
 4700POPC   PO460120   8.676  29.890   5.257
 4700POPC   GL160121   8.874  29.828   5.686
 4700POPC   GL260122   9.112  29.563   5.732
 4700POPC   C1A60123   8.941  30.043   6.100
 4700POPC   D2A60124   8.932  29.910   6.520
 4700POPC   C3A60125   9.079  29.846   6.910
 4700POPC   C4A60126   8.791  29.687   7.190
 4700POPC   C1B60127   9.238  29.657   6.155
 4700POPC   C2B60128   9.220  29.462   6.563
 4700POPC   C3B60129   9.315  29.403   6.989
 4700POPC   C4B60130   9.232  29.588   7.405
 4701POPC   NC360131   3.583  16.615   5.037
 4701POPC   PO460132   3.504  16.069   5.418
 4701POPC   GL160133   3.533  15.929   5.832
 4701POPC   GL260134   3.273  15.684   5.818
 4701POPC   C1A60135   3.720  16.046   6.262
 4701POPC   D2A60136   4.008  16.072   6.660
 4701POPC   C3A60137   3.834  16.185   7.095
 4701POPC   C4A60138   3.383  16.142   7.225
 4701POPC   C1B60139   3.484  15.562   6.214
 4701POPC   C2B60140   3.696  15.629   6.598
 4701POPC   C3B60141   3.737  15.682   7.033
 4701POPC   C4B60142   3.790  15.767   7.457
 4702POPC   NC360143  42.547   6.005   5.582
 4702POPC   PO460144  41.908   5.689   5.577
 4702POPC   GL160145  42.207   5.756   5.866
 4702POPC   GL260146  42.120   6.103   5.925
 4702POPC   C1A60147  42.444   5.702   6.242
 4702POPC   D2A60148  42.254   5.864   6.630
 4702POPC   C3A60149  42.366   5.640   7.000
 4702POPC   C4A60150  42.207   5.304   7.216
 4702POPC   C1B60151  42.415   6.221   6.241
 4702POPC   C2B60152  42.427   6.356   6.654
 4702POPC   C3B60153  42.341   6.150   7.055
 4702POPC   C4B60154  42.047   6.003   7.363
 4703POPC   NC360155  41.127  11.828   5.541
 4703POPC   PO460156  40.764  12.351   5.224
 4703POPC   GL160157  40.916  12.294   5.661
 4703POPC   GL260158  40.667  12.076   5.782
 4703POPC   C1A60159  40.944  12.244   6.164
 4703POPC   D2A60160  40.853  12.320   6.618
 4703POPC   C3A60161  40.817  12.083   7.008
 4703POPC   C4A60162  40.478  12.194   7.282
 4703POPC   C1B60163  40.464  11.941   6.184
 4703POPC   C2B60164  40.471  11.923   6.642
 4703POPC   C3B60165  40.407  11.722   7.049
 4703POPC   C4B60166  40.239  11.805   7.467
 4704POPC   NC360167  15.397   6.064   4.978
 4704POPC   PO460168  14.965   5.916   5.432
 4704POPC   GL160169  14.927   5.938   5.865
 4704POPC   GL260170  14.944   5.596   5.905
 4704POPC   C1A60171  15.161   5.986   6.248
 4704POPC   D2A60172  15.034   6.101   6.656
 4704POPC   C3A60173  15.308   6.075   7.009
 4704POPC   C4A60174  15.260   5.838   7.375
 4704POPC   C1B60175  15.292   5.487   6.183
 4704POPC   C2B60176  15.355   5.653   6.604
 4704POPC   C3B60177  15.062   5.637   6.920
 4704POPC   C4B60178  15.069   5.378   7.258
 4705POPC   NC360179  30.453  11.680   5.504
 4705POPC   PO460180  30.768  12.235   5.543
 4705POPC   GL160181  30.772  11.914   5.844
 4705POPC   GL260182  30.946  12.161   6.032
 4705POPC   C1A60183  30.632  11.839   6.275
 4705POPC   D2A60184  30.707  12.066   6.667
 4705POPC   C3A60185  30.549  11.957   7.081
 4705POPC   C4A60186  30.667  11.800   7.509
 4705POPC   C1B60187  31.008  12.419   6.412
 4705POPC   C2B60188  31.085  12.378   6.865
 4705POPC   C3B60189  30.906  12.260   7.296
 4705POPC   C4B60190  30.738  12.258   7.734
 4706POPC   NC360191  16.244   8.920   5.375
 4706POPC   PO460192  15.680   8.667   5.392
 4706POPC   GL160193  15.950   8.693   5.752
 4706POPC   GL260194  15.894   9.050   5.773
 4706POPC   C1A60195  16.064   8.797   6.191
 4706POPC   D2A60196  15.845   8.902   6.562
 4706POPC   C3A60197  15.941   9.002   6.982
 4706POPC   C4A60198  16.021   8.706   7.311
 4706POPC   C1B60199  15.650   9.146   6.144
 4706POPC   C2B60200  15.730   9.407   6.519
 4706POPC   C3B60201  15.668   9.454   6.967
 4706POPC   C4B60202  15.572   9.135   7.302
 4707POPC   NC360203   1.278  10.806   5.666
 4707POPC   PO460204   1.632  11.274   5.273
 4707POPC   GL160205   1.437  11.344   5.760
 4707POPC   GL260206   1.263  11.116   6.044
 4707POPC   C1A60207   1.457  11.530   6.220
 4707POPC   D2A60208   1.222  11.285   6.544
 4707POPC   C3A60209   1.370  11.426   6.916
 4707POPC   C4A60210   1.458  11.636   7.291
 4707POPC   C1B60211   0.966  10.882   6.285
 4707POPC   C2B60212   0.724  11.023   6.630
 4707POPC   C3B60213   0.963  11.064   6.989
 4707POPC   C4B60214   1.230  11.161   7.328
 4708POPC   NC360215  33.243  42.695   5.473
 4708POPC   PO460216  33.026  43.317   5.428
 4708POPC   GL160217  33.172  43.139   5.769
 4708POPC   GL260218  32.931  42.927   5.817
 4708POPC   C1A60219  33.288  43.027   6.179
 4708POPC   D2A60220  33.337  43.231   6.578
 4708POPC   C3A60221  33.165  42.974   6.872
 4708POPC   C4A60222  33.079  43.045   7.289
 4708POPC   C1B60223  32.795  43.204   6.133
 4708POPC   C2B60224  32.811  43.274   6.569
 4708POPC   C3B60225  32.687  43.181   6.994
 4708POPC   C4B60226  32.687  43.320   7.434
 4709POPC   NC360227  27.083  28.359   5.688
 4709POPC   PO460228  26.595  28.755   5.479
 4709POPC   GL160229  26.625  28.546   5.845
 4709POPC   GL260230  26.599  28.201   5.825
 4709POPC   C1A60231  26.747  28.492   6.265
 4709POPC   D2A60232  27.002  28.406   6.601
 4709POPC   C3A60233  26.803  28.516   6.984
 4709POPC   C4A60234  26.918  28.351   7.368
 4709POPC   C1B60235  26.498  27.993   6.195
 4709POPC   C2B60236  26.164  28.008   6.504
 4709POPC   C3B60237  26.289  28.156   6.906
 4709POPC   C4B60238  26.492  28.028   7.277
 4710POPC   NC360239  36.880  21.717   5.229
 4710POPC   PO460240  36.496  21.288   5.487
 4710POPC   GL160241  36.766  21.326   5.861
 4710POPC   GL260242  37.048  21.104   5.995
 4710POPC   C1A60243  36.611  21.316   6.251
 4710POPC   D2A60244  36.597  21.612   6.547
 4710POPC   C3A60245  36.586  21.378   6.871
 4710POPC   C4A60246  36.789  21.410   7.222
 4710POPC   C1B60247  37.086  21.435   6.359
 4710POPC   C2B60248  37.084  21.556   6.818
 4710POPC   C3B60249  37.163  21.758   7.265
 4710POPC   C4B60250  37.421  21.667   7.669
 4711POPC   NC360251  18.627  23.386   5.519
 4711POPC   PO460252  18.617  22.665   5.308
 4711POPC   GL160253  18.420  22.909   5.627
 4711POPC   GL260254  18.339  22.618   5.765
 4711POPC   C1A60255  18.361  23.055   6.082
 4711POPC   D2A60256  18.232  22.962   6.547
 4711POPC   C3A60257  18.475  23.174   6.911
 4711POPC   C4A60258  18.625  23.021   7.329
 4711POPC   C1B60259  18.233  22.574   6.178
 4711POPC   C2B60260  18.414  22.443   6.541
 4711POPC   C3B60261  18.489  22.650   6.921
 4711POPC   C4B60262  18.362  22.574   7.308
 4712POPC   NC360263  27.117  42.168   5.454
 4712POPC   PO460264  27.749  42.392   5.420
 4712POPC   GL160265  27.648  42.336   5.843
 4712POPC   GL260266  27.279  42.396   5.890
 4712POPC   C1A60267  27.891  42.100   6.165
 4712POPC   D2A60268  28.099  41.996   6.576
 4712POPC   C3A60269  27.875  42.059   6.948
 4712POPC   C4A60270  27.791  42.469   7.083
 4712POPC   C1B60271  27.386  42.208   6.275
 4712POPC   C2B60272  27.497  42.261   6.684
 4712POPC   C3B60273  27.311  42.347   7.089
 4712POPC   C4B60274  27.518  42.130   7.370
 4713POPC   NC360275   0.310   6.193   5.642
 4713POPC   PO460276  44.785   6.068   5.204
 4713POPC   GL160277  44.678   6.002   5.686
 4713POPC   GL260278  44.987   5.889   5.877
 4713POPC   C1A60279  44.589   5.984   6.168
 4713POPC   D2A60280  44.824   5.971   6.570
 4713POPC   C3A60281  44.521   5.936   6.878
 4713POPC   C4A60282  44.268   5.807   7.255
 4713POPC   C1B60283  44.949   5.561   6.196
 4713POPC   C2B60284   0.013   5.467   6.634
 4713POPC   C3B60285  44.901   5.602   7.058
 4713POPC   C4B60286   0.107   5.700   7.461
 4714POPC   NC360287   2.358  42.242   5.459
 4714POPC   PO460288   1.700  42.506   5.491
 4714POPC   GL160289   2.010  42.492   5.760
 4714POPC   GL260290   1.979  42.147   5.793
 4714POPC   C1A60291   2.025  42.520   6.179
 4714POPC   D2A60292   1.801  42.520   6.551
 4714POPC   C3A60293   1.990  42.428   6.904
 4714POPC   C4A60294   2.115  42.610   7.287
 4714POPC   C1B60295   2.160  41.962   6.125
 4714POPC   C2B60296   2.219  42.148   6.510
 4714POPC   C3B60297   2.207  41.939   6.897
 4714POPC   C4B60298   2.094  42.105   7.288
 4715POPC   NC360299  37.205   1.473   5.525
 4715POPC   PO460300  36.545   1.360   5.610
 4715POPC   GL160301  36.744   1.268   5.975
 4715POPC   GL260302  37.021   1.078   5.836
 4715POPC   C1A60303  36.728   1.157   6.420
 4715POPC   D2A60304  36.858   0.942   6.806
 4715POPC   C3A60305  36.845   1.282   7.094
 4715POPC   C4A60306  36.637   1.418   7.464
 4715POPC   C1B60307  37.204   1.299   6.218
 4715POPC   C2B60308  37.197   1.347   6.680
 4715POPC   C3B60309  37.361   1.304   7.128
 4715POPC   C4B60310  37.170   0.960   7.341
 4716POPC   NC360311   8.515  11.711   5.644
 4716POPC   PO460312   8.098  12.122   5.261
 4716POPC   GL160313   8.182  12.147   5.694
 4716POPC   GL260314   8.103  11.878   5.881
 4716POPC   C1A60315   8.190  12.295   6.132
 4716POPC   D2A60316   7.925  12.283   6.502
 4716POPC   C3A60317   8.148  12.148   6.854
 4716POPC   C4A60318   8.195  12.221   7.282
 4716POPC   C1B60319   8.183  11.777   6.301
 4716POPC   C2B60320   8.370  11.703   6.689
 4716POPC   C3B60321   8.358  11.750   7.129
 4716POPC   C4B60322   8.018  11.592   7.311
 4717POPC   NC360323  16.626  15.623   5.160
 4717POPC   PO460324  16.719  16.325   5.267
 4717POPC   GL160325  16.718  16.071   5.679
 4717POPC   GL260326  16.530  15.770   5.762
 4717POPC   C1A60327  16.975  16.024   6.089
 4717POPC   D2A60328  17.059  15.916   6.550
 4717POPC   C3A60329  16.946  16.025   6.988
 4717POPC   C4A60330  16.761  15.773   7.331
 4717POPC   C1B60331  16.475  16.027   6.142
 4717POPC   C2B60332  16.521  15.976   6.591
 4717POPC   C3B60333  16.456  16.135   7.000
 4717POPC   C4B60334  16.693  16.302   7.368
 4718POPC   NC360335  44.839  44.443   5.122
 4718POPC   PO460336  44.647   0.004   5.464
 4718POPC   GL160337  44.698  44.566   5.690
 4718POPC   GL260338  44.944  44.657   5.831
 4718POPC   C1A60339  44.599  44.481   6.160
 4718POPC   D2A60340  44.784  44.497   6.592
 4718POPC   C3A60341  44.596  44.351   6.986
 4718POPC   C4A60342  44.575  44.596   7.330
 4718POPC   C1B60343  44.867  44.960   6.133
 4718POPC   C2B60344   0.012  44.957   6.543
 4718POPC   C3B60345  44.869  44.896   6.947
 4718POPC   C4B60346   0.046  44.808   7.334
 4719POPC   NC360347  19.008  44.257   5.429
 4719POPC   PO460348  19.004  44.836   5.607
 4719POPC   GL160349  19.230  44.541   5.844
 4719POPC   GL260350  18.946  44.344   5.927
 4719POPC   C1A60351  19.274  44.504   6.295
 4719POPC   D2A60352  19.067  44.374   6.661
 4719POPC   C3A60353  19.283  44.417   7.034
 4719POPC   C4A60354  19.162  44.596   7.394
 4719POPC   C1B60355  18.775  44.637   6.230
 4719POPC   C2B60356  18.605  44.869   6.575
 4719POPC   C3B60357  18.697  44.940   7.011
 4719POPC   C4B60358  18.632  44.700   7.366
 4720POPC   NC360359  28.705  14.401   5.306
 4720POPC   PO460360  28.081  14.154   5.471
 4720POPC   GL160361  28.276  14.229   5.842
 4720POPC   GL260362  28.627  14.152   5.784
 4720POPC   C1A60363  28.111  14.269   6.227
 4720POPC   D2A60364  28.231  14.076   6.652
 4720POPC   C3A60365  28.071  14.265   7.042
 4720POPC   C4A60366  28.137  14.581   7.390
 4720POPC   C1B60367  28.567  14.085   6.244
 4720POPC   C2B60368  28.478  14.498   6.509
 4720POPC   C3B60369  28.495  14.526   6.947
 4720POPC   C4B60370  28.557  14.099   7.117
 4721POPC   NC360371  37.687  15.681   5.416
 4721POPC   PO460372  37.622  14.974   5.404
 4721POPC   GL160373  37.673  15.069   5.821
 4721POPC   GL260374  37.735  15.409   5.865
 4721POPC   C1A60375  37.641  15.020   6.268
 4721POPC   D2A60376  37.805  14.850   6.643
 4721POPC   C3A60377  37.540  14.959   6.964
 4721POPC   C4A60378  37.634  15.142   7.362
 4721POPC   C1B60379  37.439  15.488   6.221
 4721POPC   C2B60380  37.545  15.381   6.659
 4721POPC   C3B60381  37.512  15.553   7.099
 4721POPC   C4B60382  37.595  15.596   7.570
 4722POPC   NC360383  16.313  40.948   5.505
 4722POPC   PO460384  17.022  40.917   5.514
 4722POPC   GL160385  16.883  40.769   5.884
 4722POPC   GL260386  16.554  40.695   5.889
 4722POPC   C1A60387  16.955  40.832   6.284
 4722POPC   D2A60388  16.900  40.551   6.585
 4722POPC   C3A60389  16.710  40.787   6.890
 4722POPC   C4A60390  16.988  40.986   7.133
 4722POPC   C1B60391  16.454  40.398   6.202
 4722POPC   C2B60392  16.400  40.392   6.619
 4722POPC   C3B60393  16.556  40.313   7.012
 4722POPC   C4B60394  16.776  40.527   7.341
 4723POPC   NC360395   8.459  11.801   5.131
 4723POPC   PO460396   8.411  11.264   5.628
 4723POPC   GL160397   8.242  11.375   5.955
 4723POPC   GL260398   7.928  11.415   5.784
 4723POPC   C1A60399   8.435  11.316   6.330
 4723POPC   D2A60400   8.703  11.185   6.633
 4723POPC   C3A60401   8.436  11.264   6.948
 4723POPC   C4A60402   8.405  11.221   7.348
 4723POPC   C1B60403   7.820  11.419   6.221
 4723POPC   C2B60404   8.013  11.306   6.622
 4723POPC   C3B60405   7.859  11.210   7.029
 4723POPC   C4B60406   7.935  11.099   7.487
 4724POPC   NC360407   4.629  44.222   5.333
 4724POPC   PO460408   4.131  43.755   5.481
 4724POPC   GL160409   4.246  43.965   5.865
 4724POPC   GL260410   4.070  43.704   6.012
 4724POPC   C1A60411   4.477  43.897   6.286
 4724POPC   D2A60412   4.449  43.656   6.672
 4724POPC   C3A60413   4.509  43.856   7.054
 4724POPC   C4A60414   4.771  44.011   7.349
 4724POPC   C1B60415   3.954  43.972   6.349
 4724POPC   C2B60416   4.155  44.094   6.710
 4724POPC   C3B60417   4.011  43.878   7.060
 4724POPC   C4B60418   3.835  44.029   7.400
 4725POPC   NC360419   5.358  44.878   5.138
 4725POPC   PO460420   5.103  44.316   5.422
 4725POPC   GL160421   5.304  44.473   5.826
 4725POPC   GL260422   5.291  44.850   5.841
 4725POPC   C1A60423   5.100  44.474   6.262
 4725POPC   D2A60424   4.736  44.358   6.544
 4725POPC   C3A60425   4.890  44.362   6.976
 4725POPC   C4A60426   4.958  44.494   7.395
 4725POPC   C1B60427   5.140  44.983   6.276
 4725POPC   C2B60428   5.122   0.151   6.723
 4725POPC   C3B60429   5.182   0.145   7.196
 4725POPC   C4B60430   4.962  44.973   7.582
 4726POPC   NC360431  22.422  26.252   5.547
 4726POPC   PO460432  21.819  25.912   5.410
 4726POPC   GL160433  22.030  26.016   5.806
 4726POPC   GL260434  22.356  25.873   5.904
 4726POPC   C1A60435  21.896  25.980   6.253
 4726POPC   D2A60436  22.107  26.102   6.629
 4726POPC   C3A60437  21.998  26.027   7.065
 4726POPC   C4A60438  21.995  26.312   7.412
 4726POPC   C1B60439  22.360  26.268   6.192
 4726POPC   C2B60440  22.528  26.442   6.577
 4726POPC   C3B60441  22.441  26.274   6.978
 4726POPC   C4B60442  22.630  26.288   7.378
 4727POPC   NC360443   3.605  20.522   5.495
 4727POPC   PO460444   3.765  21.178   5.628
 4727POPC   GL160445   3.682  20.824   5.939
 4727POPC   GL260446   3.346  20.690   5.950
 4727POPC   C1A60447   3.585  20.673   6.396
 4727POPC   D2A60448   3.276  20.621   6.743
 4727POPC   C3A60449   3.370  20.929   7.065
 4727POPC   C4A60450   3.771  20.799   7.247
 4727POPC   C1B60451   3.175  20.386   6.236
 4727POPC   C2B60452   3.310  20.108   6.576
 4727POPC   C3B60453   3.400  20.147   6.991
 4727POPC   C4B60454   3.333  20.471   7.261
 4728POPC   NC360455  21.919  30.070   5.356
 4728POPC   PO460456  22.555  30.109   5.452
 4728POPC   GL160457  22.441  29.904   5.850
 4728POPC   GL260458  22.076  29.871   5.812
 4728POPC   C1A60459  22.370  29.717   6.253
 4728POPC   D2A60460  22.202  29.473   6.615
 4728POPC   C3A60461  22.166  29.683   7.022
 4728POPC   C4A60462  22.376  29.938   7.342
 4728POPC   C1B60463  21.985  30.050   6.210
 4728POPC   C2B60464  22.108  29.982   6.629
 4728POPC   C3B60465  22.074  30.212   7.036
 4728POPC   C4B60466  21.941  30.175   7.498
 4729POPC   NC360467  17.488  17.942   5.264
 4729POPC   PO460468  17.691  18.592   5.414
 4729POPC   GL160469  17.474  18.519   5.800
 4729POPC   GL260470  17.322  18.206   5.735
 4729POPC   C1A60471  17.494  18.329   6.224
 4729POPC   D2A60472  17.740  18.246   6.588
 4729POPC   C3A60473  17.552  18.370   6.979
 4729POPC   C4A60474  17.612  18.347   7.449
 4729POPC   C1B60475  17.251  17.889   6.053
 4729POPC   C2B60476  17.341  17.872   6.486
 4729POPC   C3B60477  17.534  17.858   6.874
 4729POPC   C4B60478  17.337  17.965   7.273
 4730POPC   NC360479   5.862  44.553   5.016
 4730POPC   PO460480   6.192  44.846   5.512
 4730POPC   GL160481   5.805  44.672   5.750
 4730POPC   GL260482   5.793  44.303   5.857
 4730POPC   C1A60483   5.631  44.679   6.186
 4730POPC   D2A60484   5.695  44.522   6.595
 4730POPC   C3A60485   5.701  44.835   6.931
 4730POPC   C4A60486   5.917  44.704   7.281
 4730POPC   C1B60487   5.485  44.157   6.185
 4730POPC   C2B60488   5.340  44.174   6.633
 4730POPC   C3B60489   5.424  44.382   7.018
 4730POPC   C4B60490   5.687  44.250   7.336
 4731POPC   NC360491  11.637  13.552   5.402
 4731POPC   PO460492  11.075  13.866   5.187
 4731POPC   GL160493  11.142  13.660   5.642
 4731POPC   GL260494  11.462  13.672   5.846
 4731POPC   C1A60495  11.085  13.568   6.137
 4731POPC   D2A60496  11.230  13.463   6.525
 4731POPC   C3A60497  11.197  13.774   6.854
 4731POPC   C4A60498  11.195  13.570   7.223
 4731POPC   C1B60499  11.672  13.817   6.208
 4731POPC   C2B60500  11.654  13.727   6.628
 4731POPC   C3B60501  11.585  13.389   6.926
 4731POPC   C4B60502  11.650  13.393   7.409
 4732POPC   NC360503  40.407   8.051   5.454
 4732POPC   PO460504  39.749   8.136   5.366
 4732POPC   GL160505  39.955   8.219   5.747
 4732POPC   GL260506  40.095   7.937   5.873
 4732POPC   C1A60507  40.079   8.406   6.140
 4732POPC   D2A60508  39.955   8.637   6.479
 4732POPC   C3A60509  40.145   8.517   6.871
 4732POPC   C4A60510  39.852   8.434   7.192
 4732POPC   C1B60511  39.798   7.996   6.216
 4732POPC   C2B60512  39.876   8.163   6.623
 4732POPC   C3B60513  39.916   7.954   7.007
 4732POPC   C4B60514  40.064   7.764   7.370
 4733POPC   NC360515  32.465  25.637   5.360
 4733POPC   PO460516  32.152  24.999   5.451
 4733POPC   GL160517  32.082  25.371   5.703
 4733POPC   GL260518  32.413  25.378   5.789
 4733POPC   C1A60519  32.078  25.530   6.167
 4733POPC   D2A60520  32.195  25.416   6.621
 4733POPC   C3A60521  32.062  25.715   6.968
 4733POPC   C4A60522  31.998  25.675   7.430
 4733POPC   C1B60523  32.404  25.148   6.173
 4733POPC   C2B60524  32.362  24.911   6.524
 4733POPC   C3B60525  32.457  25.027   6.916
 4733POPC   C4B60526  32.232  25.298   7.158
 4734POPC   NC360527  34.311   4.889   5.124
 4734POPC   PO460528  34.827   5.331   5.321
 4734POPC   GL160529  34.563   5.054   5.616
 4734POPC   GL260530  34.314   5.331   5.668
 4734POPC   C1A60531  34.547   4.820   6.063
 4734POPC   D2A60532  34.690   4.752   6.522
 4734POPC   C3A60533  34.383   4.867   6.844
 4734POPC   C4A60534  34.310   5.004   7.276
 4734POPC   C1B60535  34.532   5.327   6.071
 4734POPC   C2B60536  34.504   5.295   6.533
 4734POPC   C3B60537  34.722   5.260   6.929
 4734POPC   C4B60538  34.676   5.330   7.368
 4735POPC   NC360539  25.869  26.947   5.362
 4735POPC   PO460540  26.213  26.422   5.374
 4735POPC   GL160541  26.199  26.650   5.760
 4735POPC   GL260542  26.009  26.966   5.877
 4735POPC   C1A60543  26.224  26.638   6.218
 4735POPC   D2A60544  25.995  26.840   6.546
 4735POPC   C3A60545  25.832  26.647   6.931
 4735POPC   C4A60546  26.116  26.556   7.239
 4735POPC   C1B60547  25.699  26.683   6.118
 4735POPC   C2B60548  25.497  26.731   6.546
 4735POPC   C3B60549  25.617  27.109   6.818
 4735POPC   C4B60550  25.852  27.127   7.240
 4736POPC   NC360551  20.854  32.373   5.369
 4736POPC   PO460552  20.775  31.806   5.673
 4736POPC   GL160553  20.628  32.210   5.848
 4736POPC   GL260554  20.277  32.181   5.907
 4736POPC   C1A60555  20.640  32.360   6.314
 4736POPC   D2A60556  20.962  32.265   6.666
 4736POPC   C3A60557  20.811  32.279   7.095
 4736POPC   C4A60558  20.412  32.400   7.248
 4736POPC   C1B60559  20.377  31.919   6.275
 4736POPC   C2B60560  20.558  31.953   6.706
 4736POPC   C3B60561  20.932  31.812   6.949
 4736POPC   C4B60562  21.096  31.910   7.361
 4737POPC   NC360563  12.179  26.293   5.420
 4737POPC   PO460564  11.546  26.195   5.097
 4737POPC   GL160565  11.705  26.307   5.702
 4737POPC   GL260566  12.048  26.126   5.870
 4737POPC   C1A60567  11.840  26.459   6.160
 4737POPC   D2A60568  12.175  26.448   6.517
 4737POPC   C3A60569  12.048  26.283   6.947
 4737POPC   C4A60570  11.776  26.229   7.313
 4737POPC   C1B60571  11.708  25.916   6.115
 4737POPC   C2B60572  11.600  25.701   6.501
 4737POPC   C3B60573  11.586  25.687   6.957
 4737POPC   C4B60574  11.984  25.800   7.138
 4738POPC   NC360575  21.219   1.515   5.123
 4738POPC   PO460576  21.601   1.374   5.628
 4738POPC   GL160577  21.451   1.077   5.933
 4738POPC   GL260578  21.188   1.289   5.932
 4738POPC   C1A60579  21.438   1.110   6.360
 4738POPC   D2A60580  21.493   1.477   6.581
 4738POPC   C3A60581  21.616   1.353   6.985
 4738POPC   C4A60582  21.461   1.035   7.223
 4738POPC   C1B60583  20.956   1.021   6.188
 4738POPC   C2B60584  20.954   1.186   6.590
 4738POPC   C3B60585  21.116   1.384   6.920
 4738POPC   C4B60586  21.012   1.356   7.310
 4739POPC   NC360587  28.972  13.232   5.386
 4739POPC   PO460588  29.345  12.674   5.516
 4739POPC   GL160589  29.296  13.019   5.777
 4739POPC   GL260590  28.950  12.965   5.873
 4739POPC   C1A60591  29.374  12.913   6.202
 4739POPC   D2A60592  29.407  12.621   6.543
 4739POPC   C3A60593  29.411  12.833   6.942
 4739POPC   C4A60594  29.312  12.658   7.346
 4739POPC   C1B60595  28.945  13.165   6.299
 4739POPC   C2B60596  28.946  13.297   6.741
 4739POPC   C3B60597  28.939  13.018   7.088
 4739POPC   C4B60598  28.766  12.591   7.200
 4740POPC   NC360599  30.587   0.489   5.224
 4740POPC   PO460600  29.872   0.389   5.250
 4740POPC   GL160601  29.814   0.284   5.735
 4740POPC   GL260602  29.986   0.500   5.955
 4740POPC   C1A60603  29.637   0.246   6.207
 4740POPC   D2A60604  29.590   0.520   6.589
 4740POPC   C3A60605  29.777   0.433   6.993
 4740POPC   C4A60606  29.865   0.421   7.441
 4740POPC   C1B60607  30.169   0.247   6.253
 4740POPC   C2B60608  30.087   0.150   6.680
 4740POPC   C3B60609  30.226   0.223   7.116
 4740POPC   C4B60610  30.371   0.308   7.562
 4741POPC   NC360611  19.523   6.749   5.342
 4741POPC   PO460612  20.045   6.441   5.421
 4741POPC   GL160613  19.773   6.585   5.767
 4741POPC   GL260614  19.982   6.857   5.880
 4741POPC   C1A60615  19.564   6.801   6.161
 4741POPC   D2A60616  19.378   6.799   6.584
 4741POPC   C3A60617  19.679   6.796   6.929
 4741POPC   C4A60618  19.918   6.470   7.138
 4741POPC   C1B60619  20.000   6.526   6.230
 4741POPC   C2B60620  20.103   6.647   6.657
 4741POPC   C3B60621  20.385   6.634   6.996
 4741POPC   C4B60622  20.382   6.451   7.390
 4742POPC   NC360623  16.216   4.060   5.045
 4742POPC   PO460624  16.400   4.536   5.558
 4742POPC   GL160625  16.052   4.454   5.847
 4742POPC   GL260626  15.726   4.577   5.805
 4742POPC   C1A60627  15.861   4.075   6.107
 4742POPC   D2A60628  15.893   3.826   6.501
 4742POPC   C3A60629  15.883   4.023   6.937
 4742POPC   C4A60630  16.204   4.333   7.137
 4742POPC   C1B60631  15.838   4.571   6.283
 4742POPC   C2B60632  15.857   4.494   6.736
 4742POPC   C3B60633  15.769   4.601   7.193
 4742POPC   C4B60634  15.538   4.473   7.565
 4743POPC   NC360635  39.547  33.938   5.259
 4743POPC   PO460636  38.981  33.616   5.501
 4743POPC   GL160637  39.158  33.860   5.814
 4743POPC   GL260638  39.526  33.897   5.780
 4743POPC   C1A60639  39.170  33.771   6.247
 4743POPC   D2A60640  39.049  33.991   6.621
 4743POPC   C3A60641  38.972  33.765   6.989
 4743POPC   C4A60642  39.057  33.794   7.407
 4743POPC   C1B60643  39.626  34.004   6.209
 4743POPC   C2B60644  39.576  33.863   6.632
 4743POPC   C3B60645  39.436  33.943   7.046
 4743POPC   C4B60646  39.493  34.096   7.479
 4744POPC   NC360647  12.826  38.719   5.357
 4744POPC   PO460648  12.876  38.077   5.136
 4744POPC   GL160649  13.017  38.231   5.583
 4744POPC   GL260650  12.915  38.540   5.816
 4744POPC   C1A60651  12.946  38.084   6.045
 4744POPC   D2A60652  12.715  38.279   6.415
 4744POPC   C3A60653  12.928  38.419   6.798
 4744POPC   C4A60654  12.969  38.462   7.260
 4744POPC   C1B60655  12.562  38.671   6.111
 4744POPC   C2B60656  12.606  38.826   6.531
 4744POPC   C3B60657  12.552  38.745   6.980
 4744POPC   C4B60658  12.478  38.517   7.370
 4745POPC   NC360659   1.579  22.443   5.474
 4745POPC   PO460660   2.037  22.878   5.199
 4745POPC   GL160661   1.973  22.788   5.678
 4745POPC   GL260662   1.661  22.733   5.907
 4745POPC   C1A60663   2.190  22.695   6.095
 4745POPC   D2A60664   2.402  22.732   6.507
 4745POPC   C3A60665   2.128  22.871   6.854
 4745POPC   C4A60666   2.223  22.774   7.270
 4745POPC   C1B60667   1.728  22.961   6.311
 4745POPC   C2B60668   1.915  23.304   6.551
 4745POPC   C3B60669   2.029  23.389   6.975
 4745POPC   C4B60670   1.891  23.134   7.306
 4746POPC   NC360671  40.743  41.120   5.496
 4746POPC   PO460672  40.780  41.779   5.624
 4746POPC   GL160673  40.895  41.418   5.933
 4746POPC   GL260674  40.582  41.263   5.985
 4746POPC   C1A60675  40.833  41.395   6.416
 4746POPC   D2A60676  40.578  41.584   6.760
 4746POPC   C3A60677  40.692  41.606   7.204
 4746POPC   C4A60678  41.015  41.842   7.427
 4746POPC   C1B60679  40.349  41.218   6.373
 4746POPC   C2B60680  40.346  41.137   6.816
 4746POPC   C3B60681  40.222  41.412   7.121
 4746POPC   C4B60682  40.169  41.720   7.458
 4747POPC   NC360683  36.055   8.225   5.460
 4747POPC   PO460684  36.313   8.784   5.508
 4747POPC   GL160685  36.262   8.510   5.882
 4747POPC   GL260686  36.270   8.123   5.903
 4747POPC   C1A60687  36.188   8.384   6.331
 4747POPC   D2A60688  35.921   8.127   6.599
 4747POPC   C3A60689  36.045   8.118   7.014
 4747POPC   C4A60690  36.173   8.461   7.267
 4747POPC   C1B60691  36.139   7.841   6.232
 4747POPC   C2B60692  36.255   7.697   6.654
 4747POPC   C3B60693  36.450   7.792   7.057
 4747POPC   C4B60694  36.243   7.938   7.451
 4748POPC   NC360695  30.920   0.704   5.624
 4748POPC   PO460696  30.315   0.317   5.553
 4748POPC   GL160697  30.492   0.561   5.861
 4748POPC   GL260698  30.717   0.326   5.959
 4748POPC   C1A60699  30.469   0.699   6.277
 4748POPC   D2A60700  30.528   0.424   6.609
 4748POPC   C3A60701  30.558   0.579   7.013
 4748POPC   C4A60702  30.740   0.245   7.203
 4748POPC   C1B60703  30.962   0.509   6.302
 4748POPC   C2B60704  30.926   0.759   6.691
 4748POPC   C3B60705  31.105   0.588   7.092
 4748POPC   C4B60706  31.234   0.270   7.415
 4749POPC   NC360707  42.276  15.994   5.315
 4749POPC   PO460708  42.740  15.709   5.597
 4749POPC   GL160709  42.465  15.947   5.847
 4749POPC   GL260710  42.093  16.053   5.787
 4749POPC   C1A60711  42.457  15.894   6.278
 4749POPC   D2A60712  42.246  16.098   6.591
 4749POPC   C3A60713  42.398  15.874   6.909
 4749POPC   C4A60714  42.558  16.129   7.191
 4749POPC   C1B60715  41.950  15.776   6.125
 4749POPC   C2B60716  42.030  15.639   6.546
 4749POPC   C3B60717  41.910  15.711   6.938
 4749POPC   C4B60718  42.135  15.674   7.304
 4750POPC   NC360719  33.569  15.538   5.549
 4750POPC   PO460720  33.858  14.935   5.531
 4750POPC   GL160721  33.680  15.117   5.884
 4750POPC   GL260722  33.879  15.425   5.951
 4750POPC   C1A60723  33.486  15.278   6.251
 4750POPC   D2A60724  33.546  15.338   6.675
 4750POPC   C3A60725  33.765  14.997   6.867
 4750POPC   C4A60726  33.703  15.075   7.280
 4750POPC   C1B60727  34.000  15.166   6.312
 4750POPC   C2B60728  34.191  15.265   6.707
 4750POPC   C3B60729  34.073  15.361   7.111
 4750POPC   C4B60730  34.178  15.137   7.472
 4751POPC   NC360731  11.817  17.497   5.467
 4751POPC   PO460732  12.408  17.105   5.418
 4751POPC   GL160733  12.317  17.379   5.800
 4751POPC   GL260734  11.951  17.322   5.934
 4751POPC   C1A60735  12.275  17.593   6.210
 4751POPC   D2A60736  12.005  17.472   6.544
 4751POPC   C3A60737  12.326  17.429   6.847
 4751POPC   C4A60738  12.349  17.479   7.275
 4751POPC   C1B60739  11.776  17.023   6.260
 4751POPC   C2B60740  11.672  17.070   6.719
 4751POPC   C3B60741  11.947  17.180   7.084
 4751POPC   C4B60742  11.974  17.211   7.547
 4752POPC   NC360743   7.901   9.569   5.501
 4752POPC   PO460744   7.413   9.973   5.260
 4752POPC   GL160745   7.446   9.800   5.698
 4752POPC   GL260746   7.436   9.439   5.710
 4752POPC   C1A60747   7.680   9.784   6.104
 4752POPC   D2A60748   7.667  10.019   6.506
 4752POPC   C3A60749   7.397   9.843   6.882
 4752POPC   C4A60750   7.585   9.827   7.281
 4752POPC   C1B60751   7.399   9.367   6.142
 4752POPC   C2B60752   7.536   9.514   6.535
 4752POPC   C3B60753   7.714   9.434   6.954
 4752POPC   C4B60754   7.538   9.307   7.344
 4753POPC   NC360755  13.863  19.408   5.494
 4753POPC   PO460756  13.318  18.889   5.501
 4753POPC   GL160757  13.642  19.023   5.761
 4753POPC   GL260758  13.471  19.332   5.851
 4753POPC   C1A60759  13.831  19.042   6.164
 4753POPC   D2A60760  13.603  19.088   6.547
 4753POPC   C3A60761  13.648  18.964   6.963
 4753POPC   C4A60762  13.816  18.962   7.383
 4753POPC   C1B60763  13.257  19.335   6.249
 4753POPC   C2B60764  13.127  19.312   6.693
 4753POPC   C3B60765  13.275  19.358   7.125
 4753POPC   C4B60766  13.167  19.406   7.591
 4754POPC   NC360767  16.639  35.101   5.279
 4754POPC   PO460768  16.791  35.711   5.435
 4754POPC   GL160769  16.774  35.351   5.739
 4754POPC   GL260770  16.530  35.050   5.768
 4754POPC   C1A60771  16.927  35.345   6.183
 4754POPC   D2A60772  17.150  35.356   6.589
 4754POPC   C3A60773  16.933  35.474   6.989
 4754POPC   C4A60774  16.813  35.478   7.443
 4754POPC   C1B60775  16.572  34.965   6.194
 4754POPC   C2B60776  16.613  35.242   6.585
 4754POPC   C3B60777  16.495  35.221   7.018
 4754POPC   C4B60778  16.656  35.003   7.391
 4755POPC   NC360779  29.711   8.966   5.253
 4755POPC   PO460780  30.117   8.576   5.510
 4755POPC   GL160781  29.913   8.909   5.756
 4755POPC   GL260782  30.099   9.246   5.790
 4755POPC   C1A60783  29.702   9.018   6.170
 4755POPC   D2A60784  29.848   9.133   6.604
 4755POPC   C3A60785  29.771   8.876   6.963
 4755POPC   C4A60786  29.584   8.478   7.052
 4755POPC   C1B60787  30.216   8.985   6.180
 4755POPC   C2B60788  30.313   8.789   6.562
 4755POPC   C3B60789  30.282   8.979   6.971
 4755POPC   C4B60790  29.990   9.317   7.095
 4756POPC   NC360791   5.675  32.231   5.487
 4756POPC   PO460792   6.340  32.197   5.589
 4756POPC   GL160793   5.979  32.221   5.910
 4756POPC   GL260794   5.657  32.005   5.938
 4756POPC   C1A60795   5.932  32.082   6.355
 4756POPC   D2A60796   5.850  31.960   6.792
 4756POPC   C3A60797   6.130  32.123   7.094
 4756POPC   C4A60798   6.029  32.201   7.548
 4756POPC   C1B60799   5.504  32.359   6.231
 4756POPC   C2B60800   5.586  32.447   6.683
 4756POPC   C3B60801   5.680  32.365   7.131
 4756POPC   C4B60802   5.588  32.426   7.599
 4757POPC   NC360803  17.027  20.187   5.469
 4757POPC   PO460804  16.516  19.822   5.371
 4757POPC   GL160805  16.769  19.771   5.756
 4757POPC   GL260806  16.441  19.639   5.879
 4757POPC   C1A60807  17.041  19.987   6.110
 4757POPC   D2A60808  17.171  20.027   6.572
 4757POPC   C3A60809  16.802  20.035   6.862
 4757POPC   C4A60810  16.553  20.242   7.180
 4757POPC   C1B60811  16.658  19.607   6.274
 4757POPC   C2B60812  16.432  19.752   6.639
 4757POPC   C3B60813  16.359  19.778   7.080
 4757POPC   C4B60814  16.654  19.732   7.406
 4758POPC   NC360815  26.856  39.516   5.386
 4758POPC   PO460816  27.165  38.952   5.307
 4758POPC   GL160817  27.104  39.158   5.710
 4758POPC   GL260818  26.758  39.177   5.767
 4758POPC   C1A60819  27.050  39.163   6.183
 4758POPC   D2A60820  27.001  39.341   6.591
 4758POPC   C3A60821  26.997  39.065   6.937
 4758POPC   C4A60822  27.104  39.079   7.357
 4758POPC   C1B60823  26.680  39.512   6.111
 4758POPC   C2B60824  26.520  39.531   6.545
 4758POPC   C3B60825  26.616  39.424   6.956
 4758POPC   C4B60826  26.471  39.051   7.200
 4759POPC   NC360827  42.857  16.153   5.547
 4759POPC   PO460828  43.539  15.910   5.451
 4759POPC   GL160829  43.302  16.024   5.809
 4759POPC   GL260830  43.026  15.899   5.957
 4759POPC   C1A60831  43.409  16.153   6.229
 4759POPC   D2A60832  43.290  16.355   6.627
 4759POPC   C3A60833  43.424  16.139   6.983
 4759POPC   C4A60834  43.227  15.992   7.310
 4759POPC   C1B60835  42.892  16.243   6.224
 4759POPC   C2B60836  42.776  16.207   6.653
 4759POPC   C3B60837  42.926  15.884   6.912
 4759POPC   C4B60838  42.804  15.663   7.259
 4760POPC   NC360839   4.111  21.350   5.358
 4760POPC   PO460840   4.635  20.953   5.414
 4760POPC   GL160841   4.409  21.229   5.762
 4760POPC   GL260842   4.212  21.577   5.805
 4760POPC   C1A60843   4.274  21.257   6.197
 4760POPC   D2A60844   4.498  21.481   6.518
 4760POPC   C3A60845   4.445  21.276   6.913
 4760POPC   C4A60846   4.644  21.373   7.293
 4760POPC   C1B60847   4.121  21.765   6.239
 4760POPC   C2B60848   4.025  21.632   6.680
 4760POPC   C3B60849   4.021  21.614   7.145
 4760POPC   C4B60850   3.901  21.707   7.564
 4761POPC   NC360851  19.373  11.147   5.436
 4761POPC   PO460852  18.762  11.040   5.454
 4761POPC   GL160853  18.902  11.297   5.845
 4761POPC   GL260854  19.241  11.326   5.920
 4761POPC   C1A60855  18.943  11.131   6.304
 4761POPC   D2A60856  19.172  10.980   6.687
 4761POPC   C3A60857  19.004  11.043   7.094
 4761POPC   C4A60858  19.268  11.218   7.397
 4761POPC   C1B60859  19.075  11.624   6.229
 4761POPC   C2B60860  18.970  11.530   6.658
 4761POPC   C3B60861  19.108  11.571   7.066
 4761POPC   C4B60862  19.035  11.612   7.590
 4762POPC   NC360863  41.823  23.778   5.174
 4762POPC   PO460864  42.249  23.891   5.634
 4762POPC   GL160865  42.134  23.559   5.856
 4762POPC   GL260866  42.464  23.418   5.984
 4762POPC   C1A60867  42.116  23.612   6.290
 4762POPC   D2A60868  42.130  23.390   6.642
 4762POPC   C3A60869  42.051  23.741   6.899
 4762POPC   C4A60870  42.190  23.884   7.284
 4762POPC   C1B60871  42.636  23.799   6.170
 4762POPC   C2B60872  42.841  23.836   6.546
 4762POPC   C3B60873  42.594  23.853   6.894
 4762POPC   C4B60874  42.726  23.861   7.277
 4763POPC   NC360875   2.742  30.142   5.502
 4763POPC   PO460876   2.640  30.862   5.408
 4763POPC   GL160877   2.759  30.590   5.728
 4763POPC   GL260878   2.451  30.434   5.875
 4763POPC   C1A60879   2.896  30.677   6.136
 4763POPC   D2A60880   2.845  31.022   6.445
 4763POPC   C3A60881   2.878  30.901   6.881
 4763POPC   C4A60882   2.659  30.773   7.260
 4763POPC   C1B60883   2.516  30.349   6.280
 4763POPC   C2B60884   2.564  30.564   6.616
 4763POPC   C3B60885   2.689  30.387   6.953
 4763POPC   C4B60886   2.443  30.295   7.317
 4764POPC   NC360887  15.962   3.289   5.390
 4764POPC   PO460888  15.819   4.032   5.323
 4764POPC   GL160889  15.808   3.713   5.682
 4764POPC   GL260890  16.118   3.540   5.795
 4764POPC   C1A60891  15.738   3.504   6.112
 4764POPC   D2A60892  15.897   3.304   6.497
 4764POPC   C3A60893  15.855   3.505   6.904
 4764POPC   C4A60894  15.908   3.359   7.316
 4764POPC   C1B60895  16.295   3.773   6.145
 4764POPC   C2B60896  16.482   3.675   6.537
 4764POPC   C3B60897  16.370   3.536   6.961
 4764POPC   C4B60898  16.233   3.810   7.275
 4765POPC   NC360899  42.390   9.613   5.457
 4765POPC   PO460900  42.994   9.536   5.310
 4765POPC   GL160901  42.639   9.558   5.868
 4765POPC   GL260902  42.353   9.906   5.899
 4765POPC   C1A60903  42.168   9.528   6.128
 4765POPC   D2A60904  41.896   9.833   6.403
 4765POPC   C3A60905  41.978   9.899   6.873
 4765POPC   C4A60906  42.295   9.707   7.147
 4765POPC   C1B60907  42.513   9.855   6.309
 4765POPC   C2B60908  42.489   9.954   6.719
 4765POPC   C3B60909  42.742   9.942   7.054
 4765POPC   C4B60910  42.637   9.921   7.479
 4766POPC   NC360911   8.714  32.678   5.561
 4766POPC   PO460912   8.161  33.048   5.340
 4766POPC   GL160913   8.149  32.895   5.783
 4766POPC   GL260914   8.487  32.954   5.929
 4766POPC   C1A60915   8.124  32.882   6.266
 4766POPC   D2A60916   8.177  33.116   6.663
 4766POPC   C3A60917   7.923  32.859   6.936
 4766POPC   C4A60918   8.198  32.717   7.230
 4766POPC   C1B60919   8.633  33.075   6.363
 4766POPC   C2B60920   8.697  33.130   6.841
 4766POPC   C3B60921   8.517  33.112   7.282
 4766POPC   C4B60922   8.646  33.180   7.708
 4767POPC   NC360923   7.492   5.974   5.387
 4767POPC   PO460924   8.100   5.936   5.538
 4767POPC   GL160925   7.723   5.924   5.851
 4767POPC   GL260926   7.423   5.669   5.826
 4767POPC   C1A60927   7.380   6.048   6.170
 4767POPC   D2A60928   7.148   5.984   6.579
 4767POPC   C3A60929   7.430   5.966   6.945
 4767POPC   C4A60930   7.527   6.117   7.346
 4767POPC   C1B60931   7.041   5.649   6.142
 4767POPC   C2B60932   7.000   5.476   6.594
 4767POPC   C3B60933   7.016   5.698   7.017
 4767POPC   C4B60934   7.101   5.819   7.487
 4768POPC   NC360935   2.200  24.074   5.524
 4768POPC   PO460936   1.623  24.499   5.312
 4768POPC   GL160937   1.897  24.470   5.670
 4768POPC   GL260938   1.732  24.206   5.839
 4768POPC   C1A60939   2.119  24.387   6.097
 4768POPC   D2A60940   1.866  24.231   6.464
 4768POPC   C3A60941   1.965  24.429   6.842
 4768POPC   C4A60942   2.127  24.372   7.240
 4768POPC   C1B60943   1.671  24.624   6.119
 4768POPC   C2B60944   1.427  24.713   6.505
 4768POPC   C3B60945   1.519  24.655   6.951
 4768POPC   C4B60946   1.614  24.560   7.377
 4769POPC   NC360947   8.610  40.555   5.023
 4769POPC   PO460948   8.717  41.084   5.398
 4769POPC   GL160949   9.025  40.880   5.702
 4769POPC   GL260950   8.835  41.034   5.921
 4769POPC   C1A60951   9.116  40.637   6.135
 4769POPC   D2A60952   8.959  40.533   6.571
 4769POPC   C3A60953   9.215  40.518   6.947
 4769POPC   C4A60954   9.034  40.578   7.347
 4769POPC   C1B60955   8.928  41.073   6.331
 4769POPC   C2B60956   8.647  40.949   6.624
 4769POPC   C3B60957   8.879  40.901   6.975
 4769POPC   C4B60958   9.137  41.101   7.314
 4770POPC   NC360959  31.805  41.138   4.982
 4770POPC   PO460960  31.326  40.675   5.142
 4770POPC   GL160961  31.392  40.746   5.642
 4770POPC   GL260962  31.241  41.060   5.806
 4770POPC   C1A60963  31.575  40.753   6.095
 4770POPC   D2A60964  31.688  40.915   6.542
 4770POPC   C3A60965  31.751  40.663   6.951
 4770POPC   C4A60966  31.614  40.624   7.397
 4770POPC   C1B60967  31.114  40.913   6.240
 4770POPC   C2B60968  31.201  41.006   6.651
 4770POPC   C3B60969  31.269  40.848   7.061
 4770POPC   C4B60970  31.161  41.130   7.384
 4771POPC   NC360971  21.880  44.802   5.437
 4771POPC   PO460972  21.929  44.159   5.640
 4771POPC   GL160973  21.977  44.519   5.876
 4771POPC   GL260974  22.254  44.760   5.810
 4771POPC   C1A60975  21.972  44.638   6.298
 4771POPC   D2A60976  21.736  44.877   6.579
 4771POPC   C3A60977  21.833  44.729   7.000
 4771POPC   C4A60978  21.962  44.884   7.409
 4771POPC   C1B60979  22.483  44.800   6.204
 4771POPC   C2B60980  22.386  44.557   6.612
 4771POPC   C3B60981  22.342  44.664   7.029
 4771POPC   C4B60982  22.573   0.002   7.183
 4772POPC   NC360983   0.465  34.878   5.444
 4772POPC   PO460984   0.439  35.523   5.139
 4772POPC   GL160985   0.482  35.395   5.630
 4772POPC   GL260986   0.151  35.290   5.793
 4772POPC   C1A60987   0.649  35.321   6.106
 4772POPC   D2A60988   0.913  35.157   6.473
 4772POPC   C3A60989   0.727  35.177   6.920
 4772POPC   C4A60990   0.613  35.455   7.298
 4772POPC   C1B60991   0.192  35.502   6.203
 4772POPC   C2B60992   0.396  35.450   6.616
 4772POPC   C3B60993   0.201  35.395   7.029
 4772POPC   C4B60994   0.081  35.653   7.404
 4773POPC   NC360995   0.005  41.642   5.653
 4773POPC   PO460996  44.626  41.091   5.352
 4773POPC   GL160997  44.501  41.200   5.798
 4773POPC   GL260998  44.553  41.562   5.904
 4773POPC   C1A60999  44.736  41.201   6.202
 4773POPC   D2A61000  44.988  41.380   6.531
 4773POPC   C3A61001  44.816  41.183   6.888
 4773POPC   C4A61002  44.679  41.289   7.281
 4773POPC   C1B61003  44.366  41.890   6.167
 4773POPC   C2B61004  44.577  41.901   6.545
 4773POPC   C3B61005  44.783  41.720   6.882
 4773POPC   C4B61006  44.657  41.785   7.276
 4774POPC   NC361007  13.982  36.063   5.417
 4774POPC   PO461008  13.308  36.235   5.327
 4774POPC   GL161009  13.374  36.346   5.767
 4774POPC   GL261010  13.689  36.193   5.826
 4774POPC   C1A61011  13.342  36.189   6.207
 4774POPC   D2A61012  13.163  36.267   6.613
 4774POPC   C3A61013  13.334  36.099   7.017
 4774POPC   C4A61014  13.577  36.027   7.411
 4774POPC   C1B61015  13.797  36.424   6.204
 4774POPC   C2B61016  13.686  36.310   6.636
 4774POPC   C3B61017  13.813  36.346   7.068
 4774POPC   C4B61018  13.681  36.502   7.474
 4775POPC   NC361019   5.922  13.828   5.275
 4775POPC   PO461020   5.537  13.432   5.695
 4775POPC   GL161021   5.688  13.685   6.029
 4775POPC   GL261022   5.925  13.959   5.867
 4775POPC   C1A61023   5.910  13.463   6.383
 4775POPC   D2A61024   5.987  13.436   6.821
 4775POPC   C3A61025   5.695  13.612   7.131
 4775POPC   C4A61026   5.556  13.821   7.513
 4775POPC   C1B61027   6.032  13.953   6.300
 4775POPC   C2B61028   5.829  13.945   6.697
 4775POPC   C3B61029   6.116  13.883   7.012
 4775POPC   C4B61030   6.141  13.925   7.404
 4776POPC   NC361031  40.670  14.882   5.553
 4776POPC   PO461032  40.951  14.215   5.467
 4776POPC   GL161033  40.748  14.471   5.830
 4776POPC   GL261034  40.992  14.815   5.919
 4776POPC   C1A61035  40.859  14.421   6.269
 4776POPC   D2A61036  40.615  14.327   6.624
 4776POPC   C3A61037  40.826  14.373   7.011
 4776POPC   C4A61038  40.552  14.136   7.292
 4776POPC   C1B61039  40.766  14.928   6.277
 4776POPC   C2B61040  40.744  14.808   6.713
 4776POPC   C3B61041  40.487  14.710   7.088
 4776POPC   C4B61042  40.591  14.590   7.531
 4777POPC   NC361043  41.976   2.028   5.398
 4777POPC   PO461044  42.495   1.701   5.564
 4777POPC   GL161045  42.290   2.032   5.800
 4777POPC   GL261046  42.146   1.767   5.987
 4777POPC   C1A61047  41.989   2.223   6.129
 4777POPC   D2A61048  41.962   1.975   6.505
 4777POPC   C3A61049  41.998   2.134   6.918
 4777POPC   C4A61050  42.348   2.339   7.071
 4777POPC   C1B61051  42.470   1.796   6.289
 4777POPC   C2B61052  42.453   1.899   6.730
 4777POPC   C3B61053  42.555   1.846   7.160
 4777POPC   C4B61054  42.672   2.202   7.431
 4778POPC   NC361055  33.552  19.318   5.622
 4778POPC   PO461056  33.947  18.845   5.370
 4778POPC   GL161057  33.898  18.979   5.805
 4778POPC   GL261058  33.799  18.635   5.850
 4778POPC   C1A61059  33.968  19.265   6.233
 4778POPC   D2A61060  33.972  19.210   6.731
 4778POPC   C3A61061  33.631  18.981   6.985
 4778POPC   C4A61062  33.534  18.938   7.463
 4778POPC   C1B61063  34.028  18.749   6.244
 4778POPC   C2B61064  34.223  18.777   6.655
 4778POPC   C3B61065  34.090  18.725   7.056
 4778POPC   C4B61066  33.725  18.527   7.240
 4779POPC   NC361067  10.788  44.609   5.430
 4779POPC   PO461068  10.288  44.295   5.557
 4779POPC   GL161069  10.470  44.655   5.837
 4779POPC   GL261070  10.793  44.887   5.851
 4779POPC   C1A61071  10.566  44.694   6.289
 4779POPC   D2A61072  10.748  44.460   6.627
 4779POPC   C3A61073  10.514  44.347   7.027
 4779POPC   C4A61074  10.403  44.473   7.467
 4779POPC   C1B61075  11.029  44.998   6.223
 4779POPC   C2B61076  10.869   0.051   6.632
 4779POPC   C3B61077  10.800  44.804   7.002
 4779POPC   C4B61078  10.710  44.870   7.401
 4780POPC   NC361079   5.152  28.004   5.444
 4780POPC   PO461080   4.869  28.530   5.586
 4780POPC   GL161081   5.284  28.400   5.774
 4780POPC   GL261082   5.440  28.093   5.881
 4780POPC   C1A61083   5.178  28.382   6.205
 4780POPC   D2A61084   4.943  28.175   6.514
 4780POPC   C3A61085   4.908  28.505   6.796
 4780POPC   C4A61086   4.889  28.542   7.214
 4780POPC   C1B61087   5.656  28.239   6.284
 4780POPC   C2B61088   5.402  28.333   6.667
 4780POPC   C3B61089   5.348  28.321   7.105
 4780POPC   C4B61090   5.599  28.471   7.449
 4781POPC   NC361091  37.087  33.601   5.566
 4781POPC   PO461092  36.833  32.976   5.441
 4781POPC   GL161093  36.790  33.063   5.833
 4781POPC   GL261094  37.121  33.174   5.837
 4781POPC   C1A61095  36.869  33.050   6.247
 4781POPC   D2A61096  37.030  32.790   6.513
 4781POPC   C3A61097  36.815  32.988   6.841
 4781POPC   C4A61098  36.864  33.065   7.237
 4781POPC   C1B61099  37.212  33.447   6.192
 4781POPC   C2B61100  37.164  33.288   6.586
 4781POPC   C3B61101  37.163  33.396   6.971
 4781POPC   C4B61102  37.367  33.232   7.294
 4782POPC   NC361103  37.766  42.767   5.437
 4782POPC   PO461104  37.781  42.131   5.370
 4782POPC   GL161105  37.597  42.336   5.747
 4782POPC   GL261106  37.522  42.656   5.905
 4782POPC   C1A61107  37.677  42.197   6.152
 4782POPC   D2A61108  37.586  42.241   6.573
 4782POPC   C3A61109  37.852  42.132   6.887
 4782POPC   C4A61110  37.742  42.150   7.268
 4782POPC   C1B61111  37.606  42.700   6.364
 4782POPC   C2B61112  37.857  42.661   6.747
 4782POPC   C3B61113  37.919  42.630   7.204
 4782POPC   C4B61114  37.566  42.570   7.500
 4783POPC   NC361115  34.472  17.915   5.354
 4783POPC   PO461116  34.751  17.311   5.436
 4783POPC   GL161117  34.721  17.530   5.782
 4783POPC   GL261118  34.364  17.561   5.725
 4783POPC   C1A61119  34.844  17.484   6.224
 4783POPC   D2A61120  34.948  17.216   6.591
 4783POPC   C3A61121  34.751  17.380   6.954
 4783POPC   C4A61122  34.837  17.833   7.102
 4783POPC   C1B61123  34.369  17.305   6.103
 4783POPC   C2B61124  34.432  17.412   6.527
 4783POPC   C3B61125  34.477  17.775   6.757
 4783POPC   C4B61126  34.295  17.731   7.171
 4784POPC   NC361127  32.529   2.506   5.264
 4784POPC   PO461128  31.891   2.563   5.463
 4784POPC   GL161129  32.171   2.774   5.654
 4784POPC   GL261130  32.321   2.473   5.753
 4784POPC   C1A61131  32.200   2.846   6.108
 4784POPC   D2A61132  32.401   3.034   6.477
 4784POPC   C3A61133  32.355   2.876   6.889
 4784POPC   C4A61134  32.121   3.014   7.269
 4784POPC   C1B61135  32.137   2.313   6.133
 4784POPC   C2B61136  32.166   2.479   6.520
 4784POPC   C3B61137  31.973   2.432   6.896
 4784POPC   C4B61138  32.208   2.524   7.237
 4785POPC   NC361139  19.088  40.375   5.600
 4785POPC   PO461140  19.200  41.071   5.477
 4785POPC   GL161141  19.236  40.820   5.814
 4785POPC   GL261142  18.889  40.810   5.842
 4785POPC   C1A61143  19.254  40.594   6.222
 4785POPC   D2A61144  19.055  40.439   6.610
 4785POPC   C3A61145  19.203  40.635   6.976
 4785POPC   C4A61146  19.345  40.510   7.363
 4785POPC   C1B61147  18.747  40.664   6.233
 4785POPC   C2B61148  18.536  40.713   6.598
 4785POPC   C3B61149  18.712  40.763   6.965
 4785POPC   C4B61150  18.884  40.796   7.366
 4786POPC   NC361151  25.508  34.841   5.526
 4786POPC   PO461152  24.961  34.300   5.495
 4786POPC   GL161153  25.181  34.529   5.810
 4786POPC   GL261154  25.498  34.352   5.744
 4786POPC   C1A61155  25.169  34.769   6.218
 4786POPC   D2A61156  25.267  34.576   6.639
 4786POPC   C3A61157  25.065  34.682   7.033
 4786POPC   C4A61158  25.125  34.931   7.424
 4786POPC   C1B61159  25.449  34.333   6.209
 4786POPC   C2B61160  25.731  34.353   6.574
 4786POPC   C3B61161  25.663  34.495   6.988
 4786POPC   C4B61162  25.438  34.547   7.344
 4787POPC   NC361163  30.308  26.245   5.138
 4787POPC   PO461164  30.882  26.034   5.247
 4787POPC   GL161165  30.807  26.045   5.729
 4787POPC   GL261166  30.625  26.317   5.907
 4787POPC   C1A61167  30.615  25.874   6.148
 4787POPC   D2A61168  30.760  25.961   6.566
 4787POPC   C3A61169  30.548  25.911   6.926
 4787POPC   C4A61170  30.722  26.018   7.277
 4787POPC   C1B61171  30.605  26.390   6.361
 4787POPC   C2B61172  30.333  26.330   6.748
 4787POPC   C3B61173  30.420  26.431   7.207
 4787POPC   C4B61174  30.377  26.393   7.691
 4788POPC   NC361175  26.100  25.985   5.220
 4788POPC   PO461176  26.028  25.362   5.406
 4788POPC   GL161177  26.173  25.292   5.791
 4788POPC   GL261178  25.984  25.584   5.874
 4788POPC   C1A61179  26.086  25.170   6.207
 4788POPC   D2A61180  25.994  25.273   6.629
 4788POPC   C3A61181  26.237  25.133   6.981
 4788POPC   C4A61182  26.281  25.269   7.396
 4788POPC   C1B61183  25.728  25.587   6.232
 4788POPC   C2B61184  25.790  25.739   6.655
 4788POPC   C3B61185  25.958  25.575   7.063
 4788POPC   C4B61186  25.799  25.184   7.287
 4789POPC   NC361187  32.190   8.638   5.494
 4789POPC   PO461188  32.400   9.270   5.378
 4789POPC   GL161189  32.540   9.018   5.827
 4789POPC   GL261190  32.420   8.653   5.933
 4789POPC   C1A61191  32.479   8.946   6.336
 4789POPC   D2A61192  32.119   8.920   6.644
 4789POPC   C3A61193  32.164   9.072   7.083
 4789POPC   C4A61194  32.380   8.982   7.486
 4789POPC   C1B61195  32.144   8.545   6.263
 4789POPC   C2B61196  32.449   8.476   6.575
 4789POPC   C3B61197  32.497   8.710   6.911
 4789POPC   C4B61198  32.178   8.553   7.141
 4790POPC   NC361199   9.929  11.926   5.497
 4790POPC   PO461200   9.344  12.331   5.496
 4790POPC   GL161201   9.542  12.366   5.900
 4790POPC   GL261202   9.878  12.197   5.928
 4790POPC   C1A61203   9.601  12.266   6.349
 4790POPC   D2A61204   9.786  11.934   6.645
 4790POPC   C3A61205   9.918  12.120   7.048
 4790POPC   C4A61206   9.624  12.396   7.234
 4790POPC   C1B61207  10.088  11.893   6.210
 4790POPC   C2B61208  10.226  11.653   6.585
 4790POPC   C3B61209  10.089  11.639   7.024
 4790POPC   C4B61210  10.183  11.854   7.403
 4791POPC   NC361211  18.877  38.645   5.488
 4791POPC   PO461212  19.328  38.074   5.663
 4791POPC   GL161213  19.144  38.410   5.861
 4791POPC   GL261214  18.773  38.320   5.891
 4791POPC   C1A61215  19.140  38.471   6.288
 4791POPC   D2A61216  19.105  38.295   6.683
 4791POPC   C3A61217  19.201  38.468   7.073
 4791POPC   C4A61218  18.897  38.202   7.234
 4791POPC   C1B61219  18.701  38.699   6.160
 4791POPC   C2B61220  18.871  38.774   6.581
 4791POPC   C3B61221  18.738  38.621   6.938
 4791POPC   C4B61222  18.565  38.548   7.366
 4792POPC   NC361223   2.219  13.656   5.213
 4792POPC   PO461224   1.532  13.870   5.383
 4792POPC   GL161225   1.788  13.706   5.800
 4792POPC   GL261226   1.895  14.001   5.763
 4792POPC   C1A61227   1.962  13.458   6.207
 4792POPC   D2A61228   2.156  13.317   6.634
 4792POPC   C3A61229   2.180  13.486   7.061
 4792POPC   C4A61230   1.722  13.480   7.142
 4792POPC   C1B61231   1.712  14.002   6.202
 4792POPC   C2B61232   1.841  13.788   6.578
 4792POPC   C3B61233   1.937  13.918   6.960
 4792POPC   C4B61234   1.931  14.316   7.094
 4793POPC   NC361235  25.222  38.136   5.539
 4793POPC   PO461236  25.370  37.486   5.182
 4793POPC   GL161237  25.318  37.635   5.627
 4793POPC   GL261238  24.950  37.627   5.727
 4793POPC   C1A61239  25.324  37.685   6.112
 4793POPC   D2A61240  25.285  37.915   6.522
 4793POPC   C3A61241  25.338  37.747   6.946
 4793POPC   C4A61242  25.435  37.792   7.377
 4793POPC   C1B61243  24.829  37.804   6.158
 4793POPC   C2B61244  24.880  37.622   6.579
 4793POPC   C3B61245  24.829  37.730   7.005
 4793POPC   C4B61246  25.052  37.478   7.311
 4794POPC   NC361247  18.672  11.537   5.443
 4794POPC   PO461248  18.089  11.117   5.366
 4794POPC   GL161249  18.114  11.356   5.770
 4794POPC   GL261250  18.414  11.423   5.869
 4794POPC   C1A61251  18.002  11.317   6.215
 4794POPC   D2A61252  18.146  11.313   6.605
 4794POPC   C3A61253  17.918  11.423   6.959
 4794POPC   C4A61254  17.945  11.247   7.376
 4794POPC   C1B61255  18.590  11.513   6.247
 4794POPC   C2B61256  18.481  11.684   6.627
 4794POPC   C3B61257  18.541  11.356   6.918
 4794POPC   C4B61258  18.687  11.443   7.273
 4795POPC   NC361259  21.990  16.828   5.447
 4795POPC   PO461260  22.384  16.376   5.710
 4795POPC   GL161261  22.227  16.787   5.907
 4795POPC   GL261262  21.949  17.056   5.887
 4795POPC   C1A61263  22.199  16.899   6.319
 4795POPC   D2A61264  22.053  16.679   6.673
 4795POPC   C3A61265  22.285  16.649   7.046
 4795POPC   C4A61266  22.061  16.566   7.393
 4795POPC   C1B61267  21.769  17.178   6.279
 4795POPC   C2B61268  21.985  17.189   6.680
 4795POPC   C3B61269  22.095  17.123   7.090
 4795POPC   C4B61270  22.220  17.019   7.498
 4796POPC   NC361271  43.992  10.941   5.082
 4796POPC   PO461272  43.906  10.378   5.452
 4796POPC   GL161273  43.947  10.507   5.850
 4796POPC   GL261274  44.033  10.823   5.767
 4796POPC   C1A61275  43.759  10.598   6.252
 4796POPC   D2A61276  43.924  10.374   6.602
 4796POPC   C3A61277  43.724  10.445   6.987
 4796POPC   C4A61278  43.576  10.165   7.282
 4796POPC   C1B61279  44.161  10.893   6.210
 4796POPC   C2B61280  44.138  10.825   6.677
 4796POPC   C3B61281  44.197  11.021   7.095
 4796POPC   C4B61282  44.113  10.829   7.505
 4797POPC   NC361283  14.631  44.579   5.542
 4797POPC   PO461284  14.141   0.041   5.573
 4797POPC   GL161285  14.027  44.682   5.855
 4797POPC   GL261286  14.315  44.408   5.904
 4797POPC   C1A61287  14.012  44.603   6.297
 4797POPC   D2A61288  14.323  44.465   6.611
 4797POPC   C3A61289  14.175  44.523   7.042
 4797POPC   C4A61290  14.259  44.836   7.339
 4797POPC   C1B61291  14.497  44.732   6.180
 4797POPC   C2B61292  14.560  44.935   6.568
 4797POPC   C3B61293  14.614  44.787   6.960
 4797POPC   C4B61294  14.702  44.566   7.306
 4798POPC   NC361295  32.783  10.862   5.571
 4798POPC   PO461296  33.178  11.301   5.175
 4798POPC   GL161297  33.167  11.315   5.685
 4798POPC   GL261298  32.847  11.251   5.884
 4798POPC   C1A61299  33.220  11.426   6.177
 4798POPC   D2A61300  33.014  11.356   6.590
 4798POPC   C3A61301  33.210  11.469   6.997
 4798POPC   C4A61302  33.195  11.421   7.443
 4798POPC   C1B61303  32.592  11.163   6.253
 4798POPC   C2B61304  32.659  10.973   6.646
 4798POPC   C3B61305  32.799  11.148   7.022
 4798POPC   C4B61306  32.895  10.937   7.378
 4799POPC   NC361307   8.934  22.512   5.278
 4799POPC   PO461308   9.186  21.900   5.501
 4799POPC   GL161309   9.043  22.130   5.834
 4799POPC   GL261310   8.756  22.312   5.736
 4799POPC   C1A61311   8.993  22.019   6.263
 4799POPC   D2A61312   9.223  22.002   6.664
 4799POPC   C3A61313   8.931  22.120   6.924
 4799POPC   C4A61314   8.966  22.342   7.282
 4799POPC   C1B61315   8.614  22.383   6.160
 4799POPC   C2B61316   8.593  22.337   6.612
 4799POPC   C3B61317   8.531  22.457   7.059
 4799POPC   C4B61318   8.532  22.376   7.556
 4800POPC   NC361319   6.790  43.806   5.349
 4800POPC   PO461320   6.347  43.495   5.646
 4800POPC   GL161321   6.686  43.754   5.906
 4800POPC   GL261322   6.965  44.028   5.806
 4800POPC   C1A61323   6.810  43.690   6.367
 4800POPC   D2A61324   6.769  43.575   6.793
 4800POPC   C3A61325   6.592  43.854   7.084
 4800POPC   C4A61326   6.924  43.835   7.398
 4800POPC   C1B61327   6.850  44.168   6.239
 4800POPC   C2B61328   6.703  44.180   6.636
 4800POPC   C3B61329   6.929  44.219   7.024
 4800POPC   C4B61330   6.709  44.283   7.398
 4801POPC   NC361331  28.168  11.848   5.498
 4801POPC   PO461332  28.456  12.512   5.431
 4801POPC   GL161333  28.420  12.311   5.814
 4801POPC   GL261334  28.063  12.215   5.858
 4801POPC   C1A61335  28.370  12.365   6.246
 4801POPC   D2A61336  28.379  12.527   6.654
 4801POPC   C3A61337  28.641  12.226   6.870
 4801POPC   C4A61338  28.619  12.075   7.291
 4801POPC   C1B61339  27.989  12.022   6.264
 4801POPC   C2B61340  28.215  12.030   6.621
 4801POPC   C3B61341  28.275  11.861   6.988
 4801POPC   C4B61342  28.190  11.902   7.444
 4802POPC   NC361343  30.867   6.990   5.033
 4802POPC   PO461344  30.725   6.558   5.552
 4802POPC   GL161345  30.696   6.569   5.939
 4802POPC   GL261346  30.910   6.827   6.118
 4802POPC   C1A61347  30.451   6.595   6.256
 4802POPC   D2A61348  30.669   6.720   6.579
 4802POPC   C3A61349  30.449   6.644   6.903
 4802POPC   C4A61350  30.627   6.594   7.263
 4802POPC   C1B61351  31.139   6.489   6.227
 4802POPC   C2B61352  31.006   6.323   6.572
 4802POPC   C3B61353  31.027   6.526   6.941
 4802POPC   C4B61354  31.030   6.328   7.369
 4803POPC   NC361355  44.292  35.242   5.394
 4803POPC   PO461356  43.651  35.570   5.321
 4803POPC   GL161357  43.644  35.356   5.678
 4803POPC   GL261358  43.423  35.514   5.859
 4803POPC   C1A61359  43.775  35.171   6.051
 4803POPC   D2A61360  43.891  35.167   6.481
 4803POPC   C3A61361  43.726  35.303   6.886
 4803POPC   C4A61362  43.823  35.558   7.261
 4803POPC   C1B61363  43.688  35.655   6.159
 4803POPC   C2B61364  43.527  35.613   6.539
 4803POPC   C3B61365  43.564  35.828   6.916
 4803POPC   C4B61366  43.347  35.779   7.284
 4804POPC   NC361367  36.612  31.539   5.347
 4804POPC   PO461368  37.051  30.996   5.374
 4804POPC   GL161369  37.178  31.250   5.791
 4804POPC   GL261370  36.957  31.586   5.822
 4804POPC   C1A61371  37.138  31.398   6.272
 4804POPC   D2A61372  37.304  31.625   6.655
 4804POPC   C3A61373  37.129  31.581   7.056
 4804POPC   C4A61374  36.836  31.247   7.117
 4804POPC   C1B61375  36.660  31.586   6.210
 4804POPC   C2B61376  36.744  31.560   6.680
 4804POPC   C3B61377  36.643  31.725   7.099
 4804POPC   C4B61378  36.765  31.691   7.501
 4805POPC   NC361379  43.829  26.404   5.243
 4805POPC   PO461380  43.928  25.804   5.431
 4805POPC   GL161381  44.214  25.976   5.742
 4805POPC   GL261382  43.945  26.145   5.943
 4805POPC   C1A61383  44.322  25.890   6.191
 4805POPC   D2A61384  44.190  26.123   6.555
 4805POPC   C3A61385  44.114  25.896   6.944
 4805POPC   C4A61386  44.111  25.937   7.386
 4805POPC   C1B61387  43.673  26.105   6.331
 4805POPC   C2B61388  43.486  25.997   6.756
 4805POPC   C3B61389  43.627  25.968   7.199
 4805POPC   C4B61390  43.667  25.720   7.584
 4806POPC   NC361391  43.363  41.298   5.481
 4806POPC   PO461392  42.771  41.643   5.370
 4806POPC   GL161393  43.020  41.551   5.772
 4806POPC   GL261394  43.394  41.598   5.896
 4806POPC   C1A61395  43.026  41.491   6.214
 4806POPC   D2A61396  42.790  41.620   6.563
 4806POPC   C3A61397  43.016  41.721   6.941
 4806POPC   C4A61398  43.031  41.586   7.375
 4806POPC   C1B61399  43.457  41.770   6.351
 4806POPC   C2B61400  43.485  41.942   6.805
 4806POPC   C3B61401  43.422  41.904   7.292
 4806POPC   C4B61402  43.436  41.929   7.779
 4807POPC   NC361403   1.393  39.907   5.483
 4807POPC   PO461404   1.351  40.547   5.596
 4807POPC   GL161405   1.237  40.183   5.898
 4807POPC   GL261406   1.166  39.788   5.930
 4807POPC   C1A61407   1.087  40.088   6.318
 4807POPC   D2A61408   1.294  39.990   6.701
 4807POPC   C3A61409   1.050  40.001   7.052
 4807POPC   C4A61410   0.954  40.261   7.416
 4807POPC   C1B61411   0.752  39.697   6.161
 4807POPC   C2B61412   0.573  39.610   6.570
 4807POPC   C3B61413   0.676  39.523   7.016
 4807POPC   C4B61414   0.774  39.768   7.396
 4808POPC   NC361415   4.724  24.017   5.333
 4808POPC   PO461416   4.214  23.537   5.560
 4808POPC   GL161417   4.479  23.589   5.905
 4808POPC   GL261418   4.487  23.932   5.828
 4808POPC   C1A61419   4.257  23.497   6.298
 4808POPC   D2A61420   3.951  23.838   6.468
 4808POPC   C3A61421   3.983  23.908   6.912
 4808POPC   C4A61422   4.116  23.523   7.089
 4808POPC   C1B61423   4.389  23.987   6.272
 4808POPC   C2B61424   4.452  23.749   6.700
 4808POPC   C3B61425   4.591  23.647   7.132
 4808POPC   C4B61426   4.420  23.921   7.426
 4809POPC   NC361427   1.532  19.048   5.436
 4809POPC   PO461428   2.179  18.786   5.409
 4809POPC   GL161429   1.975  18.980   5.742
 4809POPC   GL261430   1.721  18.749   5.818
 4809POPC   C1A61431   2.097  19.122   6.138
 4809POPC   D2A61432   2.022  19.120   6.585
 4809POPC   C3A61433   2.259  19.246   6.945
 4809POPC   C4A61434   2.041  19.120   7.318
 4809POPC   C1B61435   1.551  18.634   6.201
 4809POPC   C2B61436   1.622  18.809   6.594
 4809POPC   C3B61437   1.811  18.730   6.986
 4809POPC   C4B61438   1.595  18.799   7.377
 4810POPC   NC361439  28.322   6.459   5.654
 4810POPC   PO461440  28.339   5.812   5.339
 4810POPC   GL161441  28.368   5.923   5.758
 4810POPC   GL261442  28.543   5.617   5.846
 4810POPC   C1A61443  28.518   6.117   6.170
 4810POPC   D2A61444  28.540   5.965   6.593
 4810POPC   C3A61445  28.456   5.749   6.977
 4810POPC   C4A61446  28.735   5.435   7.130
 4810POPC   C1B61447  28.258   5.684   6.221
 4810POPC   C2B61448  28.034   5.675   6.623
 4810POPC   C3B61449  27.942   5.901   6.997
 4810POPC   C4B61450  28.121   5.921   7.384
 4811POPC   NC361451  29.034  40.112   5.433
 4811POPC   PO461452  29.599  39.746   5.496
 4811POPC   GL161453  29.478  39.850   5.906
 4811POPC   GL261454  29.276  40.142   5.889
 4811POPC   C1A61455  29.393  39.896   6.348
 4811POPC   D2A61456  29.413  39.632   6.708
 4811POPC   C3A61457  29.321  39.835   7.077
 4811POPC   C4A61458  29.247  40.216   7.302
 4811POPC   C1B61459  29.157  40.334   6.283
 4811POPC   C2B61460  29.086  40.204   6.715
 4811POPC   C3B61461  28.842  39.977   7.001
 4811POPC   C4B61462  28.886  39.735   7.332
 4812POPC   NC361463  34.576   9.256   5.309
 4812POPC   PO461464  34.273   8.585   5.259
 4812POPC   GL161465  34.455   8.818   5.650
 4812POPC   GL261466  34.745   9.032   5.737
 4812POPC   C1A61467  34.410   8.929   6.116
 4812POPC   D2A61468  34.187   8.779   6.495
 4812POPC   C3A61469  34.387   8.831   6.910
 4812POPC   C4A61470  34.481   8.716   7.333
 4812POPC   C1B61471  34.911   8.799   6.120
 4812POPC   C2B61472  34.779   8.833   6.546
 4812POPC   C3B61473  34.920   8.954   6.954
 4812POPC   C4B61474  34.789   9.099   7.353
 4813POPC   NC361475   2.386   8.057   5.561
 4813POPC   PO461476   1.781   8.344   5.340
 4813POPC   GL161477   1.932   8.260   5.771
 4813POPC   GL261478   2.243   8.407   5.885
 4813POPC   C1A61479   1.859   7.985   6.151
 4813POPC   D2A61480   1.629   7.886   6.553
 4813POPC   C3A61481   1.827   8.105   6.882
 4813POPC   C4A61482   1.753   8.393   7.168
 4813POPC   C1B61483   2.362   8.236   6.269
 4813POPC   C2B61484   2.198   8.392   6.650
 4813POPC   C3B61485   2.297   8.332   7.062
 4813POPC   C4B61486   2.251   7.913   7.158
 4814POPC   NC361487  42.757  17.709   5.549
 4814POPC   PO461488  42.241  17.371   5.276
 4814POPC   GL161489  42.335  17.361   5.757
 4814POPC   GL261490  42.464  17.005   5.798
 4814POPC   C1A61491  42.220  17.499   6.240
 4814POPC   D2A61492  42.404  17.656   6.682
 4814POPC   C3A61493  42.206  17.583   7.120
 4814POPC   C4A61494  41.955  17.754   7.477
 4814POPC   C1B61495  42.634  17.217   6.159
 4814POPC   C2B61496  42.472  17.145   6.554
 4814POPC   C3B61497  42.512  17.207   6.960
 4814POPC   C4B61498  42.417  17.112   7.363
 4815POPC   NC361499   0.638  25.702   5.372
 4815POPC   PO461500   0.090  26.141   5.552
 4815POPC   GL161501   0.248  26.086   5.939
 4815POPC   GL261502   0.252  25.711   5.924
 4815POPC   C1A61503   0.410  26.281   6.314
 4815POPC   D2A61504   0.541  26.463   6.685
 4815POPC   C3A61505   0.473  26.302   7.076
 4815POPC   C4A61506   0.049  26.233   7.050
 4815POPC   C1B61507   0.631  25.850   6.173
 4815POPC   C2B61508   0.608  25.915   6.638
 4815POPC   C3B61509   0.376  25.819   7.008
 4815POPC   C4B61510   0.536  25.716   7.398
 4816POPC   NC361511  38.317   4.496   5.491
 4816POPC   PO461512  38.663   3.946   5.529
 4816POPC   GL161513  38.626   4.203   5.848
 4816POPC   GL261514  38.290   4.096   5.878
 4816POPC   C1A61515  38.790   4.490   6.161
 4816POPC   D2A61516  38.747   4.418   6.591
 4816POPC   C3A61517  38.556   4.404   6.998
 4816POPC   C4A61518  38.718   4.007   7.155
 4816POPC   C1B61519  38.357   4.216   6.307
 4816POPC   C2B61520  38.384   4.001   6.709
 4816POPC   C3B61521  38.199   3.976   7.130
 4816POPC   C4B61522  37.935   4.241   7.378
 4817POPC   NC361523  32.027  41.569   5.445
 4817POPC   PO461524  32.687  41.755   5.367
 4817POPC   GL161525  32.387  41.834   5.740
 4817POPC   GL261526  32.041  41.879   5.854
 4817POPC   C1A61527  32.286  41.560   6.143
 4817POPC   D2A61528  32.556  41.404   6.483
 4817POPC   C3A61529  32.445  41.318   6.910
 4817POPC   C4A61530  32.360  41.566   7.299
 4817POPC   C1B61531  32.124  42.030   6.260
 4817POPC   C2B61532  32.249  41.825   6.639
 4817POPC   C3B61533  31.989  41.624   6.956
 4817POPC   C4B61534  31.836  41.579   7.384
 4818POPC   NC361535  23.615  16.318   5.124
 4818POPC   PO461536  23.892  15.831   5.531
 4818POPC   GL161537  23.832  16.153   5.831
 4818POPC   GL261538  23.659  15.893   5.977
 4818POPC   C1A61539  23.798  16.258   6.292
 4818POPC   D2A61540  23.480  16.070   6.540
 4818POPC   C3A61541  23.583  15.978   6.974
 4818POPC   C4A61542  23.902  16.130   7.238
 4818POPC   C1B61543  23.992  15.783   6.220
 4818POPC   C2B61544  23.979  15.922   6.626
 4818POPC   C3B61545  24.026  15.716   6.964
 4818POPC   C4B61546  23.823  15.603   7.324
 4819POPC   NC361547   7.800  43.352   5.351
 4819POPC   PO461548   7.406  42.810   5.344
 4819POPC   GL161549   7.409  42.960   5.784
 4819POPC   GL261550   7.598  43.275   5.808
 4819POPC   C1A61551   7.255  43.174   6.173
 4819POPC   D2A61552   7.272  43.452   6.544
 4819POPC   C3A61553   7.155  43.259   6.942
 4819POPC   C4A61554   7.092  43.366   7.362
 4819POPC   C1B61555   7.903  43.194   6.142
 4819POPC   C2B61556   7.917  43.342   6.574
 4819POPC   C3B61557   7.660  43.377   6.944
 4819POPC   C4B61558   7.561  43.222   7.345
 4820POPC   NC361559   7.643  12.119   5.372
 4820POPC   PO461560   7.256  11.622   5.465
 4820POPC   GL161561   7.253  11.863   5.806
 4820POPC   GL261562   7.599  11.829   5.820
 4820POPC   C1A61563   7.156  12.065   6.209
 4820POPC   D2A61564   7.329  11.948   6.603
 4820POPC   C3A61565   7.204  12.156   6.958
 4820POPC   C4A61566   7.370  12.242   7.342
 4820POPC   C1B61567   7.684  11.910   6.237
 4820POPC   C2B61568   7.806  11.773   6.664
 4820POPC   C3B61569   7.715  11.961   7.061
 4820POPC   C4B61570   7.781  12.007   7.506
 4821POPC   NC361571  41.163  24.680   5.596
 4821POPC   PO461572  40.588  24.367   5.444
 4821POPC   GL161573  40.668  24.684   5.756
 4821POPC   GL261574  40.390  24.732   5.930
 4821POPC   C1A61575  40.879  24.782   6.170
 4821POPC   D2A61576  40.958  24.498   6.526
 4821POPC   C3A61577  40.985  24.455   6.976
 4821POPC   C4A61578  40.975  24.646   7.415
 4821POPC   C1B61579  40.646  24.335   6.123
 4821POPC   C2B61580  40.538  24.194   6.530
 4821POPC   C3B61581  40.399  24.362   6.895
 4821POPC   C4B61582  40.594  24.330   7.268
 4822POPC   NC361583  20.333   2.832   5.427
 4822POPC   PO461584  19.757   2.476   5.585
 4822POPC   GL161585  19.866   2.814   5.844
 4822POPC   GL261586  19.514   2.976   5.784
 4822POPC   C1A61587  20.029   2.760   6.305
 4822POPC   D2A61588  20.073   2.627   6.754
 4822POPC   C3A61589  19.980   2.932   7.032
 4822POPC   C4A61590  19.976   2.868   7.420
 4822POPC   C1B61591  19.520   2.750   6.194
 4822POPC   C2B61592  19.614   2.533   6.551
 4822POPC   C3B61593  19.570   2.605   6.959
 4822POPC   C4B61594  19.499   2.719   7.361
 4823POPC   NC361595   9.783  39.580   5.379
 4823POPC   PO461596   9.867  38.886   5.496
 4823POPC   GL161597   9.705  39.179   5.792
 4823POPC   GL261598   9.814  39.521   5.896
 4823POPC   C1A61599   9.802  39.139   6.213
 4823POPC   D2A61600   9.941  38.975   6.565
 4823POPC   C3A61601   9.846  39.237   6.873
 4823POPC   C4A61602   9.722  39.250   7.250
 4823POPC   C1B61603   9.498  39.574   6.267
 4823POPC   C2B61604   9.499  39.593   6.749
 4823POPC   C3B61605   9.315  39.517   7.171
 4823POPC   C4B61606   9.358  39.352   7.603
 4824POPC   NC361607  27.393  37.025   5.672
 4824POPC   PO461608  27.833  36.586   5.350
 4824POPC   GL161609  27.700  36.610   5.784
 4824POPC   GL261610  27.346  36.549   5.879
 4824POPC   C1A61611  27.721  36.692   6.233
 4824POPC   D2A61612  27.580  36.892   6.609
 4824POPC   C3A61613  27.545  36.669   6.978
 4824POPC   C4A61614  27.816  36.784   7.320
 4824POPC   C1B61615  27.219  36.805   6.244
 4824POPC   C2B61616  27.083  36.743   6.631
 4824POPC   C3B61617  27.166  36.999   6.925
 4824POPC   C4B61618  27.456  37.119   7.220
 4825POPC   NC361619  21.542  34.034   5.497
 4825POPC   PO461620  21.304  33.399   5.440
 4825POPC   GL161621  21.215  33.526   5.862
 4825POPC   GL261622  21.365  33.857   5.943
 4825POPC   C1A61623  21.067  33.618   6.292
 4825POPC   D2A61624  20.856  33.444   6.670
 4825POPC   C3A61625  21.124  33.591   6.975
 4825POPC   C4A61626  21.231  33.995   7.085
 4825POPC   C1B61627  21.561  33.913   6.363
 4825POPC   C2B61628  21.635  33.848   6.816
 4825POPC   C3B61629  21.736  33.968   7.247
 4825POPC   C4B61630  21.807  34.140   7.683
 4826POPC   NC361631  25.976  43.305   5.571
 4826POPC   PO461632  26.100  43.921   5.244
 4826POPC   GL161633  26.124  43.803   5.674
 4826POPC   GL261634  25.778  43.764   5.788
 4826POPC   C1A61635  26.194  43.778   6.137
 4826POPC   D2A61636  26.422  43.942   6.519
 4826POPC   C3A61637  26.344  43.756   6.918
 4826POPC   C4A61638  26.091  43.849   7.260
 4826POPC   C1B61639  25.680  43.926   6.198
 4826POPC   C2B61640  25.909  43.905   6.591
 4826POPC   C3B61641  25.692  43.873   6.955
 4826POPC   C4B61642  25.635  44.128   7.275
 4827POPC   NC361643  35.723  41.602   5.542
 4827POPC   PO461644  35.104  41.840   5.381
 4827POPC   GL161645  35.240  41.581   5.778
 4827POPC   GL261646  35.432  41.273   5.807
 4827POPC   C1A61647  35.212  41.464   6.223
 4827POPC   D2A61648  35.489  41.568   6.572
 4827POPC   C3A61649  35.282  41.576   6.959
 4827POPC   C4A61650  34.998  41.363   7.225
 4827POPC   C1B61651  35.701  41.249   6.182
 4827POPC   C2B61652  35.904  41.274   6.607
 4827POPC   C3B61653  35.739  41.241   7.047
 4827POPC   C4B61654  35.874  41.078   7.466
 4828POPC   NC361655  19.627  11.821   5.532
 4828POPC   PO461656  19.849  11.146   5.459
 4828POPC   GL161657  19.736  11.349   5.779
 4828POPC   GL261658  19.960  11.623   5.878
 4828POPC   C1A61659  19.774  11.150   6.188
 4828POPC   D2A61660  20.023  11.253   6.560
 4828POPC   C3A61661  19.979  11.064   6.974
 4828POPC   C4A61662  19.757  11.186   7.344
 4828POPC   C1B61663  19.578  11.625   6.162
 4828POPC   C2B61664  19.445  11.373   6.504
 4828POPC   C3B61665  19.560  11.377   6.916
 4828POPC   C4B61666  19.551  11.646   7.290
 4829POPC   NC361667  11.399  37.607   5.193
 4829POPC   PO461668  11.741  38.094   5.567
 4829POPC   GL161669  11.520  37.704   5.692
 4829POPC   GL261670  11.226  37.615   5.708
 4829POPC   C1A61671  11.485  37.698   6.151
 4829POPC   D2A61672  11.365  37.873   6.572
 4829POPC   C3A61673  11.513  37.612   6.898
 4829POPC   C4A61674  11.406  37.522   7.298
 4829POPC   C1B61675  11.004  37.684   6.129
 4829POPC   C2B61676  10.851  37.684   6.569
 4829POPC   C3B61677  10.986  37.642   6.998
 4829POPC   C4B61678  11.099  38.002   7.234
 4830POPC   NC361679  14.959  14.811   5.417
 4830POPC   PO461680  15.301  14.263   5.378
 4830POPC   GL161681  15.056  14.417   5.760
 4830POPC   GL261682  14.764  14.680   5.865
 4830POPC   C1A61683  15.156  14.555   6.170
 4830POPC   D2A61684  15.174  14.652   6.604
 4830POPC   C3A61685  14.971  14.469   6.952
 4830POPC   C4A61686  15.033  14.506   7.356
 4830POPC   C1B61687  14.652  14.668   6.315
 4830POPC   C2B61688  14.693  14.855   6.738
 4830POPC   C3B61689  14.631  14.807   7.202
 4830POPC   C4B61690  14.595  14.684   7.632
 4831POPC   NC361691  12.237   5.143   5.281
 4831POPC   PO461692  11.649   4.778   5.301
 4831POPC   GL161693  11.838   5.048   5.687
 4831POPC   GL261694  12.226   5.059   5.787
 4831POPC   C1A61695  11.902   5.181   6.152
 4831POPC   D2A61696  11.959   5.318   6.554
 4831POPC   C3A61697  12.054   5.183   6.944
 4831POPC   C4A61698  11.908   5.179   7.365
 4831POPC   C1B61699  12.405   5.256   6.186
 4831POPC   C2B61700  12.449   5.467   6.607
 4831POPC   C3B61701  12.493   5.403   7.058
 4831POPC   C4B61702  12.432   5.251   7.479
 4832POPC   NC361703  43.131  15.478   5.523
 4832POPC   PO461704  42.692  14.980   5.385
 4832POPC   GL161705  42.981  15.012   5.786
 4832POPC   GL261706  42.955  15.350   5.995
 4832POPC   C1A61707  43.144  14.953   6.247
 4832POPC   D2A61708  43.254  15.267   6.568
 4832POPC   C3A61709  42.955  15.312   6.908
 4832POPC   C4A61710  42.944  15.083   7.302
 4832POPC   C1B61711  42.934  15.641   6.371
 4832POPC   C2B61712  43.303  15.803   6.584
 4832POPC   C3B61713  43.421  15.614   6.945
 4832POPC   C4B61714  43.278  15.487   7.327
 4833POPC   NC361715  23.331  36.661   5.607
 4833POPC   PO461716  23.889  37.059   5.416
 4833POPC   GL161717  23.861  36.732   5.876
 4833POPC   GL261718  23.558  36.528   6.035
 4833POPC   C1A61719  23.831  36.835   6.360
 4833POPC   D2A61720  23.940  37.228   6.620
 4833POPC   C3A61721  24.114  37.072   7.025
 4833POPC   C4A61722  24.031  36.671   7.226
 4833POPC   C1B61723  23.264  36.634   6.383
 4833POPC   C2B61724  23.441  36.556   6.765
 4833POPC   C3B61725  23.696  36.854   6.883
 4833POPC   C4B61726  23.624  37.264   7.070
 4834POPC   NC361727   1.633  28.276   5.399
 4834POPC   PO461728   2.265  28.319   5.327
 4834POPC   GL161729   2.114  28.567   5.711
 4834POPC   GL261730   1.749  28.613   5.802
 4834POPC   C1A61731   2.150  28.577   6.177
 4834POPC   D2A61732   2.041  28.336   6.549
 4834POPC   C3A61733   2.184  28.458   6.940
 4834POPC   C4A61734   2.290  28.171   7.253
 4834POPC   C1B61735   1.660  28.407   6.211
 4834POPC   C2B61736   1.492  28.445   6.618
 4834POPC   C3B61737   1.677  28.527   7.012
 4834POPC   C4B61738   1.766  28.336   7.414
 4835POPC   NC361739  26.761  20.292   5.279
 4835POPC   PO461740  26.482  20.813   5.580
 4835POPC   GL161741  26.637  20.448   5.777
 4835POPC   GL261742  26.964  20.445   5.728
 4835POPC   C1A61743  26.828  20.297   6.187
 4835POPC   D2A61744  26.912  20.511   6.574
 4835POPC   C3A61745  27.104  20.356   6.939
 4835POPC   C4A61746  26.932  20.465   7.340
 4835POPC   C1B61747  26.998  20.772   6.123
 4835POPC   C2B61748  27.035  21.002   6.540
 4835POPC   C3B61749  26.935  20.858   6.987
 4835POPC   C4B61750  27.114  21.065   7.346
 4836POPC   NC361751  11.461  16.029   5.465
 4836POPC   PO461752  10.957  15.577   5.261
 4836POPC   GL161753  11.068  15.797   5.681
 4836POPC   GL261754  11.355  15.683   5.859
 4836POPC   C1A61755  11.133  16.061   6.109
 4836POPC   D2A61756  10.924  16.068   6.523
 4836POPC   C3A61757  11.092  16.263   6.903
 4836POPC   C4A61758  10.969  16.150   7.331
 4836POPC   C1B61759  11.497  15.736   6.283
 4836POPC   C2B61760  11.654  15.853   6.679
 4836POPC   C3B61761  11.634  15.683   7.089
 4836POPC   C4B61762  11.447  15.958   7.388
 4837POPC   NC361763  11.473   5.778   5.399
 4837POPC   PO461764  11.515   6.365   5.398
 4837POPC   GL161765  11.412   6.105   5.817
 4837POPC   GL261766  11.460   5.721   5.914
 4837POPC   C1A61767  11.320   6.059   6.290
 4837POPC   D2A61768  11.241   5.782   6.674
 4837POPC   C3A61769  11.300   5.960   7.106
 4837POPC   C4A61770  11.276   5.869   7.561
 4837POPC   C1B61771  11.628   5.648   6.353
 4837POPC   C2B61772  11.710   5.643   6.840
 4837POPC   C3B61773  11.561   5.546   7.251
 4837POPC   C4B61774  11.566   5.468   7.708
 4838POPC   NC361775  21.079  20.458   5.433
 4838POPC   PO461776  20.420  20.561   5.451
 4838POPC   GL161777  20.640  20.453   5.806
 4838POPC   GL261778  20.638  20.819   5.870
 4838POPC   C1A61779  20.731  20.491   6.247
 4838POPC   D2A61780  20.539  20.539   6.662
 4838POPC   C3A61781  20.683  20.431   7.125
 4838POPC   C4A61782  20.777  20.247   7.580
 4838POPC   C1B61783  20.372  20.909   6.240
 4838POPC   C2B61784  20.253  21.032   6.671
 4838POPC   C3B61785  20.281  20.751   7.028
 4838POPC   C4B61786  20.346  20.712   7.466
 4839POPC   NC361787  40.759  15.612   5.478
 4839POPC   PO461788  40.565  16.316   5.489
 4839POPC   GL161789  40.629  16.012   5.808
 4839POPC   GL261790  40.435  15.728   5.879
 4839POPC   C1A61791  40.928  15.909   6.127
 4839POPC   D2A61792  41.028  15.859   6.547
 4839POPC   C3A61793  41.150  16.195   6.771
 4839POPC   C4A61794  41.174  16.102   7.177
 4839POPC   C1B61795  40.488  15.799   6.339
 4839POPC   C2B61796  40.454  15.665   6.753
 4839POPC   C3B61797  40.782  15.704   7.062
 4839POPC   C4B61798  40.742  15.458   7.468
 4840POPC   NC361799  44.608  43.679   5.521
 4840POPC   PO461800  44.580  42.993   5.455
 4840POPC   GL161801  44.770  43.073   5.827
 4840POPC   GL261802   0.032  42.791   5.771
 4840POPC   C1A61803  44.754  43.340   6.200
 4840POPC   D2A61804  44.607  43.472   6.611
 4840POPC   C3A61805  44.723  43.275   6.966
 4840POPC   C4A61806  44.641  43.059   7.327
 4840POPC   C1B61807   0.081  42.941   6.204
 4840POPC   C2B61808   0.089  43.110   6.617
 4840POPC   C3B61809   0.082  42.917   6.999
 4840POPC   C4B61810  44.996  42.701   7.368
 4841POPC   NC361811  28.238  27.528   5.472
 4841POPC   PO461812  28.921  27.634   5.532
 4841POPC   GL161813  28.619  27.557   5.840
 4841POPC   GL261814  28.337  27.808   5.898
 4841POPC   C1A61815  28.363  27.388   6.181
 4841POPC   D2A61816  28.248  27.552   6.571
 4841POPC   C3A61817  28.287  27.332   6.971
 4841POPC   C4A61818  28.196  27.230   7.389
 4841POPC   C1B61819  28.622  27.804   6.279
 4841POPC   C2B61820  28.761  27.697   6.691
 4841POPC   C3B61821  28.499  27.778   7.048
 4841POPC   C4B61822  28.600  28.015   7.421
 4842POPC   NC361823  33.571  40.905   5.343
 4842POPC   PO461824  32.949  40.798   5.244
 4842POPC   GL161825  33.181  40.815   5.672
 4842POPC   GL261826  33.243  40.458   5.728
 4842POPC   C1A61827  33.126  40.938   6.139
 4842POPC   D2A61828  32.792  40.948   6.495
 4842POPC   C3A61829  32.885  40.994   6.942
 4842POPC   C4A61830  32.782  40.765   7.332
 4842POPC   C1B61831  33.111  40.427   6.168
 4842POPC   C2B61832  33.203  40.628   6.568
 4842POPC   C3B61833  32.962  40.492   6.892
 4842POPC   C4B61834  33.044  40.303   7.264
 4843POPC   NC361835  13.709  43.187   5.388
 4843POPC   PO461836  13.006  43.113   5.195
 4843POPC   GL161837  13.272  43.075   5.641
 4843POPC   GL261838  13.577  42.917   5.797
 4843POPC   C1A61839  13.395  43.317   6.060
 4843POPC   D2A61840  13.691  43.255   6.430
 4843POPC   C3A61841  13.629  43.106   6.872
 4843POPC   C4A61842  13.496  43.213   7.302
 4843POPC   C1B61843  13.854  42.746   6.129
 4843POPC   C2B61844  13.941  42.788   6.579
 4843POPC   C3B61845  14.046  42.679   6.994
 4843POPC   C4B61846  13.736  42.770   7.288
 4844POPC   NC361847  28.407   8.495   5.353
 4844POPC   PO461848  28.126   7.842   5.497
 4844POPC   GL161849  28.342   8.164   5.762
 4844POPC   GL261850  28.177   8.467   5.794
 4844POPC   C1A61851  28.607   8.164   6.144
 4844POPC   D2A61852  28.437   8.110   6.556
 4844POPC   C3A61853  28.660   8.213   6.931
 4844POPC   C4A61854  28.473   8.129   7.319
 4844POPC   C1B61855  28.124   8.354   6.193
 4844POPC   C2B61856  28.052   8.473   6.567
 4844POPC   C3B61857  28.215   8.470   6.933
 4844POPC   C4B61858  28.059   8.421   7.295
 4845POPC   NC361859  23.980  13.490   5.054
 4845POPC   PO461860  23.463  13.816   5.429
 4845POPC   GL161861  23.689  13.594   5.779
 4845POPC   GL261862  23.442  13.431   6.006
 4845POPC   C1A61863  23.862  13.603   6.213
 4845POPC   D2A61864  23.808  13.708   6.619
 4845POPC   C3A61865  23.533  13.540   6.877
 4845POPC   C4A61866  23.667  13.454   7.248
 4845POPC   C1B61867  23.373  13.785   6.271
 4845POPC   C2B61868  23.225  13.954   6.672
 4845POPC   C3B61869  23.173  13.877   7.130
 4845POPC   C4B61870  23.319  13.654   7.533
 4846POPC   NC361871  41.366  26.225   5.088
 4846POPC   PO461872  41.124  26.361   5.649
 4846POPC   GL161873  41.556  26.101   5.710
 4846POPC   GL261874  41.692  25.729   5.753
 4846POPC   C1A61875  41.721  26.121   6.137
 4846POPC   D2A61876  41.474  26.367   6.435
 4846POPC   C3A61877  41.441  26.214   6.864
 4846POPC   C4A61878  41.368  26.085   7.293
 4846POPC   C1B61879  41.518  25.649   6.144
 4846POPC   C2B61880  41.472  25.837   6.522
 4846POPC   C3B61881  41.469  25.712   6.940
 4846POPC   C4B61882  41.718  25.712   7.309
 4847POPC   NC361883  20.208   3.692   5.566
 4847POPC   PO461884  19.598   3.800   5.406
 4847POPC   GL161885  19.711   3.645   5.793
 4847POPC   GL261886  19.902   3.334   5.773
 4847POPC   C1A61887  19.907   3.678   6.193
 4847POPC   D2A61888  19.769   3.543   6.583
 4847POPC   C3A61889  19.939   3.484   6.965
 4847POPC   C4A61890  19.766   3.763   7.286
 4847POPC   C1B61891  19.745   3.203   6.190
 4847POPC   C2B61892  19.700   3.035   6.611
 4847POPC   C3B61893  19.500   3.115   7.002
 4847POPC   C4B61894  19.660   3.273   7.342
 4848POPC   NC361895  29.562  36.885   5.627
 4848POPC   PO461896  30.205  36.864   5.449
 4848POPC   GL161897  29.998  37.117   5.786
 4848POPC   GL261898  30.241  37.372   5.841
 4848POPC   C1A61899  29.931  36.895   6.191
 4848POPC   D2A61900  29.764  36.811   6.592
 4848POPC   C3A61901  30.053  36.733   6.911
 4848POPC   C4A61902  29.863  36.737   7.296
 4848POPC   C1B61903  30.278  37.271   6.250
 4848POPC   C2B61904  30.177  37.209   6.660
 4848POPC   C3B61905  30.254  37.437   7.046
 4848POPC   C4B61906  30.326  37.041   7.233
 4849POPC   NC361907   6.648  27.742   5.307
 4849POPC   PO461908   7.229  28.073   5.547
 4849POPC   GL161909   6.849  27.821   5.763
 4849POPC   GL261910   6.576  27.556   5.787
 4849POPC   C1A61911   6.644  27.946   6.152
 4849POPC   D2A61912   6.443  27.949   6.562
 4849POPC   C3A61913   6.590  27.686   6.930
 4849POPC   C4A61914   6.741  27.359   7.198
 4849POPC   C1B61915   6.262  27.605   6.144
 4849POPC   C2B61916   6.318  27.443   6.546
 4849POPC   C3B61917   6.210  27.177   6.865
 4849POPC   C4B61918   6.250  27.314   7.289
 4850POPC   NC361919  38.106  14.928   5.447
 4850POPC   PO461920  38.557  15.382   5.351
 4850POPC   GL161921  38.499  15.255   5.788
 4850POPC   GL261922  38.195  15.078   5.928
 4850POPC   C1A61923  38.621  15.183   6.224
 4850POPC   D2A61924  38.336  15.093   6.595
 4850POPC   C3A61925  38.447  15.349   6.958
 4850POPC   C4A61926  38.759  15.265   7.232
 4850POPC   C1B61927  38.145  15.427   6.206
 4850POPC   C2B61928  38.054  15.537   6.630
 4850POPC   C3B61929  37.947  15.291   6.969
 4850POPC   C4B61930  38.027  15.494   7.330
 4851POPC   NC361931  29.381   3.221   5.531
 4851POPC   PO461932  28.973   2.656   5.502
 4851POPC   GL161933  29.144   2.874   5.844
 4851POPC   GL261934  28.944   3.180   5.840
 4851POPC   C1A61935  29.249   2.718   6.250
 4851POPC   D2A61936  29.083   2.368   6.502
 4851POPC   C3A61937  29.028   2.313   6.964
 4851POPC   C4A61938  28.768   2.294   7.360
 4851POPC   C1B61939  29.224   3.247   6.208
 4851POPC   C2B61940  29.425   3.048   6.583
 4851POPC   C3B61941  29.348   2.745   6.912
 4851POPC   C4B61942  29.094   2.807   7.274
 4852POPC   NC361943  42.416  21.162   5.292
 4852POPC   PO461944  41.943  21.115   5.734
 4852POPC   GL161945  42.269  21.239   5.948
 4852POPC   GL261946  42.530  21.444   5.794
 4852POPC   C1A61947  42.183  21.449   6.322
 4852POPC   D2A61948  41.912  21.532   6.633
 4852POPC   C3A61949  42.065  21.377   6.961
 4852POPC   C4A61950  42.239  21.672   7.214
 4852POPC   C1B61951  42.688  21.359   6.228
 4852POPC   C2B61952  42.548  21.279   6.659
 4852POPC   C3B61953  42.676  21.453   7.062
 4852POPC   C4B61954  42.654  21.326   7.499
 4853POPC   NC361955  44.693  34.670   5.523
 4853POPC   PO461956  44.168  34.306   5.395
 4853POPC   GL161957  44.390  34.485   5.864
 4853POPC   GL261958  44.773  34.400   5.967
 4853POPC   C1A61959  44.520  34.671   6.299
 4853POPC   D2A61960  44.587  34.529   6.714
 4853POPC   C3A61961  44.549  34.733   7.106
 4853POPC   C4A61962  44.609  34.333   7.266
 4853POPC   C1B61963   0.009  34.589   6.362
 4853POPC   C2B61964   0.014  34.788   6.798
 4853POPC   C3B61965   0.044  34.654   7.241
 4853POPC   C4B61966   0.212  34.744   7.692
 4854POPC   NC361967  38.219  30.911   5.483
 4854POPC   PO461968  38.723  30.514   5.600
 4854POPC   GL161969  38.417  30.644   5.871
 4854POPC   GL261970  38.612  30.968   5.914
 4854POPC   C1A61971  38.389  30.756   6.299
 4854POPC   D2A61972  38.618  30.876   6.652
 4854POPC   C3A61973  38.341  30.894   6.978
 4854POPC   C4A61974  38.244  30.591   7.265
 4854POPC   C1B61975  38.519  31.272   6.233
 4854POPC   C2B61976  38.694  31.374   6.642
 4854POPC   C3B61977  38.710  31.229   7.069
 4854POPC   C4B61978  38.428  31.178   7.441
 4855POPC   NC361979  21.489  38.036   5.309
 4855POPC   PO461980  21.300  37.553   5.533
 4855POPC   GL161981  21.382  37.634   5.913
 4855POPC   GL261982  21.642  37.887   5.798
 4855POPC   C1A61983  21.215  37.642   6.344
 4855POPC   D2A61984  21.027  37.682   6.762
 4855POPC   C3A61985  21.345  37.610   7.088
 4855POPC   C4A61986  21.387  37.660   7.540
 4855POPC   C1B61987  21.729  37.803   6.227
 4855POPC   C2B61988  21.686  37.654   6.631
 4855POPC   C3B61989  21.825  37.885   6.943
 4855POPC   C4B61990  21.662  38.016   7.305
 4856POPC   NC361991   0.895   1.954   5.403
 4856POPC   PO461992   1.433   1.796   5.266
 4856POPC   GL161993   1.348   1.984   5.678
 4856POPC   GL261994   1.165   1.701   5.768
 4856POPC   C1A61995   1.358   2.255   6.073
 4856POPC   D2A61996   1.559   2.404   6.470
 4856POPC   C3A61997   1.482   2.200   6.862
 4856POPC   C4A61998   1.224   2.302   7.216
 4856POPC   C1B61999   0.957   1.927   6.093
 4856POPC   C2B62000   1.090   2.062   6.492
 4856POPC   C3B62001   1.019   1.949   6.910
 4856POPC   C4B62002   1.336   1.818   7.179
 4857POPC   NC362003  41.750  16.161   5.376
 4857POPC   PO462004  41.157  15.873   5.526
 4857POPC   GL162005  41.519  15.941   5.781
 4857POPC   GL262006  41.600  16.300   5.843
 4857POPC   C1A62007  41.450  15.906   6.203
 4857POPC   D2A62008  41.503  15.591   6.521
 4857POPC   C3A62009  41.410  15.752   6.917
 4857POPC   C4A62010  41.625  15.874   7.327
 4857POPC   C1B62011  41.861  16.272   6.204
 4857POPC   C2B62012  41.731  16.069   6.581
 4857POPC   C3B62013  41.685  16.206   6.956
 4857POPC   C4B62014  42.028  16.193   7.257
 4858POPC   NC362015  19.023  21.441   5.331
 4858POPC   PO462016  19.414  21.925   5.600
 4858POPC   GL162017  19.248  21.520   5.819
 4858POPC   GL262018  18.884  21.453   5.824
 4858POPC   C1A62019  19.175  21.155   6.147
 4858POPC   D2A62020  19.233  21.297   6.589
 4858POPC   C3A62021  19.297  21.139   7.010
 4858POPC   C4A62022  19.269  21.378   7.427
 4858POPC   C1B62023  18.787  21.497   6.262
 4858POPC   C2B62024  18.717  21.306   6.656
 4858POPC   C3B62025  18.775  21.428   7.065
 4858POPC   C4B62026  18.784  21.549   7.492
 4859POPC   NC362027  40.415  22.145   5.356
 4859POPC   PO462028  41.041  21.974   5.275
 4859POPC   GL162029  40.868  22.036   5.669
 4859POPC   GL262030  41.068  22.336   5.826
 4859POPC   C1A62031  40.733  21.942   6.087
 4859POPC   D2A62032  40.807  22.156   6.508
 4859POPC   C3A62033  40.926  22.004   6.950
 4859POPC   C4A62034  40.607  22.009   7.286
 4859POPC   C1B62035  41.194  22.467   6.287
 4859POPC   C2B62036  41.113  22.491   6.781
 4859POPC   C3B62037  40.772  22.466   7.139
 4859POPC   C4B62038  40.787  22.613   7.617
 4860POPC   NC362039  16.598  28.849   5.494
 4860POPC   PO462040  17.022  29.287   5.291
 4860POPC   GL162041  16.790  29.229   5.816
 4860POPC   GL262042  16.830  28.976   6.000
 4860POPC   C1A62043  16.484  29.236   6.252
 4860POPC   D2A62044  16.529  29.096   6.732
 4860POPC   C3A62045  16.692  29.347   7.143
 4860POPC   C4A62046  16.650  29.517   7.572
 4860POPC   C1B62047  16.970  29.106   6.404
 4860POPC   C2B62048  17.023  29.354   6.768
 4860POPC   C3B62049  17.307  29.531   7.090
 4860POPC   C4B62050  17.166  29.552   7.525
 4861POPC   NC362051  18.465   3.004   5.392
 4861POPC   PO462052  18.051   2.607   5.535
 4861POPC   GL162053  18.212   2.964   5.838
 4861POPC   GL262054  18.584   3.072   5.886
 4861POPC   C1A62055  18.216   3.118   6.284
 4861POPC   D2A62056  18.287   2.897   6.699
 4861POPC   C3A62057  18.017   2.889   7.096
 4861POPC   C4A62058  17.788   3.072   7.478
 4861POPC   C1B62059  18.557   2.743   6.230
 4861POPC   C2B62060  18.736   2.689   6.674
 4861POPC   C3B62061  18.557   2.715   7.093
 4861POPC   C4B62062  18.459   2.429   7.438
 4862POPC   NC362063  28.594  20.051   5.430
 4862POPC   PO462064  28.389  19.380   5.423
 4862POPC   GL162065  28.304  19.714   5.751
 4862POPC   GL262066  28.122  20.034   5.690
 4862POPC   C1A62067  28.537  19.939   6.114
 4862POPC   D2A62068  28.672  20.140   6.537
 4862POPC   C3A62069  28.559  19.880   6.882
 4862POPC   C4A62070  28.400  20.009   7.253
 4862POPC   C1B62071  27.998  19.891   6.126
 4862POPC   C2B62072  28.185  19.922   6.534
 4862POPC   C3B62073  28.014  19.877   6.960
 4862POPC   C4B62074  27.975  19.721   7.407
 4863POPC   NC362075   2.463   3.014   5.348
 4863POPC   PO462076   2.987   2.559   5.424
 4863POPC   GL162077   3.025   2.738   5.839
 4863POPC   GL262078   2.753   2.960   5.835
 4863POPC   C1A62079   2.751   2.640   6.244
 4863POPC   D2A62080   2.426   2.827   6.538
 4863POPC   C3A62081   2.440   2.764   7.002
 4863POPC   C4A62082   2.437   2.598   7.426
 4863POPC   C1B62083   2.810   3.136   6.297
 4863POPC   C2B62084   2.905   2.907   6.710
 4863POPC   C3B62085   2.950   2.909   7.175
 4863POPC   C4B62086   2.997   3.030   7.618
 4864POPC   NC362087   1.235  10.654   5.108
 4864POPC   PO462088   1.531  10.435   5.770
 4864POPC   GL162089   1.177  10.435   6.015
 4864POPC   GL262090   0.931  10.177   5.975
 4864POPC   C1A62091   1.270  10.470   6.436
 4864POPC   D2A62092   1.351  10.817   6.694
 4864POPC   C3A62093   1.345  10.710   7.113
 4864POPC   C4A62094   1.296  10.410   7.444
 4864POPC   C1B62095   0.767  10.399   6.346
 4864POPC   C2B62096   0.890  10.556   6.751
 4864POPC   C3B62097   1.103  10.257   6.988
 4864POPC   C4B62098   0.887  10.069   7.323
 4865POPC   NC362099  40.886  32.561   5.481
 4865POPC   PO462100  40.777  33.251   5.493
 4865POPC   GL162101  40.688  32.968   5.781
 4865POPC   GL262102  40.425  32.750   5.651
 4865POPC   C1A62103  40.832  33.036   6.214
 4865POPC   D2A62104  40.876  33.374   6.550
 4865POPC   C3A62105  40.693  33.291   6.978
 4865POPC   C4A62106  40.574  33.094   7.380
 4865POPC   C1B62107  40.411  32.748   6.123
 4865POPC   C2B62108  40.481  32.930   6.545
 4865POPC   C3B62109  40.507  32.806   6.943
 4865POPC   C4B62110  40.771  32.637   7.230
 4866POPC   NC362111  29.665   4.515   5.445
 4866POPC   PO462112  29.154   4.315   5.034
 4866POPC   GL162113  29.165   4.176   5.523
 4866POPC   GL262114  29.014   4.440   5.746
 4866POPC   C1A62115  29.382   4.124   5.951
 4866POPC   D2A62116  29.595   4.240   6.363
 4866POPC   C3A62117  29.528   3.973   6.740
 4866POPC   C4A62118  29.322   4.226   7.035
 4866POPC   C1B62119  29.082   4.449   6.210
 4866POPC   C2B62120  29.080   4.159   6.567
 4866POPC   C3B62121  28.822   4.154   6.929
 4866POPC   C4B62122  28.498   4.001   7.199
 4867POPC   NC362123  28.184  29.281   5.304
 4867POPC   PO462124  28.464  28.696   5.456
 4867POPC   GL162125  28.339  29.044   5.834
 4867POPC   GL262126  28.079  29.310   5.890
 4867POPC   C1A62127  28.445  28.942   6.328
 4867POPC   D2A62128  28.509  28.705   6.753
 4867POPC   C3A62129  28.496  28.989   7.140
 4867POPC   C4A62130  28.471  29.278   7.560
 4867POPC   C1B62131  28.015  29.222   6.354
 4867POPC   C2B62132  28.157  29.131   6.786
 4867POPC   C3B62133  28.228  29.438   7.152
 4867POPC   C4B62134  28.088  29.641   7.582
 4868POPC   NC362135   9.321  29.308   5.328
 4868POPC   PO462136   9.825  28.847   5.382
 4868POPC   GL162137   9.631  28.857   5.802
 4868POPC   GL262138   9.494  29.194   5.806
 4868POPC   C1A62139   9.771  28.876   6.270
 4868POPC   D2A62140   9.474  29.007   6.559
 4868POPC   C3A62141   9.641  29.009   6.959
 4868POPC   C4A62142   9.679  28.697   7.220
 4868POPC   C1B62143   9.613  29.346   6.209
 4868POPC   C2B62144   9.750  29.426   6.636
 4868POPC   C3B62145   9.968  29.391   7.042
 4868POPC   C4B62146   9.757  29.547   7.392
 4869POPC   NC362147   0.058  39.089   5.734
 4869POPC   PO462148  44.566  39.299   5.342
 4869POPC   GL162149  44.656  39.402   5.783
 4869POPC   GL262150  44.527  39.097   5.867
 4869POPC   C1A62151  44.784  39.278   6.267
 4869POPC   D2A62152  44.595  39.283   6.663
 4869POPC   C3A62153  44.809  39.246   7.068
 4869POPC   C4A62154  44.808  39.549   7.426
 4869POPC   C1B62155  44.271  39.108   6.239
 4869POPC   C2B62156  44.273  38.883   6.644
 4869POPC   C3B62157  44.208  39.191   6.975
 4869POPC   C4B62158  44.358  39.361   7.314
 4870POPC   NC362159   8.302   5.540   5.684
 4870POPC   PO462160   8.080   4.956   5.341
 4870POPC   GL162161   8.182   4.998   5.777
 4870POPC   GL262162   7.860   4.841   5.821
 4870POPC   C1A62163   8.370   4.946   6.204
 4870POPC   D2A62164   8.462   4.997   6.662
 4870POPC   C3A62165   8.099   5.107   6.936
 4870POPC   C4A62166   8.028   5.300   7.369
 4870POPC   C1B62167   7.986   4.607   6.170
 4870POPC   C2B62168   7.916   4.683   6.582
 4870POPC   C3B62169   8.039   4.588   6.974
 4870POPC   C4B62170   7.897   4.807   7.297
 4871POPC   NC362171   3.888   3.623   5.622
 4871POPC   PO462172   3.303   3.452   5.494
 4871POPC   GL162173   3.407   3.729   5.816
 4871POPC   GL262174   3.562   3.424   5.964
 4871POPC   C1A62175   3.582   3.837   6.225
 4871POPC   D2A62176   3.709   3.603   6.570
 4871POPC   C3A62177   3.563   3.698   7.004
 4871POPC   C4A62178   3.280   3.386   7.225
 4871POPC   C1B62179   3.853   3.141   6.167
 4871POPC   C2B62180   4.097   3.177   6.553
 4871POPC   C3B62181   4.012   3.400   6.921
 4871POPC   C4B62182   3.785   3.306   7.252
 4872POPC   NC362183  13.765  29.778   5.329
 4872POPC   PO462184  13.240  30.085   5.288
 4872POPC   GL162185  13.518  30.087   5.692
 4872POPC   GL262186  13.776  29.826   5.830
 4872POPC   C1A62187  13.457  30.078   6.156
 4872POPC   D2A62188  13.292  29.900   6.546
 4872POPC   C3A62189  13.533  30.035   6.870
 4872POPC   C4A62190  13.675  30.080   7.250
 4872POPC   C1B62191  13.695  29.578   6.198
 4872POPC   C2B62192  13.772  29.642   6.632
 4872POPC   C3B62193  13.929  29.707   7.051
 4872POPC   C4B62194  13.971  29.732   7.502
 4873POPC   NC362195  31.179  11.166   5.432
 4873POPC   PO462196  31.820  11.212   5.280
 4873POPC   GL162197  31.599  11.352   5.651
 4873POPC   GL262198  31.571  10.997   5.719
 4873POPC   C1A62199  31.535  11.399   6.141
 4873POPC   D2A62200  31.318  11.438   6.591
 4873POPC   C3A62201  31.509  11.527   7.020
 4873POPC   C4A62202  31.810  11.457   7.378
 4873POPC   C1B62203  31.609  10.886   6.133
 4873POPC   C2B62204  31.613  11.036   6.559
 4873POPC   C3B62205  31.409  11.013   6.968
 4873POPC   C4B62206  31.397  11.135   7.428
 4874POPC   NC362207   1.692   0.720   5.100
 4874POPC   PO462208   1.878   0.340   5.524
 4874POPC   GL162209   1.963   0.160   5.870
 4874POPC   GL262210   1.725  44.944   5.893
 4874POPC   C1A62211   1.923   0.300   6.265
 4874POPC   D2A62212   2.121   0.112   6.568
 4874POPC   C3A62213   2.008   0.291   6.907
 4874POPC   C4A62214   2.166   0.529   7.197
 4874POPC   C1B62215   1.522  44.975   6.254
 4874POPC   C2B62216   1.600   0.032   6.657
 4874POPC   C3B62217   1.507   0.236   7.024
 4874POPC   C4B62218   1.678   0.324   7.427
 4875POPC   NC362219   4.218  30.312   5.679
 4875POPC   PO462220   4.515  30.786   5.166
 4875POPC   GL162221   4.488  30.787   5.694
 4875POPC   GL262222   4.172  30.950   5.872
 4875POPC   C1A62223   4.547  30.750   6.157
 4875POPC   D2A62224   4.398  30.955   6.544
 4875POPC   C3A62225   4.508  30.737   6.936
 4875POPC   C4A62226   4.643  31.016   7.233
 4875POPC   C1B62227   4.048  30.703   6.274
 4875POPC   C2B62228   4.069  30.575   6.745
 4875POPC   C3B62229   3.882  30.412   7.161
 4875POPC   C4B62230   3.942  30.449   7.648
 4876POPC   NC362231   6.325   0.692   5.322
 4876POPC   PO462232   6.897   0.293   5.428
 4876POPC   GL162233   6.589   0.414   5.795
 4876POPC   GL262234   6.394   0.727   5.833
 4876POPC   C1A62235   6.465   0.411   6.258
 4876POPC   D2A62236   6.298   0.267   6.665
 4876POPC   C3A62237   6.615   0.196   6.963
 4876POPC   C4A62238   6.848   0.512   7.169
 4876POPC   C1B62239   6.282   0.900   6.254
 4876POPC   C2B62240   6.459   0.765   6.655
 4876POPC   C3B62241   6.358   0.644   7.062
 4876POPC   C4B62242   6.474   0.809   7.441
 4877POPC   NC362243  28.668   0.774   5.369
 4877POPC   PO462244  28.089   0.573   5.514
 4877POPC   GL162245  28.423   0.540   5.783
 4877POPC   GL262246  28.386   0.897   5.812
 4877POPC   C1A62247  28.509   0.247   6.142
 4877POPC   D2A62248  28.641   0.119   6.552
 4877POPC   C3A62249  28.365   0.151   6.893
 4877POPC   C4A62250  28.451   0.098   7.299
 4877POPC   C1B62251  28.547   0.754   6.227
 4877POPC   C2B62252  28.625   0.626   6.657
 4877POPC   C3B62253  28.517   0.623   7.105
 4877POPC   C4B62254  28.572   0.542   7.555
 4878POPC   NC362255  39.839   4.199   5.359
 4878POPC   PO462256  39.732   4.833   5.526
 4878POPC   GL162257  39.937   4.488   5.804
 4878POPC   GL262258  39.723   4.193   5.859
 4878POPC   C1A62259  40.180   4.433   6.223
 4878POPC   D2A62260  40.290   4.152   6.591
 4878POPC   C3A62261  40.095   4.294   6.996
 4878POPC   C4A62262  39.933   4.679   7.259
 4878POPC   C1B62263  39.826   4.050   6.240
 4878POPC   C2B62264  39.733   4.116   6.636
 4878POPC   C3B62265  39.668   3.949   7.037
 4878POPC   C4B62266  39.733   4.183   7.357
 4879POPC   NC362267   0.826  22.620   5.371
 4879POPC   PO462268   0.532  23.191   5.449
 4879POPC   GL162269   0.423  23.141   5.858
 4879POPC   GL262270   0.551  22.788   5.839
 4879POPC   C1A62271   0.610  23.119   6.240
 4879POPC   D2A62272   0.887  23.075   6.548
 4879POPC   C3A62273   0.633  22.990   6.884
 4879POPC   C4A62274   0.390  23.141   7.210
 4879POPC   C1B62275   0.556  22.588   6.234
 4879POPC   C2B62276   0.794  22.524   6.612
 4879POPC   C3B62277   0.656  22.403   7.010
 4879POPC   C4B62278   0.537  22.661   7.345
 4880POPC   NC362279  27.133  41.210   5.627
 4880POPC   PO462280  26.966  40.448   5.449
 4880POPC   GL162281  26.927  40.589   5.880
 4880POPC   GL262282  26.782  40.936   5.892
 4880POPC   C1A62283  26.751  40.625   6.305
 4880POPC   D2A62284  26.681  40.438   6.702
 4880POPC   C3A62285  26.878  40.642   7.005
 4880POPC   C4A62286  26.832  40.687   7.446
 4880POPC   C1B62287  26.718  41.167   6.273
 4880POPC   C2B62288  26.768  41.035   6.690
 4880POPC   C3B62289  26.741  41.117   7.140
 4880POPC   C4B62290  26.906  41.166   7.540
 4881POPC   NC362291  18.689  35.757   5.508
 4881POPC   PO462292  18.974  35.139   5.473
 4881POPC   GL162293  19.017  35.183   5.885
 4881POPC   GL262294  18.907  35.516   5.901
 4881POPC   C1A62295  18.961  35.208   6.331
 4881POPC   D2A62296  19.047  35.231   6.742
 4881POPC   C3A62297  18.741  35.435   7.025
 4881POPC   C4A62298  18.671  35.250   7.448
 4881POPC   C1B62299  19.191  35.663   6.208
 4881POPC   C2B62300  19.377  35.582   6.563
 4881POPC   C3B62301  19.187  35.709   6.923
 4881POPC   C4B62302  19.250  35.731   7.324
 4882POPC   NC362303  15.472  27.897   5.444
 4882POPC   PO462304  14.989  27.468   5.267
 4882POPC   GL162305  15.189  27.543   5.693
 4882POPC   GL262306  14.865  27.496   5.783
 4882POPC   C1A62307  15.459  27.659   6.110
 4882POPC   D2A62308  15.589  27.342   6.460
 4882POPC   C3A62309  15.408  27.332   6.906
 4882POPC   C4A62310  15.359  27.559   7.323
 4882POPC   C1B62311  14.971  27.792   6.118
 4882POPC   C2B62312  15.161  27.700   6.537
 4882POPC   C3B62313  14.981  27.601   6.944
 4882POPC   C4B62314  14.855  27.803   7.299
 4883POPC   NC362315  44.147  39.133   5.440
 4883POPC   PO462316  43.527  39.021   5.589
 4883POPC   GL162317  43.863  39.159   5.858
 4883POPC   GL262318  44.141  39.429   5.842
 4883POPC   C1A62319  43.756  39.296   6.219
 4883POPC   D2A62320  43.885  39.196   6.590
 4883POPC   C3A62321  43.713  39.314   6.974
 4883POPC   C4A62322  43.852  39.177   7.369
 4883POPC   C1B62323  44.087  39.678   6.187
 4883POPC   C2B62324  44.212  39.584   6.566
 4883POPC   C3B62325  44.081  39.713   6.935
 4883POPC   C4B62326  43.937  39.658   7.313
 4884POPC   NC362327  21.109  29.932   5.443
 4884POPC   PO462328  21.583  30.330   5.534
 4884POPC   GL162329  21.554  30.017   5.871
 4884POPC   GL262330  21.233  29.829   5.908
 4884POPC   C1A62331  21.492  29.967   6.329
 4884POPC   D2A62332  21.643  30.138   6.717
 4884POPC   C3A62333  21.678  29.918   7.094
 4884POPC   C4A62334  21.414  30.196   7.241
 4884POPC   C1B62335  21.199  29.550   6.230
 4884POPC   C2B62336  21.164  29.649   6.629
 4884POPC   C3B62337  21.273  29.630   7.028
 4884POPC   C4B62338  21.105  29.789   7.361
 4885POPC   NC362339  16.409  20.973   5.455
 4885POPC   PO462340  17.029  20.677   5.457
 4885POPC   GL162341  17.059  20.511   5.878
 4885POPC   GL262342  16.731  20.342   5.872
 4885POPC   C1A62343  16.935  20.445   6.329
 4885POPC   D2A62344  16.658  20.471   6.674
 4885POPC   C3A62345  16.915  20.564   7.040
 4885POPC   C4A62346  17.036  20.965   7.241
 4885POPC   C1B62347  16.619  20.763   6.078
 4885POPC   C2B62348  16.588  20.947   6.491
 4885POPC   C3B62349  16.510  20.892   6.921
 4885POPC   C4B62350  16.340  20.704   7.285
 4886POPC   NC362351  25.841   2.594   5.454
 4886POPC   PO462352  26.232   3.139   5.605
 4886POPC   GL162353  26.052   2.856   5.853
 4886POPC   GL262354  26.205   2.560   5.926
 4886POPC   C1A62355  26.049   2.910   6.285
 4886POPC   D2A62356  26.183   2.611   6.526
 4886POPC   C3A62357  26.260   2.699   6.931
 4886POPC   C4A62358  26.071   2.653   7.326
 4886POPC   C1B62359  25.855   2.416   6.128
 4886POPC   C2B62360  25.710   2.323   6.517
 4886POPC   C3B62361  25.792   2.443   6.928
 4886POPC   C4B62362  25.661   2.350   7.335
 4887POPC   NC362363  44.243  27.942   5.590
 4887POPC   PO462364  43.646  27.847   5.254
 4887POPC   GL162365  43.805  27.700   5.790
 4887POPC   GL262366  44.140  27.680   5.987
 4887POPC   C1A62367  43.803  27.459   6.253
 4887POPC   D2A62368  43.657  27.676   6.635
 4887POPC   C3A62369  43.870  27.622   7.016
 4887POPC   C4A62370  43.819  27.283   7.279
 4887POPC   C1B62371  44.376  27.534   6.316
 4887POPC   C2B62372  44.639  27.548   6.672
 4887POPC   C3B62373  44.387  27.593   7.017
 4887POPC   C4B62374  44.222  27.919   7.269
 4888POPC   NC362375  19.753  10.675   5.540
 4888POPC   PO462376  20.244  10.267   5.399
 4888POPC   GL162377  19.958  10.286   5.845
 4888POPC   GL262378  19.580  10.305   5.873
 4888POPC   C1A62379  19.828  10.153   6.313
 4888POPC   D2A62380  19.863  10.137   6.805
 4888POPC   C3A62381  19.965  10.538   7.050
 4888POPC   C4A62382  20.048  10.803   7.437
 4888POPC   C1B62383  19.606  10.636   6.215
 4888POPC   C2B62384  19.662  10.837   6.641
 4888POPC   C3B62385  19.508  10.814   7.091
 4888POPC   C4B62386  19.621  10.531   7.447
 4889POPC   NC362387  31.908   4.536   5.492
 4889POPC   PO462388  31.478   4.112   5.279
 4889POPC   GL162389  31.398   4.187   5.799
 4889POPC   GL262390  31.409   4.502   5.970
 4889POPC   C1A62391  31.649   4.150   6.245
 4889POPC   D2A62392  31.866   4.348   6.631
 4889POPC   C3A62393  31.753   4.240   7.070
 4889POPC   C4A62394  31.311   4.169   7.194
 4889POPC   C1B62395  31.789   4.636   6.163
 4889POPC   C2B62396  31.621   4.767   6.549
 4889POPC   C3B62397  31.422   4.570   6.884
 4889POPC   C4B62398  31.527   4.640   7.305
 4890POPC   NC362399  19.299  42.387   5.478
 4890POPC   PO462400  18.656  42.443   5.405
 4890POPC   GL162401  18.901  42.190   5.776
 4890POPC   GL262402  19.259  42.129   5.909
 4890POPC   C1A62403  18.874  42.085   6.247
 4890POPC   D2A62404  19.093  41.985   6.668
 4890POPC   C3A62405  18.920  42.167   7.057
 4890POPC   C4A62406  18.581  42.343   7.314
 4890POPC   C1B62407  19.363  42.283   6.318
 4890POPC   C2B62408  19.248  42.592   6.643
 4890POPC   C3B62409  19.361  42.629   7.091
 4890POPC   C4B62410  19.272  42.340   7.414
 4891POPC   NC362411  12.167  30.456   5.448
 4891POPC   PO462412  11.711  30.935   5.420
 4891POPC   GL162413  12.025  30.835   5.753
 4891POPC   GL262414  12.033  30.506   5.925
 4891POPC   C1A62415  12.239  30.922   6.124
 4891POPC   D2A62416  12.100  30.686   6.483
 4891POPC   C3A62417  12.089  30.864   6.896
 4891POPC   C4A62418  12.224  30.778   7.300
 4891POPC   C1B62419  11.749  30.332   6.185
 4891POPC   C2B62420  11.639  30.478   6.562
 4891POPC   C3B62421  11.848  30.369   6.888
 4891POPC   C4B62422  11.769  30.433   7.264
 4892POPC   NC362423  44.236  13.844   5.327
 4892POPC   PO462424  44.838  14.376   5.470
 4892POPC   GL162425  44.692  14.493   5.888
 4892POPC   GL262426  44.377  14.664   5.820
 4892POPC   C1A62427  44.607  14.656   6.307
 4892POPC   D2A62428  44.779  14.598   6.725
 4892POPC   C3A62429  44.645  14.343   7.053
 4892POPC   C4A62430  44.790  14.274   7.456
 4892POPC   C1B62431  44.154  14.888   6.130
 4892POPC   C2B62432  44.128  14.782   6.545
 4892POPC   C3B62433  44.299  14.754   6.946
 4892POPC   C4B62434  44.367  14.624   7.365
 4893POPC   NC362435  32.084  11.564   5.430
 4893POPC   PO462436  32.337  10.977   5.608
 4893POPC   GL162437  32.040  11.194   5.858
 4893POPC   GL262438  31.974  11.566   5.916
 4893POPC   C1A62439  32.011  11.195   6.284
 4893POPC   D2A62440  32.133  10.970   6.613
 4893POPC   C3A62441  31.942  11.102   6.966
 4893POPC   C4A62442  32.276  11.218   7.189
 4893POPC   C1B62443  32.299  11.604   6.220
 4893POPC   C2B62444  32.415  11.471   6.654
 4893POPC   C3B62445  32.529  11.640   7.068
 4893POPC   C4B62446  32.256  11.699   7.427
 4894POPC   NC362447   0.499  33.467   5.446
 4894POPC   PO462448   0.652  32.824   5.515
 4894POPC   GL162449   0.576  33.077   5.890
 4894POPC   GL262450   0.279  33.314   5.885
 4894POPC   C1A62451   0.757  33.035   6.312
 4894POPC   D2A62452   0.776  33.096   6.767
 4894POPC   C3A62453   0.675  32.807   7.099
 4894POPC   C4A62454   0.265  32.693   7.137
 4894POPC   C1B62455   0.247  33.041   6.274
 4894POPC   C2B62456   0.275  33.067   6.733
 4894POPC   C3B62457   0.408  33.250   7.107
 4894POPC   C4B62458   0.752  33.542   7.197
 4895POPC   NC362459  19.768   7.966   5.331
 4895POPC   PO462460  19.652   8.588   5.496
 4895POPC   GL162461  19.865   8.284   5.754
 4895POPC   GL262462  19.566   8.100   5.818
 4895POPC   C1A62463  20.068   8.221   6.160
 4895POPC   D2A62464  20.000   8.133   6.602
 4895POPC   C3A62465  19.939   8.334   6.994
 4895POPC   C4A62466  20.289   8.191   7.219
 4895POPC   C1B62467  19.618   8.020   6.282
 4895POPC   C2B62468  19.563   7.901   6.729
 4895POPC   C3B62469  19.540   8.036   7.170
 4895POPC   C4B62470  19.382   8.120   7.603
 4896POPC   NC362471  12.160   7.668   5.417
 4896POPC   PO462472  11.817   7.210   5.586
 4896POPC   GL162473  12.011   7.533   5.887
 4896POPC   GL262474  12.370   7.540   5.879
 4896POPC   C1A62475  12.123   7.546   6.336
 4896POPC   D2A62476  12.113   7.282   6.724
 4896POPC   C3A62477  11.973   7.542   7.078
 4896POPC   C4A62478  11.819   7.588   7.519
 4896POPC   C1B62479  12.571   7.334   6.210
 4896POPC   C2B62480  12.584   7.449   6.629
 4896POPC   C3B62481  12.477   7.371   7.089
 4896POPC   C4B62482  12.317   7.647   7.429
 4897POPC   NC362483  39.110  27.126   5.317
 4897POPC   PO462484  39.656  26.703   5.342
 4897POPC   GL162485  39.387  26.922   5.692
 4897POPC   GL262486  39.035  26.943   5.777
 4897POPC   C1A62487  39.393  26.918   6.143
 4897POPC   D2A62488  39.143  26.825   6.498
 4897POPC   C3A62489  39.310  26.821   6.888
 4897POPC   C4A62490  39.181  26.691   7.270
 4897POPC   C1B62491  38.787  26.850   6.119
 4897POPC   C2B62492  38.759  27.145   6.444
 4897POPC   C3B62493  38.931  27.200   6.854
 4897POPC   C4B62494  38.814  27.337   7.261
 4898POPC   NC362495  28.585  16.231   5.536
 4898POPC   PO462496  28.393  15.593   5.515
 4898POPC   GL162497  28.398  15.881   5.857
 4898POPC   GL262498  28.055  15.881   5.912
 4898POPC   C1A62499  28.352  16.029   6.291
 4898POPC   D2A62500  28.156  15.856   6.654
 4898POPC   C3A62501  28.182  16.073   7.075
 4898POPC   C4A62502  28.079  16.167   7.537
 4898POPC   C1B62503  28.175  15.494   6.163
 4898POPC   C2B62504  28.019  15.267   6.530
 4898POPC   C3B62505  27.973  15.457   6.906
 4898POPC   C4B62506  28.134  15.602   7.263
 4899POPC   NC362507  20.597   2.298   5.132
 4899POPC   PO462508  20.573   1.683   5.451
 4899POPC   GL162509  20.574   1.846   5.881
 4899POPC   GL262510  20.734   2.193   5.883
 4899POPC   C1A62511  20.437   1.928   6.330
 4899POPC   D2A62512  20.460   2.249   6.675
 4899POPC   C3A62513  20.419   2.159   7.129
 4899POPC   C4A62514  20.623   1.799   7.297
 4899POPC   C1B62515  20.931   1.941   6.232
 4899POPC   C2B62516  20.854   1.755   6.638
 4899POPC   C3B62517  21.036   1.880   7.035
 4899POPC   C4B62518  20.917   2.239   7.316
 4900POPC   NC362519   8.766  26.138   5.475
 4900POPC   PO462520   8.137  25.890   5.402
 4900POPC   GL162521   8.311  25.926   5.812
 4900POPC   GL262522   8.159  26.182   5.934
 4900POPC   C1A62523   8.217  25.792   6.264
 4900POPC   D2A62524   8.050  25.646   6.665
 4900POPC   C3A62525   8.150  25.848   7.056
 4900POPC   C4A62526   8.542  25.740   7.206
 4900POPC   C1B62527   8.508  26.284   6.179
 4900POPC   C2B62528   8.549  26.421   6.597
 4900POPC   C3B62529   8.520  26.228   6.990
 4900POPC   C4B62530   8.201  26.349   7.259
 4901POPC   NC362531  10.978  17.191   5.629
 4901POPC   PO462532  10.528  17.631   5.348
 4901POPC   GL162533  10.474  17.394   5.742
 4901POPC   GL262534  10.493  17.701   5.878
 4901POPC   C1A62535  10.305  17.298   6.179
 4901POPC   D2A62536  10.411  17.518   6.543
 4901POPC   C3A62537  10.218  17.517   6.923
 4901POPC   C4A62538  10.379  17.514   7.317
 4901POPC   C1B62539  10.769  17.868   6.190
 4901POPC   C2B62540  10.886  17.665   6.574
 4901POPC   C3B62541  10.702  17.690   6.962
 4901POPC   C4B62542  10.838  17.795   7.359
 4902POPC   NC362543  23.826  34.978   5.471
 4902POPC   PO462544  23.914  35.626   5.260
 4902POPC   GL162545  23.674  35.425   5.641
 4902POPC   GL262546  23.994  35.397   5.824
 4902POPC   C1A62547  23.584  35.414   6.124
 4902POPC   D2A62548  23.849  35.621   6.469
 4902POPC   C3A62549  23.741  35.649   6.902
 4902POPC   C4A62550  23.509  35.371   7.200
 4902POPC   C1B62551  24.019  35.151   6.230
 4902POPC   C2B62552  24.176  35.036   6.609
 4902POPC   C3B62553  23.956  35.149   6.966
 4902POPC   C4B62554  23.823  34.956   7.326
 4903POPC   NC362555  37.927  34.496   5.354
 4903POPC   PO462556  38.584  34.659   5.476
 4903POPC   GL162557  38.523  34.559   5.867
 4903POPC   GL262558  38.160  34.532   5.836
 4903POPC   C1A62559  38.708  34.516   6.266
 4903POPC   D2A62560  38.542  34.530   6.669
 4903POPC   C3A62561  38.730  34.630   7.027
 4903POPC   C4A62562  38.572  34.463   7.408
 4903POPC   C1B62563  38.005  34.715   6.227
 4903POPC   C2B62564  38.034  34.521   6.638
 4903POPC   C3B62565  38.174  34.521   7.047
 4903POPC   C4B62566  38.066  34.308   7.404
 4904POPC   NC362567  41.842  12.527   5.535
 4904POPC   PO462568  42.317  12.071   5.450
 4904POPC   GL162569  42.392  11.974   5.857
 4904POPC   GL262570  42.214  12.297   5.908
 4904POPC   C1A62571  42.234  11.967   6.287
 4904POPC   D2A62572  42.185  12.302   6.538
 4904POPC   C3A62573  42.201  12.070   6.864
 4904POPC   C4A62574  42.172  12.136   7.249
 4904POPC   C1B62575  42.544  12.404   6.191
 4904POPC   C2B62576  42.612  12.603   6.606
 4904POPC   C3B62577  42.609  12.388   7.017
 4904POPC   C4B62578  42.665  12.373   7.480
 4905POPC   NC362579   7.056  43.086   5.424
 4905POPC   PO462580   6.400  43.160   5.222
 4905POPC   GL162581   6.640  43.073   5.684
 4905POPC   GL262582   6.499  42.801   5.879
 4905POPC   C1A62583   6.725  43.240   6.119
 4905POPC   D2A62584   6.448  43.316   6.480
 4905POPC   C3A62585   6.500  43.142   6.905
 4905POPC   C4A62586   6.581  43.396   7.292
 4905POPC   C1B62587   6.891  42.764   6.129
 4905POPC   C2B62588   6.935  42.979   6.536
 4905POPC   C3B62589   6.889  42.817   6.937
 4905POPC   C4B62590   6.598  42.769   7.278
 4906POPC   NC362591  16.278  13.470   5.474
 4906POPC   PO462592  15.737  13.864   5.562
 4906POPC   GL162593  15.998  13.652   5.855
 4906POPC   GL262594  15.864  13.328   5.839
 4906POPC   C1A62595  16.085  13.602   6.279
 4906POPC   D2A62596  15.895  13.940   6.539
 4906POPC   C3A62597  15.838  13.885   6.979
 4906POPC   C4A62598  16.213  13.932   7.199
 4906POPC   C1B62599  15.599  13.450   6.236
 4906POPC   C2B62600  15.783  13.430   6.685
 4906POPC   C3B62601  15.749  13.396   7.172
 4906POPC   C4B62602  15.505  13.382   7.609
 4907POPC   NC362603  33.663  12.416   5.444
 4907POPC   PO462604  33.879  11.776   5.352
 4907POPC   GL162605  33.894  12.055   5.723
 4907POPC   GL262606  33.963  11.796   5.903
 4907POPC   C1A62607  33.911  12.278   6.173
 4907POPC   D2A62608  33.856  12.539   6.559
 4907POPC   C3A62609  33.949  12.340   6.954
 4907POPC   C4A62610  33.711  12.243   7.333
 4907POPC   C1B62611  33.625  11.859   6.186
 4907POPC   C2B62612  33.711  12.008   6.612
 4907POPC   C3B62613  33.515  11.898   7.001
 4907POPC   C4B62614  33.609  11.718   7.399
 4908POPC   NC362615  23.483  44.510   5.606
 4908POPC   PO462616  23.901   0.099   5.480
 4908POPC   GL162617  23.853  44.790   5.856
 4908POPC   GL262618  23.484  44.738   6.053
 4908POPC   C1A62619  23.928  44.633   6.293
 4908POPC   D2A62620  23.673  44.779   6.651
 4908POPC   C3A62621  23.946  44.856   6.961
 4908POPC   C4A62622  23.979  44.780   7.376
 4908POPC   C1B62623  23.456  44.409   6.358
 4908POPC   C2B62624  23.748  44.269   6.672
 4908POPC   C3B62625  23.870  44.364   7.091
 4908POPC   C4B62626  23.676  44.359   7.510
 4909POPC   NC362627   0.338   0.942   5.302
 4909POPC   PO462628   0.730   1.504   5.396
 4909POPC   GL162629   0.613   1.209   5.703
 4909POPC   GL262630   0.298   1.064   5.794
 4909POPC   C1A62631   0.627   1.275   6.140
 4909POPC   D2A62632   0.421   1.352   6.515
 4909POPC   C3A62633   0.596   1.147   6.862
 4909POPC   C4A62634   0.518   1.167   7.289
 4909POPC   C1B62635   0.328   0.870   6.202
 4909POPC   C2B62636   0.113   0.830   6.547
 4909POPC   C3B62637   0.128   0.927   6.937
 4909POPC   C4B62638   0.276   0.681   7.237
 4910POPC   NC362639  11.865   2.376   5.361
 4910POPC   PO462640  12.004   3.044   5.260
 4910POPC   GL162641  12.124   2.786   5.645
 4910POPC   GL262642  12.384   2.984   5.830
 4910POPC   C1A62643  12.116   2.622   6.067
 4910POPC   D2A62644  12.215   2.623   6.502
 4910POPC   C3A62645  11.931   2.431   6.774
 4910POPC   C4A62646  11.936   2.440   7.228
 4910POPC   C1B62647  12.523   2.939   6.244
 4910POPC   C2B62648  12.388   3.098   6.651
 4910POPC   C3B62649  12.191   2.837   6.969
 4910POPC   C4B62650  12.413   2.736   7.302
 4911POPC   NC362651  30.400  19.536   5.498
 4911POPC   PO462652  30.859  20.035   5.439
 4911POPC   GL162653  30.958  19.890   5.869
 4911POPC   GL262654  30.888  19.534   5.825
 4911POPC   C1A62655  30.822  19.975   6.301
 4911POPC   D2A62656  30.441  20.126   6.513
 4911POPC   C3A62657  30.504  20.093   6.938
 4911POPC   C4A62658  30.742  19.823   7.190
 4911POPC   C1B62659  30.596  19.530   6.211
 4911POPC   C2B62660  30.533  19.623   6.668
 4911POPC   C3B62661  30.471  19.400   7.074
 4911POPC   C4B62662  30.740  19.360   7.460
 4912POPC   NC362663  23.821  15.382   5.409
 4912POPC   PO462664  23.635  14.863   5.781
 4912POPC   GL162665  23.913  15.205   5.884
 4912POPC   GL262666  23.673  15.389   6.082
 4912POPC   C1A62667  24.162  15.286   6.241
 4912POPC   D2A62668  23.922  15.379   6.615
 4912POPC   C3A62669  23.973  15.165   7.032
 4912POPC   C4A62670  23.833  15.123   7.480
 4912POPC   C1B62671  23.564  15.054   6.388
 4912POPC   C2B62672  23.285  15.078   6.712
 4912POPC   C3B62673  23.474  15.315   7.012
 4912POPC   C4B62674  23.334  15.154   7.368
 4913POPC   NC362675  43.781   6.762   5.135
 4913POPC   PO462676  43.188   6.463   5.325
 4913POPC   GL162677  43.134   6.640   5.723
 4913POPC   GL262678  42.833   6.822   5.747
 4913POPC   C1A62679  43.315   6.632   6.130
 4913POPC   D2A62680  43.423   6.613   6.554
 4913POPC   C3A62681  43.235   6.771   6.908
 4913POPC   C4A62682  43.137   6.460   7.209
 4913POPC   C1B62683  42.803   6.551   6.118
 4913POPC   C2B62684  42.901   6.541   6.556
 4913POPC   C3B62685  42.726   6.672   6.954
 4913POPC   C4B62686  42.656   6.500   7.343
 4914POPC   NC362687  33.418  21.697   5.419
 4914POPC   PO462688  33.002  21.129   5.503
 4914POPC   GL162689  32.757  21.376   5.707
 4914POPC   GL262690  33.030  21.551   5.811
 4914POPC   C1A62691  32.645  21.456   6.131
 4914POPC   D2A62692  32.850  21.488   6.529
 4914POPC   C3A62693  32.672  21.568   6.943
 4914POPC   C4A62694  32.840  21.450   7.341
 4914POPC   C1B62695  33.117  21.246   6.132
 4914POPC   C2B62696  33.139  21.096   6.546
 4914POPC   C3B62697  32.897  21.095   6.934
 4914POPC   C4B62698  33.073  20.948   7.308
 4915POPC   NC362699  12.079  31.247   5.466
 4915POPC   PO462700  11.578  31.648   5.450
 4915POPC   GL162701  11.850  31.594   5.816
 4915POPC   GL262702  11.755  31.270   5.889
 4915POPC   C1A62703  12.193  31.443   6.124
 4915POPC   D2A62704  12.166  31.228   6.517
 4915POPC   C3A62705  12.258  31.411   6.886
 4915POPC   C4A62706  12.104  31.264   7.254
 4915POPC   C1B62707  11.726  31.492   6.308
 4915POPC   C2B62708  11.679  31.454   6.768
 4915POPC   C3B62709  11.767  31.629   7.137
 4915POPC   C4B62710  12.141  31.780   7.237
 4916POPC   NC362711  43.143  19.502   5.401
 4916POPC   PO462712  42.722  18.914   5.362
 4916POPC   GL162713  42.986  18.927   5.757
 4916POPC   GL262714  43.327  19.100   5.750
 4916POPC   C1A62715  43.103  18.834   6.214
 4916POPC   D2A62716  43.286  18.730   6.633
 4916POPC   C3A62717  43.134  18.898   7.008
 4916POPC   C4A62718  43.041  19.062   7.402
 4916POPC   C1B62719  43.062  19.331   6.058
 4916POPC   C2B62720  42.977  19.399   6.475
 4916POPC   C3B62721  42.998  19.388   6.941
 4916POPC   C4B62722  43.241  19.504   7.315
 4917POPC   NC362723  42.235  15.041   5.457
 4917POPC   PO462724  41.887  15.708   5.386
 4917POPC   GL162725  42.176  15.511   5.743
 4917POPC   GL262726  42.512  15.303   5.760
 4917POPC   C1A62727  42.309  15.409   6.190
 4917POPC   D2A62728  42.521  15.405   6.575
 4917POPC   C3A62729  42.276  15.351   6.920
 4917POPC   C4A62730  42.471  15.277   7.282
 4917POPC   C1B62731  42.570  14.979   6.089
 4917POPC   C2B62732  42.706  14.898   6.517
 4917POPC   C3B62733  42.545  14.913   6.933
 4917POPC   C4B62734  42.265  14.710   7.220
 4918POPC   NC362735  25.450  22.636   5.424
 4918POPC   PO462736  25.516  23.249   5.224
 4918POPC   GL162737  25.487  23.117   5.682
 4918POPC   GL262738  25.239  22.833   5.825
 4918POPC   C1A62739  25.506  23.108   6.153
 4918POPC   D2A62740  25.243  22.940   6.484
 4918POPC   C3A62741  25.348  23.058   6.888
 4918POPC   C4A62742  25.049  23.079   7.200
 4918POPC   C1B62743  25.460  22.588   6.155
 4918POPC   C2B62744  25.464  22.496   6.609
 4918POPC   C3B62745  25.153  22.603   6.933
 4918POPC   C4B62746  25.298  22.634   7.360
 4919POPC   NC362747  17.284  43.319   5.339
 4919POPC   PO462748  17.456  42.690   5.363
 4919POPC   GL162749  17.554  43.001   5.665
 4919POPC   GL262750  17.266  42.879   5.858
 4919POPC   C1A62751  17.517  43.258   6.071
 4919POPC   D2A62752  17.335  43.038   6.432
 4919POPC   C3A62753  17.459  43.151   6.821
 4919POPC   C4A62754  17.500  43.137   7.270
 4919POPC   C1B62755  17.701  42.786   6.105
 4919POPC   C2B62756  17.837  42.900   6.541
 4919POPC   C3B62757  17.789  42.788   6.985
 4919POPC   C4B62758  17.671  42.671   7.413
 4920POPC   NC362759  14.507  13.926   5.302
 4920POPC   PO462760  14.162  13.339   5.478
 4920POPC   GL162761  14.302  13.355   5.908
 4920POPC   GL262762  14.454  13.664   5.760
 4920POPC   C1A62763  14.271  13.419   6.363
 4920POPC   D2A62764  14.139  13.743   6.678
 4920POPC   C3A62765  14.208  13.632   7.097
 4920POPC   C4A62766  14.299  13.868   7.423
 4920POPC   C1B62767  14.686  13.682   6.124
 4920POPC   C2B62768  14.649  13.726   6.555
 4920POPC   C3B62769  14.807  13.551   6.922
 4920POPC   C4B62770  14.718  13.599   7.329
 4921POPC   NC362771   6.716   5.830   5.390
 4921POPC   PO462772   6.176   5.511   5.236
 4921POPC   GL162773   6.240   5.633   5.677
 4921POPC   GL262774   6.218   5.989   5.754
 4921POPC   C1A62775   6.490   5.710   6.081
 4921POPC   D2A62776   6.663   5.844   6.480
 4921POPC   C3A62777   6.496   5.756   6.891
 4921POPC   C4A62778   6.631   5.862   7.306
 4921POPC   C1B62779   6.433   6.228   6.096
 4921POPC   C2B62780   6.610   6.363   6.490
 4921POPC   C3B62781   6.590   6.243   6.879
 4921POPC   C4B62782   6.478   6.348   7.271
 4922POPC   NC362783   8.678  43.647   5.526
 4922POPC   PO462784   8.248  43.181   5.425
 4922POPC   GL162785   8.388  43.084   5.844
 4922POPC   GL262786   8.295  43.414   5.874
 4922POPC   C1A62787   8.376  42.908   6.300
 4922POPC   D2A62788   8.560  43.114   6.709
 4922POPC   C3A62789   8.382  42.920   7.073
 4922POPC   C4A62790   7.928  42.932   7.097
 4922POPC   C1B62791   8.379  43.411   6.290
 4922POPC   C2B62792   8.353  43.620   6.659
 4922POPC   C3B62793   8.220  43.408   7.006
 4922POPC   C4B62794   8.401  43.312   7.396
 4923POPC   NC362795   8.770  30.347   5.163
 4923POPC   PO462796   9.329  30.587   5.360
 4923POPC   GL162797   9.048  30.577   5.732
 4923POPC   GL262798   8.770  30.338   5.694
 4923POPC   C1A62799   9.184  30.715   6.117
 4923POPC   D2A62800   9.169  30.920   6.504
 4923POPC   C3A62801   9.190  30.732   6.898
 4923POPC   C4A62802   9.215  30.904   7.291
 4923POPC   C1B62803   8.728  30.494   6.131
 4923POPC   C2B62804   8.965  30.418   6.487
 4923POPC   C3B62805   8.869  30.321   6.893
 4923POPC   C4B62806   8.814  30.573   7.236
 4924POPC   NC362807   0.256  23.567   5.571
 4924POPC   PO462808   0.850  23.886   5.477
 4924POPC   GL162809   0.545  23.937   5.864
 4924POPC   GL262810   0.179  23.812   6.011
 4924POPC   C1A62811   0.580  23.801   6.306
 4924POPC   D2A62812   0.657  23.513   6.622
 4924POPC   C3A62813   0.573  23.607   7.060
 4924POPC   C4A62814   0.469  23.582   7.484
 4924POPC   C1B62815   0.190  23.427   6.298
 4924POPC   C2B62816   0.203  23.365   6.779
 4924POPC   C3B62817   0.042  23.503   7.213
 4924POPC   C4B62818   0.059  23.260   7.633
 4925POPC   NC362819   6.472   1.653   5.557
 4925POPC   PO462820   7.083   1.853   5.426
 4925POPC   GL162821   6.863   1.831   5.878
 4925POPC   GL262822   6.505   1.967   5.954
 4925POPC   C1A62823   6.818   1.926   6.346
 4925POPC   D2A62824   6.805   1.690   6.732
 4925POPC   C3A62825   6.992   1.893   7.060
 4925POPC   C4A62826   6.693   2.172   7.155
 4925POPC   C1B62827   6.233   2.311   6.155
 4925POPC   C2B62828   6.218   2.532   6.559
 4925POPC   C3B62829   6.235   2.313   6.966
 4925POPC   C4B62830   6.249   2.225   7.446
 4926POPC   NC362831  39.655  31.548   5.568
 4926POPC   PO462832  40.314  31.478   5.555
 4926POPC   GL162833  40.192  31.642   5.905
 4926POPC   GL262834  40.124  31.946   5.743
 4926POPC   C1A62835  39.903  31.535   6.237
 4926POPC   D2A62836  39.708  31.241   6.493
 4926POPC   C3A62837  39.931  31.294   6.877
 4926POPC   C4A62838  39.770  31.208   7.245
 4926POPC   C1B62839  39.989  32.032   6.161
 4926POPC   C2B62840  40.157  31.903   6.561
 4926POPC   C3B62841  40.310  31.761   6.954
 4926POPC   C4B62842  40.128  31.560   7.318
 4927POPC   NC362843  18.485  20.667   5.377
 4927POPC   PO462844  17.884  20.997   5.431
 4927POPC   GL162845  18.108  20.779   5.806
 4927POPC   GL262846  18.212  20.425   5.757
 4927POPC   C1A62847  18.287  20.661   6.238
 4927POPC   D2A62848  18.443  20.840   6.621
 4927POPC   C3A62849  18.584  20.687   7.044
 4927POPC   C4A62850  18.441  20.345   7.320
 4927POPC   C1B62851  18.008  20.250   6.135
 4927POPC   C2B62852  18.187  20.243   6.565
 4927POPC   C3B62853  18.122  20.495   6.935
 4927POPC   C4B62854  17.777  20.510   7.211
 4928POPC   NC362855   6.306  26.827   5.315
 4928POPC   PO462856   6.881  27.351   5.406
 4928POPC   GL162857   6.794  26.993   5.733
 4928POPC   GL262858   6.439  27.043   5.750
 4928POPC   C1A62859   6.706  26.660   6.120
 4928POPC   D2A62860   6.632  26.493   6.598
 4928POPC   C3A62861   6.901  26.544   6.997
 4928POPC   C4A62862   6.841  26.398   7.441
 4928POPC   C1B62863   6.556  27.187   6.143
 4928POPC   C2B62864   6.594  26.999   6.494
 4928POPC   C3B62865   6.660  26.974   6.884
 4928POPC   C4B62866   6.612  26.845   7.288
 4929POPC   NC362867  18.652  22.251   5.528
 4929POPC   PO462868  19.220  22.217   5.158
 4929POPC   GL162869  19.117  22.294   5.640
 4929POPC   GL262870  18.960  21.969   5.818
 4929POPC   C1A62871  19.107  22.368   6.098
 4929POPC   D2A62872  18.863  22.211   6.468
 4929POPC   C3A62873  19.015  22.229   6.908
 4929POPC   C4A62874  18.839  22.386   7.304
 4929POPC   C1B62875  19.153  21.853   6.222
 4929POPC   C2B62876  19.012  21.754   6.646
 4929POPC   C3B62877  19.202  21.691   7.012
 4929POPC   C4B62878  19.108  21.922   7.356
 4930POPC   NC362879  21.627  26.433   5.292
 4930POPC   PO462880  21.193  26.986   5.331
 4930POPC   GL162881  21.221  26.801   5.724
 4930POPC   GL262882  21.009  26.511   5.687
 4930POPC   C1A62883  21.380  26.934   6.157
 4930POPC   D2A62884  21.200  27.027   6.588
 4930POPC   C3A62885  21.447  27.055   6.957
 4930POPC   C4A62886  21.548  26.715   7.238
 4930POPC   C1B62887  21.052  26.521   6.127
 4930POPC   C2B62888  21.169  26.510   6.547
 4930POPC   C3B62889  21.109  26.644   6.965
 4930POPC   C4B62890  21.115  26.477   7.378
 4931POPC   NC362891  15.402   9.689   5.463
 4931POPC   PO462892  16.036   9.825   5.461
 4931POPC   GL162893  15.973   9.941   5.893
 4931POPC   GL262894  15.919   9.573   5.949
 4931POPC   C1A62895  15.861   9.881   6.350
 4931POPC   D2A62896  16.125   9.728   6.718
 4931POPC   C3A62897  15.991   9.936   7.089
 4931POPC   C4A62898  15.685   9.841   7.387
 4931POPC   C1B62899  16.179   9.310   6.209
 4931POPC   C2B62900  16.242   9.215   6.630
 4931POPC   C3B62901  16.352   9.347   7.031
 4931POPC   C4B62902  16.016   9.407   7.344
 4932POPC   NC362903  30.358   6.239   5.536
 4932POPC   PO462904  29.746   6.687   5.391
 4932POPC   GL162905  29.980   6.550   5.762
 4932POPC   GL262906  30.234   6.800   5.840
 4932POPC   C1A62907  29.923   6.635   6.213
 4932POPC   D2A62908  30.126   6.862   6.572
 4932POPC   C3A62909  29.849   6.893   6.928
 4932POPC   C4A62910  29.753   6.505   7.138
 4932POPC   C1B62911  29.999   7.134   6.153
 4932POPC   C2B62912  30.183   7.372   6.556
 4932POPC   C3B62913  30.279   7.189   6.994
 4932POPC   C4B62914  30.177   6.837   7.307
 4933POPC   NC362915  32.812  42.188   5.433
 4933POPC   PO462916  33.498  42.233   5.363
 4933POPC   GL162917  33.210  42.181   5.764
 4933POPC   GL262918  32.966  42.421   5.877
 4933POPC   C1A62919  33.152  42.096   6.235
 4933POPC   D2A62920  33.057  42.379   6.612
 4933POPC   C3A62921  33.177  42.285   7.045
 4933POPC   C4A62922  33.248  42.105   7.508
 4933POPC   C1B62923  32.900  42.689   6.244
 4933POPC   C2B62924  32.678  42.769   6.615
 4933POPC   C3B62925  32.780  42.660   7.020
 4933POPC   C4B62926  32.592  42.804   7.359
 4934POPC   NC362927  34.468   5.640   5.275
 4934POPC   PO462928  34.511   6.120   5.568
 4934POPC   GL162929  34.480   5.808   5.859
 4934POPC   GL262930  34.783   5.646   5.755
 4934POPC   C1A62931  34.503   5.772   6.313
 4934POPC   D2A62932  34.295   5.775   6.689
 4934POPC   C3A62933  34.517   5.718   7.059
 4934POPC   C4A62934  34.751   5.992   7.295
 4934POPC   C1B62935  34.970   5.630   6.200
 4934POPC   C2B62936  34.876   5.698   6.668
 4934POPC   C3B62937  35.054   5.640   7.100
 4934POPC   C4B62938  34.999   5.654   7.578
 4935POPC   NC362939   2.896  32.168   5.414
 4935POPC   PO462940   2.614  32.731   5.546
 4935POPC   GL162941   2.904  32.489   5.844
 4935POPC   GL262942   2.943  32.101   5.923
 4935POPC   C1A62943   2.980  32.473   6.277
 4935POPC   D2A62944   2.724  32.398   6.614
 4935POPC   C3A62945   2.853  32.589   6.981
 4935POPC   C4A62946   2.996  32.256   7.239
 4935POPC   C1B62947   2.974  31.953   6.367
 4935POPC   C2B62948   2.918  31.947   6.830
 4935POPC   C3B62949   2.895  31.750   7.249
 4935POPC   C4B62950   3.007  31.956   7.688
 4936POPC   NC362951   1.170  20.412   5.491
 4936POPC   PO462952   1.524  21.061   5.625
 4936POPC   GL162953   1.373  20.694   5.853
 4936POPC   GL262954   1.008  20.696   5.913
 4936POPC   C1A62955   1.467  20.509   6.256
 4936POPC   D2A62956   1.303  20.650   6.648
 4936POPC   C3A62957   1.439  20.587   7.065
 4936POPC   C4A62958   1.561  21.003   7.229
 4936POPC   C1B62959   0.943  20.461   6.288
 4936POPC   C2B62960   1.051  20.226   6.642
 4936POPC   C3B62961   0.885  20.425   6.945
 4936POPC   C4B62962   0.895  20.562   7.326
 4937POPC   NC362963   2.320   9.620   5.508
 4937POPC   PO462964   3.043   9.488   5.411
 4937POPC   GL162965   2.842   9.639   5.758
 4937POPC   GL262966   3.002   9.388   5.936
 4937POPC   C1A62967   2.730   9.832   6.155
 4937POPC   D2A62968   2.729  10.023   6.584
 4937POPC   C3A62969   2.735   9.798   7.000
 4937POPC   C4A62970   2.782  10.066   7.340
 4937POPC   C1B62971   3.032   9.467   6.355
 4937POPC   C2B62972   3.038   9.435   6.784
 4937POPC   C3B62973   3.326   9.532   7.108
 4937POPC   C4B62974   3.021   9.614   7.421
 4938POPC   NC362975  23.529  30.473   5.464
 4938POPC   PO462976  24.068  30.859   5.482
 4938POPC   GL162977  23.837  30.664   5.823
 4938POPC   GL262978  24.076  30.754   5.982
 4938POPC   C1A62979  23.688  30.608   6.280
 4938POPC   D2A62980  23.541  30.407   6.688
 4938POPC   C3A62981  23.730  30.666   6.993
 4938POPC   C4A62982  23.638  31.009   7.266
 4938POPC   C1B62983  24.180  30.428   6.251
 4938POPC   C2B62984  24.054  30.452   6.643
 4938POPC   C3B62985  24.217  30.536   7.010
 4938POPC   C4B62986  24.087  30.780   7.354
 4939POPC   NC362987   6.491  38.947   5.725
 4939POPC   PO462988   6.803  39.525   5.404
 4939POPC   GL162989   6.684  39.619   5.836
 4939POPC   GL262990   6.825  39.292   5.927
 4939POPC   C1A62991   6.568  39.570   6.314
 4939POPC   D2A62992   6.454  39.253   6.672
 4939POPC   C3A62993   6.638  39.300   7.107
 4939POPC   C4A62994   6.623  39.557   7.519
 4939POPC   C1B62995   6.924  39.196   6.371
 4939POPC   C2B62996   6.861  38.923   6.728
 4939POPC   C3B62997   7.000  38.863   7.109
 4939POPC   C4B62998   7.028  39.071   7.432
 4940POPC   NC362999  13.034  16.833   5.405
 4940POPC   PO463000  12.656  16.393   5.154
 4940POPC   GL163001  12.704  16.586   5.687
 4940POPC   GL263002  12.685  16.951   5.800
 4940POPC   C1A63003  12.625  16.607   6.169
 4940POPC   D2A63004  12.697  16.885   6.538
 4940POPC   C3A63005  12.767  16.634   6.929
 4940POPC   C4A63006  12.576  16.527   7.348
 4940POPC   C1B63007  13.010  16.958   6.089
 4940POPC   C2B63008  13.163  17.106   6.491
 4940POPC   C3B63009  13.211  16.928   6.897
 4940POPC   C4B63010  13.036  16.844   7.315
 4941POPC   NC363011  27.164  14.891   5.548
 4941POPC   PO463012  27.848  15.128   5.509
 4941POPC   GL163013  27.588  15.186   5.810
 4941POPC   GL263014  27.368  15.420   5.690
 4941POPC   C1A63015  27.631  15.081   6.226
 4941POPC   D2A63016  27.631  14.878   6.598
 4941POPC   C3A63017  27.688  15.054   6.975
 4941POPC   C4A63018  27.451  15.049   7.329
 4941POPC   C1B63019  27.198  15.364   6.123
 4941POPC   C2B63020  27.036  15.444   6.544
 4941POPC   C3B63021  27.200  15.268   6.907
 4941POPC   C4B63022  27.131  15.448   7.304
 4942POPC   NC363023  31.136  43.947   5.070
 4942POPC   PO463024  31.713  43.824   5.473
 4942POPC   GL163025  31.425  43.951   5.815
 4942POPC   GL263026  31.087  44.056   5.703
 4942POPC   C1A63027  31.483  43.852   6.273
 4942POPC   D2A63028  31.422  43.592   6.627
 4942POPC   C3A63029  31.530  43.755   7.010
 4942POPC   C4A63030  31.494  43.456   7.339
 4942POPC   C1B63031  31.047  44.126   6.190
 4942POPC   C2B63032  31.074  43.981   6.679
 4942POPC   C3B63033  31.069  43.901   7.171
 4942POPC   C4B63034  30.942  44.070   7.592
 4943POPC   NC363035  22.858   5.606   5.391
 4943POPC   PO463036  22.811   6.200   5.382
 4943POPC   GL163037  22.860   5.932   5.789
 4943POPC   GL263038  23.149   5.662   5.808
 4943POPC   C1A63039  23.077   6.025   6.174
 4943POPC   D2A63040  22.990   5.925   6.571
 4943POPC   C3A63041  23.101   6.092   6.958
 4943POPC   C4A63042  22.975   6.057   7.356
 4943POPC   C1B63043  22.986   5.521   6.212
 4943POPC   C2B63044  22.906   5.421   6.647
 4943POPC   C3B63045  22.925   5.609   7.064
 4943POPC   C4B63046  22.742   5.602   7.483
 4944POPC   NC363047  19.489  19.959   5.547
 4944POPC   PO463048  20.077  19.718   5.655
 4944POPC   GL163049  19.925  20.078   5.943
 4944POPC   GL263050  19.573  20.133   6.016
 4944POPC   C1A63051  19.905  20.084   6.411
 4944POPC   D2A63052  20.113  19.797   6.669
 4944POPC   C3A63053  20.007  19.803   7.092
 4944POPC   C4A63054  19.657  19.931   7.334
 4944POPC   C1B63055  19.504  19.789   6.312
 4944POPC   C2B63056  19.572  19.719   6.760
 4944POPC   C3B63057  19.633  19.461   7.115
 4944POPC   C4B63058  19.550  19.498   7.576
 4945POPC   NC363059  31.871  22.137   5.266
 4945POPC   PO463060  32.492  22.116   5.217
 4945POPC   GL163061  32.341  22.037   5.681
 4945POPC   GL263062  32.607  21.866   5.815
 4945POPC   C1A63063  32.294  22.227   6.133
 4945POPC   D2A63064  32.266  22.311   6.585
 4945POPC   C3A63065  31.944  22.253   6.907
 4945POPC   C4A63066  31.939  22.548   7.262
 4945POPC   C1B63067  32.755  21.979   6.201
 4945POPC   C2B63068  32.566  21.902   6.580
 4945POPC   C3B63069  32.484  22.074   6.986
 4945POPC   C4B63070  32.408  22.521   7.054
 4946POPC   NC363071  44.932  11.112   5.689
 4946POPC   PO463072  44.347  10.967   5.376
 4946POPC   GL163073  44.440  11.136   5.818
 4946POPC   GL263074  44.618  11.475   5.851
 4946POPC   C1A63075  44.648  10.951   6.213
 4946POPC   D2A63076  44.530  11.104   6.590
 4946POPC   C3A63077  44.779  11.207   6.920
 4946POPC   C4A63078  44.695  11.056   7.307
 4946POPC   C1B63079  44.763  11.449   6.273
 4946POPC   C2B63080  44.570  11.597   6.647
 4946POPC   C3B63081  44.420  11.516   7.065
 4946POPC   C4B63082  44.717  11.550   7.402
 4947POPC   NC363083  42.639  26.243   5.319
 4947POPC   PO463084  42.003  25.948   5.413
 4947POPC   GL163085  42.128  26.037   5.840
 4947POPC   GL263086  42.448  26.218   5.805
 4947POPC   C1A63087  42.235  26.181   6.274
 4947POPC   D2A63088  42.457  26.280   6.655
 4947POPC   C3A63089  42.227  26.034   6.942
 4947POPC   C4A63090  41.870  26.191   7.155
 4947POPC   C1B63091  42.552  25.838   6.064
 4947POPC   C2B63092  42.554  25.742   6.514
 4947POPC   C3B63093  42.741  25.906   6.892
 4947POPC   C4B63094  42.700  25.847   7.311
 4948POPC   NC363095   3.302   1.389   5.105
 4948POPC   PO463096   3.926   1.186   5.405
 4948POPC   GL163097   3.616   1.213   5.733
 4948POPC   GL263098   3.300   1.036   5.658
 4948POPC   C1A63099   3.533   1.232   6.164
 4948POPC   D2A63100   3.457   1.479   6.520
 4948POPC   C3A63101   3.592   1.334   6.904
 4948POPC   C4A63102   3.514   1.445   7.334
 4948POPC   C1B63103   3.137   0.920   6.109
 4948POPC   C2B63104   3.314   0.922   6.537
 4948POPC   C3B63105   3.189   1.038   6.953
 4948POPC   C4B63106   3.089   1.462   7.062
 4949POPC   NC363107  21.558  13.748   5.468
 4949POPC   PO463108  21.192  13.246   5.563
 4949POPC   GL163109  21.126  13.621   5.824
 4949POPC   GL263110  20.874  13.902   5.901
 4949POPC   C1A63111  21.338  13.851   6.155
 4949POPC   D2A63112  21.627  13.766   6.491
 4949POPC   C3A63113  21.530  13.977   6.850
 4949POPC   C4A63114  21.719  13.849   7.196
 4949POPC   C1B63115  20.877  13.638   6.274
 4949POPC   C2B63116  21.150  13.550   6.636
 4949POPC   C3B63117  21.180  13.651   7.074
 4949POPC   C4B63118  21.204  14.028   7.269
 4950POPC   NC363119  27.013   9.356   5.125
 4950POPC   PO463120  26.628   8.878   5.500
 4950POPC   GL163121  26.652   9.040   5.907
 4950POPC   GL263122  27.013   9.148   5.873
 4950POPC   C1A63123  26.703   9.053   6.367
 4950POPC   D2A63124  27.044   9.129   6.655
 4950POPC   C3A63125  26.899   9.165   7.071
 4950POPC   C4A63126  26.451   9.074   7.138
 4950POPC   C1B63127  27.079   8.735   6.081
 4950POPC   C2B63128  27.037   8.584   6.504
 4950POPC   C3B63129  26.972   8.685   6.922
 4950POPC   C4B63130  26.987   8.717   7.347
 4951POPC   NC363131  34.228   7.179   5.358
 4951POPC   PO463132  33.524   7.239   5.374
 4951POPC   GL163133  33.810   7.264   5.759
 4951POPC   GL263134  34.046   6.976   5.819
 4951POPC   C1A63135  33.888   7.457   6.192
 4951POPC   D2A63136  33.660   7.397   6.601
 4951POPC   C3A63137  33.858   7.508   6.995
 4951POPC   C4A63138  33.643   7.599   7.384
 4951POPC   C1B63139  34.232   7.077   6.227
 4951POPC   C2B63140  34.191   7.330   6.600
 4951POPC   C3B63141  34.222   7.152   7.002
 4951POPC   C4B63142  34.073   7.179   7.435
 4952POPC   NC363143  19.988  26.237   5.376
 4952POPC   PO463144  19.461  25.850   5.438
 4952POPC   GL163145  19.800  25.998   5.800
 4952POPC   GL263146  19.885  26.314   5.928
 4952POPC   C1A63147  19.932  25.953   6.272
 4952POPC   D2A63148  19.862  26.115   6.692
 4952POPC   C3A63149  19.708  25.810   7.032
 4952POPC   C4A63150  20.022  25.698   7.361
 4952POPC   C1B63151  19.496  26.206   6.179
 4952POPC   C2B63152  19.344  26.166   6.621
 4952POPC   C3B63153  19.486  26.311   7.008
 4952POPC   C4B63154  19.913  26.253   7.184
 4953POPC   NC363155  15.235   8.706   5.327
 4953POPC   PO463156  15.141   9.320   5.423
 4953POPC   GL163157  15.167   9.018   5.813
 4953POPC   GL263158  15.422   8.755   5.825
 4953POPC   C1A63159  15.161   8.903   6.276
 4953POPC   D2A63160  15.371   9.034   6.653
 4953POPC   C3A63161  15.126   8.910   6.953
 4953POPC   C4A63162  15.068   8.888   7.369
 4953POPC   C1B63163  15.579   8.628   6.219
 4953POPC   C2B63164  15.473   8.518   6.639
 4953POPC   C3B63165  15.555   8.673   7.060
 4953POPC   C4B63166  15.550   8.621   7.507
 4954POPC   NC363167  12.924  18.638   5.482
 4954POPC   PO463168  12.906  17.945   5.419
 4954POPC   GL163169  12.917  18.206   5.773
 4954POPC   GL263170  12.602  18.333   5.767
 4954POPC   C1A63171  12.965  18.443   6.147
 4954POPC   D2A63172  13.213  18.303   6.475
 4954POPC   C3A63173  13.036  18.378   6.882
 4954POPC   C4A63174  13.166  18.137   7.193
 4954POPC   C1B63175  12.456  18.336   6.166
 4954POPC   C2B63176  12.627  18.416   6.556
 4954POPC   C3B63177  12.489  18.378   6.976
 4954POPC   C4B63178  12.698  18.234   7.329
 4955POPC   NC363179   2.326  39.553   5.423
 4955POPC   PO463180   2.053  38.935   5.248
 4955POPC   GL163181   2.141  39.131   5.705
 4955POPC   GL263182   1.967  39.421   5.799
 4955POPC   C1A63183   1.984  39.085   6.186
 4955POPC   D2A63184   2.164  38.925   6.593
 4955POPC   C3A63185   2.025  39.106   6.996
 4955POPC   C4A63186   1.654  39.258   7.179
 4955POPC   C1B63187   2.040  39.602   6.233
 4955POPC   C2B63188   2.237  39.430   6.613
 4955POPC   C3B63189   2.369  39.537   7.017
 4955POPC   C4B63190   2.126  39.803   7.307
 4956POPC   NC363191  37.661  37.834   5.432
 4956POPC   PO463192  36.980  37.654   5.482
 4956POPC   GL163193  37.299  37.674   5.832
 4956POPC   GL263194  37.605  37.879   5.928
 4956POPC   C1A63195  37.453  37.512   6.246
 4956POPC   D2A63196  37.615  37.820   6.551
 4956POPC   C3A63197  37.709  37.711   6.980
 4956POPC   C4A63198  37.534  37.868   7.319
 4956POPC   C1B63199  37.952  37.645   6.116
 4956POPC   C2B63200  38.115  37.717   6.518
 4956POPC   C3B63201  38.104  38.011   6.870
 4956POPC   C4B63202  38.027  37.986   7.293
 4957POPC   NC363203  10.918  17.520   5.118
 4957POPC   PO463204  11.412  17.180   5.471
 4957POPC   GL163205  11.428  17.442   5.828
 4957POPC   GL263206  11.108  17.584   5.936
 4957POPC   C1A63207  11.553  17.490   6.248
 4957POPC   D2A63208  11.358  17.533   6.623
 4957POPC   C3A63209  11.570  17.517   6.968
 4957POPC   C4A63210  11.479  17.185   7.250
 4957POPC   C1B63211  11.022  17.265   6.282
 4957POPC   C2B63212  10.837  17.144   6.698
 4957POPC   C3B63213  11.019  17.318   7.086
 4957POPC   C4B63214  11.000  17.343   7.536
 4958POPC   NC363215   5.057  19.778   5.303
 4958POPC   PO463216   4.773  19.297   5.678
 4958POPC   GL163217   4.860  19.783   5.795
 4958POPC   GL263218   4.910  20.157   5.699
 4958POPC   C1A63219   5.064  20.018   6.167
 4958POPC   D2A63220   5.045  20.021   6.616
 4958POPC   C3A63221   5.371  19.910   6.898
 4958POPC   C4A63222   5.274  19.557   7.169
 4958POPC   C1B63223   4.599  20.208   6.027
 4958POPC   C2B63224   4.543  20.076   6.443
 4958POPC   C3B63225   4.641  20.166   6.864
 4958POPC   C4B63226   4.916  19.937   7.150
 4959POPC   NC363227   9.026  20.120   5.475
 4959POPC   PO463228   9.133  19.467   5.557
 4959POPC   GL163229   8.794  19.698   5.763
 4959POPC   GL263230   8.793  20.041   5.922
 4959POPC   C1A63231   8.643  19.605   6.177
 4959POPC   D2A63232   8.721  19.778   6.586
 4959POPC   C3A63233   9.020  19.572   6.845
 4959POPC   C4A63234   8.958  19.551   7.266
 4959POPC   C1B63235   9.123  19.856   6.219
 4959POPC   C2B63236   9.236  20.014   6.647
 4959POPC   C3B63237   9.158  20.003   7.103
 4959POPC   C4B63238   9.387  20.182   7.426
 4960POPC   NC363239  15.599  44.839   5.355
 4960POPC   PO463240  15.012  44.590   5.300
 4960POPC   GL163241  15.229  44.688   5.695
 4960POPC   GL263242  14.947  44.678   5.919
 4960POPC   C1A63243  15.373  44.637   6.156
 4960POPC   D2A63244  15.037  44.612   6.486
 4960POPC   C3A63245  15.130  44.798   6.885
 4960POPC   C4A63246  14.977   0.024   7.252
 4960POPC   C1B63247  14.805  44.303   6.127
 4960POPC   C2B63248  14.802  44.148   6.538
 4960POPC   C3B63249  14.917  44.312   6.926
 4960POPC   C4B63250  15.197  44.459   7.251
 4961POPC   NC363251  13.691  30.939   5.086
 4961POPC   PO463252  13.161  30.859   5.477
 4961POPC   GL163253  13.406  30.717   5.845
 4961POPC   GL263254  13.728  30.819   5.721
 4961POPC   C1A63255  13.494  30.722   6.323
 4961POPC   D2A63256  13.638  30.509   6.709
 4961POPC   C3A63257  13.447  30.524   7.142
 4961POPC   C4A63258  13.587  30.624   7.565
 4961POPC   C1B63259  13.835  31.041   6.128
 4961POPC   C2B63260  13.908  31.078   6.581
 4961POPC   C3B63261  13.775  30.939   6.988
 4961POPC   C4B63262  13.986  30.985   7.386
 4962POPC   NC363263  13.827  31.288   5.544
 4962POPC   PO463264  13.225  31.552   5.438
 4962POPC   GL163265  13.491  31.591   5.779
 4962POPC   GL263266  13.422  31.238   5.838
 4962POPC   C1A63267  13.784  31.593   6.116
 4962POPC   D2A63268  13.605  31.508   6.488
 4962POPC   C3A63269  13.738  31.676   6.847
 4962POPC   C4A63270  13.836  31.421   7.159
 4962POPC   C1B63271  13.200  31.370   6.176
 4962POPC   C2B63272  13.226  31.168   6.569
 4962POPC   C3B63273  13.376  31.313   6.960
 4962POPC   C4B63274  13.471  31.106   7.367
 4963POPC   NC363275  10.558  43.047   5.331
 4963POPC   PO463276  10.309  42.800   5.796
 4963POPC   GL163277  10.737  42.943   5.891
 4963POPC   GL263278  10.801  43.273   5.754
 4963POPC   C1A63279  10.789  43.024   6.337
 4963POPC   D2A63280  10.401  43.041   6.606
 4963POPC   C3A63281  10.461  43.019   7.043
 4963POPC   C4A63282  10.207  43.310   7.282
 4963POPC   C1B63283  10.504  43.403   6.081
 4963POPC   C2B63284  10.609  43.514   6.515
 4963POPC   C3B63285  10.592  43.492   6.974
 4963POPC   C4B63286  10.887  43.433   7.303
 4964POPC   NC363287  38.789  34.227   5.528
 4964POPC   PO463288  39.534  34.348   5.487
 4964POPC   GL163289  39.228  34.386   5.786
 4964POPC   GL263290  39.056  34.680   5.662
 4964POPC   C1A63291  39.197  34.313   6.218
 4964POPC   D2A63292  39.451  34.365   6.586
 4964POPC   C3A63293  39.169  34.411   6.881
 4964POPC   C4A63294  39.057  34.292   7.257
 4964POPC   C1B63295  39.026  34.868   6.061
 4964POPC   C2B63296  39.112  34.796   6.496
 4964POPC   C3B63297  39.416  34.868   6.802
 4964POPC   C4B63298  39.328  34.770   7.202
 4965POPC   NC363299  32.275  26.366   5.300
 4965POPC   PO463300  31.706  26.400   5.585
 4965POPC   GL163301  31.928  26.149   5.855
 4965POPC   GL263302  32.173  25.902   5.715
 4965POPC   C1A63303  32.008  26.113   6.282
 4965POPC   D2A63304  32.283  25.923   6.545
 4965POPC   C3A63305  32.301  26.169   6.906
 4965POPC   C4A63306  32.099  26.150   7.277
 4965POPC   C1B63307  32.481  25.821   6.039
 4965POPC   C2B63308  32.633  25.576   6.377
 4965POPC   C3B63309  32.617  25.616   6.828
 4965POPC   C4B63310  32.497  25.818   7.215
 4966POPC   NC363311  19.802  39.016   5.410
 4966POPC   PO463312  19.809  39.653   5.419
 4966POPC   GL163313  19.763  39.370   5.788
 4966POPC   GL263314  20.100  39.209   5.839
 4966POPC   C1A63315  19.739  39.221   6.229
 4966POPC   D2A63316  19.918  39.099   6.618
 4966POPC   C3A63317  19.898  39.357   6.945
 4966POPC   C4A63318  19.571  39.258   7.170
 4966POPC   C1B63319  20.243  38.979   6.222
 4966POPC   C2B63320  20.314  38.797   6.658
 4966POPC   C3B63321  20.158  38.912   7.092
 4966POPC   C4B63322  20.161  39.029   7.545
 4967POPC   NC363323  40.260  21.234   5.555
 4967POPC   PO463324  39.634  21.050   5.628
 4967POPC   GL163325  39.893  21.406   5.875
 4967POPC   GL263326  40.197  21.678   5.918
 4967POPC   C1A63327  40.055  21.397   6.303
 4967POPC   D2A63328  40.050  21.561   6.708
 4967POPC   C3A63329  39.919  21.319   7.047
 4967POPC   C4A63330  39.786  21.415   7.491
 4967POPC   C1B63331  40.331  21.839   6.372
 4967POPC   C2B63332  40.472  21.793   6.823
 4967POPC   C3B63333  40.199  21.722   7.197
 4967POPC   C4B63334  40.274  21.715   7.638
 4968POPC   NC363335  31.327  44.573   5.155
 4968POPC   PO463336  31.817  44.811   5.518
 4968POPC   GL163337  31.561  44.776   5.851
 4968POPC   GL263338  31.357  44.491   5.751
 4968POPC   C1A63339  31.616  44.841   6.296
 4968POPC   D2A63340  31.324  44.882   6.657
 4968POPC   C3A63341  31.499  44.771   7.057
 4968POPC   C4A63342  31.699  44.673   7.453
 4968POPC   C1B63343  31.552  44.344   6.148
 4968POPC   C2B63344  31.500  44.386   6.580
 4968POPC   C3B63345  31.413  44.261   7.001
 4968POPC   C4B63346  31.267  44.394   7.394
 4969POPC   NC363347  44.320  40.751   5.364
 4969POPC   PO463348  43.645  40.912   5.415
 4969POPC   GL163349  43.997  40.904   5.738
 4969POPC   GL263350  44.108  40.561   5.780
 4969POPC   C1A63351  44.091  40.899   6.186
 4969POPC   D2A63352  43.856  41.002   6.557
 4969POPC   C3A63353  44.057  41.150   6.935
 4969POPC   C4A63354  43.858  41.152   7.364
 4969POPC   C1B63355  43.808  40.478   6.071
 4969POPC   C2B63356  43.893  40.432   6.497
 4969POPC   C3B63357  43.712  40.411   6.892
 4969POPC   C4B63358  43.880  40.658   7.234
 4970POPC   NC363359   6.468  31.757   5.525
 4970POPC   PO463360   6.349  31.118   5.374
 4970POPC   GL163361   6.590  31.300   5.744
 4970POPC   GL263362   6.908  31.530   5.697
 4970POPC   C1A63363   6.713  31.224   6.178
 4970POPC   D2A63364   6.679  31.403   6.558
 4970POPC   C3A63365   6.886  31.241   6.905
 4970POPC   C4A63366   6.611  31.062   7.222
 4970POPC   C1B63367   6.806  31.727   6.110
 4970POPC   C2B63368   6.920  31.841   6.540
 4970POPC   C3B63369   6.733  31.779   6.914
 4970POPC   C4B63370   6.780  31.567   7.290
 4971POPC   NC363371  13.291  15.256   5.402
 4971POPC   PO463372  13.953  15.164   5.508
 4971POPC   GL163373  13.627  15.169   5.817
 4971POPC   GL263374  13.419  15.480   5.842
 4971POPC   C1A63375  13.702  15.267   6.226
 4971POPC   D2A63376  13.847  15.151   6.597
 4971POPC   C3A63377  13.723  15.190   7.004
 4971POPC   C4A63378  13.731  14.818   7.319
 4971POPC   C1B63379  13.204  15.431   6.210
 4971POPC   C2B63380  13.394  15.430   6.592
 4971POPC   C3B63381  13.234  15.460   6.948
 4971POPC   C4B63382  13.393  15.511   7.307
 4972POPC   NC363383   8.022  21.980   5.364
 4972POPC   PO463384   8.464  22.543   5.355
 4972POPC   GL163385   8.229  22.341   5.677
 4972POPC   GL263386   8.352  21.985   5.755
 4972POPC   C1A63387   8.092  22.270   6.086
 4972POPC   D2A63388   8.113  22.119   6.500
 4972POPC   C3A63389   8.057  22.344   6.867
 4972POPC   C4A63390   8.134  22.232   7.274
 4972POPC   C1B63391   8.491  21.863   6.160
 4972POPC   C2B63392   8.456  21.762   6.587
 4972POPC   C3B63393   8.436  21.963   6.951
 4972POPC   C4B63394   8.603  21.917   7.335
 4973POPC   NC363395  12.091  20.147   5.433
 4973POPC   PO463396  11.774  20.739   5.297
 4973POPC   GL163397  11.834  20.665   5.787
 4973POPC   GL263398  12.123  20.418   5.859
 4973POPC   C1A63399  11.976  20.727   6.259
 4973POPC   D2A63400  12.284  20.892   6.587
 4973POPC   C3A63401  12.265  20.765   7.050
 4973POPC   C4A63402  12.260  20.987   7.453
 4973POPC   C1B63403  12.310  20.321   6.263
 4973POPC   C2B63404  12.147  20.401   6.672
 4973POPC   C3B63405  11.940  20.327   7.052
 4973POPC   C4B63406  12.056  20.411   7.464
 4974POPC   NC363407   8.270  27.823   5.399
 4974POPC   PO463408   8.452  27.339   5.068
 4974POPC   GL163409   8.400  27.406   5.611
 4974POPC   GL263410   8.092  27.454   5.813
 4974POPC   C1A63411   8.495  27.419   6.100
 4974POPC   D2A63412   8.535  27.455   6.540
 4974POPC   C3A63413   8.273  27.686   6.822
 4974POPC   C4A63414   8.303  27.546   7.233
 4974POPC   C1B63415   8.046  27.622   6.262
 4974POPC   C2B63416   7.809  27.550   6.663
 4974POPC   C3B63417   7.813  27.647   7.102
 4974POPC   C4B63418   7.885  27.517   7.553
 4975POPC   NC363419   5.833  14.952   5.214
 4975POPC   PO463420   6.401  15.291   5.149
 4975POPC   GL163421   5.900  15.346   5.513
 4975POPC   GL263422   5.762  14.998   5.706
 4975POPC   C1A63423   5.805  15.384   6.022
 4975POPC   D2A63424   6.035  15.542   6.407
 4975POPC   C3A63425   5.822  15.499   6.810
 4975POPC   C4A63426   5.761  15.265   7.188
 4975POPC   C1B63427   5.888  14.910   6.150
 4975POPC   C2B63428   5.700  14.980   6.565
 4975POPC   C3B63429   5.840  14.836   6.950
 4975POPC   C4B63430   6.194  14.807   7.234
 4976POPC   NC363431  43.773   2.205   5.264
 4976POPC   PO463432  44.216   1.862   5.524
 4976POPC   GL163433  44.042   2.180   5.774
 4976POPC   GL263434  43.660   2.219   5.774
 4976POPC   C1A63435  43.936   2.173   6.203
 4976POPC   D2A63436  43.944   2.038   6.598
 4976POPC   C3A63437  43.803   2.241   6.961
 4976POPC   C4A63438  43.986   2.118   7.349
 4976POPC   C1B63439  43.473   1.954   6.127
 4976POPC   C2B63440  43.443   2.034   6.597
 4976POPC   C3B63441  43.442   1.874   7.031
 4976POPC   C4B63442  43.520   2.005   7.445
 4977POPC   NC363443  30.090  42.542   5.418
 4977POPC   PO463444  29.508  42.164   5.261
 4977POPC   GL163445  29.606  42.199   5.728
 4977POPC   GL263446  29.900  42.401   5.886
 4977POPC   C1A63447  29.700  42.002   6.156
 4977POPC   D2A63448  29.914  42.127   6.549
 4977POPC   C3A63449  29.726  42.142   6.945
 4977POPC   C4A63450  29.812  42.453   7.252
 4977POPC   C1B63451  30.247  42.368   6.220
 4977POPC   C2B63452  30.416  42.161   6.614
 4977POPC   C3B63453  30.241  42.147   7.055
 4977POPC   C4B63454  30.206  42.273   7.507
 4978POPC   NC363455  29.925   8.107   5.455
 4978POPC   PO463456  29.292   8.251   5.313
 4978POPC   GL163457  29.574   8.357   5.731
 4978POPC   GL263458  29.683   8.049   5.908
 4978POPC   C1A63459  29.928   8.465   6.105
 4978POPC   D2A63460  29.846   8.618   6.528
 4978POPC   C3A63461  30.096   8.481   6.917
 4978POPC   C4A63462  30.220   8.152   7.176
 4978POPC   C1B63463  29.559   8.198   6.316
 4978POPC   C2B63464  29.765   8.146   6.691
 4978POPC   C3B63465  29.742   7.986   7.073
 4978POPC   C4B63466  29.606   7.838   7.441
 4979POPC   NC363467  31.389  23.389   5.507
 4979POPC   PO463468  31.516  22.651   5.449
 4979POPC   GL163469  31.421  22.948   5.794
 4979POPC   GL263470  31.715  23.030   5.930
 4979POPC   C1A63471  31.344  22.883   6.254
 4979POPC   D2A63472  31.477  22.557   6.586
 4979POPC   C3A63473  31.477  22.668   7.041
 4979POPC   C4A63474  31.213  22.922   7.337
 4979POPC   C1B63475  31.852  22.864   6.315
 4979POPC   C2B63476  31.641  23.139   6.600
 4979POPC   C3B63477  31.534  23.184   7.018
 4979POPC   C4B63478  31.732  23.011   7.368
 4980POPC   NC363479   8.678  19.321   5.418
 4980POPC   PO463480   8.014  19.066   5.498
 4980POPC   GL163481   8.123  19.057   5.874
 4980POPC   GL263482   7.935  18.745   5.919
 4980POPC   C1A63483   8.300  19.212   6.231
 4980POPC   D2A63484   8.242  18.995   6.594
 4980POPC   C3A63485   7.929  19.053   6.864
 4980POPC   C4A63486   8.116  19.255   7.211
 4980POPC   C1B63487   8.316  18.689   6.190
 4980POPC   C2B63488   8.498  18.571   6.613
 4980POPC   C3B63489   8.336  18.710   7.029
 4980POPC   C4B63490   7.966  18.768   7.310
 4981POPC   NC363491  35.499   0.616   5.315
 4981POPC   PO463492  34.973   0.779   5.664
 4981POPC   GL163493  35.235   0.548   5.904
 4981POPC   GL263494  35.560   0.723   5.820
 4981POPC   C1A63495  35.216   0.179   6.204
 4981POPC   D2A63496  35.416   0.037   6.614
 4981POPC   C3A63497  35.268   0.258   6.991
 4981POPC   C4A63498  35.299   0.206   7.448
 4981POPC   C1B63499  35.540   0.669   6.273
 4981POPC   C2B63500  35.196   0.588   6.534
 4981POPC   C3B63501  35.188   0.785   6.903
 4981POPC   C4B63502  35.133   0.666   7.304
 4982POPC   NC363503  11.922  40.466   5.215
 4982POPC   PO463504  12.267  40.984   5.444
 4982POPC   GL163505  12.085  40.787   5.826
 4982POPC   GL263506  11.817  40.506   5.786
 4982POPC   C1A63507  12.242  40.706   6.274
 4982POPC   D2A63508  12.071  41.068   6.527
 4982POPC   C3A63509  11.808  41.077   6.888
 4982POPC   C4A63510  11.948  41.179   7.285
 4982POPC   C1B63511  11.743  40.700   6.211
 4982POPC   C2B63512  11.869  40.608   6.627
 4982POPC   C3B63513  12.073  40.669   6.995
 4982POPC   C4B63514  11.738  40.733   7.256
 4983POPC   NC363515  24.333  16.920   5.255
 4983POPC   PO463516  24.917  16.827   5.503
 4983POPC   GL163517  24.723  16.662   5.821
 4983POPC   GL263518  24.431  16.819   5.750
 4983POPC   C1A63519  24.637  16.549   6.222
 4983POPC   D2A63520  24.615  16.801   6.567
 4983POPC   C3A63521  24.537  16.681   6.975
 4983POPC   C4A63522  24.723  16.838   7.326
 4983POPC   C1B63523  24.444  17.090   6.102
 4983POPC   C2B63524  24.213  17.115   6.488
 4983POPC   C3B63525  24.335  17.176   6.915
 4983POPC   C4B63526  24.168  17.141   7.343
 4984POPC   NC363527  38.416   8.465   5.204
 4984POPC   PO463528  38.570   9.076   5.497
 4984POPC   GL163529  38.318   9.100   5.836
 4984POPC   GL263530  38.617   8.984   6.029
 4984POPC   C1A63531  38.127   8.993   6.227
 4984POPC   D2A63532  38.233   8.749   6.573
 4984POPC   C3A63533  38.143   8.989   6.914
 4984POPC   C4A63534  38.134   8.818   7.259
 4984POPC   C1B63535  38.914   9.235   6.299
 4984POPC   C2B63536  38.942   9.227   6.742
 4984POPC   C3B63537  38.655   8.907   6.903
 4984POPC   C4B63538  38.628   8.792   7.297
 4985POPC   NC363539  24.043  23.454   5.529
 4985POPC   PO463540  23.611  23.902   5.241
 4985POPC   GL163541  23.573  23.634   5.659
 4985POPC   GL263542  23.635  23.950   5.768
 4985POPC   C1A63543  23.687  23.616   6.162
 4985POPC   D2A63544  23.851  23.464   6.644
 4985POPC   C3A63545  23.836  23.676   7.050
 4985POPC   C4A63546  23.682  23.785   7.443
 4985POPC   C1B63547  23.394  24.066   6.128
 4985POPC   C2B63548  23.424  23.855   6.526
 4985POPC   C3B63549  23.384  23.881   6.926
 4985POPC   C4B63550  23.484  24.218   7.181
 4986POPC   NC363551  23.319  32.917   5.277
 4986POPC   PO463552  22.668  33.012   5.500
 4986POPC   GL163553  22.975  32.848   5.744
 4986POPC   GL263554  23.153  33.162   5.833
 4986POPC   C1A63555  23.021  32.788   6.187
 4986POPC   D2A63556  22.888  33.049   6.542
 4986POPC   C3A63557  22.993  32.899   6.954
 4986POPC   C4A63558  22.881  33.105   7.322
 4986POPC   C1B63559  23.373  33.157   6.269
 4986POPC   C2B63560  23.352  33.213   6.735
 4986POPC   C3B63561  23.345  33.268   7.199
 4986POPC   C4B63562  23.286  33.194   7.688
 4987POPC   NC363563   8.309  18.708   5.550
 4987POPC   PO463564   8.292  18.140   5.243
 4987POPC   GL163565   8.213  18.222   5.712
 4987POPC   GL263566   8.541  18.096   5.787
 4987POPC   C1A63567   7.942  18.295   6.130
 4987POPC   D2A63568   7.951  18.542   6.520
 4987POPC   C3A63569   7.959  18.289   6.875
 4987POPC   C4A63570   8.139  18.278   7.252
 4987POPC   C1B63571   8.428  18.201   6.224
 4987POPC   C2B63572   8.392  18.059   6.662
 4987POPC   C3B63573   8.522  17.991   7.091
 4987POPC   C4B63574   8.387  18.022   7.596
 4988POPC   NC363575  12.574  28.121   5.464
 4988POPC   PO463576  12.854  28.714   5.364
 4988POPC   GL163577  12.956  28.429   5.746
 4988POPC   GL263578  13.004  28.051   5.753
 4988POPC   C1A63579  12.853  28.452   6.194
 4988POPC   D2A63580  12.475  28.360   6.457
 4988POPC   C3A63581  12.525  28.433   6.905
 4988POPC   C4A63582  12.854  28.496   7.220
 4988POPC   C1B63583  12.695  27.974   6.085
 4988POPC   C2B63584  12.804  27.937   6.489
 4988POPC   C3B63585  12.966  28.161   6.823
 4988POPC   C4B63586  12.784  28.006   7.188
 4989POPC   NC363587  13.084  26.359   5.411
 4989POPC   PO463588  12.558  25.991   5.321
 4989POPC   GL163589  12.639  26.204   5.706
 4989POPC   GL263590  12.984  26.178   5.887
 4989POPC   C1A63591  12.520  26.296   6.140
 4989POPC   D2A63592  12.741  26.143   6.525
 4989POPC   C3A63593  12.737  26.234   6.973
 4989POPC   C4A63594  12.453  25.977   7.209
 4989POPC   C1B63595  13.120  25.921   6.275
 4989POPC   C2B63596  13.131  25.870   6.751
 4989POPC   C3B63597  13.256  25.884   7.210
 4989POPC   C4B63598  13.363  26.158   7.572
 4990POPC   NC363599  24.200  36.714   5.509
 4990POPC   PO463600  24.616  37.234   5.518
 4990POPC   GL163601  24.526  36.949   5.871
 4990POPC   GL263602  24.359  36.590   5.976
 4990POPC   C1A63603  24.302  37.035   6.248
 4990POPC   D2A63604  24.289  36.801   6.624
 4990POPC   C3A63605  24.553  36.852   6.965
 4990POPC   C4A63606  24.501  36.718   7.376
 4990POPC   C1B63607  24.678  36.673   6.298
 4990POPC   C2B63608  24.935  36.710   6.684
 4990POPC   C3B63609  24.915  36.516   7.105
 4990POPC   C4B63610  24.925  36.528   7.587
 4991POPC   NC363611  31.158   6.692   5.587
 4991POPC   PO463612  31.754   6.508   5.407
 4991POPC   GL163613  31.629   6.710   5.828
 4991POPC   GL263614  31.819   6.992   5.940
 4991POPC   C1A63615  31.653   6.681   6.316
 4991POPC   D2A63616  31.920   6.626   6.690
 4991POPC   C3A63617  31.713   6.347   6.954
 4991POPC   C4A63618  31.472   6.537   7.215
 4991POPC   C1B63619  31.379   7.066   6.127
 4991POPC   C2B63620  31.168   6.978   6.531
 4991POPC   C3B63621  31.312   6.961   6.953
 4991POPC   C4B63622  31.091   6.838   7.324
 4992POPC   NC363623   3.092  29.206   5.533
 4992POPC   PO463624   2.631  29.202   5.033
 4992POPC   GL163625   2.618  29.323   5.634
 4992POPC   GL263626   2.747  29.046   5.894
 4992POPC   C1A63627   2.778  29.435   6.178
 4992POPC   D2A63628   2.931  29.500   6.645
 4992POPC   C3A63629   2.705  29.425   7.039
 4992POPC   C4A63630   2.798  29.108   7.324
 4992POPC   C1B63631   2.972  28.997   6.349
 4992POPC   C2B63632   2.934  28.996   6.810
 4992POPC   C3B63633   3.121  28.762   7.135
 4992POPC   C4B63634   3.015  28.624   7.520
 4993POPC   NC363635   0.653  36.604   5.582
 4993POPC   PO463636   1.124  36.021   5.511
 4993POPC   GL163637   1.403  36.092   5.888
 4993POPC   GL263638   1.732  36.318   5.899
 4993POPC   C1A63639   1.302  36.146   6.298
 4993POPC   D2A63640   1.062  36.097   6.654
 4993POPC   C3A63641   1.308  36.116   6.999
 4993POPC   C4A63642   1.116  36.167   7.347
 4993POPC   C1B63643   1.672  36.526   6.288
 4993POPC   C2B63644   1.465  36.464   6.675
 4993POPC   C3B63645   1.737  36.410   7.045
 4993POPC   C4B63646   1.601  36.247   7.430
 4994POPC   NC363647  15.408  20.590   5.391
 4994POPC   PO463648  16.083  20.891   5.120
 4994POPC   GL163649  15.890  20.796   5.573
 4994POPC   GL263650  15.605  20.975   5.684
 4994POPC   C1A63651  15.861  20.589   6.047
 4994POPC   D2A63652  16.193  20.585   6.418
 4994POPC   C3A63653  16.145  20.444   6.853
 4994POPC   C4A63654  15.851  20.513   7.179
 4994POPC   C1B63655  15.604  21.023   6.131
 4994POPC   C2B63656  15.575  20.805   6.533
 4994POPC   C3B63657  15.425  20.698   6.957
 4994POPC   C4B63658  15.563  20.955   7.291
 4995POPC   NC363659  42.968  40.390   5.618
 4995POPC   PO463660  43.414  39.941   5.476
 4995POPC   GL163661  43.153  39.729   5.800
 4995POPC   GL263662  42.835  39.926   5.837
 4995POPC   C1A63663  43.075  39.760   6.257
 4995POPC   D2A63664  43.176  39.733   6.664
 4995POPC   C3A63665  43.123  40.099   6.908
 4995POPC   C4A63666  43.041  40.098   7.323
 4995POPC   C1B63667  42.708  40.144   6.248
 4995POPC   C2B63668  42.734  40.349   6.672
 4995POPC   C3B63669  42.620  40.261   7.106
 4995POPC   C4B63670  42.668  40.339   7.589
 4996POPC   NC363671  23.233  42.927   5.375
 4996POPC   PO463672  23.838  43.180   5.579
 4996POPC   GL163673  23.712  43.055   5.938
 4996POPC   GL263674  23.392  43.039   5.850
 4996POPC   C1A63675  23.582  43.069   6.357
 4996POPC   D2A63676  23.784  42.905   6.713
 4996POPC   C3A63677  23.591  43.070   7.088
 4996POPC   C4A63678  23.474  43.224   7.537
 4996POPC   C1B63679  23.309  42.702   6.085
 4996POPC   C2B63680  23.286  42.655   6.521
 4996POPC   C3B63681  23.164  42.745   6.938
 4996POPC   C4B63682  23.337  42.725   7.335
 4997POPC   NC363683  13.127   1.610   5.305
 4997POPC   PO463684  12.555   1.437   5.621
 4997POPC   GL163685  12.947   1.438   5.767
 4997POPC   GL263686  13.002   1.087   5.820
 4997POPC   C1A63687  13.089   1.557   6.164
 4997POPC   D2A63688  12.885   1.521   6.580
 4997POPC   C3A63689  13.084   1.521   7.000
 4997POPC   C4A63690  13.098   1.343   7.441
 4997POPC   C1B63691  12.735   1.166   6.200
 4997POPC   C2B63692  12.557   1.121   6.591
 4997POPC   C3B63693  12.660   1.248   6.973
 4997POPC   C4B63694  12.582   1.219   7.405
 4998POPC   NC363695  11.711   6.776   5.480
 4998POPC   PO463696  12.435   6.588   5.397
 4998POPC   GL163697  12.182   6.479   5.776
 4998POPC   GL263698  11.828   6.414   5.799
 4998POPC   C1A63699  12.079   6.559   6.220
 4998POPC   D2A63700  12.230   6.702   6.603
 4998POPC   C3A63701  12.129   6.417   6.911
 4998POPC   C4A63702  12.145   6.575   7.316
 4998POPC   C1B63703  11.569   6.529   6.185
 4998POPC   C2B63704  11.709   6.622   6.641
 4998POPC   C3B63705  11.686   6.640   7.121
 4998POPC   C4B63706  11.758   6.774   7.589
 4999POPC   NC363707   2.695  11.453   5.426
 4999POPC   PO463708   2.427  10.793   5.508
 4999POPC   GL163709   2.488  11.181   5.812
 4999POPC   GL263710   2.855  11.159   5.852
 4999POPC   C1A63711   2.656  11.532   6.128
 4999POPC   D2A63712   2.906  11.603   6.536
 4999POPC   C3A63713   2.728  11.424   6.930
 4999POPC   C4A63714   2.892  11.318   7.328
 4999POPC   C1B63715   2.746  11.028   6.263
 4999POPC   C2B63716   2.637  10.935   6.678
 4999POPC   C3B63717   2.764  10.912   7.044
 4999POPC   C4B63718   2.447  11.026   7.337
 5000POPC   NC363719   3.749   8.475   5.655
 5000POPC   PO463720   3.295   8.028   5.453
 5000POPC   GL163721   3.294   8.218   5.861
 5000POPC   GL263722   3.594   8.065   5.907
 5000POPC   C1A63723   3.390   8.450   6.264
 5000POPC   D2A63724   3.196   8.557   6.666
 5000POPC   C3A63725   3.319   8.306   6.972
 5000POPC   C4A63726   3.697   8.392   7.162
 5000POPC   C1B63727   3.484   7.928   6.304
 5000POPC   C2B63728   3.694   8.049   6.686
 5000POPC   C3B63729   3.628   7.889   7.091
 5000POPC   C4B63730   3.264   7.954   7.341
 5001POPC   NC363731  31.886  14.732   5.529
 5001POPC   PO463732  32.164  14.067   5.477
 5001POPC   GL163733  32.288  14.248   5.861
 5001POPC   GL263734  32.432  13.909   5.907
 5001POPC   C1A63735  32.358  14.528   6.242
 5001POPC   D2A63736  32.553  14.387   6.679
 5001POPC   C3A63737  32.262  14.502   7.028
 5001POPC   C4A63738  32.057  14.767   7.332
 5001POPC   C1B63739  32.412  14.038   6.313
 5001POPC   C2B63740  32.127  14.051   6.661
 5001POPC   C3B63741  31.953  14.075   7.045
 5001POPC   C4B63742  32.348  14.017   7.207
 5002POPC   NC363743  24.920   2.240   5.707
 5002POPC   PO463744  25.512   2.244   5.367
 5002POPC   GL163745  25.527   1.984   5.716
 5002POPC   GL263746  25.232   1.805   5.704
 5002POPC   C1A63747  25.407   2.122   6.137
 5002POPC   D2A63748  25.150   2.062   6.497
 5002POPC   C3A63749  25.308   2.254   6.867
 5002POPC   C4A63750  25.345   1.976   7.178
 5002POPC   C1B63751  25.226   1.633   6.123
 5002POPC   C2B63752  25.116   1.461   6.515
 5002POPC   C3B63753  25.092   1.609   6.915
 5002POPC   C4B63754  24.743   1.708   7.155
 5003POPC   NC363755  10.480  22.218   5.462
 5003POPC   PO463756  11.004  21.893   5.804
 5003POPC   GL163757  10.743  22.225   5.921
 5003POPC   GL263758  10.381  22.242   5.957
 5003POPC   C1A63759  10.661  22.237   6.378
 5003POPC   D2A63760  10.481  22.314   6.778
 5003POPC   C3A63761  10.624  22.059   7.137
 5003POPC   C4A63762  10.774  22.222   7.535
 5003POPC   C1B63763  10.170  21.988   6.294
 5003POPC   C2B63764  10.061  22.030   6.725
 5003POPC   C3B63765  10.112  21.968   7.175
 5003POPC   C4B63766  10.291  22.086   7.570
 5004POPC   NC363767   8.729  24.289   5.382
 5004POPC   PO463768   9.281  24.634   5.363
 5004POPC   GL163769   9.165  24.639   5.795
 5004POPC   GL263770   8.820  24.560   5.825
 5004POPC   C1A63771   9.174  24.408   6.188
 5004POPC   D2A63772   9.287  24.141   6.541
 5004POPC   C3A63773   9.237  24.358   6.921
 5004POPC   C4A63774   9.085  24.551   7.259
 5004POPC   C1B63775   8.679  24.562   6.253
 5004POPC   C2B63776   8.790  24.296   6.618
 5004POPC   C3B63777   8.672  24.332   7.058
 5004POPC   C4B63778   8.613  24.752   7.284
 5005POPC   NC363779   3.228  35.340   5.598
 5005POPC   PO463780   2.522  35.195   5.524
 5005POPC   GL163781   2.784  35.246   5.853
 5005POPC   GL263782   2.794  35.601   5.807
 5005POPC   C1A63783   2.674  35.335   6.259
 5005POPC   D2A63784   2.416  35.348   6.619
 5005POPC   C3A63785   2.687  35.366   6.940
 5005POPC   C4A63786   2.856  35.285   7.306
 5005POPC   C1B63787   3.043  35.683   6.176
 5005POPC   C2B63788   3.059  35.517   6.599
 5005POPC   C3B63789   3.083  35.667   6.965
 5005POPC   C4B63790   3.263  35.599   7.307
 5006POPC   NC363791  27.791  20.459   5.702
 5006POPC   PO463792  27.271  20.648   5.310
 5006POPC   GL163793  27.372  20.739   5.769
 5006POPC   GL263794  27.381  20.412   6.013
 5006POPC   C1A63795  27.508  20.863   6.198
 5006POPC   D2A63796  27.412  20.607   6.544
 5006POPC   C3A63797  27.422  20.818   6.888
 5006POPC   C4A63798  27.377  20.656   7.255
 5006POPC   C1B63799  27.738  20.316   6.293
 5006POPC   C2B63800  27.784  20.207   6.642
 5006POPC   C3B63801  27.647  20.339   6.977
 5006POPC   C4B63802  27.844  20.216   7.312
 5007POPC   NC363803  22.227  13.810   5.251
 5007POPC   PO463804  21.863  13.292   5.460
 5007POPC   GL163805  22.008  13.641   5.695
 5007POPC   GL263806  22.367  13.697   5.744
 5007POPC   C1A63807  21.984  13.753   6.117
 5007POPC   D2A63808  22.261  13.773   6.481
 5007POPC   C3A63809  22.067  13.673   6.872
 5007POPC   C4A63810  21.931  13.400   7.231
 5007POPC   C1B63811  22.398  13.426   6.124
 5007POPC   C2B63812  22.556  13.355   6.564
 5007POPC   C3B63813  22.366  13.277   6.995
 5007POPC   C4B63814  22.562  13.247   7.407
 5008POPC   NC363815  24.627  22.221   5.325
 5008POPC   PO463816  24.059  22.259   5.477
 5008POPC   GL163817  24.390  22.358   5.779
 5008POPC   GL263818  24.556  22.033   5.837
 5008POPC   C1A63819  24.445  22.403   6.238
 5008POPC   D2A63820  24.544  22.137   6.596
 5008POPC   C3A63821  24.600  22.412   6.925
 5008POPC   C4A63822  24.285  22.544   7.184
 5008POPC   C1B63823  24.773  21.832   6.215
 5008POPC   C2B63824  24.797  21.679   6.659
 5008POPC   C3B63825  24.680  21.842   7.084
 5008POPC   C4B63826  24.260  22.047   7.096
 5009POPC   NC363827   8.581  28.685   5.581
 5009POPC   PO463828   8.908  28.217   5.214
 5009POPC   GL163829   9.027  28.439   5.678
 5009POPC   GL263830   8.758  28.295   5.863
 5009POPC   C1A63831   8.902  28.672   6.146
 5009POPC   D2A63832   8.816  28.448   6.555
 5009POPC   C3A63833   8.825  28.500   6.997
 5009POPC   C4A63834   9.155  28.536   7.288
 5009POPC   C1B63835   9.069  28.186   6.179
 5009POPC   C2B63836   9.165  28.045   6.588
 5009POPC   C3B63837   9.042  28.017   7.004
 5009POPC   C4B63838   9.130  27.914   7.404
 5010POPC   NC363839  39.838  17.752   5.566
 5010POPC   PO463840  40.301  17.280   5.458
 5010POPC   GL163841  40.178  17.460   5.841
 5010POPC   GL263842  39.818  17.313   5.823
 5010POPC   C1A63843  40.321  17.648   6.257
 5010POPC   D2A63844  40.314  17.450   6.670
 5010POPC   C3A63845  40.030  17.612   6.982
 5010POPC   C4A63846  39.935  17.828   7.361
 5010POPC   C1B63847  39.915  17.271   6.254
 5010POPC   C2B63848  39.756  17.256   6.645
 5010POPC   C3B63849  39.884  17.115   7.007
 5010POPC   C4B63850  39.766  17.344   7.342
 5011POPC   NC363851  14.919  42.520   5.520
 5011POPC   PO463852  15.525  42.290   5.593
 5011POPC   GL163853  15.173  42.208   5.855
 5011POPC   GL263854  14.885  41.978   5.690
 5011POPC   C1A63855  15.018  42.526   6.170
 5011POPC   D2A63856  15.157  42.798   6.523
 5011POPC   C3A63857  15.216  42.538   6.873
 5011POPC   C4A63858  15.076  42.334   7.278
 5011POPC   C1B63859  14.799  42.042   6.144
 5011POPC   C2B63860  15.135  42.106   6.438
 5011POPC   C3B63861  15.119  42.041   6.865
 5011POPC   C4B63862  14.753  41.963   7.157
 5012POPC   NC363863  31.814  28.037   5.667
 5012POPC   PO463864  32.145  28.532   5.298
 5012POPC   GL163865  32.365  28.561   5.736
 5012POPC   GL263866  32.180  28.336   5.922
 5012POPC   C1A63867  32.577  28.468   6.180
 5012POPC   D2A63868  32.380  28.379   6.581
 5012POPC   C3A63869  32.608  28.562   6.898
 5012POPC   C4A63870  32.577  28.395   7.307
 5012POPC   C1B63871  32.147  28.713   6.239
 5012POPC   C2B63872  31.989  28.720   6.659
 5012POPC   C3B63873  32.148  28.667   7.082
 5012POPC   C4B63874  31.942  28.717   7.469
 5013POPC   NC363875  36.530  12.970   5.338
 5013POPC   PO463876  37.058  12.613   5.573
 5013POPC   GL163877  36.801  12.858   5.857
 5013POPC   GL263878  36.469  13.011   5.845
 5013POPC   C1A63879  36.794  12.737   6.279
 5013POPC   D2A63880  37.119  12.534   6.533
 5013POPC   C3A63881  37.175  12.788   6.897
 5013POPC   C4A63882  36.822  12.783   7.172
 5013POPC   C1B63883  36.570  13.224   6.207
 5013POPC   C2B63884  36.724  13.118   6.639
 5013POPC   C3B63885  36.524  13.183   7.025
 5013POPC   C4B63886  36.638  13.194   7.444
 5014POPC   NC363887  12.659  39.486   5.378
 5014POPC   PO463888  13.123  39.046   5.150
 5014POPC   GL163889  12.987  39.139   5.618
 5014POPC   GL263890  12.888  39.445   5.824
 5014POPC   C1A63891  12.937  39.020   6.071
 5014POPC   D2A63892  12.940  39.229   6.461
 5014POPC   C3A63893  13.017  38.975   6.823
 5014POPC   C4A63894  12.973  39.157   7.200
 5014POPC   C1B63895  13.215  39.523   6.126
 5014POPC   C2B63896  13.282  39.640   6.540
 5014POPC   C3B63897  13.015  39.534   6.869
 5014POPC   C4B63898  12.893  39.700   7.271
 5015POPC   NC363899   5.726  38.514   5.470
 5015POPC   PO463900   6.314  38.070   5.484
 5015POPC   GL163901   6.190  38.387   5.810
 5015POPC   GL263902   5.863  38.559   5.939
 5015POPC   C1A63903   6.241  38.467   6.254
 5015POPC   D2A63904   6.250  38.717   6.627
 5015POPC   C3A63905   6.098  38.460   6.973
 5015POPC   C4A63906   6.353  38.353   7.283
 5015POPC   C1B63907   5.554  38.579   6.233
 5015POPC   C2B63908   5.735  38.649   6.623
 5015POPC   C3B63909   5.837  38.897   6.954
 5015POPC   C4B63910   5.660  38.586   7.235
 5016POPC   NC363911  27.878  15.590   5.508
 5016POPC   PO463912  27.727  16.246   5.489
 5016POPC   GL163913  27.645  16.214   5.927
 5016POPC   GL263914  27.555  15.887   5.824
 5016POPC   C1A63915  27.756  16.043   6.344
 5016POPC   D2A63916  27.739  16.150   6.789
 5016POPC   C3A63917  27.393  16.166   7.053
 5016POPC   C4A63918  27.648  16.002   7.323
 5016POPC   C1B63919  27.674  15.583   6.132
 5016POPC   C2B63920  27.550  15.504   6.544
 5016POPC   C3B63921  27.503  15.676   6.934
 5016POPC   C4B63922  27.635  15.505   7.285
 5017POPC   NC363923   9.610  38.517   5.592
 5017POPC   PO463924  10.158  38.274   5.310
 5017POPC   GL163925  10.056  38.348   5.814
 5017POPC   GL263926   9.920  38.686   5.961
 5017POPC   C1A63927   9.873  38.256   6.278
 5017POPC   D2A63928   9.889  38.067   6.720
 5017POPC   C3A63929   9.658  38.233   7.091
 5017POPC   C4A63930   9.732  38.427   7.500
 5017POPC   C1B63931   9.576  38.678   6.282
 5017POPC   C2B63932   9.608  38.610   6.727
 5017POPC   C3B63933   9.773  38.760   7.109
 5017POPC   C4B63934   9.526  38.873   7.485
 5018POPC   NC363935  22.686  39.545   5.598
 5018POPC   PO463936  23.097  39.951   5.220
 5018POPC   GL163937  23.047  39.924   5.707
 5018POPC   GL263938  22.701  40.057   5.755
 5018POPC   C1A63939  23.154  39.918   6.198
 5018POPC   D2A63940  23.256  39.973   6.670
 5018POPC   C3A63941  22.898  40.207   6.915
 5018POPC   C4A63942  22.617  40.167   7.271
 5018POPC   C1B63943  22.632  39.906   6.181
 5018POPC   C2B63944  22.764  39.853   6.573
 5018POPC   C3B63945  22.724  39.737   6.986
 5018POPC   C4B63946  22.550  39.396   7.105
 5019POPC   NC363947  40.283   8.616   5.078
 5019POPC   PO463948  40.347   9.197   5.480
 5019POPC   GL163949  40.049   8.866   5.616
 5019POPC   GL263950  40.279   8.609   5.704
 5019POPC   C1A63951  39.805   8.844   6.017
 5019POPC   D2A63952  39.910   9.129   6.378
 5019POPC   C3A63953  39.902   9.006   6.829
 5019POPC   C4A63954  40.020   9.239   7.206
 5019POPC   C1B63955  40.317   8.869   6.092
 5019POPC   C2B63956  40.397   8.874   6.548
 5019POPC   C3B63957  40.379   8.949   7.002
 5019POPC   C4B63958  40.185   8.756   7.382
 5020POPC   NC363959  37.139  30.659   5.678
 5020POPC   PO463960  37.760  30.657   5.374
 5020POPC   GL163961  37.867  30.491   5.787
 5020POPC   GL263962  37.588  30.660   5.910
 5020POPC   C1A63963  37.916  30.545   6.258
 5020POPC   D2A63964  37.753  30.795   6.569
 5020POPC   C3A63965  37.759  30.644   6.981
 5020POPC   C4A63966  37.872  30.241   7.124
 5020POPC   C1B63967  37.472  31.005   6.188
 5020POPC   C2B63968  37.317  31.067   6.631
 5020POPC   C3B63969  37.389  31.143   7.072
 5020POPC   C4B63970  37.536  31.062   7.521
 5021POPC   NC363971  28.241  10.898   5.239
 5021POPC   PO463972  28.508  11.513   5.452
 5021POPC   GL163973  28.253  11.409   5.831
 5021POPC   GL263974  28.007  11.652   5.932
 5021POPC   C1A63975  28.282  11.413   6.314
 5021POPC   D2A63976  28.113  11.426   6.742
 5021POPC   C3A63977  28.243  11.167   7.102
 5021POPC   C4A63978  28.527  10.831   7.132
 5021POPC   C1B63979  28.442  11.853   6.098
 5021POPC   C2B63980  28.672  11.804   6.504
 5021POPC   C3B63981  28.625  11.494   6.846
 5021POPC   C4B63982  28.530  11.551   7.281
 5022POPC   NC363983  22.096   4.505   5.472
 5022POPC   PO463984  21.885   3.830   5.325
 5022POPC   GL163985  22.148   3.892   5.739
 5022POPC   GL263986  22.005   4.167   5.853
 5022POPC   C1A63987  22.274   4.009   6.240
 5022POPC   D2A63988  22.223   4.307   6.620
 5022POPC   C3A63989  22.312   4.050   6.957
 5022POPC   C4A63990  22.620   4.140   7.224
 5022POPC   C1B63991  22.121   4.499   6.144
 5022POPC   C2B63992  21.882   4.696   6.475
 5022POPC   C3B63993  21.783   4.605   6.894
 5022POPC   C4B63994  22.027   4.395   7.197
 5023POPC   NC363995  34.144  35.427   5.399
 5023POPC   PO463996  34.791  35.592   5.247
 5023POPC   GL163997  34.863  35.356   5.655
 5023POPC   GL263998  34.510  35.276   5.781
 5023POPC   C1A63999  34.883  35.417   6.118
 5023POPC   D2A64000  34.648  35.350   6.503
 5023POPC   C3A64001  34.884  35.272   6.893
 5023POPC   C4A64002  34.918  35.320   7.344
 5023POPC   C1B64003  34.331  35.573   6.118
 5023POPC   C2B64004  34.170  35.576   6.566
 5023POPC   C3B64005  34.443  35.543   6.925
 5023POPC   C4B64006  34.413  35.386   7.302
 5024POPC   NC364007  23.369  12.426   5.479
 5024POPC   PO464008  23.500  13.095   5.309
 5024POPC   GL164009  23.589  13.033   5.746
 5024POPC   GL264010  23.548  12.696   5.848
 5024POPC   C1A64011  23.764  13.034   6.189
 5024POPC   D2A64012  23.934  12.837   6.561
 5024POPC   C3A64013  23.813  13.087   6.925
 5024POPC   C4A64014  23.707  12.977   7.365
 5024POPC   C1B64015  23.596  12.503   6.229
 5024POPC   C2B64016  23.619  12.416   6.638
 5024POPC   C3B64017  23.711  12.603   7.001
 5024POPC   C4B64018  23.994  12.562   7.323
 5025POPC   NC364019   6.104   0.288   5.649
 5025POPC   PO464020   5.544   0.242   5.364
 5025POPC   GL164021   5.630   0.464   5.871
 5025POPC   GL264022   5.989   0.510   6.064
 5025POPC   C1A64023   5.686   0.795   6.280
 5025POPC   D2A64024   5.968   0.662   6.619
 5025POPC   C3A64025   5.861   0.524   7.060
 5025POPC   C4A64026   6.064   0.510   7.510
 5025POPC   C1B64027   5.801   0.217   6.343
 5025POPC   C2B64028   6.052  44.857   6.488
 5025POPC   C3B64029   6.223  44.810   6.897
 5025POPC   C4B64030   6.159   0.134   7.171
 5026POPC   NC364031  43.616  30.926   5.244
 5026POPC   PO464032  43.768  30.286   5.348
 5026POPC   GL164033  43.998  30.560   5.694
 5026POPC   GL264034  44.130  30.927   5.621
 5026POPC   C1A64035  43.987  30.605   6.176
 5026POPC   D2A64036  44.040  30.548   6.648
 5026POPC   C3A64037  43.615  30.580   6.891
 5026POPC   C4A64038  43.508  30.921   7.186
 5026POPC   C1B64039  44.093  31.103   6.049
 5026POPC   C2B64040  43.902  31.034   6.487
 5026POPC   C3B64041  43.954  30.959   6.940
 5026POPC   C4B64042  43.999  31.154   7.326
 5027POPC   NC364043  37.260   0.582   5.444
 5027POPC   PO464044  36.662   0.369   5.543
 5027POPC   GL164045  36.926   0.533   5.821
 5027POPC   GL264046  37.108   0.229   5.789
 5027POPC   C1A64047  36.877   0.724   6.196
 5027POPC   D2A64048  36.881   0.467   6.567
 5027POPC   C3A64049  36.695   0.420   6.968
 5027POPC   C4A64050  36.881   0.544   7.328
 5027POPC   C1B64051  37.242   0.357   6.185
 5027POPC   C2B64052  37.359   0.286   6.572
 5027POPC   C3B64053  37.214   0.400   6.952
 5027POPC   C4B64054  37.399   0.486   7.320
 5028POPC   NC364055  17.922  42.679   5.425
 5028POPC   PO464056  18.310  43.210   5.350
 5028POPC   GL164057  18.065  43.168   5.693
 5028POPC   GL264058  18.248  42.893   5.767
 5028POPC   C1A64059  18.036  43.174   6.145
 5028POPC   D2A64060  17.969  43.387   6.531
 5028POPC   C3A64061  18.088  43.205   6.929
 5028POPC   C4A64062  18.010  43.126   7.369
 5028POPC   C1B64063  18.552  43.031   6.095
 5028POPC   C2B64064  18.417  43.128   6.515
 5028POPC   C3B64065  18.606  43.132   6.887
 5028POPC   C4B64066  18.511  43.012   7.250
 5029POPC   NC364067  32.905  10.944   4.995
 5029POPC   PO464068  33.192  10.639   5.512
 5029POPC   GL164069  33.206  10.838   5.887
 5029POPC   GL264070  32.980  10.569   5.964
 5029POPC   C1A64071  33.077  10.914   6.307
 5029POPC   D2A64072  33.230  10.584   6.553
 5029POPC   C3A64073  33.057  10.659   6.971
 5029POPC   C4A64074  33.226  10.531   7.380
 5029POPC   C1B64075  32.787  10.297   6.212
 5029POPC   C2B64076  32.762  10.416   6.621
 5029POPC   C3B64077  32.722  10.277   7.016
 5029POPC   C4B64078  32.737  10.435   7.425
 5030POPC   NC364079  37.557  36.208   5.362
 5030POPC   PO464080  37.990  36.651   5.399
 5030POPC   GL164081  37.796  36.374   5.756
 5030POPC   GL264082  37.934  36.022   5.683
 5030POPC   C1A64083  37.665  36.269   6.175
 5030POPC   D2A64084  37.832  36.362   6.612
 5030POPC   C3A64085  37.733  36.025   6.909
 5030POPC   C4A64086  37.560  35.890   7.302
 5030POPC   C1B64087  38.162  35.883   6.061
 5030POPC   C2B64088  38.154  35.943   6.510
 5030POPC   C3B64089  38.246  36.035   6.938
 5030POPC   C4B64090  38.029  36.168   7.306
 5031POPC   NC364091  32.999  41.405   5.339
 5031POPC   PO464092  33.522  41.268   5.624
 5031POPC   GL164093  33.139  41.396   5.859
 5031POPC   GL264094  32.974  41.720   5.784
 5031POPC   C1A64095  33.064  41.421   6.316
 5031POPC   D2A64096  33.294  41.155   6.637
 5031POPC   C3A64097  33.241  41.366   7.030
 5031POPC   C4A64098  32.840  41.417   7.224
 5031POPC   C1B64099  32.718  41.840   6.119
 5031POPC   C2B64100  32.798  41.860   6.515
 5031POPC   C3B64101  32.713  41.746   6.878
 5031POPC   C4B64102  32.856  41.929   7.230
 5032POPC   NC364103  43.575  20.071   5.592
 5032POPC   PO464104  43.153  19.905   5.185
 5032POPC   GL164105  43.081  19.953   5.692
 5032POPC   GL264106  43.296  19.729   5.852
 5032POPC   C1A64107  42.980  19.855   6.203
 5032POPC   D2A64108  43.133  19.831   6.681
 5032POPC   C3A64109  42.916  19.863   7.106
 5032POPC   C4A64110  42.821  20.160   7.431
 5032POPC   C1B64111  43.440  19.644   6.279
 5032POPC   C2B64112  43.647  19.726   6.672
 5032POPC   C3B64113  43.620  19.774   7.112
 5032POPC   C4B64114  43.335  19.999   7.379
 5033POPC   NC364115  31.704  25.054   5.292
 5033POPC   PO464116  31.194  25.554   5.438
 5033POPC   GL164117  31.357  25.333   5.783
 5033POPC   GL264118  31.129  25.080   5.787
 5033POPC   C1A64119  31.610  25.254   6.159
 5033POPC   D2A64120  31.799  25.116   6.557
 5033POPC   C3A64121  31.742  25.317   6.923
 5033POPC   C4A64122  31.608  25.135   7.287
 5033POPC   C1B64123  31.080  25.002   6.205
 5033POPC   C2B64124  31.290  25.131   6.550
 5033POPC   C3B64125  31.219  25.160   6.956
 5033POPC   C4B64126  31.329  25.555   7.113
 5034POPC   NC364127  25.777  24.078   5.500
 5034POPC   PO464128  26.241  23.711   5.188
 5034POPC   GL164129  26.238  23.671   5.689
 5034POPC   GL264130  26.408  23.915   5.919
 5034POPC   C1A64131  25.965  23.729   6.082
 5034POPC   D2A64132  26.204  23.798   6.462
 5034POPC   C3A64133  26.041  23.601   6.815
 5034POPC   C4A64134  25.954  23.759   7.224
 5034POPC   C1B64135  26.615  24.117   6.227
 5034POPC   C2B64136  26.519  24.238   6.621
 5034POPC   C3B64137  26.240  24.087   6.932
 5034POPC   C4B64138  26.218  24.202   7.367
 5035POPC   NC364139   8.928   2.228   5.315
 5035POPC   PO464140   9.269   1.661   5.542
 5035POPC   GL164141   9.233   2.099   5.783
 5035POPC   GL264142   8.919   2.365   5.858
 5035POPC   C1A64143   9.180   2.174   6.246
 5035POPC   D2A64144   9.258   2.345   6.683
 5035POPC   C3A64145   9.102   2.017   6.969
 5035POPC   C4A64146   9.235   1.697   7.207
 5035POPC   C1B64147   8.642   2.219   6.227
 5035POPC   C2B64148   8.755   2.216   6.652
 5035POPC   C3B64149   8.706   2.312   7.099
 5035POPC   C4B64150   9.087   2.430   7.339
 5036POPC   NC364151  23.066  13.874   5.181
 5036POPC   PO464152  22.906  14.547   5.472
 5036POPC   GL164153  22.929  14.270   5.811
 5036POPC   GL264154  22.592  14.203   5.818
 5036POPC   C1A64155  23.166  14.254   6.209
 5036POPC   D2A64156  23.299  14.584   6.493
 5036POPC   C3A64157  23.222  14.492   6.909
 5036POPC   C4A64158  23.035  14.796   7.131
 5036POPC   C1B64159  22.651  14.264   6.248
 5036POPC   C2B64160  22.846  14.366   6.594
 5036POPC   C3B64161  22.704  14.372   6.981
 5036POPC   C4B64162  22.622  14.075   7.249
 5037POPC   NC364163  11.540   3.162   5.174
 5037POPC   PO464164  11.425   2.477   5.232
 5037POPC   GL164165  11.244   2.512   5.699
 5037POPC   GL264166  11.020   2.789   5.697
 5037POPC   C1A64167  11.047   2.450   6.137
 5037POPC   D2A64168  10.898   2.429   6.582
 5037POPC   C3A64169  11.120   2.584   6.946
 5037POPC   C4A64170  11.406   2.458   7.266
 5037POPC   C1B64171  10.992   2.993   6.104
 5037POPC   C2B64172  10.982   2.940   6.555
 5037POPC   C3B64173  11.032   3.092   6.969
 5037POPC   C4B64174  11.311   3.051   7.353
 5038POPC   NC364175  15.416  28.548   5.047
 5038POPC   PO464176  15.090  28.169   5.541
 5038POPC   GL164177  15.142  28.256   5.955
 5038POPC   GL264178  15.335  28.564   5.892
 5038POPC   C1A64179  14.942  28.235   6.381
 5038POPC   D2A64180  14.925  28.082   6.805
 5038POPC   C3A64181  15.270  28.020   7.063
 5038POPC   C4A64182  15.020  28.300   7.321
 5038POPC   C1B64183  15.566  28.351   6.213
 5038POPC   C2B64184  15.421  28.295   6.646
 5038POPC   C3B64185  15.371  28.545   7.013
 5038POPC   C4B64186  15.131  28.884   7.156
 5039POPC   NC364187  37.241  19.713   5.709
 5039POPC   PO464188  37.691  20.098   5.466
 5039POPC   GL164189  37.651  19.976   5.876
 5039POPC   GL264190  37.863  19.709   6.012
 5039POPC   C1A64191  37.462  19.919   6.289
 5039POPC   D2A64192  37.682  19.813   6.652
 5039POPC   C3A64193  37.614  19.991   7.025
 5039POPC   C4A64194  37.776  20.263   7.308
 5039POPC   C1B64195  37.695  19.427   6.315
 5039POPC   C2B64196  37.497  19.344   6.716
 5039POPC   C3B64197  37.645  19.490   7.133
 5039POPC   C4B64198  37.666  19.294   7.528
 5040POPC   NC364199  36.331  29.232   5.544
 5040POPC   PO464200  35.721  29.024   5.296
 5040POPC   GL164201  35.920  28.921   5.707
 5040POPC   GL264202  35.938  29.236   5.881
 5040POPC   C1A64203  35.871  28.851   6.185
 5040POPC   D2A64204  35.881  29.103   6.580
 5040POPC   C3A64205  36.027  28.899   6.935
 5040POPC   C4A64206  35.970  28.972   7.364
 5040POPC   C1B64207  36.180  29.333   6.227
 5040POPC   C2B64208  36.384  29.368   6.612
 5040POPC   C3B64209  36.328  29.279   7.017
 5040POPC   C4B64210  36.119  29.452   7.334
 5041POPC   NC364211   6.019  10.159   5.501
 5041POPC   PO464212   5.750  10.864   5.454
 5041POPC   GL164213   5.852  10.623   5.794
 5041POPC   GL264214   5.602  10.352   5.771
 5041POPC   C1A64215   5.991  10.749   6.203
 5041POPC   D2A64216   6.035  11.061   6.535
 5041POPC   C3A64217   5.937  10.890   6.936
 5041POPC   C4A64218   5.931  10.718   7.360
 5041POPC   C1B64219   5.593  10.393   6.207
 5041POPC   C2B64220   5.693  10.565   6.604
 5041POPC   C3B64221   5.884  10.386   6.965
 5041POPC   C4B64222   6.323  10.372   7.096
 5042POPC   NC364223  19.331  27.593   5.532
 5042POPC   PO464224  18.720  27.300   5.652
 5042POPC   GL164225  18.811  27.661   5.893
 5042POPC   GL264226  19.168  27.780   5.966
 5042POPC   C1A64227  18.820  27.630   6.319
 5042POPC   D2A64228  19.060  27.461   6.622
 5042POPC   C3A64229  18.861  27.506   6.994
 5042POPC   C4A64230  19.073  27.432   7.332
 5042POPC   C1B64231  19.200  27.993   6.354
 5042POPC   C2B64232  19.299  27.880   6.762
 5042POPC   C3B64233  19.138  27.916   7.170
 5042POPC   C4B64234  19.158  27.846   7.632
 5043POPC   NC364235  34.068  37.939   5.350
 5043POPC   PO464236  33.438  37.604   5.512
 5043POPC   GL164237  33.818  37.697   5.773
 5043POPC   GL264238  33.933  38.072   5.832
 5043POPC   C1A64239  33.896  37.498   6.182
 5043POPC   D2A64240  33.730  37.595   6.584
 5043POPC   C3A64241  33.917  37.661   6.963
 5043POPC   C4A64242  33.615  37.640   7.254
 5043POPC   C1B64243  34.041  37.980   6.268
 5043POPC   C2B64244  34.084  38.124   6.691
 5043POPC   C3B64245  34.151  38.078   7.144
 5043POPC   C4B64246  34.025  37.836   7.473
 5044POPC   NC364247   1.220  14.888   5.471
 5044POPC   PO464248   0.992  15.546   5.344
 5044POPC   GL164249   1.069  15.493   5.825
 5044POPC   GL264250   1.145  15.163   5.886
 5044POPC   C1A64251   1.294  15.545   6.279
 5044POPC   D2A64252   1.590  15.424   6.619
 5044POPC   C3A64253   1.389  15.488   7.036
 5044POPC   C4A64254   1.357  15.410   7.501
 5044POPC   C1B64255   0.931  15.207   6.280
 5044POPC   C2B64256   1.142  15.141   6.675
 5044POPC   C3B64257   1.118  14.856   7.022
 5044POPC   C4B64258   1.111  14.929   7.444
 5045POPC   NC364259  11.020  12.970   5.168
 5045POPC   PO464260  11.663  13.106   5.270
 5045POPC   GL164261  11.399  13.154   5.672
 5045POPC   GL264262  11.232  12.823   5.781
 5045POPC   C1A64263  11.444  13.161   6.139
 5045POPC   D2A64264  11.379  12.976   6.574
 5045POPC   C3A64265  11.483  12.896   7.010
 5045POPC   C4A64266  11.212  13.072   7.333
 5045POPC   C1B64267  11.331  12.632   6.201
 5045POPC   C2B64268  11.495  12.477   6.607
 5045POPC   C3B64269  11.483  12.374   7.038
 5045POPC   C4B64270  11.304  12.557   7.371
 5046POPC   NC364271  31.228   3.799   5.532
 5046POPC   PO464272  30.599   3.654   5.343
 5046POPC   GL164273  30.643   3.474   5.789
 5046POPC   GL264274  30.959   3.309   5.868
 5046POPC   C1A64275  30.709   3.567   6.250
 5046POPC   D2A64276  30.925   3.655   6.638
 5046POPC   C3A64277  30.642   3.444   6.942
 5046POPC   C4A64278  30.454   3.669   7.253
 5046POPC   C1B64279  31.120   3.259   6.263
 5046POPC   C2B64280  30.960   3.157   6.662
 5046POPC   C3B64281  31.112   3.254   7.077
 5046POPC   C4B64282  31.114   3.355   7.507
 5047POPC   NC364283  17.841  10.382   5.605
 5047POPC   PO464284  17.264  10.571   5.509
 5047POPC   GL164285  17.445  10.762   5.843
 5047POPC   GL264286  17.165  10.984   5.831
 5047POPC   C1A64287  17.581  10.617   6.248
 5047POPC   D2A64288  17.356  10.321   6.513
 5047POPC   C3A64289  17.363  10.377   6.957
 5047POPC   C4A64290  17.676  10.642   7.192
 5047POPC   C1B64291  17.108  10.790   6.243
 5047POPC   C2B64292  17.246  10.817   6.671
 5047POPC   C3B64293  17.149  10.810   7.127
 5047POPC   C4B64294  17.321  10.752   7.553
 5048POPC   NC364295   7.257  13.144   5.382
 5048POPC   PO464296   7.620  12.575   5.422
 5048POPC   GL164297   7.565  12.862   5.830
 5048POPC   GL264298   7.213  12.949   5.852
 5048POPC   C1A64299   7.516  12.986   6.313
 5048POPC   D2A64300   7.409  13.091   6.754
 5048POPC   C3A64301   7.698  13.082   7.098
 5048POPC   C4A64302   7.741  13.145   7.541
 5048POPC   C1B64303   7.190  12.613   6.191
 5048POPC   C2B64304   7.412  12.487   6.584
 5048POPC   C3B64305   7.396  12.641   7.011
 5048POPC   C4B64306   7.108  12.941   7.177
 5049POPC   NC364307  12.402  15.696   5.529
 5049POPC   PO464308  11.703  15.596   5.508
 5049POPC   GL164309  11.849  15.829   5.896
 5049POPC   GL264310  12.080  16.109   5.930
 5049POPC   C1A64311  12.029  15.788   6.314
 5049POPC   D2A64312  12.302  15.815   6.678
 5049POPC   C3A64313  12.061  15.982   7.023
 5049POPC   C4A64314  11.951  15.843   7.441
 5049POPC   C1B64315  12.422  16.119   6.269
 5049POPC   C2B64316  12.743  16.126   6.582
 5049POPC   C3B64317  12.620  16.130   7.008
 5049POPC   C4B64318  12.418  16.044   7.414
 5050POPC   NC364319  25.790  12.431   5.539
 5050POPC   PO464320  26.299  11.972   5.431
 5050POPC   GL164321  26.069  12.010   5.765
 5050POPC   GL264322  26.178  12.323   5.857
 5050POPC   C1A64323  25.916  11.853   6.141
 5050POPC   D2A64324  25.938  12.018   6.564
 5050POPC   C3A64325  26.202  11.899   6.919
 5050POPC   C4A64326  25.970  11.772   7.267
 5050POPC   C1B64327  26.390  12.435   6.198
 5050POPC   C2B64328  26.385  12.268   6.589
 5050POPC   C3B64329  26.453  12.381   6.985
 5050POPC   C4B64330  26.260  12.210   7.341
 5051POPC   NC364331   6.445  23.277   5.483
 5051POPC   PO464332   6.811  22.617   5.530
 5051POPC   GL164333   6.671  22.921   5.816
 5051POPC   GL264334   6.896  23.165   5.745
 5051POPC   C1A64335   6.504  23.162   6.182
 5051POPC   D2A64336   6.434  22.946   6.582
 5051POPC   C3A64337   6.530  23.019   7.023
 5051POPC   C4A64338   6.572  22.634   7.256
 5051POPC   C1B64339   7.011  23.288   6.170
 5051POPC   C2B64340   6.848  23.266   6.594
 5051POPC   C3B64341   6.981  23.318   7.006
 5051POPC   C4B64342   6.908  23.112   7.396
 5052POPC   NC364343  43.441  17.498   5.471
 5052POPC   PO464344  42.811  17.241   5.509
 5052POPC   GL164345  43.040  17.390   5.865
 5052POPC   GL264346  42.878  17.710   6.044
 5052POPC   C1A64347  43.117  17.328   6.287
 5052POPC   D2A64348  42.906  17.437   6.651
 5052POPC   C3A64349  43.181  17.346   6.964
 5052POPC   C4A64350  43.219  17.459   7.401
 5052POPC   C1B64351  43.218  17.833   6.339
 5052POPC   C2B64352  43.425  17.778   6.753
 5052POPC   C3B64353  43.117  17.845   7.082
 5052POPC   C4B64354  42.749  17.590   7.178
 5053POPC   NC364355  13.849   6.664   5.162
 5053POPC   PO464356  14.470   6.784   5.399
 5053POPC   GL164357  14.465   6.563   5.783
 5053POPC   GL264358  14.753   6.419   5.779
 5053POPC   C1A64359  14.445   6.694   6.209
 5053POPC   D2A64360  14.699   6.875   6.524
 5053POPC   C3A64361  14.509   6.748   6.916
 5053POPC   C4A64362  14.464   6.858   7.339
 5053POPC   C1B64363  14.784   6.319   6.214
 5053POPC   C2B64364  14.571   6.337   6.599
 5053POPC   C3B64365  14.698   6.284   7.040
 5053POPC   C4B64366  15.012   6.308   7.358
 5054POPC   NC364367  13.633  37.226   5.498
 5054POPC   PO464368  13.393  37.869   5.547
 5054POPC   GL164369  13.675  37.712   5.840
 5054POPC   GL264370  13.654  37.372   5.980
 5054POPC   C1A64371  13.797  37.801   6.266
 5054POPC   D2A64372  13.894  37.590   6.652
 5054POPC   C3A64373  13.842  37.768   7.060
 5054POPC   C4A64374  13.930  37.550   7.432
 5054POPC   C1B64375  13.291  37.196   6.191
 5054POPC   C2B64376  13.117  37.335   6.566
 5054POPC   C3B64377  13.406  37.422   6.892
 5054POPC   C4B64378  13.386  37.647   7.268
 5055POPC   NC364379  28.459  22.918   5.618
 5055POPC   PO464380  29.163  22.974   5.348
 5055POPC   GL164381  29.158  22.914   5.773
 5055POPC   GL264382  28.973  23.238   5.807
 5055POPC   C1A64383  29.420  22.723   6.129
 5055POPC   D2A64384  29.479  22.800   6.587
 5055POPC   C3A64385  29.102  22.825   6.859
 5055POPC   C4A64386  28.953  22.634   7.234
 5055POPC   C1B64387  29.092  23.132   6.252
 5055POPC   C2B64388  29.254  23.272   6.681
 5055POPC   C3B64389  29.153  23.207   7.170
 5055POPC   C4B64390  28.807  23.288   7.483
 5056POPC   NC364391  34.266   9.982   5.222
 5056POPC   PO464392  34.782   9.691   5.379
 5056POPC   GL164393  34.515   9.562   5.729
 5056POPC   GL264394  34.671   9.779   5.937
 5056POPC   C1A64395  34.326   9.444   6.157
 5056POPC   D2A64396  34.437   9.226   6.555
 5056POPC   C3A64397  34.608   9.371   6.957
 5056POPC   C4A64398  34.476   9.657   7.271
 5056POPC   C1B64399  34.403   9.939   6.249
 5056POPC   C2B64400  34.529   9.751   6.621
 5056POPC   C3B64401  34.821   9.853   6.933
 5056POPC   C4B64402  35.010   9.694   7.281
 5057POPC   NC364403  25.146  16.449   5.600
 5057POPC   PO464404  25.539  16.838   5.167
 5057POPC   GL164405  25.540  16.924   5.667
 5057POPC   GL264406  25.351  16.751   5.948
 5057POPC   C1A64407  25.701  17.065   6.124
 5057POPC   D2A64408  25.638  17.234   6.554
 5057POPC   C3A64409  25.538  16.968   6.906
 5057POPC   C4A64410  25.342  16.721   7.208
 5057POPC   C1B64411  25.164  16.522   6.329
 5057POPC   C2B64412  25.020  16.543   6.787
 5057POPC   C3B64413  24.944  16.394   7.225
 5057POPC   C4B64414  24.726  16.427   7.642
 5058POPC   NC364415  21.105  24.917   5.474
 5058POPC   PO464416  21.771  25.208   5.417
 5058POPC   GL164417  21.695  25.039   5.834
 5058POPC   GL264418  21.338  25.092   5.905
 5058POPC   C1A64419  21.675  25.003   6.301
 5058POPC   D2A64420  21.400  25.169   6.616
 5058POPC   C3A64421  21.545  25.242   7.018
 5058POPC   C4A64422  21.374  25.001   7.309
 5058POPC   C1B64423  21.101  25.331   6.216
 5058POPC   C2B64424  20.945  25.465   6.610
 5058POPC   C3B64425  21.130  25.554   6.982
 5058POPC   C4B64426  21.111  25.430   7.408
 5059POPC   NC364427  10.207  14.483   5.390
 5059POPC   PO464428  10.684  14.064   5.591
 5059POPC   GL164429  10.284  14.191   5.847
 5059POPC   GL264430  10.225  14.577   5.890
 5059POPC   C1A64431  10.295  14.248   6.306
 5059POPC   D2A64432  10.631  14.180   6.587
 5059POPC   C3A64433  10.496  14.179   6.996
 5059POPC   C4A64434  10.747  14.121   7.343
 5059POPC   C1B64435  10.613  14.607   6.162
 5059POPC   C2B64436  10.639  14.695   6.607
 5059POPC   C3B64437  10.780  14.626   7.033
 5059POPC   C4B64438  10.590  14.640   7.449
 5060POPC   NC364439   5.543  26.932   5.132
 5060POPC   PO464440   5.099  26.589   5.504
 5060POPC   GL164441   5.254  26.763   5.856
 5060POPC   GL264442   5.081  27.075   5.821
 5060POPC   C1A64443   5.235  26.901   6.269
 5060POPC   D2A64444   4.919  26.742   6.524
 5060POPC   C3A64445   5.019  26.851   6.937
 5060POPC   C4A64446   5.061  26.947   7.358
 5060POPC   C1B64447   4.856  27.245   6.201
 5060POPC   C2B64448   4.720  27.192   6.660
 5060POPC   C3B64449   4.782  27.293   7.105
 5060POPC   C4B64450   4.937  27.455   7.494
 5061POPC   NC364451  43.632  11.770   5.328
 5061POPC   PO464452  44.011  12.273   5.144
 5061POPC   GL164453  44.039  12.145   5.631
 5061POPC   GL264454  43.728  11.984   5.791
 5061POPC   C1A64455  44.132  11.991   6.107
 5061POPC   D2A64456  44.285  12.012   6.577
 5061POPC   C3A64457  44.051  11.981   7.008
 5061POPC   C4A64458  44.077  12.172   7.440
 5061POPC   C1B64459  43.663  12.196   6.218
 5061POPC   C2B64460  43.586  12.111   6.708
 5061POPC   C3B64461  43.608  12.235   7.161
 5061POPC   C4B64462  43.542  12.287   7.616
 5062POPC   NC364463  16.335  33.585   5.170
 5062POPC   PO464464  16.746  33.679   5.639
 5062POPC   GL164465  16.478  33.567   5.935
 5062POPC   GL264466  16.758  33.771   6.133
 5062POPC   C1A64467  16.317  33.688   6.323
 5062POPC   D2A64468  16.588  33.587   6.629
 5062POPC   C3A64469  16.496  33.759   6.997
 5062POPC   C4A64470  16.693  33.867   7.356
 5062POPC   C1B64471  16.971  34.084   6.359
 5062POPC   C2B64472  17.007  34.350   6.736
 5062POPC   C3B64473  17.080  34.130   7.132
 5062POPC   C4B64474  17.004  34.188   7.592
 5063POPC   NC364475  42.865   2.477   5.489
 5063POPC   PO464476  42.856   3.141   5.385
 5063POPC   GL164477  43.095   2.887   5.699
 5063POPC   GL264478  43.418   2.699   5.752
 5063POPC   C1A64479  43.022   2.718   6.116
 5063POPC   D2A64480  42.954   2.903   6.510
 5063POPC   C3A64481  42.746   2.645   6.835
 5063POPC   C4A64482  42.872   2.664   7.263
 5063POPC   C1B64483  43.450   2.980   6.092
 5063POPC   C2B64484  43.459   2.892   6.522
 5063POPC   C3B64485  43.235   2.900   6.938
 5063POPC   C4B64486  43.396   2.719   7.289
 5064POPC   NC364487  40.927  36.471   5.255
 5064POPC   PO464488  40.706  37.127   5.267
 5064POPC   GL164489  40.723  37.058   5.719
 5064POPC   GL264490  40.741  36.684   5.730
 5064POPC   C1A64491  40.840  36.919   6.162
 5064POPC   D2A64492  41.016  36.916   6.556
 5064POPC   C3A64493  40.776  36.999   6.895
 5064POPC   C4A64494  40.924  37.116   7.249
 5064POPC   C1B64495  40.525  36.513   6.114
 5064POPC   C2B64496  40.549  36.668   6.536
 5064POPC   C3B64497  40.820  36.495   6.835
 5064POPC   C4B64498  40.737  36.572   7.229
 5065POPC   NC364499  20.693  10.436   5.454
 5065POPC   PO464500  21.029   9.911   5.528
 5065POPC   GL164501  20.965  10.322   5.886
 5065POPC   GL264502  20.764  10.668   5.908
 5065POPC   C1A64503  20.897  10.513   6.355
 5065POPC   D2A64504  20.766  10.877   6.632
 5065POPC   C3A64505  20.797  10.805   7.087
 5065POPC   C4A64506  20.929  10.739   7.538
 5065POPC   C1B64507  20.361  10.559   6.128
 5065POPC   C2B64508  20.213  10.459   6.558
 5065POPC   C3B64509  20.477  10.407   6.927
 5065POPC   C4B64510  20.454  10.531   7.347
 5066POPC   NC364511  34.042  23.861   5.437
 5066POPC   PO464512  33.411  23.518   5.441
 5066POPC   GL164513  33.616  23.696   5.793
 5066POPC   GL264514  33.954  23.609   5.887
 5066POPC   C1A64515  33.614  23.849   6.218
 5066POPC   D2A64516  33.696  24.002   6.634
 5066POPC   C3A64517  33.463  23.747   6.933
 5066POPC   C4A64518  33.664  23.693   7.276
 5066POPC   C1B64519  33.847  23.395   6.301
 5066POPC   C2B64520  33.868  23.518   6.741
 5066POPC   C3B64521  34.062  23.834   6.972
 5066POPC   C4B64522  34.147  23.775   7.419
 5067POPC   NC364523  44.631  30.355   5.494
 5067POPC   PO464524  44.646  30.983   5.486
 5067POPC   GL164525  44.768  30.800   5.849
 5067POPC   GL264526  44.466  30.647   5.939
 5067POPC   C1A64527  44.915  30.699   6.262
 5067POPC   D2A64528  44.771  30.525   6.660
 5067POPC   C3A64529  44.904  30.718   7.045
 5067POPC   C4A64530  44.794  30.628   7.487
 5067POPC   C1B64531  44.407  30.831   6.361
 5067POPC   C2B64532  44.431  30.940   6.784
 5067POPC   C3B64533  44.393  30.722   7.157
 5067POPC   C4B64534  44.387  30.267   7.246
 5068POPC   NC364535  18.683  10.540   5.529
 5068POPC   PO464536  19.308  10.616   5.449
 5068POPC   GL164537  19.102  10.500   5.830
 5068POPC   GL264538  18.928  10.796   5.891
 5068POPC   C1A64539  19.191  10.317   6.237
 5068POPC   D2A64540  19.388  10.379   6.637
 5068POPC   C3A64541  19.095  10.513   6.953
 5068POPC   C4A64542  19.159  10.326   7.330
 5068POPC   C1B64543  18.725  10.588   6.209
 5068POPC   C2B64544  18.739  10.733   6.604
 5068POPC   C3B64545  18.599  10.697   6.987
 5068POPC   C4B64546  18.775  10.667   7.381
 5069POPC   NC364547  14.548  11.229   5.431
 5069POPC   PO464548  14.047  11.572   5.322
 5069POPC   GL164549  14.287  11.528   5.743
 5069POPC   GL264550  14.596  11.382   5.908
 5069POPC   C1A64551  14.222  11.547   6.198
 5069POPC   D2A64552  14.416  11.417   6.600
 5069POPC   C3A64553  14.257  11.524   7.023
 5069POPC   C4A64554  14.274  11.252   7.378
 5069POPC   C1B64555  14.741  11.622   6.214
 5069POPC   C2B64556  14.891  11.691   6.610
 5069POPC   C3B64557  14.765  11.502   6.984
 5069POPC   C4B64558  14.633  11.612   7.429
 5070POPC   NC364559  12.514   0.980   5.493
 5070POPC   PO464560  11.944   1.275   5.259
 5070POPC   GL164561  12.024   1.298   5.717
 5070POPC   GL264562  12.265   1.129   5.904
 5070POPC   C1A64563  11.830   1.311   6.159
 5070POPC   D2A64564  11.992   1.314   6.601
 5070POPC   C3A64565  11.782   1.357   6.975
 5070POPC   C4A64566  11.953   1.391   7.374
 5070POPC   C1B64567  12.194   0.961   6.281
 5070POPC   C2B64568  12.142   0.831   6.706
 5070POPC   C3B64569  12.195   1.046   7.074
 5070POPC   C4B64570  12.162   0.955   7.513
 5071POPC   NC364571  25.662  13.106   5.394
 5071POPC   PO464572  26.176  12.733   5.524
 5071POPC   GL164573  26.008  13.034   5.812
 5071POPC   GL264574  25.736  12.851   5.850
 5071POPC   C1A64575  26.117  13.167   6.241
 5071POPC   D2A64576  25.897  13.049   6.619
 5071POPC   C3A64577  25.937  12.848   7.027
 5071POPC   C4A64578  26.238  12.714   7.309
 5071POPC   C1B64579  25.941  12.683   6.207
 5071POPC   C2B64580  25.866  12.527   6.616
 5071POPC   C3B64581  25.880  12.323   7.019
 5071POPC   C4B64582  25.817  12.466   7.461
 5072POPC   NC364583  38.423  21.336   5.449
 5072POPC   PO464584  38.933  20.919   5.546
 5072POPC   GL164585  38.653  21.134   5.883
 5072POPC   GL264586  38.556  21.523   5.896
 5072POPC   C1A64587  38.598  21.258   6.327
 5072POPC   D2A64588  38.323  21.486   6.566
 5072POPC   C3A64589  38.440  21.459   6.964
 5072POPC   C4A64590  38.437  21.234   7.284
 5072POPC   C1B64591  38.651  21.783   6.267
 5072POPC   C2B64592  38.750  21.759   6.692
 5072POPC   C3B64593  38.679  21.887   7.092
 5072POPC   C4B64594  38.404  21.743   7.431
 5073POPC   NC364595  26.071  38.316   5.528
 5073POPC   PO464596  25.716  38.930   5.493
 5073POPC   GL164597  26.008  38.700   5.869
 5073POPC   GL264598  25.990  38.322   6.015
 5073POPC   C1A64599  26.235  38.691   6.297
 5073POPC   D2A64600  26.208  38.972   6.706
 5073POPC   C3A64601  26.030  38.749   7.080
 5073POPC   C4A64602  25.791  38.314   7.022
 5073POPC   C1B64603  26.385  38.087   6.100
 5073POPC   C2B64604  26.503  37.989   6.523
 5073POPC   C3B64605  26.274  38.091   6.910
 5073POPC   C4B64606  26.245  38.331   7.259
 5074POPC   NC364607  11.864  35.501   5.341
 5074POPC   PO464608  12.510  35.773   5.489
 5074POPC   GL164609  12.218  35.531   5.780
 5074POPC   GL264610  11.824  35.577   5.828
 5074POPC   C1A64611  12.150  35.262   6.132
 5074POPC   D2A64612  11.985  35.108   6.509
 5074POPC   C3A64613  11.970  35.369   6.857
 5074POPC   C4A64614  12.084  35.295   7.227
 5074POPC   C1B64615  11.672  35.457   6.193
 5074POPC   C2B64616  11.784  35.670   6.504
 5074POPC   C3B64617  11.647  35.807   6.867
 5074POPC   C4B64618  11.889  35.792   7.234
 5075POPC   NC364619   5.476   3.727   5.575
 5075POPC   PO464620   6.176   3.698   5.380
 5075POPC   GL164621   5.936   3.613   5.760
 5075POPC   GL264622   6.132   3.473   6.007
 5075POPC   C1A64623   5.807   3.787   6.193
 5075POPC   D2A64624   5.901   3.615   6.601
 5075POPC   C3A64625   5.543   3.632   6.853
 5075POPC   C4A64626   5.670   3.709   7.242
 5075POPC   C1B64627   5.784   3.254   6.230
 5075POPC   C2B64628   5.608   3.153   6.636
 5075POPC   C3B64629   5.752   3.215   7.080
 5075POPC   C4B64630   6.061   3.362   7.401
 5076POPC   NC364631  30.933  34.898   5.544
 5076POPC   PO464632  30.335  34.635   5.319
 5076POPC   GL164633  30.499  34.478   5.728
 5076POPC   GL264634  30.686  34.711   5.938
 5076POPC   C1A64635  30.751  34.207   6.044
 5076POPC   D2A64636  30.696  34.085   6.496
 5076POPC   C3A64637  30.815  34.395   6.817
 5076POPC   C4A64638  30.889  34.494   7.267
 5076POPC   C1B64639  30.701  34.652   6.369
 5076POPC   C2B64640  30.773  34.893   6.733
 5076POPC   C3B64641  30.542  34.804   7.053
 5076POPC   C4B64642  30.357  34.597   7.381
 5077POPC   NC364643   1.454  38.450   5.600
 5077POPC   PO464644   0.910  38.095   5.727
 5077POPC   GL164645   1.086  38.409   5.984
 5077POPC   GL264646   1.045  38.713   5.811
 5077POPC   C1A64647   1.254  38.449   6.378
 5077POPC   D2A64648   1.538  38.271   6.685
 5077POPC   C3A64649   1.270  38.456   6.968
 5077POPC   C4A64650   1.101  38.597   7.336
 5077POPC   C1B64651   1.343  38.896   6.104
 5077POPC   C2B64652   1.338  38.962   6.547
 5077POPC   C3B64653   1.278  38.971   7.019
 5077POPC   C4B64654   1.373  38.986   7.508
 5078POPC   NC364655  22.666   4.815   5.565
 5078POPC   PO464656  23.155   5.261   5.358
 5078POPC   GL164657  22.947   5.178   5.799
 5078POPC   GL264658  23.105   4.858   5.881
 5078POPC   C1A64659  22.864   5.025   6.279
 5078POPC   D2A64660  23.243   4.979   6.565
 5078POPC   C3A64661  23.138   5.076   6.966
 5078POPC   C4A64662  22.703   5.144   7.052
 5078POPC   C1B64663  23.162   4.590   6.233
 5078POPC   C2B64664  22.960   4.567   6.636
 5078POPC   C3B64665  22.867   4.629   7.062
 5078POPC   C4B64666  23.167   4.735   7.379
 5079POPC   NC364667  40.170  23.644   5.379
 5079POPC   PO464668  39.588  23.323   5.308
 5079POPC   GL164669  39.773  23.539   5.740
 5079POPC   GL264670  39.996  23.815   5.826
 5079POPC   C1A64671  39.831  23.574   6.228
 5079POPC   D2A64672  39.998  23.813   6.599
 5079POPC   C3A64673  39.891  23.665   6.997
 5079POPC   C4A64674  39.939  23.353   7.276
 5079POPC   C1B64675  40.289  23.891   6.179
 5079POPC   C2B64676  40.497  23.694   6.559
 5079POPC   C3B64677  40.399  23.748   6.985
 5079POPC   C4B64678  40.174  24.040   7.226
 5080POPC   NC364679  12.609   8.060   5.348
 5080POPC   PO464680  13.018   8.623   5.409
 5080POPC   GL164681  13.096   8.251   5.765
 5080POPC   GL264682  12.812   8.024   5.802
 5080POPC   C1A64683  13.136   7.935   6.172
 5080POPC   D2A64684  12.871   7.896   6.560
 5080POPC   C3A64685  12.979   8.061   6.963
 5080POPC   C4A64686  12.891   8.428   7.157
 5080POPC   C1B64687  12.820   8.337   6.152
 5080POPC   C2B64688  12.561   8.418   6.428
 5080POPC   C3B64689  12.529   8.354   6.831
 5080POPC   C4B64690  12.416   8.598   7.187
 5081POPC   NC364691  39.767  19.408   5.403
 5081POPC   PO464692  40.229  18.809   5.414
 5081POPC   GL164693  40.058  18.870   5.818
 5081POPC   GL264694  39.954  19.195   5.847
 5081POPC   C1A64695  39.964  18.823   6.235
 5081POPC   D2A64696  40.060  19.157   6.519
 5081POPC   C3A64697  40.017  19.008   6.904
 5081POPC   C4A64698  40.100  19.098   7.332
 5081POPC   C1B64699  39.682  19.322   6.204
 5081POPC   C2B64700  39.768  19.544   6.638
 5081POPC   C3B64701  39.718  19.383   7.074
 5081POPC   C4B64702  39.717  19.383   7.531
 5082POPC   NC364703   3.000  17.913   5.385
 5082POPC   PO464704   2.775  17.321   5.409
 5082POPC   GL164705   2.841  17.598   5.756
 5082POPC   GL264706   2.564  17.791   5.931
 5082POPC   C1A64707   2.993  17.548   6.134
 5082POPC   D2A64708   2.992  17.301   6.503
 5082POPC   C3A64709   2.982  17.573   6.859
 5082POPC   C4A64710   2.945  17.449   7.287
 5082POPC   C1B64711   2.287  17.687   6.283
 5082POPC   C2B64712   2.318  17.640   6.716
 5082POPC   C3B64713   2.525  17.652   7.112
 5082POPC   C4B64714   2.581  17.738   7.554
 5083POPC   NC364715  41.589  17.870   5.445
 5083POPC   PO464716  41.793  17.291   5.737
 5083POPC   GL164717  41.716  17.684   5.918
 5083POPC   GL264718  41.380  17.681   5.882
 5083POPC   C1A64719  41.743  17.770   6.347
 5083POPC   D2A64720  41.899  17.511   6.694
 5083POPC   C3A64721  41.686  17.593   7.072
 5083POPC   C4A64722  41.568  17.415   7.480
 5083POPC   C1B64723  41.251  17.917   6.238
 5083POPC   C2B64724  41.280  17.773   6.660
 5083POPC   C3B64725  41.199  17.728   7.070
 5083POPC   C4B64726  41.455  17.901   7.443
 5084POPC   NC364727  19.207  33.213   5.357
 5084POPC   PO464728  18.639  33.012   5.573
 5084POPC   GL164729  18.956  33.079   5.899
 5084POPC   GL264730  19.313  33.119   5.864
 5084POPC   C1A64731  19.105  32.875   6.279
 5084POPC   D2A64732  19.221  32.754   6.702
 5084POPC   C3A64733  18.885  32.680   7.006
 5084POPC   C4A64734  18.865  32.664   7.451
 5084POPC   C1B64735  19.311  33.327   6.288
 5084POPC   C2B64736  19.022  33.235   6.667
 5084POPC   C3B64737  19.040  33.155   7.126
 5084POPC   C4B64738  19.197  33.049   7.550
 5085POPC   NC364739  34.587   3.318   5.402
 5085POPC   PO464740  35.088   3.698   5.676
 5085POPC   GL164741  34.845   3.610   6.012
 5085POPC   GL264742  34.543   3.494   5.879
 5085POPC   C1A64743  34.665   3.898   6.289
 5085POPC   D2A64744  34.456   3.859   6.640
 5085POPC   C3A64745  34.715   3.852   6.974
 5085POPC   C4A64746  34.580   3.615   7.294
 5085POPC   C1B64747  34.294   3.555   6.220
 5085POPC   C2B64748  34.163   3.368   6.573
 5085POPC   C3B64749  34.350   3.365   6.939
 5085POPC   C4B64750  34.276   3.215   7.380
 5086POPC   NC364751   5.128  33.565   5.475
 5086POPC   PO464752   4.714  34.087   5.394
 5086POPC   GL164753   4.949  33.914   5.829
 5086POPC   GL264754   5.294  33.694   5.920
 5086POPC   C1A64755   4.902  33.684   6.251
 5086POPC   D2A64756   4.791  33.795   6.670
 5086POPC   C3A64757   5.046  33.769   7.010
 5086POPC   C4A64758   5.070  34.067   7.338
 5086POPC   C1B64759   5.320  33.982   6.247
 5086POPC   C2B64760   5.417  33.876   6.654
 5086POPC   C3B64761   5.505  33.922   7.065
 5086POPC   C4B64762   5.475  33.521   7.243
 5087POPC   NC364763  20.936  18.650   5.456
 5087POPC   PO464764  20.692  18.012   5.527
 5087POPC   GL164765  20.846  18.297   5.839
 5087POPC   GL264766  21.130  18.146   6.014
 5087POPC   C1A64767  20.712  18.331   6.280
 5087POPC   D2A64768  20.619  18.031   6.624
 5087POPC   C3A64769  20.598  18.166   7.048
 5087POPC   C4A64770  20.306  18.162   7.376
 5087POPC   C1B64771  21.116  18.620   6.135
 5087POPC   C2B64772  20.951  18.724   6.526
 5087POPC   C3B64773  21.013  18.389   6.809
 5087POPC   C4B64774  21.106  18.215   7.195
 5088POPC   NC364775  37.719   7.929   5.237
 5088POPC   PO464776  38.052   8.441   5.510
 5088POPC   GL164777  37.816   8.217   5.863
 5088POPC   GL264778  37.482   8.032   5.910
 5088POPC   C1A64779  37.685   8.308   6.300
 5088POPC   D2A64780  37.403   8.480   6.609
 5088POPC   C3A64781  37.457   8.222   6.968
 5088POPC   C4A64782  37.866   8.099   7.140
 5088POPC   C1B64783  37.502   7.817   6.363
 5088POPC   C2B64784  37.607   7.749   6.819
 5088POPC   C3B64785  37.472   7.797   7.275
 5088POPC   C4B64786  37.464   7.939   7.716
 5089POPC   NC364787  16.610  39.899   5.317
 5089POPC   PO464788  16.257  40.446   5.544
 5089POPC   GL164789  16.656  40.186   5.759
 5089POPC   GL264790  16.720  39.784   5.813
 5089POPC   C1A64791  16.894  40.151   6.177
 5089POPC   D2A64792  16.795  40.052   6.624
 5089POPC   C3A64793  17.061  40.238   6.960
 5089POPC   C4A64794  17.164  40.201   7.376
 5089POPC   C1B64795  16.847  39.647   6.267
 5089POPC   C2B64796  16.816  39.521   6.725
 5089POPC   C3B64797  16.853  39.793   7.088
 5089POPC   C4B64798  16.631  39.773   7.453
 5090POPC   NC364799  27.430  40.295   5.639
 5090POPC   PO464800  27.647  40.896   5.410
 5090POPC   GL164801  27.622  41.118   5.786
 5090POPC   GL264802  27.385  40.843   5.882
 5090POPC   C1A64803  27.680  41.109   6.248
 5090POPC   D2A64804  27.763  40.737   6.505
 5090POPC   C3A64805  27.719  40.700   6.944
 5090POPC   C4A64806  27.681  40.337   7.216
 5090POPC   C1B64807  27.182  40.925   6.273
 5090POPC   C2B64808  27.270  40.874   6.720
 5090POPC   C3B64809  27.281  40.885   7.172
 5090POPC   C4B64810  27.381  41.035   7.544
 5091POPC   NC364811  21.812   7.895   5.479
 5091POPC   PO464812  21.965   8.501   5.625
 5091POPC   GL164813  21.869   8.182   5.953
 5091POPC   GL264814  22.097   7.895   5.953
 5091POPC   C1A64815  21.897   8.175   6.427
 5091POPC   D2A64816  22.094   8.464   6.757
 5091POPC   C3A64817  22.307   8.386   7.175
 5091POPC   C4A64818  22.156   8.559   7.596
 5091POPC   C1B64819  22.328   7.872   6.367
 5091POPC   C2B64820  22.207   7.841   6.792
 5091POPC   C3B64821  22.266   7.883   7.230
 5091POPC   C4B64822  22.490   8.096   7.581
 5092POPC   NC364823  42.723  37.403   5.438
 5092POPC   PO464824  42.077  37.709   5.464
 5092POPC   GL164825  42.358  37.690   5.765
 5092POPC   GL264826  42.213  37.957   5.961
 5092POPC   C1A64827  42.473  37.518   6.114
 5092POPC   D2A64828  42.529  37.488   6.548
 5092POPC   C3A64829  42.281  37.615   6.877
 5092POPC   C4A64830  42.466  37.597   7.273
 5092POPC   C1B64831  42.174  37.848   6.370
 5092POPC   C2B64832  41.898  37.949   6.639
 5092POPC   C3B64833  41.975  38.040   7.006
 5092POPC   C4B64834  42.247  38.079   7.266
 5093POPC   NC364835  20.889  35.450   5.107
 5093POPC   PO464836  21.519  35.480   5.382
 5093POPC   GL164837  21.501  35.422   5.796
 5093POPC   GL264838  21.141  35.332   5.748
 5093POPC   C1A64839  21.440  35.473   6.234
 5093POPC   D2A64840  21.219  35.713   6.546
 5093POPC   C3A64841  21.298  35.546   6.941
 5093POPC   C4A64842  21.560  35.306   7.202
 5093POPC   C1B64843  21.013  35.204   6.160
 5093POPC   C2B64844  21.183  35.147   6.583
 5093POPC   C3B64845  20.932  35.123   6.975
 5093POPC   C4B64846  20.951  35.439   7.284
 5094POPC   NC364847  30.295  39.272   5.559
 5094POPC   PO464848  29.711  38.920   5.495
 5094POPC   GL164849  29.895  39.117   5.877
 5094POPC   GL264850  29.871  39.433   5.803
 5094POPC   C1A64851  30.211  39.345   6.215
 5094POPC   D2A64852  30.415  39.162   6.602
 5094POPC   C3A64853  30.074  38.899   6.755
 5094POPC   C4A64854  29.857  39.094   7.070
 5094POPC   C1B64855  29.685  39.464   6.213
 5094POPC   C2B64856  29.872  39.379   6.616
 5094POPC   C3B64857  29.838  39.601   6.994
 5094POPC   C4B64858  29.536  39.432   7.280
 5095POPC   NC364859  34.925  44.456   5.471
 5095POPC   PO464860  35.325   0.050   5.493
 5095POPC   GL164861  35.222  44.712   5.853
 5095POPC   GL264862  35.503  44.488   5.965
 5095POPC   C1A64863  35.194  44.647   6.337
 5095POPC   D2A64864  34.971  44.763   6.734
 5095POPC   C3A64865  35.238  44.747   7.118
 5095POPC   C4A64866  35.241  44.494   7.484
 5095POPC   C1B64867  35.676  44.475   6.377
 5095POPC   C2B64868  35.461  44.421   6.774
 5095POPC   C3B64869  35.629  44.365   7.196
 5095POPC   C4B64870  35.742  44.474   7.638
 5096POPC   NC364871  20.540  21.940   5.284
 5096POPC   PO464872  20.177  21.420   5.506
 5096POPC   GL164873  20.449  21.316   5.860
 5096POPC   GL264874  20.846  21.314   5.865
 5096POPC   C1A64875  20.553  21.539   6.229
 5096POPC   D2A64876  20.844  21.514   6.533
 5096POPC   C3A64877  20.621  21.458   6.888
 5096POPC   C4A64878  20.682  21.535   7.292
 5096POPC   C1B64879  20.859  21.063   6.278
 5096POPC   C2B64880  20.768  20.998   6.731
 5096POPC   C3B64881  20.745  20.985   7.194
 5096POPC   C4B64882  21.062  21.109   7.499
 5097POPC   NC364883  41.975   7.993   5.457
 5097POPC   PO464884  42.089   8.530   5.833
 5097POPC   GL164885  42.156   8.052   5.928
 5097POPC   GL264886  42.453   7.847   5.840
 5097POPC   C1A64887  42.187   7.821   6.315
 5097POPC   D2A64888  42.282   8.116   6.619
 5097POPC   C3A64889  42.381   8.023   7.002
 5097POPC   C4A64890  42.170   8.150   7.360
 5097POPC   C1B64891  42.623   8.060   6.214
 5097POPC   C2B64892  42.819   8.131   6.605
 5097POPC   C3B64893  42.762   8.417   6.950
 5097POPC   C4B64894  42.690   8.240   7.338
 5098POPC   NC364895  17.812   4.590   5.487
 5098POPC   PO464896  18.442   4.472   5.333
 5098POPC   GL164897  18.300   4.405   5.781
 5098POPC   GL264898  17.976   4.443   5.946
 5098POPC   C1A64899  18.403   4.210   6.188
 5098POPC   D2A64900  18.503   4.356   6.602
 5098POPC   C3A64901  18.515   4.097   6.962
 5098POPC   C4A64902  18.474   4.411   7.210
 5098POPC   C1B64903  17.889   4.147   6.266
 5098POPC   C2B64904  18.095   4.045   6.650
 5098POPC   C3B64905  18.047   4.327   6.957
 5098POPC   C4B64906  17.953   4.316   7.360
 5099POPC   NC364907   7.927  21.067   5.540
 5099POPC   PO464908   8.346  21.560   5.446
 5099POPC   GL164909   8.184  21.478   5.822
 5099POPC   GL264910   7.874  21.644   5.731
 5099POPC   C1A64911   8.288  21.390   6.268
 5099POPC   D2A64912   8.536  21.260   6.653
 5099POPC   C3A64913   8.291  21.450   6.995
 5099POPC   C4A64914   7.869  21.318   6.981
 5099POPC   C1B64915   7.949  21.774   6.150
 5099POPC   C2B64916   7.919  21.631   6.566
 5099POPC   C3B64917   7.950  21.843   6.923
 5099POPC   C4B64918   7.965  21.758   7.334
 5100POPC   NC364919  39.812  22.731   5.675
 5100POPC   PO464920  40.255  23.198   5.500
 5100POPC   GL164921  40.355  23.014   5.866
 5100POPC   GL264922  39.998  23.120   5.936
 5100POPC   C1A64923  40.306  22.868   6.297
 5100POPC   D2A64924  40.065  22.720   6.657
 5100POPC   C3A64925  40.297  22.698   7.029
 5100POPC   C4A64926  40.194  22.900   7.427
 5100POPC   C1B64927  39.823  23.027   6.309
 5100POPC   C2B64928  39.645  23.083   6.701
 5100POPC   C3B64929  39.795  22.906   7.080
 5100POPC   C4B64930  39.689  22.979   7.501
 5101POPC   NC364931  40.537  18.463   5.520
 5101POPC   PO464932  41.094  17.989   5.578
 5101POPC   GL164933  40.913  18.206   5.891
 5101POPC   GL264934  40.856  18.548   5.905
 5101POPC   C1A64935  40.645  18.109   6.223
 5101POPC   D2A64936  40.478  18.278   6.616
 5101POPC   C3A64937  40.700  18.290   6.947
 5101POPC   C4A64938  40.587  18.270   7.355
 5101POPC   C1B64939  40.473  18.625   6.161
 5101POPC   C2B64940  40.368  18.764   6.575
 5101POPC   C3B64941  40.346  18.639   7.020
 5101POPC   C4B64942  40.427  18.732   7.449
 5102POPC   NC364943  43.469   6.016   5.414
 5102POPC   PO464944  42.851   5.618   5.559
 5102POPC   GL164945  43.215   5.735   5.818
 5102POPC   GL264946  43.219   6.118   5.860
 5102POPC   C1A64947  43.372   5.803   6.242
 5102POPC   D2A64948  43.250   6.122   6.556
 5102POPC   C3A64949  43.306   5.995   6.987
 5102POPC   C4A64950  43.399   5.934   7.429
 5102POPC   C1B64951  42.896   6.011   6.162
 5102POPC   C2B64952  42.750   5.964   6.570
 5102POPC   C3B64953  42.827   6.148   6.943
 5102POPC   C4B64954  42.915   6.038   7.368
 5103POPC   NC364955   5.105   6.229   5.485
 5103POPC   PO464956   4.700   5.549   5.458
 5103POPC   GL164957   4.912   5.682   5.821
 5103POPC   GL264958   5.236   5.808   5.777
 5103POPC   C1A64959   4.903   5.958   6.165
 5103POPC   D2A64960   4.722   6.009   6.571
 5103POPC   C3A64961   4.875   5.746   6.914
 5103POPC   C4A64962   4.832   5.976   7.292
 5103POPC   C1B64963   5.411   6.007   6.145
 5103POPC   C2B64964   5.237   6.020   6.549
 5103POPC   C3B64965   5.276   6.055   6.968
 5103POPC   C4B64966   5.332   5.820   7.302
 5104POPC   NC364967  37.315  29.059   5.562
 5104POPC   PO464968  36.672  28.934   5.562
 5104POPC   GL164969  36.659  29.148   5.930
 5104POPC   GL264970  36.888  29.382   5.761
 5104POPC   C1A64971  36.743  29.085   6.372
 5104POPC   D2A64972  37.133  28.992   6.571
 5104POPC   C3A64973  37.123  28.978   6.983
 5104POPC   C4A64974  36.706  28.946   7.176
 5104POPC   C1B64975  37.133  29.315   6.128
 5104POPC   C2B64976  37.078  29.496   6.503
 5104POPC   C3B64977  36.837  29.384   6.887
 5104POPC   C4B64978  36.678  29.482   7.309
 5105POPC   NC364979  29.178   1.356   5.391
 5105POPC   PO464980  29.104   0.767   5.539
 5105POPC   GL164981  28.867   1.084   5.805
 5105POPC   GL264982  28.910   1.466   5.807
 5105POPC   C1A64983  28.883   1.149   6.264
 5105POPC   D2A64984  29.097   1.262   6.665
 5105POPC   C3A64985  28.933   1.233   7.075
 5105POPC   C4A64986  28.899   0.893   7.367
 5105POPC   C1B64987  29.271   1.427   6.077
 5105POPC   C2B64988  29.424   1.582   6.461
 5105POPC   C3B64989  29.528   1.472   6.875
 5105POPC   C4B64990  29.348   1.469   7.297
 5106POPC   NC364991  32.798  14.963   5.276
 5106POPC   PO464992  33.086  15.571   5.522
 5106POPC   GL164993  33.135  15.311   5.886
 5106POPC   GL264994  32.947  15.006   5.800
 5106POPC   C1A64995  32.973  15.232   6.330
 5106POPC   D2A64996  32.755  15.356   6.742
 5106POPC   C3A64997  33.072  15.549   7.034
 5106POPC   C4A64998  33.497  15.530   7.206
 5106POPC   C1B64999  33.268  14.832   6.080
 5106POPC   C2B65000  33.362  14.864   6.532
 5106POPC   C3B65001  33.248  15.057   6.968
 5106POPC   C4B65002  32.862  15.124   7.189
 5107POPC   NC365003  38.512  13.977   5.592
 5107POPC   PO465004  38.133  13.479   5.272
 5107POPC   GL165005  38.338  13.374   5.721
 5107POPC   GL265006  38.504  13.633   5.965
 5107POPC   C1A65007  38.270  13.253   6.198
 5107POPC   D2A65008  38.341  13.558   6.541
 5107POPC   C3A65009  38.431  13.635   7.001
 5107POPC   C4A65010  38.287  13.368   7.295
 5107POPC   C1B65011  38.717  13.983   6.259
 5107POPC   C2B65012  38.975  14.048   6.667
 5107POPC   C3B65013  38.831  13.973   7.087
 5107POPC   C4B65014  38.474  14.036   7.362
 5108POPC   NC365015  17.248  35.677   5.558
 5108POPC   PO465016  17.448  35.056   5.447
 5108POPC   GL165017  17.264  35.199   5.800
 5108POPC   GL265018  17.042  34.935   5.917
 5108POPC   C1A65019  17.443  35.437   6.160
 5108POPC   D2A65020  17.610  35.625   6.526
 5108POPC   C3A65021  17.402  35.646   6.913
 5108POPC   C4A65022  17.510  35.522   7.305
 5108POPC   C1B65023  17.465  34.923   6.166
 5108POPC   C2B65024  17.643  35.113   6.541
 5108POPC   C3B65025  17.463  35.112   6.953
 5108POPC   C4B65026  17.176  35.142   7.298
 5109POPC   NC365027   8.832  23.287   5.560
 5109POPC   PO465028   9.188  23.789   5.278
 5109POPC   GL165029   8.959  23.940   5.693
 5109POPC   GL265030   8.577  23.892   5.680
 5109POPC   C1A65031   8.914  23.947   6.181
 5109POPC   D2A65032   9.040  23.680   6.559
 5109POPC   C3A65033   9.003  23.905   6.942
 5109POPC   C4A65034   9.091  24.065   7.358
 5109POPC   C1B65035   8.539  23.615   6.043
 5109POPC   C2B65036   8.525  23.619   6.476
 5109POPC   C3B65037   8.652  23.522   6.886
 5109POPC   C4B65038   8.714  23.707   7.313
 5110POPC   NC365039  32.915   6.011   5.274
 5110POPC   PO465040  33.434   5.540   5.404
 5110POPC   GL165041  33.210   5.823   5.717
 5110POPC   GL265042  32.864   5.877   5.759
 5110POPC   C1A65043  33.158   5.823   6.203
 5110POPC   D2A65044  33.306   6.106   6.563
 5110POPC   C3A65045  33.295   5.927   7.002
 5110POPC   C4A65046  32.998   5.718   7.326
 5110POPC   C1B65047  32.770   6.125   6.107
 5110POPC   C2B65048  32.763   6.104   6.543
 5110POPC   C3B65049  32.793   6.088   6.975
 5110POPC   C4B65050  32.628   6.256   7.328
 5111POPC   NC365051  17.493  20.730   5.495
 5111POPC   PO465052  17.471  20.089   5.540
 5111POPC   GL165053  17.563  20.379   5.888
 5111POPC   GL265054  17.600  20.761   5.980
 5111POPC   C1A65055  17.451  20.404   6.308
 5111POPC   D2A65056  17.664  20.435   6.680
 5111POPC   C3A65057  17.381  20.280   6.994
 5111POPC   C4A65058  17.286  20.505   7.388
 5111POPC   C1B65059  17.197  20.882   6.203
 5111POPC   C2B65060  17.088  20.830   6.643
 5111POPC   C3B65061  17.423  20.803   6.956
 5111POPC   C4B65062  17.560  20.962   7.344
 5112POPC   NC365063  11.196  15.171   5.111
 5112POPC   PO465064  11.205  14.878   5.658
 5112POPC   GL165065  11.243  15.179   5.967
 5112POPC   GL265066  10.973  15.353   5.889
 5112POPC   C1A65067  11.345  15.204   6.394
 5112POPC   D2A65068  11.634  14.953   6.636
 5112POPC   C3A65069  11.748  15.135   7.020
 5112POPC   C4A65070  11.508  15.133   7.364
 5112POPC   C1B65071  10.996  15.589   6.247
 5112POPC   C2B65072  11.134  15.605   6.647
 5112POPC   C3B65073  11.300  15.350   6.934
 5112POPC   C4B65074  11.184  15.510   7.337
 5113POPC   NC365075  44.336  38.026   5.596
 5113POPC   PO465076  43.868  37.869   5.184
 5113POPC   GL165077  43.891  37.772   5.664
 5113POPC   GL265078  44.112  37.486   5.694
 5113POPC   C1A65079  43.646  37.668   6.082
 5113POPC   D2A65080  43.499  37.369   6.434
 5113POPC   C3A65081  43.649  37.434   6.872
 5113POPC   C4A65082  43.756  37.800   7.116
 5113POPC   C1B65083  44.155  37.701   6.146
 5113POPC   C2B65084  43.988  37.803   6.597
 5113POPC   C3B65085  44.198  37.614   6.974
 5113POPC   C4B65086  44.415  37.739   7.358
 5114POPC   NC365087  39.485  32.519   5.403
 5114POPC   PO465088  39.427  31.899   5.746
 5114POPC   GL165089  39.180  32.240   5.899
 5114POPC   GL265090  39.015  32.557   5.807
 5114POPC   C1A65091  39.115  32.199   6.347
 5114POPC   D2A65092  39.250  32.029   6.751
 5114POPC   C3A65093  39.075  32.041   7.147
 5114POPC   C4A65094  39.437  32.140   7.421
 5114POPC   C1B65095  39.188  32.682   6.218
 5114POPC   C2B65096  39.370  32.555   6.629
 5114POPC   C3B65097  39.220  32.517   7.055
 5114POPC   C4B65098  39.013  32.432   7.469
 5115POPC   NC365099   6.303  15.698   5.425
 5115POPC   PO465100   5.956  16.282   5.421
 5115POPC   GL165101   5.826  16.068   5.814
 5115POPC   GL265102   6.030  15.783   5.844
 5115POPC   C1A65103   5.715  15.988   6.264
 5115POPC   D2A65104   5.880  16.032   6.692
 5115POPC   C3A65105   5.698  15.919   7.104
 5115POPC   C4A65106   5.669  15.663   7.487
 5115POPC   C1B65107   6.210  15.988   6.204
 5115POPC   C2B65108   6.385  15.927   6.602
 5115POPC   C3B65109   6.238  15.840   7.011
 5115POPC   C4B65110   6.097  16.264   7.141
 5116POPC   NC365111  33.367  35.081   5.192
 5116POPC   PO465112  33.325  35.447   5.745
 5116POPC   GL165113  33.293  35.098   5.995
 5116POPC   GL265114  32.945  35.108   5.961
 5116POPC   C1A65115  33.337  35.009   6.445
 5116POPC   D2A65116  33.150  35.203   6.804
 5116POPC   C3A65117  33.366  35.447   7.106
 5116POPC   C4A65118  33.421  35.427   7.529
 5116POPC   C1B65119  32.915  35.305   6.365
 5116POPC   C2B65120  32.857  35.612   6.692
 5116POPC   C3B65121  32.819  35.452   7.088
 5116POPC   C4B65122  32.692  35.010   7.222
 5117POPC   NC365123  11.097  22.200   5.474
 5117POPC   PO465124  11.731  22.183   5.397
 5117POPC   GL165125  11.511  22.021   5.785
 5117POPC   GL265126  11.274  22.306   5.948
 5117POPC   C1A65127  11.458  21.922   6.249
 5117POPC   D2A65128  11.189  22.117   6.573
 5117POPC   C3A65129  11.328  22.008   6.988
 5117POPC   C4A65130  11.079  21.851   7.307
 5117POPC   C1B65131  10.960  22.614   6.157
 5117POPC   C2B65132  10.860  22.665   6.604
 5117POPC   C3B65133  10.960  22.414   6.997
 5117POPC   C4B65134  11.234  22.357   7.376
 5118POPC   NC365135  14.977  18.203   5.086
 5118POPC   PO465136  15.356  18.456   5.618
 5118POPC   GL165137  15.164  18.300   5.989
 5118POPC   GL265138  14.907  18.065   5.940
 5118POPC   C1A65139  15.133  18.234   6.400
 5118POPC   D2A65140  15.418  18.070   6.648
 5118POPC   C3A65141  15.643  18.378   6.835
 5118POPC   C4A65142  15.429  18.423   7.200
 5118POPC   C1B65143  14.654  18.085   6.338
 5118POPC   C2B65144  14.746  18.239   6.769
 5118POPC   C3B65145  14.918  18.288   7.187
 5118POPC   C4B65146  14.789  18.092   7.576
 5119POPC   NC365147   6.149  26.269   5.410
 5119POPC   PO465148   5.618  25.791   5.548
 5119POPC   GL165149   5.714  26.126   5.866
 5119POPC   GL265150   6.034  26.291   5.901
 5119POPC   C1A65151   5.708  26.153   6.320
 5119POPC   D2A65152   5.723  25.878   6.684
 5119POPC   C3A65153   5.634  26.195   6.999
 5119POPC   C4A65154   5.783  26.439   7.332
 5119POPC   C1B65155   6.242  26.284   6.280
 5119POPC   C2B65156   6.070  26.259   6.681
 5119POPC   C3B65157   6.144  26.142   7.070
 5119POPC   C4B65158   6.331  26.360   7.395
 5120POPC   NC365159  22.101   6.982   5.466
 5120POPC   PO465160  22.146   7.615   5.330
 5120POPC   GL165161  22.089   7.411   5.743
 5120POPC   GL265162  21.776   7.493   5.866
 5120POPC   C1A65163  22.234   7.404   6.183
 5120POPC   D2A65164  22.466   7.295   6.567
 5120POPC   C3A65165  22.384   7.395   6.995
 5120POPC   C4A65166  22.641   7.578   7.367
 5120POPC   C1B65167  21.761   7.254   6.251
 5120POPC   C2B65168  21.939   7.403   6.666
 5120POPC   C3B65169  21.900   7.528   7.110
 5120POPC   C4B65170  21.800   7.311   7.497
 5121POPC   NC365171  21.112  19.469   5.578
 5121POPC   PO465172  20.630  19.008   5.465
 5121POPC   GL165173  20.723  18.883   5.861
 5121POPC   GL265174  20.832  19.204   5.936
 5121POPC   C1A65175  20.531  18.865   6.241
 5121POPC   D2A65176  20.517  19.030   6.644
 5121POPC   C3A65177  20.684  18.769   6.969
 5121POPC   C4A65178  20.646  18.956   7.337
 5121POPC   C1B65179  20.515  19.399   6.161
 5121POPC   C2B65180  20.561  19.553   6.567
 5121POPC   C3B65181  20.622  19.419   6.975
 5121POPC   C4B65182  20.378  19.489   7.341
 5122POPC   NC365183  20.989   3.176   5.457
 5122POPC   PO465184  20.727   2.576   5.466
 5122POPC   GL165185  20.951   2.761   5.820
 5122POPC   GL265186  20.653   2.976   5.852
 5122POPC   C1A65187  20.872   2.805   6.294
 5122POPC   D2A65188  20.517   2.772   6.560
 5122POPC   C3A65189  20.577   2.628   6.997
 5122POPC   C4A65190  20.830   2.754   7.325
 5122POPC   C1B65191  20.294   3.167   6.118
 5122POPC   C2B65192  20.194   3.200   6.576
 5122POPC   C3B65193  20.444   3.112   6.956
 5122POPC   C4B65194  20.429   3.049   7.411
 5123POPC   NC365195  34.016  19.235   5.151
 5123POPC   PO465196  34.648  19.081   5.422
 5123POPC   GL165197  34.681  19.187   5.833
 5123POPC   GL265198  34.352  19.202   5.886
 5123POPC   C1A65199  34.935  19.181   6.193
 5123POPC   D2A65200  34.983  19.075   6.628
 5123POPC   C3A65201  34.701  18.807   6.804
 5123POPC   C4A65202  34.590  18.690   7.178
 5123POPC   C1B65203  34.448  19.054   6.286
 5123POPC   C2B65204  34.496  19.256   6.675
 5123POPC   C3B65205  34.388  19.163   7.083
 5123POPC   C4B65206  33.989  19.187   7.260
 5124POPC   NC365207  32.105   9.628   5.377
 5124POPC   PO465208  32.269  10.255   5.489
 5124POPC   GL165209  32.553   9.936   5.811
 5124POPC   GL265210  32.610   9.545   5.797
 5124POPC   C1A65211  32.762   9.791   6.224
 5124POPC   D2A65212  32.659   9.905   6.643
 5124POPC   C3A65213  32.274   9.981   6.862
 5124POPC   C4A65214  32.525   9.848   7.198
 5124POPC   C1B65215  32.386   9.443   6.231
 5124POPC   C2B65216  32.270   9.464   6.719
 5124POPC   C3B65217  32.099   9.566   7.166
 5124POPC   C4B65218  32.011   9.370   7.612
 5125POPC   NC365219   8.724  29.500   5.018
 5125POPC   PO465220   9.005  28.947   5.307
 5125POPC   GL165221   8.989  29.040   5.737
 5125POPC   GL265222   8.688  29.247   5.816
 5125POPC   C1A65223   9.124  29.133   6.167
 5125POPC   D2A65224   8.922  29.003   6.565
 5125POPC   C3A65225   9.147  28.889   6.923
 5125POPC   C4A65226   9.216  29.043   7.325
 5125POPC   C1B65227   8.743  29.507   6.225
 5125POPC   C2B65228   8.718  29.475   6.708
 5125POPC   C3B65229   8.782  29.201   7.083
 5125POPC   C4B65230   8.791  29.307   7.554
 5126POPC   NC365231  35.093  38.093   5.314
 5126POPC   PO465232  35.509  38.533   5.599
 5126POPC   GL165233  35.184  38.547   5.846
 5126POPC   GL265234  34.971  38.250   5.800
 5126POPC   C1A65235  35.338  38.626   6.249
 5126POPC   D2A65236  35.637  38.644   6.587
 5126POPC   C3A65237  35.512  38.790   7.020
 5126POPC   C4A65238  35.611  38.705   7.469
 5126POPC   C1B65239  35.048  38.068   6.235
 5126POPC   C2B65240  35.207  38.276   6.584
 5126POPC   C3B65241  35.455  38.279   6.936
 5126POPC   C4B65242  35.302  38.366   7.317
 5127POPC   NC365243  25.895  39.771   5.275
 5127POPC   PO465244  26.293  40.196   5.484
 5127POPC   GL165245  26.145  39.942   5.812
 5127POPC   GL265246  25.862  39.760   5.811
 5127POPC   C1A65247  26.009  40.032   6.243
 5127POPC   D2A65248  25.929  40.209   6.664
 5127POPC   C3A65249  25.842  40.016   7.058
 5127POPC   C4A65250  26.053  40.013   7.462
 5127POPC   C1B65251  25.555  39.817   6.136
 5127POPC   C2B65252  25.484  39.745   6.545
 5127POPC   C3B65253  25.585  39.617   6.921
 5127POPC   C4B65254  25.754  39.583   7.333
 5128POPC   NC365255  14.344  42.802   5.474
 5128POPC   PO465256  14.127  43.411   5.437
 5128POPC   GL165257  14.352  43.240   5.821
 5128POPC   GL265258  14.328  42.905   5.964
 5128POPC   C1A65259  14.527  43.481   6.171
 5128POPC   D2A65260  14.669  43.419   6.591
 5128POPC   C3A65261  14.601  43.272   7.056
 5128POPC   C4A65262  14.429  42.870   7.280
 5128POPC   C1B65263  14.191  43.144   6.321
 5128POPC   C2B65264  14.182  43.196   6.769
 5128POPC   C3B65265  14.022  43.175   7.197
 5128POPC   C4B65266  14.111  43.019   7.636
 5129POPC   NC365267  32.337  30.884   5.505
 5129POPC   PO465268  32.164  30.328   5.154
 5129POPC   GL165269  32.184  30.332   5.645
 5129POPC   GL265270  31.926  30.531   5.756
 5129POPC   C1A65271  32.224  30.386   6.140
 5129POPC   D2A65272  32.059  30.425   6.591
 5129POPC   C3A65273  32.293  30.588   6.980
 5129POPC   C4A65274  32.490  30.545   7.417
 5129POPC   C1B65275  31.831  30.764   6.159
 5129POPC   C2B65276  31.955  30.934   6.571
 5129POPC   C3B65277  31.757  30.967   6.981
 5129POPC   C4B65278  31.848  30.908   7.412
 5130POPC   NC365279  30.591   8.508   5.376
 5130POPC   PO465280  30.879   9.134   5.395
 5130POPC   GL165281  30.650   9.173   5.782
 5130POPC   GL265282  30.469   8.882   5.740
 5130POPC   C1A65283  30.769   9.078   6.206
 5130POPC   D2A65284  30.640   9.154   6.590
 5130POPC   C3A65285  30.794   9.095   6.952
 5130POPC   C4A65286  30.745   9.208   7.371
 5130POPC   C1B65287  30.572   8.620   6.084
 5130POPC   C2B65288  30.786   8.587   6.477
 5130POPC   C3B65289  30.672   8.618   6.904
 5130POPC   C4B65290  30.954   8.724   7.237
 5131POPC   NC365291  15.490  19.229   5.282
 5131POPC   PO465292  15.079  18.690   5.212
 5131POPC   GL165293  15.195  18.945   5.637
 5131POPC   GL265294  15.025  18.806   5.937
 5131POPC   C1A65295  15.298  19.203   6.059
 5131POPC   D2A65296  15.194  19.234   6.522
 5131POPC   C3A65297  15.404  19.099   6.918
 5131POPC   C4A65298  15.325  19.303   7.329
 5131POPC   C1B65299  15.291  18.722   6.262
 5131POPC   C2B65300  15.250  18.659   6.656
 5131POPC   C3B65301  14.935  18.745   6.875
 5131POPC   C4B65302  15.100  18.807   7.216
 5132POPC   NC365303  24.368   4.635   5.441
 5132POPC   PO465304  24.879   4.296   5.317
 5132POPC   GL165305  24.601   4.350   5.774
 5132POPC   GL265306  24.507   4.068   5.971
 5132POPC   C1A65307  24.584   4.553   6.192
 5132POPC   D2A65308  24.548   4.497   6.650
 5132POPC   C3A65309  24.750   4.575   7.039
 5132POPC   C4A65310  24.547   4.422   7.406
 5132POPC   C1B65311  24.259   3.908   6.292
 5132POPC   C2B65312  24.397   4.005   6.683
 5132POPC   C3B65313  24.454   4.014   7.091
 5132POPC   C4B65314  24.371   3.640   7.275
 5133POPC   NC365315   6.701  30.799   5.359
 5133POPC   PO465316   6.206  30.470   5.389
 5133POPC   GL165317   6.390  30.580   5.801
 5133POPC   GL265318   6.659  30.805   5.884
 5133POPC   C1A65319   6.544  30.500   6.246
 5133POPC   D2A65320   6.593  30.799   6.589
 5133POPC   C3A65321   6.475  30.569   6.934
 5133POPC   C4A65322   6.620  30.550   7.337
 5133POPC   C1B65323   6.990  30.787   6.263
 5133POPC   C2B65324   7.023  30.515   6.641
 5133POPC   C3B65325   6.981  30.741   7.016
 5133POPC   C4B65326   6.999  30.857   7.463
 5134POPC   NC365327  23.442  35.932   5.294
 5134POPC   PO465328  24.012  36.289   5.472
 5134POPC   GL165329  23.914  36.201   5.841
 5134POPC   GL265330  23.774  35.903   5.728
 5134POPC   C1A65331  23.957  36.293   6.273
 5134POPC   D2A65332  23.937  36.447   6.691
 5134POPC   C3A65333  23.870  36.198   7.046
 5134POPC   C4A65334  23.758  36.323   7.484
 5134POPC   C1B65335  23.611  35.921   6.141
 5134POPC   C2B65336  23.581  36.082   6.585
 5134POPC   C3B65337  23.373  36.031   7.000
 5134POPC   C4B65338  23.208  35.782   7.354
 5135POPC   NC365339  27.148   9.963   5.538
 5135POPC   PO465340  26.666   9.633   5.276
 5135POPC   GL165341  26.782   9.594   5.718
 5135POPC   GL265342  27.083   9.664   5.936
 5135POPC   C1A65343  26.652   9.517   6.137
 5135POPC   D2A65344  26.510   9.724   6.505
 5135POPC   C3A65345  26.581   9.524   6.895
 5135POPC   C4A65346  26.719   9.579   7.316
 5135POPC   C1B65347  26.845   9.996   6.141
 5135POPC   C2B65348  26.967  10.020   6.573
 5135POPC   C3B65349  27.008   9.827   6.980
 5135POPC   C4B65350  26.997   9.982   7.424
 5136POPC   NC365351  27.613  24.005   5.377
 5136POPC   PO465352  28.055  23.385   5.306
 5136POPC   GL165353  27.690  23.603   5.683
 5136POPC   GL265354  27.434  23.378   5.850
 5136POPC   C1A65355  27.515  23.816   6.114
 5136POPC   D2A65356  27.576  23.976   6.582
 5136POPC   C3A65357  27.409  23.856   7.028
 5136POPC   C4A65358  27.224  24.014   7.438
 5136POPC   C1B65359  27.233  23.312   6.254
 5136POPC   C2B65360  27.175  23.537   6.653
 5136POPC   C3B65361  27.204  23.381   7.067
 5136POPC   C4B65362  27.614  23.346   7.268
 5137POPC   NC365363   6.005  28.508   5.308
 5137POPC   PO465364   5.598  28.015   5.340
 5137POPC   GL165365   5.915  28.089   5.676
 5137POPC   GL265366   5.835  28.429   5.796
 5137POPC   C1A65367   6.131  28.120   6.108
 5137POPC   D2A65368   6.124  28.351   6.503
 5137POPC   C3A65369   5.868  28.291   6.832
 5137POPC   C4A65370   5.873  28.126   7.186
 5137POPC   C1B65371   6.088  28.677   6.089
 5137POPC   C2B65372   6.265  28.846   6.481
 5137POPC   C3B65373   6.144  28.723   6.896
 5137POPC   C4B65374   6.116  28.546   7.316
 5138POPC   NC365375  30.862  28.201   5.410
 5138POPC   PO465376  30.619  28.747   5.226
 5138POPC   GL165377  30.681  28.548   5.704
 5138POPC   GL265378  30.974  28.462   5.838
 5138POPC   C1A65379  30.566  28.505   6.174
 5138POPC   D2A65380  30.604  28.736   6.567
 5138POPC   C3A65381  30.727  28.568   6.964
 5138POPC   C4A65382  30.517  28.384   7.306
 5138POPC   C1B65383  30.942  28.147   6.173
 5138POPC   C2B65384  30.731  28.189   6.588
 5138POPC   C3B65385  30.863  28.061   7.007
 5138POPC   C4B65386  31.093  28.220   7.347
 5139POPC   NC365387   8.360   0.323   5.358
 5139POPC   PO465388   8.354   0.902   5.697
 5139POPC   GL165389   8.090   0.547   5.903
 5139POPC   GL265390   8.044   0.182   5.773
 5139POPC   C1A65391   8.076   0.387   6.366
 5139POPC   D2A65392   8.123   0.295   6.845
 5139POPC   C3A65393   8.119   0.640   7.107
 5139POPC   C4A65394   7.737   0.775   7.116
 5139POPC   C1B65395   8.405   0.153   6.034
 5139POPC   C2B65396   8.479   0.087   6.491
 5139POPC   C3B65397   8.617   0.224   6.903
 5139POPC   C4B65398   8.434   0.279   7.297
 5140POPC   NC365399  10.115   4.425   5.673
 5140POPC   PO465400   9.528   4.074   5.512
 5140POPC   GL165401   9.637   4.258   5.860
 5140POPC   GL265402   9.611   4.605   5.758
 5140POPC   C1A65403   9.484   4.217   6.281
 5140POPC   D2A65404   9.466   4.507   6.616
 5140POPC   C3A65405   9.725   4.393   6.932
 5140POPC   C4A65406   9.618   4.236   7.311
 5140POPC   C1B65407   9.762   4.653   6.198
 5140POPC   C2B65408  10.099   4.572   6.494
 5140POPC   C3B65409  10.167   4.657   6.941
 5140POPC   C4B65410   9.865   4.744   7.313
 5141POPC   NC365411   0.157  29.913   5.580
 5141POPC   PO465412  44.524  29.928   5.334
 5141POPC   GL165413  44.655  29.936   5.799
 5141POPC   GL265414  44.338  29.775   5.894
 5141POPC   C1A65415  44.740  30.099   6.253
 5141POPC   D2A65416  44.698  29.954   6.720
 5141POPC   C3A65417  44.881  30.172   7.104
 5141POPC   C4A65418   0.111  29.900   7.461
 5141POPC   C1B65419  44.501  29.618   6.273
 5141POPC   C2B65420  44.326  29.575   6.663
 5141POPC   C3B65421  44.281  29.786   7.036
 5141POPC   C4B65422  44.646  29.767   7.264
 5142POPC   NC365423  42.690  29.123   5.308
 5142POPC   PO465424  43.323  28.792   5.310
 5142POPC   GL165425  43.234  28.982   5.742
 5142POPC   GL265426  42.895  29.141   5.778
 5142POPC   C1A65427  43.235  28.909   6.228
 5142POPC   D2A65428  43.203  29.084   6.672
 5142POPC   C3A65429  43.167  28.846   7.053
 5142POPC   C4A65430  42.893  29.088   7.323
 5142POPC   C1B65431  42.725  29.077   6.184
 5142POPC   C2B65432  42.793  28.851   6.540
 5142POPC   C3B65433  42.661  28.792   6.920
 5142POPC   C4B65434  42.464  28.774   7.295
 5143POPC   NC365435  34.095  29.459   5.443
 5143POPC   PO465436  33.841  30.130   5.454
 5143POPC   GL165437  33.965  30.086   5.877
 5143POPC   GL265438  34.052  29.754   5.863
 5143POPC   C1A65439  33.742  30.046   6.269
 5143POPC   D2A65440  33.836  30.003   6.687
 5143POPC   C3A65441  33.542  30.018   7.015
 5143POPC   C4A65442  33.746  30.251   7.310
 5143POPC   C1B65443  33.908  29.558   6.230
 5143POPC   C2B65444  33.981  29.516   6.655
 5143POPC   C3B65445  33.793  29.583   7.001
 5143POPC   C4B65446  33.813  29.607   7.416
 5144POPC   NC365447  11.015  28.413   5.370
 5144POPC   PO465448  11.563  28.154   5.571
 5144POPC   GL165449  11.381  28.239   5.917
 5144POPC   GL265450  11.069  28.235   5.841
 5144POPC   C1A65451  11.407  28.281   6.335
 5144POPC   D2A65452  11.435  28.400   6.721
 5144POPC   C3A65453  11.431  28.097   6.988
 5144POPC   C4A65454  11.581  28.337   7.295
 5144POPC   C1B65455  10.937  28.421   6.199
 5144POPC   C2B65456  10.934  28.503   6.602
 5144POPC   C3B65457  10.966  28.316   6.965
 5144POPC   C4B65458  11.053  28.558   7.303
 5145POPC   NC365459  27.008   3.810   5.356
 5145POPC   PO465460  26.471   3.401   5.084
 5145POPC   GL165461  26.648   3.454   5.510
 5145POPC   GL265462  26.924   3.328   5.627
 5145POPC   C1A65463  26.573   3.616   5.956
 5145POPC   D2A65464  26.739   3.820   6.352
 5145POPC   C3A65465  26.596   3.626   6.751
 5145POPC   C4A65466  26.739   3.693   7.156
 5145POPC   C1B65467  27.055   3.492   6.061
 5145POPC   C2B65468  26.972   3.363   6.508
 5145POPC   C3B65469  27.121   3.390   6.928
 5145POPC   C4B65470  26.946   3.240   7.286
 5146POPC   NC365471  38.626  13.993   5.082
 5146POPC   PO465472  38.178  14.458   5.389
 5146POPC   GL165473  38.411  14.625   5.765
 5146POPC   GL265474  38.680  14.390   5.885
 5146POPC   C1A65475  38.448  14.703   6.227
 5146POPC   D2A65476  38.673  14.420   6.510
 5146POPC   C3A65477  38.632  14.464   6.949
 5146POPC   C4A65478  38.465  14.838   7.115
 5146POPC   C1B65479  38.278  14.237   6.117
 5146POPC   C2B65480  38.267  14.052   6.504
 5146POPC   C3B65481  38.228  14.104   6.922
 5146POPC   C4B65482  38.076  14.462   7.143
 5147POPC   NC365483  13.943  43.944   5.420
 5147POPC   PO465484  13.383  43.539   5.420
 5147POPC   GL165485  13.336  43.798   5.770
 5147POPC   GL265486  13.673  43.850   5.838
 5147POPC   C1A65487  13.322  43.909   6.212
 5147POPC   D2A65488  13.482  44.010   6.672
 5147POPC   C3A65489  13.474  43.962   7.121
 5147POPC   C4A65490  13.757  43.629   7.209
 5147POPC   C1B65491  13.928  44.127   6.061
 5147POPC   C2B65492  13.971  44.121   6.490
 5147POPC   C3B65493  13.945  44.083   6.904
 5147POPC   C4B65494  13.984  44.076   7.323
 5148POPC   NC365495  29.623  34.019   5.468
 5148POPC   PO465496  30.110  33.671   5.184
 5148POPC   GL165497  30.074  33.538   5.652
 5148POPC   GL265498  29.738  33.609   5.753
 5148POPC   C1A65499  30.059  33.619   6.134
 5148POPC   D2A65500  30.124  33.577   6.569
 5148POPC   C3A65501  30.278  33.884   6.813
 5148POPC   C4A65502  30.175  33.780   7.212
 5148POPC   C1B65503  29.555  33.521   6.158
 5148POPC   C2B65504  29.669  33.804   6.489
 5148POPC   C3B65505  29.743  33.789   6.938
 5148POPC   C4B65506  29.713  33.954   7.358
 5149POPC   NC365507  44.979   7.337   5.618
 5149POPC   PO465508  44.320   7.532   5.522
 5149POPC   GL165509  44.494   7.296   5.853
 5149POPC   GL265510  44.544   7.621   5.989
 5149POPC   C1A65511  44.660   7.190   6.273
 5149POPC   D2A65512  44.664   7.442   6.660
 5149POPC   C3A65513  44.887   7.260   7.003
 5149POPC   C4A65514  44.867   7.341   7.422
 5149POPC   C1B65515  44.910   7.660   6.231
 5149POPC   C2B65516  44.999   7.899   6.591
 5149POPC   C3B65517   0.054   7.747   7.008
 5149POPC   C4B65518  44.960   7.834   7.440
 5150POPC   NC365519   9.653  21.167   5.360
 5150POPC   PO465520  10.069  21.643   5.554
 5150POPC   GL165521   9.927  21.323   5.778
 5150POPC   GL265522   9.590  21.418   5.808
 5150POPC   C1A65523   9.859  21.175   6.169
 5150POPC   D2A65524   9.965  21.374   6.527
 5150POPC   C3A65525   9.965  21.137   6.922
 5150POPC   C4A65526  10.095  21.253   7.335
 5150POPC   C1B65527   9.749  21.700   6.151
 5150POPC   C2B65528   9.655  21.779   6.567
 5150POPC   C3B65529   9.821  21.621   6.948
 5150POPC   C4B65530   9.677  21.551   7.337
 5151POPC   NC365531  40.136  32.317   5.389
 5151POPC   PO465532  39.585  32.102   5.246
 5151POPC   GL165533  39.745  32.281   5.742
 5151POPC   GL265534  40.039  32.456   5.894
 5151POPC   C1A65535  39.590  32.366   6.176
 5151POPC   D2A65536  39.701  32.174   6.554
 5151POPC   C3A65537  39.692  32.282   6.985
 5151POPC   C4A65538  39.996  32.056   7.238
 5151POPC   C1B65539  40.024  32.539   6.350
 5151POPC   C2B65540  40.149  32.405   6.746
 5151POPC   C3B65541  40.149  32.535   7.170
 5151POPC   C4B65542  40.381  32.617   7.549
 5152POPC   NC365543   3.987   7.531   5.426
 5152POPC   PO465544   4.699   7.342   5.519
 5152POPC   GL165545   4.450   7.365   5.862
 5152POPC   GL265546   4.349   7.661   5.779
 5152POPC   C1A65547   4.242   7.283   6.243
 5152POPC   D2A65548   4.160   7.154   6.656
 5152POPC   C3A65549   4.373   7.315   6.979
 5152POPC   C4A65550   4.215   7.240   7.384
 5152POPC   C1B65551   4.439   7.792   6.199
 5152POPC   C2B65552   4.612   7.735   6.619
 5152POPC   C3B65553   4.738   7.681   7.031
 5152POPC   C4B65554   4.427   7.708   7.350
 5153POPC   NC365555   5.720  42.105   5.643
 5153POPC   PO465556   5.861  42.800   5.403
 5153POPC   GL165557   5.857  42.583   5.795
 5153POPC   GL265558   5.494  42.530   5.887
 5153POPC   C1A65559   5.948  42.425   6.209
 5153POPC   D2A65560   6.155  42.225   6.553
 5153POPC   C3A65561   5.939  42.087   6.896
 5153POPC   C4A65562   6.100  42.266   7.259
 5153POPC   C1B65563   5.428  42.294   6.292
 5153POPC   C2B65564   5.419  42.181   6.752
 5153POPC   C3B65565   5.607  42.414   7.121
 5153POPC   C4B65566   5.616  42.405   7.595
 5154POPC   NC365567  22.622  20.125   5.550
 5154POPC   PO465568  22.971  19.653   5.230
 5154POPC   GL165569  22.960  19.753   5.682
 5154POPC   GL265570  22.698  19.610   5.888
 5154POPC   C1A65571  22.999  19.951   6.118
 5154POPC   D2A65572  23.068  19.853   6.570
 5154POPC   C3A65573  22.869  19.590   6.860
 5154POPC   C4A65574  22.946  19.690   7.296
 5154POPC   C1B65575  22.580  19.676   6.306
 5154POPC   C2B65576  22.450  19.853   6.685
 5154POPC   C3B65577  22.490  19.855   7.132
 5154POPC   C4B65578  22.602  20.088   7.477
 5155POPC   NC365579  16.226   4.091   5.553
 5155POPC   PO465580  16.744   4.380   5.171
 5155POPC   GL165581  16.786   4.241   5.679
 5155POPC   GL265582  16.521   4.199   5.932
 5155POPC   C1A65583  16.931   4.409   6.098
 5155POPC   D2A65584  16.772   4.203   6.487
 5155POPC   C3A65585  16.611   4.508   6.807
 5155POPC   C4A65586  16.871   4.641   7.129
 5155POPC   C1B65587  16.293   4.312   6.279
 5155POPC   C2B65588  16.282   4.137   6.659
 5155POPC   C3B65589  16.596   4.010   6.959
 5155POPC   C4B65590  16.684   4.166   7.357
 5156POPC   NC365591  28.207  36.447   5.614
 5156POPC   PO465592  28.003  35.784   5.420
 5156POPC   GL165593  28.284  35.785   5.764
 5156POPC   GL265594  28.536  36.059   5.720
 5156POPC   C1A65595  28.359  35.867   6.193
 5156POPC   D2A65596  28.272  36.101   6.553
 5156POPC   C3A65597  28.088  35.922   6.915
 5156POPC   C4A65598  27.788  35.903   7.285
 5156POPC   C1B65599  28.633  36.319   6.121
 5156POPC   C2B65600  28.682  36.433   6.569
 5156POPC   C3B65601  28.508  36.282   6.963
 5156POPC   C4B65602  28.570  35.843   7.103
 5157POPC   NC365603  43.466  12.938   5.484
 5157POPC   PO465604  42.887  12.694   5.384
 5157POPC   GL165605  43.067  12.637   5.771
 5157POPC   GL265606  43.015  12.979   5.852
 5157POPC   C1A65607  42.978  12.663   6.228
 5157POPC   D2A65608  43.124  12.886   6.594
 5157POPC   C3A65609  42.991  12.704   6.961
 5157POPC   C4A65610  43.154  12.476   7.309
 5157POPC   C1B65611  43.079  13.256   6.212
 5157POPC   C2B65612  43.122  13.421   6.643
 5157POPC   C3B65613  42.996  13.235   7.026
 5157POPC   C4B65614  43.269  12.993   7.258
 5158POPC   NC365615  10.349   9.659   5.492
 5158POPC   PO465616  10.864  10.000   5.468
 5158POPC   GL165617  10.511  10.068   5.777
 5158POPC   GL265618  10.512   9.717   5.957
 5158POPC   C1A65619  10.484  10.110   6.244
 5158POPC   D2A65620  10.687   9.787   6.509
 5158POPC   C3A65621  10.696   9.887   6.941
 5158POPC   C4A65622  10.394   9.773   7.218
 5158POPC   C1B65623  10.828   9.439   6.139
 5158POPC   C2B65624  11.019   9.370   6.549
 5158POPC   C3B65625  10.864   9.388   6.999
 5158POPC   C4B65626  10.737   9.455   7.431
 5159POPC   NC365627  40.523   4.929   5.325
 5159POPC   PO465628  40.984   5.317   5.491
 5159POPC   GL165629  40.697   5.167   5.773
 5159POPC   GL265630  40.620   4.852   5.836
 5159POPC   C1A65631  40.682   5.237   6.201
 5159POPC   D2A65632  40.885   5.380   6.544
 5159POPC   C3A65633  40.679   5.155   6.872
 5159POPC   C4A65634  40.814   5.264   7.273
 5159POPC   C1B65635  40.936   4.810   6.171
 5159POPC   C2B65636  41.091   4.903   6.593
 5159POPC   C3B65637  41.037   4.833   7.037
 5159POPC   C4B65638  41.021   4.836   7.523
 5160POPC   NC365639  20.634   0.902   5.457
 5160POPC   PO465640  20.608   0.282   5.293
 5160POPC   GL165641  20.645   0.416   5.694
 5160POPC   GL265642  20.325   0.499   5.695
 5160POPC   C1A65643  20.640   0.626   6.107
 5160POPC   D2A65644  20.875   0.578   6.494
 5160POPC   C3A65645  20.634   0.504   6.866
 5160POPC   C4A65646  20.742   0.525   7.306
 5160POPC   C1B65647  20.376   0.199   6.088
 5160POPC   C2B65648  20.182  44.966   6.416
 5160POPC   C3B65649  20.187   0.127   6.834
 5160POPC   C4B65650  20.496   0.102   7.154
 5161POPC   NC365651   5.487  24.620   5.375
 5161POPC   PO465652   5.872  24.144   5.428
 5161POPC   GL165653   5.854  24.497   5.723
 5161POPC   GL265654   5.945  24.860   5.612
 5161POPC   C1A65655   5.790  24.477   6.156
 5161POPC   D2A65656   6.015  24.378   6.528
 5161POPC   C3A65657   5.749  24.493   6.856
 5161POPC   C4A65658   5.775  24.337   7.248
 5161POPC   C1B65659   5.852  24.997   6.032
 5161POPC   C2B65660   5.963  24.885   6.461
 5161POPC   C3B65661   5.941  24.980   6.885
 5161POPC   C4B65662   5.809  24.830   7.268
 5162POPC   NC365663  33.710  20.116   5.434
 5162POPC   PO465664  34.012  19.425   5.568
 5162POPC   GL165665  33.806  19.743   5.805
 5162POPC   GL265666  33.946  20.080   5.869
 5162POPC   C1A65667  33.707  19.761   6.241
 5162POPC   D2A65668  34.005  19.700   6.609
 5162POPC   C3A65669  33.833  19.636   7.040
 5162POPC   C4A65670  33.515  19.408   7.266
 5162POPC   C1B65671  34.106  20.080   6.276
 5162POPC   C2B65672  33.767  20.158   6.577
 5162POPC   C3B65673  34.008  20.114   6.924
 5162POPC   C4B65674  34.040  20.030   7.331
 5163POPC   NC365675  40.995  11.006   5.537
 5163POPC   PO465676  40.620  11.601   5.579
 5163POPC   GL165677  40.735  11.291   5.886
 5163POPC   GL265678  41.057  11.385   5.872
 5163POPC   C1A65679  40.824  11.215   6.336
 5163POPC   D2A65680  40.562  11.399   6.668
 5163POPC   C3A65681  40.597  11.236   7.087
 5163POPC   C4A65682  40.703  11.189   7.550
 5163POPC   C1B65683  40.919  11.706   6.162
 5163POPC   C2B65684  40.965  11.747   6.585
 5163POPC   C3B65685  41.021  11.492   6.927
 5163POPC   C4B65686  40.834  11.620   7.293
 5164POPC   NC365687  41.046   0.647   5.096
 5164POPC   PO465688  40.505   0.431   5.388
 5164POPC   GL165689  40.759   0.532   5.782
 5164POPC   GL265690  41.132   0.413   5.848
 5164POPC   C1A65691  40.688   0.434   6.236
 5164POPC   D2A65692  40.872   0.416   6.665
 5164POPC   C3A65693  40.645   0.396   7.050
 5164POPC   C4A65694  40.603   0.272   7.499
 5164POPC   C1B65695  41.088   0.746   6.162
 5164POPC   C2B65696  41.063   0.885   6.591
 5164POPC   C3B65697  41.068   0.742   7.028
 5164POPC   C4B65698  41.097   0.424   7.353
 5165POPC   NC365699  38.542  16.856   5.459
 5165POPC   PO465700  38.099  16.288   5.316
 5165POPC   GL165701  38.279  16.425   5.726
 5165POPC   GL265702  38.640  16.432   5.791
 5165POPC   C1A65703  38.280  16.394   6.190
 5165POPC   D2A65704  38.170  16.673   6.545
 5165POPC   C3A65705  38.350  16.520   6.906
 5165POPC   C4A65706  38.492  16.641   7.310
 5165POPC   C1B65707  38.768  16.648   6.210
 5165POPC   C2B65708  38.692  16.824   6.640
 5165POPC   C3B65709  38.435  17.026   6.965
 5165POPC   C4B65710  38.451  17.166   7.403
 5166POPC   NC365711  30.157  43.319   5.554
 5166POPC   PO465712  29.684  42.871   5.404
 5166POPC   GL165713  29.902  42.928   5.792
 5166POPC   GL265714  29.784  43.254   5.884
 5166POPC   C1A65715  30.041  42.861   6.252
 5166POPC   D2A65716  30.025  42.631   6.685
 5166POPC   C3A65717  29.854  42.919   7.018
 5166POPC   C4A65718  30.017  43.312   7.234
 5166POPC   C1B65719  29.682  43.360   6.291
 5166POPC   C2B65720  29.848  43.382   6.712
 5166POPC   C3B65721  29.555  43.410   7.007
 5166POPC   C4B65722  29.547  43.162   7.337
 5167POPC   NC365723  42.084  37.211   5.365
 5167POPC   PO465724  42.697  36.924   5.432
 5167POPC   GL165725  42.553  36.992   5.821
 5167POPC   GL265726  42.250  37.140   5.836
 5167POPC   C1A65727  42.677  37.077   6.252
 5167POPC   D2A65728  42.841  37.098   6.685
 5167POPC   C3A65729  42.488  37.127   6.995
 5167POPC   C4A65730  42.376  37.033   7.437
 5167POPC   C1B65731  41.955  37.378   6.059
 5167POPC   C2B65732  41.843  37.445   6.484
 5167POPC   C3B65733  41.790  37.503   6.910
 5167POPC   C4B65734  42.015  37.351   7.273
 5168POPC   NC365735   6.337  24.079   5.388
 5168POPC   PO465736   6.869  23.603   5.429
 5168POPC   GL165737   6.672  23.604   5.861
 5168POPC   GL265738   6.505  23.899   5.840
 5168POPC   C1A65739   6.629  23.661   6.336
 5168POPC   D2A65740   6.887  23.780   6.721
 5168POPC   C3A65741   6.859  23.790   7.215
 5168POPC   C4A65742   7.034  23.580   7.625
 5168POPC   C1B65743   6.274  24.085   6.172
 5168POPC   C2B65744   6.264  23.912   6.604
 5168POPC   C3B65745   6.366  23.727   7.025
 5168POPC   C4B65746   6.367  23.915   7.461
 5169POPC   NC365747   5.158   2.545   5.292
 5169POPC   PO465748   4.583   2.941   5.325
 5169POPC   GL165749   4.936   2.921   5.679
 5169POPC   GL265750   5.129   2.620   5.790
 5169POPC   C1A65751   4.877   2.850   6.162
 5169POPC   D2A65752   5.127   2.912   6.557
 5169POPC   C3A65753   4.958   2.791   6.948
 5169POPC   C4A65754   4.713   2.833   7.276
 5169POPC   C1B65755   5.306   2.586   6.213
 5169POPC   C2B65756   5.249   2.427   6.686
 5169POPC   C3B65757   5.374   2.566   7.127
 5169POPC   C4B65758   5.345   2.519   7.571
 5170POPC   NC365759  13.688  38.224   5.462
 5170POPC   PO465760  13.377  38.799   5.612
 5170POPC   GL165761  13.424  38.430   5.848
 5170POPC   GL265762  13.779  38.481   5.914
 5170POPC   C1A65763  13.427  38.221   6.250
 5170POPC   D2A65764  13.608  38.382   6.637
 5170POPC   C3A65765  13.409  38.571   6.993
 5170POPC   C4A65766  13.483  38.380   7.406
 5170POPC   C1B65767  14.012  38.266   6.250
 5170POPC   C2B65768  14.023  38.091   6.684
 5170POPC   C3B65769  13.886  38.303   7.106
 5170POPC   C4B65770  13.948  38.345   7.609
 5171POPC   NC365771  25.564  14.589   5.397
 5171POPC   PO465772  24.907  14.534   5.335
 5171POPC   GL165773  25.229  14.262   5.660
 5171POPC   GL265774  25.508  14.410   5.861
 5171POPC   C1A65775  25.293  14.064   6.132
 5171POPC   D2A65776  25.569  13.966   6.506
 5171POPC   C3A65777  25.427  14.197   6.864
 5171POPC   C4A65778  25.069  14.087   7.130
 5171POPC   C1B65779  25.439  14.682   6.210
 5171POPC   C2B65780  25.425  14.790   6.634
 5171POPC   C3B65781  25.521  14.665   7.050
 5171POPC   C4B65782  25.353  14.751   7.461
 5172POPC   NC365783  23.951  14.115   5.516
 5172POPC   PO465784  24.382  13.681   5.180
 5172POPC   GL165785  24.522  13.729   5.658
 5172POPC   GL265786  24.224  13.806   5.861
 5172POPC   C1A65787  24.690  13.737   6.109
 5172POPC   D2A65788  24.460  13.714   6.530
 5172POPC   C3A65789  24.634  13.772   6.955
 5172POPC   C4A65790  24.325  13.824   7.286
 5172POPC   C1B65791  24.284  13.393   6.058
 5172POPC   C2B65792  24.167  13.288   6.512
 5172POPC   C3B65793  24.160  13.466   6.947
 5172POPC   C4B65794  24.146  13.264   7.364
 5173POPC   NC365795  19.771  43.254   5.398
 5173POPC   PO465796  19.693  42.583   5.394
 5173POPC   GL165797  19.872  42.833   5.660
 5173POPC   GL265798  19.582  43.035   5.822
 5173POPC   C1A65799  20.053  42.981   6.018
 5173POPC   D2A65800  20.052  43.024   6.445
 5173POPC   C3A65801  20.121  43.055   6.890
 5173POPC   C4A65802  19.935  43.336   7.166
 5173POPC   C1B65803  19.672  43.308   6.188
 5173POPC   C2B65804  19.751  43.396   6.648
 5173POPC   C3B65805  19.465  43.441   6.980
 5173POPC   C4B65806  19.541  43.541   7.399
 5174POPC   NC365807  14.764   1.236   5.224
 5174POPC   PO465808  14.378   1.793   5.413
 5174POPC   GL165809  14.489   1.568   5.803
 5174POPC   GL265810  14.430   1.192   5.842
 5174POPC   C1A65811  14.544   1.479   6.242
 5174POPC   D2A65812  14.367   1.324   6.595
 5174POPC   C3A65813  14.632   1.309   6.908
 5174POPC   C4A65814  14.515   1.411   7.266
 5174POPC   C1B65815  14.451   0.926   6.193
 5174POPC   C2B65816  14.433   0.829   6.633
 5174POPC   C3B65817  14.265   0.976   7.019
 5174POPC   C4B65818  13.868   0.948   7.175
 5175POPC   NC365819  43.215  35.745   5.458
 5175POPC   PO465820  43.224  36.390   5.497
 5175POPC   GL165821  43.056  36.120   5.819
 5175POPC   GL265822  42.774  35.864   5.829
 5175POPC   C1A65823  43.220  35.885   6.162
 5175POPC   D2A65824  43.100  35.874   6.576
 5175POPC   C3A65825  43.222  36.207   6.836
 5175POPC   C4A65826  43.058  36.330   7.247
 5175POPC   C1B65827  42.758  36.109   6.257
 5175POPC   C2B65828  42.704  36.172   6.728
 5175POPC   C3B65829  42.880  35.905   7.064
 5175POPC   C4B65830  42.844  35.784   7.484
 5176POPC   NC365831  21.335  34.871   5.542
 5176POPC   PO465832  21.101  34.227   5.506
 5176POPC   GL165833  21.359  34.420   5.846
 5176POPC   GL265834  21.191  34.728   6.007
 5176POPC   C1A65835  21.555  34.439   6.268
 5176POPC   D2A65836  21.767  34.333   6.672
 5176POPC   C3A65837  21.542  34.403   7.067
 5176POPC   C4A65838  21.082  34.480   7.233
 5176POPC   C1B65839  21.551  34.958   6.212
 5176POPC   C2B65840  21.669  34.846   6.639
 5176POPC   C3B65841  21.367  34.871   6.984
 5176POPC   C4B65842  21.201  34.985   7.396
 5177POPC   NC365843  37.169   7.018   5.407
 5177POPC   PO465844  36.874   6.434   5.285
 5177POPC   GL165845  36.979   6.602   5.699
 5177POPC   GL265846  36.678   6.571   5.896
 5177POPC   C1A65847  37.035   6.926   6.058
 5177POPC   D2A65848  37.248   6.957   6.471
 5177POPC   C3A65849  37.061   6.942   6.873
 5177POPC   C4A65850  36.743   6.891   7.187
 5177POPC   C1B65851  37.033   6.419   6.193
 5177POPC   C2B65852  37.009   6.463   6.672
 5177POPC   C3B65853  36.808   6.403   7.089
 5177POPC   C4B65854  36.548   6.084   7.296
 5178POPC   NC365855  36.475  28.524   5.467
 5178POPC   PO465856  36.964  28.008   5.419
 5178POPC   GL165857  36.964  28.251   5.791
 5178POPC   GL265858  37.023  27.939   5.951
 5178POPC   C1A65859  37.032  28.569   6.146
 5178POPC   D2A65860  37.162  28.489   6.584
 5178POPC   C3A65861  36.889  28.562   6.869
 5178POPC   C4A65862  36.819  28.440   7.275
 5178POPC   C1B65863  36.764  28.150   6.282
 5178POPC   C2B65864  36.675  28.136   6.726
 5178POPC   C3B65865  37.041  28.054   7.022
 5178POPC   C4B65866  37.097  28.017   7.481
 5179POPC   NC365867  15.984  21.345   5.258
 5179POPC   PO465868  15.650  21.820   5.513
 5179POPC   GL165869  15.733  21.467   5.799
 5179POPC   GL265870  16.036  21.265   5.766
 5179POPC   C1A65871  15.965  21.469   6.233
 5179POPC   D2A65872  16.006  21.668   6.671
 5179POPC   C3A65873  15.833  21.454   7.051
 5179POPC   C4A65874  15.538  21.449   7.410
 5179POPC   C1B65875  16.138  21.010   6.128
 5179POPC   C2B65876  16.063  21.069   6.576
 5179POPC   C3B65877  15.995  20.970   6.999
 5179POPC   C4B65878  16.069  21.167   7.420
 5180POPC   NC365879  28.902  20.572   5.587
 5180POPC   PO465880  29.427  20.274   5.265
 5180POPC   GL165881  29.372  20.454   5.774
 5180POPC   GL265882  29.061  20.349   6.034
 5180POPC   C1A65883  29.427  20.610   6.228
 5180POPC   D2A65884  29.174  20.473   6.617
 5180POPC   C3A65885  29.194  20.678   7.027
 5180POPC   C4A65886  29.417  20.593   7.433
 5180POPC   C1B65887  28.910  20.746   6.264
 5180POPC   C2B65888  28.785  20.817   6.702
 5180POPC   C3B65889  28.707  20.496   7.008
 5180POPC   C4B65890  28.904  20.499   7.418
 5181POPC   NC365891  14.908   3.249   5.543
 5181POPC   PO465892  14.535   3.645   5.176
 5181POPC   GL165893  14.446   3.547   5.652
 5181POPC   GL265894  14.369   3.209   5.690
 5181POPC   C1A65895  14.173   3.552   6.081
 5181POPC   D2A65896  14.010   3.482   6.554
 5181POPC   C3A65897  14.122   3.641   7.010
 5181POPC   C4A65898  14.505   3.673   7.287
 5181POPC   C1B65899  14.583   3.249   6.102
 5181POPC   C2B65900  14.567   3.316   6.558
 5181POPC   C3B65901  14.546   3.228   7.012
 5181POPC   C4B65902  14.721   3.206   7.431
 5182POPC   NC365903  20.640  38.896   5.415
 5182POPC   PO465904  20.519  39.627   5.485
 5182POPC   GL165905  20.696  39.349   5.795
 5182POPC   GL265906  20.594  39.032   5.888
 5182POPC   C1A65907  20.458  39.454   6.164
 5182POPC   D2A65908  20.457  39.288   6.563
 5182POPC   C3A65909  20.650  39.495   6.839
 5182POPC   C4A65910  20.381  39.375   7.164
 5182POPC   C1B65911  20.844  39.124   6.247
 5182POPC   C2B65912  20.907  38.969   6.618
 5182POPC   C3B65913  20.703  38.983   6.981
 5182POPC   C4B65914  20.860  39.301   7.246
 5183POPC   NC365915   2.477  25.150   5.511
 5183POPC   PO465916   3.181  25.220   5.572
 5183POPC   GL165917   2.915  25.488   5.869
 5183POPC   GL265918   2.545  25.616   5.768
 5183POPC   C1A65919   2.997  25.419   6.305
 5183POPC   D2A65920   3.064  25.080   6.614
 5183POPC   C3A65921   2.881  25.081   7.025
 5183POPC   C4A65922   2.968  25.301   7.398
 5183POPC   C1B65923   2.485  25.462   6.204
 5183POPC   C2B65924   2.617  25.356   6.653
 5183POPC   C3B65925   2.599  25.506   7.103
 5183POPC   C4B65926   2.510  25.415   7.598
 5184POPC   NC365927  33.883  26.198   5.309
 5184POPC   PO465928  33.509  26.268   5.864
 5184POPC   GL165929  33.773  25.982   6.003
 5184POPC   GL265930  34.072  26.057   5.777
 5184POPC   C1A65931  33.639  25.841   6.418
 5184POPC   D2A65932  33.531  26.051   6.790
 5184POPC   C3A65933  33.809  26.007   7.124
 5184POPC   C4A65934  33.606  26.200   7.451
 5184POPC   C1B65935  34.201  26.203   6.184
 5184POPC   C2B65936  34.025  26.160   6.579
 5184POPC   C3B65937  34.252  26.254   6.906
 5184POPC   C4B65938  34.303  26.056   7.300
 5185POPC   NC365939  30.496  33.449   5.322
 5185POPC   PO465940  30.911  32.858   5.294
 5185POPC   GL165941  30.928  33.047   5.716
 5185POPC   GL265942  30.593  33.128   5.820
 5185POPC   C1A65943  30.926  33.117   6.201
 5185POPC   D2A65944  30.778  32.917   6.593
 5185POPC   C3A65945  30.895  33.079   6.986
 5185POPC   C4A65946  30.885  32.755   7.239
 5185POPC   C1B65947  30.431  32.906   6.213
 5185POPC   C2B65948  30.277  32.950   6.678
 5185POPC   C3B65949  30.411  33.029   7.131
 5185POPC   C4B65950  30.229  33.317   7.444
 5186POPC   NC365951   3.321   5.400   5.431
 5186POPC   PO465952   2.782   4.935   5.514
 5186POPC   GL165953   2.543   4.976   5.843
 5186POPC   GL265954   2.747   5.283   5.893
 5186POPC   C1A65955   2.585   4.965   6.266
 5186POPC   D2A65956   2.899   4.928   6.580
 5186POPC   C3A65957   2.671   5.059   6.917
 5186POPC   C4A65958   2.797   5.052   7.277
 5186POPC   C1B65959   2.946   5.461   6.223
 5186POPC   C2B65960   2.801   5.445   6.618
 5186POPC   C3B65961   3.091   5.345   6.955
 5186POPC   C4B65962   3.253   5.617   7.239
 5187POPC   NC365963  29.819  44.277   5.568
 5187POPC   PO465964  29.821  43.639   5.532
 5187POPC   GL165965  30.106  43.710   5.895
 5187POPC   GL265966  30.187  44.068   5.874
 5187POPC   C1A65967  30.065  43.686   6.348
 5187POPC   D2A65968  29.673  43.849   6.586
 5187POPC   C3A65969  29.703  43.893   7.064
 5187POPC   C4A65970  29.692  43.646   7.462
 5187POPC   C1B65971  30.106  44.181   6.320
 5187POPC   C2B65972  30.123  44.041   6.736
 5187POPC   C3B65973  30.178  43.710   6.979
 5187POPC   C4B65974  30.129  43.910   7.364
 5188POPC   NC365975   2.822  36.296   5.267
 5188POPC   PO465976   3.238  35.801   5.518
 5188POPC   GL165977   2.923  36.101   5.757
 5188POPC   GL265978   2.642  36.396   5.724
 5188POPC   C1A65979   2.623  36.024   6.101
 5188POPC   D2A65980   2.648  35.799   6.493
 5188POPC   C3A65981   2.665  35.974   6.886
 5188POPC   C4A65982   2.718  35.776   7.291
 5188POPC   C1B65983   2.859  36.507   6.078
 5188POPC   C2B65984   2.925  36.264   6.466
 5188POPC   C3B65985   3.104  36.367   6.867
 5188POPC   C4B65986   2.894  36.260   7.245
 5189POPC   NC365987  36.249  31.984   5.535
 5189POPC   PO465988  36.124  31.365   5.439
 5189POPC   GL165989  36.049  31.533   5.834
 5189POPC   GL265990  35.899  31.839   5.869
 5189POPC   C1A65991  35.939  31.381   6.249
 5189POPC   D2A65992  36.290  31.342   6.549
 5189POPC   C3A65993  36.262  31.426   6.996
 5189POPC   C4A65994  36.429  31.315   7.415
 5189POPC   C1B65995  36.047  31.877   6.274
 5189POPC   C2B65996  35.948  31.716   6.659
 5189POPC   C3B65997  36.050  31.872   7.033
 5189POPC   C4B65998  36.235  31.798   7.407
 5190POPC   NC365999  17.809  40.120   5.477
 5190POPC   PO466000  17.099  39.921   5.487
 5190POPC   GL166001  17.448  39.954   5.824
 5190POPC   GL266002  17.795  39.720   5.782
 5190POPC   C1A66003  17.410  39.995   6.293
 5190POPC   D2A66004  17.234  39.803   6.686
 5190POPC   C3A66005  17.357  39.790   7.125
 5190POPC   C4A66006  17.609  40.114   7.129
 5190POPC   C1B66007  17.987  39.841   6.160
 5190POPC   C2B66008  17.851  39.986   6.574
 5190POPC   C3B66009  17.786  39.677   6.880
 5190POPC   C4B66010  17.868  39.696   7.298
 5191POPC   NC366011  30.575  30.972   5.501
 5191POPC   PO466012  30.577  30.332   5.514
 5191POPC   GL166013  30.730  30.560   5.864
 5191POPC   GL266014  30.952  30.851   5.852
 5191POPC   C1A66015  30.791  30.500   6.297
 5191POPC   D2A66016  30.973  30.782   6.575
 5191POPC   C3A66017  30.836  30.782   6.974
 5191POPC   C4A66018  30.541  30.464   7.127
 5191POPC   C1B66019  30.713  31.000   6.196
 5191POPC   C2B66020  30.593  31.162   6.581
 5191POPC   C3B66021  30.475  31.160   6.999
 5191POPC   C4B66022  30.439  30.949   7.385
 5192POPC   NC366023   9.718  20.391   5.460
 5192POPC   PO466024  10.088  21.008   5.404
 5192POPC   GL166025   9.846  20.810   5.757
 5192POPC   GL266026   9.526  20.914   5.783
 5192POPC   C1A66027   9.739  20.527   6.117
 5192POPC   D2A66028   9.660  20.271   6.492
 5192POPC   C3A66029   9.611  20.285   6.963
 5192POPC   C4A66030   9.755  20.526   7.369
 5192POPC   C1B66031   9.421  20.911   6.197
 5192POPC   C2B66032   9.721  20.836   6.544
 5192POPC   C3B66033   9.580  20.801   6.958
 5192POPC   C4B66034   9.637  21.038   7.324
 5193POPC   NC366035  41.816   8.820   5.596
 5193POPC   PO466036  41.253   9.220   5.611
 5193POPC   GL166037  41.274   8.935   5.920
 5193POPC   GL266038  41.396   8.636   5.769
 5193POPC   C1A66039  41.607   8.928   6.228
 5193POPC   D2A66040  41.644   8.746   6.635
 5193POPC   C3A66041  41.496   9.004   6.984
 5193POPC   C4A66042  41.744   9.074   7.339
 5193POPC   C1B66043  41.376   8.459   6.163
 5193POPC   C2B66044  41.168   8.507   6.540
 5193POPC   C3B66045  41.292   8.495   6.964
 5193POPC   C4B66046  41.151   8.630   7.365
 5194POPC   NC366047  30.913  35.837   5.284
 5194POPC   PO466048  30.474  36.261   5.513
 5194POPC   GL166049  30.599  36.007   5.827
 5194POPC   GL266050  30.967  36.026   5.764
 5194POPC   C1A66051  30.472  35.993   6.260
 5194POPC   D2A66052  30.431  36.132   6.687
 5194POPC   C3A66053  30.501  35.869   7.080
 5194POPC   C4A66054  30.574  36.051   7.501
 5194POPC   C1B66055  30.913  36.246   6.147
 5194POPC   C2B66056  30.989  36.095   6.543
 5194POPC   C3B66057  30.877  36.185   6.941
 5194POPC   C4B66058  31.047  36.036   7.287
 5195POPC   NC366059  33.408  34.136   5.266
 5195POPC   PO466060  32.726  33.912   5.189
 5195POPC   GL166061  33.008  33.823   5.566
 5195POPC   GL266062  32.768  33.932   5.818
 5195POPC   C1A66063  33.177  33.668   5.995
 5195POPC   D2A66064  33.109  33.460   6.425
 5195POPC   C3A66065  33.068  33.663   6.852
 5195POPC   C4A66066  33.085  33.984   7.191
 5195POPC   C1B66067  32.707  33.742   6.221
 5195POPC   C2B66068  32.588  33.824   6.631
 5195POPC   C3B66069  32.557  33.599   6.992
 5195POPC   C4B66070  32.477  33.840   7.322
 5196POPC   NC366071  29.746  38.441   5.474
 5196POPC   PO466072  30.302  38.118   5.216
 5196POPC   GL166073  30.157  38.217   5.733
 5196POPC   GL266074  29.766  38.142   5.868
 5196POPC   C1A66075  30.086  38.306   6.212
 5196POPC   D2A66076  30.254  38.418   6.648
 5196POPC   C3A66077  30.078  38.393   7.056
 5196POPC   C4A66078  29.955  38.691   7.356
 5196POPC   C1B66079  29.567  38.429   6.139
 5196POPC   C2B66080  29.737  38.565   6.527
 5196POPC   C3B66081  29.642  38.642   6.930
 5196POPC   C4B66082  29.601  38.357   7.228
 5197POPC   NC366083  15.653  38.521   5.098
 5197POPC   PO466084  15.009  38.334   5.380
 5197POPC   GL166085  14.976  38.560   5.812
 5197POPC   GL266086  15.158  38.888   5.881
 5197POPC   C1A66087  15.121  38.522   6.276
 5197POPC   D2A66088  14.990  38.422   6.727
 5197POPC   C3A66089  15.242  38.405   7.115
 5197POPC   C4A66090  15.034  38.303   7.520
 5197POPC   C1B66091  15.159  39.039   6.264
 5197POPC   C2B66092  15.312  38.935   6.646
 5197POPC   C3B66093  15.076  38.889   6.991
 5197POPC   C4B66094  15.101  38.810   7.424
 5198POPC   NC366095  19.084   5.737   5.161
 5198POPC   PO466096  19.331   6.322   5.368
 5198POPC   GL166097  19.132   6.070   5.708
 5198POPC   GL266098  18.814   6.259   5.781
 5198POPC   C1A66099  19.176   5.914   6.174
 5198POPC   D2A66100  19.316   5.793   6.601
 5198POPC   C3A66101  19.142   5.995   6.953
 5198POPC   C4A66102  19.159   5.728   7.282
 5198POPC   C1B66103  18.690   6.104   6.183
 5198POPC   C2B66104  18.807   5.841   6.536
 5198POPC   C3B66105  18.755   5.658   6.932
 5198POPC   C4B66106  18.695   5.944   7.252
 5199POPC   NC366107  35.910   1.310   5.088
 5199POPC   PO466108  35.320   1.020   5.196
 5199POPC   GL166109  35.498   1.195   5.611
 5199POPC   GL266110  35.347   1.469   5.800
 5199POPC   C1A66111  35.582   1.171   6.113
 5199POPC   D2A66112  35.338   1.107   6.506
 5199POPC   C3A66113  35.460   1.227   6.937
 5199POPC   C4A66114  35.700   1.193   7.313
 5199POPC   C1B66115  35.118   1.471   6.189
 5199POPC   C2B66116  35.179   1.637   6.600
 5199POPC   C3B66117  35.142   1.608   7.034
 5199POPC   C4B66118  35.414   1.623   7.396
 5200POPC   NC366119  28.899  12.534   5.562
 5200POPC   PO466120  29.280  11.949   5.504
 5200POPC   GL166121  29.227  12.293   5.852
 5200POPC   GL266122  28.959  12.097   5.987
 5200POPC   C1A66123  28.986  12.563   6.213
 5200POPC   D2A66124  28.894  12.696   6.658
 5200POPC   C3A66125  29.140  12.399   6.930
 5200POPC   C4A66126  29.096  12.220   7.330
 5200POPC   C1B66127  29.416  11.946   6.146
 5200POPC   C2B66128  29.551  12.031   6.544
 5200POPC   C3B66129  29.159  11.954   6.700
 5200POPC   C4B66130  28.955  11.829   7.033
 5201POPC   NC366131  44.098  30.040   5.172
 5201POPC   PO466132  43.651  29.566   5.399
 5201POPC   GL166133  43.890  29.861   5.665
 5201POPC   GL266134  43.677  29.738   5.904
 5201POPC   C1A66135  43.959  30.087   6.118
 5201POPC   D2A66136  43.702  30.171   6.545
 5201POPC   C3A66137  43.910  30.166   7.002
 5201POPC   C4A66138  43.946  30.206   7.488
 5201POPC   C1B66139  43.965  29.576   6.248
 5201POPC   C2B66140  43.830  29.685   6.679
 5201POPC   C3B66141  43.772  29.679   7.109
 5201POPC   C4B66142  44.034  29.414   7.333
 5202POPC   NC366143  28.150  28.477   5.170
 5202POPC   PO466144  27.519  28.378   5.529
 5202POPC   GL166145  27.690  28.385   5.897
 5202POPC   GL266146  27.915  28.130   5.831
 5202POPC   C1A66147  27.545  28.444   6.294
 5202POPC   D2A66148  27.467  28.650   6.659
 5202POPC   C3A66149  27.323  28.405   7.009
 5202POPC   C4A66150  27.575  28.652   7.219
 5202POPC   C1B66151  27.946  28.112   6.295
 5202POPC   C2B66152  27.700  28.160   6.710
 5202POPC   C3B66153  27.790  28.199   7.150
 5202POPC   C4B66154  27.787  28.095   7.595
 5203POPC   NC366155  26.110   7.613   5.373
 5203POPC   PO466156  25.830   6.982   5.253
 5203POPC   GL166157  25.810   7.217   5.695
 5203POPC   GL266158  26.117   7.369   5.837
 5203POPC   C1A66159  25.778   7.248   6.185
 5203POPC   D2A66160  26.048   7.212   6.568
 5203POPC   C3A66161  25.889   7.309   6.964
 5203POPC   C4A66162  25.938   7.601   7.277
 5203POPC   C1B66163  26.204   7.608   6.244
 5203POPC   C2B66164  26.322   7.728   6.687
 5203POPC   C3B66165  26.424   7.572   7.094
 5203POPC   C4B66166  26.265   7.193   7.287
 5204POPC   NC366167  41.246  40.057   5.218
 5204POPC   PO466168  41.705  39.705   5.429
 5204POPC   GL166169  41.469  39.918   5.754
 5204POPC   GL266170  41.142  39.769   5.712
 5204POPC   C1A66171  41.567  40.056   6.195
 5204POPC   D2A66172  41.788  39.965   6.609
 5204POPC   C3A66173  41.837  40.238   6.979
 5204POPC   C4A66174  41.770  39.911   7.281
 5204POPC   C1B66175  41.286  39.619   6.139
 5204POPC   C2B66176  41.299  39.792   6.569
 5204POPC   C3B66177  41.364  40.034   6.946
 5204POPC   C4B66178  41.166  40.157   7.355
 5205POPC   NC366179   2.363  26.186   5.512
 5205POPC   PO466180   1.632  26.200   5.396
 5205POPC   GL166181   1.774  26.173   5.802
 5205POPC   GL266182   2.004  25.919   5.770
 5205POPC   C1A66183   1.708  26.007   6.211
 5205POPC   D2A66184   1.903  26.095   6.597
 5205POPC   C3A66185   1.652  26.091   6.959
 5205POPC   C4A66186   1.869  26.156   7.328
 5205POPC   C1B66187   2.227  26.012   6.169
 5205POPC   C2B66188   2.312  25.783   6.575
 5205POPC   C3B66189   2.144  25.828   6.996
 5205POPC   C4B66190   2.307  25.843   7.410
 5206POPC   NC366191  20.758  13.130   5.484
 5206POPC   PO466192  20.553  12.496   5.231
 5206POPC   GL166193  20.460  12.719   5.697
 5206POPC   GL266194  20.313  13.040   5.713
 5206POPC   C1A66195  20.675  12.751   6.181
 5206POPC   D2A66196  21.009  12.807   6.534
 5206POPC   C3A66197  20.825  12.965   6.945
 5206POPC   C4A66198  20.422  12.865   7.172
 5206POPC   C1B66199  20.201  12.873   6.118
 5206POPC   C2B66200  20.279  12.918   6.547
 5206POPC   C3B66201  20.257  13.249   6.828
 5206POPC   C4B66202  20.300  13.378   7.246
 5207POPC   NC366203   9.813  15.322   5.016
 5207POPC   PO466204   9.443  14.875   5.413
 5207POPC   GL166205   9.564  15.252   5.739
 5207POPC   GL266206   9.861  15.379   5.807
 5207POPC   C1A66207   9.479  15.291   6.178
 5207POPC   D2A66208   9.436  15.071   6.567
 5207POPC   C3A66209   9.477  15.269   6.958
 5207POPC   C4A66210   9.360  15.266   7.376
 5207POPC   C1B66211   9.991  15.494   6.213
 5207POPC   C2B66212   9.890  15.423   6.655
 5207POPC   C3B66213   9.989  15.263   7.081
 5207POPC   C4B66214  10.171  15.513   7.409
 5208POPC   NC366215  21.744  20.417   5.183
 5208POPC   PO466216  21.325  20.853   5.345
 5208POPC   GL166217  21.418  20.663   5.769
 5208POPC   GL266218  21.541  20.350   5.864
 5208POPC   C1A66219  21.229  20.689   6.193
 5208POPC   D2A66220  21.063  20.592   6.616
 5208POPC   C3A66221  21.205  20.811   6.995
 5208POPC   C4A66222  21.584  20.738   7.205
 5208POPC   C1B66223  21.619  20.360   6.277
 5208POPC   C2B66224  21.692  20.496   6.703
 5208POPC   C3B66225  21.665  20.261   7.072
 5208POPC   C4B66226  21.638  20.322   7.500
 5209POPC   NC366227  34.918  13.276   5.619
 5209POPC   PO466228  34.700  13.829   5.291
 5209POPC   GL166229  34.512  13.576   5.695
 5209POPC   GL266230  34.436  13.837   5.933
 5209POPC   C1A66231  34.542  13.354   6.136
 5209POPC   D2A66232  34.764  13.249   6.488
 5209POPC   C3A66233  34.645  13.455   6.851
 5209POPC   C4A66234  34.634  13.507   7.280
 5209POPC   C1B66235  34.698  13.794   6.332
 5209POPC   C2B66236  34.681  14.004   6.678
 5209POPC   C3B66237  34.471  13.926   7.004
 5209POPC   C4B66238  34.685  14.012   7.353
 5210POPC   NC366239  43.963  15.581   5.385
 5210POPC   PO466240  43.460  15.032   5.445
 5210POPC   GL166241  43.514  15.036   5.880
 5210POPC   GL266242  43.383  14.683   5.888
 5210POPC   C1A66243  43.783  15.259   6.236
 5210POPC   D2A66244  43.845  15.524   6.648
 5210POPC   C3A66245  43.848  15.324   7.089
 5210POPC   C4A66246  43.767  15.332   7.573
 5210POPC   C1B66247  43.629  14.754   6.279
 5210POPC   C2B66248  43.666  14.970   6.652
 5210POPC   C3B66249  43.792  14.769   6.981
 5210POPC   C4B66250  43.938  14.880   7.356
 5211POPC   NC366251  10.872   4.433   5.278
 5211POPC   PO466252  10.330   4.080   5.450
 5211POPC   GL166253  10.583   4.196   5.802
 5211POPC   GL266254  10.657   4.534   5.785
 5211POPC   C1A66255  10.418   4.174   6.244
 5211POPC   D2A66256  10.508   4.296   6.656
 5211POPC   C3A66257  10.385   4.092   7.020
 5211POPC   C4A66258  10.114   4.302   7.290
 5211POPC   C1B66259  10.805   4.502   6.228
 5211POPC   C2B66260  11.041   4.330   6.568
 5211POPC   C3B66261  10.895   4.297   6.978
 5211POPC   C4B66262  10.589   4.526   7.194
 5212POPC   NC366263  25.944  41.951   4.910
 5212POPC   PO466264  25.938  42.448   5.279
 5212POPC   GL166265  26.020  42.281   5.726
 5212POPC   GL266266  26.276  42.011   5.770
 5212POPC   C1A66267  25.860  42.285   6.160
 5212POPC   D2A66268  25.972  42.443   6.566
 5212POPC   C3A66269  25.833  42.259   6.942
 5212POPC   C4A66270  26.029  42.316   7.342
 5212POPC   C1B66271  26.059  41.827   6.131
 5212POPC   C2B66272  26.040  41.926   6.565
 5212POPC   C3B66273  26.065  41.674   6.931
 5212POPC   C4B66274  25.859  41.851   7.250
 5213POPC   NC366275   1.721  11.680   5.469
 5213POPC   PO466276   1.931  12.274   5.199
 5213POPC   GL166277   1.903  12.155   5.675
 5213POPC   GL266278   1.589  12.275   5.873
 5213POPC   C1A66279   1.916  11.902   6.067
 5213POPC   D2A66280   1.957  11.785   6.500
 5213POPC   C3A66281   2.082  12.117   6.783
 5213POPC   C4A66282   2.191  11.990   7.180
 5213POPC   C1B66283   1.485  12.048   6.288
 5213POPC   C2B66284   1.505  11.890   6.695
 5213POPC   C3B66285   1.643  12.042   7.042
 5213POPC   C4B66286   1.753  12.177   7.417
 5214POPC   NC366287  33.031   4.122   5.452
 5214POPC   PO466288  33.190   4.721   5.132
 5214POPC   GL166289  33.226   4.578   5.617
 5214POPC   GL266290  33.041   4.847   5.799
 5214POPC   C1A66291  33.016   4.405   6.043
 5214POPC   D2A66292  32.964   4.114   6.374
 5214POPC   C3A66293  33.053   4.173   6.804
 5214POPC   C4A66294  32.799   4.360   7.090
 5214POPC   C1B66295  33.328   4.782   6.140
 5214POPC   C2B66296  33.248   4.559   6.513
 5214POPC   C3B66297  33.306   4.641   6.940
 5214POPC   C4B66298  33.284   5.007   7.188
 5215POPC   NC366299  24.604  25.494   5.553
 5215POPC   PO466300  24.083  25.105   5.597
 5215POPC   GL166301  24.318  24.969   5.961
 5215POPC   GL266302  24.684  25.017   5.861
 5215POPC   C1A66303  24.297  25.065   6.422
 5215POPC   D2A66304  24.325  25.464   6.687
 5215POPC   C3A66305  24.330  25.412   7.144
 5215POPC   C4A66306  24.282  25.079   7.452
 5215POPC   C1B66307  24.665  25.343   6.198
 5215POPC   C2B66308  24.843  25.366   6.601
 5215POPC   C3B66309  25.039  25.521   6.959
 5215POPC   C4B66310  24.816  25.530   7.284
 5216POPC   NC366311  34.904  41.410   5.443
 5216POPC   PO466312  34.342  41.715   5.500
 5216POPC   GL166313  34.638  41.620   5.844
 5216POPC   GL266314  34.856  41.887   5.928
 5216POPC   C1A66315  34.679  41.462   6.279
 5216POPC   D2A66316  34.673  41.631   6.720
 5216POPC   C3A66317  34.499  41.445   7.102
 5216POPC   C4A66318  34.620  41.511   7.525
 5216POPC   C1B66319  34.971  41.903   6.364
 5216POPC   C2B66320  34.994  42.041   6.795
 5216POPC   C3B66321  34.850  41.862   7.189
 5216POPC   C4B66322  34.976  41.859   7.641
 5217POPC   NC366323  40.092  29.779   5.458
 5217POPC   PO466324  39.545  30.009   5.340
 5217POPC   GL166325  39.738  30.042   5.737
 5217POPC   GL266326  39.800  29.691   5.865
 5217POPC   C1A66327  40.005  30.119   6.087
 5217POPC   D2A66328  40.023  30.160   6.551
 5217POPC   C3A66329  40.071  29.876   6.925
 5217POPC   C4A66330  40.356  30.124   7.181
 5217POPC   C1B66331  39.948  29.651   6.301
 5217POPC   C2B66332  39.826  29.444   6.676
 5217POPC   C3B66333  39.669  29.507   7.119
 5217POPC   C4B66334  39.842  29.425   7.573
 5218POPC   NC366335  35.605   6.531   5.317
 5218POPC   PO466336  34.951   6.833   5.222
 5218POPC   GL166337  35.235   6.837   5.590
 5218POPC   GL266338  35.014   6.872   5.862
 5218POPC   C1A66339  35.510   6.674   5.950
 5218POPC   D2A66340  35.585   6.483   6.364
 5218POPC   C3A66341  35.516   6.610   6.802
 5218POPC   C4A66342  35.618   6.354   7.145
 5218POPC   C1B66343  35.095   6.672   6.269
 5218POPC   C2B66344  35.107   6.884   6.658
 5218POPC   C3B66345  35.072   6.748   7.076
 5218POPC   C4B66346  35.207   6.539   7.447
 5219POPC   NC366347  21.912  39.459   5.693
 5219POPC   PO466348  22.463  39.298   5.269
 5219POPC   GL166349  22.373  39.228   5.786
 5219POPC   GL266350  22.134  39.074   5.949
 5219POPC   C1A66351  22.355  39.464   6.202
 5219POPC   D2A66352  22.388  39.423   6.638
 5219POPC   C3A66353  22.087  39.248   6.951
 5219POPC   C4A66354  21.852  39.422   7.291
 5219POPC   C1B66355  22.236  38.971   6.390
 5219POPC   C2B66356  21.917  38.807   6.696
 5219POPC   C3B66357  21.726  38.906   7.108
 5219POPC   C4B66358  22.019  38.942   7.433
 5220POPC   NC366359  41.506  13.126   5.452
 5220POPC   PO466360  41.397  12.459   5.406
 5220POPC   GL166361  41.436  12.650   5.826
 5220POPC   GL266362  41.648  12.949   5.920
 5220POPC   C1A66363  41.507  12.594   6.270
 5220POPC   D2A66364  41.660  12.873   6.586
 5220POPC   C3A66365  41.656  12.729   7.000
 5220POPC   C4A66366  41.907  12.959   7.263
 5220POPC   C1B66367  41.348  13.108   6.225
 5220POPC   C2B66368  41.317  13.270   6.623
 5220POPC   C3B66369  41.522  13.215   7.014
 5220POPC   C4B66370  41.319  13.225   7.390
 5221POPC   NC366371  33.589  11.421   5.377
 5221POPC   PO466372  34.008  10.961   5.631
 5221POPC   GL166373  34.013  11.284   5.915
 5221POPC   GL266374  33.650  11.368   5.892
 5221POPC   C1A66375  33.896  11.462   6.319
 5221POPC   D2A66376  33.568  11.510   6.614
 5221POPC   C3A66377  33.723  11.388   7.034
 5221POPC   C4A66378  33.744  11.242   7.486
 5221POPC   C1B66379  33.572  11.065   6.264
 5221POPC   C2B66380  33.403  11.036   6.722
 5221POPC   C3B66381  33.377  11.008   7.173
 5221POPC   C4B66382  33.339  10.962   7.625
 5222POPC   NC366383  15.146  20.087   5.663
 5222POPC   PO466384  15.045  19.376   5.379
 5222POPC   GL166385  15.135  19.574   5.764
 5222POPC   GL266386  14.838  19.701   5.859
 5222POPC   C1A66387  15.196  19.705   6.224
 5222POPC   D2A66388  15.488  19.736   6.553
 5222POPC   C3A66389  15.362  19.609   6.917
 5222POPC   C4A66390  15.315  19.804   7.298
 5222POPC   C1B66391  14.690  19.655   6.266
 5222POPC   C2B66392  14.892  19.642   6.639
 5222POPC   C3B66393  14.922  19.861   6.987
 5222POPC   C4B66394  14.829  19.648   7.350
 5223POPC   NC366395  43.303  22.808   5.383
 5223POPC   PO466396  42.635  22.987   5.452
 5223POPC   GL166397  42.965  22.966   5.782
 5223POPC   GL266398  43.271  23.184   5.783
 5223POPC   C1A66399  42.972  22.849   6.218
 5223POPC   D2A66400  42.697  23.024   6.525
 5223POPC   C3A66401  42.876  22.931   6.908
 5223POPC   C4A66402  42.857  22.868   7.327
 5223POPC   C1B66403  43.399  23.158   6.234
 5223POPC   C2B66404  43.333  22.863   6.611
 5223POPC   C3B66405  43.347  22.787   7.062
 5223POPC   C4B66406  43.285  23.164   7.309
 5224POPC   NC366407  35.868  32.320   4.908
 5224POPC   PO466408  36.449  32.391   5.379
 5224POPC   GL166409  36.387  32.343   5.835
 5224POPC   GL266410  36.619  32.048   5.882
 5224POPC   C1A66411  36.127  32.381   6.188
 5224POPC   D2A66412  36.185  32.561   6.575
 5224POPC   C3A66413  35.979  32.395   6.933
 5224POPC   C4A66414  36.135  32.525   7.331
 5224POPC   C1B66415  36.522  32.080   6.281
 5224POPC   C2B66416  36.419  31.973   6.686
 5224POPC   C3B66417  36.455  32.193   7.075
 5224POPC   C4B66418  36.519  32.207   7.537
 5225POPC   NC366419   1.394  29.011   5.522
 5225POPC   PO466420   1.479  29.611   5.854
 5225POPC   GL166421   1.199  29.265   5.956
 5225POPC   GL266422   1.105  28.928   5.913
 5225POPC   C1A66423   1.073  29.192   6.360
 5225POPC   D2A66424   1.296  29.500   6.615
 5225POPC   C3A66425   1.087  29.519   6.996
 5225POPC   C4A66426   1.299  29.278   7.282
 5225POPC   C1B66427   1.439  28.864   6.183
 5225POPC   C2B66428   1.472  28.968   6.624
 5225POPC   C3B66429   1.270  28.856   6.998
 5225POPC   C4B66430   1.473  28.810   7.406
 5226POPC   NC366431   2.675  20.890   5.456
 5226POPC   PO466432   2.900  21.514   5.592
 5226POPC   GL166433   2.924  21.107   5.854
 5226POPC   GL266434   2.675  21.275   5.991
 5226POPC   C1A66435   2.887  20.941   6.287
 5226POPC   D2A66436   2.732  21.304   6.558
 5226POPC   C3A66437   2.775  21.228   6.998
 5226POPC   C4A66438   2.560  21.170   7.384
 5226POPC   C1B66439   2.693  21.709   6.181
 5226POPC   C2B66440   2.737  21.900   6.539
 5226POPC   C3B66441   2.835  21.744   6.906
 5226POPC   C4B66442   2.764  21.819   7.285
 5227POPC   NC366443   1.699  44.955   5.379
 5227POPC   PO466444   1.947  44.358   5.350
 5227POPC   GL166445   1.994  44.532   5.781
 5227POPC   GL266446   2.074  44.278   5.984
 5227POPC   C1A66447   1.992  44.721   6.251
 5227POPC   D2A66448   1.988  44.616   6.692
 5227POPC   C3A66449   1.853  44.842   7.065
 5227POPC   C4A66450   2.128   0.052   7.345
 5227POPC   C1B66451   2.363  44.347   6.290
 5227POPC   C2B66452   2.343  44.243   6.705
 5227POPC   C3B66453   2.252  44.456   7.092
 5227POPC   C4B66454   1.910  44.415   7.315
 5228POPC   NC366455  12.426  12.160   5.589
 5228POPC   PO466456  11.825  12.442   5.543
 5228POPC   GL166457  11.740  12.290   5.930
 5228POPC   GL266458  12.050  12.081   5.926
 5228POPC   C1A66459  11.857  12.204   6.366
 5228POPC   D2A66460  11.800  11.809   6.575
 5228POPC   C3A66461  12.103  11.853   6.893
 5228POPC   C4A66462  11.950  12.069   7.222
 5228POPC   C1B66463  12.238  11.827   6.248
 5228POPC   C2B66464  12.234  11.494   6.533
 5228POPC   C3B66465  12.457  11.475   6.910
 5228POPC   C4B66466  12.530  11.712   7.236
 5229POPC   NC366467  14.965  40.328   5.551
 5229POPC   PO466468  15.474  39.832   5.489
 5229POPC   GL166469  15.271  40.001   5.840
 5229POPC   GL266470  15.485  39.811   6.033
 5229POPC   C1A66471  15.117  40.122   6.242
 5229POPC   D2A66472  15.097  39.874   6.615
 5229POPC   C3A66473  15.070  40.088   7.008
 5229POPC   C4A66474  14.801  40.209   7.304
 5229POPC   C1B66475  15.576  39.945   6.425
 5229POPC   C2B66476  15.551  39.911   6.847
 5229POPC   C3B66477  15.408  39.773   7.209
 5229POPC   C4B66478  15.384  39.793   7.679
 5230POPC   NC366479  36.636  17.556   5.113
 5230POPC   PO466480  37.075  17.449   5.557
 5230POPC   GL166481  36.745  17.428   5.820
 5230POPC   GL266482  36.789  17.753   5.917
 5230POPC   C1A66483  36.812  17.401   6.278
 5230POPC   D2A66484  36.758  17.209   6.657
 5230POPC   C3A66485  36.924  17.380   7.027
 5230POPC   C4A66486  36.644  17.310   7.337
 5230POPC   C1B66487  36.599  17.860   6.294
 5230POPC   C2B66488  36.683  17.709   6.677
 5230POPC   C3B66489  36.543  17.732   7.052
 5230POPC   C4B66490  36.780  17.812   7.396
 5231POPC   NC366491  43.159  43.993   5.122
 5231POPC   PO466492  42.840  43.409   5.416
 5231POPC   GL166493  43.165  43.689   5.706
 5231POPC   GL266494  43.283  44.052   5.640
 5231POPC   C1A66495  43.368  43.789   6.116
 5231POPC   D2A66496  43.261  43.725   6.538
 5231POPC   C3A66497  43.313  43.838   6.950
 5231POPC   C4A66498  42.926  43.943   7.148
 5231POPC   C1B66499  43.269  44.271   6.041
 5231POPC   C2B66500  43.277  44.277   6.500
 5231POPC   C3B66501  43.535  44.290   6.884
 5231POPC   C4B66502  43.276  44.277   7.260
 5232POPC   NC366503   2.839  12.961   5.579
 5232POPC   PO466504   2.346  12.566   5.534
 5232POPC   GL166505   2.427  12.839   5.892
 5232POPC   GL266506   2.416  13.209   5.909
 5232POPC   C1A66507   2.488  12.628   6.290
 5232POPC   D2A66508   2.674  12.339   6.582
 5232POPC   C3A66509   2.923  12.631   6.797
 5232POPC   C4A66510   2.939  12.741   7.210
 5232POPC   C1B66511   2.551  13.144   6.366
 5232POPC   C2B66512   2.469  12.907   6.793
 5232POPC   C3B66513   2.453  12.933   7.274
 5232POPC   C4B66514   2.432  13.298   7.563
 5233POPC   NC366515  25.048  37.231   5.399
 5233POPC   PO466516  25.520  36.809   5.529
 5233POPC   GL166517  25.185  36.932   5.797
 5233POPC   GL266518  25.319  37.216   5.913
 5233POPC   C1A66519  25.167  36.799   6.216
 5233POPC   D2A66520  25.436  36.881   6.547
 5233POPC   C3A66521  25.383  36.735   6.947
 5233POPC   C4A66522  25.421  36.985   7.303
 5233POPC   C1B66523  24.894  37.265   6.127
 5233POPC   C2B66524  24.727  37.144   6.533
 5233POPC   C3B66525  24.991  37.163   6.911
 5233POPC   C4B66526  24.912  36.990   7.327
 5234POPC   NC366527  18.039   5.886   5.397
 5234POPC   PO466528  18.664   5.720   5.355
 5234POPC   GL166529  18.434   5.913   5.751
 5234POPC   GL266530  18.192   6.210   5.783
 5234POPC   C1A66531  18.236   5.852   6.182
 5234POPC   D2A66532  18.333   5.650   6.588
 5234POPC   C3A66533  18.283   5.865   6.965
 5234POPC   C4A66534  18.199   5.975   7.370
 5234POPC   C1B66535  17.985   6.307   6.197
 5234POPC   C2B66536  18.083   6.197   6.635
 5234POPC   C3B66537  17.949   6.320   7.069
 5234POPC   C4B66538  18.178   6.468   7.489
 5235POPC   NC366539  14.396  25.569   5.390
 5235POPC   PO466540  14.497  24.933   5.511
 5235POPC   GL166541  14.392  25.268   5.836
 5235POPC   GL266542  14.668  25.498   5.911
 5235POPC   C1A66543  14.304  25.324   6.319
 5235POPC   D2A66544  14.479  25.198   6.758
 5235POPC   C3A66545  14.202  25.087   7.149
 5235POPC   C4A66546  13.999  25.340   7.534
 5235POPC   C1B66547  14.807  25.372   6.345
 5235POPC   C2B66548  14.927  25.497   6.760
 5235POPC   C3B66549  14.692  25.465   7.144
 5235POPC   C4B66550  14.245  25.589   7.165
 5236POPC   NC366551   3.210  36.850   5.361
 5236POPC   PO466552   3.803  36.623   5.591
 5236POPC   GL166553   3.603  36.886   5.898
 5236POPC   GL266554   3.242  36.969   5.857
 5236POPC   C1A66555   3.718  36.850   6.325
 5236POPC   D2A66556   4.010  36.706   6.628
 5236POPC   C3A66557   3.845  36.932   6.958
 5236POPC   C4A66558   3.755  36.819   7.378
 5236POPC   C1B66559   3.218  36.992   6.284
 5236POPC   C2B66560   3.331  36.807   6.698
 5236POPC   C3B66561   3.360  37.003   7.084
 5236POPC   C4B66562   3.575  37.315   7.295
 5237POPC   NC366563  19.342  16.535   5.419
 5237POPC   PO466564  18.958  17.048   5.572
 5237POPC   GL166565  18.968  16.838   5.896
 5237POPC   GL266566  19.338  16.804   5.852
 5237POPC   C1A66567  18.809  16.632   6.267
 5237POPC   D2A66568  19.076  16.364   6.526
 5237POPC   C3A66569  19.259  16.608   6.837
 5237POPC   C4A66570  19.205  16.524   7.250
 5237POPC   C1B66571  19.308  16.732   6.263
 5237POPC   C2B66572  19.072  17.004   6.520
 5237POPC   C3B66573  18.949  17.048   6.942
 5237POPC   C4B66574  19.047  16.992   7.372
 5238POPC   NC366575  39.363  25.460   5.362
 5238POPC   PO466576  39.189  24.939   5.426
 5238POPC   GL166577  39.240  25.194   5.833
 5238POPC   GL266578  39.417  25.547   5.883
 5238POPC   C1A66579  39.137  25.116   6.300
 5238POPC   D2A66580  38.975  25.068   6.731
 5238POPC   C3A66581  39.214  25.089   7.086
 5238POPC   C4A66582  39.187  25.210   7.464
 5238POPC   C1B66583  39.374  25.565   6.343
 5238POPC   C2B66584  39.375  25.480   6.801
 5238POPC   C3B66585  39.207  25.647   7.196
 5238POPC   C4B66586  39.320  25.640   7.654
 5239POPC   NC366587  15.341  16.356   5.706
 5239POPC   PO466588  14.870  16.777   5.383
 5239POPC   GL166589  15.046  16.772   5.797
 5239POPC   GL266590  15.435  16.865   5.731
 5239POPC   C1A66591  14.916  16.696   6.249
 5239POPC   D2A66592  15.155  16.820   6.648
 5239POPC   C3A66593  15.002  16.842   7.058
 5239POPC   C4A66594  14.760  16.497   7.175
 5239POPC   C1B66595  15.374  16.960   6.178
 5239POPC   C2B66596  15.610  17.002   6.578
 5239POPC   C3B66597  15.646  16.965   7.014
 5239POPC   C4B66598  15.392  17.020   7.382
 5240POPC   NC366599   6.464  12.644   5.519
 5240POPC   PO466600   6.821  13.164   5.543
 5240POPC   GL166601   6.576  13.025   5.886
 5240POPC   GL266602   6.748  12.736   5.958
 5240POPC   C1A66603   6.486  12.946   6.338
 5240POPC   D2A66604   6.398  13.165   6.702
 5240POPC   C3A66605   6.573  13.023   7.077
 5240POPC   C4A66606   6.407  12.651   7.213
 5240POPC   C1B66607   6.949  13.111   6.237
 5240POPC   C2B66608   6.912  13.037   6.670
 5240POPC   C3B66609   6.883  12.617   6.852
 5240POPC   C4B66610   6.873  12.431   7.263
 5241POPC   NC366611  17.881  41.698   5.618
 5241POPC   PO466612  17.498  41.387   5.181
 5241POPC   GL166613  17.491  41.203   5.734
 5241POPC   GL266614  17.186  41.179   5.927
 5241POPC   C1A66615  17.753  41.302   6.153
 5241POPC   D2A66616  17.623  41.332   6.618
 5241POPC   C3A66617  17.759  41.678   6.870
 5241POPC   C4A66618  17.647  41.782   7.282
 5241POPC   C1B66619  17.250  41.426   6.283
 5241POPC   C2B66620  17.231  41.684   6.649
 5241POPC   C3B66621  17.282  41.521   7.043
 5241POPC   C4B66622  17.090  41.387   7.429
 5242POPC   NC366623  11.390  20.597   5.505
 5242POPC   PO466624  10.891  20.172   5.451
 5242POPC   GL166625  10.998  20.473   5.829
 5242POPC   GL266626  11.337  20.359   5.954
 5242POPC   C1A66627  11.173  20.767   6.207
 5242POPC   D2A66628  11.264  21.007   6.627
 5242POPC   C3A66629  11.167  20.829   7.061
 5242POPC   C4A66630  10.985  20.531   7.377
 5242POPC   C1B66631  11.720  20.286   6.195
 5242POPC   C2B66632  11.683  20.229   6.593
 5242POPC   C3B66633  11.508  20.505   6.855
 5242POPC   C4B66634  11.434  20.342   7.234
 5243POPC   NC366635  24.233  44.156   5.059
 5243POPC   PO466636  24.600  43.698   5.393
 5243POPC   GL166637  24.454  43.812   5.804
 5243POPC   GL266638  24.092  43.754   5.877
 5243POPC   C1A66639  24.644  43.852   6.207
 5243POPC   D2A66640  24.741  44.062   6.568
 5243POPC   C3A66641  24.512  43.877   6.882
 5243POPC   C4A66642  24.724  43.809   7.231
 5243POPC   C1B66643  24.315  43.466   6.166
 5243POPC   C2B66644  24.525  43.481   6.542
 5243POPC   C3B66645  24.499  43.382   6.952
 5243POPC   C4B66646  24.298  43.535   7.324
 5244POPC   NC366647  33.196  38.395   5.529
 5244POPC   PO466648  33.911  38.442   5.394
 5244POPC   GL166649  33.951  38.592   5.814
 5244POPC   GL266650  33.597  38.608   5.847
 5244POPC   C1A66651  33.836  38.446   6.261
 5244POPC   D2A66652  33.587  38.521   6.613
 5244POPC   C3A66653  33.840  38.494   6.960
 5244POPC   C4A66654  34.026  38.539   7.343
 5244POPC   C1B66655  33.352  38.350   6.157
 5244POPC   C2B66656  33.491  38.038   6.452
 5244POPC   C3B66657  33.566  38.038   6.886
 5244POPC   C4B66658  33.636  38.165   7.295
 5245POPC   NC366659   8.067  30.883   5.568
 5245POPC   PO466660   8.700  30.754   5.375
 5245POPC   GL166661   8.507  30.780   5.791
 5245POPC   GL266662   8.263  30.485   5.819
 5245POPC   C1A66663   8.332  30.796   6.231
 5245POPC   D2A66664   8.556  30.688   6.614
 5245POPC   C3A66665   8.362  30.492   6.945
 5245POPC   C4A66666   8.324  30.823   7.214
 5245POPC   C1B66667   7.972  30.428   6.186
 5245POPC   C2B66668   7.973  30.632   6.604
 5245POPC   C3B66669   7.881  30.905   6.973
 5245POPC   C4B66670   7.862  30.727   7.411
 5246POPC   NC366671  31.302  13.096   5.509
 5246POPC   PO466672  31.655  12.445   5.332
 5246POPC   GL166673  31.687  12.547   5.854
 5246POPC   GL266674  31.637  12.960   5.891
 5246POPC   C1A66675  31.708  12.687   6.290
 5246POPC   D2A66676  31.386  12.763   6.585
 5246POPC   C3A66677  31.540  12.615   6.971
 5246POPC   C4A66678  31.251  12.646   7.287
 5246POPC   C1B66679  31.510  13.160   6.250
 5246POPC   C2B66680  31.631  13.200   6.667
 5246POPC   C3B66681  31.458  13.117   7.046
 5246POPC   C4B66682  31.654  12.921   7.380
 5247POPC   NC366683   0.078  18.497   5.429
 5247POPC   PO466684   0.367  19.080   5.281
 5247POPC   GL166685   0.336  19.070   5.744
 5247POPC   GL266686   0.370  18.726   5.840
 5247POPC   C1A66687   0.497  19.132   6.190
 5247POPC   D2A66688   0.600  19.036   6.627
 5247POPC   C3A66689   0.567  19.344   6.960
 5247POPC   C4A66690   0.573  19.199   7.370
 5247POPC   C1B66691   0.111  18.806   6.238
 5247POPC   C2B66692   0.073  18.946   6.693
 5247POPC   C3B66693   0.164  18.962   7.172
 5247POPC   C4B66694   0.075  18.878   7.651
 5248POPC   NC366695  21.102  31.570   5.436
 5248POPC   PO466696  21.812  31.693   5.471
 5248POPC   GL166697  21.587  31.456   5.822
 5248POPC   GL266698  21.255  31.284   5.814
 5248POPC   C1A66699  21.507  31.531   6.272
 5248POPC   D2A66700  21.325  31.756   6.637
 5248POPC   C3A66701  21.374  31.526   7.043
 5248POPC   C4A66702  21.831  31.424   7.153
 5248POPC   C1B66703  21.264  31.081   6.209
 5248POPC   C2B66704  21.213  31.211   6.649
 5248POPC   C3B66705  21.076  31.097   7.062
 5248POPC   C4B66706  21.251  31.182   7.495
 5249POPC   NC366707   2.128   8.656   5.326
 5249POPC   PO466708   2.075   9.308   5.261
 5249POPC   GL166709   2.059   9.180   5.703
 5249POPC   GL266710   2.153   8.887   5.803
 5249POPC   C1A66711   2.024   9.189   6.206
 5249POPC   D2A66712   2.097   9.390   6.621
 5249POPC   C3A66713   2.030   9.176   7.039
 5249POPC   C4A66714   1.677   8.895   7.111
 5249POPC   C1B66715   2.380   8.798   6.225
 5249POPC   C2B66716   2.318   8.901   6.683
 5249POPC   C3B66717   2.451   8.838   7.111
 5249POPC   C4B66718   2.102   8.729   7.346
 5250POPC   NC366719  23.775  21.636   5.517
 5250POPC   PO466720  23.260  21.142   5.432
 5250POPC   GL166721  23.313  21.189   5.899
 5250POPC   GL266722  23.368  21.551   5.942
 5250POPC   C1A66723  23.337  21.018   6.345
 5250POPC   D2A66724  23.553  20.831   6.737
 5250POPC   C3A66725  23.829  21.142   6.948
 5250POPC   C4A66726  23.519  21.397   7.190
 5250POPC   C1B66727  23.683  21.415   6.266
 5250POPC   C2B66728  23.825  21.573   6.687
 5250POPC   C3B66729  23.940  21.658   7.154
 5250POPC   C4B66730  23.981  21.376   7.501
 5251POPC   NC366731  33.336   1.119   5.529
 5251POPC   PO466732  32.616   1.043   5.528
 5251POPC   GL166733  32.959   1.013   5.891
 5251POPC   GL266734  33.336   0.878   5.971
 5251POPC   C1A66735  33.156   1.328   6.187
 5251POPC   D2A66736  33.300   1.562   6.549
 5251POPC   C3A66737  33.066   1.466   6.911
 5251POPC   C4A66738  32.831   1.384   7.289
 5251POPC   C1B66739  33.349   0.905   6.414
 5251POPC   C2B66740  32.972   1.065   6.597
 5251POPC   C3B66741  32.831   0.972   6.990
 5251POPC   C4B66742  33.195   1.052   7.180
 5252POPC   NC366743  31.624  38.382   5.312
 5252POPC   PO466744  31.021  38.330   5.296
 5252POPC   GL166745  31.325  38.260   5.699
 5252POPC   GL266746  31.573  38.498   5.864
 5252POPC   C1A66747  31.404  38.060   6.134
 5252POPC   D2A66748  31.546  38.250   6.524
 5252POPC   C3A66749  31.360  38.325   6.934
 5252POPC   C4A66750  31.281  38.743   7.112
 5252POPC   C1B66751  31.800  38.659   6.243
 5252POPC   C2B66752  31.919  38.554   6.654
 5252POPC   C3B66753  31.785  38.609   7.058
 5252POPC   C4B66754  31.655  38.381   7.444
 5253POPC   NC366755  33.428  43.557   5.532
 5253POPC   PO466756  34.033  43.895   5.362
 5253POPC   GL166757  34.184  43.814   5.759
 5253POPC   GL266758  34.102  44.159   5.831
 5253POPC   C1A66759  34.008  43.683   6.161
 5253POPC   D2A66760  33.589  43.774   6.406
 5253POPC   C3A66761  33.591  43.769   6.876
 5253POPC   C4A66762  33.883  43.615   7.220
 5253POPC   C1B66763  33.969  44.176   6.251
 5253POPC   C2B66764  34.014  43.955   6.638
 5253POPC   C3B66765  34.043  44.076   7.058
 5253POPC   C4B66766  33.741  44.283   7.288
 5254POPC   NC366767  15.831  17.903   5.513
 5254POPC   PO466768  16.104  18.570   5.396
 5254POPC   GL166769  15.874  18.368   5.798
 5254POPC   GL266770  16.025  18.054   5.961
 5254POPC   C1A66771  15.729  18.404   6.264
 5254POPC   D2A66772  16.078  18.286   6.560
 5254POPC   C3A66773  16.074  18.202   7.034
 5254POPC   C4A66774  15.919  18.504   7.303
 5254POPC   C1B66775  15.766  17.897   6.296
 5254POPC   C2B66776  15.873  17.850   6.723
 5254POPC   C3B66777  15.633  17.930   7.107
 5254POPC   C4B66778  15.812  18.048   7.489
 5255POPC   NC366779  20.903  24.235   5.436
 5255POPC   PO466780  20.571  24.842   5.381
 5255POPC   GL166781  20.600  24.547   5.743
 5255POPC   GL266782  20.951  24.553   5.834
 5255POPC   C1A66783  20.624  24.399   6.195
 5255POPC   D2A66784  20.913  24.434   6.566
 5255POPC   C3A66785  20.726  24.539   6.982
 5255POPC   C4A66786  20.458  24.875   7.160
 5255POPC   C1B66787  21.080  24.176   6.099
 5255POPC   C2B66788  21.137  23.981   6.525
 5255POPC   C3B66789  21.102  24.150   6.975
 5255POPC   C4B66790  20.772  24.079   7.279
 5256POPC   NC366791  32.236  37.956   5.106
 5256POPC   PO466792  32.426  37.448   5.531
 5256POPC   GL166793  32.333  37.548   5.939
 5256POPC   GL266794  32.250  37.876   5.973
 5256POPC   C1A66795  32.272  37.567   6.383
 5256POPC   D2A66796  32.042  37.574   6.681
 5256POPC   C3A66797  32.238  37.754   6.999
 5256POPC   C4A66798  32.120  37.609   7.368
 5256POPC   C1B66799  32.612  37.914   6.245
 5256POPC   C2B66800  32.606  38.028   6.664
 5256POPC   C3B66801  32.670  38.018   7.079
 5256POPC   C4B66802  32.516  37.947   7.457
 5257POPC   NC366803   1.340  19.695   5.419
 5257POPC   PO466804   1.635  20.277   5.513
 5257POPC   GL166805   1.336  20.086   5.834
 5257POPC   GL266806   1.118  19.757   5.860
 5257POPC   C1A66807   1.280  20.029   6.252
 5257POPC   D2A66808   1.287  19.771   6.604
 5257POPC   C3A66809   1.308  19.936   7.013
 5257POPC   C4A66810   1.367  19.731   7.397
 5257POPC   C1B66811   0.950  19.439   6.142
 5257POPC   C2B66812   1.048  19.298   6.561
 5257POPC   C3B66813   1.086  19.448   6.963
 5257POPC   C4B66814   0.892  19.568   7.336
 5258POPC   NC366815  24.721  33.895   5.618
 5258POPC   PO466816  25.278  33.701   5.246
 5258POPC   GL166817  25.161  33.614   5.671
 5258POPC   GL266818  25.179  33.965   5.820
 5258POPC   C1A66819  25.233  33.591   6.133
 5258POPC   D2A66820  25.077  33.445   6.543
 5258POPC   C3A66821  25.203  33.670   6.915
 5258POPC   C4A66822  25.512  33.599   7.252
 5258POPC   C1B66823  24.951  34.038   6.231
 5258POPC   C2B66824  24.930  34.181   6.657
 5258POPC   C3B66825  25.228  34.187   6.988
 5258POPC   C4B66826  25.156  34.111   7.407
 5259POPC   NC366827  18.707  41.147   5.494
 5259POPC   PO466828  18.625  40.466   5.579
 5259POPC   GL166829  18.367  40.672   5.898
 5259POPC   GL266830  18.385  41.021   5.883
 5259POPC   C1A66831  18.025  40.839   6.211
 5259POPC   D2A66832  17.852  40.877   6.639
 5259POPC   C3A66833  18.189  40.946   6.937
 5259POPC   C4A66834  18.342  40.648   7.258
 5259POPC   C1B66835  18.519  41.139   6.302
 5259POPC   C2B66836  18.611  41.228   6.753
 5259POPC   C3B66837  18.532  41.203   7.227
 5259POPC   C4B66838  18.212  41.029   7.576
 5260POPC   NC366839   9.611  34.361   5.438
 5260POPC   PO466840  10.115  34.741   5.478
 5260POPC   GL166841   9.825  34.638   5.828
 5260POPC   GL266842   9.851  34.309   5.894
 5260POPC   C1A66843   9.623  34.617   6.259
 5260POPC   D2A66844   9.655  34.912   6.630
 5260POPC   C3A66845   9.763  34.753   7.047
 5260POPC   C4A66846   9.514  34.416   7.189
 5260POPC   C1B66847  10.026  34.314   6.284
 5260POPC   C2B66848   9.897  34.436   6.693
 5260POPC   C3B66849  10.100  34.352   7.101
 5260POPC   C4B66850   9.981  34.510   7.492
 5261POPC   NC366851  32.100  43.942   5.228
 5261POPC   PO466852  32.563  43.439   5.114
 5261POPC   GL166853  32.503  43.662   5.544
 5261POPC   GL266854  32.162  43.701   5.692
 5261POPC   C1A66855  32.523  43.889   5.995
 5261POPC   D2A66856  32.436  43.893   6.477
 5261POPC   C3A66857  32.331  44.066   6.922
 5261POPC   C4A66858  32.334  44.039   7.412
 5261POPC   C1B66859  32.005  43.860   6.108
 5261POPC   C2B66860  31.929  44.094   6.502
 5261POPC   C3B66861  31.925  44.374   6.876
 5261POPC   C4B66862  31.859  44.225   7.305
 5262POPC   NC366863  11.111  11.359   5.418
 5262POPC   PO466864  11.689  11.122   5.424
 5262POPC   GL166865  11.393  11.199   5.845
 5262POPC   GL266866  11.106  11.497   5.898
 5262POPC   C1A66867  11.291  11.120   6.309
 5262POPC   D2A66868  11.351  10.933   6.738
 5262POPC   C3A66869  11.387  11.181   7.110
 5262POPC   C4A66870  11.424  11.105   7.586
 5262POPC   C1B66871  11.160  11.634   6.321
 5262POPC   C2B66872  11.345  11.533   6.714
 5262POPC   C3B66873  11.053  11.605   7.066
 5262POPC   C4B66874  11.024  11.391   7.459
 5263POPC   NC366875  18.274  24.143   5.496
 5263POPC   PO466876  18.087  23.400   5.505
 5263POPC   GL166877  18.097  23.758   5.783
 5263POPC   GL266878  18.485  23.819   5.838
 5263POPC   C1A66879  17.996  23.810   6.217
 5263POPC   D2A66880  18.109  23.520   6.574
 5263POPC   C3A66881  18.005  23.643   7.006
 5263POPC   C4A66882  18.260  23.432   7.307
 5263POPC   C1B66883  18.424  24.088   6.222
 5263POPC   C2B66884  18.262  24.008   6.660
 5263POPC   C3B66885  18.458  23.888   7.054
 5263POPC   C4B66886  18.452  23.872   7.502
 5264POPC   NC366887  41.022  16.322   5.590
 5264POPC   PO466888  40.896  16.958   5.545
 5264POPC   GL166889  40.778  16.817   5.932
 5264POPC   GL266890  40.696  16.513   5.928
 5264POPC   C1A66891  40.911  16.679   6.342
 5264POPC   D2A66892  40.646  16.642   6.681
 5264POPC   C3A66893  40.838  16.870   7.003
 5264POPC   C4A66894  41.019  16.954   7.406
 5264POPC   C1B66895  40.539  16.301   6.279
 5264POPC   C2B66896  40.612  16.141   6.712
 5264POPC   C3B66897  40.708  16.329   7.113
 5264POPC   C4B66898  40.592  16.664   7.410
 5265POPC   NC366899   8.790  16.390   5.371
 5265POPC   PO466900   9.157  16.928   5.364
 5265POPC   GL166901   8.979  16.717   5.721
 5265POPC   GL266902   9.181  16.434   5.790
 5265POPC   C1A66903   8.934  16.728   6.180
 5265POPC   D2A66904   9.078  16.997   6.532
 5265POPC   C3A66905   8.819  16.949   6.899
 5265POPC   C4A66906   8.967  16.972   7.307
 5265POPC   C1B66907   9.175  16.271   6.234
 5265POPC   C2B66908   8.979  16.340   6.665
 5265POPC   C3B66909   8.990  16.427   7.142
 5265POPC   C4B66910   9.248  16.576   7.492
 5266POPC   NC366911  38.402   5.241   5.310
 5266POPC   PO466912  37.936   5.772   5.453
 5266POPC   GL166913  38.110   5.362   5.714
 5266POPC   GL266914  38.543   5.322   5.779
 5266POPC   C1A66915  38.229   5.102   6.094
 5266POPC   D2A66916  38.380   4.763   6.402
 5266POPC   C3A66917  38.279   4.860   6.842
 5266POPC   C4A66918  38.364   4.982   7.288
 5266POPC   C1B66919  38.745   5.034   6.107
 5266POPC   C2B66920  38.913   4.903   6.512
 5266POPC   C3B66921  38.776   4.894   6.941
 5266POPC   C4B66922  38.843   4.688   7.367
 5267POPC   NC366923  19.185  43.657   5.391
 5267POPC   PO466924  19.450  44.361   5.370
 5267POPC   GL166925  19.333  44.027   5.748
 5267POPC   GL266926  19.327  43.631   5.875
 5267POPC   C1A66927  19.219  44.009   6.189
 5267POPC   D2A66928  19.010  43.876   6.544
 5267POPC   C3A66929  19.299  43.928   6.888
 5267POPC   C4A66930  19.249  43.953   7.336
 5267POPC   C1B66931  18.947  43.539   6.114
 5267POPC   C2B66932  18.882  43.371   6.525
 5267POPC   C3B66933  18.947  43.545   6.942
 5267POPC   C4B66934  18.812  43.436   7.335
 5268POPC   NC366935  39.954  25.661   5.681
 5268POPC   PO466936  40.228  25.111   5.400
 5268POPC   GL166937  40.099  25.164   5.839
 5268POPC   GL266938  39.763  25.179   5.793
 5268POPC   C1A66939  40.068  25.408   6.250
 5268POPC   D2A66940  39.863  25.420   6.653
 5268POPC   C3A66941  40.170  25.276   6.965
 5268POPC   C4A66942  40.165  25.383   7.397
 5268POPC   C1B66943  39.634  25.152   6.218
 5268POPC   C2B66944  39.551  25.007   6.648
 5268POPC   C3B66945  39.704  25.105   7.062
 5268POPC   C4B66946  39.703  25.134   7.506
 5269POPC   NC366947   7.511  29.204   5.679
 5269POPC   PO466948   6.913  29.009   5.700
 5269POPC   GL166949   7.228  28.941   6.006
 5269POPC   GL266950   7.648  29.048   6.116
 5269POPC   C1A66951   7.249  29.139   6.381
 5269POPC   D2A66952   7.556  29.052   6.651
 5269POPC   C3A66953   7.387  29.051   7.048
 5269POPC   C4A66954   7.465  29.109   7.488
 5269POPC   C1B66955   7.680  29.453   6.312
 5269POPC   C2B66956   7.870  29.533   6.685
 5269POPC   C3B66957   7.785  29.356   7.083
 5269POPC   C4B66958   7.903  29.385   7.488
 5270POPC   NC366959  19.419  35.074   5.524
 5270POPC   PO466960  19.987  35.430   5.390
 5270POPC   GL166961  19.757  35.377   5.795
 5270POPC   GL266962  19.444  35.493   5.822
 5270POPC   C1A66963  19.926  35.317   6.210
 5270POPC   D2A66964  19.885  35.506   6.601
 5270POPC   C3A66965  20.052  35.251   6.880
 5270POPC   C4A66966  19.988  35.115   7.271
 5270POPC   C1B66967  19.443  35.191   6.183
 5270POPC   C2B66968  19.572  35.078   6.604
 5270POPC   C3B66969  19.529  35.294   6.977
 5270POPC   C4B66970  19.162  35.248   7.235
 5271POPC   NC366971   3.474   2.557   5.414
 5271POPC   PO466972   3.398   1.836   5.228
 5271POPC   GL166973   3.490   1.996   5.674
 5271POPC   GL266974   3.272   2.263   5.795
 5271POPC   C1A66975   3.454   1.909   6.154
 5271POPC   D2A66976   3.705   1.924   6.547
 5271POPC   C3A66977   3.469   1.835   6.953
 5271POPC   C4A66978   3.566   1.939   7.409
 5271POPC   C1B66979   3.194   2.370   6.234
 5271POPC   C2B66980   3.324   2.275   6.690
 5271POPC   C3B66981   3.248   2.259   7.163
 5271POPC   C4B66982   3.068   2.010   7.539
 5272POPC   NC366983   0.408  28.970   5.360
 5272POPC   PO466984   0.991  29.244   5.484
 5272POPC   GL166985   0.683  29.239   5.804
 5272POPC   GL266986   0.399  28.995   5.872
 5272POPC   C1A66987   0.578  29.341   6.215
 5272POPC   D2A66988   0.296  29.195   6.504
 5272POPC   C3A66989   0.467  29.152   6.910
 5272POPC   C4A66990   0.802  29.131   7.221
 5272POPC   C1B66991   0.147  28.781   6.202
 5272POPC   C2B66992  44.979  28.835   6.631
 5272POPC   C3B66993   0.140  28.748   7.038
 5272POPC   C4B66994   0.290  28.995   7.362
 5273POPC   NC366995   6.650   3.847   5.332
 5273POPC   PO466996   6.500   4.512   5.245
 5273POPC   GL166997   6.614   4.431   5.721
 5273POPC   GL266998   6.773   4.106   5.892
 5273POPC   C1A66999   6.530   4.416   6.187
 5273POPC   D2A67000   6.388   4.562   6.596
 5273POPC   C3A67001   6.554   4.418   6.987
 5273POPC   C4A67002   6.421   4.188   7.383
 5273POPC   C1B67003   7.046   3.897   6.267
 5273POPC   C2B67004   6.994   3.802   6.711
 5273POPC   C3B67005   6.826   4.003   7.073
 5273POPC   C4B67006   6.824   3.926   7.514
 5274POPC   NC367007  15.278  37.967   5.219
 5274POPC   PO467008  14.853  37.422   5.247
 5274POPC   GL167009  15.218  37.561   5.549
 5274POPC   GL267010  15.170  37.914   5.716
 5274POPC   C1A67011  15.321  37.482   6.001
 5274POPC   D2A67012  15.104  37.308   6.388
 5274POPC   C3A67013  15.203  37.382   6.839
 5274POPC   C4A67014  14.964  37.453   7.227
 5274POPC   C1B67015  15.306  38.009   6.155
 5274POPC   C2B67016  15.328  37.842   6.599
 5274POPC   C3B67017  15.255  37.876   7.062
 5274POPC   C4B67018  15.470  38.060   7.424
 5275POPC   NC367019  39.795   5.742   5.378
 5275POPC   PO467020  40.385   5.414   5.410
 5275POPC   GL167021  40.214   5.824   5.682
 5275POPC   GL267022  39.898   5.755   5.883
 5275POPC   C1A67023  40.224   6.040   6.135
 5275POPC   D2A67024  40.008   5.845   6.514
 5275POPC   C3A67025  40.186   5.863   6.954
 5275POPC   C4A67026  40.347   5.628   7.322
 5275POPC   C1B67027  39.706   6.112   6.157
 5275POPC   C2B67028  39.594   6.130   6.599
 5275POPC   C3B67029  39.676   5.819   6.972
 5275POPC   C4B67030  39.900   5.878   7.409
 5276POPC   NC367031   3.130  38.511   5.311
 5276POPC   PO467032   3.704  38.302   5.068
 5276POPC   GL167033   3.502  38.273   5.583
 5276POPC   GL267034   3.233  38.506   5.798
 5276POPC   C1A67035   3.558  38.244   6.085
 5276POPC   D2A67036   3.845  38.374   6.446
 5276POPC   C3A67037   3.676  38.567   6.827
 5276POPC   C4A67038   3.809  38.563   7.275
 5276POPC   C1B67039   3.370  38.770   6.173
 5276POPC   C2B67040   3.128  38.889   6.521
 5276POPC   C3B67041   3.240  38.867   6.909
 5276POPC   C4B67042   3.272  38.492   7.166
 5277POPC   NC367043  35.547  27.193   5.375
 5277POPC   PO467044  35.114  27.716   5.408
 5277POPC   GL167045  35.393  27.552   5.740
 5277POPC   GL267046  35.277  27.272   5.826
 5277POPC   C1A67047  35.485  27.599   6.201
 5277POPC   D2A67048  35.390  27.416   6.622
 5277POPC   C3A67049  35.436  27.651   7.023
 5277POPC   C4A67050  35.701  27.448   7.306
 5277POPC   C1B67051  35.095  27.249   6.221
 5277POPC   C2B67052  34.877  27.195   6.629
 5277POPC   C3B67053  35.022  27.380   7.001
 5277POPC   C4B67054  35.146  27.455   7.452
 5278POPC   NC367055  13.040  19.261   5.525
 5278POPC   PO467056  12.493  18.834   5.468
 5278POPC   GL167057  12.660  19.047   5.834
 5278POPC   GL267058  13.006  18.935   5.916
 5278POPC   C1A67059  12.723  19.208   6.267
 5278POPC   D2A67060  12.714  18.931   6.633
 5278POPC   C3A67061  12.506  19.115   6.970
 5278POPC   C4A67062  12.775  19.305   7.258
 5278POPC   C1B67063  13.339  18.812   6.190
 5278POPC   C2B67064  13.215  18.790   6.611
 5278POPC   C3B67065  13.109  18.883   7.006
 5278POPC   C4B67066  12.774  18.740   7.216
 5279POPC   NC367067   3.534   6.951   5.519
 5279POPC   PO467068   3.920   6.369   5.414
 5279POPC   GL167069   3.709   6.589   5.806
 5279POPC   GL267070   3.389   6.468   5.990
 5279POPC   C1A67071   3.700   6.809   6.235
 5279POPC   D2A67072   3.420   6.591   6.530
 5279POPC   C3A67073   3.492   6.479   6.953
 5279POPC   C4A67074   3.542   6.489   7.391
 5279POPC   C1B67075   3.217   6.890   6.144
 5279POPC   C2B67076   3.234   7.070   6.549
 5279POPC   C3B67077   3.477   7.001   6.938
 5279POPC   C4B67078   3.436   6.972   7.377
 5280POPC   NC367079  39.680  35.605   5.484
 5280POPC   PO467080  39.063  35.395   5.536
 5280POPC   GL167081  39.229  35.414   5.906
 5280POPC   GL267082  39.372  35.734   5.882
 5280POPC   C1A67083  39.051  35.330   6.313
 5280POPC   D2A67084  38.804  35.415   6.658
 5280POPC   C3A67085  38.955  35.110   6.912
 5280POPC   C4A67086  39.187  35.262   7.200
 5280POPC   C1B67087  39.525  35.540   6.290
 5280POPC   C2B67088  39.511  35.375   6.735
 5280POPC   C3B67089  39.504  35.647   7.133
 5280POPC   C4B67090  39.502  35.578   7.593
 5281POPC   NC367091  26.665  24.257   5.572
 5281POPC   PO467092  26.501  24.950   5.561
 5281POPC   GL167093  26.699  24.688   5.856
 5281POPC   GL267094  27.046  24.575   5.811
 5281POPC   C1A67095  26.747  24.609   6.270
 5281POPC   D2A67096  26.918  24.574   6.636
 5281POPC   C3A67097  26.693  24.579   6.988
 5281POPC   C4A67098  26.606  24.844   7.291
 5281POPC   C1B67099  27.120  24.269   6.170
 5281POPC   C2B67100  27.067  24.095   6.606
 5281POPC   C3B67101  27.094  24.277   7.028
 5281POPC   C4B67102  26.949  24.468   7.439
 5282POPC   NC367103  24.731  14.084   5.343
 5282POPC   PO467104  24.245  14.322   5.793
 5282POPC   GL167105  24.510  14.209   6.040
 5282POPC   GL267106  24.762  14.180   5.838
 5282POPC   C1A67107  24.661  14.172   6.432
 5282POPC   D2A67108  24.603  14.497   6.694
 5282POPC   C3A67109  24.201  14.543   6.888
 5282POPC   C4A67110  24.158  14.309   7.244
 5282POPC   C1B67111  24.969  14.450   6.112
 5282POPC   C2B67112  25.112  14.407   6.531
 5282POPC   C3B67113  25.026  14.558   6.969
 5282POPC   C4B67114  24.660  14.387   7.202
 5283POPC   NC367115   4.409  11.081   5.599
 5283POPC   PO467116   3.845  11.469   5.413
 5283POPC   GL167117   4.134  11.547   5.734
 5283POPC   GL267118   4.501  11.550   5.827
 5283POPC   C1A67119   4.110  11.602   6.147
 5283POPC   D2A67120   4.236  11.357   6.489
 5283POPC   C3A67121   4.079  11.539   6.841
 5283POPC   C4A67122   4.142  11.405   7.255
 5283POPC   C1B67123   4.759  11.704   6.176
 5283POPC   C2B67124   4.814  11.589   6.614
 5283POPC   C3B67125   4.586  11.397   6.960
 5283POPC   C4B67126   4.638  11.348   7.411
 5284POPC   NC367127  32.688  28.403   5.349
 5284POPC   PO467128  33.398  28.246   5.343
 5284POPC   GL167129  33.196  28.277   5.788
 5284POPC   GL267130  32.930  28.547   5.825
 5284POPC   C1A67131  32.947  28.119   6.156
 5284POPC   D2A67132  32.690  27.954   6.515
 5284POPC   C3A67133  32.839  28.093   6.948
 5284POPC   C4A67134  33.016  28.120   7.400
 5284POPC   C1B67135  33.073  28.619   6.267
 5284POPC   C2B67136  33.110  28.519   6.720
 5284POPC   C3B67137  33.038  28.591   7.178
 5284POPC   C4B67138  32.897  28.633   7.634
 5285POPC   NC367139   7.934  39.195   5.342
 5285POPC   PO467140   8.513  39.527   5.399
 5285POPC   GL167141   8.198  39.395   5.736
 5285POPC   GL267142   8.459  39.285   5.905
 5285POPC   C1A67143   8.014  39.391   6.195
 5285POPC   D2A67144   8.036  39.449   6.690
 5285POPC   C3A67145   8.088  39.275   7.147
 5285POPC   C4A67146   7.906  39.357   7.582
 5285POPC   C1B67147   8.435  39.125   6.319
 5285POPC   C2B67148   8.418  39.073   6.767
 5285POPC   C3B67149   8.699  38.819   7.014
 5285POPC   C4B67150   8.647  38.689   7.440
 5286POPC   NC367151  44.033  17.186   5.528
 5286POPC   PO467152  43.742  17.818   5.319
 5286POPC   GL167153  43.785  17.707   5.816
 5286POPC   GL267154  43.513  17.594   5.988
 5286POPC   C1A67155  44.057  17.600   6.203
 5286POPC   D2A67156  43.963  17.700   6.645
 5286POPC   C3A67157  44.134  17.513   6.995
 5286POPC   C4A67158  44.024  17.802   7.321
 5286POPC   C1B67159  43.596  17.456   6.381
 5286POPC   C2B67160  43.657  17.298   6.769
 5286POPC   C3B67161  43.650  17.491   7.145
 5286POPC   C4B67162  43.737  17.424   7.565
 5287POPC   NC367163   6.664  38.335   5.365
 5287POPC   PO467164   6.937  38.822   5.687
 5287POPC   GL167165   6.686  38.529   5.928
 5287POPC   GL267166   6.698  38.181   5.840
 5287POPC   C1A67167   6.719  38.601   6.360
 5287POPC   D2A67168   6.943  38.358   6.649
 5287POPC   C3A67169   6.751  38.448   6.995
 5287POPC   C4A67170   6.485  38.812   7.075
 5287POPC   C1B67171   6.629  38.111   6.281
 5287POPC   C2B67172   6.437  38.197   6.683
 5287POPC   C3B67173   6.568  37.941   7.059
 5287POPC   C4B67174   6.486  37.940   7.541
 5288POPC   NC367175  23.964  28.779   5.459
 5288POPC   PO467176  23.463  28.280   5.303
 5288POPC   GL167177  23.706  28.403   5.705
 5288POPC   GL267178  23.605  28.754   5.821
 5288POPC   C1A67179  23.900  28.321   6.137
 5288POPC   D2A67180  24.105  28.400   6.569
 5288POPC   C3A67181  23.895  28.173   6.895
 5288POPC   C4A67182  23.669  28.226   7.297
 5288POPC   C1B67183  23.779  28.789   6.227
 5288POPC   C2B67184  23.646  28.607   6.622
 5288POPC   C3B67185  23.797  28.668   7.051
 5288POPC   C4B67186  23.637  28.694   7.487
 5289POPC   NC367187  21.251  23.086   5.205
 5289POPC   PO467188  20.580  22.958   5.352
 5289POPC   GL167189  20.573  22.865   5.784
 5289POPC   GL267190  20.730  23.121   5.852
 5289POPC   C1A67191  20.455  22.762   6.201
 5289POPC   D2A67192  20.198  22.955   6.502
 5289POPC   C3A67193  20.292  22.764   6.861
 5289POPC   C4A67194  20.359  22.776   7.277
 5289POPC   C1B67195  20.923  23.031   6.223
 5289POPC   C2B67196  20.715  22.992   6.595
 5289POPC   C3B67197  20.786  22.791   6.954
 5289POPC   C4B67198  20.867  22.994   7.270
 5290POPC   NC367199  44.093   9.921   5.491
 5290POPC   PO467200  43.608   9.577   5.382
 5290POPC   GL167201  43.632   9.873   5.735
 5290POPC   GL267202  43.878   9.674   5.908
 5290POPC   C1A67203  43.658  10.079   6.174
 5290POPC   D2A67204  43.876   9.865   6.536
 5290POPC   C3A67205  43.957   9.980   6.954
 5290POPC   C4A67206  43.785   9.717   7.257
 5290POPC   C1B67207  44.190   9.657   6.216
 5290POPC   C2B67208  44.232   9.449   6.625
 5290POPC   C3B67209  44.240   9.541   7.063
 5290POPC   C4B67210  44.271   9.883   7.363
 5291POPC   NC367211  18.639  16.722   5.423
 5291POPC   PO467212  17.994  16.483   5.535
 5291POPC   GL167213  18.168  16.574   5.932
 5291POPC   GL267214  18.437  16.812   5.898
 5291POPC   C1A67215  18.295  16.572   6.373
 5291POPC   D2A67216  18.319  16.575   6.831
 5291POPC   C3A67217  18.632  16.660   7.145
 5291POPC   C4A67218  18.405  16.491   7.504
 5291POPC   C1B67219  18.173  17.041   6.213
 5291POPC   C2B67220  17.999  16.958   6.619
 5291POPC   C3B67221  17.969  16.919   7.050
 5291POPC   C4B67222  17.840  17.200   7.351
 5292POPC   NC367223  19.649  22.220   5.331
 5292POPC   PO467224  20.294  22.400   5.622
 5292POPC   GL167225  19.918  22.174   5.887
 5292POPC   GL267226  19.634  21.934   6.036
 5292POPC   C1A67227  20.006  22.047   6.330
 5292POPC   D2A67228  20.196  22.349   6.591
 5292POPC   C3A67229  20.012  22.333   7.003
 5292POPC   C4A67230  19.939  22.475   7.433
 5292POPC   C1B67231  19.540  22.293   6.357
 5292POPC   C2B67232  19.482  22.429   6.809
 5292POPC   C3B67233  19.520  22.208   7.198
 5292POPC   C4B67234  19.616  21.789   7.307
 5293POPC   NC367235   5.603  34.307   5.280
 5293POPC   PO467236   6.247  34.420   5.190
 5293POPC   GL167237   6.066  34.405   5.628
 5293POPC   GL267238   6.331  34.253   5.824
 5293POPC   C1A67239   5.887  34.608   6.046
 5293POPC   D2A67240   5.921  34.633   6.527
 5293POPC   C3A67241   5.700  34.865   6.864
 5293POPC   C4A67242   5.595  34.842   7.308
 5293POPC   C1B67243   6.263  34.336   6.261
 5293POPC   C2B67244   6.370  34.467   6.698
 5293POPC   C3B67245   6.179  34.685   7.058
 5293POPC   C4B67246   6.064  34.703   7.490
 5294POPC   NC367247  42.678  32.060   5.408
 5294POPC   PO467248  42.119  32.379   5.503
 5294POPC   GL167249  42.148  32.347   5.913
 5294POPC   GL267250  42.485  32.219   5.845
 5294POPC   C1A67251  42.065  32.149   6.333
 5294POPC   D2A67252  41.978  31.925   6.740
 5294POPC   C3A67253  42.274  32.111   7.071
 5294POPC   C4A67254  42.324  32.582   7.246
 5294POPC   C1B67255  42.571  32.409   6.204
 5294POPC   C2B67256  42.517  32.260   6.580
 5294POPC   C3B67257  42.644  32.410   6.906
 5294POPC   C4B67258  42.764  32.310   7.281
 5295POPC   NC367259  14.881  29.188   5.598
 5295POPC   PO467260  15.426  28.788   5.441
 5295POPC   GL167261  15.312  29.085   5.831
 5295POPC   GL267262  15.510  29.351   5.935
 5295POPC   C1A67263  15.136  29.311   6.241
 5295POPC   D2A67264  15.391  29.435   6.613
 5295POPC   C3A67265  15.072  29.426   6.919
 5295POPC   C4A67266  14.806  29.282   7.238
 5295POPC   C1B67267  15.586  29.030   6.302
 5295POPC   C2B67268  15.630  28.988   6.780
 5295POPC   C3B67269  15.496  29.270   7.129
 5295POPC   C4B67270  15.709  29.350   7.522
 5296POPC   NC367271   0.275   1.670   5.478
 5296POPC   PO467272   0.574   2.276   5.446
 5296POPC   GL167273   0.521   2.008   5.794
 5296POPC   GL267274   0.173   2.093   5.873
 5296POPC   C1A67275   0.460   1.801   6.210
 5296POPC   D2A67276   0.604   1.942   6.609
 5296POPC   C3A67277   0.563   1.651   6.929
 5296POPC   C4A67278   0.657   1.665   7.347
 5296POPC   C1B67279   0.099   2.161   6.342
 5296POPC   C2B67280   0.123   1.869   6.706
 5296POPC   C3B67281   0.242   1.974   7.113
 5296POPC   C4B67282   0.632   2.200   7.157
 5297POPC   NC367283   3.088   3.072   5.384
 5297POPC   PO467284   3.788   2.920   5.322
 5297POPC   GL167285   3.490   2.983   5.705
 5297POPC   GL267286   3.565   2.677   5.896
 5297POPC   C1A67287   3.311   3.018   6.162
 5297POPC   D2A67288   3.360   3.131   6.604
 5297POPC   C3A67289   3.405   2.780   6.895
 5297POPC   C4A67290   3.820   2.822   7.001
 5297POPC   C1B67291   3.712   2.360   6.191
 5297POPC   C2B67292   3.837   2.419   6.601
 5297POPC   C3B67293   3.815   2.220   6.964
 5297POPC   C4B67294   3.706   2.421   7.310
 5298POPC   NC367295  16.466  25.625   5.506
 5298POPC   PO467296  16.901  26.184   5.535
 5298POPC   GL167297  16.826  25.934   5.888
 5298POPC   GL267298  17.005  25.620   5.895
 5298POPC   C1A67299  16.729  26.123   6.294
 5298POPC   D2A67300  16.536  26.046   6.697
 5298POPC   C3A67301  16.581  26.281   7.076
 5298POPC   C4A67302  16.284  26.119   7.358
 5298POPC   C1B67303  16.897  25.626   6.338
 5298POPC   C2B67304  16.917  25.652   6.797
 5298POPC   C3B67305  16.961  25.855   7.204
 5298POPC   C4B67306  17.259  26.009   7.485
 5299POPC   NC367307  17.916  35.124   5.456
 5299POPC   PO467308  18.176  35.741   5.455
 5299POPC   GL167309  18.370  35.477   5.806
 5299POPC   GL267310  18.304  35.108   5.833
 5299POPC   C1A67311  18.508  35.407   6.232
 5299POPC   D2A67312  18.502  35.066   6.540
 5299POPC   C3A67313  18.304  35.155   6.934
 5299POPC   C4A67314  18.276  35.495   7.255
 5299POPC   C1B67315  18.001  35.271   6.150
 5299POPC   C2B67316  18.081  35.419   6.555
 5299POPC   C3B67317  17.875  35.441   6.937
 5299POPC   C4B67318  17.876  35.178   7.302
 5300POPC   NC367319  35.496  38.978   5.551
 5300POPC   PO467320  35.323  39.603   5.340
 5300POPC   GL167321  35.276  39.409   5.767
 5300POPC   GL267322  35.628  39.427   5.840
 5300POPC   C1A67323  35.230  39.131   6.164
 5300POPC   D2A67324  35.062  38.910   6.562
 5300POPC   C3A67325  35.128  39.150   6.943
 5300POPC   C4A67326  35.257  39.083   7.376
 5300POPC   C1B67327  35.723  39.278   6.254
 5300POPC   C2B67328  35.808  39.125   6.692
 5300POPC   C3B67329  35.787  39.403   7.057
 5300POPC   C4B67330  35.634  39.394   7.470
 5301POPC   NC367331  38.152  22.342   5.266
 5301POPC   PO467332  38.169  21.702   5.361
 5301POPC   GL167333  38.413  22.044   5.634
 5301POPC   GL267334  38.180  22.279   5.782
 5301POPC   C1A67335  38.622  22.255   6.055
 5301POPC   D2A67336  38.782  22.249   6.531
 5301POPC   C3A67337  38.529  22.341   6.937
 5301POPC   C4A67338  38.518  22.251   7.413
 5301POPC   C1B67339  38.191  21.949   6.117
 5301POPC   C2B67340  38.297  21.999   6.573
 5301POPC   C3B67341  38.168  21.895   6.986
 5301POPC   C4B67342  38.050  22.129   7.330
 5302POPC   NC367343  13.924  18.631   5.459
 5302POPC   PO467344  13.756  18.044   5.195
 5302POPC   GL167345  13.733  18.162   5.642
 5302POPC   GL267346  13.904  17.952   5.844
 5302POPC   C1A67347  13.709  18.429   6.053
 5302POPC   D2A67348  13.868  18.597   6.463
 5302POPC   C3A67349  13.589  18.488   6.795
 5302POPC   C4A67350  13.474  18.543   7.207
 5302POPC   C1B67351  13.653  17.935   6.232
 5302POPC   C2B67352  13.659  18.000   6.674
 5302POPC   C3B67353  13.677  18.085   7.120
 5302POPC   C4B67354  13.882  18.074   7.520
 5303POPC   NC367355  25.413   8.215   5.272
 5303POPC   PO467356  24.965   7.764   5.178
 5303POPC   GL167357  25.145   7.943   5.640
 5303POPC   GL267358  25.459   8.168   5.807
 5303POPC   C1A67359  25.173   7.962   6.145
 5303POPC   D2A67360  25.157   8.271   6.507
 5303POPC   C3A67361  25.209   8.143   6.939
 5303POPC   C4A67362  25.199   8.392   7.353
 5303POPC   C1B67363  25.625   8.359   6.218
 5303POPC   C2B67364  25.637   8.351   6.681
 5303POPC   C3B67365  25.650   8.442   7.117
 5303POPC   C4B67366  25.660   8.370   7.591
 5304POPC   NC367367  21.297  38.739   5.461
 5304POPC   PO467368  21.749  38.374   5.159
 5304POPC   GL167369  21.646  38.381   5.641
 5304POPC   GL267370  21.296  38.313   5.738
 5304POPC   C1A67371  21.637  38.417   6.120
 5304POPC   D2A67372  21.594  38.183   6.550
 5304POPC   C3A67373  21.642  38.412   6.971
 5304POPC   C4A67374  21.490  38.548   7.409
 5304POPC   C1B67375  21.253  38.107   6.150
 5304POPC   C2B67376  21.088  38.165   6.584
 5304POPC   C3B67377  21.214  38.127   7.040
 5304POPC   C4B67378  21.199  38.143   7.515
 5305POPC   NC367379  34.926  12.557   5.490
 5305POPC   PO467380  34.500  13.048   5.553
 5305POPC   GL167381  34.518  12.868   5.910
 5305POPC   GL267382  34.839  12.838   5.893
 5305POPC   C1A67383  34.566  12.650   6.296
 5305POPC   D2A67384  34.364  12.390   6.609
 5305POPC   C3A67385  34.396  12.619   7.008
 5305POPC   C4A67386  34.460  13.048   7.165
 5305POPC   C1B67387  35.030  12.903   6.231
 5305POPC   C2B67388  34.958  12.757   6.625
 5305POPC   C3B67389  34.928  13.036   6.929
 5305POPC   C4B67390  35.116  13.315   7.200
 5306POPC   NC367391   6.794  24.950   5.567
 5306POPC   PO467392   6.751  24.349   5.365
 5306POPC   GL167393   6.681  24.395   5.822
 5306POPC   GL267394   6.860  24.658   5.985
 5306POPC   C1A67395   6.760  24.222   6.255
 5306POPC   D2A67396   6.961  24.325   6.655
 5306POPC   C3A67397   6.625  24.179   6.927
 5306POPC   C4A67398   6.200  24.234   7.017
 5306POPC   C1B67399   7.109  24.797   6.338
 5306POPC   C2B67400   6.900  24.898   6.721
 5306POPC   C3B67401   6.815  24.637   7.058
 5306POPC   C4B67402   7.042  24.281   7.204
 5307POPC   NC367403  41.086   7.181   5.566
 5307POPC   PO467404  41.732   7.585   5.430
 5307POPC   GL167405  41.753   7.676   5.880
 5307POPC   GL267406  41.459   7.467   5.926
 5307POPC   C1A67407  41.743   7.559   6.356
 5307POPC   D2A67408  41.691   7.288   6.739
 5307POPC   C3A67409  41.660   7.520   7.135
 5307POPC   C4A67410  41.568   7.425   7.590
 5307POPC   C1B67411  41.158   7.286   6.257
 5307POPC   C2B67412  41.019   7.236   6.675
 5307POPC   C3B67413  41.220   7.278   7.063
 5307POPC   C4B67414  41.088   7.350   7.474
 5308POPC   NC367415  20.167  39.942   5.508
 5308POPC   PO467416  19.564  40.395   5.567
 5308POPC   GL167417  19.629  40.022   5.788
 5308POPC   GL267418  19.940  40.120   5.919
 5308POPC   C1A67419  19.569  39.956   6.228
 5308POPC   D2A67420  19.538  40.185   6.586
 5308POPC   C3A67421  19.709  39.939   6.943
 5308POPC   C4A67422  19.674  40.144   7.332
 5308POPC   C1B67423  19.997  39.698   6.095
 5308POPC   C2B67424  20.039  39.590   6.507
 5308POPC   C3B67425  20.214  39.772   6.881
 5308POPC   C4B67426  20.149  39.994   7.264
 5309POPC   NC367427  19.802  15.522   5.417
 5309POPC   PO467428  19.613  14.810   5.457
 5309POPC   GL167429  19.842  15.076   5.786
 5309POPC   GL267430  19.616  15.323   5.860
 5309POPC   C1A67431  20.025  15.367   6.142
 5309POPC   D2A67432  20.190  15.258   6.540
 5309POPC   C3A67433  19.996  15.375   6.901
 5309POPC   C4A67434  19.990  15.031   7.180
 5309POPC   C1B67435  19.628  15.044   6.271
 5309POPC   C2B67436  19.688  14.977   6.743
 5309POPC   C3B67437  19.492  14.965   7.177
 5309POPC   C4B67438  19.346  15.041   7.619
 5310POPC   NC367439  10.728  42.069   5.449
 5310POPC   PO467440  10.406  42.610   5.222
 5310POPC   GL167441  10.365  42.311   5.710
 5310POPC   GL267442  10.398  41.953   5.828
 5310POPC   C1A67443  10.402  42.348   6.228
 5310POPC   D2A67444  10.595  42.568   6.630
 5310POPC   C3A67445  10.363  42.518   7.028
 5310POPC   C4A67446  10.238  42.764   7.418
 5310POPC   C1B67447  10.670  41.913   6.213
 5310POPC   C2B67448  10.561  42.060   6.658
 5310POPC   C3B67449  10.634  42.093   7.124
 5310POPC   C4B67450  10.643  42.073   7.587
 5311POPC   NC367451  43.826  22.403   5.423
 5311POPC   PO467452  43.686  23.056   5.486
 5311POPC   GL167453  43.631  22.702   5.784
 5311POPC   GL267454  43.941  22.473   5.904
 5311POPC   C1A67455  43.608  22.692   6.203
 5311POPC   D2A67456  43.823  22.966   6.469
 5311POPC   C3A67457  43.828  22.820   6.856
 5311POPC   C4A67458  43.794  23.023   7.237
 5311POPC   C1B67459  44.170  22.783   6.143
 5311POPC   C2B67460  44.329  22.888   6.602
 5311POPC   C3B67461  44.275  22.903   7.079
 5311POPC   C4B67462  44.206  22.840   7.579
 5312POPC   NC367463   9.495  13.425   5.261
 5312POPC   PO467464   8.974  13.867   5.433
 5312POPC   GL167465   9.174  13.715   5.802
 5312POPC   GL267466   9.194  13.364   5.675
 5312POPC   C1A67467   9.035  13.750   6.256
 5312POPC   D2A67468   8.764  13.838   6.639
 5312POPC   C3A67469   8.820  14.037   7.078
 5312POPC   C4A67470   8.697  13.937   7.539
 5312POPC   C1B67471   9.230  13.280   6.121
 5312POPC   C2B67472   9.278  13.378   6.579
 5312POPC   C3B67473   9.201  13.648   6.934
 5312POPC   C4B67474   9.299  13.461   7.317
 5313POPC   NC367475   0.112  31.048   5.544
 5313POPC   PO467476   0.103  30.376   5.560
 5313POPC   GL167477   0.278  30.655   5.885
 5313POPC   GL267478   0.481  30.318   5.942
 5313POPC   C1A67479   0.340  31.011   6.227
 5313POPC   D2A67480   0.212  30.920   6.642
 5313POPC   C3A67481   0.442  30.751   6.975
 5313POPC   C4A67482   0.292  30.752   7.402
 5313POPC   C1B67483   0.519  30.556   6.310
 5313POPC   C2B67484   0.811  30.641   6.610
 5313POPC   C3B67485   0.882  30.461   7.008
 5313POPC   C4B67486   0.719  30.452   7.418
 5314POPC   NC367487  15.653  35.238   5.375
 5314POPC   PO467488  16.214  35.009   5.140
 5314POPC   GL167489  16.028  34.960   5.622
 5314POPC   GL267490  15.984  35.315   5.759
 5314POPC   C1A67491  15.877  34.959   6.116
 5314POPC   D2A67492  16.101  35.064   6.516
 5314POPC   C3A67493  15.966  35.206   6.949
 5314POPC   C4A67494  16.140  35.037   7.320
 5314POPC   C1B67495  15.836  35.476   6.173
 5314POPC   C2B67496  16.016  35.581   6.580
 5314POPC   C3B67497  16.154  35.685   7.000
 5314POPC   C4B67498  15.990  35.507   7.386
 5315POPC   NC367499  27.278  16.326   5.562
 5315POPC   PO467500  27.572  16.843   5.221
 5315POPC   GL167501  27.543  16.807   5.687
 5315POPC   GL267502  27.461  17.133   5.864
 5315POPC   C1A67503  27.384  16.685   6.121
 5315POPC   D2A67504  27.432  16.421   6.479
 5315POPC   C3A67505  27.446  16.621   6.867
 5315POPC   C4A67506  27.346  16.664   7.301
 5315POPC   C1B67507  27.178  17.155   6.203
 5315POPC   C2B67508  27.178  16.978   6.605
 5315POPC   C3B67509  27.384  17.111   6.989
 5315POPC   C4B67510  27.471  17.146   7.429
 5316POPC   NC367511  22.144  21.768   5.385
 5316POPC   PO467512  22.416  21.210   5.279
 5316POPC   GL167513  22.333  21.373   5.715
 5316POPC   GL267514  22.014  21.451   5.785
 5316POPC   C1A67515  22.396  21.459   6.182
 5316POPC   D2A67516  22.224  21.200   6.550
 5316POPC   C3A67517  22.351  21.352   6.929
 5316POPC   C4A67518  22.500  21.541   7.280
 5316POPC   C1B67519  21.878  21.357   6.193
 5316POPC   C2B67520  21.852  21.542   6.592
 5316POPC   C3B67521  21.690  21.621   6.990
 5316POPC   C4B67522  21.991  21.513   7.308
 5317POPC   NC367523  12.540  44.486   5.416
 5317POPC   PO467524  11.934  44.672   5.169
 5317POPC   GL167525  11.947  44.809   5.658
 5317POPC   GL267526  12.318  44.851   5.757
 5317POPC   C1A67527  11.927  44.792   6.139
 5317POPC   D2A67528  11.833   0.045   6.526
 5317POPC   C3A67529  11.823  44.856   6.932
 5317POPC   C4A67530  12.271  44.831   7.131
 5317POPC   C1B67531  12.423  44.696   6.186
 5317POPC   C2B67532  12.626  44.419   6.495
 5317POPC   C3B67533  12.548  44.378   6.953
 5317POPC   C4B67534  12.376  44.328   7.387
 5318POPC   NC367535  19.431  44.838   5.458
 5318POPC   PO467536  20.060  44.711   5.438
 5318POPC   GL167537  19.771  44.697   5.805
 5318POPC   GL267538  19.718  44.372   5.805
 5318POPC   C1A67539  19.705  44.765   6.293
 5318POPC   D2A67540  19.822  44.778   6.725
 5318POPC   C3A67541  19.667  44.770   7.139
 5318POPC   C4A67542  20.029  44.889   7.408
 5318POPC   C1B67543  19.727  44.273   6.202
 5318POPC   C2B67544  19.632  44.306   6.639
 5318POPC   C3B67545  19.898  44.341   7.021
 5318POPC   C4B67546  19.630  44.292   7.396
 5319POPC   NC367547  27.943  18.085   5.650
 5319POPC   PO467548  27.533  18.400   5.104
 5319POPC   GL167549  27.468  18.358   5.686
 5319POPC   GL267550  27.673  18.519   5.949
 5319POPC   C1A67551  27.343  18.153   6.097
 5319POPC   D2A67552  27.309  18.016   6.541
 5319POPC   C3A67553  27.493  18.217   6.891
 5319POPC   C4A67554  27.409  18.166   7.291
 5319POPC   C1B67555  27.560  18.540   6.383
 5319POPC   C2B67556  27.790  18.615   6.715
 5319POPC   C3B67557  27.977  18.409   7.032
 5319POPC   C4B67558  27.734  18.591   7.313
 5320POPC   NC367559  34.886   2.062   4.962
 5320POPC   PO467560  35.054   1.701   5.474
 5320POPC   GL167561  34.683   1.788   5.794
 5320POPC   GL267562  34.450   2.113   5.871
 5320POPC   C1A67563  34.720   1.804   6.246
 5320POPC   D2A67564  34.671   1.601   6.662
 5320POPC   C3A67565  34.636   1.771   7.083
 5320POPC   C4A67566  34.551   1.827   7.569
 5320POPC   C1B67567  34.576   2.294   6.293
 5320POPC   C2B67568  34.637   2.203   6.754
 5320POPC   C3B67569  34.511   2.251   7.207
 5320POPC   C4B67570  34.451   2.369   7.649
 5321POPC   NC367571   9.055  26.781   5.426
 5321POPC   PO467572   8.883  27.377   5.600
 5321POPC   GL167573   8.941  26.995   5.886
 5321POPC   GL267574   8.749  26.667   5.840
 5321POPC   C1A67575   9.270  26.898   6.220
 5321POPC   D2A67576   9.371  26.676   6.600
 5321POPC   C3A67577   9.244  26.968   6.914
 5321POPC   C4A67578   9.100  26.969   7.333
 5321POPC   C1B67579   8.593  26.809   6.253
 5321POPC   C2B67580   8.829  26.851   6.627
 5321POPC   C3B67581   8.889  26.596   6.988
 5321POPC   C4B67582   8.695  26.518   7.385
 5322POPC   NC367583  15.647  25.559   5.543
 5322POPC   PO467584  16.255  25.215   5.348
 5322POPC   GL167585  16.096  25.311   5.763
 5322POPC   GL267586  15.801  25.133   5.819
 5322POPC   C1A67587  16.161  25.248   6.235
 5322POPC   D2A67588  16.355  25.041   6.623
 5322POPC   C3A67589  16.161  25.186   7.008
 5322POPC   C4A67590  16.283  25.185   7.448
 5322POPC   C1B67591  15.649  25.258   6.234
 5322POPC   C2B67592  15.723  25.221   6.679
 5322POPC   C3B67593  15.621  24.974   6.977
 5322POPC   C4B67594  15.759  25.189   7.327
 5323POPC   NC367595  40.096   5.098   5.629
 5323POPC   PO467596  39.533   5.421   5.568
 5323POPC   GL167597  39.698   5.278   5.945
 5323POPC   GL267598  39.815   4.949   6.024
 5323POPC   C1A67599  39.883   5.354   6.351
 5323POPC   D2A67600  39.702   5.359   6.763
 5323POPC   C3A67601  39.983   5.208   7.077
 5323POPC   C4A67602  40.329   5.124   7.288
 5323POPC   C1B67603  40.223   4.969   6.239
 5323POPC   C2B67604  40.218   5.022   6.650
 5323POPC   C3B67605  40.320   4.749   6.939
 5323POPC   C4B67606  40.588   4.700   7.267
 5324POPC   NC367607  33.150   8.366   5.543
 5324POPC   PO467608  32.887   7.664   5.492
 5324POPC   GL167609  33.031   7.914   5.815
 5324POPC   GL267610  32.777   8.177   5.863
 5324POPC   C1A67611  33.141   8.055   6.224
 5324POPC   D2A67612  32.899   8.131   6.600
 5324POPC   C3A67613  33.106   8.025   6.972
 5324POPC   C4A67614  33.349   8.312   7.257
 5324POPC   C1B67615  32.827   8.486   6.210
 5324POPC   C2B67616  32.955   8.657   6.630
 5324POPC   C3B67617  32.931   8.507   7.050
 5324POPC   C4B67618  32.633   8.544   7.394
 5325POPC   NC367619   4.651  20.449   5.371
 5325POPC   PO467620   3.966  20.212   5.468
 5325POPC   GL167621   4.053  20.460   5.793
 5325POPC   GL267622   4.156  20.787   5.699
 5325POPC   C1A67623   4.056  20.568   6.206
 5325POPC   D2A67624   4.290  20.485   6.555
 5325POPC   C3A67625   4.092  20.509   6.944
 5325POPC   C4A67626   4.241  20.601   7.362
 5325POPC   C1B67627   4.498  20.783   6.054
 5325POPC   C2B67628   4.590  20.940   6.491
 5325POPC   C3B67629   4.547  20.751   6.912
 5325POPC   C4B67630   4.658  20.877   7.311
 5326POPC   NC367631  23.519  40.064   5.409
 5326POPC   PO467632  23.953  39.617   5.502
 5326POPC   GL167633  23.825  39.928   5.834
 5326POPC   GL267634  23.923  40.284   5.783
 5326POPC   C1A67635  23.672  39.871   6.278
 5326POPC   D2A67636  23.861  39.746   6.664
 5326POPC   C3A67637  23.612  39.809   7.026
 5326POPC   C4A67638  23.651  39.525   7.357
 5326POPC   C1B67639  23.797  40.371   6.241
 5326POPC   C2B67640  23.795  40.261   6.720
 5326POPC   C3B67641  23.976  40.147   7.147
 5326POPC   C4B67642  24.009  40.324   7.576
 5327POPC   NC367643   6.249   8.512   5.339
 5327POPC   PO467644   5.754   8.120   5.172
 5327POPC   GL167645   5.911   8.040   5.672
 5327POPC   GL267646   6.065   8.383   5.804
 5327POPC   C1A67647   5.815   8.100   6.138
 5327POPC   D2A67648   5.578   8.056   6.537
 5327POPC   C3A67649   5.799   8.070   6.959
 5327POPC   C4A67650   5.887   7.828   7.332
 5327POPC   C1B67651   6.057   8.545   6.232
 5327POPC   C2B67652   6.079   8.335   6.622
 5327POPC   C3B67653   6.089   8.491   7.071
 5327POPC   C4B67654   5.952   8.314   7.479
 5328POPC   NC367655  10.536  30.745   5.472
 5328POPC   PO467656  10.162  30.071   5.400
 5328POPC   GL167657  10.229  30.440   5.747
 5328POPC   GL267658  10.099  30.754   5.917
 5328POPC   C1A67659  10.369  30.452   6.249
 5328POPC   D2A67660  10.291  30.561   6.732
 5328POPC   C3A67661  10.623  30.647   7.049
 5328POPC   C4A67662  10.917  30.371   7.315
 5328POPC   C1B67663  10.355  30.983   6.232
 5328POPC   C2B67664  10.564  30.990   6.642
 5328POPC   C3B67665  10.555  31.192   7.050
 5328POPC   C4B67666  10.484  31.019   7.475
 5329POPC   NC367667   2.352  38.200   5.590
 5329POPC   PO467668   2.759  38.759   5.458
 5329POPC   GL167669   2.592  38.736   5.810
 5329POPC   GL267670   2.715  38.410   5.873
 5329POPC   C1A67671   2.721  38.768   6.231
 5329POPC   D2A67672   2.554  38.600   6.597
 5329POPC   C3A67673   2.829  38.539   6.898
 5329POPC   C4A67674   2.697  38.526   7.292
 5329POPC   C1B67675   2.521  38.188   6.216
 5329POPC   C2B67676   2.629  38.100   6.617
 5329POPC   C3B67677   2.505  38.131   7.017
 5329POPC   C4B67678   2.370  37.929   7.369
 5330POPC   NC367679  30.169  22.202   5.577
 5330POPC   PO467680  29.693  22.593   5.490
 5330POPC   GL167681  29.757  22.371   5.879
 5330POPC   GL267682  29.774  21.991   5.830
 5330POPC   C1A67683  29.888  22.478   6.298
 5330POPC   D2A67684  30.141  22.246   6.607
 5330POPC   C3A67685  29.990  22.203   7.045
 5330POPC   C4A67686  29.783  22.391   7.415
 5330POPC   C1B67687  29.895  21.951   6.254
 5330POPC   C2B67688  29.838  21.831   6.677
 5330POPC   C3B67689  30.194  21.638   6.810
 5330POPC   C4B67690  30.398  21.854   7.125
 5331POPC   NC367691  41.275  35.341   5.317
 5331POPC   PO467692  41.597  35.782   5.690
 5331POPC   GL167693  41.593  35.348   5.806
 5331POPC   GL267694  41.371  35.050   5.815
 5331POPC   C1A67695  41.870  35.352   6.147
 5331POPC   D2A67696  41.918  35.616   6.490
 5331POPC   C3A67697  42.016  35.519   6.936
 5331POPC   C4A67698  41.849  35.351   7.338
 5331POPC   C1B67699  41.416  35.153   6.282
 5331POPC   C2B67700  41.469  35.412   6.676
 5331POPC   C3B67701  41.367  35.320   7.109
 5331POPC   C4B67702  41.131  35.112   7.457
 5332POPC   NC367703  11.230   9.218   5.321
 5332POPC   PO467704  11.317   8.645   5.447
 5332POPC   GL167705  11.394   8.934   5.791
 5332POPC   GL267706  11.110   9.122   5.853
 5332POPC   C1A67707  11.340   8.891   6.268
 5332POPC   D2A67708  11.549   8.865   6.687
 5332POPC   C3A67709  11.366   8.676   7.072
 5332POPC   C4A67710  11.313   8.609   7.539
 5332POPC   C1B67711  11.376   9.387   6.139
 5332POPC   C2B67712  11.528   9.447   6.565
 5332POPC   C3B67713  11.387   9.276   6.953
 5332POPC   C4B67714  11.254   9.402   7.351
 5333POPC   NC367715  40.468  35.583   5.242
 5333POPC   PO467716  39.929  35.163   5.394
 5333POPC   GL167717  39.747  35.238   5.841
 5333POPC   GL267718  40.009  35.399   6.005
 5333POPC   C1A67719  39.746  35.082   6.304
 5333POPC   D2A67720  40.058  35.257   6.601
 5333POPC   C3A67721  39.960  35.444   6.995
 5333POPC   C4A67722  39.678  35.161   7.192
 5333POPC   C1B67723  40.009  35.696   6.308
 5333POPC   C2B67724  40.226  35.768   6.632
 5333POPC   C3B67725  40.449  35.492   6.835
 5333POPC   C4B67726  40.438  35.637   7.218
 5334POPC   NC367727  17.303  36.675   5.597
 5334POPC   PO467728  17.548  36.028   5.603
 5334POPC   GL167729  17.466  36.259   5.902
 5334POPC   GL267730  17.680  36.530   5.916
 5334POPC   C1A67731  17.499  36.065   6.289
 5334POPC   D2A67732  17.531  36.104   6.725
 5334POPC   C3A67733  17.776  35.940   7.085
 5334POPC   C4A67734  17.621  35.982   7.521
 5334POPC   C1B67735  17.379  36.588   6.285
 5334POPC   C2B67736  17.495  36.603   6.722
 5334POPC   C3B67737  17.528  36.374   7.167
 5334POPC   C4B67738  17.600  36.477   7.650
 5335POPC   NC367739  16.652  33.254   5.470
 5335POPC   PO467740  16.243  32.812   5.546
 5335POPC   GL167741  16.533  33.049   5.885
 5335POPC   GL267742  16.839  32.921   5.872
 5335POPC   C1A67743  16.773  33.266   6.254
 5335POPC   D2A67744  16.999  33.260   6.665
 5335POPC   C3A67745  16.765  33.321   7.060
 5335POPC   C4A67746  16.484  33.038   7.256
 5335POPC   C1B67747  16.605  32.764   6.279
 5335POPC   C2B67748  16.859  32.762   6.629
 5335POPC   C3B67749  16.909  32.826   7.049
 5335POPC   C4B67750  16.689  32.592   7.386
 5336POPC   NC367751  22.623  36.024   5.493
 5336POPC   PO467752  23.213  36.339   5.263
 5336POPC   GL167753  23.319  36.163   5.735
 5336POPC   GL267754  23.048  35.939   5.796
 5336POPC   C1A67755  23.197  36.170   6.212
 5336POPC   D2A67756  23.035  36.126   6.606
 5336POPC   C3A67757  22.992  36.415   6.930
 5336POPC   C4A67758  22.851  36.123   7.194
 5336POPC   C1B67759  22.723  35.946   6.165
 5336POPC   C2B67760  22.601  35.838   6.597
 5336POPC   C3B67761  22.430  35.931   7.009
 5336POPC   C4B67762  22.495  35.925   7.487
 5337POPC   NC367763  26.705  10.850   5.404
 5337POPC   PO467764  27.246  10.416   5.498
 5337POPC   GL167765  27.023  10.461   5.834
 5337POPC   GL267766  26.702  10.379   5.684
 5337POPC   C1A67767  27.080  10.441   6.277
 5337POPC   D2A67768  26.916  10.585   6.643
 5337POPC   C3A67769  27.004  10.358   6.961
 5337POPC   C4A67770  27.146  10.446   7.325
 5337POPC   C1B67771  26.596  10.467   6.111
 5337POPC   C2B67772  26.535  10.264   6.495
 5337POPC   C3B67773  26.570  10.090   6.907
 5337POPC   C4B67774  26.610  10.327   7.290
 5338POPC   NC367775  17.115  41.393   5.444
 5338POPC   PO467776  16.434  41.430   5.383
 5338POPC   GL167777  16.614  41.493   5.821
 5338POPC   GL267778  16.950  41.617   5.858
 5338POPC   C1A67779  16.750  41.322   6.247
 5338POPC   D2A67780  16.919  41.278   6.691
 5338POPC   C3A67781  16.634  41.346   7.057
 5338POPC   C4A67782  16.590  41.365   7.507
 5338POPC   C1B67783  16.915  41.817   6.231
 5338POPC   C2B67784  16.699  41.771   6.613
 5338POPC   C3B67785  16.871  41.797   7.017
 5338POPC   C4B67786  17.175  41.957   7.292
 5339POPC   NC367787  13.688   5.483   5.664
 5339POPC   PO467788  13.313   4.855   5.575
 5339POPC   GL167789  13.567   5.005   5.852
 5339POPC   GL267790  13.358   5.264   5.979
 5339POPC   C1A67791  13.806   5.047   6.229
 5339POPC   D2A67792  13.806   5.065   6.675
 5339POPC   C3A67793  13.991   5.440   6.846
 5339POPC   C4A67794  14.057   5.432   7.268
 5339POPC   C1B67795  13.295   4.964   6.317
 5339POPC   C2B67796  13.302   5.016   6.754
 5339POPC   C3B67797  13.501   4.960   7.139
 5339POPC   C4B67798  13.308   4.873   7.573
 5340POPC   NC367799  36.010  35.813   5.496
 5340POPC   PO467800  36.174  36.438   5.316
 5340POPC   GL167801  36.038  36.314   5.732
 5340POPC   GL267802  36.287  36.083   5.836
 5340POPC   C1A67803  36.029  36.398   6.201
 5340POPC   D2A67804  35.787  36.385   6.624
 5340POPC   C3A67805  35.984  36.366   7.045
 5340POPC   C4A67806  35.917  36.071   7.406
 5340POPC   C1B67807  36.222  35.936   6.265
 5340POPC   C2B67808  36.245  36.130   6.666
 5340POPC   C3B67809  36.295  35.958   7.084
 5340POPC   C4B67810  36.313  35.688   7.475
 5341POPC   NC367811  42.786   6.693   5.216
 5341POPC   PO467812  42.264   6.364   5.476
 5341POPC   GL167813  42.359   6.575   5.849
 5341POPC   GL267814  42.340   6.923   5.787
 5341POPC   C1A67815  42.139   6.659   6.243
 5341POPC   D2A67816  41.945   6.828   6.632
 5341POPC   C3A67817  42.208   6.687   6.955
 5341POPC   C4A67818  42.167   6.527   7.316
 5341POPC   C1B67819  42.523   7.003   6.166
 5341POPC   C2B67820  42.469   6.896   6.572
 5341POPC   C3B67821  42.385   7.171   6.934
 5341POPC   C4B67822  42.450   6.988   7.330
 5342POPC   NC367823  26.396  13.226   5.549
 5342POPC   PO467824  26.931  12.741   5.526
 5342POPC   GL167825  26.980  12.820   5.960
 5342POPC   GL267826  27.132  13.140   5.938
 5342POPC   C1A67827  26.595  12.918   6.217
 5342POPC   D2A67828  26.325  12.787   6.569
 5342POPC   C3A67829  26.509  12.894   6.938
 5342POPC   C4A67830  26.784  13.038   7.228
 5342POPC   C1B67831  26.980  13.244   6.356
 5342POPC   C2B67832  27.022  13.235   6.819
 5342POPC   C3B67833  27.183  13.396   7.250
 5342POPC   C4B67834  27.242  13.305   7.733
 5343POPC   NC367835  42.164  28.133   5.529
 5343POPC   PO467836  42.506  28.683   5.279
 5343POPC   GL167837  42.546  28.681   5.778
 5343POPC   GL267838  42.363  28.376   5.910
 5343POPC   C1A67839  42.412  28.677   6.280
 5343POPC   D2A67840  42.556  28.371   6.607
 5343POPC   C3A67841  42.378  28.365   6.982
 5343POPC   C4A67842  42.065  28.442   7.265
 5343POPC   C1B67843  42.092  28.165   6.254
 5343POPC   C2B67844  42.158  27.992   6.695
 5343POPC   C3B67845  42.150  27.944   7.174
 5343POPC   C4B67846  42.146  27.781   7.617
 5344POPC   NC367847   0.991   6.168   5.345
 5344POPC   PO467848   1.104   5.478   5.252
 5344POPC   GL167849   1.170   5.777   5.663
 5344POPC   GL267850   1.006   6.056   5.848
 5344POPC   C1A67851   1.317   5.785   6.130
 5344POPC   D2A67852   1.309   5.681   6.591
 5344POPC   C3A67853   1.245   5.975   6.920
 5344POPC   C4A67854   1.580   6.129   7.233
 5344POPC   C1B67855   0.855   6.024   6.312
 5344POPC   C2B67856   0.656   6.225   6.666
 5344POPC   C3B67857   0.725   6.178   7.096
 5344POPC   C4B67858   1.048   6.060   7.398
 5345POPC   NC367859  12.384  36.291   5.490
 5345POPC   PO467860  11.906  35.943   5.265
 5345POPC   GL167861  12.051  36.009   5.726
 5345POPC   GL267862  11.884  36.255   5.792
 5345POPC   C1A67863  12.173  36.193   6.195
 5345POPC   D2A67864  12.142  36.029   6.621
 5345POPC   C3A67865  12.338  36.225   6.992
 5345POPC   C4A67866  12.224  36.131   7.420
 5345POPC   C1B67867  11.695  36.015   6.134
 5345POPC   C2B67868  11.631  36.203   6.531
 5345POPC   C3B67869  11.813  36.269   6.938
 5345POPC   C4B67870  11.721  36.284   7.350
 5346POPC   NC367871  37.286  42.141   5.386
 5346POPC   PO467872  37.313  42.828   5.458
 5346POPC   GL167873  37.027  42.592   5.752
 5346POPC   GL267874  37.072  42.221   5.835
 5346POPC   C1A67875  36.726  42.619   6.108
 5346POPC   D2A67876  36.590  42.618   6.550
 5346POPC   C3A67877  36.730  42.324   6.857
 5346POPC   C4A67878  36.826  42.451   7.264
 5346POPC   C1B67879  37.197  42.386   6.224
 5346POPC   C2B67880  37.159  42.536   6.644
 5346POPC   C3B67881  37.298  42.422   7.063
 5346POPC   C4B67882  37.277  42.176   7.456
 5347POPC   NC367883  12.212   1.666   5.370
 5347POPC   PO467884  12.358   2.384   5.366
 5347POPC   GL167885  12.198   2.144   5.750
 5347POPC   GL267886  12.198   1.766   5.867
 5347POPC   C1A67887  12.029   2.125   6.188
 5347POPC   D2A67888  11.934   1.841   6.522
 5347POPC   C3A67889  12.076   1.953   6.924
 5347POPC   C4A67890  12.030   1.951   7.337
 5347POPC   C1B67891  12.304   1.513   6.252
 5347POPC   C2B67892  12.400   1.623   6.688
 5347POPC   C3B67893  12.351   1.599   7.147
 5347POPC   C4B67894  12.325   1.653   7.618
 5348POPC   NC367895  28.095  41.031   5.511
 5348POPC   PO467896  28.602  40.605   5.359
 5348POPC   GL167897  28.353  40.627   5.727
 5348POPC   GL267898  28.570  40.867   5.845
 5348POPC   C1A67899  28.193  40.713   6.169
 5348POPC   D2A67900  28.288  40.771   6.626
 5348POPC   C3A67901  28.076  41.103   6.893
 5348POPC   C4A67902  27.713  41.184   7.176
 5348POPC   C1B67903  28.733  40.656   6.209
 5348POPC   C2B67904  28.828  40.711   6.656
 5348POPC   C3B67905  28.590  40.835   7.033
 5348POPC   C4B67906  28.194  40.691   7.165
 5349POPC   NC367907  31.837  13.735   5.473
 5349POPC   PO467908  31.134  13.686   5.346
 5349POPC   GL167909  31.348  13.585   5.679
 5349POPC   GL267910  31.361  13.900   5.789
 5349POPC   C1A67911  31.229  13.557   6.125
 5349POPC   D2A67912  31.520  13.633   6.450
 5349POPC   C3A67913  31.430  13.664   6.865
 5349POPC   C4A67914  31.274  13.540   7.237
 5349POPC   C1B67915  31.406  14.055   6.199
 5349POPC   C2B67916  31.586  14.117   6.621
 5349POPC   C3B67917  31.428  14.153   7.032
 5349POPC   C4B67918  31.599  13.900   7.378
 5350POPC   NC367919  21.762  18.833   5.161
 5350POPC   PO467920  21.519  19.446   5.333
 5350POPC   GL167921  21.567  19.092   5.682
 5350POPC   GL267922  21.257  18.951   5.768
 5350POPC   C1A67923  21.662  18.910   6.145
 5350POPC   D2A67924  21.578  19.057   6.593
 5350POPC   C3A67925  21.294  18.867   6.925
 5350POPC   C4A67926  21.486  19.097   7.255
 5350POPC   C1B67927  21.292  19.235   6.154
 5350POPC   C2B67928  21.071  19.218   6.529
 5350POPC   C3B67929  21.200  19.351   6.906
 5350POPC   C4B67930  21.022  19.271   7.245
 5351POPC   NC367931  40.278  40.241   5.391
 5351POPC   PO467932  39.936  39.726   5.459
 5351POPC   GL167933  40.166  39.919   5.795
 5351POPC   GL267934  39.976  40.204   5.859
 5351POPC   C1A67935  40.325  40.052   6.221
 5351POPC   D2A67936  40.095  40.251   6.578
 5351POPC   C3A67937  40.220  40.083   6.982
 5351POPC   C4A67938  40.010  39.785   7.262
 5351POPC   C1B67939  39.714  40.355   6.210
 5351POPC   C2B67940  39.534  40.239   6.618
 5351POPC   C3B67941  39.585  40.058   7.026
 5351POPC   C4B67942  39.835  40.309   7.257
 5352POPC   NC367943  17.701  28.081   5.079
 5352POPC   PO467944  18.278  28.153   5.391
 5352POPC   GL167945  18.257  28.209   5.819
 5352POPC   GL267946  17.989  28.462   5.846
 5352POPC   C1A67947  18.231  28.267   6.258
 5352POPC   D2A67948  18.366  28.319   6.675
 5352POPC   C3A67949  18.082  28.212   6.988
 5352POPC   C4A67950  18.285  28.033   7.336
 5352POPC   C1B67951  18.041  28.738   6.246
 5352POPC   C2B67952  18.121  28.776   6.730
 5352POPC   C3B67953  18.064  28.709   7.198
 5352POPC   C4B67954  17.942  28.892   7.623
 5353POPC   NC367955  39.343  13.854   5.523
 5353POPC   PO467956  38.726  13.623   5.346
 5353POPC   GL167957  38.993  13.470   5.717
 5353POPC   GL267958  38.980  13.787   5.878
 5353POPC   C1A67959  39.376  13.512   6.059
 5353POPC   D2A67960  39.373  13.806   6.429
 5353POPC   C3A67961  39.318  13.694   6.868
 5353POPC   C4A67962  39.430  13.332   7.104
 5353POPC   C1B67963  38.922  13.535   6.273
 5353POPC   C2B67964  38.824  13.562   6.697
 5353POPC   C3B67965  38.903  13.453   7.103
 5353POPC   C4B67966  39.141  13.668   7.355
 5354POPC   NC367967  25.155   2.514   5.231
 5354POPC   PO467968  25.593   2.996   5.346
 5354POPC   GL167969  25.300   2.767   5.645
 5354POPC   GL267970  25.450   2.499   5.796
 5354POPC   C1A67971  25.089   2.744   6.088
 5354POPC   D2A67972  25.094   2.596   6.535
 5354POPC   C3A67973  25.246   2.825   6.908
 5354POPC   C4A67974  25.037   2.950   7.312
 5354POPC   C1B67975  25.579   2.840   6.063
 5354POPC   C2B67976  25.587   2.847   6.500
 5354POPC   C3B67977  25.793   2.941   6.874
 5354POPC   C4B67978  25.593   2.837   7.284
 5355POPC   NC367979   1.994  10.972   5.342
 5355POPC   PO467980   2.231  11.626   5.464
 5355POPC   GL167981   2.086  11.513   5.814
 5355POPC   GL267982   1.933  11.247   5.759
 5355POPC   C1A67983   2.155  11.405   6.215
 5355POPC   D2A67984   2.418  11.351   6.533
 5355POPC   C3A67985   2.221  11.306   6.914
 5355POPC   C4A67986   1.890  11.575   7.040
 5355POPC   C1B67987   1.763  11.092   6.150
 5355POPC   C2B67988   1.747  11.288   6.572
 5355POPC   C3B67989   1.727  11.070   6.950
 5355POPC   C4B67990   1.939  11.094   7.290
 5356POPC   NC367991   0.861   5.102   5.111
 5356POPC   PO467992   1.345   4.890   5.537
 5356POPC   GL167993   1.222   4.953   5.909
 5356POPC   GL267994   1.190   5.299   5.836
 5356POPC   C1A67995   1.117   4.798   6.309
 5356POPC   D2A67996   1.296   4.642   6.666
 5356POPC   C3A67997   1.125   4.856   7.032
 5356POPC   C4A67998   1.284   4.853   7.476
 5356POPC   C1B67999   1.195   5.303   6.275
 5356POPC   C2B68000   1.327   5.156   6.657
 5356POPC   C3B68001   1.136   5.362   6.964
 5356POPC   C4B68002   1.265   5.618   7.279
 5357POPC   NC368003  27.701  30.148   5.427
 5357POPC   PO468004  27.797  29.440   5.488
 5357POPC   GL168005  27.580  29.705   5.783
 5357POPC   GL268006  27.760  29.985   5.924
 5357POPC   C1A68007  27.454  29.732   6.251
 5357POPC   D2A68008  27.578  29.953   6.657
 5357POPC   C3A68009  27.462  29.755   7.070
 5357POPC   C4A68010  27.399  29.787   7.526
 5357POPC   C1B68011  27.824  30.248   6.315
 5357POPC   C2B68012  27.929  30.339   6.759
 5357POPC   C3B68013  27.673  30.246   7.116
 5357POPC   C4B68014  27.791  30.078   7.499
 5358POPC   NC368015  26.394  34.410   5.696
 5358POPC   PO468016  26.760  34.829   5.247
 5358POPC   GL168017  26.779  34.802   5.748
 5358POPC   GL268018  26.839  34.469   5.995
 5358POPC   C1A68019  26.613  34.858   6.182
 5358POPC   D2A68020  26.826  34.844   6.574
 5358POPC   C3A68021  26.687  34.537   6.864
 5358POPC   C4A68022  26.511  34.455   7.270
 5358POPC   C1B68023  27.164  34.708   6.201
 5358POPC   C2B68024  27.318  34.663   6.631
 5358POPC   C3B68025  27.168  34.567   7.020
 5358POPC   C4B68026  26.976  34.215   7.180
 5359POPC   NC368027  21.477  40.258   5.381
 5359POPC   PO468028  21.517  39.569   5.448
 5359POPC   GL168029  21.325  39.705   5.830
 5359POPC   GL268030  21.258  40.071   5.822
 5359POPC   C1A68031  21.452  39.785   6.257
 5359POPC   D2A68032  21.565  40.160   6.486
 5359POPC   C3A68033  21.579  40.101   6.925
 5359POPC   C4A68034  21.508  39.832   7.277
 5359POPC   C1B68035  21.070  40.137   6.250
 5359POPC   C2B68036  21.099  40.295   6.696
 5359POPC   C3B68037  21.103  40.180   7.158
 5359POPC   C4B68038  21.298  40.190   7.602
 5360POPC   NC368039  42.877  21.905   5.324
 5360POPC   PO468040  43.380  22.333   5.316
 5360POPC   GL168041  43.268  22.330   5.743
 5360POPC   GL268042  43.160  21.995   5.745
 5360POPC   C1A68043  42.903  22.330   6.049
 5360POPC   D2A68044  42.876  22.143   6.460
 5360POPC   C3A68045  43.017  22.469   6.714
 5360POPC   C4A68046  43.004  22.414   7.127
 5360POPC   C1B68047  43.025  21.791   6.116
 5360POPC   C2B68048  43.302  21.847   6.476
 5360POPC   C3B68049  43.258  22.050   6.862
 5360POPC   C4B68050  43.396  22.135   7.270
 5361POPC   NC368051  30.931   3.058   4.930
 5361POPC   PO468052  30.644   2.656   5.399
 5361POPC   GL168053  30.630   2.931   5.750
 5361POPC   GL268054  30.932   2.761   5.825
 5361POPC   C1A68055  30.684   3.018   6.222
 5361POPC   D2A68056  30.689   2.741   6.608
 5361POPC   C3A68057  30.582   2.934   7.010
 5361POPC   C4A68058  30.221   3.193   7.159
 5361POPC   C1B68059  31.153   2.754   6.169
 5361POPC   C2B68060  31.219   2.721   6.563
 5361POPC   C3B68061  31.109   2.770   6.966
 5361POPC   C4B68062  30.942   2.840   7.373
 5362POPC   NC368063  35.123  21.845   5.485
 5362POPC   PO468064  34.566  22.278   5.428
 5362POPC   GL168065  34.370  22.168   5.860
 5362POPC   GL268066  34.323  22.513   5.889
 5362POPC   C1A68067  34.320  22.068   6.349
 5362POPC   D2A68068  34.510  21.824   6.736
 5362POPC   C3A68069  34.602  21.985   7.164
 5362POPC   C4A68070  34.874  22.209   7.466
 5362POPC   C1B68071  34.634  22.445   6.229
 5362POPC   C2B68072  34.515  22.421   6.689
 5362POPC   C3B68073  34.483  22.481   7.143
 5362POPC   C4B68074  34.444  22.416   7.574
 5363POPC   NC368075   8.373   3.066   5.568
 5363POPC   PO468076   8.314   2.482   5.270
 5363POPC   GL168077   8.296   2.563   5.735
 5363POPC   GL268078   8.022   2.779   5.831
 5363POPC   C1A68079   8.185   2.474   6.204
 5363POPC   D2A68080   8.267   2.327   6.627
 5363POPC   C3A68081   8.295   2.620   6.996
 5363POPC   C4A68082   7.979   2.792   7.247
 5363POPC   C1B68083   8.179   2.974   6.198
 5363POPC   C2B68084   8.097   2.883   6.599
 5363POPC   C3B68085   8.180   3.140   6.918
 5363POPC   C4B68086   8.353   3.130   7.315
 5364POPC   NC368087  13.863  26.247   5.204
 5364POPC   PO468088  13.258  25.945   5.294
 5364POPC   GL168089  13.515  26.065   5.661
 5364POPC   GL268090  13.882  26.168   5.712
 5364POPC   C1A68091  13.611  25.895   6.084
 5364POPC   D2A68092  13.592  26.008   6.525
 5364POPC   C3A68093  13.681  25.776   6.927
 5364POPC   C4A68094  13.753  25.773   7.374
 5364POPC   C1B68095  13.955  26.274   6.162
 5364POPC   C2B68096  13.793  26.477   6.536
 5364POPC   C3B68097  13.679  26.290   6.926
 5364POPC   C4B68098  13.740  26.371   7.324
 5365POPC   NC368099  10.191  32.755   5.431
 5365POPC   PO468100  10.626  33.311   5.321
 5365POPC   GL168101  10.587  33.035   5.653
 5365POPC   GL268102  10.328  33.081   5.855
 5365POPC   C1A68103  10.744  32.849   6.050
 5365POPC   D2A68104  10.585  33.008   6.436
 5365POPC   C3A68105  10.850  32.958   6.790
 5365POPC   C4A68106  10.713  32.922   7.194
 5365POPC   C1B68107  10.279  32.681   6.126
 5365POPC   C2B68108  10.114  32.698   6.563
 5365POPC   C3B68109  10.294  32.945   6.865
 5365POPC   C4B68110  10.193  33.098   7.250
 5366POPC   NC368111  11.912  14.511   5.336
 5366POPC   PO468112  12.561  14.129   5.190
 5366POPC   GL168113  12.180  14.202   5.622
 5366POPC   GL268114  12.191  14.518   5.820
 5366POPC   C1A68115  12.136  14.135   6.128
 5366POPC   D2A68116  11.904  14.197   6.547
 5366POPC   C3A68117  12.073  14.208   7.001
 5366POPC   C4A68118  12.053  14.364   7.419
 5366POPC   C1B68119  12.364  14.600   6.257
 5366POPC   C2B68120  12.147  14.636   6.679
 5366POPC   C3B68121  11.827  14.641   7.021
 5366POPC   C4B68122  11.947  14.854   7.395
 5367POPC   NC368123  18.029  12.202   5.064
 5367POPC   PO468124  17.674  11.848   5.517
 5367POPC   GL168125  17.395  12.001   5.847
 5367POPC   GL268126  17.663  12.141   5.966
 5367POPC   C1A68127  17.239  12.147   6.233
 5367POPC   D2A68128  17.416  12.173   6.616
 5367POPC   C3A68129  17.117  12.229   6.914
 5367POPC   C4A68130  17.303  12.050   7.241
 5367POPC   C1B68131  17.811  12.080   6.312
 5367POPC   C2B68132  17.911  11.784   6.588
 5367POPC   C3B68133  17.746  11.934   6.939
 5367POPC   C4B68134  17.799  12.153   7.294
 5368POPC   NC368135  18.073  25.805   5.269
 5368POPC   PO468136  18.545  26.202   5.249
 5368POPC   GL168137  18.300  26.077   5.685
 5368POPC   GL268138  18.125  25.793   5.834
 5368POPC   C1A68139  18.324  26.130   6.167
 5368POPC   D2A68140  18.355  26.007   6.593
 5368POPC   C3A68141  18.412  26.257   6.951
 5368POPC   C4A68142  18.058  26.210   7.233
 5368POPC   C1B68143  18.012  25.720   6.292
 5368POPC   C2B68144  17.964  25.743   6.776
 5368POPC   C3B68145  18.302  25.780   7.092
 5368POPC   C4B68146  18.314  25.749   7.560
 5369POPC   NC368147  29.777  11.194   5.410
 5369POPC   PO468148  30.299  11.400   5.830
 5369POPC   GL168149  30.043  11.047   5.944
 5369POPC   GL268150  29.703  11.139   5.905
 5369POPC   C1A68151  30.128  11.027   6.374
 5369POPC   D2A68152  30.395  11.223   6.715
 5369POPC   C3A68153  30.136  11.179   7.104
 5369POPC   C4A68154  29.773  11.468   7.146
 5369POPC   C1B68155  29.622  10.926   6.270
 5369POPC   C2B68156  29.660  11.021   6.705
 5369POPC   C3B68157  29.430  10.874   7.048
 5369POPC   C4B68158  29.419  11.134   7.355
 5370POPC   NC368159  24.724  40.958   5.362
 5370POPC   PO468160  24.044  40.623   5.352
 5370POPC   GL168161  24.277  40.743   5.743
 5370POPC   GL268162  24.455  41.059   5.776
 5370POPC   C1A68163  24.507  40.678   6.142
 5370POPC   D2A68164  24.383  40.815   6.559
 5370POPC   C3A68165  24.540  40.839   6.966
 5370POPC   C4A68166  24.279  40.966   7.329
 5370POPC   C1B68167  24.525  41.192   6.202
 5370POPC   C2B68168  24.826  41.088   6.517
 5370POPC   C3B68169  24.965  41.136   6.910
 5370POPC   C4B68170  24.762  41.160   7.274
 5371POPC   NC368171  38.466  10.515   5.452
 5371POPC   PO468172  38.056  10.144   5.799
 5371POPC   GL168173  38.462  10.297   5.915
 5371POPC   GL268174  38.355  10.631   5.943
 5371POPC   C1A68175  38.625  10.386   6.312
 5371POPC   D2A68176  38.594  10.209   6.679
 5371POPC   C3A68177  38.344  10.323   7.009
 5371POPC   C4A68178  38.537  10.243   7.380
 5371POPC   C1B68179  38.416  10.840   6.327
 5371POPC   C2B68180  38.529  10.754   6.775
 5371POPC   C3B68181  38.509  10.774   7.257
 5371POPC   C4B68182  38.634  10.953   7.714
 5372POPC   NC368183  25.483   1.571   5.289
 5372POPC   PO468184  25.004   1.129   5.362
 5372POPC   GL168185  25.184   1.266   5.757
 5372POPC   GL268186  25.550   1.399   5.771
 5372POPC   C1A68187  25.303   1.107   6.178
 5372POPC   D2A68188  25.144   0.938   6.566
 5372POPC   C3A68189  25.274   1.069   6.980
 5372POPC   C4A68190  25.576   1.019   7.297
 5372POPC   C1B68191  25.728   1.393   6.190
 5372POPC   C2B68192  25.607   1.286   6.616
 5372POPC   C3B68193  25.584   1.485   7.017
 5372POPC   C4B68194  25.475   1.564   7.454
 5373POPC   NC368195  41.982  42.608   5.470
 5373POPC   PO468196  41.387  42.409   5.537
 5373POPC   GL168197  41.543  42.329   5.953
 5373POPC   GL268198  41.321  42.592   6.050
 5373POPC   C1A68199  41.788  42.177   6.360
 5373POPC   D2A68200  41.956  42.397   6.756
 5373POPC   C3A68201  41.799  42.445   7.197
 5373POPC   C4A68202  41.533  42.252   7.535
 5373POPC   C1B68203  41.653  42.672   6.375
 5373POPC   C2B68204  41.566  42.719   6.822
 5373POPC   C3B68205  41.306  42.559   7.181
 5373POPC   C4B68206  41.221  42.735   7.582
 5374POPC   NC368207   7.077  24.997   5.135
 5374POPC   PO468208   6.404  25.171   5.446
 5374POPC   GL168209   6.577  25.252   5.875
 5374POPC   GL268210   6.387  24.928   5.921
 5374POPC   C1A68211   6.720  25.113   6.263
 5374POPC   D2A68212   6.660  25.350   6.608
 5374POPC   C3A68213   6.561  25.156   7.009
 5374POPC   C4A68214   6.646  25.377   7.406
 5374POPC   C1B68215   6.420  24.654   6.282
 5374POPC   C2B68216   6.395  24.679   6.732
 5374POPC   C3B68217   6.309  24.746   7.151
 5374POPC   C4B68218   6.542  24.875   7.523
 5375POPC   NC368219  19.852  18.495   5.357
 5375POPC   PO468220  19.915  17.803   5.322
 5375POPC   GL168221  19.744  18.075   5.730
 5375POPC   GL268222  19.759  18.453   5.862
 5375POPC   C1A68223  19.794  18.086   6.215
 5375POPC   D2A68224  20.067  17.927   6.570
 5375POPC   C3A68225  19.946  18.076   6.968
 5375POPC   C4A68226  19.858  17.874   7.322
 5375POPC   C1B68227  20.077  18.583   6.194
 5375POPC   C2B68228  20.348  18.522   6.593
 5375POPC   C3B68229  20.225  18.529   7.015
 5375POPC   C4B68230  19.811  18.524   7.203
 5376POPC   NC368231  36.340  33.621   5.404
 5376POPC   PO468232  35.943  34.209   5.473
 5376POPC   GL168233  36.002  33.813   5.761
 5376POPC   GL268234  35.790  33.537   5.688
 5376POPC   C1A68235  36.293  33.742   6.155
 5376POPC   D2A68236  36.427  33.916   6.591
 5376POPC   C3A68237  36.295  33.758   7.022
 5376POPC   C4A68238  36.341  33.742   7.497
 5376POPC   C1B68239  35.901  33.379   6.117
 5376POPC   C2B68240  36.072  33.449   6.533
 5376POPC   C3B68241  35.881  33.466   6.915
 5376POPC   C4B68242  36.008  33.415   7.310
 5377POPC   NC368243  25.601   6.751   5.573
 5377POPC   PO468244  26.164   6.401   5.491
 5377POPC   GL168245  26.084   6.767   5.736
 5377POPC   GL268246  25.873   6.576   5.983
 5377POPC   C1A68247  26.187   6.930   6.151
 5377POPC   D2A68248  25.951   6.706   6.493
 5377POPC   C3A68249  25.974   6.793   6.945
 5377POPC   C4A68250  26.019   6.741   7.392
 5377POPC   C1B68251  25.980   6.238   6.294
 5377POPC   C2B68252  26.185   6.227   6.671
 5377POPC   C3B68253  26.159   6.312   7.078
 5377POPC   C4B68254  25.845   6.247   7.327
 5378POPC   NC368255  30.791   7.706   5.255
 5378POPC   PO468256  30.317   8.166   5.204
 5378POPC   GL168257  30.399   8.141   5.665
 5378POPC   GL268258  30.688   7.953   5.716
 5378POPC   C1A68259  30.454   8.131   6.127
 5378POPC   D2A68260  30.367   8.271   6.538
 5378POPC   C3A68261  30.641   8.118   6.876
 5378POPC   C4A68262  30.718   8.282   7.296
 5378POPC   C1B68263  30.944   7.949   6.090
 5378POPC   C2B68264  31.084   8.129   6.478
 5378POPC   C3B68265  31.132   7.936   6.858
 5378POPC   C4B68266  30.998   7.842   7.259
 5379POPC   NC368267  19.388  25.378   5.477
 5379POPC   PO468268  20.003  25.084   5.566
 5379POPC   GL168269  20.108  25.436   5.802
 5379POPC   GL268270  19.771  25.508   5.793
 5379POPC   C1A68271  20.050  25.448   6.252
 5379POPC   D2A68272  19.962  25.176   6.588
 5379POPC   C3A68273  20.038  25.359   6.965
 5379POPC   C4A68274  19.978  25.071   7.261
 5379POPC   C1B68275  19.551  25.609   6.171
 5379POPC   C2B68276  19.473  25.283   6.498
 5379POPC   C3B68277  19.530  25.218   6.928
 5379POPC   C4B68278  19.390  24.978   7.253
 5380POPC   NC368279  32.763  20.725   5.548
 5380POPC   PO468280  33.331  20.813   5.171
 5380POPC   GL168281  33.206  20.722   5.763
 5380POPC   GL268282  32.984  20.385   5.851
 5380POPC   C1A68283  33.026  20.739   6.201
 5380POPC   D2A68284  32.818  20.690   6.599
 5380POPC   C3A68285  33.069  20.611   6.934
 5380POPC   C4A68286  33.315  20.492   7.280
 5380POPC   C1B68287  32.768  20.300   6.215
 5380POPC   C2B68288  32.457  20.351   6.534
 5380POPC   C3B68289  32.477  20.328   6.948
 5380POPC   C4B68290  32.767  20.351   7.265
 5381POPC   NC368291  12.828   2.237   5.400
 5381POPC   PO468292  12.667   1.718   5.168
 5381POPC   GL168293  12.678   1.899   5.711
 5381POPC   GL268294  12.958   2.136   5.871
 5381POPC   C1A68295  12.670   1.851   6.190
 5381POPC   D2A68296  12.878   2.041   6.558
 5381POPC   C3A68297  12.717   1.933   6.980
 5381POPC   C4A68298  12.785   1.731   7.390
 5381POPC   C1B68299  13.296   2.200   6.175
 5381POPC   C2B68300  13.292   2.325   6.610
 5381POPC   C3B68301  13.194   2.141   7.030
 5381POPC   C4B68302  13.012   2.162   7.516
 5382POPC   NC368303  43.627   4.411   5.491
 5382POPC   PO468304  44.131   3.969   5.807
 5382POPC   GL168305  44.146   4.381   5.942
 5382POPC   GL268306  43.761   4.388   5.990
 5382POPC   C1A68307  44.106   4.555   6.348
 5382POPC   D2A68308  43.833   4.287   6.598
 5382POPC   C3A68309  43.945   4.080   7.020
 5382POPC   C4A68310  44.124   4.057   7.528
 5382POPC   C1B68311  43.620   4.753   6.219
 5382POPC   C2B68312  43.762   4.837   6.632
 5382POPC   C3B68313  43.703   4.564   6.997
 5382POPC   C4B68314  43.805   4.418   7.379
 5383POPC   NC368315  36.430  39.014   5.452
 5383POPC   PO468316  37.098  39.171   5.498
 5383POPC   GL168317  36.897  39.277   5.862
 5383POPC   GL268318  36.720  38.963   5.941
 5383POPC   C1A68319  37.104  39.296   6.245
 5383POPC   D2A68320  37.302  39.187   6.634
 5383POPC   C3A68321  37.116  39.407   6.968
 5383POPC   C4A68322  37.123  39.182   7.357
 5383POPC   C1B68323  36.594  39.225   6.303
 5383POPC   C2B68324  36.623  39.369   6.719
 5383POPC   C3B68325  36.685  39.193   7.129
 5383POPC   C4B68326  36.683  39.357   7.566
 5384POPC   NC368327  28.611   4.762   5.566
 5384POPC   PO468328  28.301   4.116   5.517
 5384POPC   GL168329  28.235   4.293   5.913
 5384POPC   GL268330  28.537   4.468   5.976
 5384POPC   C1A68331  28.141   4.404   6.342
 5384POPC   D2A68332  28.311   4.190   6.705
 5384POPC   C3A68333  28.054   4.240   7.003
 5384POPC   C4A68334  28.152   4.325   7.393
 5384POPC   C1B68335  28.633   4.242   6.319
 5384POPC   C2B68336  28.695   4.549   6.655
 5384POPC   C3B68337  28.504   4.522   7.085
 5384POPC   C4B68338  28.630   4.553   7.489
 5385POPC   NC368339   4.413  42.713   5.144
 5385POPC   PO468340   4.562  42.064   5.426
 5385POPC   GL168341   4.280  42.155   5.768
 5385POPC   GL268342   4.116  42.478   5.721
 5385POPC   C1A68343   4.365  42.299   6.202
 5385POPC   D2A68344   4.205  42.015   6.515
 5385POPC   C3A68345   4.169  42.128   6.945
 5385POPC   C4A68346   4.151  41.845   7.318
 5385POPC   C1B68347   4.041  42.730   6.101
 5385POPC   C2B68348   4.138  42.649   6.536
 5385POPC   C3B68349   3.922  42.650   6.927
 5385POPC   C4B68350   4.181  42.570   7.249
 5386POPC   NC368351  13.630  10.763   5.524
 5386POPC   PO468352  13.193  10.229   5.295
 5386POPC   GL168353  13.339  10.351   5.744
 5386POPC   GL268354  13.622  10.541   5.973
 5386POPC   C1A68355  13.282  10.217   6.190
 5386POPC   D2A68356  13.366  10.522   6.526
 5386POPC   C3A68357  13.359  10.372   6.953
 5386POPC   C4A68358  13.481  10.516   7.357
 5386POPC   C1B68359  14.026  10.476   6.245
 5386POPC   C2B68360  14.008  10.426   6.694
 5386POPC   C3B68361  13.753  10.721   6.954
 5386POPC   C4B68362  13.897  10.924   7.343
 5387POPC   NC368363  10.300   2.151   5.428
 5387POPC   PO468364  10.781   1.790   5.323
 5387POPC   GL168365  10.645   1.983   5.765
 5387POPC   GL268366  10.330   1.835   5.839
 5387POPC   C1A68367  10.572   2.221   6.204
 5387POPC   D2A68368  10.619   2.021   6.666
 5387POPC   C3A68369  10.622   2.277   7.025
 5387POPC   C4A68370  10.895   2.333   7.343
 5387POPC   C1B68371  10.438   1.752   6.278
 5387POPC   C2B68372  10.778   1.551   6.485
 5387POPC   C3B68373  10.837   1.577   6.917
 5387POPC   C4B68374  10.552   1.790   7.167
 5388POPC   NC368375   6.084   2.569   5.463
 5388POPC   PO468376   6.057   1.823   5.397
 5388POPC   GL168377   5.731   1.967   5.692
 5388POPC   GL268378   5.989   1.923   5.912
 5388POPC   C1A68379   5.611   2.189   6.107
 5388POPC   D2A68380   5.847   2.159   6.506
 5388POPC   C3A68381   5.678   2.184   6.913
 5388POPC   C4A68382   5.768   2.067   7.346
 5388POPC   C1B68383   6.148   1.807   6.306
 5388POPC   C2B68384   6.277   1.689   6.697
 5388POPC   C3B68385   6.077   1.818   7.052
 5388POPC   C4B68386   6.074   1.556   7.451
 5389POPC   NC368387  16.981  23.354   5.361
 5389POPC   PO468388  16.385  23.296   5.536
 5389POPC   GL168389  16.478  23.062   5.943
 5389POPC   GL268390  16.314  22.706   5.988
 5389POPC   C1A68391  16.742  23.005   6.338
 5389POPC   D2A68392  16.698  22.738   6.708
 5389POPC   C3A68393  17.013  22.780   7.007
 5389POPC   C4A68394  16.943  23.058   7.350
 5389POPC   C1B68395  16.248  22.874   6.412
 5389POPC   C2B68396  16.404  23.171   6.726
 5389POPC   C3B68397  16.499  23.023   7.127
 5389POPC   C4B68398  16.549  22.580   7.217
 5390POPC   NC368399  38.011   1.376   5.270
 5390POPC   PO468400  37.463   0.995   5.449
 5390POPC   GL168401  37.757   1.232   5.699
 5390POPC   GL268402  37.784   0.966   5.909
 5390POPC   C1A68403  37.742   1.399   6.138
 5390POPC   D2A68404  37.634   1.149   6.474
 5390POPC   C3A68405  37.812   1.249   6.887
 5390POPC   C4A68406  37.923   1.315   7.308
 5390POPC   C1B68407  37.388   0.855   6.102
 5390POPC   C2B68408  37.264   0.800   6.508
 5390POPC   C3B68409  37.383   0.866   6.889
 5390POPC   C4B68410  37.675   0.878   7.214
 5391POPC   NC368411  14.891  26.180   5.338
 5391POPC   PO468412  14.244  25.976   5.259
 5391POPC   GL168413  14.441  26.126   5.643
 5391POPC   GL268414  14.310  25.868   5.838
 5391POPC   C1A68415  14.514  26.276   6.090
 5391POPC   D2A68416  14.346  26.363   6.510
 5391POPC   C3A68417  14.092  26.074   6.720
 5391POPC   C4A68418  14.097  26.066   7.151
 5391POPC   C1B68419  14.294  25.844   6.294
 5391POPC   C2B68420  14.471  25.722   6.704
 5391POPC   C3B68421  14.602  25.973   7.080
 5391POPC   C4B68422  14.594  26.419   7.196
 5392POPC   NC368423  37.971  38.436   5.380
 5392POPC   PO468424  38.581  38.697   5.167
 5392POPC   GL168425  38.372  38.562   5.664
 5392POPC   GL268426  38.655  38.456   5.871
 5392POPC   C1A68427  38.261  38.373   6.142
 5392POPC   D2A68428  38.354  38.541   6.552
 5392POPC   C3A68429  38.121  38.527   6.941
 5392POPC   C4A68430  38.281  38.412   7.354
 5392POPC   C1B68431  38.816  38.591   6.259
 5392POPC   C2B68432  38.879  38.399   6.635
 5392POPC   C3B68433  38.630  38.351   6.979
 5392POPC   C4B68434  38.790  38.483   7.395
 5393POPC   NC368435  39.479  29.542   5.471
 5393POPC   PO468436  39.135  28.954   5.332
 5393POPC   GL168437  39.220  29.152   5.736
 5393POPC   GL268438  39.575  29.094   5.726
 5393POPC   C1A68439  39.110  29.255   6.186
 5393POPC   D2A68440  38.780  29.362   6.423
 5393POPC   C3A68441  38.837  29.253   6.809
 5393POPC   C4A68442  38.758  29.146   7.196
 5393POPC   C1B68443  39.612  29.258   6.152
 5393POPC   C2B68444  39.438  29.139   6.568
 5393POPC   C3B68445  39.319  29.149   7.006
 5393POPC   C4B68446  39.443  29.139   7.443
 5394POPC   NC368447   9.634   1.405   5.427
 5394POPC   PO468448   9.748   0.766   5.297
 5394POPC   GL168449   9.842   0.997   5.691
 5394POPC   GL268450  10.135   1.193   5.697
 5394POPC   C1A68451   9.634   1.160   6.083
 5394POPC   D2A68452   9.530   1.017   6.515
 5394POPC   C3A68453   9.440   1.363   6.814
 5394POPC   C4A68454   9.713   1.489   7.157
 5394POPC   C1B68455  10.138   1.018   6.138
 5394POPC   C2B68456  10.054   1.017   6.605
 5394POPC   C3B68457   9.894   1.013   7.048
 5394POPC   C4B68458  10.077   0.934   7.457
 5395POPC   NC368459  31.375  40.262   5.327
 5395POPC   PO468460  31.757  39.766   5.355
 5395POPC   GL168461  31.446  39.885   5.715
 5395POPC   GL268462  31.413  40.241   5.852
 5395POPC   C1A68463  31.310  39.844   6.164
 5395POPC   D2A68464  31.460  39.995   6.568
 5395POPC   C3A68465  31.320  39.804   6.942
 5395POPC   C4A68466  31.418  39.873   7.321
 5395POPC   C1B68467  31.222  40.381   6.249
 5395POPC   C2B68468  31.349  40.509   6.656
 5395POPC   C3B68469  31.348  40.324   7.067
 5395POPC   C4B68470  31.202  40.337   7.486
 5396POPC   NC368471   1.294   8.515   5.318
 5396POPC   PO468472   1.027   7.913   5.385
 5396POPC   GL168473   1.207   8.171   5.729
 5396POPC   GL268474   0.936   8.333   5.891
 5396POPC   C1A68475   1.357   8.157   6.178
 5396POPC   D2A68476   1.409   8.392   6.580
 5396POPC   C3A68477   1.321   8.211   6.938
 5396POPC   C4A68478   1.406   7.819   7.037
 5396POPC   C1B68479   0.881   7.986   6.221
 5396POPC   C2B68480   1.067   7.853   6.625
 5396POPC   C3B68481   0.905   7.938   7.022
 5396POPC   C4B68482   0.995   8.196   7.347
 5397POPC   NC368483  17.197  13.601   5.392
 5397POPC   PO468484  16.538  13.911   5.453
 5397POPC   GL168485  16.521  13.695   5.854
 5397POPC   GL268486  16.835  13.565   5.764
 5397POPC   C1A68487  16.601  13.563   6.294
 5397POPC   D2A68488  16.377  13.749   6.668
 5397POPC   C3A68489  16.221  13.495   6.979
 5397POPC   C4A68490  16.598  13.547   7.224
 5397POPC   C1B68491  16.906  13.930   6.055
 5397POPC   C2B68492  16.828  13.994   6.489
 5397POPC   C3B68493  16.888  13.691   6.806
 5397POPC   C4B68494  17.045  13.792   7.206
 5398POPC   NC368495  39.259  38.554   5.299
 5398POPC   PO468496  38.762  38.878   5.627
 5398POPC   GL168497  39.134  38.640   5.804
 5398POPC   GL268498  39.140  38.278   5.832
 5398POPC   C1A68499  39.317  38.696   6.231
 5398POPC   D2A68500  39.144  38.865   6.625
 5398POPC   C3A68501  39.079  38.689   7.014
 5398POPC   C4A68502  39.277  38.619   7.419
 5398POPC   C1B68503  39.184  38.197   6.267
 5398POPC   C2B68504  39.473  38.309   6.574
 5398POPC   C3B68505  39.485  38.382   7.003
 5398POPC   C4B68506  39.089  38.181   7.113
 5399POPC   NC368507  40.756  34.498   5.460
 5399POPC   PO468508  40.855  35.152   5.460
 5399POPC   GL168509  40.887  34.862   5.832
 5399POPC   GL268510  40.650  34.606   5.955
 5399POPC   C1A68511  40.957  34.892   6.289
 5399POPC   D2A68512  41.054  35.091   6.702
 5399POPC   C3A68513  40.999  34.795   7.044
 5399POPC   C4A68514  40.631  34.670   7.292
 5399POPC   C1B68515  40.944  34.371   6.192
 5399POPC   C2B68516  41.058  34.466   6.616
 5399POPC   C3B68517  40.867  34.303   6.942
 5399POPC   C4B68518  40.711  34.160   7.293
 5400POPC   NC368519  31.518   2.413   5.252
 5400POPC   PO468520  31.367   3.037   5.171
 5400POPC   GL168521  31.376   3.046   5.682
 5400POPC   GL268522  31.470   2.702   5.746
 5400POPC   C1A68523  31.580   3.032   6.163
 5400POPC   D2A68524  31.728   2.775   6.584
 5400POPC   C3A68525  31.680   2.822   7.077
 5400POPC   C4A68526  31.811   2.680   7.529
 5400POPC   C1B68527  31.628   2.504   6.144
 5400POPC   C2B68528  31.439   2.255   6.483
 5400POPC   C3B68529  31.442   2.397   6.903
 5400POPC   C4B68530  31.354   2.533   7.341
 5401POPC   NC368531   9.342  27.462   5.672
 5401POPC   PO468532   9.966  27.564   5.453
 5401POPC   GL168533   9.918  27.519   5.889
 5401POPC   GL268534   9.860  27.880   5.920
 5401POPC   C1A68535   9.841  27.533   6.359
 5401POPC   D2A68536   9.632  27.464   6.799
 5401POPC   C3A68537   9.901  27.513   7.197
 5401POPC   C4A68538   9.876  27.304   7.610
 5401POPC   C1B68539   9.556  27.957   6.256
 5401POPC   C2B68540   9.669  27.967   6.681
 5401POPC   C3B68541   9.545  27.857   7.113
 5401POPC   C4B68542   9.600  27.763   7.582
 5402POPC   NC368543   4.178  35.129   5.640
 5402POPC   PO468544   3.918  35.689   5.283
 5402POPC   GL168545   4.033  35.621   5.746
 5402POPC   GL268546   4.399  35.563   5.885
 5402POPC   C1A68547   4.001  35.469   6.192
 5402POPC   D2A68548   4.253  35.398   6.571
 5402POPC   C3A68549   4.152  35.175   6.954
 5402POPC   C4A68550   4.147  35.571   7.172
 5402POPC   C1B68551   4.574  35.282   6.187
 5402POPC   C2B68552   4.727  35.195   6.586
 5402POPC   C3B68553   4.608  35.411   6.963
 5402POPC   C4B68554   4.843  35.335   7.292
 5403POPC   NC368555  10.627  15.421   5.537
 5403POPC   PO468556  10.214  14.935   5.448
 5403POPC   GL168557  10.303  15.119   5.825
 5403POPC   GL268558  10.625  14.992   5.847
 5403POPC   C1A68559  10.289  15.037   6.270
 5403POPC   D2A68560  10.439  15.202   6.676
 5403POPC   C3A68561  10.403  14.972   7.071
 5403POPC   C4A68562  10.200  14.587   7.121
 5403POPC   C1B68563  10.804  15.088   6.276
 5403POPC   C2B68564  10.950  15.079   6.692
 5403POPC   C3B68565  10.826  15.243   7.073
 5403POPC   C4B68566  10.770  15.232   7.503
 5404POPC   NC368567  10.723   3.725   5.460
 5404POPC   PO468568  10.248   3.334   5.453
 5404POPC   GL168569  10.362   3.453   5.871
 5404POPC   GL268570  10.287   3.776   5.848
 5404POPC   C1A68571  10.308   3.642   6.333
 5404POPC   D2A68572  10.296   3.644   6.772
 5404POPC   C3A68573  10.514   3.294   6.914
 5404POPC   C4A68574  10.460   3.127   7.293
 5404POPC   C1B68575  10.718   3.788   6.090
 5404POPC   C2B68576  10.792   3.884   6.523
 5404POPC   C3B68577  10.787   3.763   6.935
 5404POPC   C4B68578  10.520   3.661   7.291
 5405POPC   NC368579  22.538  44.693   5.269
 5405POPC   PO468580  23.195  44.795   5.381
 5405POPC   GL168581  23.036  44.769   5.781
 5405POPC   GL268582  23.042  44.421   5.901
 5405POPC   C1A68583  22.996  44.923   6.188
 5405POPC   D2A68584  22.774   0.062   6.556
 5405POPC   C3A68585  22.832  44.712   6.829
 5405POPC   C4A68586  22.989  44.695   7.239
 5405POPC   C1B68587  22.869  44.423   6.333
 5405POPC   C2B68588  23.065  44.253   6.704
 5405POPC   C3B68589  23.357  44.444   6.960
 5405POPC   C4B68590  23.495  44.767   7.199
 5406POPC   NC368591  14.762  19.024   5.263
 5406POPC   PO468592  14.152  19.046   5.476
 5406POPC   GL168593  14.460  18.969   5.813
 5406POPC   GL268594  14.747  19.199   5.759
 5406POPC   C1A68595  14.322  18.852   6.249
 5406POPC   D2A68596  14.109  19.062   6.622
 5406POPC   C3A68597  14.197  18.965   7.063
 5406POPC   C4A68598  14.279  18.966   7.551
 5406POPC   C1B68599  14.774  19.147   6.202
 5406POPC   C2B68600  14.683  19.141   6.619
 5406POPC   C3B68601  14.889  19.261   6.994
 5406POPC   C4B68602  14.685  19.039   7.294
 5407POPC   NC368603   9.950   3.791   5.391
 5407POPC   PO468604   9.450   3.334   5.406
 5407POPC   GL168605   9.781   3.408   5.703
 5407POPC   GL268606   9.742   3.735   5.858
 5407POPC   C1A68607   9.930   3.347   6.133
 5407POPC   D2A68608   9.829   3.597   6.502
 5407POPC   C3A68609   9.839   3.375   6.858
 5407POPC   C4A68610  10.049   3.407   7.206
 5407POPC   C1B68611   9.945   3.987   6.178
 5407POPC   C2B68612  10.023   4.068   6.627
 5407POPC   C3B68613   9.907   3.886   7.039
 5407POPC   C4B68614  10.058   3.841   7.474
 5408POPC   NC368615   8.167   4.543   5.539
 5408POPC   PO468616   7.904   3.981   5.206
 5408POPC   GL168617   7.951   4.067   5.685
 5408POPC   GL268618   8.283   4.116   5.787
 5408POPC   C1A68619   8.022   3.953   6.158
 5408POPC   D2A68620   8.056   4.204   6.503
 5408POPC   C3A68621   8.183   4.112   6.890
 5408POPC   C4A68622   8.115   4.030   7.286
 5408POPC   C1B68623   8.455   4.396   6.107
 5408POPC   C2B68624   8.450   4.518   6.524
 5408POPC   C3B68625   8.560   4.518   6.965
 5408POPC   C4B68626   8.402   4.831   7.264
 5409POPC   NC368627  41.316   7.795   5.405
 5409POPC   PO468628  41.638   8.342   5.406
 5409POPC   GL168629  41.646   8.181   5.803
 5409POPC   GL268630  41.339   8.017   5.870
 5409POPC   C1A68631  41.728   8.071   6.223
 5409POPC   D2A68632  41.528   8.126   6.607
 5409POPC   C3A68633  41.800   8.044   6.971
 5409POPC   C4A68634  41.666   8.331   7.289
 5409POPC   C1B68635  41.295   7.787   6.276
 5409POPC   C2B68636  41.326   7.657   6.698
 5409POPC   C3B68637  41.299   7.941   7.036
 5409POPC   C4B68638  41.293   7.819   7.415
 5410POPC   NC368639  15.888  42.511   5.389
 5410POPC   PO468640  16.517  42.410   5.563
 5410POPC   GL168641  16.115  42.301   5.797
 5410POPC   GL268642  15.810  42.573   5.901
 5410POPC   C1A68643  15.978  42.230   6.206
 5410POPC   D2A68644  15.962  42.500   6.523
 5410POPC   C3A68645  16.020  42.336   6.906
 5410POPC   C4A68646  15.978  41.959   7.135
 5410POPC   C1B68647  15.516  42.440   6.270
 5410POPC   C2B68648  15.577  42.212   6.680
 5410POPC   C3B68649  15.563  42.274   7.129
 5410POPC   C4B68650  15.457  42.655   7.377
 5411POPC   NC368651  36.177   5.630   5.429
 5411POPC   PO468652  35.959   6.224   5.355
 5411POPC   GL168653  36.229   6.019   5.774
 5411POPC   GL268654  36.479   5.679   5.843
 5411POPC   C1A68655  36.147   5.938   6.242
 5411POPC   D2A68656  35.942   6.173   6.620
 5411POPC   C3A68657  36.037   6.063   7.063
 5411POPC   C4A68658  35.803   5.956   7.444
 5411POPC   C1B68659  36.619   5.589   6.264
 5411POPC   C2B68660  36.435   5.773   6.640
 5411POPC   C3B68661  36.348   5.665   7.058
 5411POPC   C4B68662  36.236   5.722   7.489
 5412POPC   NC368663  40.064  26.942   5.099
 5412POPC   PO468664  40.161  26.604   5.644
 5412POPC   GL168665  40.040  26.675   5.978
 5412POPC   GL268666  39.701  26.579   5.864
 5412POPC   C1A68667  40.180  26.814   6.347
 5412POPC   D2A68668  40.097  26.468   6.598
 5412POPC   C3A68669  39.976  26.638   6.935
 5412POPC   C4A68670  40.153  26.673   7.273
 5412POPC   C1B68671  39.688  26.528   6.298
 5412POPC   C2B68672  39.712  26.891   6.564
 5412POPC   C3B68673  39.739  27.107   6.958
 5412POPC   C4B68674  39.685  26.859   7.296
 5413POPC   NC368675  39.270  26.452   5.457
 5413POPC   PO468676  39.572  25.861   5.488
 5413POPC   GL168677  39.258  26.055   5.801
 5413POPC   GL268678  39.234  26.402   5.988
 5413POPC   C1A68679  39.051  25.956   6.201
 5413POPC   D2A68680  39.073  25.868   6.660
 5413POPC   C3A68681  39.165  26.159   7.003
 5413POPC   C4A68682  39.154  26.104   7.473
 5413POPC   C1B68683  39.251  26.334   6.473
 5413POPC   C2B68684  39.568  26.393   6.787
 5413POPC   C3B68685  39.576  26.382   7.231
 5413POPC   C4B68686  39.418  26.494   7.671
 5414POPC   NC368687  23.579  39.314   5.420
 5414POPC   PO468688  24.121  38.819   5.313
 5414POPC   GL168689  23.849  38.986   5.711
 5414POPC   GL268690  23.441  39.060   5.812
 5414POPC   C1A68691  23.782  39.080   6.171
 5414POPC   D2A68692  23.749  38.920   6.583
 5414POPC   C3A68693  23.805  39.242   6.894
 5414POPC   C4A68694  23.814  39.056   7.278
 5414POPC   C1B68695  23.302  38.875   6.158
 5414POPC   C2B68696  23.228  38.983   6.595
 5414POPC   C3B68697  23.404  38.958   7.002
 5414POPC   C4B68698  23.353  39.126   7.429
 5415POPC   NC368699  10.584  11.948   5.368
 5415POPC   PO468700  10.906  12.539   5.320
 5415POPC   GL168701  10.638  12.311   5.712
 5415POPC   GL268702  10.715  11.953   5.855
 5415POPC   C1A68703  10.392  12.324   6.116
 5415POPC   D2A68704  10.361  12.153   6.560
 5415POPC   C3A68705  10.369  12.402   6.940
 5415POPC   C4A68706  10.483  12.317   7.341
 5415POPC   C1B68707  10.616  11.755   6.240
 5415POPC   C2B68708  10.753  11.782   6.653
 5415POPC   C3B68709  10.561  11.890   7.030
 5415POPC   C4B68710  10.687  11.841   7.455
 5416POPC   NC368711  39.727  14.552   5.505
 5416POPC   PO468712  40.378  14.581   5.342
 5416POPC   GL168713  40.270  14.679   5.786
 5416POPC   GL268714  39.950  14.690   5.938
 5416POPC   C1A68715  40.369  14.593   6.225
 5416POPC   D2A68716  40.225  14.703   6.633
 5416POPC   C3A68717  40.126  14.366   6.932
 5416POPC   C4A68718  40.134  14.430   7.398
 5416POPC   C1B68719  39.734  14.349   6.132
 5416POPC   C2B68720  39.667  14.226   6.521
 5416POPC   C3B68721  39.581  14.138   6.914
 5416POPC   C4B68722  39.664  14.418   7.217
 5417POPC   NC368723  30.569  21.466   5.568
 5417POPC   PO468724  31.211  21.717   5.637
 5417POPC   GL168725  30.855  21.588   5.977
 5417POPC   GL268726  30.737  21.224   5.969
 5417POPC   C1A68727  30.555  21.493   6.353
 5417POPC   D2A68728  30.475  21.227   6.706
 5417POPC   C3A68729  30.702  21.478   6.984
 5417POPC   C4A68730  30.961  21.487   7.330
 5417POPC   C1B68731  30.845  21.041   6.356
 5417POPC   C2B68732  30.848  20.874   6.776
 5417POPC   C3B68733  30.708  21.026   7.206
 5417POPC   C4B68734  30.586  21.261   7.590
 5418POPC   NC368735  18.966  12.213   5.415
 5418POPC   PO468736  19.217  11.600   5.481
 5418POPC   GL168737  19.148  11.887   5.792
 5418POPC   GL268738  18.785  11.836   5.828
 5418POPC   C1A68739  19.317  12.085   6.182
 5418POPC   D2A68740  19.362  11.873   6.581
 5418POPC   C3A68741  19.308  12.062   6.947
 5418POPC   C4A68742  19.166  11.994   7.314
 5418POPC   C1B68743  18.734  12.033   6.206
 5418POPC   C2B68744  18.863  12.041   6.623
 5418POPC   C3B68745  18.733  11.952   7.036
 5418POPC   C4B68746  18.761  12.317   7.307
 5419POPC   NC368747  13.129   9.767   5.577
 5419POPC   PO468748  12.505   9.576   5.199
 5419POPC   GL168749  12.618   9.634   5.732
 5419POPC   GL268750  12.521   9.320   5.854
 5419POPC   C1A68751  12.923   9.811   6.161
 5419POPC   D2A68752  13.221   9.698   6.514
 5419POPC   C3A68753  13.132   9.917   6.874
 5419POPC   C4A68754  12.764   9.944   7.085
 5419POPC   C1B68755  12.483   9.602   6.239
 5419POPC   C2B68756  12.678   9.725   6.618
 5419POPC   C3B68757  12.881   9.455   6.896
 5419POPC   C4B68758  12.844   9.483   7.299
 5420POPC   NC368759   7.727  33.127   5.183
 5420POPC   PO468760   7.602  32.510   5.318
 5420POPC   GL168761   7.635  32.899   5.644
 5420POPC   GL268762   7.323  33.143   5.739
 5420POPC   C1A68763   7.742  33.164   6.035
 5420POPC   D2A68764   7.711  33.185   6.498
 5420POPC   C3A68765   7.432  33.028   6.801
 5420POPC   C4A68766   7.380  32.920   7.232
 5420POPC   C1B68767   7.254  33.329   6.194
 5420POPC   C2B68768   7.269  33.492   6.636
 5420POPC   C3B68769   7.197  33.400   7.094
 5420POPC   C4B68770   7.199  33.288   7.526
 5421POPC   NC368771   9.087  30.982   5.430
 5421POPC   PO468772   9.268  31.624   5.447
 5421POPC   GL168773   8.982  31.551   5.801
 5421POPC   GL268774   8.758  31.244   5.749
 5421POPC   C1A68775   8.866  31.547   6.249
 5421POPC   D2A68776   9.158  31.437   6.584
 5421POPC   C3A68777   9.103  31.563   7.007
 5421POPC   C4A68778   8.748  31.514   7.237
 5421POPC   C1B68779   8.780  31.041   6.156
 5421POPC   C2B68780   8.719  31.170   6.583
 5421POPC   C3B68781   8.835  31.074   6.997
 5421POPC   C4B68782   8.731  31.028   7.445
 5422POPC   NC368783  16.236  27.984   5.147
 5422POPC   PO468784  15.828  27.618   5.568
 5422POPC   GL168785  15.942  27.488   5.965
 5422POPC   GL268786  16.160  27.170   5.930
 5422POPC   C1A68787  15.913  27.735   6.357
 5422POPC   D2A68788  15.637  27.837   6.672
 5422POPC   C3A68789  15.742  27.717   7.056
 5422POPC   C4A68790  15.856  27.829   7.484
 5422POPC   C1B68791  16.297  27.383   6.305
 5422POPC   C2B68792  16.209  27.518   6.739
 5422POPC   C3B68793  16.192  27.534   7.186
 5422POPC   C4B68794  16.185  27.506   7.675
 5423POPC   NC368795   7.050  19.782   5.397
 5423POPC   PO468796   7.667  19.998   5.407
 5423POPC   GL168797   7.396  19.871   5.788
 5423POPC   GL268798   7.241  19.557   5.865
 5423POPC   C1A68799   7.216  19.859   6.248
 5423POPC   D2A68800   7.429  19.918   6.623
 5423POPC   C3A68801   7.263  19.747   6.964
 5423POPC   C4A68802   7.016  19.769   7.327
 5423POPC   C1B68803   7.636  19.579   6.153
 5423POPC   C2B68804   7.747  19.494   6.595
 5423POPC   C3B68805   7.699  19.483   7.049
 5423POPC   C4B68806   7.590  19.679   7.433
 5424POPC   NC368807   9.018  42.617   5.500
 5424POPC   PO468808   9.050  41.949   5.619
 5424POPC   GL168809   9.070  42.274   5.887
 5424POPC   GL268810   8.901  42.087   6.101
 5424POPC   C1A68811   8.981  42.559   6.258
 5424POPC   D2A68812   8.730  42.621   6.643
 5424POPC   C3A68813   8.882  42.398   7.020
 5424POPC   C4A68814   8.782  42.484   7.464
 5424POPC   C1B68815   9.329  42.033   6.267
 5424POPC   C2B68816   9.309  41.783   6.616
 5424POPC   C3B68817   9.003  41.901   6.895
 5424POPC   C4B68818   9.291  42.117   7.172
 5425POPC   NC368819   2.043  16.411   5.502
 5425POPC   PO468820   2.135  17.153   5.470
 5425POPC   GL168821   2.057  16.867   5.817
 5425POPC   GL268822   2.358  16.677   5.839
 5425POPC   C1A68823   1.843  16.742   6.222
 5425POPC   D2A68824   1.678  16.843   6.654
 5425POPC   C3A68825   1.829  16.619   7.020
 5425POPC   C4A68826   1.890  16.223   7.230
 5425POPC   C1B68827   2.352  16.794   6.250
 5425POPC   C2B68828   2.193  16.785   6.640
 5425POPC   C3B68829   2.208  16.961   7.026
 5425POPC   C4B68830   2.261  16.657   7.344
 5426POPC   NC368831  39.273   4.798   5.441
 5426POPC   PO468832  39.388   4.177   5.222
 5426POPC   GL168833  39.228   4.231   5.703
 5426POPC   GL268834  39.362   4.550   5.873
 5426POPC   C1A68835  39.243   4.184   6.198
 5426POPC   D2A68836  39.259   4.516   6.545
 5426POPC   C3A68837  39.079   4.473   6.960
 5426POPC   C4A68838  39.202   4.189   7.247
 5426POPC   C1B68839  39.656   4.532   6.233
 5426POPC   C2B68840  39.851   4.614   6.635
 5426POPC   C3B68841  39.578   4.486   6.972
 5426POPC   C4B68842  39.405   4.633   7.387
 5427POPC   NC368843  32.580   1.547   5.546
 5427POPC   PO468844  32.287   2.112   5.236
 5427POPC   GL168845  32.593   2.081   5.608
 5427POPC   GL268846  32.373   1.923   5.821
 5427POPC   C1A68847  32.642   2.232   6.093
 5427POPC   D2A68848  32.520   2.004   6.492
 5427POPC   C3A68849  32.269   2.013   6.877
 5427POPC   C4A68850  32.394   2.075   7.312
 5427POPC   C1B68851  32.203   1.757   6.175
 5427POPC   C2B68852  32.192   1.476   6.476
 5427POPC   C3B68853  32.015   1.561   6.851
 5427POPC   C4B68854  32.015   1.759   7.250
 5428POPC   NC368855  27.447   6.667   5.319
 5428POPC   PO468856  27.871   6.320   5.693
 5428POPC   GL168857  27.655   6.705   5.798
 5428POPC   GL268858  27.298   6.827   5.814
 5428POPC   C1A68859  27.689   6.993   6.130
 5428POPC   D2A68860  27.693   7.064   6.582
 5428POPC   C3A68861  27.788   6.811   6.967
 5428POPC   C4A68862  27.824   6.660   7.408
 5428POPC   C1B68863  27.327   6.615   6.240
 5428POPC   C2B68864  27.376   6.612   6.713
 5428POPC   C3B68865  27.376   6.562   7.180
 5428POPC   C4B68866  27.191   6.237   7.481
 5429POPC   NC368867   5.206  18.653   5.371
 5429POPC   PO468868   5.340  17.896   5.355
 5429POPC   GL168869   5.406  18.111   5.757
 5429POPC   GL268870   5.120  18.332   5.777
 5429POPC   C1A68871   5.410  18.212   6.201
 5429POPC   D2A68872   5.014  18.097   6.422
 5429POPC   C3A68873   4.989  18.109   6.836
 5429POPC   C4A68874   5.280  18.217   7.100
 5429POPC   C1B68875   5.014  18.529   6.175
 5429POPC   C2B68876   5.091  18.632   6.631
 5429POPC   C3B68877   4.822  18.707   6.992
 5429POPC   C4B68878   4.902  18.481   7.340
 5430POPC   NC368879  33.314  16.025   5.274
 5430POPC   PO468880  33.018  16.527   5.234
 5430POPC   GL168881  33.058  16.263   5.684
 5430POPC   GL268882  33.231  15.949   5.824
 5430POPC   C1A68883  33.070  16.288   6.197
 5430POPC   D2A68884  32.857  16.375   6.667
 5430POPC   C3A68885  33.102  16.229   7.070
 5430POPC   C4A68886  33.166  15.896   7.392
 5430POPC   C1B68887  33.042  15.753   6.230
 5430POPC   C2B68888  32.885  15.857   6.674
 5430POPC   C3B68889  32.689  15.928   7.115
 5430POPC   C4B68890  32.483  15.838   7.505
 5431POPC   NC368891  35.226  15.536   5.456
 5431POPC   PO468892  34.841  15.015   5.696
 5431POPC   GL168893  35.153  15.306   5.904
 5431POPC   GL268894  35.500  15.267   5.804
 5431POPC   C1A68895  35.401  15.481   6.262
 5431POPC   D2A68896  35.445  15.236   6.596
 5431POPC   C3A68897  35.142  15.135   6.895
 5431POPC   C4A68898  35.104  15.271   7.313
 5431POPC   C1B68899  35.646  15.023   6.175
 5431POPC   C2B68900  35.775  14.857   6.626
 5431POPC   C3B68901  35.690  15.098   7.012
 5431POPC   C4B68902  35.506  14.955   7.377
 5432POPC   NC368903  26.635  40.049   5.235
 5432POPC   PO468904  27.289  39.943   5.359
 5432POPC   GL168905  26.998  39.982   5.687
 5432POPC   GL268906  26.659  39.889   5.720
 5432POPC   C1A68907  27.013  39.910   6.122
 5432POPC   D2A68908  27.001  40.106   6.506
 5432POPC   C3A68909  26.837  39.926   6.874
 5432POPC   C4A68910  26.674  40.233   7.196
 5432POPC   C1B68911  26.530  40.069   6.135
 5432POPC   C2B68912  26.411  40.020   6.585
 5432POPC   C3B68913  26.344  39.896   7.027
 5432POPC   C4B68914  26.532  39.881   7.519
 5433POPC   NC368915  19.701  34.283   5.347
 5433POPC   PO468916  19.838  34.918   5.631
 5433POPC   GL168917  19.765  34.496   5.832
 5433POPC   GL268918  19.441  34.260   5.776
 5433POPC   C1A68919  20.052  34.558   6.185
 5433POPC   D2A68920  20.045  34.888   6.490
 5433POPC   C3A68921  19.944  34.735   6.899
 5433POPC   C4A68922  20.045  34.626   7.330
 5433POPC   C1B68923  19.421  34.311   6.181
 5433POPC   C2B68924  19.590  34.570   6.460
 5433POPC   C3B68925  19.453  34.516   6.845
 5433POPC   C4B68926  19.662  34.336   7.171
 5434POPC   NC368927  44.571  16.139   5.443
 5434POPC   PO468928  44.649  16.868   5.417
 5434POPC   GL168929  44.659  16.591   5.811
 5434POPC   GL268930  44.331  16.439   5.842
 5434POPC   C1A68931  44.799  16.512   6.256
 5434POPC   D2A68932  44.993  16.742   6.618
 5434POPC   C3A68933  44.824  16.733   7.049
 5434POPC   C4A68934  44.919  16.879   7.443
 5434POPC   C1B68935  44.312  16.713   6.237
 5434POPC   C2B68936  44.459  16.694   6.670
 5434POPC   C3B68937  44.321  16.590   7.100
 5434POPC   C4B68938  44.298  16.179   7.318
 5435POPC   NC368939  35.660   1.753   5.514
 5435POPC   PO468940  35.323   2.247   5.078
 5435POPC   GL168941  35.283   2.153   5.553
 5435POPC   GL268942  35.548   2.144   5.802
 5435POPC   C1A68943  35.048   2.149   5.983
 5435POPC   D2A68944  35.053   2.137   6.453
 5435POPC   C3A68945  35.121   2.100   6.914
 5435POPC   C4A68946  35.005   1.975   7.362
 5435POPC   C1B68947  35.474   1.878   6.179
 5435POPC   C2B68948  35.547   2.026   6.601
 5435POPC   C3B68949  35.594   1.944   7.029
 5435POPC   C4B68950  35.763   2.158   7.371
 5436POPC   NC368951  24.436  17.785   5.127
 5436POPC   PO468952  24.673  18.355   5.269
 5436POPC   GL168953  24.667  18.322   5.743
 5436POPC   GL268954  24.319  18.228   5.826
 5436POPC   C1A68955  24.778  18.387   6.212
 5436POPC   D2A68956  24.647  18.678   6.573
 5436POPC   C3A68957  24.668  18.534   7.009
 5436POPC   C4A68958  24.708  18.571   7.496
 5436POPC   C1B68959  24.362  18.098   6.273
 5436POPC   C2B68960  24.351  18.230   6.708
 5436POPC   C3B68961  24.345  18.188   7.180
 5436POPC   C4B68962  24.235  18.365   7.576
 5437POPC   NC368963  37.222  43.996   5.388
 5437POPC   PO468964  36.625  43.635   5.671
 5437POPC   GL168965  36.830  43.761   5.991
 5437POPC   GL268966  36.922  44.073   5.822
 5437POPC   C1A68967  36.820  43.610   6.413
 5437POPC   D2A68968  36.635  43.612   6.817
 5437POPC   C3A68969  36.951  43.751   7.096
 5437POPC   C4A68970  37.341  43.810   7.325
 5437POPC   C1B68971  36.775  44.187   6.246
 5437POPC   C2B68972  36.911  44.051   6.661
 5437POPC   C3B68973  36.881  44.244   7.065
 5437POPC   C4B68974  36.708  44.333   7.450
 5438POPC   NC368975   9.552  43.276   5.510
 5438POPC   PO468976  10.242  43.400   5.328
 5438POPC   GL168977  10.008  43.246   5.763
 5438POPC   GL268978   9.790  42.915   5.822
 5438POPC   C1A68979   9.741  43.266   6.191
 5438POPC   D2A68980   9.775  43.079   6.602
 5438POPC   C3A68981   9.512  43.116   6.983
 5438POPC   C4A68982   9.699  43.280   7.355
 5438POPC   C1B68983   9.889  42.738   6.242
 5438POPC   C2B68984  10.048  42.629   6.631
 5438POPC   C3B68985   9.976  42.872   7.004
 5438POPC   C4B68986   9.741  42.781   7.339
 5439POPC   NC368987  24.690  21.233   5.467
 5439POPC   PO468988  24.037  21.262   5.553
 5439POPC   GL168989  24.350  21.159   5.881
 5439POPC   GL268990  24.728  21.006   5.907
 5439POPC   C1A68991  24.214  21.319   6.276
 5439POPC   D2A68992  24.295  21.697   6.470
 5439POPC   C3A68993  24.326  21.573   6.863
 5439POPC   C4A68994  24.384  21.310   7.206
 5439POPC   C1B68995  24.726  21.300   6.239
 5439POPC   C2B68996  24.589  21.205   6.636
 5439POPC   C3B68997  24.833  21.202   6.994
 5439POPC   C4B68998  24.780  20.972   7.384
 5440POPC   NC368999   5.291  14.756   5.520
 5440POPC   PO469000   5.165  14.176   5.412
 5440POPC   GL169001   5.051  14.356   5.821
 5440POPC   GL269002   5.071  14.055   5.919
 5440POPC   C1A69003   4.994  14.602   6.196
 5440POPC   D2A69004   5.141  14.739   6.611
 5440POPC   C3A69005   5.048  14.467   6.960
 5440POPC   C4A69006   4.814  14.455   7.364
 5440POPC   C1B69007   5.345  14.080   6.231
 5440POPC   C2B69008   5.168  14.117   6.596
 5440POPC   C3B69009   5.295  13.960   6.958
 5440POPC   C4B69010   5.192  14.120   7.330
 5441POPC   NC369011   7.323  44.195   5.397
 5441POPC   PO469012   7.313  43.533   5.391
 5441POPC   GL169013   7.382  43.744   5.798
 5441POPC   GL269014   7.541  44.073   5.833
 5441POPC   C1A69015   7.279  43.878   6.223
 5441POPC   D2A69016   7.181  44.026   6.615
 5441POPC   C3A69017   7.226  43.773   6.963
 5441POPC   C4A69018   7.471  43.745   7.311
 5441POPC   C1B69019   7.695  44.220   6.217
 5441POPC   C2B69020   7.568  44.354   6.626
 5441POPC   C3B69021   7.540  44.203   7.065
 5441POPC   C4B69022   7.677  44.223   7.513
 5442POPC   NC369023  43.462  42.426   5.557
 5442POPC   PO469024  44.106  42.348   5.423
 5442POPC   GL169025  43.897  42.263   5.834
 5442POPC   GL269026  43.691  42.517   5.999
 5442POPC   C1A69027  43.872  42.096   6.273
 5442POPC   D2A69028  44.090  42.086   6.674
 5442POPC   C3A69029  43.900  42.030   7.098
 5442POPC   C4A69030  43.774  42.206   7.530
 5442POPC   C1B69031  44.091  42.583   6.218
 5442POPC   C2B69032  44.134  42.747   6.644
 5442POPC   C3B69033  44.067  42.503   7.018
 5442POPC   C4B69034  43.942  42.656   7.436
 5443POPC   NC369035  29.756  29.354   5.436
 5443POPC   PO469036  29.621  28.764   5.163
 5443POPC   GL169037  29.731  28.870   5.680
 5443POPC   GL269038  29.921  29.188   5.877
 5443POPC   C1A69039  29.841  28.792   6.180
 5443POPC   D2A69040  29.778  29.037   6.580
 5443POPC   C3A69041  29.851  28.875   6.981
 5443POPC   C4A69042  29.658  28.835   7.337
 5443POPC   C1B69043  29.623  29.380   6.226
 5443POPC   C2B69044  29.453  29.680   6.571
 5443POPC   C3B69045  29.390  29.605   7.029
 5443POPC   C4B69046  29.740  29.339   7.181
 5444POPC   NC369047   9.557  16.646   5.362
 5444POPC   PO469048  10.181  16.183   5.445
 5444POPC   GL169049  10.034  16.541   5.787
 5444POPC   GL269050   9.701  16.734   5.823
 5444POPC   C1A69051  10.015  16.795   6.206
 5444POPC   D2A69052   9.792  16.959   6.603
 5444POPC   C3A69053   9.845  16.739   6.985
 5444POPC   C4A69054  10.168  16.415   7.023
 5444POPC   C1B69055   9.456  16.796   6.190
 5444POPC   C2B69056   9.422  16.589   6.581
 5444POPC   C3B69057   9.320  16.774   6.960
 5444POPC   C4B69058   9.488  16.989   7.286
 5445POPC   NC369059  43.480   2.850   5.279
 5445POPC   PO469060  44.131   2.517   5.158
 5445POPC   GL169061  43.921   2.630   5.559
 5445POPC   GL269062  44.256   2.673   5.702
 5445POPC   C1A69063  43.847   2.645   6.029
 5445POPC   D2A69064  43.925   2.592   6.498
 5445POPC   C3A69065  43.772   2.772   6.910
 5445POPC   C4A69066  43.910   2.628   7.333
 5445POPC   C1B69067  44.315   2.850   6.129
 5445POPC   C2B69068  44.393   2.856   6.576
 5445POPC   C3B69069  44.288   2.865   7.028
 5445POPC   C4B69070  43.980   3.125   7.251
 5446POPC   NC369071  16.422   7.586   5.609
 5446POPC   PO469072  16.281   6.970   5.523
 5446POPC   GL169073  15.986   7.165   5.832
 5446POPC   GL269074  15.930   7.544   5.798
 5446POPC   C1A69075  15.984   7.282   6.278
 5446POPC   D2A69076  16.047   7.061   6.671
 5446POPC   C3A69077  16.289   7.319   6.906
 5446POPC   C4A69078  16.056   7.432   7.226
 5446POPC   C1B69079  15.844   7.783   6.186
 5446POPC   C2B69080  15.943   7.828   6.635
 5446POPC   C3B69081  15.771   7.778   7.044
 5446POPC   C4B69082  15.890   7.799   7.525
 5447POPC   NC369083  44.218  37.213   5.121
 5447POPC   PO469084  44.840  36.876   5.415
 5447POPC   GL169085  44.731  36.979   5.886
 5447POPC   GL269086  44.679  36.617   5.940
 5447POPC   C1A69087  44.555  36.927   6.320
 5447POPC   D2A69088  44.450  36.639   6.628
 5447POPC   C3A69089  44.673  36.750   6.977
 5447POPC   C4A69090  44.610  36.998   7.304
 5447POPC   C1B69091  44.946  36.574   6.348
 5447POPC   C2B69092   0.141  36.617   6.792
 5447POPC   C3B69093   0.088  36.599   7.269
 5447POPC   C4B69094   0.018  36.511   7.733
 5448POPC   NC369095  37.699  10.225   5.514
 5448POPC   PO469096  37.352  10.813   5.559
 5448POPC   GL169097  37.535  10.585   5.829
 5448POPC   GL269098  37.876  10.661   5.759
 5448POPC   C1A69099  37.428  10.493   6.220
 5448POPC   D2A69100  37.512  10.673   6.626
 5448POPC   C3A69101  37.445  10.359   6.951
 5448POPC   C4A69102  37.434  10.441   7.395
 5448POPC   C1B69103  37.902  10.734   6.216
 5448POPC   C2B69104  38.042  10.631   6.650
 5448POPC   C3B69105  37.885  10.631   7.089
 5448POPC   C4B69106  37.829  10.733   7.542
 5449POPC   NC369107  43.984   5.159   5.428
 5449POPC   PO469108  44.098   4.486   5.433
 5449POPC   GL169109  43.939   4.838   5.815
 5449POPC   GL269110  43.709   5.206   5.849
 5449POPC   C1A69111  44.010   5.076   6.215
 5449POPC   D2A69112  44.072   5.282   6.574
 5449POPC   C3A69113  44.249   4.970   6.858
 5449POPC   C4A69114  44.048   4.860   7.236
 5449POPC   C1B69115  43.488   5.288   6.239
 5449POPC   C2B69116  43.555   5.325   6.687
 5449POPC   C3B69117  43.577   5.056   7.049
 5449POPC   C4B69118  43.654   5.160   7.436
 5450POPC   NC369119  14.162   1.349   5.450
 5450POPC   PO469120  13.516   1.306   5.277
 5450POPC   GL169121  13.704   1.396   5.723
 5450POPC   GL269122  13.972   1.689   5.799
 5450POPC   C1A69123  13.575   1.164   6.120
 5450POPC   D2A69124  13.316   1.228   6.493
 5450POPC   C3A69125  13.457   1.158   6.921
 5450POPC   C4A69126  13.576   1.356   7.310
 5450POPC   C1B69127  14.044   1.379   6.150
 5450POPC   C2B69128  13.867   1.227   6.561
 5450POPC   C3B69129  13.962   1.414   6.967
 5450POPC   C4B69130  14.056   1.401   7.421
 5451POPC   NC369131  16.545  18.544   5.233
 5451POPC   PO469132  17.016  18.032   5.342
 5451POPC   GL169133  16.794  18.234   5.707
 5451POPC   GL269134  16.418  18.218   5.659
 5451POPC   C1A69135  16.948  18.316   6.145
 5451POPC   D2A69136  16.891  18.143   6.560
 5451POPC   C3A69137  17.045  18.305   6.973
 5451POPC   C4A69138  16.931  18.237   7.398
 5451POPC   C1B69139  16.414  18.353   6.109
 5451POPC   C2B69140  16.542  18.522   6.508
 5451POPC   C3B69141  16.543  18.334   6.905
 5451POPC   C4B69142  16.449  18.467   7.312
 5452POPC   NC369143  11.056  19.025   5.440
 5452POPC   PO469144  11.602  19.251   5.287
 5452POPC   GL169145  11.511  19.099   5.699
 5452POPC   GL269146  11.269  19.358   5.779
 5452POPC   C1A69147  11.411  18.847   6.101
 5452POPC   D2A69148  11.453  18.957   6.563
 5452POPC   C3A69149  11.199  19.008   6.922
 5452POPC   C4A69150  11.376  18.859   7.272
 5452POPC   C1B69151  11.447  19.340   6.183
 5452POPC   C2B69152  11.332  19.441   6.602
 5452POPC   C3B69153  11.499  19.424   6.986
 5452POPC   C4B69154  11.295  19.333   7.346
 5453POPC   NC369155  34.994   1.211   5.475
 5453POPC   PO469156  34.391   1.350   5.399
 5453POPC   GL169157  34.590   1.255   5.800
 5453POPC   GL269158  34.516   0.914   5.917
 5453POPC   C1A69159  34.491   1.341   6.234
 5453POPC   D2A69160  34.151   1.412   6.508
 5453POPC   C3A69161  34.230   1.479   6.914
 5453POPC   C4A69162  34.433   1.349   7.313
 5453POPC   C1B69163  34.871   1.003   6.251
 5453POPC   C2B69164  34.864   1.131   6.694
 5453POPC   C3B69165  34.924   1.158   7.144
 5453POPC   C4B69166  34.927   1.458   7.491
 5454POPC   NC369167   4.561  18.815   5.401
 5454POPC   PO469168   3.970  19.217   5.376
 5454POPC   GL169169   4.146  18.999   5.750
 5454POPC   GL269170   4.363  19.194   5.938
 5454POPC   C1A69171   4.272  18.779   6.169
 5454POPC   D2A69172   4.324  18.834   6.591
 5454POPC   C3A69173   4.033  18.906   6.908
 5454POPC   C4A69174   4.260  18.670   7.228
 5454POPC   C1B69175   4.167  19.280   6.301
 5454POPC   C2B69176   4.280  19.322   6.709
 5454POPC   C3B69177   4.474  19.142   7.070
 5454POPC   C4B69178   4.141  19.375   7.229
 5455POPC   NC369179  32.495  13.323   5.590
 5455POPC   PO469180  31.819  13.269   5.531
 5455POPC   GL169181  32.073  13.502   5.855
 5455POPC   GL269182  31.751  13.587   5.975
 5455POPC   C1A69183  32.389  13.507   6.233
 5455POPC   D2A69184  32.543  13.681   6.633
 5455POPC   C3A69185  32.366  13.510   6.978
 5455POPC   C4A69186  32.528  13.428   7.337
 5455POPC   C1B69187  31.961  13.785   6.259
 5455POPC   C2B69188  32.004  13.558   6.625
 5455POPC   C3B69189  31.861  13.509   7.044
 5455POPC   C4B69190  32.060  13.658   7.389
 5456POPC   NC369191  33.013  30.999   5.459
 5456POPC   PO469192  32.659  30.539   5.589
 5456POPC   GL169193  33.060  30.588   5.838
 5456POPC   GL269194  33.297  30.889   5.881
 5456POPC   C1A69195  33.063  30.650   6.287
 5456POPC   D2A69196  32.888  30.426   6.622
 5456POPC   C3A69197  32.854  30.589   7.057
 5456POPC   C4A69198  32.997  30.645   7.505
 5456POPC   C1B69199  33.420  31.015   6.305
 5456POPC   C2B69200  33.255  30.866   6.724
 5456POPC   C3B69201  33.212  30.999   7.159
 5456POPC   C4B69202  33.514  30.857   7.489
 5457POPC   NC369203  19.331  19.005   5.290
 5457POPC   PO469204  18.583  19.023   5.280
 5457POPC   GL169205  18.928  19.095   5.599
 5457POPC   GL269206  18.988  18.759   5.741
 5457POPC   C1A69207  19.080  19.184   6.046
 5457POPC   D2A69208  19.030  19.075   6.496
 5457POPC   C3A69209  19.140  19.301   6.861
 5457POPC   C4A69210  19.200  19.197   7.282
 5457POPC   C1B69211  19.132  18.673   6.166
 5457POPC   C2B69212  19.137  18.575   6.599
 5457POPC   C3B69213  19.088  18.759   6.989
 5457POPC   C4B69214  19.351  18.708   7.333
 5458POPC   NC369215  13.751   4.753   5.353
 5458POPC   PO469216  13.263   4.323   5.132
 5458POPC   GL169217  13.485   4.352   5.627
 5458POPC   GL269218  13.370   4.121   5.889
 5458POPC   C1A69219  13.593   4.535   6.104
 5458POPC   D2A69220  13.530   4.593   6.590
 5458POPC   C3A69221  13.834   4.575   6.958
 5458POPC   C4A69222  13.824   4.197   7.238
 5458POPC   C1B69223  13.171   4.175   6.300
 5458POPC   C2B69224  13.238   4.163   6.724
 5458POPC   C3B69225  13.109   4.232   7.110
 5458POPC   C4B69226  13.384   4.481   7.206
 5459POPC   NC369227   4.914  25.428   5.511
 5459POPC   PO469228   5.533  25.084   5.382
 5459POPC   GL169229   5.287  25.149   5.787
 5459POPC   GL269230   5.294  25.514   5.882
 5459POPC   C1A69231   4.915  25.074   6.098
 5459POPC   D2A69232   4.808  25.237   6.503
 5459POPC   C3A69233   4.945  25.062   6.854
 5459POPC   C4A69234   5.188  25.254   7.152
 5459POPC   C1B69235   5.255  25.384   6.327
 5459POPC   C2B69236   5.154  25.560   6.746
 5459POPC   C3B69237   5.381  25.755   7.100
 5459POPC   C4B69238   5.813  25.774   7.205
 5460POPC   NC369239   5.383  42.989   5.413
 5460POPC   PO469240   4.727  42.902   5.426
 5460POPC   GL169241   4.890  43.072   5.820
 5460POPC   GL269242   5.214  43.270   5.803
 5460POPC   C1A69243   5.135  42.972   6.206
 5460POPC   D2A69244   5.332  43.093   6.613
 5460POPC   C3A69245   5.032  43.009   6.943
 5460POPC   C4A69246   5.030  43.134   7.351
 5460POPC   C1B69247   5.424  43.420   6.210
 5460POPC   C2B69248   5.377  43.628   6.641
 5460POPC   C3B69249   5.389  43.385   7.047
 5460POPC   C4B69250   5.468  42.911   7.195
 5461POPC   NC369251  35.873  39.575   5.398
 5461POPC   PO469252  35.962  38.946   5.501
 5461POPC   GL169253  36.076  39.153   5.871
 5461POPC   GL269254  36.372  39.339   5.864
 5461POPC   C1A69255  36.145  38.993   6.297
 5461POPC   D2A69256  36.386  38.935   6.687
 5461POPC   C3A69257  36.212  39.136   7.012
 5461POPC   C4A69258  35.946  38.995   7.279
 5461POPC   C1B69259  36.183  39.536   6.231
 5461POPC   C2B69260  36.123  39.535   6.673
 5461POPC   C3B69261  36.269  39.660   7.082
 5461POPC   C4B69262  36.180  39.461   7.468
 5462POPC   NC369263  28.769  38.640   5.482
 5462POPC   PO469264  29.314  38.235   5.438
 5462POPC   GL169265  29.085  38.418   5.826
 5462POPC   GL269266  28.848  38.686   5.964
 5462POPC   C1A69267  29.078  38.338   6.260
 5462POPC   D2A69268  29.353  38.196   6.584
 5462POPC   C3A69269  29.206  38.195   6.986
 5462POPC   C4A69270  29.124  38.348   7.412
 5462POPC   C1B69271  29.020  38.853   6.322
 5462POPC   C2B69272  29.236  38.687   6.632
 5462POPC   C3B69273  29.121  38.682   7.032
 5462POPC   C4B69274  28.807  38.817   7.229
 5463POPC   NC369275  23.236  26.016   5.167
 5463POPC   PO469276  23.725  26.375   5.484
 5463POPC   GL169277  23.671  26.155   5.864
 5463POPC   GL269278  23.436  25.898   5.849
 5463POPC   C1A69279  23.719  26.035   6.306
 5463POPC   D2A69280  24.016  25.895   6.614
 5463POPC   C3A69281  23.901  26.059   7.008
 5463POPC   C4A69282  23.700  26.208   7.404
 5463POPC   C1B69283  23.267  25.788   6.245
 5463POPC   C2B69284  23.254  26.020   6.622
 5463POPC   C3B69285  23.411  25.962   7.053
 5463POPC   C4B69286  23.509  25.713   7.432
 5464POPC   NC369287  24.484   7.767   5.467
 5464POPC   PO469288  24.359   8.352   5.714
 5464POPC   GL169289  24.360   8.001   6.036
 5464POPC   GL269290  24.708   7.840   5.966
 5464POPC   C1A69291  24.234   8.096   6.515
 5464POPC   D2A69292  24.247   8.498   6.796
 5464POPC   C3A69293  24.340   8.356   7.192
 5464POPC   C4A69294  24.202   7.945   7.071
 5464POPC   C1B69295  24.723   8.021   6.397
 5464POPC   C2B69296  24.658   8.127   6.829
 5464POPC   C3B69297  24.789   8.092   7.242
 5464POPC   C4B69298  24.729   8.271   7.614
 5465POPC   NC369299  18.628  24.995   5.084
 5465POPC   PO469300  18.918  25.469   5.529
 5465POPC   GL169301  19.064  25.178   5.862
 5465POPC   GL269302  18.821  24.902   6.014
 5465POPC   C1A69303  19.077  25.424   6.212
 5465POPC   D2A69304  19.159  25.680   6.563
 5465POPC   C3A69305  18.862  25.548   6.869
 5465POPC   C4A69306  19.126  25.442   7.207
 5465POPC   C1B69307  18.777  25.070   6.395
 5465POPC   C2B69308  19.045  25.081   6.753
 5465POPC   C3B69309  18.899  25.010   7.170
 5465POPC   C4B69310  18.785  24.978   7.619
 5466POPC   NC369311  15.206  26.424   5.784
 5466POPC   PO469312  15.229  25.844   5.375
 5466POPC   GL169313  15.289  25.919   5.815
 5466POPC   GL269314  14.918  25.958   5.870
 5466POPC   C1A69315  15.342  26.038   6.277
 5466POPC   D2A69316  15.393  26.400   6.552
 5466POPC   C3A69317  15.428  26.250   6.946
 5466POPC   C4A69318  15.098  26.312   7.210
 5466POPC   C1B69319  14.834  25.890   6.325
 5466POPC   C2B69320  15.021  25.999   6.737
 5466POPC   C3B69321  15.096  25.816   7.153
 5466POPC   C4B69322  15.044  25.560   7.522
 5467POPC   NC369323  43.278   9.896   5.313
 5467POPC   PO469324  42.722   9.959   5.591
 5467POPC   GL169325  43.128   9.691   5.767
 5467POPC   GL269326  43.116   9.364   5.799
 5467POPC   C1A69327  43.410   9.623   6.142
 5467POPC   D2A69328  43.375   9.825   6.560
 5467POPC   C3A69329  43.231   9.610   6.938
 5467POPC   C4A69330  43.272   9.759   7.332
 5467POPC   C1B69331  42.979   9.363   6.208
 5467POPC   C2B69332  42.893   9.611   6.555
 5467POPC   C3B69333  42.673   9.466   6.893
 5467POPC   C4B69334  42.824   9.491   7.287
 5468POPC   NC369335   7.417   3.302   5.390
 5468POPC   PO469336   7.019   3.772   5.624
 5468POPC   GL169337   7.311   3.575   5.813
 5468POPC   GL269338   7.628   3.673   5.717
 5468POPC   C1A69339   7.270   3.339   6.184
 5468POPC   D2A69340   7.482   3.367   6.558
 5468POPC   C3A69341   7.207   3.367   6.919
 5468POPC   C4A69342   7.161   3.645   7.257
 5468POPC   C1B69343   7.562   3.765   6.189
 5468POPC   C2B69344   7.749   3.805   6.581
 5468POPC   C3B69345   7.554   3.748   6.955
 5468POPC   C4B69346   7.636   3.839   7.373
 5469POPC   NC369347  44.181  42.776   5.567
 5469POPC   PO469348  43.572  42.898   5.575
 5469POPC   GL169349  43.833  43.006   5.903
 5469POPC   GL269350  44.072  43.252   5.772
 5469POPC   C1A69351  43.759  42.941   6.339
 5469POPC   D2A69352  43.445  42.926   6.647
 5469POPC   C3A69353  43.716  42.888   6.958
 5469POPC   C4A69354  43.736  43.097   7.310
 5469POPC   C1B69355  44.253  43.127   6.176
 5469POPC   C2B69356  44.108  43.298   6.549
 5469POPC   C3B69357  44.192  43.373   6.962
 5469POPC   C4B69358  44.199  42.977   7.127
 5470POPC   NC369359   2.468  22.826   5.343
 5470POPC   PO469360   3.016  23.105   5.331
 5470POPC   GL169361   2.866  22.895   5.704
 5470POPC   GL269362   2.812  23.208   5.879
 5470POPC   C1A69363   2.786  22.771   6.127
 5470POPC   D2A69364   2.864  23.006   6.505
 5470POPC   C3A69365   2.759  22.829   6.917
 5470POPC   C4A69366   3.087  22.652   7.190
 5470POPC   C1B69367   2.464  23.180   6.209
 5470POPC   C2B69368   2.432  23.252   6.667
 5470POPC   C3B69369   2.509  23.247   7.122
 5470POPC   C4B69370   2.308  23.336   7.516
 5471POPC   NC369371  43.746  14.689   5.539
 5471POPC   PO469372  43.766  14.080   5.440
 5471POPC   GL169373  43.719  14.214   5.854
 5471POPC   GL269374  43.897  14.481   5.962
 5471POPC   C1A69375  43.765  14.102   6.269
 5471POPC   D2A69376  43.807  14.390   6.605
 5471POPC   C3A69377  43.605  14.288   6.989
 5471POPC   C4A69378  43.597  14.497   7.377
 5471POPC   C1B69379  44.220  14.352   6.206
 5471POPC   C2B69380  44.328  14.299   6.638
 5471POPC   C3B69381  44.125  14.282   7.047
 5471POPC   C4B69382  44.308  14.124   7.420
 5472POPC   NC369383   6.393  39.789   5.335
 5472POPC   PO469384   6.559  40.435   5.336
 5472POPC   GL169385   6.583  40.130   5.670
 5472POPC   GL269386   6.936  40.084   5.682
 5472POPC   C1A69387   6.566  40.062   6.136
 5472POPC   D2A69388   6.416  40.005   6.588
 5472POPC   C3A69389   6.602  39.852   6.983
 5472POPC   C4A69390   6.395  40.006   7.382
 5472POPC   C1B69391   7.071  40.149   6.112
 5472POPC   C2B69392   6.940  39.985   6.521
 5472POPC   C3B69393   7.046  40.213   6.896
 5472POPC   C4B69394   6.970  40.053   7.285
 5473POPC   NC369395  29.667   6.174   5.318
 5473POPC   PO469396  30.368   5.950   5.184
 5473POPC   GL169397  30.114   5.765   5.571
 5473POPC   GL269398  29.950   6.020   5.773
 5473POPC   C1A69399  30.043   5.575   6.035
 5473POPC   D2A69400  29.963   5.750   6.479
 5473POPC   C3A69401  30.082   5.713   6.930
 5473POPC   C4A69402  29.755   5.613   7.276
 5473POPC   C1B69403  30.154   6.162   6.178
 5473POPC   C2B69404  30.033   6.338   6.602
 5473POPC   C3B69405  30.169   6.236   6.991
 5473POPC   C4B69406  29.970   6.073   7.309
 5474POPC   NC369407  24.754  28.008   5.114
 5474POPC   PO469408  24.400  28.572   5.400
 5474POPC   GL169409  24.323  28.533   5.825
 5474POPC   GL269410  24.545  28.796   5.876
 5474POPC   C1A69411  24.405  28.243   6.189
 5474POPC   D2A69412  24.600  28.175   6.614
 5474POPC   C3A69413  24.421  28.306   7.022
 5474POPC   C4A69414  24.611  28.459   7.419
 5474POPC   C1B69415  24.365  28.758   6.290
 5474POPC   C2B69416  24.522  28.700   6.701
 5474POPC   C3B69417  24.723  28.824   7.091
 5474POPC   C4B69418  24.542  28.935   7.510
 5475POPC   NC369419  17.512  44.277   5.019
 5475POPC   PO469420  17.463  43.740   5.322
 5475POPC   GL169421  17.522  43.857   5.767
 5475POPC   GL269422  17.358  44.210   5.816
 5475POPC   C1A69423  17.756  43.702   6.172
 5475POPC   D2A69424  17.527  43.644   6.605
 5475POPC   C3A69425  17.673  43.559   7.016
 5475POPC   C4A69426  18.012  43.650   7.211
 5475POPC   C1B69427  17.260  44.370   6.260
 5475POPC   C2B69428  17.231  44.140   6.696
 5475POPC   C3B69429  17.589  44.062   6.960
 5475POPC   C4B69430  17.730  44.085   7.364
 5476POPC   NC369431  22.219  35.016   5.540
 5476POPC   PO469432  22.366  35.635   5.630
 5476POPC   GL169433  22.249  35.336   5.941
 5476POPC   GL269434  22.522  35.083   5.952
 5476POPC   C1A69435  21.933  35.332   6.272
 5476POPC   D2A69436  21.703  35.348   6.676
 5476POPC   C3A69437  22.019  35.274   7.005
 5476POPC   C4A69438  22.253  35.534   7.258
 5476POPC   C1B69439  22.530  35.355   6.361
 5476POPC   C2B69440  22.517  35.364   6.832
 5476POPC   C3B69441  22.517  35.090   7.202
 5476POPC   C4B69442  22.628  35.129   7.665
 5477POPC   NC369443   4.517  12.923   5.142
 5477POPC   PO469444   3.979  13.207   5.443
 5477POPC   GL169445   4.293  12.952   5.635
 5477POPC   GL269446   4.082  12.959   5.876
 5477POPC   C1A69447   4.509  12.769   6.041
 5477POPC   D2A69448   4.587  12.810   6.497
 5477POPC   C3A69449   4.473  12.891   6.950
 5477POPC   C4A69450   4.508  12.889   7.442
 5477POPC   C1B69451   3.907  12.940   6.258
 5477POPC   C2B69452   4.035  12.928   6.671
 5477POPC   C3B69453   3.979  12.581   6.921
 5477POPC   C4B69454   3.939  12.386   7.313
 5478POPC   NC369455  26.336  28.367   5.408
 5478POPC   PO469456  25.798  28.078   5.506
 5478POPC   GL169457  26.082  28.200   5.810
 5478POPC   GL269458  26.040  27.953   5.987
 5478POPC   C1A69459  26.244  28.438   6.171
 5478POPC   D2A69460  26.043  28.525   6.571
 5478POPC   C3A69461  25.972  28.552   7.000
 5478POPC   C4A69462  26.347  28.602   7.258
 5478POPC   C1B69463  25.786  28.228   6.227
 5478POPC   C2B69464  25.677  28.159   6.625
 5478POPC   C3B69465  25.804  28.029   7.036
 5478POPC   C4B69466  26.027  28.206   7.372
 5479POPC   NC369467   1.447   7.717   5.509
 5479POPC   PO469468   0.976   7.252   5.220
 5479POPC   GL169469   1.027   7.389   5.664
 5479POPC   GL269470   1.126   7.685   5.888
 5479POPC   C1A69471   0.913   7.275   6.099
 5479POPC   D2A69472   0.745   7.482   6.464
 5479POPC   C3A69473   0.938   7.358   6.824
 5479POPC   C4A69474   1.059   7.459   7.204
 5479POPC   C1B69475   1.317   7.565   6.289
 5479POPC   C2B69476   1.437   7.421   6.727
 5479POPC   C3B69477   1.560   7.368   7.199
 5479POPC   C4B69478   1.765   7.513   7.652
 5480POPC   NC369479  39.957  38.768   5.380
 5480POPC   PO469480  39.601  38.280   5.181
 5480POPC   GL169481  39.645  38.296   5.672
 5480POPC   GL269482  39.666  38.651   5.803
 5480POPC   C1A69483  39.924  38.183   6.086
 5480POPC   D2A69484  39.893  38.016   6.544
 5480POPC   C3A69485  39.988  38.299   6.883
 5480POPC   C4A69486  40.213  38.176   7.244
 5480POPC   C1B69487  39.830  38.670   6.240
 5480POPC   C2B69488  39.654  38.775   6.645
 5480POPC   C3B69489  39.732  38.857   7.041
 5480POPC   C4B69490  40.148  38.892   7.188
 5481POPC   NC369491  22.888  30.192   5.141
 5481POPC   PO469492  23.115  30.774   5.386
 5481POPC   GL169493  22.962  30.773   5.827
 5481POPC   GL269494  22.621  30.945   5.872
 5481POPC   C1A69495  23.189  30.679   6.244
 5481POPC   D2A69496  23.377  30.898   6.628
 5481POPC   C3A69497  23.245  30.735   7.049
 5481POPC   C4A69498  23.166  30.415   7.346
 5481POPC   C1B69499  22.756  30.915   6.295
 5481POPC   C2B69500  22.868  30.716   6.699
 5481POPC   C3B69501  22.763  30.824   7.160
 5481POPC   C4B69502  22.712  30.705   7.603
 5482POPC   NC369503  29.827  27.016   5.119
 5482POPC   PO469504  29.860  27.718   5.273
 5482POPC   GL169505  30.016  27.685   5.719
 5482POPC   GL269506  29.903  27.353   5.836
 5482POPC   C1A69507  29.982  27.773   6.167
 5482POPC   D2A69508  29.898  27.625   6.605
 5482POPC   C3A69509  29.846  27.933   6.900
 5482POPC   C4A69510  29.924  27.847   7.314
 5482POPC   C1B69511  30.126  27.272   6.227
 5482POPC   C2B69512  30.312  27.296   6.640
 5482POPC   C3B69513  30.212  27.474   7.036
 5482POPC   C4B69514  30.124  27.235   7.399
 5483POPC   NC369515   9.615  19.546   5.686
 5483POPC   PO469516   9.723  18.855   5.543
 5483POPC   GL169517   9.567  18.836   5.941
 5483POPC   GL269518   9.794  19.137   6.017
 5483POPC   C1A69519   9.616  18.853   6.392
 5483POPC   D2A69520   9.817  19.197   6.606
 5483POPC   C3A69521   9.597  19.188   6.945
 5483POPC   C4A69522   9.536  18.749   7.053
 5483POPC   C1B69523  10.108  18.906   6.285
 5483POPC   C2B69524  10.293  19.002   6.688
 5483POPC   C3B69525  10.095  19.178   7.071
 5483POPC   C4B69526   9.817  19.028   7.390
 5484POPC   NC369527  28.043   6.196   5.275
 5484POPC   PO469528  27.462   5.890   5.249
 5484POPC   GL169529  27.562   5.717   5.728
 5484POPC   GL269530  27.930   5.636   5.785
 5484POPC   C1A69531  27.439   5.882   6.196
 5484POPC   D2A69532  27.612   6.006   6.609
 5484POPC   C3A69533  27.440   6.075   7.029
 5484POPC   C4A69534  27.686   6.172   7.402
 5484POPC   C1B69535  27.774   5.493   6.194
 5484POPC   C2B69536  27.528   5.488   6.554
 5484POPC   C3B69537  27.539   5.586   6.988
 5484POPC   C4B69538  27.659   5.663   7.428
 5485POPC   NC369539  21.996  24.760   5.463
 5485POPC   PO469540  21.312  24.477   5.446
 5485POPC   GL169541  21.467  24.566   5.842
 5485POPC   GL269542  21.709  24.298   5.857
 5485POPC   C1A69543  21.259  24.682   6.228
 5485POPC   D2A69544  21.433  24.651   6.612
 5485POPC   C3A69545  21.223  24.660   6.962
 5485POPC   C4A69546  21.547  24.543   7.201
 5485POPC   C1B69547  21.568  24.256   6.298
 5485POPC   C2B69548  21.570  24.150   6.743
 5485POPC   C3B69549  21.665  24.070   7.159
 5485POPC   C4B69550  21.591  24.132   7.613
 5486POPC   NC369551  36.327  19.574   5.434
 5486POPC   PO469552  35.802  19.974   5.386
 5486POPC   GL169553  36.032  19.854   5.738
 5486POPC   GL269554  35.887  19.597   5.841
 5486POPC   C1A69555  36.172  19.956   6.157
 5486POPC   D2A69556  35.970  19.969   6.556
 5486POPC   C3A69557  36.191  19.823   6.880
 5486POPC   C4A69558  36.339  19.863   7.274
 5486POPC   C1B69559  36.063  19.424   6.248
 5486POPC   C2B69560  36.078  19.326   6.716
 5486POPC   C3B69561  36.044  19.421   7.178
 5486POPC   C4B69562  35.683  19.418   7.462
 5487POPC   NC369563  20.927  33.142   5.491
 5487POPC   PO469564  20.495  32.704   5.333
 5487POPC   GL169565  20.347  32.970   5.698
 5487POPC   GL269566  20.669  32.934   5.876
 5487POPC   C1A69567  20.319  33.199   6.125
 5487POPC   D2A69568  20.570  33.045   6.482
 5487POPC   C3A69569  20.463  33.119   6.927
 5487POPC   C4A69570  20.791  33.252   7.180
 5487POPC   C1B69571  20.972  32.675   6.093
 5487POPC   C2B69572  21.073  32.745   6.516
 5487POPC   C3B69573  20.790  32.733   6.849
 5487POPC   C4B69574  20.792  32.769   7.277
 5488POPC   NC369575  24.687  22.939   4.964
 5488POPC   PO469576  24.500  23.457   5.403
 5488POPC   GL169577  24.487  23.084   5.754
 5488POPC   GL269578  24.717  22.763   5.707
 5488POPC   C1A69579  24.411  23.053   6.244
 5488POPC   D2A69580  24.354  23.269   6.667
 5488POPC   C3A69581  24.097  23.035   6.973
 5488POPC   C4A69582  24.221  22.981   7.410
 5488POPC   C1B69583  24.852  22.810   6.159
 5488POPC   C2B69584  24.723  22.809   6.598
 5488POPC   C3B69585  24.602  22.936   7.016
 5488POPC   C4B69586  24.722  22.709   7.384
 5489POPC   NC369587  44.332  21.670   5.553
 5489POPC   PO469588  43.730  21.269   5.331
 5489POPC   GL169589  43.757  21.226   5.752
 5489POPC   GL269590  43.960  21.472   5.862
 5489POPC   C1A69591  43.808  21.122   6.193
 5489POPC   D2A69592  44.103  21.234   6.515
 5489POPC   C3A69593  43.871  21.250   6.896
 5489POPC   C4A69594  43.944  21.517   7.237
 5489POPC   C1B69595  43.855  21.683   6.295
 5489POPC   C2B69596  43.828  21.929   6.653
 5489POPC   C3B69597  44.074  21.976   7.023
 5489POPC   C4B69598  43.882  22.051   7.395
 5490POPC   NC369599  35.596  28.482   5.603
 5490POPC   PO469600  34.937  28.462   5.557
 5490POPC   GL169601  35.139  28.327   5.861
 5490POPC   GL269602  35.316  28.053   5.759
 5490POPC   C1A69603  35.139  28.461   6.270
 5490POPC   D2A69604  35.000  28.329   6.634
 5490POPC   C3A69605  35.127  28.571   6.934
 5490POPC   C4A69606  35.194  28.646   7.372
 5490POPC   C1B69607  35.494  28.117   6.188
 5490POPC   C2B69608  35.556  28.331   6.586
 5490POPC   C3B69609  35.430  28.165   6.962
 5490POPC   C4B69610  35.500  28.209   7.371
 5491POPC   NC369611  35.255  11.664   5.181
 5491POPC   PO469612  35.593  11.085   5.478
 5491POPC   GL169613  35.373  11.255   5.845
 5491POPC   GL269614  35.029  11.115   5.737
 5491POPC   C1A69615  35.401  11.461   6.299
 5491POPC   D2A69616  35.174  11.678   6.641
 5491POPC   C3A69617  35.306  11.493   7.031
 5491POPC   C4A69618  35.487  11.276   7.391
 5491POPC   C1B69619  34.979  11.213   6.185
 5491POPC   C2B69620  35.160  11.107   6.590
 5491POPC   C3B69621  34.958  11.079   6.970
 5491POPC   C4B69622  35.006  11.162   7.394
 5492POPC   NC369623   3.133  22.573   5.411
 5492POPC   PO469624   3.764  22.594   5.588
 5492POPC   GL169625   3.393  22.850   5.762
 5492POPC   GL269626   3.331  23.191   5.717
 5492POPC   C1A69627   3.291  22.911   6.195
 5492POPC   D2A69628   3.688  22.939   6.429
 5492POPC   C3A69629   3.745  22.898   6.869
 5492POPC   C4A69630   3.537  22.918   7.253
 5492POPC   C1B69631   3.251  23.408   6.079
 5492POPC   C2B69632   3.331  23.331   6.509
 5492POPC   C3B69633   3.258  23.057   6.842
 5492POPC   C4B69634   3.046  23.172   7.207
 5493POPC   NC369635  34.205   6.412   5.368
 5493POPC   PO469636  34.566   6.972   5.598
 5493POPC   GL169637  34.516   6.753   5.934
 5493POPC   GL269638  34.360   6.506   5.843
 5493POPC   C1A69639  34.587   6.674   6.344
 5493POPC   D2A69640  34.755   6.516   6.705
 5493POPC   C3A69641  34.575   6.800   6.952
 5493POPC   C4A69642  34.571   7.005   7.361
 5493POPC   C1B69643  34.373   6.245   6.196
 5493POPC   C2B69644  34.277   6.286   6.617
 5493POPC   C3B69645  34.427   6.291   7.027
 5493POPC   C4B69646  34.709   6.494   7.326
 5494POPC   NC369647  13.555  35.160   5.458
 5494POPC   PO469648  13.969  35.686   5.665
 5494POPC   GL169649  13.583  35.522   5.802
 5494POPC   GL269650  13.346  35.812   5.815
 5494POPC   C1A69651  13.558  35.242   6.177
 5494POPC   D2A69652  13.381  35.293   6.612
 5494POPC   C3A69653  13.557  35.184   7.008
 5494POPC   C4A69654  13.798  35.166   7.402
 5494POPC   C1B69655  13.613  35.768   6.226
 5494POPC   C2B69656  13.476  35.806   6.626
 5494POPC   C3B69657  13.671  35.706   7.021
 5494POPC   C4B69658  13.450  35.547   7.362
 5495POPC   NC369659  19.623   5.015   5.512
 5495POPC   PO469660  20.294   5.186   5.473
 5495POPC   GL169661  20.052   5.139   5.836
 5495POPC   GL269662  19.787   5.389   5.824
 5495POPC   C1A69663  19.801   5.015   6.201
 5495POPC   D2A69664  19.857   4.769   6.547
 5495POPC   C3A69665  19.595   4.854   6.880
 5495POPC   C4A69666  19.689   4.778   7.293
 5495POPC   C1B69667  19.944   5.493   6.242
 5495POPC   C2B69668  20.056   5.261   6.640
 5495POPC   C3B69669  19.851   5.263   7.062
 5495POPC   C4B69670  19.893   5.175   7.502
 5496POPC   NC369671   0.248  40.002   5.397
 5496POPC   PO469672   0.935  39.968   5.508
 5496POPC   GL169673   0.667  40.109   5.893
 5496POPC   GL269674   0.332  39.940   5.908
 5496POPC   C1A69675   0.561  40.135   6.364
 5496POPC   D2A69676   0.561  40.030   6.843
 5496POPC   C3A69677   0.331  40.160   7.218
 5496POPC   C4A69678   0.468  40.127   7.665
 5496POPC   C1B69679   0.125  39.686   6.236
 5496POPC   C2B69680   0.089  39.467   6.638
 5496POPC   C3B69681   0.138  39.670   7.022
 5496POPC   C4B69682   0.282  39.703   7.439
 5497POPC   NC369683  15.830  27.162   5.525
 5497POPC   PO469684  16.222  26.714   5.401
 5497POPC   GL169685  15.972  26.704   5.783
 5497POPC   GL269686  16.240  26.540   5.935
 5497POPC   C1A69687  15.858  26.859   6.218
 5497POPC   D2A69688  16.057  27.049   6.596
 5497POPC   C3A69689  15.882  27.142   7.003
 5497POPC   C4A69690  15.802  27.317   7.416
 5497POPC   C1B69691  16.236  26.354   6.347
 5497POPC   C2B69692  15.977  26.560   6.648
 5497POPC   C3B69693  15.811  26.590   7.053
 5497POPC   C4B69694  15.902  26.823   7.408
 5498POPC   NC369695  22.391  12.353   5.652
 5498POPC   PO469696  23.045  12.144   5.320
 5498POPC   GL169697  23.062  12.147   5.806
 5498POPC   GL269698  22.912  12.474   5.781
 5498POPC   C1A69699  22.925  12.055   6.293
 5498POPC   D2A69700  22.830  12.037   6.763
 5498POPC   C3A69701  22.990  11.981   7.181
 5498POPC   C4A69702  22.954  11.888   7.637
 5498POPC   C1B69703  22.827  12.533   6.205
 5498POPC   C2B69704  23.107  12.458   6.572
 5498POPC   C3B69705  23.020  12.470   7.014
 5498POPC   C4B69706  22.881  12.386   7.482
 5499POPC   NC369707  31.807   7.076   5.426
 5499POPC   PO469708  31.108   7.119   5.416
 5499POPC   GL169709  31.181   7.390   5.762
 5499POPC   GL269710  31.579   7.435   5.793
 5499POPC   C1A69711  31.017   7.430   6.182
 5499POPC   D2A69712  31.255   7.493   6.528
 5499POPC   C3A69713  31.076   7.428   6.885
 5499POPC   C4A69714  31.238   7.377   7.248
 5499POPC   C1B69715  31.752   7.403   6.239
 5499POPC   C2B69716  31.674   7.160   6.607
 5499POPC   C3B69717  31.794   7.224   7.031
 5499POPC   C4B69718  31.854   7.491   7.420
 5500POPC   NC369719  37.488   4.612   5.464
 5500POPC   PO469720  37.979   4.139   5.457
 5500POPC   GL169721  37.738   4.339   5.789
 5500POPC   GL269722  37.882   4.341   6.086
 5500POPC   C1A69723  37.420   4.554   6.118
 5500POPC   D2A69724  37.531   4.388   6.523
 5500POPC   C3A69725  37.525   4.453   6.965
 5500POPC   C4A69726  37.891   4.670   7.108
 5500POPC   C1B69727  37.500   4.042   6.129
 5500POPC   C2B69728  37.456   3.864   6.527
 5500POPC   C3B69729  37.742   4.025   6.824
 5500POPC   C4B69730  37.538   3.956   7.201
 5501POPC   NC369731  35.043  18.736   5.372
 5501POPC   PO469732  35.646  19.133   5.430
 5501POPC   GL169733  35.348  19.167   5.753
 5501POPC   GL269734  35.400  18.860   5.883
 5501POPC   C1A69735  35.426  19.333   6.176
 5501POPC   D2A69736  35.641  19.527   6.536
 5501POPC   C3A69737  35.573  19.391   6.941
 5501POPC   C4A69738  35.195  19.255   7.090
 5501POPC   C1B69739  35.294  18.822   6.304
 5501POPC   C2B69740  35.423  18.847   6.740
 5501POPC   C3B69741  35.127  18.759   7.088
 5501POPC   C4B69742  35.028  18.653   7.509
 5502POPC   NC369743  16.053  44.147   5.520
 5502POPC   PO469744  15.866  43.542   5.567
 5502POPC   GL169745  15.893  43.809   5.871
 5502POPC   GL269746  15.537  43.878   5.767
 5502POPC   C1A69747  16.047  43.636   6.255
 5502POPC   D2A69748  16.028  43.431   6.652
 5502POPC   C3A69749  16.131  43.698   6.989
 5502POPC   C4A69750  16.208  43.666   7.433
 5502POPC   C1B69751  15.501  43.682   6.161
 5502POPC   C2B69752  15.674  43.853   6.523
 5502POPC   C3B69753  15.618  43.648   6.878
 5502POPC   C4B69754  15.410  43.546   7.240
 5503POPC   NC369755  44.838  15.524   5.412
 5503POPC   PO469756  44.993  16.182   5.641
 5503POPC   GL169757  44.682  16.063   5.945
 5503POPC   GL269758  44.613  15.745   5.785
 5503POPC   C1A69759  44.391  16.193   6.293
 5503POPC   D2A69760  44.273  16.229   6.720
 5503POPC   C3A69761  44.678  16.249   6.927
 5503POPC   C4A69762  44.817  16.028   7.275
 5503POPC   C1B69763  44.883  15.627   6.115
 5503POPC   C2B69764  44.853  15.860   6.502
 5503POPC   C3B69765  44.907  15.696   6.907
 5503POPC   C4B69766  44.719  15.511   7.271
 5504POPC   NC369767  37.924  35.386   5.665
 5504POPC   PO469768  37.524  35.758   5.282
 5504POPC   GL169769  37.532  35.710   5.786
 5504POPC   GL269770  37.499  35.371   5.951
 5504POPC   C1A69771  37.696  35.739   6.265
 5504POPC   D2A69772  37.831  35.561   6.692
 5504POPC   C3A69773  37.549  35.460   7.040
 5504POPC   C4A69774  37.468  35.108   7.317
 5504POPC   C1B69775  37.862  35.229   6.279
 5504POPC   C2B69776  37.979  35.055   6.686
 5504POPC   C3B69777  38.002  35.222   7.140
 5504POPC   C4B69778  38.101  35.187   7.621
 5505POPC   NC369779  16.200   4.957   5.485
 5505POPC   PO469780  15.531   5.018   5.563
 5505POPC   GL169781  15.848   5.077   5.826
 5505POPC   GL269782  16.031   5.387   5.746
 5505POPC   C1A69783  16.101   4.992   6.165
 5505POPC   D2A69784  16.232   4.764   6.538
 5505POPC   C3A69785  16.001   4.964   6.877
 5505POPC   C4A69786  15.922   5.109   7.282
 5505POPC   C1B69787  15.801   5.420   6.177
 5505POPC   C2B69788  15.801   5.392   6.628
 5505POPC   C3B69789  15.535   5.341   7.007
 5505POPC   C4B69790  15.540   5.420   7.471
 5506POPC   NC369791  27.955   7.449   5.681
 5506POPC   PO469792  28.532   7.288   5.514
 5506POPC   GL169793  28.421   7.383   5.924
 5506POPC   GL269794  28.308   7.707   5.966
 5506POPC   C1A69795  28.380   7.164   6.318
 5506POPC   D2A69796  28.653   7.235   6.663
 5506POPC   C3A69797  28.509   7.222   7.062
 5506POPC   C4A69798  28.309   7.506   7.299
 5506POPC   C1B69799  28.174   7.633   6.367
 5506POPC   C2B69800  28.353   7.652   6.766
 5506POPC   C3B69801  28.112   7.880   7.031
 5506POPC   C4B69802  27.777   7.607   7.220
 5507POPC   NC369803   4.824  36.255   5.402
 5507POPC   PO469804   4.927  35.573   5.259
 5507POPC   GL169805   4.880  35.837   5.674
 5507POPC   GL269806   5.158  36.101   5.764
 5507POPC   C1A69807   4.776  36.071   6.098
 5507POPC   D2A69808   4.920  36.217   6.516
 5507POPC   C3A69809   4.785  35.991   6.893
 5507POPC   C4A69810   4.875  36.160   7.309
 5507POPC   C1B69811   5.167  36.450   6.120
 5507POPC   C2B69812   5.168  36.706   6.551
 5507POPC   C3B69813   5.386  36.625   6.981
 5507POPC   C4B69814   5.307  36.440   7.387
 5508POPC   NC369815  42.497  40.797   5.488
 5508POPC   PO469816  41.996  41.072   5.158
 5508POPC   GL169817  42.018  40.951   5.642
 5508POPC   GL269818  42.260  41.155   5.826
 5508POPC   C1A69819  42.145  40.695   6.056
 5508POPC   D2A69820  42.027  40.620   6.522
 5508POPC   C3A69821  42.313  40.645   6.891
 5508POPC   C4A69822  42.639  40.760   7.199
 5508POPC   C1B69823  42.102  41.150   6.278
 5508POPC   C2B69824  42.075  41.100   6.729
 5508POPC   C3B69825  42.198  41.088   7.159
 5508POPC   C4B69826  42.233  41.160   7.599
 5509POPC   NC369827  30.618  25.672   5.401
 5509POPC   PO469828  30.373  24.983   5.433
 5509POPC   GL169829  30.624  25.252   5.764
 5509POPC   GL269830  30.870  25.535   5.833
 5509POPC   C1A69831  30.626  25.340   6.235
 5509POPC   D2A69832  30.777  25.163   6.622
 5509POPC   C3A69833  30.598  24.993   6.984
 5509POPC   C4A69834  30.941  24.809   7.214
 5509POPC   C1B69835  31.118  25.535   6.233
 5509POPC   C2B69836  31.056  25.576   6.690
 5509POPC   C3B69837  30.811  25.476   7.080
 5509POPC   C4B69838  30.376  25.520   7.200
 5510POPC   NC369839  36.857   5.565   5.479
 5510POPC   PO469840  37.209   4.990   5.503
 5510POPC   GL169841  36.882   5.150   5.812
 5510POPC   GL269842  37.019   5.414   5.965
 5510POPC   C1A69843  36.558   5.067   6.162
 5510POPC   D2A69844  36.668   4.949   6.612
 5510POPC   C3A69845  36.676   5.312   6.896
 5510POPC   C4A69846  36.566   5.320   7.361
 5510POPC   C1B69847  37.057   5.071   6.299
 5510POPC   C2B69848  37.122   5.097   6.765
 5510POPC   C3B69849  36.936   4.992   7.195
 5510POPC   C4B69850  37.125   4.869   7.590
 5511POPC   NC369851  44.176  32.524   5.547
 5511POPC   PO469852  43.613  32.356   5.395
 5511POPC   GL169853  43.808  32.280   5.836
 5511POPC   GL269854  43.838  31.925   5.935
 5511POPC   C1A69855  44.026  32.498   6.203
 5511POPC   D2A69856  44.133  32.411   6.642
 5511POPC   C3A69857  43.754  32.360   6.847
 5511POPC   C4A69858  43.691  32.373   7.266
 5511POPC   C1B69859  43.895  32.027   6.349
 5511POPC   C2B69860  44.038  31.922   6.753
 5511POPC   C3B69861  43.741  31.884   7.083
 5511POPC   C4B69862  43.870  31.954   7.533
 5512POPC   NC369863  24.213  30.368   5.599
 5512POPC   PO469864  24.855  30.563   5.329
 5512POPC   GL169865  24.658  30.592   5.741
 5512POPC   GL269866  24.519  30.926   5.753
 5512POPC   C1A69867  24.706  30.452   6.186
 5512POPC   D2A69868  24.560  30.602   6.589
 5512POPC   C3A69869  24.717  30.484   6.980
 5512POPC   C4A69870  24.575  30.638   7.361
 5512POPC   C1B69871  24.469  30.924   6.194
 5512POPC   C2B69872  24.323  31.100   6.557
 5512POPC   C3B69873  24.481  30.975   6.954
 5512POPC   C4B69874  24.481  31.117   7.364
 5513POPC   NC369875  24.460  30.794   5.252
 5513POPC   PO469876  24.520  31.551   5.315
 5513POPC   GL169877  24.526  31.450   5.773
 5513POPC   GL269878  24.225  31.321   5.982
 5513POPC   C1A69879  24.691  31.386   6.186
 5513POPC   D2A69880  24.563  31.556   6.584
 5513POPC   C3A69881  24.547  31.499   7.025
 5513POPC   C4A69882  24.835  31.454   7.392
 5513POPC   C1B69883  24.051  31.580   6.330
 5513POPC   C2B69884  24.078  31.638   6.769
 5513POPC   C3B69885  24.211  31.862   7.132
 5513POPC   C4B69886  24.349  31.600   7.503
 5514POPC   NC369887   7.418  14.646   5.460
 5514POPC   PO469888   7.276  14.009   5.655
 5514POPC   GL169889   7.236  14.372   5.887
 5514POPC   GL269890   7.462  14.638   5.962
 5514POPC   C1A69891   7.111  14.428   6.313
 5514POPC   D2A69892   7.201  14.506   6.737
 5514POPC   C3A69893   6.952  14.339   7.031
 5514POPC   C4A69894   6.947  14.220   7.450
 5514POPC   C1B69895   7.674  14.552   6.340
 5514POPC   C2B69896   7.790  14.692   6.755
 5514POPC   C3B69897   7.853  14.540   7.171
 5514POPC   C4B69898   7.837  14.546   7.649
 5515POPC   NC369899  27.158  13.193   5.423
 5515POPC   PO469900  27.775  13.038   5.503
 5515POPC   GL169901  27.642  12.999   5.903
 5515POPC   GL269902  27.521  12.673   5.912
 5515POPC   C1A69903  27.468  13.011   6.303
 5515POPC   D2A69904  27.377  12.754   6.627
 5515POPC   C3A69905  27.415  12.963   7.012
 5515POPC   C4A69906  27.554  13.048   7.411
 5515POPC   C1B69907  27.789  12.493   6.229
 5515POPC   C2B69908  27.750  12.316   6.643
 5515POPC   C3B69909  27.547  12.454   7.018
 5515POPC   C4B69910  27.425  12.548   7.432
 5516POPC   NC369911  35.838   9.939   5.521
 5516POPC   PO469912  36.447   9.704   5.680
 5516POPC   GL169913  36.159   9.792   5.965
 5516POPC   GL269914  35.874   9.601   5.972
 5516POPC   C1A69915  36.001   9.947   6.360
 5516POPC   D2A69916  35.991   9.732   6.767
 5516POPC   C3A69917  36.043  10.022   7.123
 5516POPC   C4A69918  35.922  10.192   7.523
 5516POPC   C1B69919  36.166   9.440   6.328
 5516POPC   C2B69920  36.393   9.253   6.658
 5516POPC   C3B69921  36.357   9.380   7.065
 5516POPC   C4B69922  35.992   9.537   7.240
 5517POPC   NC369923  34.340  18.779   5.585
 5517POPC   PO469924  34.790  18.310   5.433
 5517POPC   GL169925  34.807  18.371   5.848
 5517POPC   GL269926  34.897  18.723   5.863
 5517POPC   C1A69927  34.747  18.151   6.272
 5517POPC   D2A69928  34.507  18.343   6.623
 5517POPC   C3A69929  34.411  18.208   7.028
 5517POPC   C4A69930  34.254  18.362   7.376
 5517POPC   C1B69931  34.799  18.672   6.292
 5517POPC   C2B69932  35.008  18.463   6.607
 5517POPC   C3B69933  34.898  18.321   6.994
 5517POPC   C4B69934  34.751  18.245   7.429
 5518POPC   NC369935  44.164   8.699   5.292
 5518POPC   PO469936  43.508   8.735   5.254
 5518POPC   GL169937  43.765   8.720   5.686
 5518POPC   GL269938  44.117   8.900   5.758
 5518POPC   C1A69939  43.835   8.768   6.158
 5518POPC   D2A69940  44.044   8.895   6.550
 5518POPC   C3A69941  43.830   8.791   6.920
 5518POPC   C4A69942  43.941   8.706   7.339
 5518POPC   C1B69943  44.148   9.165   6.125
 5518POPC   C2B69944  43.793   9.344   6.375
 5518POPC   C3B69945  43.730   9.439   6.815
 5518POPC   C4B69946  43.808   9.218   7.208
 5519POPC   NC369947  20.544  38.084   5.520
 5519POPC   PO469948  20.691  37.471   5.349
 5519POPC   GL169949  20.812  37.622   5.794
 5519POPC   GL269950  20.970  37.929   5.768
 5519POPC   C1A69951  20.661  37.628   6.272
 5519POPC   D2A69952  20.279  37.685   6.601
 5519POPC   C3A69953  20.449  37.609   7.031
 5519POPC   C4A69954  20.362  37.231   7.255
 5519POPC   C1B69955  20.748  38.134   6.137
 5519POPC   C2B69956  20.575  38.081   6.533
 5519POPC   C3B69957  20.698  38.052   6.958
 5519POPC   C4B69958  20.885  37.810   7.284
 5520POPC   NC369959  38.584  32.759   5.460
 5520POPC   PO469960  38.600  32.075   5.509
 5520POPC   GL169961  38.511  32.405   5.830
 5520POPC   GL269962  38.137  32.492   5.753
 5520POPC   C1A69963  38.627  32.373   6.279
 5520POPC   D2A69964  38.352  32.150   6.589
 5520POPC   C3A69965  38.284  32.189   7.043
 5520POPC   C4A69966  38.587  32.131   7.384
 5520POPC   C1B69967  38.170  32.622   6.190
 5520POPC   C2B69968  38.352  32.689   6.575
 5520POPC   C3B69969  38.155  32.705   6.912
 5520POPC   C4B69970  38.196  32.631   7.283
 5521POPC   NC369971  33.014  43.575   5.057
 5521POPC   PO469972  33.242  44.072   5.486
 5521POPC   GL169973  33.034  43.970   5.867
 5521POPC   GL269974  32.936  43.614   5.830
 5521POPC   C1A69975  32.927  44.038   6.313
 5521POPC   D2A69976  32.811  44.194   6.741
 5521POPC   C3A69977  32.827  43.923   7.134
 5521POPC   C4A69978  32.789  43.836   7.603
 5521POPC   C1B69979  33.152  43.566   6.219
 5521POPC   C2B69980  33.103  43.695   6.661
 5521POPC   C3B69981  33.159  43.508   7.061
 5521POPC   C4B69982  33.366  43.783   7.344
 5522POPC   NC369983   7.168   2.352   5.403
 5522POPC   PO469984   7.772   2.156   5.455
 5522POPC   GL169985   7.656   2.066   5.875
 5522POPC   GL269986   7.311   2.102   5.822
 5522POPC   C1A69987   7.491   2.003   6.292
 5522POPC   D2A69988   7.258   1.944   6.636
 5522POPC   C3A69989   7.489   2.053   7.013
 5522POPC   C4A69990   7.709   1.989   7.364
 5522POPC   C1B69991   7.104   2.304   6.138
 5522POPC   C2B69992   7.257   2.457   6.526
 5522POPC   C3B69993   7.119   2.376   6.922
 5522POPC   C4B69994   7.024   2.526   7.316
 5523POPC   NC369995   4.915  13.834   5.251
 5523POPC   PO469996   5.504  13.608   5.214
 5523POPC   GL169997   5.092  13.616   5.662
 5523POPC   GL269998   4.777  13.454   5.770
 5523POPC   C1A69999   5.140  13.615   6.161
 5523POPC   D2A70000   5.422  13.645   6.532
 5523POPC   C3A70001   5.268  13.436   6.905
 5523POPC   C4A70002   5.139  13.589   7.295
 5523POPC   C1B70003   4.644  13.637   6.207
 5523POPC   C2B70004   4.826  13.720   6.610
 5523POPC   C3B70005   4.709  13.554   7.009
 5523POPC   C4B70006   4.530  13.390   7.371
 5524POPC   NC370007  15.363  38.643   5.485
 5524POPC   PO470008  16.034  38.647   5.354
 5524POPC   GL170009  15.981  38.386   5.752
 5524POPC   GL270010  16.176  38.566   5.956
 5524POPC   C1A70011  15.842  38.224   6.173
 5524POPC   D2A70012  15.964  37.989   6.572
 5524POPC   C3A70013  15.699  38.117   6.914
 5524POPC   C4A70014  15.784  38.407   7.229
 5524POPC   C1B70015  16.358  38.682   6.342
 5524POPC   C2B70016  16.243  38.713   6.781
 5524POPC   C3B70017  16.246  38.710   7.221
 5524POPC   C4B70018  16.456  38.603   7.634
 5525POPC   NC370019   3.942  44.274   5.430
 5525POPC   PO470020   3.544  43.839   5.165
 5525POPC   GL170021   3.684  43.902   5.687
 5525POPC   GL270022   3.787  44.205   5.916
 5525POPC   C1A70023   3.570  43.744   6.108
 5525POPC   D2A70024   3.425  43.596   6.503
 5525POPC   C3A70025   3.520  43.798   6.897
 5525POPC   C4A70026   3.400  43.770   7.329
 5525POPC   C1B70027   3.389  44.213   6.148
 5525POPC   C2B70028   3.286  44.093   6.553
 5525POPC   C3B70029   3.166  44.169   6.982
 5525POPC   C4B70030   3.418  44.296   7.348
 5526POPC   NC370031   0.871   7.657   5.028
 5526POPC   PO470032   0.303   7.508   5.344
 5526POPC   GL170033   0.498   7.375   5.728
 5526POPC   GL270034   0.619   7.675   5.866
 5526POPC   C1A70035   0.374   7.281   6.168
 5526POPC   D2A70036   0.228   7.420   6.597
 5526POPC   C3A70037   0.389   7.122   6.902
 5526POPC   C4A70038   0.677   7.124   7.219
 5526POPC   C1B70039   0.401   7.810   6.249
 5526POPC   C2B70040   0.514   7.909   6.674
 5526POPC   C3B70041   0.538   7.604   7.007
 5526POPC   C4B70042   0.352   7.491   7.375
 5527POPC   NC370043  43.603  23.528   5.505
 5527POPC   PO470044  44.226  23.892   5.383
 5527POPC   GL170045  44.050  23.641   5.770
 5527POPC   GL270046  44.244  23.390   5.989
 5527POPC   C1A70047  43.767  23.594   6.163
 5527POPC   D2A70048  43.665  23.804   6.565
 5527POPC   C3A70049  43.817  23.628   6.961
 5527POPC   C4A70050  43.703  23.507   7.384
 5527POPC   C1B70051  44.236  23.814   6.211
 5527POPC   C2B70052  44.179  24.047   6.568
 5527POPC   C3B70053  44.352  24.029   6.969
 5527POPC   C4B70054  44.186  23.792   7.286
 5528POPC   NC370055  13.376   0.863   5.245
 5528POPC   PO470056  13.710   0.304   5.215
 5528POPC   GL170057  13.598   0.467   5.608
 5528POPC   GL270058  13.695   0.206   5.870
 5528POPC   C1A70059  13.531   0.648   6.040
 5528POPC   D2A70060  13.469   0.549   6.491
 5528POPC   C3A70061  13.422   0.632   6.935
 5528POPC   C4A70062  13.467   0.303   7.225
 5528POPC   C1B70063  13.844   0.229   6.290
 5528POPC   C2B70064  13.949  44.972   6.671
 5528POPC   C3B70065  13.822  44.935   7.094
 5528POPC   C4B70066  13.856   0.038   7.555
 5529POPC   NC370067  11.098  40.125   5.256
 5529POPC   PO470068  11.561  39.712   5.256
 5529POPC   GL170069  11.193  39.791   5.645
 5529POPC   GL270070  11.150  40.147   5.791
 5529POPC   C1A70071  11.137  39.776   6.157
 5529POPC   D2A70072  11.180  39.933   6.609
 5529POPC   C3A70073  11.442  39.916   6.986
 5529POPC   C4A70074  11.707  39.662   7.234
 5529POPC   C1B70075  10.944  40.238   6.240
 5529POPC   C2B70076  10.950  40.360   6.695
 5529POPC   C3B70077  11.008  40.157   7.112
 5529POPC   C4B70078  11.013  40.218   7.615
 5530POPC   NC370079  44.430   5.766   5.295
 5530POPC   PO470080  43.785   5.662   5.373
 5530POPC   GL170081  43.736   5.819   5.819
 5530POPC   GL270082  43.986   6.084   5.822
 5530POPC   C1A70083  43.889   5.722   6.257
 5530POPC   D2A70084  44.070   5.820   6.674
 5530POPC   C3A70085  43.792   5.842   7.044
 5530POPC   C4A70086  43.795   5.647   7.468
 5530POPC   C1B70087  44.140   6.255   6.223
 5530POPC   C2B70088  44.298   6.331   6.623
 5530POPC   C3B70089  44.129   6.248   7.031
 5530POPC   C4B70090  43.923   6.173   7.440
 5531POPC   NC370091  15.798  11.985   5.378
 5531POPC   PO470092  15.371  12.416   5.716
 5531POPC   GL170093  15.773  12.221   5.860
 5531POPC   GL270094  16.042  12.400   5.667
 5531POPC   C1A70095  15.941  11.990   6.241
 5531POPC   D2A70096  15.793  11.848   6.669
 5531POPC   C3A70097  15.971  11.983   7.084
 5531POPC   C4A70098  15.802  12.079   7.497
 5531POPC   C1B70099  16.215  12.425   6.106
 5531POPC   C2B70100  16.217  12.307   6.548
 5531POPC   C3B70101  16.314  12.349   6.966
 5531POPC   C4B70102  16.159  12.412   7.360
 5532POPC   NC370103  43.155   7.074   5.445
 5532POPC   PO470104  43.351   7.781   5.510
 5532POPC   GL170105  43.209   7.429   5.801
 5532POPC   GL270106  43.384   7.085   5.892
 5532POPC   C1A70107  43.216   7.503   6.236
 5532POPC   D2A70108  43.063   7.651   6.624
 5532POPC   C3A70109  43.294   7.557   6.969
 5532POPC   C4A70110  43.303   7.284   7.276
 5532POPC   C1B70111  43.027   7.048   6.157
 5532POPC   C2B70112  42.894   7.162   6.554
 5532POPC   C3B70113  42.899   7.167   6.985
 5532POPC   C4B70114  42.967   6.912   7.353
 5533POPC   NC370115  42.536  23.440   5.461
 5533POPC   PO470116  43.179  23.652   5.354
 5533POPC   GL170117  43.225  23.712   5.792
 5533POPC   GL270118  42.918  23.567   5.809
 5533POPC   C1A70119  43.252  23.895   6.195
 5533POPC   D2A70120  43.235  24.163   6.560
 5533POPC   C3A70121  43.319  23.927   6.932
 5533POPC   C4A70122  43.238  23.689   7.315
 5533POPC   C1B70123  42.947  23.386   6.211
 5533POPC   C2B70124  43.093  23.357   6.645
 5533POPC   C3B70125  42.891  23.423   7.049
 5533POPC   C4B70126  42.871  23.397   7.511
 5534POPC   NC370127  25.086  20.386   5.304
 5534POPC   PO470128  25.543  20.833   5.554
 5534POPC   GL170129  25.430  20.501   5.779
 5534POPC   GL270130  25.112  20.658   5.824
 5534POPC   C1A70131  25.364  20.389   6.210
 5534POPC   D2A70132  25.482  20.623   6.586
 5534POPC   C3A70133  25.422  20.447   6.990
 5534POPC   C4A70134  25.381  20.147   7.311
 5534POPC   C1B70135  24.902  20.613   6.221
 5534POPC   C2B70136  25.003  20.413   6.625
 5534POPC   C3B70137  24.925  20.620   7.030
 5534POPC   C4B70138  25.180  20.651   7.407
 5535POPC   NC370139  32.064   3.871   5.404
 5535POPC   PO470140  32.336   3.268   5.258
 5535POPC   GL170141  32.433   3.334   5.673
 5535POPC   GL270142  32.578   3.665   5.769
 5535POPC   C1A70143  32.256   3.374   6.084
 5535POPC   D2A70144  32.298   3.518   6.496
 5535POPC   C3A70145  32.154   3.358   6.884
 5535POPC   C4A70146  32.061   3.505   7.322
 5535POPC   C1B70147  32.581   3.828   6.215
 5535POPC   C2B70148  32.645   3.862   6.701
 5535POPC   C3B70149  32.550   3.919   7.152
 5535POPC   C4B70150  32.529   3.752   7.605
 5536POPC   NC370151   2.258   7.701   5.131
 5536POPC   PO470152   1.781   7.349   5.439
 5536POPC   GL170153   1.804   7.429   5.855
 5536POPC   GL270154   1.481   7.285   5.887
 5536POPC   C1A70155   2.094   7.526   6.219
 5536POPC   D2A70156   2.148   7.814   6.588
 5536POPC   C3A70157   1.916   7.608   6.928
 5536POPC   C4A70158   2.061   7.322   7.250
 5536POPC   C1B70159   1.695   7.207   6.304
 5536POPC   C2B70160   1.856   7.136   6.717
 5536POPC   C3B70161   1.727   6.899   7.066
 5536POPC   C4B70162   1.740   6.986   7.504
 5537POPC   NC370163  25.360  30.788   5.281
 5537POPC   PO470164  25.446  30.192   5.476
 5537POPC   GL170165  25.394  30.357   5.885
 5537POPC   GL270166  25.178  30.648   5.781
 5537POPC   C1A70167  25.220  30.490   6.301
 5537POPC   D2A70168  25.123  30.666   6.738
 5537POPC   C3A70169  25.385  30.553   7.133
 5537POPC   C4A70170  25.524  30.371   7.536
 5537POPC   C1B70171  24.962  30.901   6.099
 5537POPC   C2B70172  24.837  31.046   6.529
 5537POPC   C3B70173  24.942  31.199   6.917
 5537POPC   C4B70174  24.991  30.892   7.201
 5538POPC   NC370175   7.012  10.038   5.499
 5538POPC   PO470176   6.954   9.386   5.548
 5538POPC   GL170177   6.948   9.673   5.876
 5538POPC   GL270178   6.635   9.895   5.837
 5538POPC   C1A70179   7.029   9.774   6.295
 5538POPC   D2A70180   6.765   9.878   6.643
 5538POPC   C3A70181   6.891   9.773   7.056
 5538POPC   C4A70182   6.757   9.977   7.433
 5538POPC   C1B70183   6.471   9.706   6.220
 5538POPC   C2B70184   6.242   9.801   6.639
 5538POPC   C3B70185   6.379   9.852   7.064
 5538POPC   C4B70186   6.417   9.623   7.445
 5539POPC   NC370187  19.336   7.418   5.471
 5539POPC   PO470188  19.867   7.519   5.389
 5539POPC   GL170189  19.768   7.339   5.805
 5539POPC   GL270190  19.714   7.633   5.956
 5539POPC   C1A70191  19.914   7.272   6.268
 5539POPC   D2A70192  19.993   7.615   6.598
 5539POPC   C3A70193  19.875   7.607   7.059
 5539POPC   C4A70194  19.743   7.212   7.238
 5539POPC   C1B70195  19.489   7.524   6.350
 5539POPC   C2B70196  19.535   7.373   6.749
 5539POPC   C3B70197  19.323   7.548   7.107
 5539POPC   C4B70198  19.511   7.644   7.492
 5540POPC   NC370199  19.264  16.013   5.092
 5540POPC   PO470200  19.909  16.039   5.341
 5540POPC   GL170201  19.872  16.137   5.779
 5540POPC   GL270202  19.902  15.785   5.842
 5540POPC   C1A70203  19.977  16.090   6.234
 5540POPC   D2A70204  20.014  15.772   6.561
 5540POPC   C3A70205  20.012  15.902   7.021
 5540POPC   C4A70206  20.134  15.976   7.487
 5540POPC   C1B70207  19.604  15.720   6.172
 5540POPC   C2B70208  19.587  15.497   6.542
 5540POPC   C3B70209  19.546  15.645   6.950
 5540POPC   C4B70210  19.686  15.435   7.313
 5541POPC   NC370211  16.457  15.188   5.596
 5541POPC   PO470212  16.960  15.669   5.470
 5541POPC   GL170213  16.961  15.537   5.928
 5541POPC   GL270214  16.798  15.208   6.005
 5541POPC   C1A70215  16.728  15.582   6.338
 5541POPC   D2A70216  16.749  15.570   6.818
 5541POPC   C3A70217  16.840  15.158   6.998
 5541POPC   C4A70218  17.075  14.930   7.303
 5541POPC   C1B70219  16.502  14.971   6.292
 5541POPC   C2B70220  16.366  14.918   6.741
 5541POPC   C3B70221  16.354  15.115   7.147
 5541POPC   C4B70222  16.538  14.834   7.433
 5542POPC   NC370223  30.845  29.962   5.369
 5542POPC   PO470224  30.325  29.525   5.662
 5542POPC   GL170225  30.711  29.775   5.859
 5542POPC   GL270226  30.945  30.079   5.847
 5542POPC   C1A70227  30.695  29.955   6.272
 5542POPC   D2A70228  30.602  30.126   6.668
 5542POPC   C3A70229  30.794  29.887   6.969
 5542POPC   C4A70230  30.555  29.776   7.300
 5542POPC   C1B70231  31.165  30.167   6.244
 5542POPC   C2B70232  31.083  30.283   6.690
 5542POPC   C3B70233  31.060  30.294   7.141
 5542POPC   C4B70234  31.097  29.922   7.393
 5543POPC   NC370235  31.301  33.559   5.519
 5543POPC   PO470236  31.746  34.066   5.321
 5543POPC   GL170237  31.597  33.925   5.716
 5543POPC   GL270238  31.276  34.083   5.713
 5543POPC   C1A70239  31.708  33.650   6.112
 5543POPC   D2A70240  31.477  33.611   6.532
 5543POPC   C3A70241  31.624  33.629   6.994
 5543POPC   C4A70242  31.476  33.716   7.439
 5543POPC   C1B70243  31.353  34.027   6.172
 5543POPC   C2B70244  31.214  34.065   6.609
 5543POPC   C3B70245  31.272  33.990   7.072
 5543POPC   C4B70246  31.025  33.994   7.470
 5544POPC   NC370247  29.321   6.946   5.492
 5544POPC   PO470248  28.768   6.507   5.499
 5544POPC   GL170249  28.968   6.736   5.827
 5544POPC   GL270250  28.920   7.068   5.774
 5544POPC   C1A70251  29.275   6.765   6.184
 5544POPC   D2A70252  29.522   6.687   6.590
 5544POPC   C3A70253  29.306   6.705   7.016
 5544POPC   C4A70254  29.025   6.399   7.251
 5544POPC   C1B70255  28.870   7.102   6.203
 5544POPC   C2B70256  28.991   6.862   6.601
 5544POPC   C3B70257  28.811   6.814   7.029
 5544POPC   C4B70258  28.714   6.937   7.450
 5545POPC   NC370259  26.109  20.012   5.381
 5545POPC   PO470260  26.168  19.400   5.351
 5545POPC   GL170261  26.191  19.666   5.766
 5545POPC   GL270262  26.408  19.974   5.806
 5545POPC   C1A70263  25.935  19.900   6.112
 5545POPC   D2A70264  25.954  20.153   6.510
 5545POPC   C3A70265  25.927  19.990   6.916
 5545POPC   C4A70266  25.814  19.856   7.310
 5545POPC   C1B70267  26.414  19.979   6.254
 5545POPC   C2B70268  26.343  19.786   6.668
 5545POPC   C3B70269  26.416  19.939   7.099
 5545POPC   C4B70270  26.373  20.057   7.545
 5546POPC   NC370271  44.804  38.854   5.289
 5546POPC   PO470272  44.550  38.200   5.231
 5546POPC   GL170273  44.661  38.354   5.742
 5546POPC   GL270274  44.795  38.657   5.843
 5546POPC   C1A70275  44.420  38.315   6.178
 5546POPC   D2A70276  44.202  38.319   6.599
 5546POPC   C3A70277  44.474  38.502   6.938
 5546POPC   C4A70278  44.497  38.861   7.217
 5546POPC   C1B70279  44.667  38.769   6.266
 5546POPC   C2B70280  44.882  38.883   6.654
 5546POPC   C3B70281  44.955  38.721   7.046
 5546POPC   C4B70282   0.102  38.366   7.256
 5547POPC   NC370283   1.561  36.232   5.431
 5547POPC   PO470284   2.314  36.166   5.400
 5547POPC   GL170285   2.185  36.047   5.813
 5547POPC   GL270286   1.930  35.782   5.799
 5547POPC   C1A70287   2.080  36.156   6.246
 5547POPC   D2A70288   2.044  36.356   6.645
 5547POPC   C3A70289   2.201  36.176   7.052
 5547POPC   C4A70290   2.076  36.382   7.456
 5547POPC   C1B70291   1.703  35.795   6.196
 5547POPC   C2B70292   1.675  35.987   6.624
 5547POPC   C3B70293   1.771  35.876   7.065
 5547POPC   C4B70294   1.460  35.772   7.373
 5548POPC   NC370295  11.603  36.581   5.547
 5548POPC   PO470296  11.421  37.198   5.402
 5548POPC   GL170297  11.158  37.113   5.777
 5548POPC   GL270298  11.299  36.824   5.905
 5548POPC   C1A70299  11.299  37.226   6.224
 5548POPC   D2A70300  11.519  37.169   6.628
 5548POPC   C3A70301  11.197  37.139   6.982
 5548POPC   C4A70302  11.255  37.072   7.438
 5548POPC   C1B70303  11.344  36.632   6.298
 5548POPC   C2B70304  11.305  36.683   6.725
 5548POPC   C3B70305  11.363  36.656   7.166
 5548POPC   C4B70306  11.107  36.614   7.585
 5549POPC   NC370307  42.676   0.246   5.368
 5549POPC   PO470308  43.372   0.424   5.372
 5549POPC   GL170309  43.035   0.485   5.676
 5549POPC   GL270310  42.928   0.154   5.823
 5549POPC   C1A70311  42.915   0.626   6.107
 5549POPC   D2A70312  42.969   0.340   6.484
 5549POPC   C3A70313  42.859   0.456   6.910
 5549POPC   C4A70314  42.834   0.748   7.225
 5549POPC   C1B70315  43.304   0.278   6.094
 5549POPC   C2B70316  43.478   0.215   6.522
 5549POPC   C3B70317  43.300   0.169   6.904
 5549POPC   C4B70318  43.327   0.486   7.187
 5550POPC   NC370319  14.635  19.741   5.398
 5550POPC   PO470320  14.710  20.211   5.813
 5550POPC   GL170321  14.360  19.869   5.911
 5550POPC   GL270322  14.342  19.507   5.757
 5550POPC   C1A70323  14.216  19.863   6.319
 5550POPC   D2A70324  14.531  20.019   6.643
 5550POPC   C3A70325  14.425  19.901   7.057
 5550POPC   C4A70326  14.030  19.888   7.235
 5550POPC   C1B70327  14.287  19.360   6.211
 5550POPC   C2B70328  14.343  19.518   6.681
 5550POPC   C3B70329  14.378  19.423   7.153
 5550POPC   C4B70330  14.097  19.418   7.514
 5551POPC   NC370331   4.295  30.385   5.163
 5551POPC   PO470332   3.984  29.845   5.442
 5551POPC   GL170333   4.001  29.715   5.853
 5551POPC   GL270334   4.345  29.806   5.846
 5551POPC   C1A70335   4.089  29.788   6.301
 5551POPC   D2A70336   4.319  29.774   6.695
 5551POPC   C3A70337   4.356  30.158   6.934
 5551POPC   C4A70338   4.302  30.244   7.357
 5551POPC   C1B70339   4.584  29.925   6.200
 5551POPC   C2B70340   4.828  29.849   6.537
 5551POPC   C3B70341   4.791  29.851   6.934
 5551POPC   C4B70342   4.629  29.847   7.298
 5552POPC   NC370343   4.295   6.595   5.257
 5552POPC   PO470344   4.083   7.106   5.576
 5552POPC   GL170345   4.118   6.864   5.933
 5552POPC   GL270346   4.224   6.515   5.844
 5552POPC   C1A70347   4.195   6.752   6.337
 5552POPC   D2A70348   3.942   6.693   6.695
 5552POPC   C3A70349   4.219   6.779   7.041
 5552POPC   C4A70350   3.928   6.835   7.347
 5552POPC   C1B70351   4.480   6.351   6.222
 5552POPC   C2B70352   4.336   6.360   6.650
 5552POPC   C3B70353   4.511   6.318   7.024
 5552POPC   C4B70354   4.719   6.487   7.327
 5553POPC   NC370355   3.867  41.074   5.464
 5553POPC   PO470356   3.317  40.664   5.415
 5553POPC   GL170357   3.592  40.735   5.753
 5553POPC   GL270358   3.473  41.031   5.847
 5553POPC   C1A70359   3.640  40.550   6.127
 5553POPC   D2A70360   3.561  40.788   6.496
 5553POPC   C3A70361   3.680  40.651   6.905
 5553POPC   C4A70362   3.684  40.973   7.199
 5553POPC   C1B70363   3.174  40.760   6.094
 5553POPC   C2B70364   3.044  40.727   6.515
 5553POPC   C3B70365   3.222  40.921   6.878
 5553POPC   C4B70366   3.101  41.052   7.260
 5554POPC   NC370367  20.678  14.127   5.463
 5554POPC   PO470368  20.375  13.467   5.392
 5554POPC   GL170369  20.532  13.532   5.774
 5554POPC   GL270370  20.373  13.843   5.787
 5554POPC   C1A70371  20.423  13.361   6.178
 5554POPC   D2A70372  20.693  13.226   6.512
 5554POPC   C3A70373  20.710  13.482   6.894
 5554POPC   C4A70374  20.813  13.364   7.317
 5554POPC   C1B70375  20.445  13.905   6.207
 5554POPC   C2B70376  20.330  13.699   6.579
 5554POPC   C3B70377  20.326  13.822   6.984
 5554POPC   C4B70378  20.667  13.860   7.269
 5555POPC   NC370379  19.368   2.574   5.382
 5555POPC   PO470380  18.946   3.043   5.438
 5555POPC   GL170381  19.034   2.745   5.815
 5555POPC   GL270382  19.283   2.438   5.864
 5555POPC   C1A70383  19.044   2.669   6.271
 5555POPC   D2A70384  19.215   2.884   6.628
 5555POPC   C3A70385  19.077   2.819   7.056
 5555POPC   C4A70386  18.892   2.737   7.467
 5555POPC   C1B70387  19.298   2.236   6.294
 5555POPC   C2B70388  19.158   2.372   6.749
 5555POPC   C3B70389  19.169   2.333   7.243
 5555POPC   C4B70390  18.950   2.290   7.680
 5556POPC   NC370391  23.669  26.778   5.240
 5556POPC   PO470392  24.280  26.870   5.385
 5556POPC   GL170393  23.924  26.867   5.731
 5556POPC   GL270394  23.555  26.780   5.746
 5556POPC   C1A70395  23.723  27.061   6.147
 5556POPC   D2A70396  23.825  26.920   6.578
 5556POPC   C3A70397  23.637  27.033   6.957
 5556POPC   C4A70398  23.387  26.837   7.249
 5556POPC   C1B70399  23.705  26.562   6.148
 5556POPC   C2B70400  23.526  26.471   6.547
 5556POPC   C3B70401  23.616  26.480   6.968
 5556POPC   C4B70402  23.879  26.690   7.282
 5557POPC   NC370403   3.488  25.154   5.233
 5557POPC   PO470404   4.100  25.372   5.387
 5557POPC   GL170405   3.671  25.284   5.700
 5557POPC   GL270406   3.567  24.937   5.801
 5557POPC   C1A70407   3.502  25.284   6.177
 5557POPC   D2A70408   3.431  25.460   6.621
 5557POPC   C3A70409   3.777  25.460   6.935
 5557POPC   C4A70410   3.838  25.205   7.336
 5557POPC   C1B70411   3.759  24.838   6.199
 5557POPC   C2B70412   3.574  24.949   6.602
 5557POPC   C3B70413   3.421  25.103   7.002
 5557POPC   C4B70414   3.383  24.997   7.439
 5558POPC   NC370415  26.292  22.593   5.647
 5558POPC   PO470416  25.733  22.296   5.532
 5558POPC   GL170417  25.966  22.268   5.902
 5558POPC   GL270418  26.295  22.109   5.818
 5558POPC   C1A70419  25.840  22.250   6.328
 5558POPC   D2A70420  25.982  22.018   6.670
 5558POPC   C3A70421  25.998  22.218   7.051
 5558POPC   C4A70422  25.799  22.335   7.401
 5558POPC   C1B70423  26.324  22.009   6.259
 5558POPC   C2B70424  26.403  21.729   6.632
 5558POPC   C3B70425  26.279  21.799   7.091
 5558POPC   C4B70426  26.202  22.046   7.526
 5559POPC   NC370427  18.070  21.254   5.090
 5559POPC   PO470428  17.582  21.532   5.429
 5559POPC   GL170429  17.510  21.241   5.743
 5559POPC   GL270430  17.846  21.225   5.889
 5559POPC   C1A70431  17.442  21.334   6.186
 5559POPC   D2A70432  17.471  21.156   6.582
 5559POPC   C3A70433  17.296  21.330   6.965
 5559POPC   C4A70434  17.462  21.456   7.372
 5559POPC   C1B70435  17.916  21.034   6.279
 5559POPC   C2B70436  17.912  20.919   6.704
 5559POPC   C3B70437  17.809  21.222   7.000
 5559POPC   C4B70438  17.989  21.282   7.397
 5560POPC   NC370439   7.044  17.118   5.718
 5560POPC   PO470440   7.569  17.453   5.320
 5560POPC   GL170441   7.463  17.374   5.773
 5560POPC   GL270442   7.607  17.075   5.783
 5560POPC   C1A70443   7.269  17.520   6.203
 5560POPC   D2A70444   7.509  17.658   6.564
 5560POPC   C3A70445   7.455  17.501   7.003
 5560POPC   C4A70446   7.691  17.488   7.412
 5560POPC   C1B70447   7.725  17.273   6.187
 5560POPC   C2B70448   7.874  17.305   6.596
 5560POPC   C3B70449   7.762  17.103   6.953
 5560POPC   C4B70450   7.935  17.029   7.311
 5561POPC   NC370451  19.060  13.334   5.575
 5561POPC   PO470452  19.523  13.826   5.382
 5561POPC   GL170453  19.216  13.816   5.726
 5561POPC   GL270454  18.855  13.929   5.712
 5561POPC   C1A70455  19.055  13.685   6.140
 5561POPC   D2A70456  19.093  13.548   6.576
 5561POPC   C3A70457  19.347  13.670   6.927
 5561POPC   C4A70458  19.293  13.360   7.240
 5561POPC   C1B70459  18.660  13.996   6.181
 5561POPC   C2B70460  18.610  13.777   6.603
 5561POPC   C3B70461  18.811  13.677   7.022
 5561POPC   C4B70462  18.771  13.993   7.333
 5562POPC   NC370463  30.801   1.435   5.465
 5562POPC   PO470464  30.520   0.872   5.464
 5562POPC   GL170465  30.676   1.105   5.829
 5562POPC   GL270466  30.871   0.937   6.061
 5562POPC   C1A70467  30.579   1.344   6.198
 5562POPC   D2A70468  30.337   1.170   6.521
 5562POPC   C3A70469  30.461   1.202   6.946
 5562POPC   C4A70470  30.783   0.994   7.167
 5562POPC   C1B70471  31.088   1.328   6.124
 5562POPC   C2B70472  31.017   1.486   6.469
 5562POPC   C3B70473  30.989   1.328   6.848
 5562POPC   C4B70474  31.064   1.472   7.234
 5563POPC   NC370475   8.790   1.549   5.482
 5563POPC   PO470476   9.215   1.054   5.518
 5563POPC   GL170477   9.129   1.302   5.910
 5563POPC   GL270478   8.990   1.655   5.960
 5563POPC   C1A70479   9.096   1.259   6.363
 5563POPC   D2A70480   8.886   0.991   6.702
 5563POPC   C3A70481   8.910   1.158   7.118
 5563POPC   C4A70482   9.297   1.220   7.301
 5563POPC   C1B70483   8.862   1.744   6.361
 5563POPC   C2B70484   8.901   1.563   6.763
 5563POPC   C3B70485   8.724   1.630   7.157
 5563POPC   C4B70486   8.837   1.459   7.558
 5564POPC   NC370487  22.866  21.306   5.264
 5564POPC   PO470488  22.659  21.939   5.478
 5564POPC   GL170489  22.785  21.607   5.820
 5564POPC   GL270490  22.811  21.208   5.758
 5564POPC   C1A70491  22.957  21.570   6.251
 5564POPC   D2A70492  23.316  21.684   6.534
 5564POPC   C3A70493  23.162  21.723   6.966
 5564POPC   C4A70494  23.033  21.533   7.341
 5564POPC   C1B70495  22.814  21.055   6.166
 5564POPC   C2B70496  22.728  21.219   6.552
 5564POPC   C3B70497  22.899  21.243   6.931
 5564POPC   C4B70498  22.734  21.100   7.293
 5565POPC   NC370499   0.093  44.161   5.620
 5565POPC   PO470500  44.423  44.116   5.439
 5565POPC   GL170501  44.608  44.052   5.868
 5565POPC   GL270502  44.897  43.797   5.954
 5565POPC   C1A70503  44.456  43.789   6.230
 5565POPC   D2A70504  44.205  43.802   6.606
 5565POPC   C3A70505  44.375  43.862   7.039
 5565POPC   C4A70506  44.572  43.574   7.376
 5565POPC   C1B70507  44.882  44.076   6.294
 5565POPC   C2B70508  44.713  43.972   6.665
 5565POPC   C3B70509  44.892  43.780   7.042
 5565POPC   C4B70510  44.807  44.045   7.393
 5566POPC   NC370511  36.378  27.146   5.042
 5566POPC   PO470512  36.123  26.721   5.492
 5566POPC   GL170513  36.155  26.916   5.908
 5566POPC   GL270514  36.480  26.773   6.016
 5566POPC   C1A70515  36.084  26.858   6.345
 5566POPC   D2A70516  35.922  26.546   6.641
 5566POPC   C3A70517  36.119  26.647   7.009
 5566POPC   C4A70518  36.039  27.039   7.209
 5566POPC   C1B70519  36.502  27.167   6.283
 5566POPC   C2B70520  36.492  27.208   6.757
 5566POPC   C3B70521  36.559  26.902   7.109
 5566POPC   C4B70522  36.476  26.494   7.352
 5567POPC   NC370523  16.443  36.751   5.349
 5567POPC   PO470524  17.009  37.043   5.610
 5567POPC   GL170525  16.965  36.835   5.962
 5567POPC   GL270526  16.611  36.865   5.921
 5567POPC   C1A70527  16.888  36.832   6.377
 5567POPC   D2A70528  16.639  36.991   6.704
 5567POPC   C3A70529  16.852  36.983   7.059
 5567POPC   C4A70530  17.169  36.707   7.085
 5567POPC   C1B70531  16.358  36.960   6.270
 5567POPC   C2B70532  16.245  37.286   6.592
 5567POPC   C3B70533  16.280  37.210   7.039
 5567POPC   C4B70534  16.477  37.032   7.381
 5568POPC   NC370535   3.718  37.710   5.422
 5568POPC   PO470536   3.166  37.366   5.392
 5568POPC   GL170537   3.429  37.438   5.767
 5568POPC   GL270538   3.399  37.778   5.884
 5568POPC   C1A70539   3.583  37.342   6.188
 5568POPC   D2A70540   3.463  37.310   6.641
 5568POPC   C3A70541   3.449  37.669   6.926
 5568POPC   C4A70542   3.360  37.804   7.369
 5568POPC   C1B70543   3.436  37.805   6.353
 5568POPC   C2B70544   3.398  38.134   6.687
 5568POPC   C3B70545   3.639  38.124   7.082
 5568POPC   C4B70546   3.950  38.075   7.434
 5569POPC   NC370547  40.499  31.016   5.505
 5569POPC   PO470548  41.077  30.625   5.492
 5569POPC   GL170549  40.977  30.865   5.846
 5569POPC   GL270550  40.620  30.745   5.929
 5569POPC   C1A70551  40.960  30.782   6.298
 5569POPC   D2A70552  40.591  30.681   6.512
 5569POPC   C3A70553  40.651  30.797   6.929
 5569POPC   C4A70554  41.044  30.821   7.147
 5569POPC   C1B70555  40.517  31.132   6.196
 5569POPC   C2B70556  40.478  31.386   6.596
 5569POPC   C3B70557  40.423  31.258   7.028
 5569POPC   C4B70558  40.679  31.112   7.353
 5570POPC   NC370559  27.381  11.621   5.526
 5570POPC   PO470560  27.887  11.101   5.503
 5570POPC   GL170561  27.781  11.158   5.920
 5570POPC   GL270562  27.440  11.232   5.871
 5570POPC   C1A70563  27.700  11.432   6.294
 5570POPC   D2A70564  27.445  11.422   6.670
 5570POPC   C3A70565  27.682  11.244   6.984
 5570POPC   C4A70566  27.911  11.543   7.211
 5570POPC   C1B70567  27.196  11.271   6.250
 5570POPC   C2B70568  27.107  11.053   6.660
 5570POPC   C3B70569  27.183  11.140   7.092
 5570POPC   C4B70570  27.299  10.922   7.462
 5571POPC   NC370571  17.632   8.574   5.040
 5571POPC   PO470572  17.782   8.000   5.289
 5571POPC   GL170573  17.689   8.030   5.734
 5571POPC   GL270574  17.885   7.802   5.890
 5571POPC   C1A70575  17.623   8.199   6.165
 5571POPC   D2A70576  17.781   8.434   6.521
 5571POPC   C3A70577  17.584   8.410   6.918
 5571POPC   C4A70578  17.707   8.321   7.326
 5571POPC   C1B70579  17.772   7.733   6.312
 5571POPC   C2B70580  17.636   7.943   6.656
 5571POPC   C3B70581  17.705   7.896   7.066
 5571POPC   C4B70582  17.670   7.830   7.495
 5572POPC   NC370583  44.400  36.907   5.544
 5572POPC   PO470584  43.839  37.000   5.247
 5572POPC   GL170585  43.905  36.970   5.723
 5572POPC   GL270586  44.162  36.768   5.964
 5572POPC   C1A70587  43.714  36.940   6.153
 5572POPC   D2A70588  43.942  36.788   6.519
 5572POPC   C3A70589  43.742  36.914   6.892
 5572POPC   C4A70590  43.653  36.784   7.309
 5572POPC   C1B70591  44.167  37.191   6.127
 5572POPC   C2B70592  44.059  37.292   6.540
 5572POPC   C3B70593  44.219  37.097   6.923
 5572POPC   C4B70594  43.961  37.225   7.250
 5573POPC   NC370595  38.815   1.338   5.373
 5573POPC   PO470596  39.031   0.734   5.514
 5573POPC   GL170597  39.142   0.958   5.933
 5573POPC   GL270598  39.132   1.288   5.842
 5573POPC   C1A70599  39.352   1.021   6.372
 5573POPC   D2A70600  39.719   1.154   6.653
 5573POPC   C3A70601  39.579   1.091   7.068
 5573POPC   C4A70602  39.112   0.987   7.083
 5573POPC   C1B70603  39.421   1.456   6.143
 5573POPC   C2B70604  39.377   1.532   6.570
 5573POPC   C3B70605  39.223   1.466   6.964
 5573POPC   C4B70606  39.333   1.474   7.399
 5574POPC   NC370607   6.015   6.698   5.352
 5574POPC   PO470608   5.537   6.280   5.204
 5574POPC   GL170609   5.542   6.568   5.642
 5574POPC   GL270610   5.843   6.803   5.809
 5574POPC   C1A70611   5.493   6.650   6.130
 5574POPC   D2A70612   5.732   6.831   6.507
 5574POPC   C3A70613   5.633   6.578   6.893
 5574POPC   C4A70614   5.581   6.632   7.346
 5574POPC   C1B70615   6.111   6.651   6.170
 5574POPC   C2B70616   6.132   6.523   6.639
 5574POPC   C3B70617   6.109   6.637   7.076
 5574POPC   C4B70618   6.026   6.424   7.483
 5575POPC   NC370619  17.692  14.472   5.720
 5575POPC   PO470620  17.281  14.083   5.390
 5575POPC   GL170621  17.326  14.157   5.850
 5575POPC   GL270622  17.672  14.042   6.019
 5575POPC   C1A70623  17.206  14.287   6.265
 5575POPC   D2A70624  17.309  14.203   6.690
 5575POPC   C3A70625  17.252  14.491   7.016
 5575POPC   C4A70626  17.349  14.189   7.309
 5575POPC   C1B70627  17.701  14.389   6.340
 5575POPC   C2B70628  17.664  14.576   6.700
 5575POPC   C3B70629  17.741  14.340   7.027
 5575POPC   C4B70630  17.762  14.571   7.366
 5576POPC   NC370631  22.244   0.682   5.331
 5576POPC   PO470632  22.298   0.056   5.399
 5576POPC   GL170633  22.284   0.372   5.757
 5576POPC   GL270634  21.961   0.579   5.728
 5576POPC   C1A70635  22.374   0.345   6.219
 5576POPC   D2A70636  22.230   0.050   6.567
 5576POPC   C3A70637  21.990   0.219   6.891
 5576POPC   C4A70638  22.209   0.407   7.188
 5576POPC   C1B70639  21.817   0.733   6.101
 5576POPC   C2B70640  21.859   0.693   6.530
 5576POPC   C3B70641  21.862   0.908   6.899
 5576POPC   C4B70642  21.938   0.852   7.334
 5577POPC   NC370643  17.600   5.325   5.294
 5577POPC   PO470644  17.255   4.678   5.300
 5577POPC   GL170645  17.414   4.984   5.672
 5577POPC   GL270646  17.695   4.870   5.875
 5577POPC   C1A70647  17.467   5.213   6.128
 5577POPC   D2A70648  17.315   5.252   6.564
 5577POPC   C3A70649  17.473   5.060   6.956
 5577POPC   C4A70650  17.354   5.367   7.285
 5577POPC   C1B70651  17.926   4.856   6.273
 5577POPC   C2B70652  17.915   4.754   6.715
 5577POPC   C3B70653  17.950   4.894   7.131
 5577POPC   C4B70654  17.847   5.341   7.177
 5578POPC   NC370655  35.802   8.910   5.343
 5578POPC   PO470656  35.079   9.148   5.349
 5578POPC   GL170657  35.266   9.024   5.767
 5578POPC   GL270658  35.492   8.763   5.777
 5578POPC   C1A70659  35.329   9.131   6.209
 5578POPC   D2A70660  35.370   9.030   6.661
 5578POPC   C3A70661  35.668   9.228   6.995
 5578POPC   C4A70662  35.676   9.263   7.518
 5578POPC   C1B70663  35.400   8.597   6.233
 5578POPC   C2B70664  35.454   8.516   6.706
 5578POPC   C3B70665  35.389   8.781   7.101
 5578POPC   C4B70666  35.106   8.683   7.441
 5579POPC   NC370667  11.366  12.398   5.475
 5579POPC   PO470668  11.032  11.805   5.449
 5579POPC   GL170669  11.242  12.007   5.825
 5579POPC   GL270670  11.099  12.320   5.898
 5579POPC   C1A70671  11.375  12.090   6.271
 5579POPC   D2A70672  11.233  12.028   6.715
 5579POPC   C3A70673  11.505  11.867   7.061
 5579POPC   C4A70674  11.573  11.562   7.372
 5579POPC   C1B70675  10.875  12.213   6.290
 5579POPC   C2B70676  10.830  12.333   6.730
 5579POPC   C3B70677  10.969  12.211   7.154
 5579POPC   C4B70678  10.931  12.284   7.612
 5580POPC   NC370679  40.837   9.204   5.410
 5580POPC   PO470680  40.648   8.477   5.378
 5580POPC   GL170681  40.774   8.786   5.730
 5580POPC   GL270682  40.923   8.538   5.868
 5580POPC   C1A70683  40.838   8.859   6.235
 5580POPC   D2A70684  40.819   9.180   6.553
 5580POPC   C3A70685  41.013   9.225   6.923
 5580POPC   C4A70686  40.793   9.128   7.265
 5580POPC   C1B70687  40.581   8.440   6.090
 5580POPC   C2B70688  40.650   8.437   6.532
 5580POPC   C3B70689  40.813   8.723   6.858
 5580POPC   C4B70690  40.665   8.631   7.270
 5581POPC   NC370691  40.120  16.377   5.394
 5581POPC   PO470692  39.662  15.894   5.419
 5581POPC   GL170693  39.910  15.755   5.778
 5581POPC   GL270694  40.065  16.078   5.826
 5581POPC   C1A70695  40.017  15.728   6.213
 5581POPC   D2A70696  40.000  15.925   6.635
 5581POPC   C3A70697  40.005  15.727   7.032
 5581POPC   C4A70698  40.343  15.743   7.338
 5581POPC   C1B70699  40.026  16.264   6.240
 5581POPC   C2B70700  40.145  16.430   6.638
 5581POPC   C3B70701  40.204  16.241   7.046
 5581POPC   C4B70702  39.991  16.090   7.398
 5582POPC   NC370703  37.487   8.657   5.523
 5582POPC   PO470704  37.617   9.338   5.450
 5582POPC   GL170705  37.807   9.186   5.830
 5582POPC   GL270706  37.877   8.807   5.827
 5582POPC   C1A70707  37.699   9.309   6.259
 5582POPC   D2A70708  37.289   9.300   6.511
 5582POPC   C3A70709  37.333   9.037   6.879
 5582POPC   C4A70710  37.673   9.036   7.190
 5582POPC   C1B70711  37.600   8.812   6.185
 5582POPC   C2B70712  37.734   8.888   6.598
 5582POPC   C3B70713  37.803   8.600   6.935
 5582POPC   C4B70714  37.572   8.560   7.323
 5583POPC   NC370715  39.589  28.704   5.343
 5583POPC   PO470716  39.965  29.331   5.452
 5583POPC   GL170717  40.057  29.232   5.877
 5583POPC   GL270718  40.144  28.884   5.790
 5583POPC   C1A70719  40.083  29.127   6.309
 5583POPC   D2A70720  40.319  29.210   6.656
 5583POPC   C3A70721  40.146  29.334   7.039
 5583POPC   C4A70722  39.841  29.004   7.129
 5583POPC   C1B70723  39.801  28.775   6.059
 5583POPC   C2B70724  39.763  28.743   6.508
 5583POPC   C3B70725  39.561  28.597   6.898
 5583POPC   C4B70726  39.465  28.596   7.339
 5584POPC   NC370727  30.780  20.505   5.389
 5584POPC   PO470728  30.454  21.030   5.567
 5584POPC   GL170729  30.661  20.722   5.870
 5584POPC   GL270730  30.624  20.339   5.846
 5584POPC   C1A70731  30.636  20.572   6.308
 5584POPC   D2A70732  30.408  20.618   6.679
 5584POPC   C3A70733  30.538  20.557   7.120
 5584POPC   C4A70734  30.491  20.264   7.462
 5584POPC   C1B70735  31.049  20.375   6.042
 5584POPC   C2B70736  31.086  20.375   6.477
 5584POPC   C3B70737  30.963  20.356   6.891
 5584POPC   C4B70738  31.081  20.682   7.180
 5585POPC   NC370739  22.455  32.597   5.642
 5585POPC   PO470740  22.162  33.120   5.250
 5585POPC   GL170741  22.239  33.143   5.758
 5585POPC   GL270742  22.577  33.128   5.990
 5585POPC   C1A70743  22.096  33.171   6.216
 5585POPC   D2A70744  22.216  33.017   6.627
 5585POPC   C3A70745  22.056  33.090   7.018
 5585POPC   C4A70746  22.015  32.806   7.398
 5585POPC   C1B70747  22.517  32.766   6.287
 5585POPC   C2B70748  22.567  32.657   6.720
 5585POPC   C3B70749  22.480  32.833   7.123
 5585POPC   C4B70750  22.501  32.865   7.575
 5586POPC   NC370751  30.891  14.800   5.469
 5586POPC   PO470752  30.633  14.115   5.472
 5586POPC   GL170753  30.623  14.431   5.774
 5586POPC   GL270754  30.375  14.710   5.662
 5586POPC   C1A70755  30.820  14.392   6.205
 5586POPC   D2A70756  30.670  14.166   6.630
 5586POPC   C3A70757  30.818  14.343   7.053
 5586POPC   C4A70758  31.030  14.472   7.448
 5586POPC   C1B70759  30.431  14.723   6.143
 5586POPC   C2B70760  30.638  14.671   6.571
 5586POPC   C3B70761  30.674  14.855   6.961
 5586POPC   C4B70762  30.849  14.922   7.346
 5587POPC   NC370763  32.809  34.286   5.434
 5587POPC   PO470764  33.263  34.640   5.151
 5587POPC   GL170765  33.049  34.677   5.668
 5587POPC   GL270766  33.107  34.307   5.851
 5587POPC   C1A70767  33.019  34.667   6.178
 5587POPC   D2A70768  32.839  34.778   6.587
 5587POPC   C3A70769  33.087  34.731   6.962
 5587POPC   C4A70770  33.221  34.988   7.293
 5587POPC   C1B70771  33.046  34.135   6.276
 5587POPC   C2B70772  32.957  34.192   6.724
 5587POPC   C3B70773  32.750  34.365   7.084
 5587POPC   C4B70774  32.738  34.223   7.516
 5588POPC   NC370775   9.225  36.478   5.433
 5588POPC   PO470776   9.067  35.825   5.514
 5588POPC   GL170777   8.961  36.083   5.896
 5588POPC   GL270778   9.270  36.266   5.925
 5588POPC   C1A70779   8.818  36.221   6.352
 5588POPC   D2A70780   8.569  36.303   6.752
 5588POPC   C3A70781   8.800  36.143   7.126
 5588POPC   C4A70782   9.126  36.250   7.453
 5588POPC   C1B70783   9.269  35.991   6.306
 5588POPC   C2B70784   9.141  36.033   6.752
 5588POPC   C3B70785   9.267  35.868   7.157
 5588POPC   C4B70786   9.230  35.735   7.592
 5589POPC   NC370787  29.739  26.918   5.613
 5589POPC   PO470788  30.111  26.652   5.093
 5589POPC   GL170789  30.078  26.539   5.648
 5589POPC   GL270790  29.756  26.614   5.980
 5589POPC   C1A70791  30.200  26.551   6.137
 5589POPC   D2A70792  30.047  26.812   6.517
 5589POPC   C3A70793  30.070  26.900   6.979
 5589POPC   C4A70794  30.062  26.731   7.414
 5589POPC   C1B70795  29.668  27.018   6.246
 5589POPC   C2B70796  29.659  27.175   6.692
 5589POPC   C3B70797  29.711  27.419   7.092
 5589POPC   C4B70798  29.687  27.448   7.558
 5590POPC   NC370799  16.931  37.495   5.545
 5590POPC   PO470800  16.387  37.805   5.426
 5590POPC   GL170801  16.531  37.640   5.819
 5590POPC   GL270802  16.372  37.319   5.856
 5590POPC   C1A70803  16.761  37.835   6.180
 5590POPC   D2A70804  16.976  37.994   6.560
 5590POPC   C3A70805  16.752  37.967   6.966
 5590POPC   C4A70806  16.623  38.029   7.366
 5590POPC   C1B70807  16.722  37.307   6.175
 5590POPC   C2B70808  16.875  37.453   6.543
 5590POPC   C3B70809  16.714  37.464   6.932
 5590POPC   C4B70810  16.838  37.419   7.334
 5591POPC   NC370811   2.355  35.627   5.496
 5591POPC   PO470812   1.755  35.348   5.538
 5591POPC   GL170813   1.916  35.257   5.925
 5591POPC   GL270814   2.261  35.299   5.944
 5591POPC   C1A70815   1.895  35.252   6.349
 5591POPC   D2A70816   2.018  35.045   6.713
 5591POPC   C3A70817   1.850  35.364   6.939
 5591POPC   C4A70818   1.564  35.306   7.238
 5591POPC   C1B70819   2.227  35.658   6.217
 5591POPC   C2B70820   2.158  35.815   6.656
 5591POPC   C3B70821   2.274  35.640   7.054
 5591POPC   C4B70822   2.285  35.174   7.171
 5592POPC   NC370823  36.328  40.199   5.074
 5592POPC   PO470824  36.345  39.503   5.383
 5592POPC   GL170825  36.222  39.810   5.727
 5592POPC   GL270826  35.916  40.009   5.691
 5592POPC   C1A70827  36.304  40.046   6.121
 5592POPC   D2A70828  36.451  39.915   6.531
 5592POPC   C3A70829  36.286  40.144   6.871
 5592POPC   C4A70830  36.232  40.200   7.300
 5592POPC   C1B70831  35.826  39.874   6.095
 5592POPC   C2B70832  35.896  39.964   6.519
 5592POPC   C3B70833  35.809  39.902   6.943
 5592POPC   C4B70834  35.836  39.829   7.350
 5593POPC   NC370835  15.124  34.917   5.539
 5593POPC   PO470836  15.402  35.620   5.394
 5593POPC   GL170837  15.248  35.373   5.737
 5593POPC   GL270838  15.491  35.124   5.835
 5593POPC   C1A70839  14.946  35.405   6.087
 5593POPC   D2A70840  14.823  35.496   6.508
 5593POPC   C3A70841  15.141  35.500   6.768
 5593POPC   C4A70842  15.148  35.515   7.181
 5593POPC   C1B70843  15.390  35.139   6.247
 5593POPC   C2B70844  15.576  35.253   6.610
 5593POPC   C3B70845  15.434  35.114   6.995
 5593POPC   C4B70846  15.565  35.211   7.378
 5594POPC   NC370847  27.283   5.468   5.288
 5594POPC   PO470848  27.760   4.944   5.366
 5594POPC   GL170849  27.633   4.850   5.790
 5594POPC   GL270850  27.574   5.203   5.833
 5594POPC   C1A70851  27.758   4.916   6.235
 5594POPC   D2A70852  27.949   5.154   6.558
 5594POPC   C3A70853  27.664   5.108   6.859
 5594POPC   C4A70854  27.598   5.120   7.257
 5594POPC   C1B70855  27.260   5.414   6.110
 5594POPC   C2B70856  27.034   5.299   6.481
 5594POPC   C3B70857  27.173   5.234   6.888
 5594POPC   C4B70858  27.178   5.400   7.294
 5595POPC   NC370859   8.926  39.069   5.309
 5595POPC   PO470860   9.277  39.551   5.430
 5595POPC   GL170861   8.967  39.370   5.751
 5595POPC   GL270862   8.906  38.994   5.833
 5595POPC   C1A70863   8.871  39.379   6.189
 5595POPC   D2A70864   8.909  39.123   6.557
 5595POPC   C3A70865   8.863  39.297   6.952
 5595POPC   C4A70866   8.578  39.219   7.286
 5595POPC   C1B70867   9.283  39.081   6.110
 5595POPC   C2B70868   9.422  39.103   6.557
 5595POPC   C3B70869   9.336  39.043   6.986
 5595POPC   C4B70870   9.054  39.027   7.349
 5596POPC   NC370871  33.955   4.551   5.500
 5596POPC   PO470872  33.469   4.110   5.580
 5596POPC   GL170873  33.818   4.176   5.894
 5596POPC   GL270874  33.714   4.533   5.935
 5596POPC   C1A70875  34.017   4.006   6.318
 5596POPC   D2A70876  34.018   4.044   6.788
 5596POPC   C3A70877  33.832   4.159   7.180
 5596POPC   C4A70878  34.053   4.275   7.605
 5596POPC   C1B70879  33.712   4.419   6.352
 5596POPC   C2B70880  33.822   4.548   6.741
 5596POPC   C3B70881  34.010   4.628   7.106
 5596POPC   C4B70882  33.657   4.610   7.327
 5597POPC   NC370883  21.845  37.424   5.417
 5597POPC   PO470884  22.147  37.970   5.501
 5597POPC   GL170885  22.140  37.627   5.818
 5597POPC   GL270886  21.865  37.422   5.902
 5597POPC   C1A70887  22.217  37.439   6.249
 5597POPC   D2A70888  22.420  37.372   6.636
 5597POPC   C3A70889  22.212  37.517   7.001
 5597POPC   C4A70890  22.185  37.873   7.308
 5597POPC   C1B70891  21.725  37.284   6.262
 5597POPC   C2B70892  21.900  37.180   6.635
 5597POPC   C3B70893  21.744  37.244   7.006
 5597POPC   C4B70894  21.817  37.508   7.311
 5598POPC   NC370895   3.806  12.704   5.467
 5598POPC   PO470896   3.214  13.018   5.330
 5598POPC   GL170897   3.331  12.949   5.751
 5598POPC   GL270898   3.612  13.111   5.783
 5598POPC   C1A70899   3.509  12.660   6.085
 5598POPC   D2A70900   3.667  12.479   6.482
 5598POPC   C3A70901   3.437  12.612   6.840
 5598POPC   C4A70902   3.586  12.788   7.200
 5598POPC   C1B70903   3.458  13.181   6.197
 5598POPC   C2B70904   3.234  12.966   6.509
 5598POPC   C3B70905   3.206  13.062   6.935
 5598POPC   C4B70906   3.241  13.139   7.376
 5599POPC   NC370907  32.524  24.653   5.504
 5599POPC   PO470908  31.931  24.373   5.463
 5599POPC   GL170909  32.197  24.400   5.827
 5599POPC   GL270910  32.232  24.768   5.892
 5599POPC   C1A70911  32.307  24.437   6.263
 5599POPC   D2A70912  32.305  24.242   6.621
 5599POPC   C3A70913  32.363  24.482   6.991
 5599POPC   C4A70914  32.618  24.248   7.245
 5599POPC   C1B70915  31.958  24.800   6.211
 5599POPC   C2B70916  31.938  24.618   6.620
 5599POPC   C3B70917  31.973  24.840   7.002
 5599POPC   C4B70918  31.889  24.736   7.409
 5600POPC   NC370919  21.831  36.651   5.416
 5600POPC   PO470920  22.277  37.208   5.492
 5600POPC   GL170921  22.222  37.028   5.862
 5600POPC   GL270922  22.187  36.644   5.832
 5600POPC   C1A70923  22.108  36.921   6.256
 5600POPC   D2A70924  22.331  36.859   6.638
 5600POPC   C3A70925  22.081  36.834   6.976
 5600POPC   C4A70926  22.052  37.049   7.366
 5600POPC   C1B70927  22.435  36.514   6.229
 5600POPC   C2B70928  22.531  36.373   6.665
 5600POPC   C3B70929  22.531  36.567   7.084
 5600POPC   C4B70930  22.622  36.455   7.514
 5601POPC   NC370931  28.981  40.896   5.308
 5601POPC   PO470932  29.379  40.435   5.455
 5601POPC   GL170933  29.101  40.636   5.802
 5601POPC   GL270934  29.062  40.988   5.796
 5601POPC   C1A70935  29.225  40.817   6.245
 5601POPC   D2A70936  29.355  40.646   6.662
 5601POPC   C3A70937  29.166  40.663   7.051
 5601POPC   C4A70938  29.444  41.016   7.166
 5601POPC   C1B70939  28.895  41.188   6.161
 5601POPC   C2B70940  29.072  41.190   6.571
 5601POPC   C3B70941  28.988  41.124   6.975
 5601POPC   C4B70942  28.989  40.988   7.414
 5602POPC   NC370943  24.235   7.050   5.652
 5602POPC   PO470944  24.746   7.433   5.643
 5602POPC   GL170945  24.386   7.453   5.919
 5602POPC   GL270946  24.633   7.304   6.122
 5602POPC   C1A70947  24.192   7.318   6.324
 5602POPC   D2A70948  24.503   7.293   6.679
 5602POPC   C3A70949  24.287   7.204   7.075
 5602POPC   C4A70950  24.073   7.471   7.404
 5602POPC   C1B70951  24.890   7.547   6.371
 5602POPC   C2B70952  24.950   7.688   6.779
 5602POPC   C3B70953  24.616   7.639   7.065
 5602POPC   C4B70954  24.608   7.425   7.425
 5603POPC   NC370955  13.210  36.697   5.368
 5603POPC   PO470956  13.815  36.868   5.253
 5603POPC   GL170957  13.808  36.768   5.716
 5603POPC   GL270958  13.475  36.860   5.809
 5603POPC   C1A70959  13.841  36.931   6.168
 5603POPC   D2A70960  13.600  36.992   6.551
 5603POPC   C3A70961  13.800  36.866   6.923
 5603POPC   C4A70962  13.704  37.160   7.205
 5603POPC   C1B70963  13.364  36.691   6.206
 5603POPC   C2B70964  13.058  36.805   6.505
 5603POPC   C3B70965  13.203  36.944   6.887
 5603POPC   C4B70966  13.373  36.594   7.041
 5604POPC   NC370967  29.035  21.546   5.390
 5604POPC   PO470968  29.465  21.019   5.418
 5604POPC   GL170969  29.391  21.285   5.815
 5604POPC   GL270970  29.143  21.603   5.882
 5604POPC   C1A70971  29.248  21.180   6.236
 5604POPC   D2A70972  28.925  21.306   6.513
 5604POPC   C3A70973  29.022  21.215   6.950
 5604POPC   C4A70974  28.799  20.960   7.260
 5604POPC   C1B70975  29.228  21.712   6.305
 5604POPC   C2B70976  29.305  21.901   6.689
 5604POPC   C3B70977  29.501  21.960   7.078
 5604POPC   C4B70978  29.430  21.568   7.239
 5605POPC   NC370979  43.875   7.750   5.415
 5605POPC   PO470980  43.615   7.115   5.406
 5605POPC   GL170981  43.703   7.466   5.798
 5605POPC   GL270982  44.026   7.529   5.929
 5605POPC   C1A70983  43.689   7.316   6.242
 5605POPC   D2A70984  43.412   7.194   6.606
 5605POPC   C3A70985  43.660   7.085   6.964
 5605POPC   C4A70986  43.860   7.207   7.343
 5605POPC   C1B70987  44.193   7.439   6.344
 5605POPC   C2B70988  44.114   7.246   6.752
 5605POPC   C3B70989  44.328   7.307   7.129
 5605POPC   C4B70990  44.565   7.673   7.130
 5606POPC   NC370991  27.379  36.767   5.208
 5606POPC   PO470992  26.939  37.028   5.648
 5606POPC   GL170993  26.634  36.926   5.944
 5606POPC   GL270994  26.390  36.759   5.742
 5606POPC   C1A70995  26.635  36.895   6.404
 5606POPC   D2A70996  26.413  37.049   6.741
 5606POPC   C3A70997  26.673  37.046   7.076
 5606POPC   C4A70998  26.955  36.987   7.378
 5606POPC   C1B70999  26.242  36.663   6.174
 5606POPC   C2B71000  26.272  36.566   6.638
 5606POPC   C3B71001  26.295  36.702   7.105
 5606POPC   C4B71002  26.575  36.477   7.415
 5607POPC   NC371003  19.997   9.729   5.324
 5607POPC   PO471004  19.421   9.883   5.630
 5607POPC   GL171005  19.735   9.790   5.923
 5607POPC   GL271006  20.098   9.797   5.813
 5607POPC   C1A71007  19.631   9.631   6.337
 5607POPC   D2A71008  19.560   9.404   6.724
 5607POPC   C3A71009  19.541   9.762   6.985
 5607POPC   C4A71010  19.686  10.044   7.311
 5607POPC   C1B71011  20.149   9.665   6.241
 5607POPC   C2B71012  20.046   9.549   6.679
 5607POPC   C3B71013  20.060   9.705   7.105
 5607POPC   C4B71014  20.195  10.116   7.247
 5608POPC   NC371015  42.516  33.770   5.497
 5608POPC   PO471016  42.160  34.271   5.257
 5608POPC   GL171017  42.063  34.004   5.666
 5608POPC   GL271018  42.138  33.649   5.821
 5608POPC   C1A71019  42.004  34.028   6.145
 5608POPC   D2A71020  42.121  33.758   6.540
 5608POPC   C3A71021  42.146  33.919   6.993
 5608POPC   C4A71022  42.031  33.803   7.424
 5608POPC   C1B71023  42.468  33.767   6.139
 5608POPC   C2B71024  42.642  33.842   6.538
 5608POPC   C3B71025  42.599  33.673   6.910
 5608POPC   C4B71026  42.690  33.844   7.294
 5609POPC   NC371027   8.447  25.553   5.467
 5609POPC   PO471028   7.941  25.154   5.354
 5609POPC   GL171029   8.048  25.072   5.819
 5609POPC   GL271030   8.395  24.966   5.971
 5609POPC   C1A71031   8.027  25.248   6.262
 5609POPC   D2A71032   8.084  25.108   6.687
 5609POPC   C3A71033   8.066  25.294   7.093
 5609POPC   C4A71034   8.210  25.028   7.439
 5609POPC   C1B71035   8.540  25.345   6.253
 5609POPC   C2B71036   8.525  25.439   6.721
 5609POPC   C3B71037   8.582  25.243   7.117
 5609POPC   C4B71038   8.656  25.205   7.571
 5610POPC   NC371039  18.154  26.468   5.409
 5610POPC   PO471040  18.529  27.019   5.176
 5610POPC   GL171041  18.311  26.946   5.664
 5610POPC   GL271042  17.997  26.941   5.936
 5610POPC   C1A71043  18.450  26.893   6.120
 5610POPC   D2A71044  18.222  26.959   6.508
 5610POPC   C3A71045  18.407  26.752   6.835
 5610POPC   C4A71046  18.394  26.693   7.271
 5610POPC   C1B71047  18.056  26.582   6.211
 5610POPC   C2B71048  18.024  26.428   6.655
 5610POPC   C3B71049  17.918  26.663   7.056
 5610POPC   C4B71050  17.948  26.617   7.521
 5611POPC   NC371051  27.594  38.843   5.428
 5611POPC   PO471052  27.632  38.190   5.389
 5611POPC   GL171053  27.562  38.387   5.807
 5611POPC   GL271054  27.807  38.649   5.852
 5611POPC   C1A71055  27.469  38.363   6.280
 5611POPC   D2A71056  27.681  38.301   6.686
 5611POPC   C3A71057  27.563  38.398   7.095
 5611POPC   C4A71058  27.222  38.131   7.145
 5611POPC   C1B71059  28.015  38.803   6.187
 5611POPC   C2B71060  27.800  38.780   6.580
 5611POPC   C3B71061  27.977  38.708   6.972
 5611POPC   C4B71062  27.854  38.704   7.369
 5612POPC   NC371063  28.447  21.957   5.339
 5612POPC   PO471064  28.300  22.596   5.295
 5612POPC   GL171065  28.453  22.404   5.707
 5612POPC   GL271066  28.425  22.053   5.835
 5612POPC   C1A71067  28.441  22.436   6.175
 5612POPC   D2A71068  28.259  22.372   6.575
 5612POPC   C3A71069  28.578  22.243   6.841
 5612POPC   C4A71070  28.583  22.251   7.280
 5612POPC   C1B71071  28.195  21.892   6.192
 5612POPC   C2B71072  28.281  21.847   6.629
 5612POPC   C3B71073  28.149  22.019   7.022
 5612POPC   C4B71074  28.191  21.994   7.471
 5613POPC   NC371075  32.638  14.141   5.487
 5613POPC   PO471076  33.090  14.601   5.284
 5613POPC   GL171077  33.016  14.464   5.731
 5613POPC   GL271078  32.689  14.559   5.826
 5613POPC   C1A71079  32.963  14.262   6.164
 5613POPC   D2A71080  33.073  14.405   6.576
 5613POPC   C3A71081  33.097  14.167   6.966
 5613POPC   C4A71082  33.197  14.224   7.399
 5613POPC   C1B71083  32.808  14.742   6.250
 5613POPC   C2B71084  32.871  14.861   6.684
 5613POPC   C3B71085  32.919  14.650   7.053
 5613POPC   C4B71086  32.716  14.360   7.235
 5614POPC   NC371087  23.172  31.965   5.446
 5614POPC   PO471088  22.686  32.387   5.289
 5614POPC   GL171089  22.801  32.213   5.718
 5614POPC   GL271090  23.126  32.345   5.810
 5614POPC   C1A71091  22.755  32.294   6.183
 5614POPC   D2A71092  22.942  32.287   6.599
 5614POPC   C3A71093  22.727  32.269   6.995
 5614POPC   C4A71094  22.844  32.544   7.323
 5614POPC   C1B71095  23.303  32.362   6.225
 5614POPC   C2B71096  23.328  32.627   6.611
 5614POPC   C3B71097  23.261  32.423   7.014
 5614POPC   C4B71098  23.084  32.099   7.282
 5615POPC   NC371099  33.373   7.685   5.470
 5615POPC   PO471100  32.964   7.076   5.367
 5615POPC   GL171101  33.170   7.314   5.752
 5615POPC   GL271102  32.938   7.416   5.966
 5615POPC   C1A71103  33.384   7.473   6.156
 5615POPC   D2A71104  33.125   7.501   6.530
 5615POPC   C3A71105  33.204   7.385   6.959
 5615POPC   C4A71106  33.086   7.611   7.345
 5615POPC   C1B71107  33.062   7.063   6.247
 5615POPC   C2B71108  32.856   7.004   6.662
 5615POPC   C3B71109  32.682   7.185   7.036
 5615POPC   C4B71110  32.810   7.177   7.430
 5616POPC   NC371111  44.632  24.107   5.484
 5616POPC   PO471112  44.766  24.738   5.397
 5616POPC   GL171113  44.693  24.537   5.790
 5616POPC   GL271114  44.364  24.649   5.819
 5616POPC   C1A71115  44.910  24.617   6.187
 5616POPC   D2A71116  44.943  24.480   6.600
 5616POPC   C3A71117  44.805  24.620   6.987
 5616POPC   C4A71118  44.910  24.422   7.395
 5616POPC   C1B71119  44.394  24.443   6.249
 5616POPC   C2B71120  44.380  24.498   6.705
 5616POPC   C3B71121  44.279  24.519   7.148
 5616POPC   C4B71122  44.129  24.254   7.454
 5617POPC   NC371123   2.311  13.674   5.703
 5617POPC   PO471124   2.917  13.335   5.820
 5617POPC   GL171125   2.851  13.691   5.921
 5617POPC   GL271126   3.050  13.931   5.699
 5617POPC   C1A71127   2.567  13.818   6.270
 5617POPC   D2A71128   2.463  13.732   6.685
 5617POPC   C3A71129   2.665  13.391   6.825
 5617POPC   C4A71130   2.805  13.280   7.186
 5617POPC   C1B71131   3.057  14.113   6.125
 5617POPC   C2B71132   2.965  13.966   6.553
 5617POPC   C3B71133   2.895  13.858   6.973
 5617POPC   C4B71134   3.099  13.901   7.386
 5618POPC   NC371135  31.290  43.562   5.409
 5618POPC   PO471136  31.195  42.865   5.467
 5618POPC   GL171137  31.431  43.019   5.830
 5618POPC   GL271138  31.752  42.865   5.949
 5618POPC   C1A71139  31.409  43.179   6.261
 5618POPC   D2A71140  31.598  43.065   6.635
 5618POPC   C3A71141  31.316  43.186   6.950
 5618POPC   C4A71142  31.251  42.981   7.364
 5618POPC   C1B71143  31.856  43.319   6.084
 5618POPC   C2B71144  31.898  43.525   6.492
 5618POPC   C3B71145  31.871  43.388   6.934
 5618POPC   C4B71146  31.741  43.022   7.168
 5619POPC   NC371147  28.912  18.810   5.122
 5619POPC   PO471148  29.369  19.277   5.217
 5619POPC   GL171149  29.296  19.052   5.615
 5619POPC   GL271150  28.945  19.106   5.761
 5619POPC   C1A71151  29.362  19.074   6.078
 5619POPC   D2A71152  29.312  18.891   6.492
 5619POPC   C3A71153  29.258  19.139   6.867
 5619POPC   C4A71154  29.292  18.963   7.279
 5619POPC   C1B71155  28.846  18.924   6.189
 5619POPC   C2B71156  28.734  19.053   6.629
 5619POPC   C3B71157  28.790  18.914   7.060
 5619POPC   C4B71158  28.797  18.870   7.502
 5620POPC   NC371159  25.679  33.988   5.371
 5620POPC   PO471160  26.257  33.582   5.299
 5620POPC   GL171161  26.035  33.675   5.705
 5620POPC   GL271162  25.679  33.576   5.711
 5620POPC   C1A71163  25.992  33.566   6.171
 5620POPC   D2A71164  26.039  33.450   6.616
 5620POPC   C3A71165  26.194  33.728   6.923
 5620POPC   C4A71166  26.010  33.741   7.286
 5620POPC   C1B71167  25.633  33.894   6.038
 5620POPC   C2B71168  25.475  33.883   6.488
 5620POPC   C3B71169  25.684  33.917   6.888
 5620POPC   C4B71170  25.642  34.080   7.306
 5621POPC   NC371171   0.512  15.587   5.316
 5621POPC   PO471172   0.118  15.061   5.415
 5621POPC   GL171173   0.311  15.264   5.786
 5621POPC   GL271174   0.634  15.202   5.823
 5621POPC   C1A71175   0.393  15.445   6.220
 5621POPC   D2A71176   0.464  15.311   6.661
 5621POPC   C3A71177   0.316  15.424   7.082
 5621POPC   C4A71178   0.124  15.123   7.421
 5621POPC   C1B71179   0.509  14.945   6.203
 5621POPC   C2B71180   0.692  14.871   6.623
 5621POPC   C3B71181   0.649  15.025   7.048
 5621POPC   C4B71182   0.909  15.343   7.230
 5622POPC   NC371183  11.344  30.256   5.477
 5622POPC   PO471184  11.047  29.673   5.543
 5622POPC   GL171185  11.420  29.825   5.800
 5622POPC   GL271186  11.271  30.105   5.966
 5622POPC   C1A71187  11.600  29.851   6.247
 5622POPC   D2A71188  11.444  30.028   6.630
 5622POPC   C3A71189  11.579  29.941   7.036
 5622POPC   C4A71190  11.379  30.114   7.365
 5622POPC   C1B71191  11.118  29.713   6.196
 5622POPC   C2B71192  10.977  29.780   6.577
 5622POPC   C3B71193  11.040  29.938   6.987
 5622POPC   C4B71194  11.195  29.649   7.289
 5623POPC   NC371195  12.373  42.312   5.618
 5623POPC   PO471196  11.809  42.623   5.388
 5623POPC   GL171197  11.886  42.455   5.782
 5623POPC   GL271198  12.135  42.701   5.816
 5623POPC   C1A71199  11.933  42.182   6.154
 5623POPC   D2A71200  12.000  41.898   6.507
 5623POPC   C3A71201  11.913  42.031   6.908
 5623POPC   C4A71202  11.955  42.189   7.335
 5623POPC   C1B71203  12.290  42.578   6.227
 5623POPC   C2B71204  12.162  42.386   6.587
 5623POPC   C3B71205  12.308  42.324   6.974
 5623POPC   C4B71206  12.369  42.598   7.256
 5624POPC   NC371207   6.855  40.801   5.453
 5624POPC   PO471208   6.214  40.919   5.538
 5624POPC   GL171209   6.368  40.815   5.919
 5624POPC   GL271210   6.668  40.584   5.889
 5624POPC   C1A71211   6.518  40.775   6.348
 5624POPC   D2A71212   6.722  40.437   6.565
 5624POPC   C3A71213   6.587  40.390   7.004
 5624POPC   C4A71214   6.511  40.794   7.173
 5624POPC   C1B71215   7.031  40.679   6.185
 5624POPC   C2B71216   7.215  40.641   6.612
 5624POPC   C3B71217   7.005  40.766   6.997
 5624POPC   C4B71218   6.911  41.078   7.352
 5625POPC   NC371219  39.604  21.973   5.401
 5625POPC   PO471220  40.152  22.509   5.445
 5625POPC   GL171221  39.987  22.248   5.826
 5625POPC   GL271222  39.765  21.934   5.871
 5625POPC   C1A71223  40.073  22.302   6.301
 5625POPC   D2A71224  40.336  22.270   6.701
 5625POPC   C3A71225  40.076  22.216   7.058
 5625POPC   C4A71226  39.667  22.403   6.992
 5625POPC   C1B71227  39.822  21.844   6.288
 5625POPC   C2B71228  39.761  22.010   6.674
 5625POPC   C3B71229  39.701  21.832   7.073
 5625POPC   C4B71230  39.805  21.943   7.496
 5626POPC   NC371231  21.720  30.776   5.391
 5626POPC   PO471232  21.082  31.059   5.343
 5626POPC   GL171233  21.287  30.781   5.690
 5626POPC   GL271234  21.621  30.925   5.847
 5626POPC   C1A71235  21.328  30.575   6.106
 5626POPC   D2A71236  21.218  30.683   6.531
 5626POPC   C3A71237  21.401  30.572   6.891
 5626POPC   C4A71238  21.249  30.687   7.314
 5626POPC   C1B71239  21.791  31.080   6.209
 5626POPC   C2B71240  21.647  30.954   6.595
 5626POPC   C3B71241  21.570  31.020   7.053
 5626POPC   C4B71242  21.743  31.033   7.493
 5627POPC   NC371243  32.925  31.724   5.409
 5627POPC   PO471244  33.427  31.188   5.469
 5627POPC   GL171245  33.095  31.355   5.808
 5627POPC   GL271246  32.985  31.675   5.919
 5627POPC   C1A71247  32.980  31.262   6.250
 5627POPC   D2A71248  33.153  31.370   6.676
 5627POPC   C3A71249  33.236  31.555   7.092
 5627POPC   C4A71250  33.131  31.382   7.521
 5627POPC   C1B71251  32.593  31.582   6.185
 5627POPC   C2B71252  32.602  31.381   6.590
 5627POPC   C3B71253  32.759  31.353   7.002
 5627POPC   C4B71254  32.753  31.663   7.321
 5628POPC   NC371255  22.831  25.387   5.433
 5628POPC   PO471256  23.160  24.783   5.384
 5628POPC   GL171257  22.890  24.927   5.713
 5628POPC   GL271258  23.055  25.164   5.829
 5628POPC   C1A71259  22.662  25.070   6.115
 5628POPC   D2A71260  22.767  25.057   6.558
 5628POPC   C3A71261  22.589  25.397   6.852
 5628POPC   C4A71262  22.702  25.383   7.296
 5628POPC   C1B71263  23.186  25.232   6.252
 5628POPC   C2B71264  23.346  25.133   6.669
 5628POPC   C3B71265  23.412  25.312   7.092
 5628POPC   C4B71266  23.415  25.089   7.478
 5629POPC   NC371267  43.692  33.264   5.414
 5629POPC   PO471268  44.386  32.987   5.465
 5629POPC   GL171269  44.096  33.010   5.823
 5629POPC   GL271270  43.752  33.166   5.925
 5629POPC   C1A71271  44.154  33.024   6.261
 5629POPC   D2A71272  43.914  32.863   6.601
 5629POPC   C3A71273  44.024  32.996   7.005
 5629POPC   C4A71274  44.025  33.309   7.320
 5629POPC   C1B71275  43.598  32.801   6.163
 5629POPC   C2B71276  43.435  32.706   6.588
 5629POPC   C3B71277  43.548  32.818   7.035
 5629POPC   C4B71278  43.695  32.878   7.482
 5630POPC   NC371279  13.100  44.208   5.557
 5630POPC   PO471280  12.882  44.813   5.502
 5630POPC   GL171281  12.816  44.695   5.874
 5630POPC   GL271282  12.701  44.338   5.887
 5630POPC   C1A71283  12.880  44.870   6.295
 5630POPC   D2A71284  12.599  44.911   6.661
 5630POPC   C3A71285  12.782  44.822   7.054
 5630POPC   C4A71286  12.655  44.718   7.486
 5630POPC   C1B71287  13.056  44.384   6.179
 5630POPC   C2B71288  13.168  44.561   6.573
 5630POPC   C3B71289  13.190  44.367   6.939
 5630POPC   C4B71290  12.972  44.393   7.282
 5631POPC   NC371291  41.832  20.852   5.361
 5631POPC   PO471292  42.515  20.647   5.272
 5631POPC   GL171293  42.391  20.690   5.730
 5631POPC   GL271294  42.363  20.302   5.722
 5631POPC   C1A71295  42.484  20.844   6.201
 5631POPC   D2A71296  42.609  20.751   6.656
 5631POPC   C3A71297  42.478  20.983   7.087
 5631POPC   C4A71298  42.407  20.869   7.548
 5631POPC   C1B71299  42.728  20.266   6.012
 5631POPC   C2B71300  42.815  20.235   6.484
 5631POPC   C3B71301  42.773  20.325   6.923
 5631POPC   C4B71302  42.456  20.472   7.224
 5632POPC   NC371303  19.696  40.066   5.274
 5632POPC   PO471304  19.020  39.921   5.356
 5632POPC   GL171305  19.098  39.903   5.796
 5632POPC   GL271306  18.764  40.018   5.824
 5632POPC   C1A71307  19.071  40.080   6.227
 5632POPC   D2A71308  19.104  39.886   6.617
 5632POPC   C3A71309  19.240  40.122   7.001
 5632POPC   C4A71310  19.152  40.017   7.416
 5632POPC   C1B71311  18.553  40.180   6.193
 5632POPC   C2B71312  18.618  40.165   6.625
 5632POPC   C3B71313  18.767  39.952   7.000
 5632POPC   C4B71314  18.779  40.316   7.243
 5633POPC   NC371315  29.416   5.351   5.643
 5633POPC   PO471316  28.707   5.245   5.475
 5633POPC   GL171317  28.952   5.225   5.843
 5633POPC   GL271318  29.199   4.921   5.884
 5633POPC   C1A71319  29.121   5.270   6.252
 5633POPC   D2A71320  28.934   5.013   6.556
 5633POPC   C3A71321  29.110   5.101   6.948
 5633POPC   C4A71322  29.014   5.104   7.383
 5633POPC   C1B71323  29.401   4.829   6.308
 5633POPC   C2B71324  29.248   4.627   6.705
 5633POPC   C3B71325  29.005   4.627   7.098
 5633POPC   C4B71326  29.142   4.647   7.520
 5634POPC   NC371327  11.828  34.504   5.280
 5634POPC   PO471328  12.359  34.911   5.378
 5634POPC   GL171329  12.102  34.679   5.715
 5634POPC   GL271330  11.919  34.339   5.783
 5634POPC   C1A71331  12.018  34.715   6.159
 5634POPC   D2A71332  11.986  34.572   6.591
 5634POPC   C3A71333  12.171  34.829   6.909
 5634POPC   C4A71334  12.012  34.740   7.268
 5634POPC   C1B71335  12.112  34.201   6.218
 5634POPC   C2B71336  12.300  34.148   6.665
 5634POPC   C3B71337  12.150  34.293   7.085
 5634POPC   C4B71338  12.206  34.365   7.555
 5635POPC   NC371339   9.645  21.856   5.531
 5635POPC   PO471340   9.808  22.448   5.366
 5635POPC   GL171341   9.605  22.347   5.781
 5635POPC   GL271342   9.881  22.139   5.886
 5635POPC   C1A71343   9.488  22.194   6.219
 5635POPC   D2A71344   9.633  22.339   6.634
 5635POPC   C3A71345   9.404  22.363   6.998
 5635POPC   C4A71346   9.560  22.004   7.148
 5635POPC   C1B71347   9.968  22.440   6.216
 5635POPC   C2B71348  10.062  22.608   6.614
 5635POPC   C3B71349  10.032  22.464   6.994
 5635POPC   C4B71350   9.858  22.359   7.357
 5636POPC   NC371351  44.950   4.914   5.352
 5636POPC   PO471352  44.462   5.321   5.430
 5636POPC   GL171353  44.602   4.940   5.714
 5636POPC   GL271354  44.410   4.839   5.996
 5636POPC   C1A71355  44.904   4.858   6.067
 5636POPC   D2A71356  44.749   5.069   6.461
 5636POPC   C3A71357  44.786   5.087   6.920
 5636POPC   C4A71358  44.621   4.771   7.188
 5636POPC   C1B71359  44.466   5.304   6.109
 5636POPC   C2B71360  44.515   5.556   6.492
 5636POPC   C3B71361  44.413   5.455   6.906
 5636POPC   C4B71362  44.002   5.364   7.098
 5637POPC   NC371363  13.193  12.373   5.501
 5637POPC   PO471364  13.824  12.165   5.432
 5637POPC   GL171365  13.609  11.986   5.797
 5637POPC   GL271366  13.478  12.285   5.937
 5637POPC   C1A71367  13.779  11.824   6.203
 5637POPC   D2A71368  13.647  11.977   6.609
 5637POPC   C3A71369  13.666  11.720   6.950
 5637POPC   C4A71370  13.653  11.901   7.338
 5637POPC   C1B71371  13.519  12.410   6.385
 5637POPC   C2B71372  13.534  12.482   6.839
 5637POPC   C3B71373  13.637  12.419   7.305
 5637POPC   C4B71374  13.434  12.506   7.735
 5638POPC   NC371375  17.103  10.064   5.528
 5638POPC   PO471376  17.751   9.921   5.571
 5638POPC   GL171377  17.451   9.887   5.856
 5638POPC   GL271378  17.354  10.238   5.966
 5638POPC   C1A71379  17.307   9.786   6.235
 5638POPC   D2A71380  17.143   9.870   6.623
 5638POPC   C3A71381  17.449   9.655   6.853
 5638POPC   C4A71382  17.576   9.722   7.243
 5638POPC   C1B71383  17.731  10.091   6.257
 5638POPC   C2B71384  17.874   9.952   6.707
 5638POPC   C3B71385  17.792  10.157   7.123
 5638POPC   C4B71386  17.471  10.190   7.461
 5639POPC   NC371387  14.452   5.009   5.333
 5639POPC   PO471388  13.780   5.221   5.290
 5639POPC   GL171389  14.060   5.063   5.696
 5639POPC   GL271390  14.374   5.230   5.778
 5639POPC   C1A71391  14.290   4.892   6.128
 5639POPC   D2A71392  14.183   4.717   6.554
 5639POPC   C3A71393  14.233   4.960   6.955
 5639POPC   C4A71394  14.336   4.930   7.376
 5639POPC   C1B71395  14.216   5.396   6.177
 5639POPC   C2B71396  14.361   5.245   6.548
 5639POPC   C3B71397  14.615   5.331   6.902
 5639POPC   C4B71398  14.556   5.393   7.325
 5640POPC   NC371399  11.227  38.088   5.497
 5640POPC   PO471400  11.501  38.720   5.366
 5640POPC   GL171401  11.356  38.513   5.797
 5640POPC   GL271402  11.407  38.151   5.947
 5640POPC   C1A71403  11.458  38.541   6.257
 5640POPC   D2A71404  11.763  38.528   6.563
 5640POPC   C3A71405  11.609  38.338   6.912
 5640POPC   C4A71406  11.598  38.487   7.324
 5640POPC   C1B71407  11.095  38.185   6.259
 5640POPC   C2B71408  11.158  38.424   6.659
 5640POPC   C3B71409  11.126  38.506   7.097
 5640POPC   C4B71410  10.921  38.634   7.445
 5641POPC   NC371411  38.534  15.859   5.375
 5641POPC   PO471412  38.001  15.839   5.698
 5641POPC   GL171413  38.388  15.938   5.880
 5641POPC   GL271414  38.697  15.727   5.904
 5641POPC   C1A71415  38.375  15.888   6.305
 5641POPC   D2A71416  38.165  16.059   6.608
 5641POPC   C3A71417  38.349  15.887   6.932
 5641POPC   C4A71418  38.304  16.137   7.241
 5641POPC   C1B71419  38.803  16.122   6.157
 5641POPC   C2B71420  38.662  16.274   6.585
 5641POPC   C3B71421  38.781  16.275   7.063
 5641POPC   C4B71422  38.713  16.122   7.542
 5642POPC   NC371423  22.318  22.663   5.401
 5642POPC   PO471424  21.977  22.138   5.167
 5642POPC   GL171425  22.161  22.202   5.654
 5642POPC   GL271426  22.304  21.894   5.837
 5642POPC   C1A71427  22.247  22.348   6.120
 5642POPC   D2A71428  22.492  22.400   6.524
 5642POPC   C3A71429  22.241  22.342   6.910
 5642POPC   C4A71430  22.352  22.309   7.338
 5642POPC   C1B71431  22.027  21.856   6.158
 5642POPC   C2B71432  22.146  21.978   6.545
 5642POPC   C3B71433  22.176  21.833   6.946
 5642POPC   C4B71434  21.903  22.041   7.166
 5643POPC   NC371435  24.998  30.194   5.601
 5643POPC   PO471436  25.349  29.699   5.231
 5643POPC   GL171437  25.308  29.784   5.743
 5643POPC   GL271438  25.619  29.880   5.870
 5643POPC   C1A71439  25.098  29.982   6.191
 5643POPC   D2A71440  24.928  30.190   6.598
 5643POPC   C3A71441  25.101  30.131   7.031
 5643POPC   C4A71442  25.208  29.725   7.190
 5643POPC   C1B71443  25.510  29.698   6.242
 5643POPC   C2B71444  25.350  29.793   6.653
 5643POPC   C3B71445  25.599  29.973   6.970
 5643POPC   C4B71446  25.661  29.900   7.392
 5644POPC   NC371447  34.224  16.335   5.549
 5644POPC   PO471448  33.776  15.915   5.352
 5644POPC   GL171449  33.743  15.942   5.803
 5644POPC   GL271450  33.659  16.226   6.000
 5644POPC   C1A71451  33.598  15.770   6.207
 5644POPC   D2A71452  33.904  15.642   6.515
 5644POPC   C3A71453  33.845  15.800   6.936
 5644POPC   C4A71454  34.024  15.941   7.316
 5644POPC   C1B71455  34.065  16.031   6.206
 5644POPC   C2B71456  34.219  16.027   6.656
 5644POPC   C3B71457  34.026  16.312   6.951
 5644POPC   C4B71458  33.661  16.308   7.228
 5645POPC   NC371459  43.295  24.091   5.430
 5645POPC   PO471460  42.907  24.592   5.561
 5645POPC   GL171461  43.132  24.326   5.847
 5645POPC   GL271462  42.874  24.090   5.809
 5645POPC   C1A71463  43.414  24.456   6.172
 5645POPC   D2A71464  43.251  24.704   6.517
 5645POPC   C3A71465  43.385  24.539   6.885
 5645POPC   C4A71466  43.218  24.677   7.240
 5645POPC   C1B71467  42.736  24.317   6.205
 5645POPC   C2B71468  42.651  24.322   6.652
 5645POPC   C3B71469  42.935  24.290   6.984
 5645POPC   C4B71470  43.146  24.178   7.344
 5646POPC   NC371471  23.065   4.067   5.355
 5646POPC   PO471472  22.520   4.346   5.577
 5646POPC   GL171473  22.829   4.409   5.876
 5646POPC   GL271474  23.124   4.181   5.879
 5646POPC   C1A71475  22.651   4.397   6.279
 5646POPC   D2A71476  22.687   4.107   6.617
 5646POPC   C3A71477  23.009   4.136   6.897
 5646POPC   C4A71478  23.148   4.246   7.269
 5646POPC   C1B71479  23.127   4.079   6.324
 5646POPC   C2B71480  23.316   3.818   6.681
 5646POPC   C3B71481  23.535   3.999   7.065
 5646POPC   C4B71482  23.444   3.955   7.555
 5647POPC   NC371483  15.748  40.150   5.716
 5647POPC   PO471484  16.144  39.884   5.195
 5647POPC   GL171485  16.191  39.823   5.632
 5647POPC   GL271486  15.888  39.630   5.760
 5647POPC   C1A71487  16.306  39.906   6.062
 5647POPC   D2A71488  16.057  40.087   6.377
 5647POPC   C3A71489  16.061  40.081   6.839
 5647POPC   C4A71490  15.768  40.300   7.102
 5647POPC   C1B71491  15.924  39.600   6.224
 5647POPC   C2B71492  15.928  39.617   6.668
 5647POPC   C3B71493  15.896  39.649   7.112
 5647POPC   C4B71494  15.691  39.473   7.476
 5648POPC   NC371495  29.098  44.240   5.375
 5648POPC   PO471496  28.971  43.559   5.272
 5648POPC   GL171497  29.283  43.753   5.621
 5648POPC   GL271498  29.399  44.082   5.765
 5648POPC   C1A71499  29.359  43.716   6.105
 5648POPC   D2A71500  29.175  43.936   6.445
 5648POPC   C3A71501  29.238  43.819   6.882
 5648POPC   C4A71502  28.898  43.880   7.154
 5648POPC   C1B71503  29.555  44.211   6.194
 5648POPC   C2B71504  29.393  44.377   6.589
 5648POPC   C3B71505  29.045  44.274   6.848
 5648POPC   C4B71506  29.298  44.237   7.224
 5649POPC   NC371507  31.599  36.421   5.411
 5649POPC   PO471508  31.387  37.030   5.517
 5649POPC   GL171509  31.530  36.761   5.822
 5649POPC   GL271510  31.298  36.444   5.831
 5649POPC   C1A71511  31.755  36.954   6.180
 5649POPC   D2A71512  31.643  37.239   6.512
 5649POPC   C3A71513  31.664  36.986   6.889
 5649POPC   C4A71514  31.429  37.154   7.198
 5649POPC   C1B71515  31.230  36.639   6.253
 5649POPC   C2B71516  31.308  36.535   6.687
 5649POPC   C3B71517  31.206  36.521   7.115
 5649POPC   C4B71518  30.881  36.487   7.425
 5650POPC   NC371519  18.658  25.062   5.586
 5650POPC   PO471520  18.133  25.295   5.163
 5650POPC   GL171521  18.169  25.315   5.627
 5650POPC   GL271522  18.078  24.980   5.624
 5650POPC   C1A71523  18.387  25.402   6.089
 5650POPC   D2A71524  18.400  25.492   6.559
 5650POPC   C3A71525  18.243  25.290   6.922
 5650POPC   C4A71526  18.553  25.363   7.250
 5650POPC   C1B71527  18.009  25.060   6.062
 5650POPC   C2B71528  18.271  25.004   6.450
 5650POPC   C3B71529  18.544  24.902   6.813
 5650POPC   C4B71530  18.424  24.857   7.239
 5651POPC   NC371531  15.949  17.117   5.478
 5651POPC   PO471532  16.275  17.759   5.454
 5651POPC   GL171533  16.111  17.546   5.812
 5651POPC   GL271534  16.451  17.462   5.829
 5651POPC   C1A71535  16.130  17.540   6.284
 5651POPC   D2A71536  15.959  17.346   6.664
 5651POPC   C3A71537  15.835  17.464   7.057
 5651POPC   C4A71538  16.097  17.640   7.381
 5651POPC   C1B71539  16.523  17.832   6.117
 5651POPC   C2B71540  16.412  17.906   6.573
 5651POPC   C3B71541  16.456  17.831   7.029
 5651POPC   C4B71542  16.450  17.994   7.480
 5652POPC   NC371543   4.117  13.654   5.421
 5652POPC   PO471544   4.674  13.932   5.626
 5652POPC   GL171545   4.322  13.822   5.866
 5652POPC   GL271546   4.270  13.446   5.853
 5652POPC   C1A71547   4.219  13.921   6.309
 5652POPC   D2A71548   4.069  13.744   6.705
 5652POPC   C3A71549   4.273  13.845   7.109
 5652POPC   C4A71550   4.133  14.054   7.496
 5652POPC   C1B71551   4.335  13.228   6.231
 5652POPC   C2B71552   4.401  13.351   6.631
 5652POPC   C3B71553   4.181  13.332   7.001
 5652POPC   C4B71554   4.049  12.994   7.238
 5653POPC   NC371555  26.851  44.985   5.295
 5653POPC   PO471556  26.928  44.309   5.334
 5653POPC   GL171557  26.915  44.478   5.764
 5653POPC   GL271558  26.916  44.840   5.810
 5653POPC   C1A71559  26.997  44.395   6.226
 5653POPC   D2A71560  27.164  44.329   6.659
 5653POPC   C3A71561  26.974  44.498   7.069
 5653POPC   C4A71562  26.617  44.505   7.391
 5653POPC   C1B71563  26.748  44.840   6.246
 5653POPC   C2B71564  26.604  44.948   6.677
 5653POPC   C3B71565  26.709  44.969   7.114
 5653POPC   C4B71566  26.940  44.892   7.475
 5654POPC   NC371567  35.462   3.874   5.464
 5654POPC   PO471568  35.330   4.489   5.495
 5654POPC   GL171569  35.342   4.229   5.841
 5654POPC   GL271570  35.697   4.204   5.774
 5654POPC   C1A71571  35.323   4.117   6.281
 5654POPC   D2A71572  35.496   3.897   6.637
 5654POPC   C3A71573  35.221   3.925   6.979
 5654POPC   C4A71574  35.237   4.140   7.392
 5654POPC   C1B71575  35.819   4.248   6.188
 5654POPC   C2B71576  35.677   4.393   6.578
 5654POPC   C3B71577  35.540   4.359   7.006
 5654POPC   C4B71578  35.713   4.339   7.427
 5655POPC   NC371579  39.035  14.780   5.306
 5655POPC   PO471580  38.944  14.103   5.409
 5655POPC   GL171581  39.174  14.257   5.798
 5655POPC   GL271582  39.315  14.574   5.832
 5655POPC   C1A71583  39.197  14.283   6.258
 5655POPC   D2A71584  39.235  14.552   6.638
 5655POPC   C3A71585  39.152  14.383   7.049
 5655POPC   C4A71586  38.869  14.382   7.404
 5655POPC   C1B71587  39.495  14.799   6.206
 5655POPC   C2B71588  39.707  14.768   6.630
 5655POPC   C3B71589  39.521  14.865   7.044
 5655POPC   C4B71590  39.703  14.848   7.505
 5656POPC   NC371591  22.528  42.257   5.519
 5656POPC   PO471592  21.959  42.567   5.381
 5656POPC   GL171593  22.125  42.707   5.826
 5656POPC   GL271594  22.486  42.660   5.890
 5656POPC   C1A71595  22.163  42.678   6.314
 5656POPC   D2A71596  22.346  42.480   6.722
 5656POPC   C3A71597  22.030  42.290   7.025
 5656POPC   C4A71598  22.031  42.318   7.488
 5656POPC   C1B71599  22.426  42.254   6.169
 5656POPC   C2B71600  22.431  41.911   6.486
 5656POPC   C3B71601  22.461  41.957   6.914
 5656POPC   C4B71602  22.234  41.893   7.284
 5657POPC   NC371603  13.795  14.398   5.299
 5657POPC   PO471604  13.157  14.755   5.259
 5657POPC   GL171605  13.432  14.670   5.647
 5657POPC   GL271606  13.393  14.315   5.769
 5657POPC   C1A71607  13.713  14.611   6.030
 5657POPC   D2A71608  13.726  14.657   6.479
 5657POPC   C3A71609  13.860  14.490   6.880
 5657POPC   C4A71610  14.064  14.127   7.054
 5657POPC   C1B71611  13.335  14.290   6.234
 5657POPC   C2B71612  13.307  14.392   6.675
 5657POPC   C3B71613  13.397  14.450   7.114
 5657POPC   C4B71614  13.300  14.476   7.543
 5658POPC   NC371615  41.895  13.525   5.513
 5658POPC   PO471616  42.568  13.641   5.344
 5658POPC   GL171617  42.551  13.474   5.797
 5658POPC   GL271618  42.230  13.309   5.886
 5658POPC   C1A71619  42.647  13.537   6.231
 5658POPC   D2A71620  42.357  13.535   6.578
 5658POPC   C3A71621  42.575  13.530   6.981
 5658POPC   C4A71622  42.585  13.349   7.404
 5658POPC   C1B71623  42.188  13.713   6.099
 5658POPC   C2B71624  41.969  13.874   6.471
 5658POPC   C3B71625  41.909  13.809   6.912
 5658POPC   C4B71626  41.999  14.020   7.294
 5659POPC   NC371627  25.956  36.623   5.499
 5659POPC   PO471628  26.210  37.254   5.370
 5659POPC   GL171629  26.209  37.249   5.804
 5659POPC   GL271630  25.918  37.012   5.860
 5659POPC   C1A71631  26.225  37.175   6.248
 5659POPC   D2A71632  25.952  36.949   6.518
 5659POPC   C3A71633  25.908  36.990   6.934
 5659POPC   C4A71634  26.196  37.210   7.176
 5659POPC   C1B71635  25.724  36.698   6.150
 5659POPC   C2B71636  25.763  36.479   6.570
 5659POPC   C3B71637  25.715  36.330   6.957
 5659POPC   C4B71638  25.797  36.615   7.258
 5660POPC   NC371639  18.707  43.007   5.448
 5660POPC   PO471640  19.310  43.199   5.386
 5660POPC   GL171641  19.087  43.161   5.760
 5660POPC   GL271642  19.102  42.784   5.746
 5660POPC   C1A71643  19.147  43.062   6.189
 5660POPC   D2A71644  19.334  43.118   6.568
 5660POPC   C3A71645  19.109  43.050   6.920
 5660POPC   C4A71646  19.239  43.123   7.327
 5660POPC   C1B71647  18.969  42.588   6.128
 5660POPC   C2B71648  18.770  42.753   6.501
 5660POPC   C3B71649  18.787  42.645   6.924
 5660POPC   C4B71650  18.922  42.721   7.311
 5661POPC   NC371651   5.163   5.342   5.447
 5661POPC   PO471652   4.884   4.780   5.715
 5661POPC   GL171653   4.931   5.174   5.883
 5661POPC   GL271654   5.244   5.298   5.948
 5661POPC   C1A71655   4.833   5.353   6.270
 5661POPC   D2A71656   4.648   5.093   6.584
 5661POPC   C3A71657   4.754   5.157   7.012
 5661POPC   C4A71658   5.026   4.904   7.238
 5661POPC   C1B71659   5.328   5.517   6.327
 5661POPC   C2B71660   5.351   5.527   6.789
 5661POPC   C3B71661   5.356   5.300   7.184
 5661POPC   C4B71662   5.493   4.982   7.504
 5662POPC   NC371663  25.252  35.533   5.354
 5662POPC   PO471664  25.081  34.980   5.563
 5662POPC   GL171665  25.145  35.264   5.872
 5662POPC   GL271666  25.298  35.591   5.873
 5662POPC   C1A71667  25.141  35.312   6.298
 5662POPC   D2A71668  25.268  35.085   6.638
 5662POPC   C3A71669  25.083  35.178   6.973
 5662POPC   C4A71670  25.165  35.462   7.249
 5662POPC   C1B71671  25.209  35.817   6.283
 5662POPC   C2B71672  25.222  35.634   6.708
 5662POPC   C3B71673  25.562  35.444   6.926
 5662POPC   C4B71674  25.682  35.522   7.363
 5663POPC   NC371675  20.899  41.720   5.504
 5663POPC   PO471676  21.553  41.549   5.513
 5663POPC   GL171677  21.207  41.359   5.804
 5663POPC   GL271678  21.067  41.640   5.973
 5663POPC   C1A71679  21.274  41.288   6.283
 5663POPC   D2A71680  21.476  41.504   6.659
 5663POPC   C3A71681  21.449  41.282   7.038
 5663POPC   C4A71682  21.100  41.069   7.249
 5663POPC   C1B71683  20.857  41.971   6.202
 5663POPC   C2B71684  20.904  42.144   6.633
 5663POPC   C3B71685  21.186  41.949   6.913
 5663POPC   C4B71686  21.208  41.693   7.258
 5664POPC   NC371687  25.648   9.946   5.494
 5664POPC   PO471688  25.257   9.549   5.289
 5664POPC   GL171689  25.483   9.492   5.718
 5664POPC   GL271690  25.410   9.781   5.927
 5664POPC   C1A71691  25.569   9.362   6.162
 5664POPC   D2A71692  25.363   9.392   6.565
 5664POPC   C3A71693  25.446   9.336   6.991
 5664POPC   C4A71694  25.213   9.630   7.251
 5664POPC   C1B71695  25.436   9.869   6.397
 5664POPC   C2B71696  25.230   9.970   6.834
 5664POPC   C3B71697  25.448  10.102   7.238
 5664POPC   C4B71698  25.326  10.228   7.662
 5665POPC   NC371699  42.838  20.256   5.271
 5665POPC   PO471700  43.489  20.561   5.482
 5665POPC   GL171701  43.147  20.536   5.790
 5665POPC   GL271702  43.278  20.277   6.014
 5665POPC   C1A71703  43.003  20.662   6.235
 5665POPC   D2A71704  43.151  20.581   6.668
 5665POPC   C3A71705  42.949  20.811   7.025
 5665POPC   C4A71706  42.907  20.873   7.467
 5665POPC   C1B71707  43.428  20.163   6.418
 5665POPC   C2B71708  43.431  20.193   6.865
 5665POPC   C3B71709  43.201  20.426   7.186
 5665POPC   C4B71710  43.189  20.476   7.631
 5666POPC   NC371711  30.358  29.098   5.432
 5666POPC   PO471712  30.978  29.428   5.510
 5666POPC   GL171713  30.740  29.275   5.864
 5666POPC   GL271714  30.634  28.973   5.958
 5666POPC   C1A71715  30.743  29.415   6.274
 5666POPC   D2A71716  30.531  29.573   6.635
 5666POPC   C3A71717  30.699  29.346   6.983
 5666POPC   C4A71718  30.973  29.433   7.325
 5666POPC   C1B71719  30.316  29.072   6.284
 5666POPC   C2B71720  30.276  29.093   6.758
 5666POPC   C3B71721  30.342  28.881   7.167
 5666POPC   C4B71722  30.453  28.842   7.665
 5667POPC   NC371723  12.842   4.489   5.031
 5667POPC   PO471724  13.024   4.002   5.546
 5667POPC   GL171725  12.852   4.241   5.900
 5667POPC   GL271726  13.096   4.574   5.975
 5667POPC   C1A71727  12.590   4.167   6.238
 5667POPC   D2A71728  12.740   4.138   6.649
 5667POPC   C3A71729  12.637   4.377   7.003
 5667POPC   C4A71730  12.608   4.057   7.305
 5667POPC   C1B71731  12.850   4.604   6.304
 5667POPC   C2B71732  12.989   4.614   6.703
 5667POPC   C3B71733  12.984   4.762   7.100
 5667POPC   C4B71734  12.936   4.533   7.474
 5668POPC   NC371735  35.209  32.299   5.395
 5668POPC   PO471736  35.838  31.894   5.332
 5668POPC   GL171737  35.469  31.922   5.620
 5668POPC   GL271738  35.616  32.242   5.696
 5668POPC   C1A71739  35.186  32.027   6.020
 5668POPC   D2A71740  35.202  32.340   6.411
 5668POPC   C3A71741  35.137  32.271   6.882
 5668POPC   C4A71742  35.298  32.336   7.317
 5668POPC   C1B71743  35.648  32.215   6.135
 5668POPC   C2B71744  35.674  32.143   6.569
 5668POPC   C3B71745  35.574  32.028   6.991
 5668POPC   C4B71746  35.802  32.151   7.361
 5669POPC   NC371747  17.398  28.985   5.380
 5669POPC   PO471748  17.897  29.322   5.664
 5669POPC   GL171749  17.692  28.956   5.931
 5669POPC   GL271750  17.339  28.949   5.957
 5669POPC   C1A71751  17.558  28.857   6.404
 5669POPC   D2A71752  17.386  28.985   6.797
 5669POPC   C3A71753  17.710  29.100   7.146
 5669POPC   C4A71754  17.824  29.525   7.363
 5669POPC   C1B71755  17.115  28.629   6.236
 5669POPC   C2B71756  16.977  28.655   6.652
 5669POPC   C3B71757  16.910  28.891   7.018
 5669POPC   C4B71758  17.219  29.066   7.270
 5670POPC   NC371759  31.303  34.045   5.175
 5670POPC   PO471760  31.330  34.734   5.348
 5670POPC   GL171761  31.309  34.617   5.764
 5670POPC   GL271762  31.542  34.848   5.849
 5670POPC   C1A71763  31.180  34.519   6.170
 5670POPC   D2A71764  31.204  34.694   6.562
 5670POPC   C3A71765  31.294  34.459   6.916
 5670POPC   C4A71766  31.412  34.496   7.309
 5670POPC   C1B71767  31.712  34.612   6.197
 5670POPC   C2B71768  31.701  34.591   6.637
 5670POPC   C3B71769  31.525  34.889   6.940
 5670POPC   C4B71770  31.640  34.959   7.319
 5671POPC   NC371771  29.491   4.014   5.161
 5671POPC   PO471772  29.054   3.551   5.462
 5671POPC   GL171773  29.190   3.647   5.846
 5671POPC   GL271774  29.553   3.649   5.807
 5671POPC   C1A71775  28.955   3.796   6.210
 5671POPC   D2A71776  28.690   3.783   6.585
 5671POPC   C3A71777  28.860   3.666   6.992
 5671POPC   C4A71778  29.242   3.758   7.224
 5671POPC   C1B71779  29.466   3.721   6.275
 5671POPC   C2B71780  29.189   3.555   6.622
 5671POPC   C3B71781  29.136   3.239   6.969
 5671POPC   C4B71782  29.152   3.293   7.432
 5672POPC   NC371783  21.274  28.213   5.427
 5672POPC   PO471784  21.635  28.681   5.684
 5672POPC   GL171785  21.356  28.399   5.912
 5672POPC   GL271786  21.443  28.039   5.932
 5672POPC   C1A71787  21.446  28.382   6.342
 5672POPC   D2A71788  21.704  28.565   6.623
 5672POPC   C3A71789  21.468  28.530   6.998
 5672POPC   C4A71790  21.552  28.373   7.417
 5672POPC   C1B71791  21.628  27.904   6.336
 5672POPC   C2B71792  21.590  28.041   6.793
 5672POPC   C3B71793  21.304  28.054   7.135
 5672POPC   C4B71794  21.192  28.084   7.632
 5673POPC   NC371795  32.225  27.457   5.062
 5673POPC   PO471796  32.020  27.637   5.728
 5673POPC   GL171797  32.346  27.621   5.989
 5673POPC   GL271798  32.509  27.941   5.958
 5673POPC   C1A71799  32.400  27.502   6.413
 5673POPC   D2A71800  32.493  27.123   6.640
 5673POPC   C3A71801  32.374  27.142   7.068
 5673POPC   C4A71802  32.112  27.490   7.146
 5673POPC   C1B71803  32.187  27.987   6.306
 5673POPC   C2B71804  32.199  27.858   6.732
 5673POPC   C3B71805  32.335  27.991   7.107
 5673POPC   C4B71806  32.372  27.809   7.501
 5674POPC   NC371807   2.729  20.164   5.480
 5674POPC   PO471808   3.136  20.752   5.505
 5674POPC   GL171809   2.833  20.554   5.826
 5674POPC   GL271810   2.539  20.754   5.916
 5674POPC   C1A71811   2.646  20.328   6.197
 5674POPC   D2A71812   2.804  20.494   6.580
 5674POPC   C3A71813   2.845  20.423   7.008
 5674POPC   C4A71814   2.910  20.764   7.273
 5674POPC   C1B71815   2.352  20.847   6.268
 5674POPC   C2B71816   2.328  20.649   6.652
 5674POPC   C3B71817   2.455  20.800   7.002
 5674POPC   C4B71818   2.443  20.553   7.327
 5675POPC   NC371819  43.509  10.725   5.606
 5675POPC   PO471820  42.938  10.533   5.251
 5675POPC   GL171821  42.968  10.391   5.723
 5675POPC   GL271822  43.225  10.179   5.768
 5675POPC   C1A71823  43.169  10.440   6.188
 5675POPC   D2A71824  43.399  10.407   6.561
 5675POPC   C3A71825  43.200  10.669   6.861
 5675POPC   C4A71826  43.307  10.603   7.253
 5675POPC   C1B71827  43.021   9.962   6.172
 5675POPC   C2B71828  42.956  10.125   6.584
 5675POPC   C3B71829  43.190  10.153   6.959
 5675POPC   C4B71830  43.042  10.201   7.379
 5676POPC   NC371831  13.753  21.126   5.440
 5676POPC   PO471832  13.388  20.560   5.497
 5676POPC   GL171833  13.686  20.400   5.824
 5676POPC   GL271834  13.957  20.647   5.861
 5676POPC   C1A71835  13.678  20.428   6.267
 5676POPC   D2A71836  13.768  20.551   6.686
 5676POPC   C3A71837  13.486  20.738   6.942
 5676POPC   C4A71838  13.288  20.507   7.222
 5676POPC   C1B71839  14.022  20.843   6.285
 5676POPC   C2B71840  13.820  21.047   6.650
 5676POPC   C3B71841  13.860  21.068   7.095
 5676POPC   C4B71842  13.738  21.309   7.438
 5677POPC   NC371843  27.939  19.478   5.362
 5677POPC   PO471844  27.680  20.091   5.418
 5677POPC   GL171845  27.610  19.964   5.804
 5677POPC   GL271846  27.663  19.623   5.765
 5677POPC   C1A71847  27.438  19.905   6.188
 5677POPC   D2A71848  27.291  20.079   6.544
 5677POPC   C3A71849  27.440  19.884   6.918
 5677POPC   C4A71850  27.347  20.046   7.318
 5677POPC   C1B71851  27.678  19.458   6.161
 5677POPC   C2B71852  27.748  19.648   6.560
 5677POPC   C3B71853  27.744  19.457   6.974
 5677POPC   C4B71854  27.520  19.522   7.329
 5678POPC   NC371855  11.555   1.038   5.351
 5678POPC   PO471856  11.037   1.273   5.680
 5678POPC   GL171857  11.422   1.153   5.839
 5678POPC   GL271858  11.555   1.481   5.716
 5678POPC   C1A71859  11.494   0.871   6.194
 5678POPC   D2A71860  11.540   1.049   6.594
 5678POPC   C3A71861  11.167   1.157   6.833
 5678POPC   C4A71862  11.201   1.056   7.257
 5678POPC   C1B71863  11.394   1.586   6.147
 5678POPC   C2B71864  11.500   1.572   6.577
 5678POPC   C3B71865  11.344   1.619   6.979
 5678POPC   C4B71866  11.441   1.474   7.376
 5679POPC   NC371867  35.890  16.937   5.348
 5679POPC   PO471868  36.386  16.539   5.584
 5679POPC   GL171869  36.110  16.679   5.875
 5679POPC   GL271870  36.081  17.023   5.874
 5679POPC   C1A71871  36.279  16.737   6.289
 5679POPC   D2A71872  36.502  16.780   6.645
 5679POPC   C3A71873  36.205  16.676   6.924
 5679POPC   C4A71874  36.191  16.372   7.233
 5679POPC   C1B71875  35.827  16.951   6.267
 5679POPC   C2B71876  35.841  16.965   6.745
 5679POPC   C3B71877  35.898  17.045   7.205
 5679POPC   C4B71878  35.766  17.149   7.702
 5680POPC   NC371879   3.170  41.786   5.554
 5680POPC   PO471880   3.797  41.540   5.454
 5680POPC   GL171881   3.732  41.482   5.882
 5680POPC   GL271882   3.362  41.526   5.967
 5680POPC   C1A71883   3.741  41.747   6.252
 5680POPC   D2A71884   3.532  41.756   6.621
 5680POPC   C3A71885   3.774  41.777   6.969
 5680POPC   C4A71886   3.518  41.828   7.316
 5680POPC   C1B71887   3.540  41.267   6.304
 5680POPC   C2B71888   3.626  41.247   6.732
 5680POPC   C3B71889   3.430  41.400   7.059
 5680POPC   C4B71890   3.433  41.343   7.501
 5681POPC   NC371891  10.848   0.411   5.538
 5681POPC   PO471892  11.472   0.548   5.304
 5681POPC   GL171893  11.349   0.540   5.783
 5681POPC   GL271894  11.066   0.764   5.852
 5681POPC   C1A71895  11.462   0.315   6.215
 5681POPC   D2A71896  11.357   0.171   6.661
 5681POPC   C3A71897  11.398   0.458   7.017
 5681POPC   C4A71898  11.642   0.858   7.062
 5681POPC   C1B71899  10.997   0.548   6.246
 5681POPC   C2B71900  11.097   0.678   6.660
 5681POPC   C3B71901  10.925   0.642   7.087
 5681POPC   C4B71902  11.024   0.254   7.314
 5682POPC   NC371903  40.385  35.180   5.579
 5682POPC   PO471904  40.912  35.647   5.294
 5682POPC   GL171905  40.853  35.540   5.763
 5682POPC   GL271906  40.540  35.543   5.882
 5682POPC   C1A71907  40.969  35.426   6.189
 5682POPC   D2A71908  40.866  35.673   6.557
 5682POPC   C3A71909  40.926  35.538   6.987
 5682POPC   C4A71910  40.696  35.187   7.184
 5682POPC   C1B71911  40.461  35.429   6.301
 5682POPC   C2B71912  40.547  35.064   6.548
 5682POPC   C3B71913  40.389  34.891   6.902
 5682POPC   C4B71914  40.187  35.047   7.262
 5683POPC   NC371915   0.755  39.140   5.414
 5683POPC   PO471916   0.173  39.499   5.575
 5683POPC   GL171917   0.493  39.371   5.860
 5683POPC   GL271918   0.651  39.032   5.900
 5683POPC   C1A71919   0.398  39.240   6.274
 5683POPC   D2A71920   0.476  38.996   6.597
 5683POPC   C3A71921   0.286  39.114   6.955
 5683POPC   C4A71922   0.399  39.225   7.342
 5683POPC   C1B71923   0.857  38.821   6.276
 5683POPC   C2B71924   0.902  38.707   6.700
 5683POPC   C3B71925   0.778  38.985   7.022
 5683POPC   C4B71926   0.866  39.059   7.413
 5684POPC   NC371927  18.604  40.112   5.301
 5684POPC   PO471928  18.073  39.763   5.326
 5684POPC   GL171929  18.309  39.802   5.701
 5684POPC   GL271930  18.260  40.136   5.753
 5684POPC   C1A71931  18.498  39.660   6.109
 5684POPC   D2A71932  18.607  39.651   6.568
 5684POPC   C3A71933  18.284  39.838   6.858
 5684POPC   C4A71934  18.369  39.822   7.280
 5684POPC   C1B71935  18.066  40.328   6.101
 5684POPC   C2B71936  18.131  40.421   6.517
 5684POPC   C3B71937  17.952  40.445   6.906
 5684POPC   C4B71938  18.078  40.217   7.236
 5685POPC   NC371939  34.008  12.953   5.490
 5685POPC   PO471940  34.140  12.365   5.384
 5685POPC   GL171941  34.107  12.569   5.810
 5685POPC   GL271942  33.790  12.667   5.886
 5685POPC   C1A71943  34.109  12.855   6.220
 5685POPC   D2A71944  34.301  13.036   6.623
 5685POPC   C3A71945  34.001  12.991   6.975
 5685POPC   C4A71946  33.990  12.701   7.327
 5685POPC   C1B71947  33.542  12.810   6.228
 5685POPC   C2B71948  33.380  12.775   6.647
 5685POPC   C3B71949  33.577  12.709   7.028
 5685POPC   C4B71950  33.545  12.911   7.441
 5686POPC   NC371951  17.208  38.718   5.444
 5686POPC   PO471952  17.667  38.287   5.417
 5686POPC   GL171953  17.607  38.231   5.841
 5686POPC   GL271954  17.823  38.515   5.911
 5686POPC   C1A71955  17.346  38.239   6.235
 5686POPC   D2A71956  17.443  38.348   6.667
 5686POPC   C3A71957  17.368  38.764   6.842
 5686POPC   C4A71958  17.215  38.662   7.268
 5686POPC   C1B71959  17.799  38.516   6.318
 5686POPC   C2B71960  17.958  38.469   6.707
 5686POPC   C3B71961  17.804  38.651   7.067
 5686POPC   C4B71962  17.610  38.300   7.176
 5687POPC   NC371963  16.140  39.389   5.200
 5687POPC   PO471964  15.591  39.055   5.282
 5687POPC   GL171965  15.847  39.101   5.675
 5687POPC   GL271966  15.708  38.818   5.828
 5687POPC   C1A71967  16.032  39.067   6.134
 5687POPC   D2A71968  15.888  39.103   6.546
 5687POPC   C3A71969  16.144  39.211   6.889
 5687POPC   C4A71970  15.974  39.128   7.275
 5687POPC   C1B71971  15.636  38.726   6.279
 5687POPC   C2B71972  15.717  38.642   6.755
 5687POPC   C3B71973  15.560  38.847   7.156
 5687POPC   C4B71974  15.529  39.010   7.593
 5688POPC   NC371975  26.752  29.827   5.362
 5688POPC   PO471976  27.254  30.068   5.482
 5688POPC   GL171977  27.055  29.742   5.792
 5688POPC   GL271978  26.693  29.620   5.824
 5688POPC   C1A71979  26.937  29.830   6.234
 5688POPC   D2A71980  27.091  29.775   6.637
 5688POPC   C3A71981  27.156  30.116   6.893
 5688POPC   C4A71982  27.112  30.157   7.308
 5688POPC   C1B71983  26.534  29.516   6.237
 5688POPC   C2B71984  26.496  29.758   6.623
 5688POPC   C3B71985  26.697  29.896   6.976
 5688POPC   C4B71986  26.597  30.074   7.326
 5689POPC   NC371987  21.519  16.179   5.148
 5689POPC   PO471988  20.881  16.241   5.221
 5689POPC   GL171989  21.214  16.089   5.599
 5689POPC   GL271990  21.166  15.860   5.911
 5689POPC   C1A71991  21.390  16.273   6.021
 5689POPC   D2A71992  21.420  15.974   6.359
 5689POPC   C3A71993  21.288  16.033   6.791
 5689POPC   C4A71994  21.454  16.141   7.196
 5689POPC   C1B71995  21.012  15.594   6.230
 5689POPC   C2B71996  20.966  15.645   6.643
 5689POPC   C3B71997  21.055  15.420   7.001
 5689POPC   C4B71998  21.127  15.715   7.337
 5690POPC   NC371999  43.327  43.279   5.433
 5690POPC   PO472000  43.067  42.598   5.336
 5690POPC   GL172001  43.092  42.898   5.763
 5690POPC   GL272002  43.338  42.899   6.026
 5690POPC   C1A72003  42.922  43.147   6.150
 5690POPC   D2A72004  42.923  43.325   6.585
 5690POPC   C3A72005  42.992  43.015   6.920
 5690POPC   C4A72006  43.277  42.830   7.208
 5690POPC   C1B72007  43.423  43.305   6.273
 5690POPC   C2B72008  43.622  43.413   6.703
 5690POPC   C3B72009  43.358  43.340   7.071
 5690POPC   C4B72010  42.964  43.403   7.293
 5691POPC   NC372011  13.007  14.074   5.490
 5691POPC   PO472012  13.180  13.460   5.601
 5691POPC   GL172013  13.016  13.759   5.901
 5691POPC   GL272014  12.651  13.824   5.930
 5691POPC   C1A72015  13.095  13.721   6.322
 5691POPC   D2A72016  13.071  13.490   6.678
 5691POPC   C3A72017  13.026  13.780   6.961
 5691POPC   C4A72018  13.257  13.807   7.296
 5691POPC   C1B72019  12.642  13.495   6.234
 5691POPC   C2B72020  12.603  13.671   6.632
 5691POPC   C3B72021  12.527  13.858   7.044
 5691POPC   C4B72022  12.729  13.705   7.401
 5692POPC   NC372023  21.481  43.279   5.403
 5692POPC   PO472024  21.213  42.742   5.443
 5692POPC   GL172025  21.284  43.023   5.821
 5692POPC   GL272026  21.070  43.304   5.719
 5692POPC   C1A72027  21.433  43.249   6.240
 5692POPC   D2A72028  21.489  43.353   6.714
 5692POPC   C3A72029  21.429  43.026   7.085
 5692POPC   C4A72030  21.565  43.061   7.541
 5692POPC   C1B72031  20.958  43.356   6.122
 5692POPC   C2B72032  21.005  43.259   6.569
 5692POPC   C3B72033  21.075  43.384   7.003
 5692POPC   C4B72034  21.141  43.289   7.406
 5693POPC   NC372035  34.175  24.563   5.582
 5693POPC   PO472036  33.677  24.152   5.383
 5693POPC   GL172037  33.830  24.162   5.833
 5693POPC   GL272038  34.138  24.280   6.005
 5693POPC   C1A72039  33.705  24.359   6.247
 5693POPC   D2A72040  33.734  24.635   6.601
 5693POPC   C3A72041  33.860  24.412   6.936
 5693POPC   C4A72042  33.862  24.171   7.272
 5693POPC   C1B72043  34.104  24.736   6.201
 5693POPC   C2B72044  34.062  25.026   6.561
 5693POPC   C3B72045  34.071  24.870   6.972
 5693POPC   C4B72046  34.075  24.673   7.358
 5694POPC   NC372047  11.243  30.958   5.440
 5694POPC   PO472048  10.891  30.397   5.429
 5694POPC   GL172049  11.178  30.593   5.801
 5694POPC   GL272050  11.545  30.611   5.784
 5694POPC   C1A72051  11.264  30.564   6.223
 5694POPC   D2A72052  11.060  30.321   6.546
 5694POPC   C3A72053  11.261  30.430   6.948
 5694POPC   C4A72054  11.095  30.837   7.150
 5694POPC   C1B72055  11.706  30.844   6.153
 5694POPC   C2B72056  11.679  30.989   6.569
 5694POPC   C3B72057  11.587  30.831   6.980
 5694POPC   C4B72058  11.729  30.919   7.397
 5695POPC   NC372059   6.052  19.803   5.482
 5695POPC   PO472060   5.366  19.983   5.570
 5695POPC   GL172061   5.635  19.949   5.991
 5695POPC   GL272062   5.998  20.002   5.936
 5695POPC   C1A72063   5.748  19.635   6.340
 5695POPC   D2A72064   5.558  19.418   6.730
 5695POPC   C3A72065   5.764  19.614   7.093
 5695POPC   C4A72066   5.677  20.010   7.313
 5695POPC   C1B72067   6.223  19.914   6.291
 5695POPC   C2B72068   6.059  19.850   6.713
 5695POPC   C3B72069   6.143  19.938   7.133
 5695POPC   C4B72070   6.052  19.773   7.590
 5696POPC   NC372071   4.740  23.286   5.540
 5696POPC   PO472072   5.084  23.774   5.176
 5696POPC   GL172073   5.057  23.803   5.677
 5696POPC   GL272074   4.954  24.090   5.810
 5696POPC   C1A72075   5.319  23.717   6.077
 5696POPC   D2A72076   5.309  23.882   6.513
 5696POPC   C3A72077   5.392  23.568   6.821
 5696POPC   C4A72078   5.491  23.522   7.272
 5696POPC   C1B72079   4.867  23.883   6.198
 5696POPC   C2B72080   4.829  24.098   6.580
 5696POPC   C3B72081   4.813  24.079   7.014
 5696POPC   C4B72082   5.067  23.762   7.201
 5697POPC   NC372083  24.854   6.483   5.541
 5697POPC   PO472084  24.228   6.582   5.557
 5697POPC   GL172085  24.506   6.692   5.896
 5697POPC   GL272086  24.784   6.884   5.856
 5697POPC   C1A72087  24.546   6.844   6.311
 5697POPC   D2A72088  24.235   6.869   6.572
 5697POPC   C3A72089  24.319   6.567   6.857
 5697POPC   C4A72090  24.328   6.702   7.266
 5697POPC   C1B72091  24.910   6.506   6.176
 5697POPC   C2B72092  25.041   6.540   6.586
 5697POPC   C3B72093  24.814   6.671   6.941
 5697POPC   C4B72094  24.765   6.451   7.350
 5698POPC   NC372095  11.025  33.110   5.244
 5698POPC   PO472096  11.500  32.642   5.380
 5698POPC   GL172097  11.370  32.850   5.781
 5698POPC   GL272098  11.078  33.084   5.769
 5698POPC   C1A72099  11.425  33.064   6.168
 5698POPC   D2A72100  11.402  32.837   6.553
 5698POPC   C3A72101  11.562  33.006   6.924
 5698POPC   C4A72102  11.245  32.957   7.194
 5698POPC   C1B72103  10.952  33.307   6.145
 5698POPC   C2B72104  10.864  33.455   6.564
 5698POPC   C3B72105  11.081  33.402   6.949
 5698POPC   C4B72106  10.956  33.331   7.358
 5699POPC   NC372107   9.800  44.734   5.340
 5699POPC   PO472108   9.821  44.055   5.317
 5699POPC   GL172109   9.823  44.386   5.720
 5699POPC   GL272110   9.573  44.662   5.781
 5699POPC   C1A72111  10.010  44.728   6.053
 5699POPC   D2A72112   9.917  44.923   6.493
 5699POPC   C3A72113   9.834  44.594   6.830
 5699POPC   C4A72114  10.007  44.317   7.184
 5699POPC   C1B72115   9.546  44.651   6.246
 5699POPC   C2B72116   9.385  44.447   6.621
 5699POPC   C3B72117   9.316  44.722   6.958
 5699POPC   C4B72118   9.619  44.692   7.291
 5700POPC   NC372119   1.266  31.182   5.377
 5700POPC   PO472120   0.940  31.866   5.519
 5700POPC   GL172121   1.259  31.676   5.785
 5700POPC   GL272122   1.056  31.765   6.090
 5700POPC   C1A72123   1.453  31.476   6.169
 5700POPC   D2A72124   1.231  31.536   6.567
 5700POPC   C3A72125   1.381  31.371   6.971
 5700POPC   C4A72126   1.389  31.669   7.315
 5700POPC   C1B72127   0.855  31.350   6.222
 5700POPC   C2B72128   0.656  31.253   6.617
 5700POPC   C3B72129   0.883  31.456   6.940
 5700POPC   C4B72130   1.002  31.331   7.341
 5701POPC   NC372131  27.804   2.336   5.526
 5701POPC   PO472132  27.205   2.103   5.657
 5701POPC   GL172133  27.431   2.134   5.978
 5701POPC   GL272134  27.615   1.811   5.927
 5701POPC   C1A72135  27.291   2.198   6.406
 5701POPC   D2A72136  27.443   2.091   6.777
 5701POPC   C3A72137  27.211   2.329   7.060
 5701POPC   C4A72138  27.396   2.455   7.443
 5701POPC   C1B72139  27.745   1.969   6.336
 5701POPC   C2B72140  27.975   1.981   6.732
 5701POPC   C3B72141  27.784   1.925   7.139
 5701POPC   C4B72142  27.847   2.258   7.387
 5702POPC   NC372143  29.753  33.373   5.301
 5702POPC   PO472144  30.252  33.077   5.458
 5702POPC   GL172145  30.062  33.071   5.868
 5702POPC   GL272146  29.698  33.113   5.826
 5702POPC   C1A72147  29.984  33.156   6.308
 5702POPC   D2A72148  29.696  33.330   6.655
 5702POPC   C3A72149  29.953  33.211   7.004
 5702POPC   C4A72150  30.013  32.723   7.099
 5702POPC   C1B72151  29.520  33.007   6.284
 5702POPC   C2B72152  29.736  32.836   6.688
 5702POPC   C3B72153  29.552  32.939   7.150
 5702POPC   C4B72154  29.552  32.968   7.623
 5703POPC   NC372155   9.048   3.204   5.232
 5703POPC   PO472156   9.305   2.614   5.290
 5703POPC   GL172157   9.188   2.761   5.710
 5703POPC   GL272158   8.854   2.891   5.760
 5703POPC   C1A72159   9.139   2.697   6.203
 5703POPC   D2A72160   9.082   2.957   6.613
 5703POPC   C3A72161   9.142   2.892   7.090
 5703POPC   C4A72162   9.033   3.103   7.523
 5703POPC   C1B72163   8.629   2.731   6.112
 5703POPC   C2B72164   8.591   2.735   6.556
 5703POPC   C3B72165   8.667   2.959   6.946
 5703POPC   C4B72166   8.702   2.772   7.354
 5704POPC   NC372167  22.542  43.254   5.440
 5704POPC   PO472168  23.200  43.387   5.290
 5704POPC   GL172169  23.024  43.362   5.734
 5704POPC   GL272170  22.864  43.048   5.793
 5704POPC   C1A72171  22.989  43.503   6.175
 5704POPC   D2A72172  22.711  43.348   6.558
 5704POPC   C3A72173  22.913  43.272   6.983
 5704POPC   C4A72174  22.940  43.190   7.449
 5704POPC   C1B72175  22.948  43.000   6.243
 5704POPC   C2B72176  22.765  42.787   6.597
 5704POPC   C3B72177  22.654  42.812   7.023
 5704POPC   C4B72178  22.852  42.687   7.397
 5705POPC   NC372179  12.650  17.537   5.426
 5705POPC   PO472180  13.270  17.223   5.491
 5705POPC   GL172181  12.953  17.402   5.812
 5705POPC   GL272182  12.731  17.735   5.881
 5705POPC   C1A72183  12.731  17.352   6.210
 5705POPC   D2A72184  12.786  17.476   6.612
 5705POPC   C3A72185  12.790  17.208   6.947
 5705POPC   C4A72186  12.871  17.328   7.341
 5705POPC   C1B72187  12.720  17.918   6.302
 5705POPC   C2B72188  12.537  17.915   6.724
 5705POPC   C3B72189  12.743  17.767   7.090
 5705POPC   C4B72190  12.689  17.767   7.547
 5706POPC   NC372191  34.403  31.943   5.367
 5706POPC   PO472192  34.849  32.489   5.608
 5706POPC   GL172193  34.508  32.260   5.789
 5706POPC   GL272194  34.440  32.525   6.013
 5706POPC   C1A72195  34.493  32.049   6.198
 5706POPC   D2A72196  34.419  31.924   6.622
 5706POPC   C3A72197  34.684  31.999   6.985
 5706POPC   C4A72198  34.566  32.162   7.380
 5706POPC   C1B72199  34.744  32.578   6.280
 5706POPC   C2B72200  34.696  32.408   6.653
 5706POPC   C3B72201  34.704  32.526   7.059
 5706POPC   C4B72202  34.868  32.642   7.434
 5707POPC   NC372203  39.002  31.835   5.588
 5707POPC   PO472204  39.359  31.182   5.556
 5707POPC   GL172205  39.098  31.374   5.829
 5707POPC   GL272206  39.421  31.414   6.029
 5707POPC   C1A72207  38.979  31.503   6.233
 5707POPC   D2A72208  39.206  31.370   6.599
 5707POPC   C3A72209  39.097  31.561   6.956
 5707POPC   C4A72210  39.203  31.600   7.372
 5707POPC   C1B72211  39.446  31.745   6.360
 5707POPC   C2B72212  39.661  31.706   6.739
 5707POPC   C3B72213  39.645  31.706   7.168
 5707POPC   C4B72214  39.640  31.734   7.634
 5708POPC   NC372215  30.226   2.626   5.156
 5708POPC   PO472216  29.830   3.169   5.456
 5708POPC   GL172217  29.735   2.879   5.766
 5708POPC   GL272218  30.108   2.849   5.829
 5708POPC   C1A72219  29.762   2.760   6.198
 5708POPC   D2A72220  30.071   2.868   6.506
 5708POPC   C3A72221  29.856   2.967   6.879
 5708POPC   C4A72222  29.782   2.689   7.201
 5708POPC   C1B72223  30.380   2.635   6.142
 5708POPC   C2B72224  30.374   2.360   6.511
 5708POPC   C3B72225  30.238   2.541   6.903
 5708POPC   C4B72226  30.295   2.596   7.330
 5709POPC   NC372227  39.416  36.568   5.432
 5709POPC   PO472228  39.378  37.320   5.351
 5709POPC   GL172229  39.185  37.102   5.719
 5709POPC   GL272230  38.953  36.795   5.727
 5709POPC   C1A72231  39.272  36.934   6.132
 5709POPC   D2A72232  39.441  36.893   6.540
 5709POPC   C3A72233  39.216  36.682   6.849
 5709POPC   C4A72234  39.364  36.871   7.218
 5709POPC   C1B72235  38.797  37.106   6.081
 5709POPC   C2B72236  38.948  37.227   6.506
 5709POPC   C3B72237  39.036  37.165   6.960
 5709POPC   C4B72238  39.026  37.198   7.439
 5710POPC   NC372239  22.284  31.625   5.482
 5710POPC   PO472240  22.145  30.930   5.577
 5710POPC   GL172241  22.079  31.292   5.817
 5710POPC   GL272242  22.437  31.426   5.914
 5710POPC   C1A72243  22.012  31.599   6.140
 5710POPC   D2A72244  22.336  31.658   6.459
 5710POPC   C3A72245  22.187  31.665   6.863
 5710POPC   C4A72246  22.335  31.587   7.264
 5710POPC   C1B72247  22.289  31.184   6.275
 5710POPC   C2B72248  22.088  31.187   6.719
 5710POPC   C3B72249  22.230  31.088   7.166
 5710POPC   C4B72250  22.258  31.033   7.646
 5711POPC   NC372251  33.195  36.568   5.341
 5711POPC   PO472252  32.741  37.051   5.280
 5711POPC   GL172253  33.016  36.975   5.650
 5711POPC   GL272254  32.903  36.659   5.800
 5711POPC   C1A72255  33.091  37.046   6.101
 5711POPC   D2A72256  33.094  36.837   6.520
 5711POPC   C3A72257  33.043  37.151   6.837
 5711POPC   C4A72258  33.054  36.932   7.191
 5711POPC   C1B72259  32.684  36.753   6.220
 5711POPC   C2B72260  32.611  37.021   6.591
 5711POPC   C3B72261  32.578  36.928   7.038
 5711POPC   C4B72262  32.658  36.714   7.470
 5712POPC   NC372263  29.440  19.739   5.307
 5712POPC   PO472264  29.019  20.139   5.582
 5712POPC   GL172265  29.051  19.838   5.884
 5712POPC   GL272266  29.236  19.543   5.767
 5712POPC   C1A72267  29.048  19.891   6.313
 5712POPC   D2A72268  29.060  19.724   6.715
 5712POPC   C3A72269  29.038  20.077   6.973
 5712POPC   C4A72270  29.159  20.079   7.370
 5712POPC   C1B72271  29.422  19.578   6.196
 5712POPC   C2B72272  29.606  19.566   6.615
 5712POPC   C3B72273  29.629  19.748   7.025
 5712POPC   C4B72274  29.282  19.594   7.175
 5713POPC   NC372275  44.492  22.348   5.274
 5713POPC   PO472276  44.767  21.748   5.398
 5713POPC   GL172277  44.672  22.140   5.701
 5713POPC   GL272278  44.515  22.003   5.915
 5713POPC   C1A72279  44.582  22.448   6.134
 5713POPC   D2A72280  44.790  22.649   6.533
 5713POPC   C3A72281  44.696  22.603   6.985
 5713POPC   C4A72282  44.621  22.544   7.430
 5713POPC   C1B72283  44.710  21.974   6.302
 5713POPC   C2B72284  44.647  22.171   6.687
 5713POPC   C3B72285  44.595  22.135   7.122
 5713POPC   C4B72286  44.838  21.943   7.441
 5714POPC   NC372287  36.288  42.074   5.369
 5714POPC   PO472288  36.074  41.351   5.368
 5714POPC   GL172289  36.071  41.365   5.807
 5714POPC   GL272290  36.288  41.670   5.724
 5714POPC   C1A72291  36.011  41.655   6.188
 5714POPC   D2A72292  35.959  41.811   6.615
 5714POPC   C3A72293  36.115  41.593   6.985
 5714POPC   C4A72294  36.258  41.160   7.099
 5714POPC   C1B72295  36.471  41.438   6.087
 5714POPC   C2B72296  36.406  41.517   6.520
 5714POPC   C3B72297  36.620  41.730   6.823
 5714POPC   C4B72298  36.569  41.626   7.230
 5715POPC   NC372299  37.321  31.993   5.452
 5715POPC   PO472300  37.698  32.490   5.379
 5715POPC   GL172301  37.600  32.339   5.782
 5715POPC   GL272302  37.754  31.985   5.806
 5715POPC   C1A72303  37.648  32.500   6.210
 5715POPC   D2A72304  37.887  32.407   6.585
 5715POPC   C3A72305  37.672  32.471   6.978
 5715POPC   C4A72306  37.747  32.492   7.406
 5715POPC   C1B72307  37.476  32.001   6.196
 5715POPC   C2B72308  37.432  32.132   6.646
 5715POPC   C3B72309  37.415  32.017   7.103
 5715POPC   C4B72310  37.272  31.820   7.506
 5716POPC   NC372311  10.873  26.906   5.518
 5716POPC   PO472312  10.187  26.648   5.516
 5716POPC   GL172313  10.459  26.847   5.814
 5716POPC   GL272314  10.728  26.603   5.911
 5716POPC   C1A72315  10.536  27.084   6.188
 5716POPC   D2A72316  10.374  26.956   6.590
 5716POPC   C3A72317  10.642  26.744   6.877
 5716POPC   C4A72318  10.516  26.970   7.221
 5716POPC   C1B72319  10.459  26.558   6.253
 5716POPC   C2B72320  10.372  26.330   6.617
 5716POPC   C3B72321  10.234  26.434   7.029
 5716POPC   C4B72322  10.522  26.410   7.340
 5717POPC   NC372323   8.116  22.853   5.212
 5717POPC   PO472324   7.760  22.364   5.344
 5717POPC   GL172325   7.813  22.674   5.687
 5717POPC   GL272326   7.933  23.047   5.695
 5717POPC   C1A72327   7.882  22.735   6.121
 5717POPC   D2A72328   8.214  22.650   6.430
 5717POPC   C3A72329   8.102  22.844   6.816
 5717POPC   C4A72330   8.188  22.774   7.250
 5717POPC   C1B72331   8.109  23.202   6.125
 5717POPC   C2B72332   8.393  23.133   6.499
 5717POPC   C3B72333   8.568  23.000   6.909
 5717POPC   C4B72334   8.439  23.237   7.252
 5718POPC   NC372335  34.326  38.639   5.372
 5718POPC   PO472336  34.643  38.066   5.420
 5718POPC   GL172337  34.443  38.327   5.771
 5718POPC   GL272338  34.646  38.660   5.785
 5718POPC   C1A72339  34.320  38.540   6.180
 5718POPC   D2A72340  34.169  38.687   6.602
 5718POPC   C3A72341  34.372  38.494   6.962
 5718POPC   C4A72342  34.634  38.327   7.272
 5718POPC   C1B72343  34.824  38.546   6.198
 5718POPC   C2B72344  34.722  38.433   6.599
 5718POPC   C3B72345  34.970  38.543   6.949
 5718POPC   C4B72346  34.894  38.754   7.305
 5719POPC   NC372347  25.785   5.220   5.378
 5719POPC   PO472348  26.331   4.914   5.619
 5719POPC   GL172349  26.094   5.168   5.919
 5719POPC   GL272350  25.727   5.125   5.867
 5719POPC   C1A72351  26.008   4.988   6.350
 5719POPC   D2A72352  26.174   4.952   6.782
 5719POPC   C3A72353  26.261   5.285   7.097
 5719POPC   C4A72354  26.299   5.224   7.575
 5719POPC   C1B72355  25.664   5.346   6.239
 5719POPC   C2B72356  25.821   5.361   6.660
 5719POPC   C3B72357  25.748   5.140   7.020
 5719POPC   C4B72358  25.863   4.991   7.403
 5720POPC   NC372359  26.605  19.292   5.388
 5720POPC   PO472360  26.931  18.639   5.398
 5720POPC   GL172361  26.808  18.957   5.773
 5720POPC   GL272362  26.556  19.249   5.869
 5720POPC   C1A72363  26.823  19.041   6.233
 5720POPC   D2A72364  26.661  18.764   6.535
 5720POPC   C3A72365  26.716  18.915   6.913
 5720POPC   C4A72366  26.997  19.045   7.184
 5720POPC   C1B72367  26.515  19.476   6.233
 5720POPC   C2B72368  26.769  19.483   6.609
 5720POPC   C3B72369  26.633  19.434   7.019
 5720POPC   C4B72370  26.543  19.185   7.388
 5721POPC   NC372371   4.717  37.831   5.394
 5721POPC   PO472372   4.143  37.549   5.428
 5721POPC   GL172373   4.333  37.555   5.822
 5721POPC   GL272374   4.068  37.331   5.971
 5721POPC   C1A72375   4.413  37.565   6.264
 5721POPC   D2A72376   4.157  37.459   6.631
 5721POPC   C3A72377   4.467  37.533   6.929
 5721POPC   C4A72378   4.564  37.950   7.116
 5721POPC   C1B72379   3.934  37.739   6.209
 5721POPC   C2B72380   3.846  37.890   6.651
 5721POPC   C3B72381   3.987  37.735   7.052
 5721POPC   C4B72382   4.069  37.327   7.165
 5722POPC   NC372383  13.633  13.425   5.462
 5722POPC   PO472384  13.468  14.066   5.330
 5722POPC   GL172385  13.530  13.823   5.759
 5722POPC   GL272386  13.875  13.632   5.847
 5722POPC   C1A72387  13.587  13.824   6.216
 5722POPC   D2A72388  13.730  14.110   6.537
 5722POPC   C3A72389  13.582  13.981   6.929
 5722POPC   C4A72390  13.760  13.802   7.297
 5722POPC   C1B72391  13.795  13.322   6.200
 5722POPC   C2B72392  13.831  13.331   6.673
 5722POPC   C3B72393  13.521  13.427   7.002
 5722POPC   C4B72394  13.522  13.328   7.457
 5723POPC   NC372395  41.063   6.544   5.214
 5723POPC   PO472396  41.658   6.673   5.448
 5723POPC   GL172397  41.501   6.496   5.817
 5723POPC   GL272398  41.241   6.307   5.629
 5723POPC   C1A72399  41.622   6.652   6.242
 5723POPC   D2A72400  41.394   6.910   6.540
 5723POPC   C3A72401  41.464   6.854   6.942
 5723POPC   C4A72402  41.772   6.787   7.166
 5723POPC   C1B72403  41.122   6.265   6.072
 5723POPC   C2B72404  41.247   6.407   6.492
 5723POPC   C3B72405  41.340   6.363   6.928
 5723POPC   C4B72406  41.385   6.515   7.363
 5724POPC   NC372407  42.840   1.849   5.309
 5724POPC   PO472408  43.329   2.350   5.382
 5724POPC   GL172409  43.174   2.048   5.648
 5724POPC   GL272410  43.150   2.282   5.896
 5724POPC   C1A72411  42.992   1.794   6.011
 5724POPC   D2A72412  43.110   1.694   6.450
 5724POPC   C3A72413  42.967   1.881   6.861
 5724POPC   C4A72414  43.034   1.844   7.351
 5724POPC   C1B72415  43.424   2.443   6.247
 5724POPC   C2B72416  43.217   2.473   6.661
 5724POPC   C3B72417  43.192   2.307   7.078
 5724POPC   C4B72418  43.143   2.323   7.540
 5725POPC   NC372419  42.703  13.141   5.455
 5725POPC   PO472420  41.958  13.001   5.521
 5725POPC   GL172421  42.191  12.799   5.825
 5725POPC   GL272422  42.547  12.724   5.788
 5725POPC   C1A72423  42.121  12.725   6.236
 5725POPC   D2A72424  42.191  12.952   6.597
 5725POPC   C3A72425  42.159  12.656   6.914
 5725POPC   C4A72426  42.312  12.662   7.304
 5725POPC   C1B72427  42.581  13.004   6.164
 5725POPC   C2B72428  42.678  13.133   6.597
 5725POPC   C3B72429  42.555  12.992   7.013
 5725POPC   C4B72430  42.780  12.869   7.428
 5726POPC   NC372431  20.261  20.133   5.552
 5726POPC   PO472432  20.820  19.757   5.356
 5726POPC   GL172433  20.576  19.746   5.726
 5726POPC   GL272434  20.821  19.733   5.901
 5726POPC   C1A72435  20.467  19.945   6.179
 5726POPC   D2A72436  20.704  20.074   6.547
 5726POPC   C3A72437  20.525  19.942   6.926
 5726POPC   C4A72438  20.400  20.030   7.312
 5726POPC   C1B72439  20.980  19.633   6.239
 5726POPC   C2B72440  21.045  19.722   6.608
 5726POPC   C3B72441  21.007  19.811   6.991
 5726POPC   C4B72442  20.822  19.746   7.325
 5727POPC   NC372443   6.457  32.601   5.408
 5727POPC   PO472444   6.855  31.980   5.414
 5727POPC   GL172445   6.831  32.195   5.804
 5727POPC   GL272446   6.647  32.527   5.875
 5727POPC   C1A72447   6.845  32.247   6.251
 5727POPC   D2A72448   6.606  32.263   6.651
 5727POPC   C3A72449   6.816  32.424   7.000
 5727POPC   C4A72450   6.868  32.091   7.276
 5727POPC   C1B72451   6.341  32.396   6.228
 5727POPC   C2B72452   6.118  32.447   6.651
 5727POPC   C3B72453   6.329  32.578   7.021
 5727POPC   C4B72454   6.478  32.438   7.409
 5728POPC   NC372455  35.527  43.660   5.476
 5728POPC   PO472456  35.358  44.322   5.507
 5728POPC   GL172457  35.235  44.055   5.841
 5728POPC   GL272458  35.492  43.776   5.971
 5728POPC   C1A72459  35.317  44.114   6.289
 5728POPC   D2A72460  35.377  43.776   6.573
 5728POPC   C3A72461  35.521  43.918   6.957
 5728POPC   C4A72462  35.307  44.002   7.363
 5728POPC   C1B72463  35.056  43.697   6.154
 5728POPC   C2B72464  34.848  43.775   6.541
 5728POPC   C3B72465  35.002  43.788   6.996
 5728POPC   C4B72466  35.071  43.557   7.420
 5729POPC   NC372467   3.304  26.078   5.220
 5729POPC   PO472468   3.771  25.770   5.639
 5729POPC   GL172469   3.624  26.077   5.909
 5729POPC   GL272470   3.481  25.789   6.087
 5729POPC   C1A72471   3.573  26.221   6.342
 5729POPC   D2A72472   3.668  25.916   6.630
 5729POPC   C3A72473   3.516  25.923   7.006
 5729POPC   C4A72474   3.631  26.066   7.396
 5729POPC   C1B72475   3.205  25.869   6.412
 5729POPC   C2B72476   2.929  25.745   6.711
 5729POPC   C3B72477   3.087  25.664   7.070
 5729POPC   C4B72478   3.424  25.518   7.295
 5730POPC   NC372479  35.698  37.563   5.204
 5730POPC   PO472480  35.166  37.747   5.631
 5730POPC   GL172481  35.259  37.461   5.905
 5730POPC   GL272482  34.973  37.265   5.855
 5730POPC   C1A72483  35.427  37.572   6.315
 5730POPC   D2A72484  35.274  37.792   6.696
 5730POPC   C3A72485  35.503  37.784   7.099
 5730POPC   C4A72486  35.342  37.882   7.504
 5730POPC   C1B72487  34.898  37.523   6.241
 5730POPC   C2B72488  35.044  37.342   6.607
 5730POPC   C3B72489  35.195  37.383   6.997
 5730POPC   C4B72490  34.979  37.554   7.308
 5731POPC   NC372491  42.380  14.078   5.321
 5731POPC   PO472492  41.824  14.497   5.275
 5731POPC   GL172493  42.135  14.524   5.666
 5731POPC   GL272494  42.505  14.565   5.668
 5731POPC   C1A72495  42.195  14.624   6.161
 5731POPC   D2A72496  42.347  14.521   6.605
 5731POPC   C3A72497  42.046  14.360   6.889
 5731POPC   C4A72498  41.783  14.505   7.210
 5731POPC   C1B72499  42.429  14.214   5.984
 5731POPC   C2B72500  42.445  14.031   6.400
 5731POPC   C3B72501  42.393  13.988   6.825
 5731POPC   C4B72502  42.493  14.240   7.155
 5732POPC   NC372503  36.603  36.404   5.485
 5732POPC   PO472504  36.558  35.729   5.541
 5732POPC   GL172505  36.799  36.068   5.817
 5732POPC   GL272506  37.155  36.068   5.712
 5732POPC   C1A72507  36.593  36.392   6.125
 5732POPC   D2A72508  36.611  36.515   6.547
 5732POPC   C3A72509  36.762  36.150   6.776
 5732POPC   C4A72510  36.765  36.110   7.213
 5732POPC   C1B72511  37.220  35.911   6.151
 5732POPC   C2B72512  37.358  36.118   6.563
 5732POPC   C3B72513  37.237  36.164   6.996
 5732POPC   C4B72514  37.096  35.750   7.081
 5733POPC   NC372515  33.805  33.345   5.187
 5733POPC   PO472516  34.079  33.013   5.711
 5733POPC   GL172517  33.685  32.907   5.798
 5733POPC   GL272518  33.559  33.268   5.756
 5733POPC   C1A72519  33.663  32.734   6.194
 5733POPC   D2A72520  33.526  32.894   6.569
 5733POPC   C3A72521  33.497  32.636   6.931
 5733POPC   C4A72522  33.714  32.680   7.309
 5733POPC   C1B72523  33.655  33.292   6.221
 5733POPC   C2B72524  33.573  33.466   6.652
 5733POPC   C3B72525  33.650  33.340   7.072
 5733POPC   C4B72526  34.005  33.084   7.218
 5734POPC   NC372527  28.843   9.377   5.342
 5734POPC   PO472528  29.234  10.020   5.465
 5734POPC   GL172529  29.150   9.775   5.843
 5734POPC   GL272530  28.892   9.537   5.829
 5734POPC   C1A72531  29.239   9.581   6.273
 5734POPC   D2A72532  29.072   9.669   6.710
 5734POPC   C3A72533  29.282   9.873   7.116
 5734POPC   C4A72534  29.499   9.843   7.555
 5734POPC   C1B72535  28.791   9.275   6.202
 5734POPC   C2B72536  28.840   9.141   6.646
 5734POPC   C3B72537  28.924   9.337   7.054
 5734POPC   C4B72538  28.909   9.621   7.390
 5735POPC   NC372539  28.747  41.738   5.537
 5735POPC   PO472540  28.004  41.484   5.424
 5735POPC   GL172541  28.270  41.636   5.756
 5735POPC   GL272542  28.532  41.383   5.843
 5735POPC   C1A72543  28.290  41.688   6.205
 5735POPC   D2A72544  28.070  41.488   6.549
 5735POPC   C3A72545  28.157  41.614   6.985
 5735POPC   C4A72546  28.156  41.349   7.386
 5735POPC   C1B72547  28.393  41.183   6.251
 5735POPC   C2B72548  28.551  41.225   6.681
 5735POPC   C3B72549  28.581  41.375   7.114
 5735POPC   C4B72550  28.491  41.741   7.413
 5736POPC   NC372551   6.801  25.793   5.304
 5736POPC   PO472552   6.595  26.473   5.449
 5736POPC   GL172553   6.530  26.155   5.799
 5736POPC   GL272554   6.617  25.779   5.776
 5736POPC   C1A72555   6.741  26.128   6.230
 5736POPC   D2A72556   6.879  26.027   6.667
 5736POPC   C3A72557   6.666  26.122   7.055
 5736POPC   C4A72558   6.873  25.873   7.399
 5736POPC   C1B72559   6.373  25.780   6.153
 5736POPC   C2B72560   6.396  25.861   6.594
 5736POPC   C3B72561   6.530  25.665   6.981
 5736POPC   C4B72562   6.368  25.804   7.368
 5737POPC   NC372563   4.228  25.697   5.701
 5737POPC   PO472564   4.211  26.325   5.307
 5737POPC   GL172565   4.130  26.210   5.749
 5737POPC   GL272566   4.467  26.186   5.850
 5737POPC   C1A72567   4.073  26.095   6.228
 5737POPC   D2A72568   4.054  26.259   6.673
 5737POPC   C3A72569   4.417  26.185   6.968
 5737POPC   C4A72570   4.381  26.356   7.398
 5737POPC   C1B72571   4.585  25.903   6.214
 5737POPC   C2B72572   4.679  25.731   6.613
 5737POPC   C3B72573   4.508  25.672   7.012
 5737POPC   C4B72574   4.532  25.888   7.429
 5738POPC   NC372575  28.659   3.806   5.437
 5738POPC   PO472576  28.285   3.252   5.312
 5738POPC   GL172577  28.442   3.380   5.733
 5738POPC   GL272578  28.435   3.066   5.920
 5738POPC   C1A72579  28.426   3.690   6.108
 5738POPC   D2A72580  28.188   3.728   6.511
 5738POPC   C3A72581  28.326   3.608   6.920
 5738POPC   C4A72582  28.030   3.741   7.200
 5738POPC   C1B72583  28.685   3.259   6.284
 5738POPC   C2B72584  28.665   3.261   6.742
 5738POPC   C3B72585  28.661   3.225   7.207
 5738POPC   C4B72586  28.542   3.253   7.657
 5739POPC   NC372587  36.609  11.589   5.414
 5739POPC   PO472588  37.077  11.197   5.248
 5739POPC   GL172589  36.905  11.250   5.700
 5739POPC   GL272590  37.186  11.346   5.842
 5739POPC   C1A72591  36.726  11.328   6.161
 5739POPC   D2A72592  36.532  11.175   6.599
 5739POPC   C3A72593  36.623  11.263   7.032
 5739POPC   C4A72594  36.790  11.624   7.255
 5739POPC   C1B72595  37.220  11.250   6.287
 5739POPC   C2B72596  37.031  11.415   6.675
 5739POPC   C3B72597  37.132  11.243   7.094
 5739POPC   C4B72598  37.363  10.846   7.098
 5740POPC   NC372599  26.469  44.160   5.412
 5740POPC   PO472600  26.522  43.399   5.238
 5740POPC   GL172601  26.614  43.538   5.703
 5740POPC   GL272602  26.985  43.496   5.824
 5740POPC   C1A72603  26.712  43.809   6.102
 5740POPC   D2A72604  26.946  43.903   6.492
 5740POPC   C3A72605  26.791  44.027   6.903
 5740POPC   C4A72606  26.901  44.066   7.356
 5740POPC   C1B72607  27.196  43.531   6.235
 5740POPC   C2B72608  27.339  43.605   6.670
 5740POPC   C3B72609  27.144  43.710   7.075
 5740POPC   C4B72610  26.715  43.616   7.242
 5741POPC   NC372611  13.305   7.362   5.520
 5741POPC   PO472612  13.864   7.171   5.073
 5741POPC   GL172613  13.808   7.211   5.578
 5741POPC   GL272614  13.564   6.985   5.763
 5741POPC   C1A72615  13.829   7.356   6.051
 5741POPC   D2A72616  13.737   7.275   6.520
 5741POPC   C3A72617  13.803   7.496   6.931
 5741POPC   C4A72618  14.129   7.657   7.217
 5741POPC   C1B72619  13.411   7.006   6.201
 5741POPC   C2B72620  13.284   7.062   6.642
 5741POPC   C3B72621  13.360   7.267   7.054
 5741POPC   C4B72622  13.332   7.725   7.195
 5742POPC   NC372623   9.450  24.206   5.272
 5742POPC   PO472624  10.007  24.212   5.666
 5742POPC   GL172625   9.724  24.496   5.906
 5742POPC   GL272626   9.641  24.841   5.784
 5742POPC   C1A72627   9.685  24.443   6.341
 5742POPC   D2A72628   9.796  24.151   6.635
 5742POPC   C3A72629   9.899  24.281   7.021
 5742POPC   C4A72630   9.597  24.425   7.286
 5742POPC   C1B72631   9.448  24.866   6.173
 5742POPC   C2B72632   9.297  24.728   6.575
 5742POPC   C3B72633   9.422  24.846   7.003
 5742POPC   C4B72634   9.421  24.862   7.470
 5743POPC   NC372635  21.672  33.136   5.333
 5743POPC   PO472636  21.150  32.732   5.460
 5743POPC   GL172637  21.273  32.981   5.809
 5743POPC   GL272638  21.579  33.137   5.842
 5743POPC   C1A72639  21.172  33.138   6.201
 5743POPC   D2A72640  21.336  33.282   6.579
 5743POPC   C3A72641  21.172  33.081   6.897
 5743POPC   C4A72642  21.237  33.085   7.319
 5743POPC   C1B72643  21.629  33.416   6.188
 5743POPC   C2B72644  21.841  33.428   6.610
 5743POPC   C3B72645  21.604  33.368   7.006
 5743POPC   C4B72646  21.719  33.208   7.378
 5744POPC   NC372647  31.225  41.801   5.450
 5744POPC   PO472648  31.741  41.583   5.092
 5744POPC   GL172649  31.595  41.566   5.687
 5744POPC   GL272650  31.246  41.584   5.890
 5744POPC   C1A72651  31.640  41.746   6.168
 5744POPC   D2A72652  31.410  41.905   6.567
 5744POPC   C3A72653  31.517  41.829   7.006
 5744POPC   C4A72654  31.309  41.605   7.346
 5744POPC   C1B72655  31.218  41.432   6.289
 5744POPC   C2B72656  31.530  41.411   6.588
 5744POPC   C3B72657  31.523  41.306   6.984
 5744POPC   C4B72658  31.674  41.102   7.301
 5745POPC   NC372659  36.711  10.087   5.578
 5745POPC   PO472660  36.928   9.528   5.351
 5745POPC   GL172661  36.887   9.590   5.864
 5745POPC   GL272662  36.995   9.920   5.960
 5745POPC   C1A72663  36.663   9.694   6.286
 5745POPC   D2A72664  36.835   9.525   6.665
 5745POPC   C3A72665  36.747   9.749   7.036
 5745POPC   C4A72666  36.553  10.107   7.242
 5745POPC   C1B72667  37.167   9.817   6.335
 5745POPC   C2B72668  37.211   9.892   6.744
 5745POPC   C3B72669  37.241   9.554   6.992
 5745POPC   C4B72670  37.118   9.650   7.383
 5746POPC   NC372671   0.472  10.867   5.450
 5746POPC   PO472672   0.218  11.429   5.540
 5746POPC   GL172673   0.408  11.187   5.884
 5746POPC   GL272674   0.774  11.144   5.857
 5746POPC   C1A72675   0.278  11.293   6.304
 5746POPC   D2A72676   0.109  11.500   6.653
 5746POPC   C3A72677   0.288  11.236   6.967
 5746POPC   C4A72678   0.201  11.052   7.369
 5746POPC   C1B72679   0.787  11.389   6.264
 5746POPC   C2B72680   0.628  11.527   6.703
 5746POPC   C3B72681   0.715  11.483   7.158
 5746POPC   C4B72682   1.002  11.590   7.522
 5747POPC   NC372683  29.506  41.732   5.469
 5747POPC   PO472684  29.991  41.354   5.297
 5747POPC   GL172685  29.928  41.538   5.723
 5747POPC   GL272686  30.036  41.888   5.793
 5747POPC   C1A72687  29.914  41.426   6.168
 5747POPC   D2A72688  29.758  41.644   6.524
 5747POPC   C3A72689  29.965  41.661   6.911
 5747POPC   C4A72690  29.730  41.440   7.222
 5747POPC   C1B72691  30.218  41.844   6.223
 5747POPC   C2B72692  30.340  41.476   6.482
 5747POPC   C3B72693  30.326  41.284   6.896
 5747POPC   C4B72694  30.235  41.452   7.328
 5748POPC   NC372695  30.275  35.646   5.634
 5748POPC   PO472696  30.878  35.358   5.327
 5748POPC   GL172697  30.796  35.532   5.720
 5748POPC   GL272698  30.653  35.239   5.827
 5748POPC   C1A72699  30.883  35.674   6.158
 5748POPC   D2A72700  30.694  35.649   6.587
 5748POPC   C3A72701  30.960  35.658   6.945
 5748POPC   C4A72702  30.844  35.600   7.381
 5748POPC   C1B72703  30.628  35.177   6.273
 5748POPC   C2B72704  30.397  35.211   6.667
 5748POPC   C3B72705  30.568  35.326   7.039
 5748POPC   C4B72706  30.680  35.123   7.430
 5749POPC   NC372707  26.444  15.957   5.106
 5749POPC   PO472708  26.825  16.267   5.553
 5749POPC   GL172709  26.922  16.108   5.933
 5749POPC   GL272710  27.058  15.801   5.854
 5749POPC   C1A72711  26.759  15.968   6.335
 5749POPC   D2A72712  26.544  16.231   6.644
 5749POPC   C3A72713  26.645  16.190   7.083
 5749POPC   C4A72714  26.563  16.138   7.569
 5749POPC   C1B72715  27.266  15.869   6.232
 5749POPC   C2B72716  27.215  15.958   6.616
 5749POPC   C3B72717  26.991  15.810   6.953
 5749POPC   C4B72718  27.030  15.991   7.361
 5750POPC   NC372719  25.651  44.146   5.433
 5750POPC   PO472720  26.218  44.598   5.464
 5750POPC   GL172721  26.037  44.318   5.762
 5750POPC   GL272722  25.730  44.510   5.843
 5750POPC   C1A72723  26.045  44.266   6.223
 5750POPC   D2A72724  25.716  44.386   6.533
 5750POPC   C3A72725  25.915  44.366   6.930
 5750POPC   C4A72726  26.352  44.259   7.022
 5750POPC   C1B72727  25.951  44.755   6.207
 5750POPC   C2B72728  26.188  44.651   6.584
 5750POPC   C3B72729  26.228  44.774   7.026
 5750POPC   C4B72730  25.898  44.801   7.318
 5751POPC   NC372731  32.021  20.528   5.384
 5751POPC   PO472732  31.418  20.860   5.361
 5751POPC   GL172733  31.268  20.779   5.794
 5751POPC   GL272734  31.577  20.559   5.904
 5751POPC   C1A72735  31.309  20.813   6.262
 5751POPC   D2A72736  31.751  20.879   6.414
 5751POPC   C3A72737  31.815  20.943   6.869
 5751POPC   C4A72738  31.619  20.741   7.195
 5751POPC   C1B72739  31.593  20.412   6.344
 5751POPC   C2B72740  31.459  20.553   6.762
 5751POPC   C3B72741  31.425  20.290   7.162
 5751POPC   C4B72742  31.451  20.125   7.606
 5752POPC   NC372743  33.838  28.982   5.060
 5752POPC   PO472744  34.276  29.060   5.570
 5752POPC   GL172745  33.961  29.196   5.865
 5752POPC   GL272746  33.671  29.438   5.776
 5752POPC   C1A72747  33.958  29.050   6.278
 5752POPC   D2A72748  33.746  29.087   6.656
 5752POPC   C3A72749  33.991  29.109   7.029
 5752POPC   C4A72750  33.979  29.125   7.489
 5752POPC   C1B72751  33.482  29.202   6.149
 5752POPC   C2B72752  33.255  29.044   6.533
 5752POPC   C3B72753  33.398  28.895   6.958
 5752POPC   C4B72754  33.538  29.207   7.223
 5753POPC   NC372755  14.244  12.001   5.328
 5753POPC   PO472756  14.776  11.641   5.504
 5753POPC   GL172757  14.541  11.961   5.809
 5753POPC   GL272758  14.135  11.999   5.824
 5753POPC   C1A72759  14.390  12.020   6.258
 5753POPC   D2A72760  14.156  11.861   6.611
 5753POPC   C3A72761  14.471  11.975   6.899
 5753POPC   C4A72762  14.825  11.993   7.167
 5753POPC   C1B72763  13.976  12.302   6.128
 5753POPC   C2B72764  14.020  12.361   6.576
 5753POPC   C3B72765  13.973  12.197   6.989
 5753POPC   C4B72766  14.171  11.956   7.308
 5754POPC   NC372767  18.999  36.453   5.636
 5754POPC   PO472768  19.175  35.776   5.476
 5754POPC   GL172769  19.371  36.007   5.787
 5754POPC   GL272770  19.020  36.026   5.905
 5754POPC   C1A72771  19.394  36.203   6.195
 5754POPC   D2A72772  19.159  36.079   6.552
 5754POPC   C3A72773  19.227  36.325   6.923
 5754POPC   C4A72774  19.464  36.188   7.256
 5754POPC   C1B72775  18.743  35.916   6.229
 5754POPC   C2B72776  18.718  35.814   6.660
 5754POPC   C3B72777  18.765  35.994   7.082
 5754POPC   C4B72778  18.721  35.754   7.452
 5755POPC   NC372779  10.011  24.645   5.499
 5755POPC   PO472780   9.726  25.318   5.476
 5755POPC   GL172781   9.889  25.332   5.854
 5755POPC   GL272782  10.088  25.079   5.783
 5755POPC   C1A72783   9.728  25.288   6.253
 5755POPC   D2A72784   9.410  25.224   6.552
 5755POPC   C3A72785   9.615  25.306   6.898
 5755POPC   C4A72786   9.463  25.329   7.288
 5755POPC   C1B72787  10.008  24.861   6.179
 5755POPC   C2B72788   9.800  24.872   6.585
 5755POPC   C3B72789   9.925  24.798   6.992
 5755POPC   C4B72790   9.934  25.111   7.291
 5756POPC   NC372791  15.521  36.075   5.422
 5756POPC   PO472792  16.141  36.404   5.402
 5756POPC   GL172793  15.902  36.208   5.751
 5756POPC   GL272794  16.019  35.868   5.758
 5756POPC   C1A72795  15.781  36.074   6.196
 5756POPC   D2A72796  15.973  36.090   6.597
 5756POPC   C3A72797  15.824  36.365   6.926
 5756POPC   C4A72798  15.526  36.144   7.190
 5756POPC   C1B72799  16.284  36.018   6.129
 5756POPC   C2B72800  16.473  36.017   6.562
 5756POPC   C3B72801  16.320  36.182   6.969
 5756POPC   C4B72802  16.021  36.089   7.316
 5757POPC   NC372803   3.042   2.081   5.368
 5757POPC   PO472804   2.378   1.879   5.446
 5757POPC   GL172805   2.711   1.960   5.735
 5757POPC   GL272806   2.756   2.305   5.842
 5757POPC   C1A72807   2.937   1.920   6.119
 5757POPC   D2A72808   2.734   1.775   6.490
 5757POPC   C3A72809   2.927   1.912   6.859
 5757POPC   C4A72810   2.720   1.812   7.223
 5757POPC   C1B72811   2.506   2.179   6.232
 5757POPC   C2B72812   2.512   2.279   6.702
 5757POPC   C3B72813   2.755   2.347   7.114
 5757POPC   C4B72814   2.938   2.513   7.524
 5758POPC   NC372815  10.584  18.072   5.484
 5758POPC   PO472816  10.715  18.734   5.505
 5758POPC   GL172817  10.536  18.568   5.923
 5758POPC   GL272818  10.402  18.201   5.939
 5758POPC   C1A72819  10.658  18.375   6.339
 5758POPC   D2A72820  10.569  18.054   6.628
 5758POPC   C3A72821  10.753  18.205   7.002
 5758POPC   C4A72822  10.517  18.434   7.266
 5758POPC   C1B72823  10.210  17.903   6.260
 5758POPC   C2B72824  10.060  17.974   6.687
 5758POPC   C3B72825  10.278  18.029   7.080
 5758POPC   C4B72826  10.390  17.999   7.534
 5759POPC   NC372827  24.216  29.746   5.478
 5759POPC   PO472828  23.671  29.256   5.367
 5759POPC   GL172829  23.723  29.280   5.795
 5759POPC   GL272830  23.783  29.632   5.752
 5759POPC   C1A72831  23.572  29.263   6.209
 5759POPC   D2A72832  23.286  29.255   6.551
 5759POPC   C3A72833  23.528  29.057   6.848
 5759POPC   C4A72834  23.793  29.200   7.193
 5759POPC   C1B72835  23.923  29.661   6.164
 5759POPC   C2B72836  23.896  29.457   6.562
 5759POPC   C3B72837  24.158  29.520   6.880
 5759POPC   C4B72838  23.919  29.693   7.186
 5760POPC   NC372839  35.150  18.006   5.447
 5760POPC   PO472840  35.495  18.564   5.304
 5760POPC   GL172841  35.331  18.407   5.682
 5760POPC   GL272842  35.597  18.163   5.705
 5760POPC   C1A72843  35.225  18.341   6.124
 5760POPC   D2A72844  35.483  18.381   6.482
 5760POPC   C3A72845  35.417  18.344   6.901
 5760POPC   C4A72846  35.276  18.263   7.319
 5760POPC   C1B72847  35.631  18.020   6.142
 5760POPC   C2B72848  35.611  17.882   6.613
 5760POPC   C3B72849  35.555  17.900   7.090
 5760POPC   C4B72850  35.524  17.915   7.577
 5761POPC   NC372851  44.464   2.251   5.419
 5761POPC   PO472852  44.817   1.627   5.374
 5761POPC   GL172853  44.613   1.701   5.793
 5761POPC   GL272854  44.667   2.012   5.851
 5761POPC   C1A72855  44.328   1.802   6.205
 5761POPC   D2A72856  44.191   1.608   6.624
 5761POPC   C3A72857  44.300   1.958   6.966
 5761POPC   C4A72858  44.416   1.880   7.422
 5761POPC   C1B72859  44.838   1.752   6.231
 5761POPC   C2B72860  44.651   1.761   6.635
 5761POPC   C3B72861  44.771   1.778   7.078
 5761POPC   C4B72862  44.929   1.911   7.503
 5762POPC   NC372863  42.525  19.321   5.443
 5762POPC   PO472864  41.863  19.423   5.422
 5762POPC   GL172865  42.013  19.014   5.682
 5762POPC   GL272866  42.394  18.916   5.766
 5762POPC   C1A72867  42.073  18.919   6.148
 5762POPC   D2A72868  42.254  18.953   6.574
 5762POPC   C3A72869  42.031  18.978   6.972
 5762POPC   C4A72870  42.184  19.068   7.382
 5762POPC   C1B72871  42.611  18.987   6.192
 5762POPC   C2B72872  42.752  18.992   6.658
 5762POPC   C3B72873  42.617  19.073   7.098
 5762POPC   C4B72874  42.710  19.427   7.422
 5763POPC   NC372875  20.139  24.658   5.483
 5763POPC   PO472876  19.630  24.159   5.496
 5763POPC   GL172877  19.798  24.396   5.824
 5763POPC   GL272878  20.140  24.304   5.847
 5763POPC   C1A72879  19.692  24.454   6.275
 5763POPC   D2A72880  19.511  24.746   6.604
 5763POPC   C3A72881  19.723  24.693   6.987
 5763POPC   C4A72882  19.540  24.503   7.325
 5763POPC   C1B72883  20.152  24.186   6.255
 5763POPC   C2B72884  20.327  24.369   6.631
 5763POPC   C3B72885  20.307  24.236   7.048
 5763POPC   C4B72886  19.952  24.212   7.269
 5764POPC   NC372887  12.051  19.128   5.455
 5764POPC   PO472888  12.316  19.751   5.321
 5764POPC   GL172889  12.074  19.667   5.677
 5764POPC   GL272890  12.302  19.434   5.819
 5764POPC   C1A72891  12.052  19.906   6.057
 5764POPC   D2A72892  12.091  19.919   6.506
 5764POPC   C3A72893  11.868  19.799   6.862
 5764POPC   C4A72894  11.963  19.882   7.289
 5764POPC   C1B72895  12.175  19.437   6.251
 5764POPC   C2B72896  12.367  19.509   6.658
 5764POPC   C3B72897  12.407  19.672   7.078
 5764POPC   C4B72898  12.271  19.526   7.474
 5765POPC   NC372899  10.099  29.613   5.544
 5765POPC   PO472900   9.445  29.772   5.368
 5765POPC   GL172901   9.623  29.734   5.777
 5765POPC   GL272902   9.788  30.037   5.744
 5765POPC   C1A72903   9.726  29.836   6.227
 5765POPC   D2A72904   9.480  29.916   6.583
 5765POPC   C3A72905   9.616  29.821   6.992
 5765POPC   C4A72906   9.544  30.014   7.395
 5765POPC   C1B72907   9.915  30.288   6.099
 5765POPC   C2B72908   9.922  30.281   6.527
 5765POPC   C3B72909   9.911  30.259   6.969
 5765POPC   C4B72910  10.026  30.292   7.403
 5766POPC   NC372911   8.260  41.084   5.315
 5766POPC   PO472912   8.412  41.695   5.141
 5766POPC   GL172913   8.242  41.611   5.602
 5766POPC   GL272914   8.382  41.305   5.745
 5766POPC   C1A72915   8.054  41.552   6.082
 5766POPC   D2A72916   7.833  41.507   6.525
 5766POPC   C3A72917   8.085  41.632   6.923
 5766POPC   C4A72918   8.232  41.553   7.357
 5766POPC   C1B72919   8.508  41.324   6.185
 5766POPC   C2B72920   8.338  41.365   6.579
 5766POPC   C3B72921   8.468  41.258   7.003
 5766POPC   C4B72922   8.768  41.470   7.262
 5767POPC   NC372923   5.636  20.339   5.661
 5767POPC   PO472924   5.157  20.618   5.280
 5767POPC   GL172925   5.205  20.647   5.721
 5767POPC   GL272926   5.509  20.833   5.816
 5767POPC   C1A72927   4.973  20.544   6.095
 5767POPC   D2A72928   4.828  20.487   6.512
 5767POPC   C3A72929   5.011  20.531   6.944
 5767POPC   C4A72930   4.759  20.394   7.295
 5767POPC   C1B72931   5.434  20.669   6.235
 5767POPC   C2B72932   5.368  20.413   6.580
 5767POPC   C3B72933   5.524  20.415   6.998
 5767POPC   C4B72934   5.557  20.772   7.289
 5768POPC   NC372935  31.695  26.858   5.442
 5768POPC   PO472936  31.068  26.695   5.382
 5768POPC   GL172937  31.319  26.686   5.768
 5768POPC   GL272938  31.231  26.355   5.796
 5768POPC   C1A72939  31.593  26.823   6.143
 5768POPC   D2A72940  31.578  27.047   6.553
 5768POPC   C3A72941  31.364  26.936   6.953
 5768POPC   C4A72942  31.439  26.944   7.405
 5768POPC   C1B72943  31.523  26.310   6.184
 5768POPC   C2B72944  31.529  26.504   6.582
 5768POPC   C3B72945  31.454  26.432   7.016
 5768POPC   C4B72946  31.759  26.527   7.311
 5769POPC   NC372947  21.167   0.065   5.326
 5769POPC   PO472948  21.350  44.435   5.108
 5769POPC   GL172949  21.505  44.455   5.629
 5769POPC   GL272950  21.231  44.332   5.872
 5769POPC   C1A72951  21.497  44.688   6.084
 5769POPC   D2A72952  21.193  44.620   6.459
 5769POPC   C3A72953  21.323  44.808   6.860
 5769POPC   C4A72954  21.387  44.696   7.254
 5769POPC   C1B72955  21.036  44.178   6.213
 5769POPC   C2B72956  21.068  44.093   6.614
 5769POPC   C3B72957  21.148  44.341   6.934
 5769POPC   C4B72958  21.211  44.250   7.393
 5770POPC   NC372959  24.306  35.909   5.349
 5770POPC   PO472960  24.690  36.478   5.558
 5770POPC   GL172961  24.501  36.122   5.803
 5770POPC   GL272962  24.276  35.825   5.853
 5770POPC   C1A72963  24.437  36.095   6.242
 5770POPC   D2A72964  24.259  36.045   6.645
 5770POPC   C3A72965  24.364  36.363   6.973
 5770POPC   C4A72966  24.513  36.228   7.386
 5770POPC   C1B72967  24.320  35.572   6.256
 5770POPC   C2B72968  24.286  35.525   6.726
 5770POPC   C3B72969  24.254  35.793   7.094
 5770POPC   C4B72970  24.241  35.830   7.523
 5771POPC   NC372971   3.688  35.998   5.574
 5771POPC   PO472972   3.273  36.390   5.228
 5771POPC   GL172973   3.315  36.456   5.754
 5771POPC   GL272974   3.630  36.325   5.949
 5771POPC   C1A72975   3.329  36.515   6.271
 5771POPC   D2A72976   3.660  36.333   6.554
 5771POPC   C3A72977   3.647  36.471   6.978
 5771POPC   C4A72978   3.354  36.491   7.309
 5771POPC   C1B72979   3.407  36.033   6.197
 5771POPC   C2B72980   3.308  35.969   6.628
 5771POPC   C3B72981   3.428  36.025   7.077
 5771POPC   C4B72982   3.710  35.828   7.381
 5772POPC   NC372983  31.431  29.437   5.381
 5772POPC   PO472984  31.318  30.042   5.181
 5772POPC   GL172985  31.404  29.913   5.636
 5772POPC   GL272986  31.769  30.004   5.730
 5772POPC   C1A72987  31.342  29.723   6.085
 5772POPC   D2A72988  31.101  29.749   6.532
 5772POPC   C3A72989  31.337  29.853   6.938
 5772POPC   C4A72990  31.482  29.592   7.306
 5772POPC   C1B72991  31.680  30.253   6.112
 5772POPC   C2B72992  31.560  30.345   6.535
 5772POPC   C3B72993  31.689  30.249   6.945
 5772POPC   C4B72994  31.884  29.894   7.126
 5773POPC   NC372995   8.044  23.827   5.265
 5773POPC   PO472996   8.376  23.223   5.417
 5773POPC   GL172997   8.138  23.564   5.735
 5773POPC   GL272998   8.045  23.940   5.752
 5773POPC   C1A72999   8.064  23.707   6.211
 5773POPC   D2A73000   7.872  23.424   6.534
 5773POPC   C3A73001   8.090  23.378   6.903
 5773POPC   C4A73002   8.242  23.710   7.131
 5773POPC   C1B73003   7.776  24.129   6.065
 5773POPC   C2B73004   7.844  24.134   6.501
 5773POPC   C3B73005   7.820  23.887   6.849
 5773POPC   C4B73006   7.773  23.799   7.286
 5774POPC   NC373007   8.426  22.844   5.684
 5774POPC   PO473008   8.966  22.974   5.245
 5774POPC   GL173009   8.941  22.792   5.698
 5774POPC   GL273010   8.813  22.989   5.984
 5774POPC   C1A73011   9.107  22.576   6.069
 5774POPC   D2A73012   9.115  22.455   6.502
 5774POPC   C3A73013   8.964  22.649   6.869
 5774POPC   C4A73014   9.191  22.820   7.204
 5774POPC   C1B73015   8.861  22.905   6.432
 5774POPC   C2B73016   9.031  23.163   6.786
 5774POPC   C3B73017   8.998  23.294   7.213
 5774POPC   C4B73018   8.788  23.254   7.620
 5775POPC   NC373019  11.036  35.083   5.214
 5775POPC   PO473020  11.410  35.568   5.398
 5775POPC   GL173021  11.407  35.263   5.786
 5775POPC   GL273022  11.735  35.055   5.805
 5775POPC   C1A73023  11.149  35.250   6.216
 5775POPC   D2A73024  10.964  35.296   6.664
 5775POPC   C3A73025  11.211  35.236   7.047
 5775POPC   C4A73026  11.544  35.426   7.160
 5775POPC   C1B73027  11.571  34.958   6.226
 5775POPC   C2B73028  11.502  35.204   6.619
 5775POPC   C3B73029  11.666  34.973   6.959
 5775POPC   C4B73030  11.630  35.003   7.404
 5776POPC   NC373031  35.164  17.253   5.639
 5776POPC   PO473032  35.506  16.656   5.469
 5776POPC   GL173033  35.490  16.889   5.845
 5776POPC   GL273034  35.203  16.685   5.938
 5776POPC   C1A73035  35.328  17.059   6.260
 5776POPC   D2A73036  35.361  16.843   6.653
 5776POPC   C3A73037  35.403  17.097   6.996
 5776POPC   C4A73038  35.385  17.012   7.424
 5776POPC   C1B73039  35.512  16.549   6.253
 5776POPC   C2B73040  35.812  16.474   6.568
 5776POPC   C3B73041  35.739  16.508   7.006
 5776POPC   C4B73042  35.373  16.597   7.143
 5777POPC   NC373043  33.921  37.237   5.500
 5777POPC   PO473044  33.614  36.700   5.275
 5777POPC   GL173045  33.524  36.701   5.729
 5777POPC   GL273046  33.877  36.777   5.778
 5777POPC   C1A73047  33.475  36.715   6.193
 5777POPC   D2A73048  33.492  37.143   6.458
 5777POPC   C3A73049  33.547  37.203   6.917
 5777POPC   C4A73050  33.531  37.023   7.343
 5777POPC   C1B73051  33.899  36.974   6.186
 5777POPC   C2B73052  33.815  36.737   6.586
 5777POPC   C3B73053  33.886  36.819   7.015
 5777POPC   C4B73054  33.969  37.228   7.220
 5778POPC   NC373055  19.278  37.045   5.276
 5778POPC   PO473056  19.170  37.681   5.317
 5778POPC   GL173057  18.943  37.796   5.797
 5778POPC   GL273058  18.779  37.523   5.850
 5778POPC   C1A73059  18.969  37.968   6.250
 5778POPC   D2A73060  19.122  37.766   6.647
 5778POPC   C3A73061  19.295  37.939   7.011
 5778POPC   C4A73062  19.232  37.886   7.429
 5778POPC   C1B73063  18.999  37.433   6.275
 5778POPC   C2B73064  18.923  37.280   6.697
 5778POPC   C3B73065  18.950  37.508   7.086
 5778POPC   C4B73066  18.747  37.500   7.459
 5779POPC   NC373067  42.636   4.370   5.347
 5779POPC   PO473068  43.236   4.066   5.372
 5779POPC   GL173069  42.971   4.173   5.734
 5779POPC   GL273070  42.925   4.529   5.814
 5779POPC   C1A73071  42.883   4.044   6.182
 5779POPC   D2A73072  43.096   4.064   6.624
 5779POPC   C3A73073  43.102   4.183   7.082
 5779POPC   C4A73074  43.263   4.214   7.533
 5779POPC   C1B73075  43.219   4.420   6.182
 5779POPC   C2B73076  43.303   4.559   6.632
 5779POPC   C3B73077  43.212   4.679   7.067
 5779POPC   C4B73078  43.372   4.713   7.513
 5780POPC   NC373079  43.643  13.518   5.627
 5780POPC   PO473080  44.166  13.370   5.256
 5780POPC   GL173081  44.212  13.484   5.729
 5780POPC   GL273082  44.065  13.809   5.863
 5780POPC   C1A73083  44.083  13.396   6.185
 5780POPC   D2A73084  44.135  13.452   6.623
 5780POPC   C3A73085  43.763  13.446   6.870
 5780POPC   C4A73086  43.843  13.356   7.276
 5780POPC   C1B73087  44.209  13.864   6.337
 5780POPC   C2B73088  43.939  13.915   6.733
 5780POPC   C3B73089  43.832  13.867   7.183
 5780POPC   C4B73090  43.846  14.058   7.576
 5781POPC   NC373091  21.538  12.959   5.553
 5781POPC   PO473092  20.942  12.662   5.568
 5781POPC   GL173093  21.097  12.876   5.920
 5781POPC   GL273094  20.874  13.181   5.985
 5781POPC   C1A73095  21.439  12.758   6.225
 5781POPC   D2A73096  21.779  12.672   6.551
 5781POPC   C3A73097  21.533  12.638   6.947
 5781POPC   C4A73098  21.094  12.480   7.007
 5781POPC   C1B73099  21.260  13.262   6.223
 5781POPC   C2B73100  21.479  13.115   6.595
 5781POPC   C3B73101  21.503  13.242   7.007
 5781POPC   C4B73102  21.295  13.247   7.391
 5782POPC   NC373103  23.125   0.245   5.511
 5782POPC   PO473104  22.732   0.800   5.474
 5782POPC   GL173105  22.703   0.675   5.885
 5782POPC   GL273106  22.810   0.341   5.919
 5782POPC   C1A73107  22.813   0.736   6.306
 5782POPC   D2A73108  23.009   0.555   6.666
 5782POPC   C3A73109  22.701   0.435   6.963
 5782POPC   C4A73110  22.741   0.421   7.422
 5782POPC   C1B73111  23.203   0.395   6.175
 5782POPC   C2B73112  23.318   0.146   6.539
 5782POPC   C3B73113  23.133   0.114   6.963
 5782POPC   C4B73114  23.208   0.172   7.402
 5783POPC   NC373115  14.085  32.176   5.260
 5783POPC   PO473116  14.631  32.453   5.456
 5783POPC   GL173117  14.288  32.388   5.724
 5783POPC   GL273118  14.229  32.028   5.773
 5783POPC   C1A73119  14.335  32.335   6.186
 5783POPC   D2A73120  14.645  32.471   6.536
 5783POPC   C3A73121  14.649  32.288   6.943
 5783POPC   C4A73122  14.306  32.253   7.195
 5783POPC   C1B73123  14.316  31.837   6.212
 5783POPC   C2B73124  14.260  31.999   6.657
 5783POPC   C3B73125  14.196  31.780   7.061
 5783POPC   C4B73126  13.930  31.870   7.434
 5784POPC   NC373127  10.195  40.484   5.491
 5784POPC   PO473128  10.623  40.049   5.176
 5784POPC   GL173129  10.586  40.108   5.646
 5784POPC   GL273130  10.697  39.801   5.785
 5784POPC   C1A73131  10.444  40.260   6.100
 5784POPC   D2A73132  10.464  40.404   6.564
 5784POPC   C3A73133  10.518  40.138   6.950
 5784POPC   C4A73134  10.324  39.725   7.054
 5784POPC   C1B73135  10.495  39.749   6.170
 5784POPC   C2B73136  10.672  39.885   6.545
 5784POPC   C3B73137  10.846  39.702   6.925
 5784POPC   C4B73138  10.716  39.409   7.209
 5785POPC   NC373139  20.202  33.013   5.170
 5785POPC   PO473140  19.631  33.069   5.466
 5785POPC   GL173141  19.825  32.951   5.836
 5785POPC   GL273142  19.987  32.618   5.871
 5785POPC   C1A73143  19.806  33.105   6.239
 5785POPC   D2A73144  20.052  33.102   6.610
 5785POPC   C3A73145  19.841  32.960   7.007
 5785POPC   C4A73146  19.435  32.791   7.163
 5785POPC   C1B73147  20.195  32.722   6.285
 5785POPC   C2B73148  20.115  32.594   6.754
 5785POPC   C3B73149  19.903  32.481   7.185
 5785POPC   C4B73150  20.037  32.490   7.641
 5786POPC   NC373151  26.269   4.461   5.527
 5786POPC   PO473152  25.634   4.608   5.456
 5786POPC   GL173153  25.816   4.353   5.791
 5786POPC   GL273154  25.956   4.662   5.904
 5786POPC   C1A73155  26.121   4.240   6.176
 5786POPC   D2A73156  26.319   4.071   6.583
 5786POPC   C3A73157  26.096   4.161   6.977
 5786POPC   C4A73158  26.183   4.320   7.395
 5786POPC   C1B73159  25.717   4.548   6.267
 5786POPC   C2B73160  25.960   4.510   6.628
 5786POPC   C3B73161  25.874   4.613   7.055
 5786POPC   C4B73162  25.705   4.477   7.457
 5787POPC   NC373163   0.782  37.667   5.551
 5787POPC   PO473164   1.374  37.493   5.277
 5787POPC   GL173165   1.285  37.456   5.765
 5787POPC   GL273166   0.994  37.582   5.994
 5787POPC   C1A73167   1.441  37.450   6.223
 5787POPC   D2A73168   1.305  37.550   6.657
 5787POPC   C3A73169   1.563  37.487   7.040
 5787POPC   C4A73170   1.362  37.588   7.452
 5787POPC   C1B73171   1.108  37.908   6.307
 5787POPC   C2B73172   1.062  38.067   6.693
 5787POPC   C3B73173   1.270  37.935   7.039
 5787POPC   C4B73174   1.127  38.026   7.419
 5788POPC   NC373175  35.790  17.927   5.246
 5788POPC   PO473176  35.319  17.581   5.365
 5788POPC   GL173177  35.491  17.634   5.751
 5788POPC   GL273178  35.705  17.338   5.683
 5788POPC   C1A73179  35.330  17.621   6.190
 5788POPC   D2A73180  35.100  17.824   6.538
 5788POPC   C3A73181  35.240  17.571   6.869
 5788POPC   C4A73182  35.138  17.445   7.279
 5788POPC   C1B73183  35.816  17.448   6.109
 5788POPC   C2B73184  35.662  17.382   6.517
 5788POPC   C3B73185  35.790  17.465   6.913
 5788POPC   C4B73186  35.644  17.467   7.320
 5789POPC   NC373187  22.437   6.245   5.648
 5789POPC   PO473188  21.913   6.582   5.282
 5789POPC   GL173189  21.951   6.547   5.760
 5789POPC   GL273190  22.031   6.877   5.941
 5789POPC   C1A73191  22.073   6.411   6.213
 5789POPC   D2A73192  22.332   6.473   6.614
 5789POPC   C3A73193  22.157   6.522   7.055
 5789POPC   C4A73194  22.277   6.433   7.518
 5789POPC   C1B73195  22.216   6.901   6.313
 5789POPC   C2B73196  22.086   6.922   6.705
 5789POPC   C3B73197  22.016   7.026   7.113
 5789POPC   C4B73198  22.296   7.179   7.444
 5790POPC   NC373199  23.187  23.773   5.121
 5790POPC   PO473200  22.691  23.455   5.457
 5790POPC   GL173201  22.765  23.671   5.828
 5790POPC   GL273202  23.090  23.837   5.752
 5790POPC   C1A73203  22.550  23.764   6.208
 5790POPC   D2A73204  22.426  23.540   6.586
 5790POPC   C3A73205  22.503  23.727   6.956
 5790POPC   C4A73206  22.622  23.886   7.368
 5790POPC   C1B73207  23.114  23.632   6.184
 5790POPC   C2B73208  22.939  23.644   6.630
 5790POPC   C3B73209  22.987  23.595   7.097
 5790POPC   C4B73210  23.176  23.856   7.384
 5791POPC   NC373211  38.680   6.946   5.565
 5791POPC   PO473212  38.094   6.482   5.445
 5791POPC   GL173213  38.366   6.583   5.802
 5791POPC   GL273214  38.228   6.913   5.847
 5791POPC   C1A73215  38.632   6.564   6.187
 5791POPC   D2A73216  38.498   6.481   6.604
 5791POPC   C3A73217  38.748   6.437   6.977
 5791POPC   C4A73218  38.613   6.384   7.383
 5791POPC   C1B73219  38.240   6.881   6.293
 5791POPC   C2B73220  38.156   6.833   6.740
 5791POPC   C3B73221  38.342   6.761   7.129
 5791POPC   C4B73222  38.109   7.027   7.446
 5792POPC   NC373223  10.626  16.005   5.371
 5792POPC   PO473224  10.187  15.541   5.461
 5792POPC   GL173225  10.237  15.789   5.814
 5792POPC   GL273226  10.591  15.841   5.859
 5792POPC   C1A73227  10.260  15.981   6.245
 5792POPC   D2A73228  10.437  16.267   6.566
 5792POPC   C3A73229  10.587  16.107   6.950
 5792POPC   C4A73230  10.317  16.007   7.293
 5792POPC   C1B73231  10.503  15.518   6.178
 5792POPC   C2B73232  10.557  15.689   6.584
 5792POPC   C3B73233  10.448  15.605   6.995
 5792POPC   C4B73234  10.713  15.703   7.341
 5793POPC   NC373235  18.485  13.081   5.289
 5793POPC   PO473236  17.941  12.782   5.483
 5793POPC   GL173237  18.170  12.977   5.825
 5793POPC   GL273238  18.034  13.305   5.915
 5793POPC   C1A73239  18.451  12.859   6.187
 5793POPC   D2A73240  18.665  12.517   6.441
 5793POPC   C3A73241  18.520  12.478   6.871
 5793POPC   C4A73242  18.442  12.755   7.253
 5793POPC   C1B73243  17.976  13.049   6.294
 5793POPC   C2B73244  18.172  12.885   6.666
 5793POPC   C3B73245  18.048  13.045   7.068
 5793POPC   C4B73246  18.091  13.223   7.478
 5794POPC   NC373247  29.441  20.691   5.090
 5794POPC   PO473248  30.077  20.650   5.335
 5794POPC   GL173249  30.129  20.689   5.794
 5794POPC   GL273250  29.786  20.777   5.846
 5794POPC   C1A73251  30.059  20.544   6.234
 5794POPC   D2A73252  29.786  20.462   6.582
 5794POPC   C3A73253  30.037  20.371   6.928
 5794POPC   C4A73254  30.021  20.484   7.325
 5794POPC   C1B73255  29.740  21.009   6.223
 5794POPC   C2B73256  29.503  20.901   6.641
 5794POPC   C3B73257  29.693  20.776   7.030
 5794POPC   C4B73258  29.855  20.976   7.415
 5795POPC   NC373259  20.357  28.597   5.535
 5795POPC   PO473260  20.830  28.249   5.276
 5795POPC   GL173261  20.784  28.306   5.754
 5795POPC   GL273262  20.650  28.023   5.963
 5795POPC   C1A73263  20.585  28.491   6.169
 5795POPC   D2A73264  20.479  28.310   6.584
 5795POPC   C3A73265  20.485  28.597   6.893
 5795POPC   C4A73266  20.199  28.651   7.207
 5795POPC   C1B73267  20.990  28.174   6.224
 5795POPC   C2B73268  20.981  28.454   6.574
 5795POPC   C3B73269  20.912  28.340   6.988
 5795POPC   C4B73270  21.063  28.535   7.334
 5796POPC   NC373271  19.812  29.272   5.312
 5796POPC   PO473272  19.955  29.783   5.508
 5796POPC   GL173273  20.014  29.372   5.790
 5796POPC   GL273274  19.772  29.077   5.781
 5796POPC   C1A73275  19.927  29.211   6.250
 5796POPC   D2A73276  19.537  29.280   6.536
 5796POPC   C3A73277  19.542  29.156   6.989
 5796POPC   C4A73278  19.930  29.082   7.218
 5796POPC   C1B73279  19.623  28.810   6.156
 5796POPC   C2B73280  19.701  28.793   6.604
 5796POPC   C3B73281  19.702  28.658   7.027
 5796POPC   C4B73282  19.432  28.779   7.363
 5797POPC   NC373283  34.703  28.415   5.158
 5797POPC   PO473284  34.103  28.614   5.152
 5797POPC   GL173285  34.428  28.476   5.624
 5797POPC   GL273286  34.433  28.084   5.832
 5797POPC   C1A73287  34.625  28.438   6.106
 5797POPC   D2A73288  34.532  28.143   6.450
 5797POPC   C3A73289  34.543  28.324   6.867
 5797POPC   C4A73290  34.774  28.356   7.242
 5797POPC   C1B73291  34.136  27.937   6.129
 5797POPC   C2B73292  34.008  28.028   6.557
 5797POPC   C3B73293  34.265  27.881   6.893
 5797POPC   C4B73294  34.374  27.999   7.302
 5798POPC   NC373295  39.729  22.852   5.186
 5798POPC   PO473296  39.175  22.686   5.569
 5798POPC   GL173297  39.367  22.845   5.905
 5798POPC   GL273298  39.485  23.123   5.772
 5798POPC   C1A73299  39.341  22.812   6.330
 5798POPC   D2A73300  38.933  22.760   6.550
 5798POPC   C3A73301  39.010  22.770   6.978
 5798POPC   C4A73302  39.342  22.709   7.245
 5798POPC   C1B73303  39.421  23.284   6.185
 5798POPC   C2B73304  39.157  23.227   6.534
 5798POPC   C3B73305  39.206  23.263   6.932
 5798POPC   C4B73306  39.325  23.264   7.316
 5799POPC   NC373307  43.449  44.898   5.432
 5799POPC   PO473308  42.792  44.798   5.423
 5799POPC   GL173309  43.042  44.616   5.730
 5799POPC   GL273310  42.825  44.304   5.789
 5799POPC   C1A73311  43.257  44.770   6.108
 5799POPC   D2A73312  43.110  44.844   6.504
 5799POPC   C3A73313  43.206  44.657   6.876
 5799POPC   C4A73314  43.196  44.808   7.273
 5799POPC   C1B73315  42.792  44.291   6.266
 5799POPC   C2B73316  42.764  44.481   6.686
 5799POPC   C3B73317  42.814  44.455   7.146
 5799POPC   C4B73318  42.858  44.591   7.576
 5800POPC   NC373319  13.533  39.163   5.366
 5800POPC   PO473320  14.182  38.891   5.455
 5800POPC   GL173321  13.854  38.999   5.795
 5800POPC   GL273322  13.541  39.234   5.856
 5800POPC   C1A73323  13.696  38.930   6.234
 5800POPC   D2A73324  13.452  39.171   6.568
 5800POPC   C3A73325  13.496  39.099   7.021
 5800POPC   C4A73326  13.772  38.824   7.268
 5800POPC   C1B73327  13.786  39.485   6.116
 5800POPC   C2B73328  13.782  39.736   6.484
 5800POPC   C3B73329  13.699  39.577   6.879
 5800POPC   C4B73330  13.389  39.590   7.180
 5801POPC   NC373331   4.774   8.857   5.606
 5801POPC   PO473332   5.473   8.810   5.418
 5801POPC   GL173333   5.253   8.981   5.778
 5801POPC   GL273334   5.163   8.653   5.918
 5801POPC   C1A73335   5.116   9.177   6.182
 5801POPC   D2A73336   4.782   9.176   6.520
 5801POPC   C3A73337   4.938   9.245   6.943
 5801POPC   C4A73338   5.101   9.277   7.388
 5801POPC   C1B73339   4.957   8.709   6.332
 5801POPC   C2B73340   4.867   8.741   6.783
 5801POPC   C3B73341   5.135   8.801   7.132
 5801POPC   C4B73342   5.028   8.792   7.538
 5802POPC   NC373343   7.899  39.938   5.359
 5802POPC   PO473344   8.218  40.586   5.299
 5802POPC   GL173345   8.262  40.283   5.717
 5802POPC   GL273346   8.287  39.894   5.721
 5802POPC   C1A73347   8.097  40.106   6.140
 5802POPC   D2A73348   8.221  39.961   6.575
 5802POPC   C3A73349   8.119  40.099   7.012
 5802POPC   C4A73350   7.977  39.781   7.309
 5802POPC   C1B73351   8.480  39.745   6.154
 5802POPC   C2B73352   8.541  39.550   6.573
 5802POPC   C3B73353   8.434  39.628   6.993
 5802POPC   C4B73354   8.538  39.925   7.288
 5803POPC   NC373355  27.211  22.053   5.360
 5803POPC   PO473356  26.631  22.324   5.484
 5803POPC   GL173357  26.965  22.210   5.778
 5803POPC   GL273358  26.797  21.969   5.964
 5803POPC   C1A73359  27.158  22.285   6.177
 5803POPC   D2A73360  27.312  22.372   6.590
 5803POPC   C3A73361  27.032  22.210   6.901
 5803POPC   C4A73362  27.198  22.302   7.317
 5803POPC   C1B73363  26.801  22.041   6.445
 5803POPC   C2B73364  26.501  22.218   6.766
 5803POPC   C3B73365  26.577  22.215   7.197
 5803POPC   C4B73366  26.651  21.840   7.452
 5804POPC   NC373367  44.948  41.570   5.127
 5804POPC   PO473368   0.555  41.454   5.433
 5804POPC   GL173369   0.520  41.625   5.846
 5804POPC   GL273370   0.765  41.904   5.923
 5804POPC   C1A73371   0.353  41.726   6.262
 5804POPC   D2A73372   0.518  41.718   6.684
 5804POPC   C3A73373   0.252  41.542   7.014
 5804POPC   C4A73374   0.210  41.174   7.225
 5804POPC   C1B73375   0.850  41.573   6.265
 5804POPC   C2B73376   0.956  41.404   6.677
 5804POPC   C3B73377   0.772  41.475   7.061
 5804POPC   C4B73378   0.614  41.902   7.182
 5805POPC   NC373379  11.224  33.843   5.468
 5805POPC   PO473380  11.418  33.243   5.443
 5805POPC   GL173381  11.366  33.513   5.871
 5805POPC   GL273382  11.075  33.769   5.949
 5805POPC   C1A73383  11.335  33.600   6.353
 5805POPC   D2A73384  11.169  33.873   6.706
 5805POPC   C3A73385  11.364  33.797   7.129
 5805POPC   C4A73386  11.490  33.413   7.347
 5805POPC   C1B73387  11.066  34.138   6.245
 5805POPC   C2B73388  10.975  34.360   6.646
 5805POPC   C3B73389  11.146  34.252   7.056
 5805POPC   C4B73390  11.146  34.160   7.488
 5806POPC   NC373391  13.119  33.673   5.485
 5806POPC   PO473392  12.516  34.084   5.366
 5806POPC   GL173393  12.659  33.925   5.781
 5806POPC   GL273394  12.614  33.548   5.747
 5806POPC   C1A73395  12.777  34.103   6.226
 5806POPC   D2A73396  13.086  34.026   6.579
 5806POPC   C3A73397  12.824  34.000   6.935
 5806POPC   C4A73398  12.433  33.866   7.129
 5806POPC   C1B73399  12.855  33.609   6.146
 5806POPC   C2B73400  12.678  33.655   6.576
 5806POPC   C3B73401  12.764  33.486   6.987
 5806POPC   C4B73402  13.180  33.612   7.148
 5807POPC   NC373403  36.517   1.808   5.554
 5807POPC   PO473404  35.932   2.130   5.456
 5807POPC   GL173405  36.060   2.045   5.830
 5807POPC   GL273406  36.352   2.222   5.869
 5807POPC   C1A73407  35.946   2.131   6.264
 5807POPC   D2A73408  36.091   1.872   6.620
 5807POPC   C3A73409  36.143   2.010   7.049
 5807POPC   C4A73410  36.113   1.770   7.447
 5807POPC   C1B73411  36.421   1.929   6.199
 5807POPC   C2B73412  36.620   2.017   6.579
 5807POPC   C3B73413  36.740   1.791   6.907
 5807POPC   C4B73414  36.597   1.908   7.283
 5808POPC   NC373415  22.037  17.691   5.661
 5808POPC   PO473416  22.433  17.140   5.546
 5808POPC   GL173417  22.372  17.404   5.953
 5808POPC   GL273418  22.506  17.756   5.896
 5808POPC   C1A73419  22.063  17.587   6.297
 5808POPC   D2A73420  21.778  17.637   6.667
 5808POPC   C3A73421  22.084  17.626   7.022
 5808POPC   C4A73422  22.147  17.514   7.485
 5808POPC   C1B73423  22.496  17.850   6.294
 5808POPC   C2B73424  22.480  17.637   6.665
 5808POPC   C3B73425  22.479  17.946   6.976
 5808POPC   C4B73426  22.270  18.021   7.369
 5809POPC   NC373427  34.851  36.948   5.476
 5809POPC   PO473428  34.346  37.230   5.704
 5809POPC   GL173429  34.364  36.879   5.948
 5809POPC   GL273430  34.669  36.760   5.921
 5809POPC   C1A73431  34.340  36.854   6.382
 5809POPC   D2A73432  34.167  37.117   6.709
 5809POPC   C3A73433  34.390  36.989   7.077
 5809POPC   C4A73434  34.818  37.068   7.193
 5809POPC   C1B73435  34.819  37.004   6.261
 5809POPC   C2B73436  34.725  36.955   6.687
 5809POPC   C3B73437  34.746  36.602   6.936
 5809POPC   C4B73438  35.022  36.568   7.251
 5810POPC   NC373439  32.105  29.018   5.366
 5810POPC   PO473440  32.719  28.849   5.465
 5810POPC   GL173441  32.492  29.064   5.785
 5810POPC   GL273442  32.121  29.023   5.859
 5810POPC   C1A73443  32.470  29.212   6.198
 5810POPC   D2A73444  32.214  29.181   6.569
 5810POPC   C3A73445  32.459  29.199   6.922
 5810POPC   C4A73446  32.568  28.920   7.287
 5810POPC   C1B73447  31.977  29.368   6.129
 5810POPC   C2B73448  31.862  29.563   6.533
 5810POPC   C3B73449  31.840  29.406   6.967
 5810POPC   C4B73450  32.071  29.154   7.223
 5811POPC   NC373451  27.226  12.378   5.615
 5811POPC   PO473452  27.717  11.985   5.539
 5811POPC   GL173453  27.558  12.080   5.955
 5811POPC   GL273454  27.205  12.024   6.007
 5811POPC   C1A73455  27.514  11.925   6.397
 5811POPC   D2A73456  27.776  11.792   6.728
 5811POPC   C3A73457  27.815  12.030   7.076
 5811POPC   C4A73458  27.832  12.251   7.420
 5811POPC   C1B73459  27.278  12.387   6.273
 5811POPC   C2B73460  27.215  12.258   6.669
 5811POPC   C3B73461  27.312  11.923   6.926
 5811POPC   C4B73462  27.383  11.970   7.356
 5812POPC   NC373463  19.213   3.549   5.484
 5812POPC   PO473464  18.783   4.011   5.628
 5812POPC   GL173465  18.947   3.676   5.943
 5812POPC   GL273466  19.264   3.437   5.979
 5812POPC   C1A73467  19.029   3.653   6.390
 5812POPC   D2A73468  19.284   3.401   6.642
 5812POPC   C3A73469  19.331   3.615   7.038
 5812POPC   C4A73470  18.956   3.873   7.121
 5812POPC   C1B73471  18.963   3.174   6.235
 5812POPC   C2B73472  18.775   3.219   6.663
 5812POPC   C3B73473  18.911   3.315   7.104
 5812POPC   C4B73474  18.742   3.230   7.532
 5813POPC   NC373475   0.976  21.148   5.551
 5813POPC   PO473476   1.478  21.376   5.164
 5813POPC   GL173477   1.338  21.520   5.701
 5813POPC   GL273478   1.004  21.519   5.910
 5813POPC   C1A73479   1.432  21.400   6.173
 5813POPC   D2A73480   1.338  21.180   6.591
 5813POPC   C3A73481   1.218  21.407   6.977
 5813POPC   C4A73482   1.481  21.553   7.310
 5813POPC   C1B73483   0.987  21.129   6.199
 5813POPC   C2B73484   0.883  20.933   6.598
 5813POPC   C3B73485   1.048  20.929   7.010
 5813POPC   C4B73486   0.880  21.052   7.409
 5814POPC   NC373487  38.046  29.247   5.460
 5814POPC   PO473488  37.648  28.719   5.581
 5814POPC   GL173489  37.548  28.900   5.993
 5814POPC   GL273490  37.729  29.221   5.923
 5814POPC   C1A73491  37.590  29.116   6.405
 5814POPC   D2A73492  37.879  29.363   6.616
 5814POPC   C3A73493  37.857  29.278   7.070
 5814POPC   C4A73494  37.561  29.007   7.232
 5814POPC   C1B73495  37.565  29.587   6.185
 5814POPC   C2B73496  37.535  29.726   6.606
 5814POPC   C3B73497  37.412  29.398   6.874
 5814POPC   C4B73498  37.220  29.409   7.256
 5815POPC   NC373499  29.243   7.783   5.316
 5815POPC   PO473500  28.748   8.215   5.478
 5815POPC   GL173501  29.021   8.251   5.814
 5815POPC   GL273502  29.201   7.974   5.781
 5815POPC   C1A73503  29.084   8.389   6.240
 5815POPC   D2A73504  29.135   8.242   6.680
 5815POPC   C3A73505  29.076   8.498   7.049
 5815POPC   C4A73506  28.855   8.423   7.455
 5815POPC   C1B73507  29.171   7.862   6.220
 5815POPC   C2B73508  29.387   7.810   6.605
 5815POPC   C3B73509  29.300   7.700   7.003
 5815POPC   C4B73510  29.191   8.037   7.191
 5816POPC   NC373511  38.580   0.586   5.499
 5816POPC   PO473512  38.049   0.196   5.525
 5816POPC   GL173513  38.322   0.322   5.861
 5816POPC   GL273514  38.133   0.602   5.930
 5816POPC   C1A73515  38.462   0.487   6.304
 5816POPC   D2A73516  38.179   0.434   6.653
 5816POPC   C3A73517  38.298   0.284   7.044
 5816POPC   C4A73518  38.740   0.227   7.084
 5816POPC   C1B73519  38.119   0.885   6.285
 5816POPC   C2B73520  38.387   0.937   6.627
 5816POPC   C3B73521  38.635   0.724   6.937
 5816POPC   C4B73522  38.519   0.618   7.345
 5817POPC   NC373523  28.865  15.498   5.383
 5817POPC   PO473524  28.803  14.849   5.411
 5817POPC   GL173525  29.026  15.031   5.812
 5817POPC   GL273526  29.380  14.879   5.907
 5817POPC   C1A73527  28.980  14.952   6.278
 5817POPC   D2A73528  28.879  14.795   6.706
 5817POPC   C3A73529  28.934  15.141   7.008
 5817POPC   C4A73530  29.116  15.411   7.373
 5817POPC   C1B73531  29.478  15.062   6.303
 5817POPC   C2B73532  29.443  15.300   6.684
 5817POPC   C3B73533  29.445  15.158   7.087
 5817POPC   C4B73534  29.430  14.955   7.492
 5818POPC   NC373535   6.918  33.472   5.579
 5818POPC   PO473536   6.759  32.923   5.261
 5818POPC   GL173537   6.562  33.042   5.682
 5818POPC   GL273538   6.809  33.119   5.945
 5818POPC   C1A73539   6.361  32.906   6.094
 5818POPC   D2A73540   6.469  32.798   6.539
 5818POPC   C3A73541   6.344  33.066   6.887
 5818POPC   C4A73542   6.351  33.024   7.321
 5818POPC   C1B73543   6.621  33.271   6.362
 5818POPC   C2B73544   6.784  33.308   6.807
 5818POPC   C3B73545   6.853  33.020   7.204
 5818POPC   C4B73546   6.723  33.144   7.653
 5819POPC   NC373547   9.436  25.702   5.435
 5819POPC   PO473548   9.206  26.343   5.403
 5819POPC   GL173549   9.138  26.216   5.826
 5819POPC   GL273550   9.241  26.537   5.876
 5819POPC   C1A73551   8.922  25.953   6.167
 5819POPC   D2A73552   8.646  25.916   6.554
 5819POPC   C3A73553   8.923  25.895   6.930
 5819POPC   C4A73554   8.926  26.064   7.368
 5819POPC   C1B73555   8.988  26.471   6.250
 5819POPC   C2B73556   9.033  26.259   6.606
 5819POPC   C3B73557   9.312  26.272   6.930
 5819POPC   C4B73558   9.325  26.525   7.239
 5820POPC   NC373559  17.206  34.669   5.517
 5820POPC   PO473560  17.531  34.125   5.501
 5820POPC   GL173561  17.708  34.316   5.851
 5820POPC   GL273562  17.741  34.680   5.753
 5820POPC   C1A73563  17.606  34.440   6.262
 5820POPC   D2A73564  17.453  34.647   6.635
 5820POPC   C3A73565  17.485  34.409   6.991
 5820POPC   C4A73566  17.484  34.249   7.413
 5820POPC   C1B73567  17.998  34.750   6.129
 5820POPC   C2B73568  18.057  34.789   6.583
 5820POPC   C3B73569  17.912  34.733   7.014
 5820POPC   C4B73570  17.576  34.767   7.323
 5821POPC   NC373571  44.404  10.447   5.481
 5821POPC   PO473572   0.073  10.685   5.572
 5821POPC   GL173573  44.794  10.445   5.797
 5821POPC   GL273574  44.966  10.200   5.930
 5821POPC   C1A73575  44.514  10.435   6.158
 5821POPC   D2A73576  44.600  10.564   6.578
 5821POPC   C3A73577  44.361  10.396   6.906
 5821POPC   C4A73578  44.490  10.607   7.230
 5821POPC   C1B73579   0.015  10.567   6.239
 5821POPC   C2B73580   0.021  10.910   6.564
 5821POPC   C3B73581   0.004  10.769   6.994
 5821POPC   C4B73582  44.962  10.574   7.408
 5822POPC   NC373583  14.661  43.474   5.496
 5822POPC   PO473584  14.520  44.138   5.429
 5822POPC   GL173585  14.532  43.926   5.809
 5822POPC   GL273586  14.218  43.748   5.828
 5822POPC   C1A73587  14.410  44.003   6.223
 5822POPC   D2A73588  14.384  43.835   6.592
 5822POPC   C3A73589  14.455  44.096   6.938
 5822POPC   C4A73590  14.488  43.979   7.333
 5822POPC   C1B73591  14.005  43.644   6.235
 5822POPC   C2B73592  13.912  43.630   6.691
 5822POPC   C3B73593  14.223  43.644   7.028
 5822POPC   C4B73594  14.301  43.517   7.422
 5823POPC   NC373595  38.474   8.628   5.674
 5823POPC   PO473596  38.306   7.997   5.297
 5823POPC   GL173597  38.325   8.142   5.782
 5823POPC   GL273598  38.587   8.189   5.929
 5823POPC   C1A73599  38.207   8.317   6.229
 5823POPC   D2A73600  38.081   8.245   6.670
 5823POPC   C3A73601  38.303   8.367   7.077
 5823POPC   C4A73602  38.307   8.042   7.437
 5823POPC   C1B73603  38.798   8.340   6.256
 5823POPC   C2B73604  38.619   8.415   6.651
 5823POPC   C3B73605  38.854   8.411   7.016
 5823POPC   C4B73606  38.733   8.313   7.418
 5824POPC   NC373607   8.595  13.489   5.510
 5824POPC   PO473608   8.110  13.960   5.493
 5824POPC   GL173609   8.244  13.749   5.821
 5824POPC   GL273610   8.151  13.390   5.779
 5824POPC   C1A73611   8.446  13.834   6.199
 5824POPC   D2A73612   8.213  13.768   6.559
 5824POPC   C3A73613   8.346  13.909   6.941
 5824POPC   C4A73614   8.259  13.762   7.346
 5824POPC   C1B73615   7.941  13.499   6.171
 5824POPC   C2B73616   7.809  13.362   6.561
 5824POPC   C3B73617   7.947  13.535   6.925
 5824POPC   C4B73618   7.765  13.586   7.281
 5825POPC   NC373619  17.277  24.205   5.553
 5825POPC   PO473620  17.417  24.837   5.380
 5825POPC   GL173621  17.616  24.835   5.779
 5825POPC   GL273622  17.575  24.483   5.868
 5825POPC   C1A73623  17.520  24.848   6.206
 5825POPC   D2A73624  17.315  24.628   6.553
 5825POPC   C3A73625  17.406  24.756   6.935
 5825POPC   C4A73626  17.499  24.617   7.353
 5825POPC   C1B73627  17.654  24.215   6.241
 5825POPC   C2B73628  17.754  24.303   6.700
 5825POPC   C3B73629  17.772  24.129   7.135
 5825POPC   C4B73630  17.638  24.198   7.599
 5826POPC   NC373631  43.146  18.505   5.470
 5826POPC   PO473632  43.215  17.836   5.672
 5826POPC   GL173633  43.154  18.216   5.895
 5826POPC   GL273634  42.846  18.450   5.885
 5826POPC   C1A73635  43.297  18.352   6.288
 5826POPC   D2A73636  43.176  18.214   6.695
 5826POPC   C3A73637  43.250  18.392   7.074
 5826POPC   C4A73638  43.166  18.205   7.458
 5826POPC   C1B73639  42.785  18.208   6.242
 5826POPC   C2B73640  42.805  18.509   6.520
 5826POPC   C3B73641  42.777  18.546   6.922
 5826POPC   C4B73642  42.859  18.606   7.334
 5827POPC   NC373643  30.905  43.167   5.205
 5827POPC   PO473644  30.398  42.891   5.532
 5827POPC   GL173645  30.614  43.229   5.749
 5827POPC   GL273646  30.958  43.215   5.725
 5827POPC   C1A73647  30.489  43.412   6.154
 5827POPC   D2A73648  30.539  43.173   6.538
 5827POPC   C3A73649  30.346  43.027   6.927
 5827POPC   C4A73650  30.287  42.655   7.161
 5827POPC   C1B73651  30.916  43.120   6.157
 5827POPC   C2B73652  31.030  42.935   6.534
 5827POPC   C3B73653  30.873  42.943   6.917
 5827POPC   C4B73654  30.754  42.841   7.287
 5828POPC   NC373655  14.137  15.601   5.458
 5828POPC   PO473656  14.701  15.178   5.562
 5828POPC   GL173657  14.522  15.191   6.004
 5828POPC   GL273658  14.158  15.334   5.940
 5828POPC   C1A73659  14.312  15.336   6.418
 5828POPC   D2A73660  14.206  15.404   6.841
 5828POPC   C3A73661  14.565  15.280   7.045
 5828POPC   C4A73662  14.870  15.498   7.295
 5828POPC   C1B73663  14.084  14.937   6.186
 5828POPC   C2B73664  14.214  14.788   6.552
 5828POPC   C3B73665  14.166  14.920   6.943
 5828POPC   C4B73666  14.142  15.148   7.310
 5829POPC   NC373667  36.261   0.221   5.697
 5829POPC   PO473668  35.942   0.749   5.420
 5829POPC   GL173669  36.070   0.673   5.883
 5829POPC   GL273670  36.434   0.673   5.918
 5829POPC   C1A73671  35.961   0.374   6.255
 5829POPC   D2A73672  36.124   0.205   6.657
 5829POPC   C3A73673  35.792   0.234   6.966
 5829POPC   C4A73674  35.633   0.631   7.124
 5829POPC   C1B73675  36.436   0.518   6.325
 5829POPC   C2B73676  36.378   0.723   6.704
 5829POPC   C3B73677  36.205   0.520   7.065
 5829POPC   C4B73678  36.285   0.079   7.152
 5830POPC   NC373679   7.255  27.603   5.516
 5830POPC   PO473680   7.835  27.759   5.504
 5830POPC   GL173681   7.636  27.722   5.901
 5830POPC   GL273682   7.289  27.768   5.989
 5830POPC   C1A73683   7.582  27.403   6.213
 5830POPC   D2A73684   7.423  27.197   6.555
 5830POPC   C3A73685   7.588  27.151   6.959
 5830POPC   C4A73686   7.464  27.367   7.333
 5830POPC   C1B73687   6.958  27.536   6.194
 5830POPC   C2B73688   6.911  27.376   6.608
 5830POPC   C3B73689   7.161  27.484   6.936
 5830POPC   C4B73690   7.063  27.760   7.288
 5831POPC   NC373691   2.957  42.601   5.576
 5831POPC   PO473692   2.702  41.940   5.552
 5831POPC   GL173693   2.759  42.241   5.848
 5831POPC   GL273694   2.459  42.343   5.965
 5831POPC   C1A73695   2.867  42.505   6.229
 5831POPC   D2A73696   2.752  42.616   6.646
 5831POPC   C3A73697   2.996  42.412   6.995
 5831POPC   C4A73698   2.863  42.530   7.431
 5831POPC   C1B73699   2.661  42.025   6.278
 5831POPC   C2B73700   2.693  42.104   6.706
 5831POPC   C3B73701   2.500  42.342   7.043
 5831POPC   C4B73702   2.621  41.990   7.256
 5832POPC   NC373703  35.109  16.336   5.513
 5832POPC   PO473704  35.561  15.879   5.542
 5832POPC   GL173705  35.442  15.884   5.935
 5832POPC   GL273706  35.402  16.211   5.904
 5832POPC   C1A73707  35.551  16.012   6.362
 5832POPC   D2A73708  35.681  15.721   6.663
 5832POPC   C3A73709  35.385  15.599   6.949
 5832POPC   C4A73710  35.550  15.493   7.311
 5832POPC   C1B73711  35.086  16.254   6.216
 5832POPC   C2B73712  35.175  16.342   6.642
 5832POPC   C3B73713  35.403  16.122   6.899
 5832POPC   C4B73714  35.261  15.968   7.278
 5833POPC   NC373715  24.921  23.688   5.479
 5833POPC   PO473716  24.254  23.849   5.684
 5833POPC   GL173717  24.449  23.562   5.928
 5833POPC   GL273718  24.135  23.397   6.015
 5833POPC   C1A73719  24.707  23.470   6.320
 5833POPC   D2A73720  24.888  23.279   6.718
 5833POPC   C3A73721  24.711  23.492   7.061
 5833POPC   C4A73722  24.816  23.970   7.116
 5833POPC   C1B73723  24.208  23.672   6.352
 5833POPC   C2B73724  24.462  23.799   6.682
 5833POPC   C3B73725  24.326  23.826   7.072
 5833POPC   C4B73726  24.242  23.457   7.281
 5834POPC   NC373727   9.107   5.385   5.607
 5834POPC   PO473728   8.937   4.787   5.337
 5834POPC   GL173729   8.673   4.772   5.721
 5834POPC   GL273730   8.686   5.141   5.842
 5834POPC   C1A73731   8.836   4.739   6.170
 5834POPC   D2A73732   9.130   4.882   6.498
 5834POPC   C3A73733   9.020   4.784   6.926
 5834POPC   C4A73734   8.902   4.966   7.326
 5834POPC   C1B73735   8.819   5.259   6.285
 5834POPC   C2B73736   8.892   5.273   6.746
 5834POPC   C3B73737   8.566   5.280   7.082
 5834POPC   C4B73738   8.525   5.269   7.545
 5835POPC   NC373739  17.646  23.552   5.416
 5835POPC   PO473740  17.806  24.166   5.540
 5835POPC   GL173741  17.539  23.865   5.828
 5835POPC   GL273742  17.317  23.538   5.804
 5835POPC   C1A73743  17.464  23.734   6.253
 5835POPC   D2A73744  17.681  23.798   6.627
 5835POPC   C3A73745  17.425  23.780   6.955
 5835POPC   C4A73746  17.473  23.785   7.380
 5835POPC   C1B73747  17.117  23.354   6.181
 5835POPC   C2B73748  17.250  23.229   6.628
 5835POPC   C3B73749  17.280  23.322   7.090
 5835POPC   C4B73750  17.275  23.358   7.572
 5836POPC   NC373751  31.581   1.576   5.547
 5836POPC   PO473752  31.154   1.088   5.541
 5836POPC   GL173753  31.490   1.177   5.849
 5836POPC   GL273754  31.814   1.085   5.732
 5836POPC   C1A73755  31.732   1.367   6.190
 5836POPC   D2A73756  31.727   1.225   6.608
 5836POPC   C3A73757  31.500   1.458   6.929
 5836POPC   C4A73758  31.532   1.652   7.329
 5836POPC   C1B73759  31.783   0.836   6.129
 5836POPC   C2B73760  31.732   0.715   6.574
 5836POPC   C3B73761  31.818   0.787   7.018
 5836POPC   C4B73762  31.851   1.206   7.190
 5837POPC   NC373763   7.989  17.796   5.293
 5837POPC   PO473764   8.370  17.163   5.443
 5837POPC   GL173765   8.132  17.170   5.815
 5837POPC   GL273766   7.963  17.456   5.694
 5837POPC   C1A73767   8.215  17.384   6.206
 5837POPC   D2A73768   8.328  17.546   6.627
 5837POPC   C3A73769   8.238  17.309   6.980
 5837POPC   C4A73770   8.475  17.087   7.267
 5837POPC   C1B73771   8.045  17.807   5.984
 5837POPC   C2B73772   7.971  17.863   6.427
 5837POPC   C3B73773   7.912  17.760   6.870
 5837POPC   C4B73774   8.125  17.724   7.246
 5838POPC   NC373775  17.236   6.165   5.652
 5838POPC   PO473776  17.607   5.780   5.206
 5838POPC   GL173777  17.506   5.673   5.658
 5838POPC   GL273778  17.147   5.658   5.778
 5838POPC   C1A73779  17.763   5.627   6.038
 5838POPC   D2A73780  17.750   5.886   6.408
 5838POPC   C3A73781  17.796   5.770   6.842
 5838POPC   C4A73782  17.522   5.871   7.184
 5838POPC   C1B73783  17.286   5.687   6.241
 5838POPC   C2B73784  17.294   5.790   6.697
 5838POPC   C3B73785  17.207   6.181   6.923
 5838POPC   C4B73786  17.074   6.195   7.343
 5839POPC   NC373787  23.237  13.415   5.547
 5839POPC   PO473788  22.669  13.649   5.257
 5839POPC   GL173789  22.871  13.754   5.708
 5839POPC   GL273790  22.861  13.435   5.882
 5839POPC   C1A73791  22.827  13.794   6.222
 5839POPC   D2A73792  22.713  13.889   6.677
 5839POPC   C3A73793  22.718  13.628   7.030
 5839POPC   C4A73794  22.820  13.668   7.482
 5839POPC   C1B73795  23.052  13.344   6.301
 5839POPC   C2B73796  23.065  13.433   6.720
 5839POPC   C3B73797  23.117  13.355   7.176
 5839POPC   C4B73798  23.218  13.138   7.553
 5840POPC   NC373799  42.003   6.994   5.420
 5840POPC   PO473800  42.702   7.133   5.347
 5840POPC   GL173801  42.465   7.386   5.611
 5840POPC   GL273802  42.712   7.356   5.844
 5840POPC   C1A73803  42.216   7.412   6.009
 5840POPC   D2A73804  42.181   7.307   6.466
 5840POPC   C3A73805  42.076   7.621   6.806
 5840POPC   C4A73806  42.179   7.622   7.253
 5840POPC   C1B73807  42.686   7.541   6.242
 5840POPC   C2B73808  42.560   7.637   6.661
 5840POPC   C3B73809  42.699   7.631   7.095
 5840POPC   C4B73810  42.795   7.379   7.456
 5841POPC   NC373811  40.646  26.355   5.485
 5841POPC   PO473812  41.034  25.867   5.181
 5841POPC   GL173813  40.892  25.860   5.693
 5841POPC   GL273814  40.673  26.085   5.903
 5841POPC   C1A73815  41.057  25.907   6.170
 5841POPC   D2A73816  40.967  26.248   6.511
 5841POPC   C3A73817  40.951  26.163   6.963
 5841POPC   C4A73818  41.000  25.771   7.151
 5841POPC   C1B73819  40.483  26.209   6.297
 5841POPC   C2B73820  40.464  26.149   6.759
 5841POPC   C3B73821  40.529  26.371   7.138
 5841POPC   C4B73822  40.431  26.266   7.542
 5842POPC   NC373823  25.912  39.335   5.544
 5842POPC   PO473824  26.426  39.625   5.273
 5842POPC   GL173825  26.346  39.486   5.734
 5842POPC   GL273826  26.255  39.148   5.884
 5842POPC   C1A73827  26.158  39.552   6.176
 5842POPC   D2A73828  26.002  39.675   6.603
 5842POPC   C3A73829  26.091  39.422   6.942
 5842POPC   C4A73830  26.262  39.506   7.319
 5842POPC   C1B73831  25.930  39.089   6.236
 5842POPC   C2B73832  25.698  39.239   6.599
 5842POPC   C3B73833  25.682  39.146   7.070
 5842POPC   C4B73834  25.953  39.123   7.443
 5843POPC   NC373835  35.392  29.390   5.239
 5843POPC   PO473836  35.103  28.717   5.124
 5843POPC   GL173837  35.196  28.915   5.592
 5843POPC   GL273838  35.455  29.140   5.737
 5843POPC   C1A73839  35.161  28.944   6.099
 5843POPC   D2A73840  35.380  28.882   6.561
 5843POPC   C3A73841  35.258  29.071   7.012
 5843POPC   C4A73842  35.476  29.063   7.441
 5843POPC   C1B73843  35.538  29.278   6.216
 5843POPC   C2B73844  35.481  29.417   6.665
 5843POPC   C3B73845  35.696  29.333   7.080
 5843POPC   C4B73846  35.653  29.528   7.526
 5844POPC   NC373847  16.300  38.261   5.385
 5844POPC   PO473848  16.750  38.751   5.515
 5844POPC   GL173849  16.666  38.440   5.816
 5844POPC   GL273850  16.485  38.149   5.839
 5844POPC   C1A73851  16.811  38.377   6.220
 5844POPC   D2A73852  16.990  38.642   6.504
 5844POPC   C3A73853  16.969  38.436   6.869
 5844POPC   C4A73854  16.674  38.476   7.146
 5844POPC   C1B73855  16.350  38.166   6.247
 5844POPC   C2B73856  16.491  38.276   6.654
 5844POPC   C3B73857  16.238  38.216   7.025
 5844POPC   C4B73858  16.184  38.238   7.469
 5845POPC   NC373859  39.015  27.870   5.400
 5845POPC   PO473860  39.516  27.332   5.410
 5845POPC   GL173861  39.217  27.464   5.731
 5845POPC   GL273862  39.319  27.830   5.825
 5845POPC   C1A73863  39.158  27.366   6.180
 5845POPC   D2A73864  39.367  27.276   6.588
 5845POPC   C3A73865  39.334  27.502   6.965
 5845POPC   C4A73866  39.300  27.186   7.245
 5845POPC   C1B73867  39.305  27.860   6.286
 5845POPC   C2B73868  39.011  27.660   6.565
 5845POPC   C3B73869  38.848  27.727   6.921
 5845POPC   C4B73870  39.061  27.786   7.301
 5846POPC   NC373871  13.323  40.820   5.306
 5846POPC   PO473872  13.828  40.456   5.429
 5846POPC   GL173873  13.698  40.597   5.845
 5846POPC   GL273874  13.611  40.946   5.754
 5846POPC   C1A73875  13.897  40.595   6.294
 5846POPC   D2A73876  13.939  40.576   6.760
 5846POPC   C3A73877  13.535  40.486   6.916
 5846POPC   C4A73878  13.313  40.598   7.276
 5846POPC   C1B73879  13.737  41.084   6.184
 5846POPC   C2B73880  13.604  40.944   6.622
 5846POPC   C3B73881  13.692  40.949   7.054
 5846POPC   C4B73882  13.452  41.093   7.370
 5847POPC   NC373883  28.804  44.974   5.396
 5847POPC   PO473884  29.457  44.560   5.416
 5847POPC   GL173885  29.294  44.586   5.837
 5847POPC   GL273886  28.976  44.790   5.844
 5847POPC   C1A73887  29.057  44.456   6.220
 5847POPC   D2A73888  28.941  44.696   6.588
 5847POPC   C3A73889  29.220  44.728   6.949
 5847POPC   C4A73890  29.072  44.827   7.352
 5847POPC   C1B73891  29.128   0.003   6.216
 5847POPC   C2B73892  29.143   0.219   6.631
 5847POPC   C3B73893  29.350   0.201   7.051
 5847POPC   C4B73894  29.390   0.193   7.513
 5848POPC   NC373895  42.125   5.272   5.522
 5848POPC   PO473896  42.582   4.810   5.512
 5848POPC   GL173897  42.389   4.989   5.895
 5848POPC   GL273898  42.014   4.977   5.934
 5848POPC   C1A73899  42.476   5.173   6.296
 5848POPC   D2A73900  42.637   5.395   6.655
 5848POPC   C3A73901  42.607   5.088   6.996
 5848POPC   C4A73902  42.451   4.866   7.367
 5848POPC   C1B73903  41.961   4.949   6.361
 5848POPC   C2B73904  42.133   5.065   6.746
 5848POPC   C3B73905  42.129   4.738   7.009
 5848POPC   C4B73906  41.951   4.601   7.384
 5849POPC   NC373907   2.752  37.584   5.352
 5849POPC   PO473908   2.733  38.263   5.305
 5849POPC   GL173909   2.947  38.007   5.675
 5849POPC   GL273910   2.682  37.820   5.837
 5849POPC   C1A73911   3.005  38.003   6.181
 5849POPC   D2A73912   3.012  37.779   6.632
 5849POPC   C3A73913   3.014  38.013   7.033
 5849POPC   C4A73914   2.965  38.147   7.473
 5849POPC   C1B73915   2.605  37.667   6.279
 5849POPC   C2B73916   2.382  37.664   6.675
 5849POPC   C3B73917   2.627  37.621   7.028
 5849POPC   C4B73918   3.033  37.412   7.112
 5850POPC   NC373919  12.805  12.257   5.001
 5850POPC   PO473920  13.131  11.876   5.419
 5850POPC   GL173921  12.912  12.114   5.810
 5850POPC   GL273922  12.596  12.172   6.042
 5850POPC   C1A73923  13.050  12.292   6.198
 5850POPC   D2A73924  13.085  12.140   6.633
 5850POPC   C3A73925  13.257  12.133   7.054
 5850POPC   C4A73926  13.145  12.499   7.336
 5850POPC   C1B73927  12.760  11.780   6.164
 5850POPC   C2B73928  12.720  11.752   6.577
 5850POPC   C3B73929  12.630  12.061   6.885
 5850POPC   C4B73930  12.805  12.132   7.289
 5851POPC   NC373931   6.152  43.086   5.623
 5851POPC   PO473932   5.574  43.434   5.424
 5851POPC   GL173933   5.760  43.370   5.802
 5851POPC   GL273934   5.673  43.048   5.859
 5851POPC   C1A73935   5.968  43.287   6.218
 5851POPC   D2A73936   6.079  42.954   6.508
 5851POPC   C3A73937   5.817  43.069   6.844
 5851POPC   C4A73938   5.863  43.260   7.229
 5851POPC   C1B73939   5.629  42.846   6.263
 5851POPC   C2B73940   5.704  42.597   6.627
 5851POPC   C3B73941   6.043  42.604   6.889
 5851POPC   C4B73942   5.978  42.768   7.260
 5852POPC   NC373943  28.682  43.362   5.615
 5852POPC   PO473944  28.113  43.211   5.255
 5852POPC   GL173945  28.088  43.173   5.766
 5852POPC   GL273946  28.386  43.336   6.024
 5852POPC   C1A73947  27.976  43.112   6.205
 5852POPC   D2A73948  28.241  43.289   6.537
 5852POPC   C3A73949  28.205  43.099   6.948
 5852POPC   C4A73950  27.889  42.955   7.195
 5852POPC   C1B73951  28.757  43.594   6.240
 5852POPC   C2B73952  28.749  43.758   6.657
 5852POPC   C3B73953  28.471  43.567   6.912
 5852POPC   C4B73954  28.445  43.387   7.297
 5853POPC   NC373955  15.690  18.735   5.495
 5853POPC   PO473956  15.987  19.315   5.381
 5853POPC   GL173957  15.868  19.165   5.819
 5853POPC   GL273958  15.665  18.869   5.961
 5853POPC   C1A73959  15.879  19.216   6.279
 5853POPC   D2A73960  15.818  19.378   6.689
 5853POPC   C3A73961  16.099  19.338   7.005
 5853POPC   C4A73962  15.855  19.259   7.367
 5853POPC   C1B73963  16.075  18.758   6.123
 5853POPC   C2B73964  16.081  18.798   6.562
 5853POPC   C3B73965  15.883  18.872   6.953
 5853POPC   C4B73966  16.222  18.908   7.242
 5854POPC   NC373967  38.889  23.069   5.493
 5854POPC   PO473968  38.520  22.573   5.379
 5854POPC   GL173969  38.448  22.736   5.792
 5854POPC   GL273970  38.195  23.004   5.852
 5854POPC   C1A73971  38.612  22.944   6.186
 5854POPC   D2A73972  38.616  23.167   6.614
 5854POPC   C3A73973  38.510  22.863   6.941
 5854POPC   C4A73974  38.559  22.755   7.382
 5854POPC   C1B73975  38.239  23.296   6.249
 5854POPC   C2B73976  38.096  23.345   6.703
 5854POPC   C3B73977  38.035  23.056   7.026
 5854POPC   C4B73978  38.085  22.601   7.113
 5855POPC   NC373979  33.820   5.531   5.644
 5855POPC   PO473980  33.971   5.990   5.246
 5855POPC   GL173981  34.008   6.025   5.735
 5855POPC   GL273982  33.658   5.985   5.888
 5855POPC   C1A73983  34.024   5.882   6.211
 5855POPC   D2A73984  33.780   5.884   6.599
 5855POPC   C3A73985  33.943   6.030   6.959
 5855POPC   C4A73986  34.169   5.982   7.318
 5855POPC   C1B73987  33.598   5.593   6.220
 5855POPC   C2B73988  33.465   5.486   6.635
 5855POPC   C3B73989  33.667   5.542   7.029
 5855POPC   C4B73990  33.670   5.835   7.356
 5856POPC   NC373991  20.474   4.763   5.560
 5856POPC   PO473992  20.363   4.122   5.623
 5856POPC   GL173993  20.679   4.284   5.933
 5856POPC   GL273994  20.872   4.599   5.853
 5856POPC   C1A73995  20.655   4.296   6.385
 5856POPC   D2A73996  20.300   4.331   6.656
 5856POPC   C3A73997  20.431   4.447   7.040
 5856POPC   C4A73998  20.738   4.442   7.368
 5856POPC   C1B73999  20.858   4.769   6.269
 5856POPC   C2B74000  20.843   4.668   6.712
 5856POPC   C3B74001  20.662   4.893   7.052
 5856POPC   C4B74002  20.694   4.925   7.484
 5857POPC   NC374003  22.367  15.916   5.608
 5857POPC   PO474004  21.751  15.749   5.258
 5857POPC   GL174005  21.750  16.047   5.643
 5857POPC   GL274006  21.663  15.826   5.877
 5857POPC   C1A74007  21.891  16.181   6.124
 5857POPC   D2A74008  21.873  16.022   6.568
 5857POPC   C3A74009  21.962  16.247   6.974
 5857POPC   C4A74010  22.340  16.156   7.256
 5857POPC   C1B74011  21.985  15.660   6.114
 5857POPC   C2B74012  22.068  15.522   6.519
 5857POPC   C3B74013  22.118  15.735   6.915
 5857POPC   C4B74014  21.889  15.827   7.255
 5858POPC   NC374015  10.632  20.585   5.427
 5858POPC   PO474016  10.134  20.133   5.373
 5858POPC   GL174017  10.218  20.427   5.749
 5858POPC   GL274018  10.371  20.820   5.786
 5858POPC   C1A74019  10.514  20.411   6.094
 5858POPC   D2A74020  10.679  20.719   6.368
 5858POPC   C3A74021  10.628  20.670   6.812
 5858POPC   C4A74022  10.540  20.393   7.136
 5858POPC   C1B74023  10.171  20.775   6.162
 5858POPC   C2B74024  10.166  20.533   6.509
 5858POPC   C3B74025  10.058  20.536   6.910
 5858POPC   C4B74026  10.198  20.764   7.234
 5859POPC   NC374027  37.251  34.071   5.190
 5859POPC   PO474028  36.643  33.910   5.599
 5859POPC   GL174029  36.851  33.822   5.957
 5859POPC   GL274030  36.737  33.534   5.958
 5859POPC   C1A74031  37.090  33.947   6.301
 5859POPC   D2A74032  36.965  33.920   6.722
 5859POPC   C3A74033  37.190  34.088   7.032
 5859POPC   C4A74034  37.202  33.784   7.299
 5859POPC   C1B74035  36.747  33.558   6.386
 5859POPC   C2B74036  36.696  33.493   6.779
 5859POPC   C3B74037  36.732  33.549   7.210
 5859POPC   C4B74038  36.681  33.370   7.605
 5860POPC   NC374039   6.926  13.775   5.450
 5860POPC   PO474040   6.289  14.009   5.493
 5860POPC   GL174041   6.523  13.652   5.759
 5860POPC   GL274042   6.898  13.560   5.904
 5860POPC   C1A74043   6.486  13.459   6.177
 5860POPC   D2A74044   6.749  13.518   6.515
 5860POPC   C3A74045   6.524  13.630   6.850
 5860POPC   C4A74046   6.331  13.469   7.214
 5860POPC   C1B74047   7.009  13.890   6.226
 5860POPC   C2B74048   7.004  13.967   6.655
 5860POPC   C3B74049   6.971  13.790   7.035
 5860POPC   C4B74050   6.643  13.858   7.290
 5861POPC   NC374051  28.262  20.990   5.518
 5861POPC   PO474052  28.574  21.512   5.364
 5861POPC   GL174053  28.490  21.535   5.810
 5861POPC   GL274054  28.184  21.345   5.917
 5861POPC   C1A74055  28.707  21.737   6.160
 5861POPC   D2A74056  28.794  21.812   6.597
 5861POPC   C3A74057  28.574  21.490   6.842
 5861POPC   C4A74058  28.503  21.378   7.244
 5861POPC   C1B74059  28.367  21.375   6.336
 5861POPC   C2B74060  28.332  21.062   6.654
 5861POPC   C3B74061  28.332  20.898   7.061
 5861POPC   C4B74062  28.200  21.045   7.492
 5862POPC   NC374063  44.384  26.960   5.367
 5862POPC   PO474064   0.049  27.132   5.428
 5862POPC   GL174065  44.758  26.938   5.761
 5862POPC   GL274066  44.396  26.945   5.861
 5862POPC   C1A74067  44.743  26.739   6.167
 5862POPC   D2A74068  44.818  26.904   6.563
 5862POPC   C3A74069  44.673  26.775   6.970
 5862POPC   C4A74070  44.671  26.970   7.353
 5862POPC   C1B74071  44.321  27.030   6.281
 5862POPC   C2B74072  44.354  27.119   6.703
 5862POPC   C3B74073  44.261  27.108   7.116
 5862POPC   C4B74074  44.175  26.955   7.520
 5863POPC   NC374075  28.336  23.028   5.130
 5863POPC   PO474076  28.016  22.773   5.701
 5863POPC   GL174077  28.101  22.816   6.066
 5863POPC   GL274078  28.108  23.163   6.039
 5863POPC   C1A74079  28.304  22.889   6.440
 5863POPC   D2A74080  28.637  22.737   6.665
 5863POPC   C3A74081  28.478  22.713   7.066
 5863POPC   C4A74082  28.527  22.794   7.500
 5863POPC   C1B74083  28.510  23.318   6.213
 5863POPC   C2B74084  28.743  23.291   6.584
 5863POPC   C3B74085  28.685  23.176   6.989
 5863POPC   C4B74086  28.348  23.215   7.257
 5864POPC   NC374087  25.073  24.703   5.161
 5864POPC   PO474088  25.652  24.717   5.450
 5864POPC   GL174089  25.319  24.780   5.778
 5864POPC   GL274090  25.542  24.874   6.017
 5864POPC   C1A74091  25.164  24.603   6.224
 5864POPC   D2A74092  25.342  24.466   6.659
 5864POPC   C3A74093  25.121  24.444   7.092
 5864POPC   C4A74094  25.075  24.727   7.465
 5864POPC   C1B74095  25.760  24.793   6.386
 5864POPC   C2B74096  25.769  24.853   6.823
 5864POPC   C3B74097  25.490  24.803   7.138
 5864POPC   C4B74098  25.555  24.826   7.593
 5865POPC   NC374099  39.586   7.502   5.294
 5865POPC   PO474100  40.175   7.234   5.296
 5865POPC   GL174101  40.251   7.470   5.687
 5865POPC   GL274102  39.910   7.466   5.747
 5865POPC   C1A74103  40.285   7.557   6.151
 5865POPC   D2A74104  40.051   7.682   6.546
 5865POPC   C3A74105  40.215   7.517   6.918
 5865POPC   C4A74106  40.155   7.237   7.228
 5865POPC   C1B74107  39.758   7.478   6.164
 5865POPC   C2B74108  39.605   7.327   6.544
 5865POPC   C3B74109  39.712   7.457   6.972
 5865POPC   C4B74110  39.629   7.527   7.389
 5866POPC   NC374111  10.303  38.675   5.475
 5866POPC   PO474112  10.757  38.126   5.647
 5866POPC   GL174113  10.558  38.421   5.888
 5866POPC   GL274114  10.669  38.763   5.831
 5866POPC   C1A74115  10.307  38.525   6.234
 5866POPC   D2A74116  10.121  38.516   6.651
 5866POPC   C3A74117  10.143  38.376   7.063
 5866POPC   C4A74118  10.240  38.645   7.375
 5866POPC   C1B74119  10.829  38.672   6.244
 5866POPC   C2B74120  10.676  38.340   6.507
 5866POPC   C3B74121  10.622  38.436   6.896
 5866POPC   C4B74122  10.618  38.281   7.273
 5867POPC   NC374123  39.824  18.596   5.460
 5867POPC   PO474124  40.217  18.043   5.535
 5867POPC   GL174125  40.123  18.361   5.836
 5867POPC   GL274126  39.757  18.427   5.933
 5867POPC   C1A74127  40.141  18.249   6.254
 5867POPC   D2A74128  40.053  17.989   6.627
 5867POPC   C3A74129  40.129  18.173   7.042
 5867POPC   C4A74130  40.085  18.317   7.480
 5867POPC   C1B74131  39.677  18.358   6.375
 5867POPC   C2B74132  39.936  18.514   6.704
 5867POPC   C3B74133  39.833  18.603   7.141
 5867POPC   C4B74134  39.604  18.942   7.303
 5868POPC   NC374135   0.477   7.950   5.437
 5868POPC   PO474136   0.611   8.605   5.387
 5868POPC   GL174137   0.427   8.512   5.835
 5868POPC   GL274138   0.437   8.166   5.889
 5868POPC   C1A74139   0.619   8.436   6.283
 5868POPC   D2A74140   0.868   8.327   6.656
 5868POPC   C3A74141   0.657   8.437   7.055
 5868POPC   C4A74142   0.291   8.552   7.333
 5868POPC   C1B74143   0.122   8.271   6.197
 5868POPC   C2B74144   0.205   8.439   6.597
 5868POPC   C3B74145   0.200   8.228   6.958
 5868POPC   C4B74146   0.413   8.039   7.290
 5869POPC   NC374147  42.722  41.972   5.689
 5869POPC   PO474148  42.440  42.586   5.411
 5869POPC   GL174149  42.298  42.451   5.847
 5869POPC   GL274150  42.313  42.133   5.948
 5869POPC   C1A74151  42.210  42.476   6.317
 5869POPC   D2A74152  42.445  42.591   6.718
 5869POPC   C3A74153  42.345  42.370   7.102
 5869POPC   C4A74154  42.087  42.023   7.227
 5869POPC   C1B74155  42.468  41.993   6.305
 5869POPC   C2B74156  42.307  42.050   6.667
 5869POPC   C3B74157  42.517  41.884   6.942
 5869POPC   C4B74158  42.695  41.959   7.271
 5870POPC   NC374159  39.781  27.875   5.323
 5870POPC   PO474160  40.051  28.554   5.333
 5870POPC   GL174161  39.974  28.397   5.748
 5870POPC   GL274162  39.894  28.058   5.787
 5870POPC   C1A74163  40.083  28.363   6.197
 5870POPC   D2A74164  39.875  28.250   6.586
 5870POPC   C3A74165  40.070  28.501   6.900
 5870POPC   C4A74166  39.909  28.348   7.271
 5870POPC   C1B74167  39.892  27.892   6.193
 5870POPC   C2B74168  40.172  27.830   6.549
 5870POPC   C3B74169  40.202  28.004   6.972
 5870POPC   C4B74170  40.518  28.154   7.282
 5871POPC   NC374171  13.029  15.910   5.443
 5871POPC   PO474172  12.495  16.135   5.645
 5871POPC   GL174173  12.734  15.850   5.903
 5871POPC   GL274174  12.439  15.663   6.025
 5871POPC   C1A74175  13.097  15.931   6.206
 5871POPC   D2A74176  13.363  15.949   6.601
 5871POPC   C3A74177  13.149  15.970   7.008
 5871POPC   C4A74178  13.036  16.332   7.250
 5871POPC   C1B74179  12.714  15.591   6.354
 5871POPC   C2B74180  12.795  15.648   6.776
 5871POPC   C3B74181  12.617  15.642   7.180
 5871POPC   C4B74182  12.755  15.692   7.641
 5872POPC   NC374183  41.424   2.932   5.441
 5872POPC   PO474184  41.842   2.457   5.504
 5872POPC   GL174185  41.704   2.708   5.859
 5872POPC   GL274186  41.468   2.988   5.943
 5872POPC   C1A74187  41.656   2.650   6.302
 5872POPC   D2A74188  41.643   2.793   6.731
 5872POPC   C3A74189  41.823   2.616   7.108
 5872POPC   C4A74190  41.637   2.632   7.502
 5872POPC   C1B74191  41.810   3.119   6.193
 5872POPC   C2B74192  41.978   3.185   6.621
 5872POPC   C3B74193  41.821   3.165   7.056
 5872POPC   C4B74194  41.416   3.033   7.227
 5873POPC   NC374195  32.125  33.397   5.501
 5873POPC   PO474196  32.596  32.907   5.398
 5873POPC   GL174197  32.362  33.043   5.780
 5873POPC   GL274198  31.982  32.987   5.767
 5873POPC   C1A74199  32.217  33.250   6.171
 5873POPC   D2A74200  32.150  33.017   6.553
 5873POPC   C3A74201  32.173  33.248   6.894
 5873POPC   C4A74202  32.262  33.044   7.244
 5873POPC   C1B74203  31.851  32.871   6.164
 5873POPC   C2B74204  31.670  32.793   6.591
 5873POPC   C3B74205  31.827  32.861   7.011
 5873POPC   C4B74206  31.891  32.734   7.445
 5874POPC   NC374207  21.808  15.261   5.149
 5874POPC   PO474208  22.426  15.020   5.334
 5874POPC   GL174209  22.104  15.004   5.677
 5874POPC   GL274210  21.787  14.833   5.587
 5874POPC   C1A74211  22.109  15.147   6.122
 5874POPC   D2A74212  22.308  15.041   6.534
 5874POPC   C3A74213  22.386  15.307   6.894
 5874POPC   C4A74214  22.136  15.372   7.279
 5874POPC   C1B74215  21.719  14.790   6.052
 5874POPC   C2B74216  21.722  15.055   6.442
 5874POPC   C3B74217  21.887  15.174   6.836
 5874POPC   C4B74218  21.833  14.974   7.189
 5875POPC   NC374219  25.481  38.976   5.063
 5875POPC   PO474220  25.087  38.579   5.407
 5875POPC   GL174221  25.186  38.571   5.853
 5875POPC   GL274222  25.531  38.537   5.855
 5875POPC   C1A74223  25.269  38.355   6.259
 5875POPC   D2A74224  25.359  38.378   6.730
 5875POPC   C3A74225  25.222  38.224   7.131
 5875POPC   C4A74226  25.137  38.439   7.531
 5875POPC   C1B74227  25.705  38.616   6.310
 5875POPC   C2B74228  25.661  38.760   6.743
 5875POPC   C3B74229  25.523  38.686   7.227
 5875POPC   C4B74230  25.750  38.690   7.658
 5876POPC   NC374231  39.242  10.149   5.364
 5876POPC   PO474232  39.435   9.565   5.607
 5876POPC   GL174233  39.390   9.965   5.831
 5876POPC   GL274234  39.011  10.051   5.792
 5876POPC   C1A74235  39.502   9.960   6.275
 5876POPC   D2A74236  39.350   9.651   6.600
 5876POPC   C3A74237  39.422   9.743   7.042
 5876POPC   C4A74238  39.033   9.583   7.172
 5876POPC   C1B74239  39.079  10.261   6.141
 5876POPC   C2B74240  39.052  10.085   6.492
 5876POPC   C3B74241  39.083  10.078   6.885
 5876POPC   C4B74242  39.020  10.075   7.305
 5877POPC   NC374243  44.215   1.410   5.680
 5877POPC   PO474244  43.892   0.960   5.279
 5877POPC   GL174245  43.715   1.126   5.709
 5877POPC   GL274246  43.699   1.492   5.802
 5877POPC   C1A74247  43.740   1.105   6.189
 5877POPC   D2A74248  43.636   1.096   6.639
 5877POPC   C3A74249  44.016   1.180   6.881
 5877POPC   C4A74250  44.099   1.088   7.328
 5877POPC   C1B74251  43.828   1.615   6.236
 5877POPC   C2B74252  43.680   1.593   6.659
 5877POPC   C3B74253  43.889   1.675   7.041
 5877POPC   C4B74254  43.966   1.582   7.445
 5878POPC   NC374255  14.877   7.008   5.374
 5878POPC   PO474256  15.448   6.758   5.193
 5878POPC   GL174257  15.184   6.670   5.624
 5878POPC   GL274258  15.237   6.400   5.916
 5878POPC   C1A74259  14.954   6.793   6.041
 5878POPC   D2A74260  15.182   6.624   6.408
 5878POPC   C3A74261  15.022   6.588   6.806
 5878POPC   C4A74262  14.945   6.818   7.178
 5878POPC   C1B74263  15.468   6.832   6.025
 5878POPC   C2B74264  15.594   6.960   6.423
 5878POPC   C3B74265  15.617   6.776   6.821
 5878POPC   C4B74266  15.396   6.587   7.146
 5879POPC   NC374267  29.020   8.609   5.435
 5879POPC   PO474268  29.355   9.232   5.368
 5879POPC   GL174269  29.238   9.158   5.806
 5879POPC   GL274270  28.911   9.006   5.767
 5879POPC   C1A74271  29.174   8.919   6.213
 5879POPC   D2A74272  29.339   8.710   6.584
 5879POPC   C3A74273  29.270   8.956   6.943
 5879POPC   C4A74274  29.438   8.888   7.358
 5879POPC   C1B74275  28.697   8.721   6.076
 5879POPC   C2B74276  28.690   8.576   6.527
 5879POPC   C3B74277  28.649   8.744   6.947
 5879POPC   C4B74278  28.908   8.906   7.306
 5880POPC   NC374279   6.505  21.874   5.679
 5880POPC   PO474280   6.516  21.240   5.424
 5880POPC   GL174281   6.739  21.252   5.823
 5880POPC   GL274282   6.612  21.525   6.045
 5880POPC   C1A74283   6.764  21.071   6.242
 5880POPC   D2A74284   6.681  21.324   6.575
 5880POPC   C3A74285   6.866  21.206   6.958
 5880POPC   C4A74286   7.043  21.501   7.217
 5880POPC   C1B74287   6.274  21.234   6.202
 5880POPC   C2B74288   6.078  21.237   6.607
 5880POPC   C3B74289   6.325  21.339   6.933
 5880POPC   C4B74290   6.532  21.646   7.227
 5881POPC   NC374291   2.114  34.942   5.556
 5881POPC   PO474292   1.597  34.370   5.405
 5881POPC   GL174293   1.875  34.516   5.797
 5881POPC   GL274294   2.155  34.747   6.009
 5881POPC   C1A74295   1.938  34.354   6.214
 5881POPC   D2A74296   2.110  34.484   6.589
 5881POPC   C3A74297   1.824  34.551   6.929
 5881POPC   C4A74298   1.846  34.903   7.190
 5881POPC   C1B74299   2.484  34.453   6.199
 5881POPC   C2B74300   2.693  34.508   6.596
 5881POPC   C3B74301   2.440  34.776   6.860
 5881POPC   C4B74302   2.252  34.616   7.205
 5882POPC   NC374303  42.293  18.576   5.365
 5882POPC   PO474304  42.816  18.168   5.462
 5882POPC   GL174305  42.497  18.079   5.832
 5882POPC   GL274306  42.268  18.387   5.865
 5882POPC   C1A74307  42.278  18.010   6.273
 5882POPC   D2A74308  42.020  18.037   6.682
 5882POPC   C3A74309  42.228  18.096   7.087
 5882POPC   C4A74310  42.692  18.124   7.219
 5882POPC   C1B74311  42.340  18.516   6.301
 5882POPC   C2B74312  42.282  18.489   6.763
 5882POPC   C3B74313  42.366  18.608   7.213
 5882POPC   C4B74314  42.269  18.552   7.647
 5883POPC   NC374315  18.473  17.676   5.453
 5883POPC   PO474316  18.257  17.016   5.453
 5883POPC   GL174317  18.244  17.313   5.757
 5883POPC   GL274318  18.598  17.326   5.808
 5883POPC   C1A74319  18.221  17.565   6.145
 5883POPC   D2A74320  18.292  17.410   6.558
 5883POPC   C3A74321  18.478  17.635   6.886
 5883POPC   C4A74322  18.318  17.717   7.266
 5883POPC   C1B74323  18.668  17.146   6.205
 5883POPC   C2B74324  18.554  16.965   6.585
 5883POPC   C3B74325  18.426  17.118   6.960
 5883POPC   C4B74326  18.641  17.331   7.274
 5884POPC   NC374327  12.570   3.901   5.530
 5884POPC   PO474328  12.638   3.323   5.169
 5884POPC   GL174329  12.849   3.194   5.601
 5884POPC   GL274330  13.023   3.512   5.698
 5884POPC   C1A74331  12.957   3.174   6.066
 5884POPC   D2A74332  12.883   3.194   6.509
 5884POPC   C3A74333  13.109   3.297   6.873
 5884POPC   C4A74334  12.870   3.354   7.232
 5884POPC   C1B74335  12.969   3.711   6.130
 5884POPC   C2B74336  13.087   3.703   6.564
 5884POPC   C3B74337  12.947   3.781   6.978
 5884POPC   C4B74338  13.075   3.790   7.426
 5885POPC   NC374339  20.599  40.494   5.310
 5885POPC   PO474340  20.856  41.189   5.373
 5885POPC   GL174341  20.800  40.997   5.766
 5885POPC   GL274342  20.848  40.636   5.731
 5885POPC   C1A74343  20.489  40.909   6.098
 5885POPC   D2A74344  20.271  40.978   6.501
 5885POPC   C3A74345  20.542  41.095   6.857
 5885POPC   C4A74346  20.583  40.914   7.282
 5885POPC   C1B74347  20.704  40.450   6.095
 5885POPC   C2B74348  20.662  40.603   6.516
 5885POPC   C3B74349  20.412  40.586   6.883
 5885POPC   C4B74350  20.549  40.386   7.249
 5886POPC   NC374351   7.299  11.180   5.384
 5886POPC   PO474352   7.808  10.800   5.304
 5886POPC   GL174353   7.634  10.996   5.749
 5886POPC   GL274354   7.429  11.329   5.858
 5886POPC   C1A74355   7.532  10.991   6.218
 5886POPC   D2A74356   7.506  11.264   6.589
 5886POPC   C3A74357   7.364  11.089   6.955
 5886POPC   C4A74358   7.456  11.204   7.380
 5886POPC   C1B74359   7.264  11.553   6.224
 5886POPC   C2B74360   7.053  11.492   6.644
 5886POPC   C3B74361   7.324  11.600   6.982
 5886POPC   C4B74362   7.383  11.728   7.382
 5887POPC   NC374363   6.470  20.126   5.152
 5887POPC   PO474364   6.670  19.589   5.542
 5887POPC   GL174365   6.594  19.763   5.878
 5887POPC   GL274366   6.886  19.958   5.873
 5887POPC   C1A74367   6.697  19.593   6.244
 5887POPC   D2A74368   6.501  19.613   6.625
 5887POPC   C3A74369   6.626  19.751   6.997
 5887POPC   C4A74370   6.388  19.532   7.286
 5887POPC   C1B74371   6.719  20.099   6.276
 5887POPC   C2B74372   6.508  20.149   6.661
 5887POPC   C3B74373   6.542  20.247   7.088
 5887POPC   C4B74374   6.356  20.167   7.526
 5888POPC   NC374375  10.100  13.691   5.558
 5888POPC   PO474376   9.715  13.215   5.595
 5888POPC   GL174377   9.663  13.509   5.904
 5888POPC   GL274378   9.689  13.868   5.851
 5888POPC   C1A74379   9.552  13.679   6.292
 5888POPC   D2A74380   9.677  13.711   6.697
 5888POPC   C3A74381   9.667  13.397   6.956
 5888POPC   C4A74382   9.823  13.393   7.365
 5888POPC   C1B74383  10.028  13.832   6.195
 5888POPC   C2B74384  10.220  13.845   6.624
 5888POPC   C3B74385  10.011  13.947   7.002
 5888POPC   C4B74386   9.614  13.855   7.189
 5889POPC   NC374387  18.863   6.544   5.358
 5889POPC   PO474388  18.934   7.215   5.580
 5889POPC   GL174389  18.928   6.779   5.808
 5889POPC   GL274390  19.221   6.581   5.772
 5889POPC   C1A74391  18.962   6.550   6.215
 5889POPC   D2A74392  18.842   6.786   6.587
 5889POPC   C3A74393  18.827   6.735   7.022
 5889POPC   C4A74394  18.692   6.456   7.320
 5889POPC   C1B74395  19.437   6.326   6.048
 5889POPC   C2B74396  19.361   6.294   6.471
 5889POPC   C3B74397  19.546   6.285   6.850
 5889POPC   C4B74398  19.261   6.482   7.141
 5890POPC   NC374399   9.452  10.371   5.454
 5890POPC   PO474400   8.803  10.544   5.333
 5890POPC   GL174401   8.955  10.543   5.748
 5890POPC   GL274402   9.059  10.220   5.845
 5890POPC   C1A74403   9.202  10.667   6.127
 5890POPC   D2A74404   9.186  10.616   6.581
 5890POPC   C3A74405   8.803  10.612   6.842
 5890POPC   C4A74406   8.965  10.505   7.249
 5890POPC   C1B74407   8.839  10.314   6.259
 5890POPC   C2B74408   8.628  10.158   6.644
 5890POPC   C3B74409   8.690  10.107   7.112
 5890POPC   C4B74410   8.797  10.120   7.583
 5891POPC   NC374411  38.329  13.054   5.253
 5891POPC   PO474412  38.254  12.485   5.559
 5891POPC   GL174413  38.386  12.827   5.804
 5891POPC   GL274414  38.695  12.986   5.627
 5891POPC   C1A74415  38.428  12.756   6.268
 5891POPC   D2A74416  38.660  12.588   6.643
 5891POPC   C3A74417  38.452  12.644   7.026
 5891POPC   C4A74418  38.173  12.875   7.258
 5891POPC   C1B74419  38.724  13.140   6.022
 5891POPC   C2B74420  38.730  13.097   6.487
 5891POPC   C3B74421  38.533  13.133   6.900
 5891POPC   C4B74422  38.689  13.020   7.341
 5892POPC   NC374423  26.664  26.362   5.520
 5892POPC   PO474424  26.988  25.794   5.451
 5892POPC   GL174425  26.880  26.008   5.842
 5892POPC   GL274426  27.079  26.321   5.826
 5892POPC   C1A74427  26.744  26.004   6.293
 5892POPC   D2A74428  26.788  25.912   6.764
 5892POPC   C3A74429  26.491  26.137   7.076
 5892POPC   C4A74430  26.436  26.295   7.521
 5892POPC   C1B74431  27.201  26.264   6.202
 5892POPC   C2B74432  27.017  26.342   6.585
 5892POPC   C3B74433  27.048  26.281   7.036
 5892POPC   C4B74434  26.902  25.934   7.314
 5893POPC   NC374435  10.107  11.112   5.602
 5893POPC   PO474436   9.640  11.557   5.328
 5893POPC   GL174437   9.626  11.617   5.766
 5893POPC   GL274438   9.945  11.519   5.905
 5893POPC   C1A74439   9.558  11.788   6.168
 5893POPC   D2A74440   9.363  11.608   6.541
 5893POPC   C3A74441   9.607  11.495   6.908
 5893POPC   C4A74442   9.577  11.149   7.192
 5893POPC   C1B74443   9.828  11.400   6.364
 5893POPC   C2B74444  10.009  11.198   6.738
 5893POPC   C3B74445  10.089  11.125   7.161
 5893POPC   C4B74446   9.928  11.420   7.472
 5894POPC   NC374447   2.210  28.955   4.945
 5894POPC   PO474448   1.795  29.199   5.402
 5894POPC   GL174449   1.751  29.166   5.854
 5894POPC   GL274450   2.063  29.323   5.863
 5894POPC   C1A74451   1.870  29.086   6.297
 5894POPC   D2A74452   1.983  28.847   6.673
 5894POPC   C3A74453   1.869  28.992   7.097
 5894POPC   C4A74454   1.799  29.381   7.317
 5894POPC   C1B74455   2.292  29.348   6.239
 5894POPC   C2B74456   2.481  29.127   6.595
 5894POPC   C3B74457   2.413  28.939   7.012
 5894POPC   C4B74458   2.286  29.136   7.404
 5895POPC   NC374459  11.201  19.762   5.429
 5895POPC   PO474460  11.639  20.208   5.573
 5895POPC   GL174461  11.591  19.846   5.829
 5895POPC   GL274462  11.247  19.851   5.941
 5895POPC   C1A74463  11.612  19.795   6.295
 5895POPC   D2A74464  11.262  19.924   6.510
 5895POPC   C3A74465  11.378  19.949   6.906
 5895POPC   C4A74466  11.445  19.826   7.300
 5895POPC   C1B74467  10.968  19.584   6.190
 5895POPC   C2B74468  10.834  19.613   6.622
 5895POPC   C3B74469  11.005  19.609   7.026
 5895POPC   C4B74470  10.986  19.699   7.487
 5896POPC   NC374471   6.934  10.659   5.183
 5896POPC   PO474472   6.467  10.248   5.432
 5896POPC   GL174473   6.576  10.443   5.816
 5896POPC   GL274474   6.382  10.782   5.837
 5896POPC   C1A74475   6.794  10.313   6.206
 5896POPC   D2A74476   6.845  10.551   6.598
 5896POPC   C3A74477   6.832  10.301   6.966
 5896POPC   C4A74478   6.813  10.499   7.351
 5896POPC   C1B74479   6.503  10.800   6.274
 5896POPC   C2B74480   6.357  10.699   6.704
 5896POPC   C3B74481   6.406  10.867   7.147
 5896POPC   C4B74482   6.406  10.659   7.573
 5897POPC   NC374483  17.196  44.823   5.795
 5897POPC   PO474484  16.941  44.352   5.446
 5897POPC   GL174485  16.751  44.604   5.866
 5897POPC   GL274486  16.675   0.014   5.981
 5897POPC   C1A74487  16.830  44.702   6.327
 5897POPC   D2A74488  17.068  44.616   6.669
 5897POPC   C3A74489  16.805  44.402   6.993
 5897POPC   C4A74490  16.634  44.412   7.425
 5897POPC   C1B74491  16.365  44.949   6.371
 5897POPC   C2B74492  16.073  44.842   6.730
 5897POPC   C3B74493  15.998  44.952   7.182
 5897POPC   C4B74494  16.283  44.780   7.541
 5898POPC   NC374495   9.656   2.914   5.330
 5898POPC   PO474496   9.924   2.393   5.355
 5898POPC   GL174497   9.662   2.568   5.702
 5898POPC   GL274498   9.674   2.918   5.828
 5898POPC   C1A74499   9.627   2.466   6.134
 5898POPC   D2A74500   9.913   2.505   6.473
 5898POPC   C3A74501   9.760   2.456   6.876
 5898POPC   C4A74502   9.846   2.534   7.313
 5898POPC   C1B74503   9.568   2.973   6.243
 5898POPC   C2B74504   9.648   2.913   6.647
 5898POPC   C3B74505   9.643   2.951   7.059
 5898POPC   C4B74506   9.482   3.269   7.290
 5899POPC   NC374507  43.718  34.428   5.305
 5899POPC   PO474508  44.271  34.811   5.239
 5899POPC   GL174509  44.034  34.816   5.657
 5899POPC   GL274510  43.659  34.840   5.638
 5899POPC   C1A74511  44.057  34.772   6.143
 5899POPC   D2A74512  44.121  34.738   6.605
 5899POPC   C3A74513  44.097  34.548   6.978
 5899POPC   C4A74514  44.000  34.944   7.199
 5899POPC   C1B74515  43.633  34.561   5.980
 5899POPC   C2B74516  43.625  34.667   6.440
 5899POPC   C3B74517  43.630  34.695   6.898
 5899POPC   C4B74518  43.634  34.333   7.205
 5900POPC   NC374519  29.983   1.685   5.391
 5900POPC   PO474520  29.814   2.356   5.291
 5900POPC   GL174521  29.762   2.058   5.716
 5900POPC   GL274522  30.116   1.937   5.826
 5900POPC   C1A74523  29.793   1.864   6.209
 5900POPC   D2A74524  30.174   1.882   6.516
 5900POPC   C3A74525  30.147   1.659   6.945
 5900POPC   C4A74526  29.810   1.705   7.234
 5900POPC   C1B74527  30.008   2.304   6.101
 5900POPC   C2B74528  29.866   2.371   6.534
 5900POPC   C3B74529  29.922   2.137   6.916
 5900POPC   C4B74530  29.928   2.223   7.349
 5901POPC   NC374531   7.240  16.279   5.481
 5901POPC   PO474532   7.737  15.817   5.604
 5901POPC   GL174533   7.618  16.155   5.867
 5901POPC   GL274534   7.270  16.078   5.952
 5901POPC   C1A74535   7.639  16.320   6.300
 5901POPC   D2A74536   7.453  16.085   6.652
 5901POPC   C3A74537   7.533  16.204   7.097
 5901POPC   C4A74538   7.515  15.908   7.400
 5901POPC   C1B74539   7.082  15.807   6.261
 5901POPC   C2B74540   7.117  15.673   6.664
 5901POPC   C3B74541   7.133  15.911   7.023
 5901POPC   C4B74542   7.050  15.752   7.379
 5902POPC   NC374543  42.580  34.400   5.102
 5902POPC   PO474544  42.225  34.820   5.524
 5902POPC   GL174545  42.187  34.478   5.842
 5902POPC   GL274546  42.466  34.220   5.899
 5902POPC   C1A74547  42.232  34.492   6.297
 5902POPC   D2A74548  42.074  34.639   6.706
 5902POPC   C3A74549  42.348  34.632   7.073
 5902POPC   C4A74550  42.422  34.634   7.516
 5902POPC   C1B74551  42.721  34.318   6.288
 5902POPC   C2B74552  42.669  34.367   6.763
 5902POPC   C3B74553  42.759  34.357   7.258
 5902POPC   C4B74554  42.875  34.091   7.711
 5903POPC   NC374555  32.867  20.926   5.100
 5903POPC   PO474556  32.506  20.320   5.427
 5903POPC   GL174557  32.424  20.508   5.844
 5903POPC   GL274558  32.094  20.685   5.866
 5903POPC   C1A74559  32.499  20.781   6.194
 5903POPC   D2A74560  32.254  20.877   6.558
 5903POPC   C3A74561  32.444  20.839   6.931
 5903POPC   C4A74562  32.585  20.815   7.342
 5903POPC   C1B74563  32.075  20.484   6.251
 5903POPC   C2B74564  31.981  20.477   6.719
 5903POPC   C3B74565  32.086  20.572   7.184
 5903POPC   C4B74566  31.848  20.556   7.617
 5904POPC   NC374567  31.352  32.738   5.279
 5904POPC   PO474568  31.680  33.305   5.457
 5904POPC   GL174569  31.454  33.123   5.789
 5904POPC   GL274570  31.502  32.779   5.775
 5904POPC   C1A74571  31.442  33.151   6.237
 5904POPC   D2A74572  31.236  33.149   6.619
 5904POPC   C3A74573  31.402  33.164   7.035
 5904POPC   C4A74574  31.670  33.216   7.389
 5904POPC   C1B74575  31.177  32.700   6.033
 5904POPC   C2B74576  31.173  32.640   6.449
 5904POPC   C3B74577  31.236  32.688   6.869
 5904POPC   C4B74578  31.414  32.696   7.282
 5905POPC   NC374579  15.668  29.477   5.472
 5905POPC   PO474580  16.317  29.224   5.539
 5905POPC   GL174581  15.986  29.222   5.795
 5905POPC   GL274582  15.798  28.921   5.826
 5905POPC   C1A74583  15.945  29.368   6.180
 5905POPC   D2A74584  16.039  29.261   6.571
 5905POPC   C3A74585  15.897  29.467   6.913
 5905POPC   C4A74586  16.181  29.370   7.255
 5905POPC   C1B74587  16.077  28.877   6.185
 5905POPC   C2B74588  16.122  28.767   6.603
 5905POPC   C3B74589  16.107  28.922   7.024
 5905POPC   C4B74590  16.095  28.640   7.386
 5906POPC   NC374591  40.291   6.793   5.210
 5906POPC   PO474592  39.937   6.336   5.570
 5906POPC   GL174593  39.888   6.654   5.867
 5906POPC   GL274594  40.055   6.932   5.680
 5906POPC   C1A74595  39.865   6.660   6.324
 5906POPC   D2A74596  39.677   6.618   6.723
 5906POPC   C3A74597  39.807   6.296   7.047
 5906POPC   C4A74598  40.184   6.300   7.307
 5906POPC   C1B74599  40.134   7.084   6.059
 5906POPC   C2B74600  40.104   7.178   6.466
 5906POPC   C3B74601  39.947   7.039   6.814
 5906POPC   C4B74602  39.966   6.759   7.128
 5907POPC   NC374603  15.646   1.656   5.438
 5907POPC   PO474604  15.552   2.227   5.435
 5907POPC   GL174605  15.315   2.192   5.813
 5907POPC   GL274606  14.990   2.016   5.806
 5907POPC   C1A74607  15.346   2.086   6.257
 5907POPC   D2A74608  15.261   1.865   6.617
 5907POPC   C3A74609  15.297   2.118   6.953
 5907POPC   C4A74610  15.053   2.429   7.083
 5907POPC   C1B74611  14.813   1.929   6.227
 5907POPC   C2B74612  14.749   1.741   6.642
 5907POPC   C3B74613  14.994   1.679   7.022
 5907POPC   C4B74614  14.976   1.484   7.429
 5908POPC   NC374615  44.104   0.594   5.485
 5908POPC   PO474616  43.905  44.969   5.505
 5908POPC   GL174617  43.690   0.197   5.787
 5908POPC   GL274618  43.645   0.593   5.767
 5908POPC   C1A74619  43.765   0.003   6.179
 5908POPC   D2A74620  44.040   0.168   6.536
 5908POPC   C3A74621  43.889   0.253   6.971
 5908POPC   C4A74622  43.625   0.099   7.312
 5908POPC   C1B74623  43.839   0.518   6.171
 5908POPC   C2B74624  43.800   0.616   6.597
 5908POPC   C3B74625  43.774   0.751   7.013
 5908POPC   C4B74626  43.681   0.773   7.429
 5909POPC   NC374627  28.534  35.533   5.376
 5909POPC   PO474628  28.206  35.008   5.470
 5909POPC   GL174629  28.343  35.254   5.788
 5909POPC   GL274630  28.678  35.153   5.852
 5909POPC   C1A74631  28.310  35.357   6.196
 5909POPC   D2A74632  28.067  35.474   6.526
 5909POPC   C3A74633  28.270  35.441   6.906
 5909POPC   C4A74634  28.166  35.577   7.294
 5909POPC   C1B74635  28.703  35.033   6.323
 5909POPC   C2B74636  28.652  35.122   6.796
 5909POPC   C3B74637  28.452  35.104   7.258
 5909POPC   C4B74638  28.530  34.863   7.675
 5910POPC   NC374639  26.301  34.861   5.278
 5910POPC   PO474640  25.958  34.353   5.503
 5910POPC   GL174641  25.944  34.696   5.804
 5910POPC   GL274642  25.643  34.761   6.001
 5910POPC   C1A74643  26.111  34.696   6.225
 5910POPC   D2A74644  26.295  34.795   6.595
 5910POPC   C3A74645  26.162  34.561   6.903
 5910POPC   C4A74646  26.040  34.783   7.215
 5910POPC   C1B74647  25.661  34.843   6.413
 5910POPC   C2B74648  25.766  34.979   6.803
 5910POPC   C3B74649  25.602  35.018   7.227
 5910POPC   C4B74650  25.770  34.793   7.648
 5911POPC   NC374651  25.042  25.813   5.271
 5911POPC   PO474652  25.518  26.276   5.473
 5911POPC   GL174653  25.301  26.080   5.800
 5911POPC   GL274654  24.979  26.177   5.688
 5911POPC   C1A74655  25.398  26.038   6.248
 5911POPC   D2A74656  25.596  26.216   6.597
 5911POPC   C3A74657  25.463  25.981   6.964
 5911POPC   C4A74658  25.558  26.175   7.357
 5911POPC   C1B74659  24.887  26.092   6.139
 5911POPC   C2B74660  24.936  25.887   6.554
 5911POPC   C3B74661  24.936  26.017   6.984
 5911POPC   C4B74662  25.110  25.936   7.394
 5912POPC   NC374663   7.586  25.452   5.215
 5912POPC   PO474664   6.976  25.347   5.438
 5912POPC   GL174665   7.366  25.199   5.614
 5912POPC   GL274666   7.237  24.958   5.820
 5912POPC   C1A74667   7.654  25.402   5.935
 5912POPC   D2A74668   7.626  25.581   6.377
 5912POPC   C3A74669   7.634  25.406   6.820
 5912POPC   C4A74670   7.486  25.199   7.172
 5912POPC   C1B74671   7.213  25.264   6.145
 5912POPC   C2B74672   7.184  25.330   6.578
 5912POPC   C3B74673   7.028  25.380   6.992
 5912POPC   C4B74674   6.992  25.043   7.271
 5913POPC   NC374675  40.922  33.681   5.340
 5913POPC   PO474676  40.496  34.116   5.339
 5913POPC   GL174677  40.678  34.112   5.777
 5913POPC   GL274678  41.040  34.040   5.769
 5913POPC   C1A74679  40.634  33.957   6.204
 5913POPC   D2A74680  40.901  33.953   6.562
 5913POPC   C3A74681  40.680  33.805   6.921
 5913POPC   C4A74682  40.648  33.660   7.354
 5913POPC   C1B74683  41.084  33.706   6.122
 5913POPC   C2B74684  41.320  33.644   6.537
 5913POPC   C3B74685  41.171  33.553   6.974
 5913POPC   C4B74686  41.117  33.848   7.325
 5914POPC   NC374687  28.234  24.625   5.339
 5914POPC   PO474688  28.003  24.019   5.626
 5914POPC   GL174689  28.366  24.245   5.798
 5914POPC   GL274690  28.443  24.606   5.840
 5914POPC   C1A74691  28.328  24.276   6.231
 5914POPC   D2A74692  28.259  24.539   6.610
 5914POPC   C3A74693  28.393  24.374   7.027
 5914POPC   C4A74694  28.521  24.513   7.445
 5914POPC   C1B74695  28.646  24.666   6.246
 5914POPC   C2B74696  28.618  24.914   6.615
 5914POPC   C3B74697  28.498  24.879   7.042
 5914POPC   C4B74698  28.745  24.962   7.410
 5915POPC   NC374699  28.556  17.328   5.420
 5915POPC   PO474700  28.107  17.717   5.401
 5915POPC   GL174701  28.290  17.698   5.811
 5915POPC   GL274702  28.394  17.355   5.920
 5915POPC   C1A74703  28.124  17.694   6.246
 5915POPC   D2A74704  28.296  17.770   6.667
 5915POPC   C3A74705  28.286  17.489   7.006
 5915POPC   C4A74706  28.132  17.567   7.426
 5915POPC   C1B74707  28.617  17.634   6.222
 5915POPC   C2B74708  28.813  17.698   6.641
 5915POPC   C3B74709  28.739  17.746   7.065
 5915POPC   C4B74710  28.646  17.432   7.358
 5916POPC   NC374711  37.643  27.103   5.272
 5916POPC   PO474712  37.629  27.759   5.331
 5916POPC   GL174713  37.626  27.530   5.715
 5916POPC   GL274714  37.499  27.765   5.933
 5916POPC   C1A74715  37.831  27.379   6.116
 5916POPC   D2A74716  38.032  27.314   6.525
 5916POPC   C3A74717  37.897  27.528   6.897
 5916POPC   C4A74718  37.705  27.339   7.269
 5916POPC   C1B74719  37.515  27.656   6.386
 5916POPC   C2B74720  37.393  27.607   6.793
 5916POPC   C3B74721  37.524  27.808   7.151
 5916POPC   C4B74722  37.954  27.825   7.385
 5917POPC   NC374723  31.311  32.102   5.543
 5917POPC   PO474724  31.748  32.546   5.388
 5917POPC   GL174725  31.775  32.329   5.803
 5917POPC   GL274726  31.571  32.028   5.966
 5917POPC   C1A74727  31.594  32.448   6.209
 5917POPC   D2A74728  31.495  32.252   6.585
 5917POPC   C3A74729  31.646  32.375   6.952
 5917POPC   C4A74730  31.635  32.107   7.294
 5917POPC   C1B74731  31.155  32.145   6.214
 5917POPC   C2B74732  31.009  32.201   6.669
 5917POPC   C3B74733  31.167  32.247   7.127
 5917POPC   C4B74734  31.088  32.450   7.577
 5918POPC   NC374735  41.518  19.113   5.465
 5918POPC   PO474736  40.910  18.755   5.425
 5918POPC   GL174737  41.284  18.815   5.804
 5918POPC   GL274738  41.348  19.194   5.930
 5918POPC   C1A74739  41.587  18.810   6.187
 5918POPC   D2A74740  41.800  18.667   6.595
 5918POPC   C3A74741  41.524  18.799   6.932
 5918POPC   C4A74742  41.421  19.018   7.307
 5918POPC   C1B74743  41.738  19.316   6.103
 5918POPC   C2B74744  41.797  19.177   6.521
 5918POPC   C3B74745  41.596  19.315   6.891
 5918POPC   C4B74746  41.787  19.373   7.258
 5919POPC   NC374747  21.687  32.141   5.430
 5919POPC   PO474748  21.141  32.006   5.247
 5919POPC   GL174749  21.210  32.140   5.718
 5919POPC   GL274750  21.436  32.443   5.792
 5919POPC   C1A74751  21.244  32.241   6.213
 5919POPC   D2A74752  21.452  32.418   6.622
 5919POPC   C3A74753  21.370  32.142   6.985
 5919POPC   C4A74754  21.707  31.904   7.090
 5919POPC   C1B74755  21.497  32.723   6.186
 5919POPC   C2B74756  21.704  32.912   6.568
 5919POPC   C3B74757  21.609  32.837   7.001
 5919POPC   C4B74758  21.240  32.610   7.091
 5920POPC   NC374759  42.473  44.481   5.328
 5920POPC   PO474760  42.124   0.096   5.336
 5920POPC   GL174761  42.349   0.011   5.720
 5920POPC   GL274762  42.445  44.674   5.796
 5920POPC   C1A74763  42.168  44.976   6.145
 5920POPC   D2A74764  42.201  44.653   6.455
 5920POPC   C3A74765  42.311  44.740   6.862
 5920POPC   C4A74766  42.325  44.515   7.185
 5920POPC   C1B74767  42.703  44.798   6.135
 5920POPC   C2B74768  42.617  44.969   6.530
 5920POPC   C3B74769  42.795  44.954   6.927
 5920POPC   C4B74770  42.596  44.925   7.290
 5921POPC   NC374771  23.917  22.546   5.129
 5921POPC   PO474772  23.515  22.109   5.444
 5921POPC   GL174773  23.475  22.065   5.872
 5921POPC   GL274774  23.504  22.360   6.058
 5921POPC   C1A74775  23.712  21.936   6.256
 5921POPC   D2A74776  23.928  22.066   6.638
 5921POPC   C3A74777  23.611  21.983   6.931
 5921POPC   C4A74778  23.654  22.174   7.282
 5921POPC   C1B74779  23.713  22.468   6.370
 5921POPC   C2B74780  23.516  22.440   6.723
 5921POPC   C3B74781  23.824  22.525   6.974
 5921POPC   C4B74782  23.823  22.691   7.360
 5922POPC   NC374783  20.201  12.302   5.452
 5922POPC   PO474784  19.459  12.257   5.476
 5922POPC   GL174785  19.786  12.208   5.843
 5922POPC   GL274786  20.152  12.104   5.905
 5922POPC   C1A74787  19.854  12.022   6.277
 5922POPC   D2A74788  19.844  11.732   6.604
 5922POPC   C3A74789  19.832  11.950   6.979
 5922POPC   C4A74790  19.666  12.121   7.365
 5922POPC   C1B74791  20.292  12.388   6.228
 5922POPC   C2B74792  20.094  12.467   6.656
 5922POPC   C3B74793  20.143  12.360   7.076
 5922POPC   C4B74794  20.269  11.952   7.268
 5923POPC   NC374795  34.371   8.079   4.996
 5923POPC   PO474796  34.834   8.222   5.475
 5923POPC   GL174797  34.669   8.379   5.851
 5923POPC   GL274798  34.539   8.045   5.967
 5923POPC   C1A74799  34.519   8.447   6.284
 5923POPC   D2A74800  34.284   8.322   6.676
 5923POPC   C3A74801  34.524   8.285   7.022
 5923POPC   C4A74802  34.744   7.919   7.191
 5923POPC   C1B74803  34.167   8.065   6.249
 5923POPC   C2B74804  34.016   7.821   6.590
 5923POPC   C3B74805  34.117   7.950   7.002
 5923POPC   C4B74806  34.274   8.028   7.385
 5924POPC   NC374807   1.345  35.581   5.536
 5924POPC   PO474808   0.896  35.074   5.288
 5924POPC   GL174809   1.001  35.259   5.737
 5924POPC   GL274810   0.915  35.633   5.805
 5924POPC   C1A74811   1.314  35.308   6.131
 5924POPC   D2A74812   1.433  35.507   6.538
 5924POPC   C3A74813   1.233  35.301   6.866
 5924POPC   C4A74814   1.078  35.262   7.282
 5924POPC   C1B74815   0.996  35.698   6.265
 5924POPC   C2B74816   0.887  35.620   6.693
 5924POPC   C3B74817   1.001  35.728   7.100
 5924POPC   C4B74818   0.980  35.722   7.560
 5925POPC   NC374819  23.834   5.416   5.287
 5925POPC   PO474820  23.795   6.052   5.289
 5925POPC   GL174821  23.749   6.235   5.772
 5925POPC   GL274822  23.505   6.022   5.910
 5925POPC   C1A74823  23.861   6.092   6.260
 5925POPC   D2A74824  23.896   5.718   6.609
 5925POPC   C3A74825  23.832   5.805   7.058
 5925POPC   C4A74826  23.509   6.019   7.255
 5925POPC   C1B74827  23.472   5.722   6.303
 5925POPC   C2B74828  23.386   5.673   6.766
 5925POPC   C3B74829  23.416   5.488   7.164
 5925POPC   C4B74830  23.242   5.672   7.497
 5926POPC   NC374831  28.904  33.946   5.422
 5926POPC   PO474832  29.372  33.600   5.393
 5926POPC   GL174833  29.249  33.788   5.776
 5926POPC   GL274834  28.895  33.786   5.910
 5926POPC   C1A74835  29.291  33.969   6.178
 5926POPC   D2A74836  29.161  33.747   6.542
 5926POPC   C3A74837  29.227  33.882   6.950
 5926POPC   C4A74838  29.301  33.643   7.307
 5926POPC   C1B74839  28.737  33.579   6.308
 5926POPC   C2B74840  28.721  33.547   6.775
 5926POPC   C3B74841  28.792  33.673   7.201
 5926POPC   C4B74842  28.585  33.928   7.505
 5927POPC   NC374843  11.248  21.585   5.566
 5927POPC   PO474844  10.835  20.991   5.532
 5927POPC   GL174845  11.195  21.108   5.804
 5927POPC   GL274846  11.533  21.098   5.628
 5927POPC   C1A74847  11.219  21.354   6.213
 5927POPC   D2A74848  11.412  21.529   6.603
 5927POPC   C3A74849  11.171  21.448   6.983
 5927POPC   C4A74850  10.903  21.371   7.332
 5927POPC   C1B74851  11.646  21.097   6.088
 5927POPC   C2B74852  11.776  21.136   6.542
 5927POPC   C3B74853  11.626  21.201   6.968
 5927POPC   C4B74854  11.636  21.612   7.153
 5928POPC   NC374855  44.721  36.412   5.445
 5928POPC   PO474856  44.476  35.788   5.192
 5928POPC   GL174857  44.560  35.803   5.680
 5928POPC   GL274858  44.689  36.098   5.841
 5928POPC   C1A74859  44.702  35.678   6.140
 5928POPC   D2A74860  44.536  35.646   6.564
 5928POPC   C3A74861  44.715  35.700   6.978
 5928POPC   C4A74862  44.505  35.885   7.329
 5928POPC   C1B74863  44.592  36.181   6.277
 5928POPC   C2B74864  44.649  36.157   6.722
 5928POPC   C3B74865  44.418  36.315   7.074
 5928POPC   C4B74866  44.597  36.498   7.448
 5929POPC   NC374867  13.848   5.715   5.170
 5929POPC   PO474868  13.294   5.739   5.591
 5929POPC   GL174869  13.536   5.996   5.846
 5929POPC   GL274870  13.907   5.956   5.801
 5929POPC   C1A74871  13.479   5.929   6.273
 5929POPC   D2A74872  13.569   5.483   6.466
 5929POPC   C3A74873  13.483   5.471   6.928
 5929POPC   C4A74874  13.653   5.762   7.249
 5929POPC   C1B74875  13.969   5.851   6.260
 5929POPC   C2B74876  13.778   5.913   6.723
 5929POPC   C3B74877  13.714   6.236   7.088
 5929POPC   C4B74878  13.809   6.183   7.566
 5930POPC   NC374879  20.496  16.042   5.390
 5930POPC   PO474880  20.941  15.586   5.565
 5930POPC   GL174881  20.666  15.871   5.893
 5930POPC   GL274882  20.391  16.120   5.890
 5930POPC   C1A74883  20.482  15.849   6.341
 5930POPC   D2A74884  20.456  15.637   6.760
 5930POPC   C3A74885  20.663  15.771   7.108
 5930POPC   C4A74886  20.653  15.927   7.521
 5930POPC   C1B74887  20.372  16.399   6.252
 5930POPC   C2B74888  20.247  16.258   6.674
 5930POPC   C3B74889  20.392  16.258   7.110
 5930POPC   C4B74890  20.174  16.475   7.436
 5931POPC   NC374891   5.302   0.633   5.483
 5931POPC   PO474892   4.966  44.997   5.423
 5931POPC   GL174893   4.812   0.112   5.855
 5931POPC   GL274894   5.103   0.336   5.875
 5931POPC   C1A74895   4.770   0.350   6.267
 5931POPC   D2A74896   4.921   0.628   6.609
 5931POPC   C3A74897   4.843   0.488   7.020
 5931POPC   C4A74898   4.976   0.632   7.404
 5931POPC   C1B74899   5.289   0.478   6.270
 5931POPC   C2B74900   5.471   0.528   6.680
 5931POPC   C3B74901   5.364   0.654   7.082
 5931POPC   C4B74902   5.594   0.719   7.477
 5932POPC   NC374903  23.115  34.304   5.477
 5932POPC   PO474904  22.596  34.750   5.471
 5932POPC   GL174905  22.907  34.707   5.782
 5932POPC   GL274906  22.775  34.394   5.852
 5932POPC   C1A74907  23.151  34.561   6.159
 5932POPC   D2A74908  23.310  34.396   6.586
 5932POPC   C3A74909  23.058  34.519   6.992
 5932POPC   C4A74910  22.888  34.746   7.396
 5932POPC   C1B74911  22.624  34.651   6.217
 5932POPC   C2B74912  22.671  34.807   6.642
 5932POPC   C3B74913  22.551  34.607   7.021
 5932POPC   C4B74914  22.589  34.317   7.336
 5933POPC   NC374915  41.067  26.816   5.512
 5933POPC   PO474916  40.442  26.673   5.174
 5933POPC   GL174917  40.580  26.858   5.635
 5933POPC   GL274918  40.462  27.207   5.639
 5933POPC   C1A74919  40.642  26.665   6.104
 5933POPC   D2A74920  40.594  26.619   6.592
 5933POPC   C3A74921  40.853  26.735   6.957
 5933POPC   C4A74922  40.786  27.088   7.242
 5933POPC   C1B74923  40.564  27.164   6.078
 5933POPC   C2B74924  40.536  27.170   6.533
 5933POPC   C3B74925  40.369  26.976   6.910
 5933POPC   C4B74926  40.243  27.164   7.309
 5934POPC   NC374927  21.288  21.293   5.433
 5934POPC   PO474928  21.679  21.790   5.561
 5934POPC   GL174929  21.487  21.492   5.865
 5934POPC   GL274930  21.601  21.139   5.802
 5934POPC   C1A74931  21.346  21.262   6.241
 5934POPC   D2A74932  21.349  21.410   6.659
 5934POPC   C3A74933  21.111  21.333   7.019
 5934POPC   C4A74934  21.252  21.629   7.319
 5934POPC   C1B74935  21.723  20.870   6.145
 5934POPC   C2B74936  21.733  21.004   6.570
 5934POPC   C3B74937  21.867  21.123   6.971
 5934POPC   C4B74938  21.560  21.228   7.285
 5935POPC   NC374939   8.420  29.587   5.513
 5935POPC   PO474940   7.723  29.530   5.431
 5935POPC   GL174941   7.903  29.640   5.852
 5935POPC   GL274942   8.020  29.998   5.798
 5935POPC   C1A74943   8.089  29.786   6.290
 5935POPC   D2A74944   8.031  30.074   6.681
 5935POPC   C3A74945   8.026  29.820   7.072
 5935POPC   C4A74946   8.314  29.667   7.362
 5935POPC   C1B74947   8.430  30.067   6.039
 5935POPC   C2B74948   8.495  30.182   6.482
 5935POPC   C3B74949   8.495  29.977   6.896
 5935POPC   C4B74950   8.535  30.134   7.329
 5936POPC   NC374951   5.244  19.423   5.743
 5936POPC   PO474952   4.945  19.022   5.267
 5936POPC   GL174953   4.945  18.841   5.760
 5936POPC   GL274954   5.306  18.827   5.862
 5936POPC   C1A74955   4.763  18.951   6.210
 5936POPC   D2A74956   4.761  19.092   6.628
 5936POPC   C3A74957   5.116  19.131   6.888
 5936POPC   C4A74958   4.976  19.174   7.305
 5936POPC   C1B74959   5.344  18.939   6.302
 5936POPC   C2B74960   5.559  18.875   6.711
 5936POPC   C3B74961   5.402  18.770   7.128
 5936POPC   C4B74962   5.470  19.122   7.403
 5937POPC   NC374963  14.088  28.586   5.502
 5937POPC   PO474964  13.347  28.510   5.392
 5937POPC   GL174965  13.477  28.302   5.735
 5937POPC   GL274966  13.507  28.607   5.912
 5937POPC   C1A74967  13.328  28.195   6.140
 5937POPC   D2A74968  13.314  28.460   6.494
 5937POPC   C3A74969  13.563  28.338   6.849
 5937POPC   C4A74970  13.337  28.230   7.208
 5937POPC   C1B74971  13.789  28.540   6.256
 5937POPC   C2B74972  14.038  28.531   6.625
 5937POPC   C3B74973  14.009  28.696   7.037
 5937POPC   C4B74974  13.676  28.661   7.306
 5938POPC   NC374975  13.376  17.792   5.359
 5938POPC   PO474976  13.920  17.505   5.562
 5938POPC   GL174977  13.527  17.564   5.824
 5938POPC   GL274978  13.430  17.249   5.973
 5938POPC   C1A74979  13.190  17.702   6.152
 5938POPC   D2A74980  13.174  17.808   6.614
 5938POPC   C3A74981  13.250  17.462   6.916
 5938POPC   C4A74982  13.379  17.227   7.291
 5938POPC   C1B74983  13.560  17.407   6.357
 5938POPC   C2B74984  13.650  17.153   6.714
 5938POPC   C3B74985  13.826  17.261   7.071
 5938POPC   C4B74986  13.764  17.622   7.293
 5939POPC   NC374987   0.091  26.629   5.511
 5939POPC   PO474988   0.816  26.774   5.473
 5939POPC   GL174989   0.538  26.597   5.813
 5939POPC   GL274990   0.769  26.318   5.926
 5939POPC   C1A74991   0.283  26.761   6.202
 5939POPC   D2A74992   0.378  26.942   6.634
 5939POPC   C3A74993   0.215  26.770   7.029
 5939POPC   C4A74994   0.176  27.018   7.405
 5939POPC   C1B74995   0.820  26.687   6.228
 5939POPC   C2B74996   0.978  26.697   6.638
 5939POPC   C3B74997   0.885  26.597   7.043
 5939POPC   C4B74998   0.676  26.912   7.275
 5940POPC   NC374999   0.111  34.048   5.442
 5940POPC   PO475000   0.748  33.764   5.190
 5940POPC   GL175001   0.810  33.792   5.672
 5940POPC   GL275002   0.478  33.885   5.748
 5940POPC   C1A75003   0.696  33.553   6.075
 5940POPC   D2A75004   0.489  33.458   6.453
 5940POPC   C3A75005   0.509  33.701   6.800
 5940POPC   C4A75006   0.258  33.736   7.139
 5940POPC   C1B75007   0.380  33.945   6.179
 5940POPC   C2B75008   0.720  33.953   6.423
 5940POPC   C3B75009   0.760  34.147   6.791
 5940POPC   C4B75010   0.782  34.056   7.240
 5941POPC   NC375011  10.672   5.450   5.442
 5941POPC   PO475012  10.890   4.860   5.435
 5941POPC   GL175013  10.542   5.031   5.749
 5941POPC   GL275014  10.174   4.930   5.786
 5941POPC   C1A75015  10.472   4.892   6.210
 5941POPC   D2A75016  10.647   4.779   6.635
 5941POPC   C3A75017  10.578   4.999   7.002
 5941POPC   C4A75018  10.558   5.349   7.277
 5941POPC   C1B75019  10.018   5.114   6.212
 5941POPC   C2B75020  10.196   5.058   6.637
 5941POPC   C3B75021  10.096   5.165   7.067
 5941POPC   C4B75022   9.893   5.249   7.445
 5942POPC   NC375023  10.439  26.235   5.434
 5942POPC   PO475024  10.684  25.605   5.457
 5942POPC   GL175025  10.531  25.900   5.803
 5942POPC   GL275026  10.284  26.217   5.896
 5942POPC   C1A75027  10.747  26.105   6.154
 5942POPC   D2A75028  10.700  25.955   6.572
 5942POPC   C3A75029  10.815  26.170   6.951
 5942POPC   C4A75030  10.744  25.939   7.320
 5942POPC   C1B75031  10.263  25.956   6.238
 5942POPC   C2B75032  10.243  25.709   6.596
 5942POPC   C3B75033  10.334  25.927   6.956
 5942POPC   C4B75034  10.196  26.016   7.344
 5943POPC   NC375035  41.074  13.690   5.514
 5943POPC   PO475036  40.418  13.592   5.483
 5943POPC   GL175037  40.682  13.605   5.864
 5943POPC   GL275038  40.807  13.950   5.878
 5943POPC   C1A75039  40.790  13.376   6.275
 5943POPC   D2A75040  40.889  13.576   6.673
 5943POPC   C3A75041  40.999  13.381   7.034
 5943POPC   C4A75042  40.738  13.113   7.231
 5943POPC   C1B75043  40.794  13.918   6.305
 5943POPC   C2B75044  41.068  14.059   6.652
 5943POPC   C3B75045  40.974  13.912   7.066
 5943POPC   C4B75046  41.131  13.731   7.401
 5944POPC   NC375047  15.747  14.316   5.522
 5944POPC   PO475048  16.166  14.839   5.456
 5944POPC   GL175049  16.014  14.624   5.842
 5944POPC   GL275050  15.614  14.644   5.895
 5944POPC   C1A75051  16.123  14.586   6.293
 5944POPC   D2A75052  15.883  14.657   6.684
 5944POPC   C3A75053  15.972  14.394   7.049
 5944POPC   C4A75054  16.364  14.405   7.252
 5944POPC   C1B75055  15.639  14.362   6.284
 5944POPC   C2B75056  15.543  14.284   6.744
 5944POPC   C3B75057  15.463  14.293   7.174
 5944POPC   C4B75058  15.706  14.208   7.554
 5945POPC   NC375059  22.225   3.578   5.119
 5945POPC   PO475060  22.772   3.645   5.398
 5945POPC   GL175061  22.482   3.478   5.841
 5945POPC   GL275062  22.115   3.395   5.864
 5945POPC   C1A75063  22.312   3.472   6.313
 5945POPC   D2A75064  22.043   3.736   6.613
 5945POPC   C3A75065  21.999   3.670   7.081
 5945POPC   C4A75066  22.441   3.607   7.227
 5945POPC   C1B75067  21.800   3.347   6.175
 5945POPC   C2B75068  21.922   3.241   6.580
 5945POPC   C3B75069  22.218   3.266   6.882
 5945POPC   C4B75070  22.190   3.152   7.285
 5946POPC   NC375071  30.549  44.191   5.511
 5946POPC   PO475072  30.811  43.587   5.405
 5946POPC   GL175073  30.622  43.752   5.763
 5946POPC   GL275074  30.897  43.661   5.934
 5946POPC   C1A75075  30.555  43.926   6.187
 5946POPC   D2A75076  30.531  43.730   6.572
 5946POPC   C3A75077  30.625  43.929   6.947
 5946POPC   C4A75078  30.606  43.728   7.375
 5946POPC   C1B75079  31.006  43.616   6.313
 5946POPC   C2B75080  30.945  43.435   6.672
 5946POPC   C3B75081  30.664  43.419   6.974
 5946POPC   C4B75082  30.920  43.344   7.260
 5947POPC   NC375083  26.601  41.734   5.482
 5947POPC   PO475084  26.750  42.446   5.441
 5947POPC   GL175085  26.729  42.302   5.839
 5947POPC   GL275086  26.487  42.560   5.947
 5947POPC   C1A75087  26.884  42.394   6.253
 5947POPC   D2A75088  27.043  42.468   6.651
 5947POPC   C3A75089  26.842  42.234   6.974
 5947POPC   C4A75090  26.658  42.308   7.355
 5947POPC   C1B75091  26.379  42.229   6.228
 5947POPC   C2B75092  26.531  42.072   6.608
 5947POPC   C3B75093  26.338  42.087   7.017
 5947POPC   C4B75094  26.327  41.907   7.456
 5948POPC   NC375095  25.484  16.045   5.370
 5948POPC   PO475096  25.342  15.349   5.357
 5948POPC   GL175097  25.415  15.581   5.783
 5948POPC   GL275098  25.349  15.958   5.845
 5948POPC   C1A75099  25.115  15.654   6.179
 5948POPC   D2A75100  24.946  16.037   6.424
 5948POPC   C3A75101  25.016  16.029   6.867
 5948POPC   C4A75102  25.258  15.951   7.227
 5948POPC   C1B75103  25.548  15.942   6.231
 5948POPC   C2B75104  25.585  16.270   6.527
 5948POPC   C3B75105  25.461  16.304   6.931
 5948POPC   C4B75106  25.657  16.288   7.322
 5949POPC   NC375107   1.398   7.081   5.329
 5949POPC   PO475108   1.481   6.399   5.352
 5949POPC   GL175109   1.381   6.665   5.715
 5949POPC   GL275110   1.037   6.565   5.741
 5949POPC   C1A75111   1.342   6.866   6.134
 5949POPC   D2A75112   1.522   6.777   6.544
 5949POPC   C3A75113   1.254   6.945   6.848
 5949POPC   C4A75114   1.175   6.962   7.265
 5949POPC   C1B75115   1.172   6.399   6.165
 5949POPC   C2B75116   1.099   6.484   6.606
 5949POPC   C3B75117   1.182   6.465   7.061
 5949POPC   C4B75118   0.914   6.544   7.416
 5950POPC   NC375119   8.819  44.890   5.274
 5950POPC   PO475120   9.355  44.537   5.297
 5950POPC   GL175121   9.077  44.513   5.684
 5950POPC   GL275122   8.694  44.613   5.699
 5950POPC   C1A75123   9.150  44.844   6.005
 5950POPC   D2A75124   9.196  44.940   6.466
 5950POPC   C3A75125   8.866  44.835   6.714
 5950POPC   C4A75126   8.818  44.783   7.156
 5950POPC   C1B75127   8.690  44.729   6.146
 5950POPC   C2B75128   8.934  44.449   6.395
 5950POPC   C3B75129   8.906  44.351   6.860
 5950POPC   C4B75130   8.586  44.325   7.215
 5951POPC   NC375131   5.891   3.198   5.297
 5951POPC   PO475132   5.659   2.539   5.253
 5951POPC   GL175133   5.660   2.773   5.685
 5951POPC   GL275134   5.928   3.042   5.788
 5951POPC   C1A75135   5.829   2.678   6.125
 5951POPC   D2A75136   5.683   2.643   6.532
 5951POPC   C3A75137   5.803   2.722   6.899
 5951POPC   C4A75138   5.896   2.543   7.243
 5951POPC   C1B75139   6.235   2.990   6.175
 5951POPC   C2B75140   6.105   3.027   6.635
 5951POPC   C3B75141   6.207   2.949   7.108
 5951POPC   C4B75142   6.166   2.822   7.587
 5952POPC   NC375143  40.808   3.977   5.468
 5952POPC   PO475144  40.380   4.520   5.478
 5952POPC   GL175145  40.683   4.357   5.778
 5952POPC   GL275146  41.006   4.495   5.680
 5952POPC   C1A75147  40.715   4.340   6.209
 5952POPC   D2A75148  40.641   4.618   6.554
 5952POPC   C3A75149  40.673   4.360   6.901
 5952POPC   C4A75150  40.593   4.118   7.254
 5952POPC   C1B75151  41.221   4.418   6.052
 5952POPC   C2B75152  41.172   4.364   6.479
 5952POPC   C3B75153  41.204   4.348   6.903
 5952POPC   C4B75154  41.008   4.385   7.290
 5953POPC   NC375155   7.454  31.440   5.512
 5953POPC   PO475156   7.014  31.013   5.615
 5953POPC   GL175157   7.193  31.213   5.995
 5953POPC   GL275158   7.481  31.449   6.006
 5953POPC   C1A75159   7.186  31.405   6.414
 5953POPC   D2A75160   7.429  31.689   6.675
 5953POPC   C3A75161   7.228  31.629   7.087
 5953POPC   C4A75162   7.235  31.353   7.481
 5953POPC   C1B75163   7.815  31.649   6.227
 5953POPC   C2B75164   8.033  31.619   6.602
 5953POPC   C3B75165   7.898  31.447   6.979
 5953POPC   C4B75166   7.675  31.572   7.319
 5954POPC   NC375167  32.875  12.570   5.468
 5954POPC   PO475168  33.520  12.851   5.517
 5954POPC   GL175169  33.209  12.710   5.843
 5954POPC   GL275170  32.885  12.926   5.861
 5954POPC   C1A75171  33.014  12.665   6.286
 5954POPC   D2A75172  32.864  12.680   6.738
 5954POPC   C3A75173  33.053  12.985   7.027
 5954POPC   C4A75174  33.213  13.304   7.335
 5954POPC   C1B75175  32.586  13.020   6.215
 5954POPC   C2B75176  32.623  13.171   6.644
 5954POPC   C3B75177  32.513  13.011   7.035
 5954POPC   C4B75178  32.650  12.646   7.212
 5955POPC   NC375179  23.456   2.483   5.512
 5955POPC   PO475180  23.891   2.954   5.382
 5955POPC   GL175181  23.853   2.723   5.750
 5955POPC   GL275182  23.568   2.940   5.876
 5955POPC   C1A75183  23.773   2.597   6.186
 5955POPC   D2A75184  23.568   2.847   6.503
 5955POPC   C3A75185  23.723   2.854   6.917
 5955POPC   C4A75186  23.619   2.699   7.308
 5955POPC   C1B75187  23.287   3.161   6.203
 5955POPC   C2B75188  23.102   3.047   6.606
 5955POPC   C3B75189  23.258   3.064   7.009
 5955POPC   C4B75190  23.374   3.154   7.433
 5956POPC   NC375191  33.488   1.983   5.426
 5956POPC   PO475192  33.039   1.586   5.607
 5956POPC   GL175193  32.899   1.803   5.949
 5956POPC   GL275194  33.086   2.135   5.854
 5956POPC   C1A75195  33.027   1.973   6.350
 5956POPC   D2A75196  32.921   2.371   6.528
 5956POPC   C3A75197  32.704   2.267   6.917
 5956POPC   C4A75198  32.722   1.816   7.048
 5956POPC   C1B75199  33.393   2.302   6.187
 5956POPC   C2B75200  33.425   2.190   6.639
 5956POPC   C3B75201  33.176   2.046   6.965
 5956POPC   C4B75202  33.218   1.751   7.298
 5957POPC   NC375203  42.985   5.178   5.476
 5957POPC   PO475204  43.564   4.887   5.489
 5957POPC   GL175205  43.246   4.960   5.866
 5957POPC   GL275206  42.881   5.157   5.950
 5957POPC   C1A75207  43.130   4.905   6.286
 5957POPC   D2A75208  42.874   4.947   6.585
 5957POPC   C3A75209  43.099   5.147   6.874
 5957POPC   C4A75210  43.102   5.117   7.305
 5957POPC   C1B75211  42.958   5.483   6.246
 5957POPC   C2B75212  43.103   5.615   6.643
 5957POPC   C3B75213  42.959   5.608   7.058
 5957POPC   C4B75214  43.388   5.510   7.170
 5958POPC   NC375215  25.119  26.696   5.454
 5958POPC   PO475216  25.535  27.252   5.256
 5958POPC   GL175217  25.521  27.129   5.738
 5958POPC   GL275218  25.224  26.931   5.886
 5958POPC   C1A75219  25.495  27.143   6.237
 5958POPC   D2A75220  25.061  26.936   6.406
 5958POPC   C3A75221  25.095  26.923   6.863
 5958POPC   C4A75222  25.402  26.854   7.202
 5958POPC   C1B75223  25.187  26.520   6.112
 5958POPC   C2B75224  25.093  26.382   6.532
 5958POPC   C3B75225  25.253  26.439   6.932
 5958POPC   C4B75226  25.120  26.432   7.341
 5959POPC   NC375227  42.352  38.135   5.508
 5959POPC   PO475228  42.723  38.649   5.669
 5959POPC   GL175229  42.490  38.410   5.920
 5959POPC   GL275230  42.704  38.145   5.890
 5959POPC   C1A75231  42.433  38.448   6.333
 5959POPC   D2A75232  42.485  38.755   6.667
 5959POPC   C3A75233  42.430  38.515   7.048
 5959POPC   C4A75234  42.564  38.439   7.460
 5959POPC   C1B75235  42.661  37.977   6.303
 5959POPC   C2B75236  42.488  38.059   6.744
 5959POPC   C3B75237  42.739  38.022   7.158
 5959POPC   C4B75238  42.592  37.971   7.625
 5960POPC   NC375239  43.733  31.898   5.446
 5960POPC   PO475240  43.938  31.261   5.205
 5960POPC   GL175241  43.867  31.412   5.646
 5960POPC   GL275242  44.169  31.558   5.745
 5960POPC   C1A75243  43.703  31.428   6.096
 5960POPC   D2A75244  43.744  31.556   6.542
 5960POPC   C3A75245  43.634  31.366   6.965
 5960POPC   C4A75246  43.656  31.511   7.434
 5960POPC   C1B75247  44.184  31.622   6.169
 5960POPC   C2B75248  44.270  31.369   6.493
 5960POPC   C3B75249  44.127  31.430   6.879
 5960POPC   C4B75250  44.177  31.685   7.225
 5961POPC   NC375251  35.813  14.572   5.394
 5961POPC   PO475252  36.444  14.388   5.408
 5961POPC   GL175253  36.184  14.429   5.804
 5961POPC   GL275254  35.984  14.701   5.894
 5961POPC   C1A75255  36.183  14.352   6.277
 5961POPC   D2A75256  36.257  14.636   6.620
 5961POPC   C3A75257  36.462  14.516   6.991
 5961POPC   C4A75258  36.224  14.431   7.363
 5961POPC   C1B75259  35.723  14.532   6.234
 5961POPC   C2B75260  35.655  14.347   6.630
 5961POPC   C3B75261  35.616  14.070   6.976
 5961POPC   C4B75262  35.715  14.367   7.286
 5962POPC   NC375263  18.426  42.058   5.595
 5962POPC   PO475264  18.215  41.365   5.510
 5962POPC   GL175265  18.358  41.601   5.825
 5962POPC   GL275266  18.637  41.461   5.875
 5962POPC   C1A75267  18.250  41.623   6.246
 5962POPC   D2A75268  18.140  41.360   6.578
 5962POPC   C3A75269  18.264  41.554   6.948
 5962POPC   C4A75270  18.023  41.389   7.261
 5962POPC   C1B75271  18.769  41.583   6.228
 5962POPC   C2B75272  18.647  41.727   6.604
 5962POPC   C3B75273  18.828  41.640   6.988
 5962POPC   C4B75274  18.600  41.810   7.264
 5963POPC   NC375275  10.213  25.537   5.489
 5963POPC   PO475276  10.635  24.922   5.349
 5963POPC   GL175277  10.570  25.000   5.837
 5963POPC   GL275278  10.508  25.367   5.874
 5963POPC   C1A75279  10.504  25.090   6.303
 5963POPC   D2A75280  10.223  25.167   6.647
 5963POPC   C3A75281  10.390  25.025   7.033
 5963POPC   C4A75282  10.456  25.125   7.464
 5963POPC   C1B75283  10.641  25.577   6.237
 5963POPC   C2B75284  10.693  25.436   6.685
 5963POPC   C3B75285  10.554  25.504   7.129
 5963POPC   C4B75286  10.780  25.489   7.555
 5964POPC   NC375287  30.326  37.754   5.507
 5964POPC   PO475288  30.996  37.872   5.674
 5964POPC   GL175289  30.698  37.664   5.857
 5964POPC   GL275290  30.505  37.917   5.971
 5964POPC   C1A75291  30.725  37.507   6.245
 5964POPC   D2A75292  30.545  37.571   6.629
 5964POPC   C3A75293  30.746  37.613   6.992
 5964POPC   C4A75294  30.722  37.358   7.282
 5964POPC   C1B75295  30.426  38.000   6.412
 5964POPC   C2B75296  30.343  37.963   6.900
 5964POPC   C3B75297  30.345  37.897   7.355
 5964POPC   C4B75298  30.317  37.973   7.831
 5965POPC   NC375299  14.987  17.337   5.314
 5965POPC   PO475300  15.635  17.469   5.494
 5965POPC   GL175301  15.448  17.388   5.856
 5965POPC   GL275302  15.141  17.586   5.800
 5965POPC   C1A75303  15.628  17.401   6.255
 5965POPC   D2A75304  15.474  17.550   6.641
 5965POPC   C3A75305  15.284  17.328   6.955
 5965POPC   C4A75306  15.410  17.516   7.333
 5965POPC   C1B75307  15.223  17.755   6.228
 5965POPC   C2B75308  14.990  17.777   6.638
 5965POPC   C3B75309  15.090  17.816   7.094
 5965POPC   C4B75310  15.006  17.643   7.579
 5966POPC   NC375311  36.774  41.332   5.458
 5966POPC   PO475312  36.842  41.949   5.401
 5966POPC   GL175313  36.805  41.763   5.817
 5966POPC   GL275314  37.124  41.619   5.762
 5966POPC   C1A75315  36.834  41.714   6.302
 5966POPC   D2A75316  37.139  41.515   6.603
 5966POPC   C3A75317  37.061  41.565   7.025
 5966POPC   C4A75318  36.929  41.967   7.170
 5966POPC   C1B75319  37.102  41.312   6.096
 5966POPC   C2B75320  37.363  41.106   6.419
 5966POPC   C3B75321  37.265  41.039   6.877
 5966POPC   C4B75322  37.255  41.209   7.337
 5967POPC   NC375323   8.291   3.783   5.390
 5967POPC   PO475324   7.916   3.146   5.473
 5967POPC   GL175325   7.998   3.328   5.856
 5967POPC   GL275326   8.233   3.596   5.850
 5967POPC   C1A75327   7.976   3.439   6.289
 5967POPC   D2A75328   8.242   3.672   6.568
 5967POPC   C3A75329   8.050   3.632   6.962
 5967POPC   C4A75330   7.870   3.392   7.272
 5967POPC   C1B75331   8.483   3.387   6.146
 5967POPC   C2B75332   8.594   3.284   6.560
 5967POPC   C3B75333   8.554   3.493   6.958
 5967POPC   C4B75334   8.388   3.617   7.338
 5968POPC   NC375335  37.151  37.014   5.172
 5968POPC   PO475336  37.603  37.332   5.571
 5968POPC   GL175337  37.602  36.918   5.821
 5968POPC   GL275338  37.942  36.801   5.970
 5968POPC   C1A75339  37.479  36.755   6.238
 5968POPC   D2A75340  37.587  36.840   6.660
 5968POPC   C3A75341  37.529  36.584   7.003
 5968POPC   C4A75342  37.889  36.646   7.220
 5968POPC   C1B75343  37.834  37.146   6.248
 5968POPC   C2B75344  37.778  37.316   6.656
 5968POPC   C3B75345  37.759  37.156   7.099
 5968POPC   C4B75346  37.962  37.028   7.529
 5969POPC   NC375347  31.594  21.962   5.748
 5969POPC   PO475348  32.025  22.420   5.585
 5969POPC   GL175349  31.780  22.452   5.966
 5969POPC   GL275350  31.418  22.443   5.915
 5969POPC   C1A75351  31.803  22.166   6.349
 5969POPC   D2A75352  31.550  21.887   6.606
 5969POPC   C3A75353  31.385  22.145   6.915
 5969POPC   C4A75354  31.571  22.202   7.294
 5969POPC   C1B75355  31.102  22.434   6.231
 5969POPC   C2B75356  30.968  22.297   6.625
 5969POPC   C3B75357  30.997  22.478   7.017
 5969POPC   C4B75358  31.124  22.422   7.389
 5970POPC   NC375359  17.954  38.643   5.441
 5970POPC   PO475360  18.517  38.293   5.409
 5970POPC   GL175361  18.268  38.312   5.754
 5970POPC   GL275362  18.348  38.675   5.777
 5970POPC   C1A75363  18.306  38.357   6.200
 5970POPC   D2A75364  18.605  38.293   6.527
 5970POPC   C3A75365  18.376  38.293   6.921
 5970POPC   C4A75366  18.127  38.316   7.254
 5970POPC   C1B75367  18.187  38.851   6.169
 5970POPC   C2B75368  18.354  38.764   6.594
 5970POPC   C3B75369  18.272  38.843   7.055
 5970POPC   C4B75370  18.117  38.756   7.499
 5971POPC   NC375371  40.847  39.418   5.375
 5971POPC   PO475372  40.331  39.027   5.229
 5971POPC   GL175373  40.581  39.194   5.730
 5971POPC   GL275374  40.946  39.283   5.844
 5971POPC   C1A75375  40.602  39.115   6.191
 5971POPC   D2A75376  40.769  38.940   6.585
 5971POPC   C3A75377  40.587  39.092   6.969
 5971POPC   C4A75378  40.611  38.961   7.393
 5971POPC   C1B75379  41.117  39.158   6.247
 5971POPC   C2B75380  40.991  39.392   6.579
 5971POPC   C3B75381  41.064  39.293   6.977
 5971POPC   C4B75382  40.826  39.433   7.339
 5972POPC   NC375383   5.668   8.419   5.508
 5972POPC   PO475384   6.118   8.974   5.527
 5972POPC   GL175385   5.928   8.966   5.926
 5972POPC   GL275386   5.682   8.726   5.918
 5972POPC   C1A75387   5.894   8.993   6.379
 5972POPC   D2A75388   6.154   8.916   6.741
 5972POPC   C3A75389   5.835   8.982   7.036
 5972POPC   C4A75390   5.446   9.216   6.988
 5972POPC   C1B75391   5.541   8.535   6.313
 5972POPC   C2B75392   5.650   8.563   6.776
 5972POPC   C3B75393   5.533   8.463   7.221
 5972POPC   C4B75394   5.477   8.604   7.667
 5973POPC   NC375395  24.352  27.240   5.113
 5973POPC   PO475396  24.747  26.895   5.628
 5973POPC   GL175397  24.417  26.715   5.856
 5973POPC   GL275398  24.553  26.402   5.877
 5973POPC   C1A75399  24.176  26.798   6.209
 5973POPC   D2A75400  24.336  27.003   6.573
 5973POPC   C3A75401  24.279  26.954   7.009
 5973POPC   C4A75402  24.699  26.906   7.183
 5973POPC   C1B75403  24.648  26.551   6.299
 5973POPC   C2B75404  24.667  26.622   6.747
 5973POPC   C3B75405  24.655  26.403   7.146
 5973POPC   C4B75406  24.667  26.376   7.614
 5974POPC   NC375407  26.497  18.449   5.516
 5974POPC   PO475408  25.892  18.113   5.379
 5974POPC   GL175409  25.918  18.017   5.815
 5974POPC   GL275410  26.214  18.219   5.884
 5974POPC   C1A75411  25.839  18.187   6.262
 5974POPC   D2A75412  26.077  18.503   6.567
 5974POPC   C3A75413  26.079  18.401   7.031
 5974POPC   C4A75414  25.819  18.170   7.356
 5974POPC   C1B75415  26.317  18.001   6.269
 5974POPC   C2B75416  26.135  17.990   6.692
 5974POPC   C3B75417  26.178  17.882   7.140
 5974POPC   C4B75418  26.343  18.195   7.427
 5975POPC   NC375419  38.252   3.748   5.448
 5975POPC   PO475420  38.822   3.356   5.296
 5975POPC   GL175421  38.605   3.459   5.702
 5975POPC   GL275422  38.755   3.682   5.949
 5975POPC   C1A75423  38.275   3.478   6.051
 5975POPC   D2A75424  38.435   3.554   6.455
 5975POPC   C3A75425  38.352   3.519   6.905
 5975POPC   C4A75426  38.191   3.357   7.306
 5975POPC   C1B75427  38.795   3.926   6.322
 5975POPC   C2B75428  38.844   3.715   6.710
 5975POPC   C3B75429  38.827   3.381   7.002
 5975POPC   C4B75430  38.659   3.562   7.387
 5976POPC   NC375431  44.642   6.507   5.251
 5976POPC   PO475432   0.092   6.896   5.524
 5976POPC   GL175433  44.860   6.773   5.863
 5976POPC   GL275434  44.902   6.444   5.787
 5976POPC   C1A75435  44.529   6.602   6.128
 5976POPC   D2A75436  44.310   6.827   6.427
 5976POPC   C3A75437  44.538   6.925   6.795
 5976POPC   C4A75438  44.607   6.878   7.228
 5976POPC   C1B75439  44.970   6.335   6.219
 5976POPC   C2B75440  44.792   6.502   6.593
 5976POPC   C3B75441  44.660   6.404   7.006
 5976POPC   C4B75442  44.763   6.050   7.295
 5977POPC   NC375443  25.441  18.205   5.425
 5977POPC   PO475444  25.100  18.658   5.667
 5977POPC   GL175445  25.405  18.448   5.936
 5977POPC   GL275446  25.405  18.077   5.914
 5977POPC   C1A75447  25.340  18.316   6.371
 5977POPC   D2A75448  25.233  17.997   6.672
 5977POPC   C3A75449  25.289  18.163   7.048
 5977POPC   C4A75450  25.125  18.527   7.224
 5977POPC   C1B75451  25.093  17.878   6.179
 5977POPC   C2B75452  24.763  17.844   6.495
 5977POPC   C3B75453  24.765  18.008   6.912
 5977POPC   C4B75454  24.844  18.109   7.319
 5978POPC   NC375455  38.687  33.267   5.386
 5978POPC   PO475456  38.414  33.941   5.410
 5978POPC   GL175457  38.595  33.821   5.801
 5978POPC   GL275458  38.474  33.489   5.782
 5978POPC   C1A75459  38.693  33.986   6.221
 5978POPC   D2A75460  38.450  34.026   6.615
 5978POPC   C3A75461  38.600  34.110   7.037
 5978POPC   C4A75462  38.455  33.953   7.455
 5978POPC   C1B75463  38.723  33.444   6.151
 5978POPC   C2B75464  38.729  33.583   6.556
 5978POPC   C3B75465  38.504  33.596   6.931
 5978POPC   C4B75466  38.638  33.482   7.331
 5979POPC   NC375467  24.449  27.239   5.662
 5979POPC   PO475468  24.389  27.701   5.154
 5979POPC   GL175469  24.347  27.774   5.645
 5979POPC   GL275470  24.144  28.078   5.661
 5979POPC   C1A75471  24.546  27.747   6.127
 5979POPC   D2A75472  24.802  27.705   6.544
 5979POPC   C3A75473  24.695  27.332   6.791
 5979POPC   C4A75474  24.505  27.384   7.174
 5979POPC   C1B75475  24.043  27.847   6.063
 5979POPC   C2B75476  24.173  27.878   6.505
 5979POPC   C3B75477  24.378  27.786   6.886
 5979POPC   C4B75478  24.763  27.897   7.087
 5980POPC   NC375479  44.230  34.037   5.752
 5980POPC   PO475480  43.734  33.744   5.422
 5980POPC   GL175481  43.689  33.672   5.834
 5980POPC   GL275482  43.467  33.931   5.981
 5980POPC   C1A75483  43.892  33.574   6.241
 5980POPC   D2A75484  43.717  33.711   6.655
 5980POPC   C3A75485  44.017  33.724   7.004
 5980POPC   C4A75486  44.133  34.092   7.236
 5980POPC   C1B75487  43.390  33.527   6.223
 5980POPC   C2B75488  43.559  33.236   6.573
 5980POPC   C3B75489  43.584  33.345   7.010
 5980POPC   C4B75490  43.544  33.779   7.166
 5981POPC   NC375491   8.805   0.946   5.693
 5981POPC   PO475492   8.837   0.356   5.337
 5981POPC   GL175493   8.959   0.439   5.799
 5981POPC   GL275494   8.968   0.717   6.105
 5981POPC   C1A75495   8.876   0.232   6.200
 5981POPC   D2A75496   8.966   0.438   6.578
 5981POPC   C3A75497   9.142   0.225   6.918
 5981POPC   C4A75498   8.943   0.258   7.292
 5981POPC   C1B75499   8.555   0.631   6.300
 5981POPC   C2B75500   8.465   0.682   6.730
 5981POPC   C3B75501   8.705   0.691   7.117
 5981POPC   C4B75502   9.170   0.708   7.236
 5982POPC   NC375503  13.180   6.291   5.556
 5982POPC   PO475504  13.798   6.189   5.205
 5982POPC   GL175505  13.742   6.441   5.656
 5982POPC   GL275506  13.995   6.720   5.675
 5982POPC   C1A75507  13.583   6.435   6.145
 5982POPC   D2A75508  13.484   6.335   6.624
 5982POPC   C3A75509  13.459   6.693   6.981
 5982POPC   C4A75510  13.564   6.626   7.430
 5982POPC   C1B75511  13.910   6.832   6.124
 5982POPC   C2B75512  13.752   6.765   6.550
 5982POPC   C3B75513  13.960   6.728   6.976
 5982POPC   C4B75514  13.786   7.038   7.239
 5983POPC   NC375515  29.237  22.526   5.417
 5983POPC   PO475516  28.915  21.985   5.370
 5983POPC   GL175517  28.938  22.110   5.805
 5983POPC   GL275518  29.279  22.151   5.862
 5983POPC   C1A75519  28.925  22.192   6.268
 5983POPC   D2A75520  29.084  22.372   6.658
 5983POPC   C3A75521  29.035  22.157   7.052
 5983POPC   C4A75522  28.961  21.735   7.078
 5983POPC   C1B75523  29.448  22.202   6.283
 5983POPC   C2B75524  29.608  22.306   6.693
 5983POPC   C3B75525  29.439  22.487   7.064
 5983POPC   C4B75526  29.281  22.327   7.497
 5984POPC   NC375527  23.248  43.909   5.187
 5984POPC   PO475528  22.732  43.680   5.492
 5984POPC   GL175529  22.782  43.917   5.848
 5984POPC   GL275530  23.122  43.911   5.768
 5984POPC   C1A75531  22.689  43.904   6.301
 5984POPC   D2A75532  22.974  43.756   6.637
 5984POPC   C3A75533  22.799  43.831   7.011
 5984POPC   C4A75534  22.735  44.280   7.135
 5984POPC   C1B75535  23.176  44.016   6.221
 5984POPC   C2B75536  23.478  43.841   6.552
 5984POPC   C3B75537  23.376  43.526   6.887
 5984POPC   C4B75538  23.176  43.616   7.302
 5985POPC   NC375539  11.074  27.486   5.319
 5985POPC   PO475540  11.715  27.613   5.194
 5985POPC   GL175541  11.473  27.593   5.649
 5985POPC   GL275542  11.220  27.768   5.742
 5985POPC   C1A75543  11.371  27.427   6.107
 5985POPC   D2A75544  11.635  27.431   6.496
 5985POPC   C3A75545  11.494  27.567   6.915
 5985POPC   C4A75546  11.561  27.424   7.311
 5985POPC   C1B75547  11.099  27.877   6.180
 5985POPC   C2B75548  11.202  27.826   6.593
 5985POPC   C3B75549  11.018  27.782   7.017
 5985POPC   C4B75550  11.082  28.065   7.393
 5986POPC   NC375551   2.864  40.841   5.440
 5986POPC   PO475552   2.164  41.129   5.632
 5986POPC   GL175553   2.512  41.020   5.790
 5986POPC   GL275554   2.529  40.654   5.777
 5986POPC   C1A75555   2.620  40.953   6.218
 5986POPC   D2A75556   2.527  40.738   6.585
 5986POPC   C3A75557   2.669  40.958   6.969
 5986POPC   C4A75558   2.596  41.010   7.434
 5986POPC   C1B75559   2.718  40.446   6.138
 5986POPC   C2B75560   2.799  40.273   6.554
 5986POPC   C3B75561   2.701  40.425   6.950
 5986POPC   C4B75562   2.858  40.600   7.304
 5987POPC   NC375563   7.694  15.350   5.608
 5987POPC   PO475564   7.092  15.180   5.328
 5987POPC   GL175565   7.290  15.094   5.755
 5987POPC   GL275566   7.189  15.401   5.937
 5987POPC   C1A75567   7.487  15.080   6.209
 5987POPC   D2A75568   7.330  14.945   6.574
 5987POPC   C3A75569   7.414  14.947   7.019
 5987POPC   C4A75570   7.794  15.120   7.203
 5987POPC   C1B75571   7.532  15.580   6.248
 5987POPC   C2B75572   7.594  15.420   6.675
 5987POPC   C3B75573   7.410  15.475   7.085
 5987POPC   C4B75574   7.431  15.426   7.534
 5988POPC   NC375575   5.171   9.836   5.619
 5988POPC   PO475576   4.809   9.318   5.568
 5988POPC   GL175577   4.834   9.557   5.967
 5988POPC   GL275578   4.816   9.908   5.984
 5988POPC   C1A75579   4.977   9.638   6.420
 5988POPC   D2A75580   5.301   9.694   6.768
 5988POPC   C3A75581   5.095   9.736   7.167
 5988POPC   C4A75582   4.766   9.960   7.392
 5988POPC   C1B75583   5.260  10.000   6.223
 5988POPC   C2B75584   5.278  10.215   6.621
 5988POPC   C3B75585   5.415  10.146   7.048
 5988POPC   C4B75586   5.273  10.084   7.490
 5989POPC   NC375587  19.510  14.324   5.398
 5989POPC   PO475588  20.178  14.232   5.460
 5989POPC   GL175589  19.942  14.169   5.819
 5989POPC   GL275590  19.949  14.533   5.865
 5989POPC   C1A75591  20.007  14.206   6.277
 5989POPC   D2A75592  20.248  14.246   6.674
 5989POPC   C3A75593  19.990  14.531   6.936
 5989POPC   C4A75594  19.746  14.466   7.298
 5989POPC   C1B75595  19.587  14.508   6.095
 5989POPC   C2B75596  19.588  14.493   6.533
 5989POPC   C3B75597  19.406  14.496   6.930
 5989POPC   C4B75598  19.237  14.576   7.359
 5990POPC   NC375599   2.242  27.181   5.651
 5990POPC   PO475600   2.473  26.629   5.480
 5990POPC   GL175601   2.241  26.534   5.855
 5990POPC   GL275602   2.372  26.833   5.992
 5990POPC   C1A75603   1.966  26.468   6.216
 5990POPC   D2A75604   1.853  26.681   6.590
 5990POPC   C3A75605   1.950  26.505   6.962
 5990POPC   C4A75606   1.737  26.671   7.306
 5990POPC   C1B75607   2.421  27.098   6.342
 5990POPC   C2B75608   2.077  27.168   6.615
 5990POPC   C3B75609   1.992  27.013   7.012
 5990POPC   C4B75610   2.136  27.163   7.396
 5991POPC   NC375611  33.395  25.335   5.153
 5991POPC   PO475612  32.874  25.436   5.512
 5991POPC   GL175613  32.895  25.337   5.962
 5991POPC   GL275614  32.763  24.984   5.858
 5991POPC   C1A75615  33.102  25.377   6.412
 5991POPC   D2A75616  33.369  25.538   6.756
 5991POPC   C3A75617  33.228  25.302   7.103
 5991POPC   C4A75618  32.799  25.380   7.243
 5991POPC   C1B75619  32.870  24.941   6.306
 5991POPC   C2B75620  32.940  25.017   6.758
 5991POPC   C3B75621  32.889  24.890   7.194
 5991POPC   C4B75622  33.233  24.919   7.511
 5992POPC   NC375623   4.837  17.890   5.137
 5992POPC   PO475624   5.176  17.335   5.383
 5992POPC   GL175625   5.058  17.259   5.794
 5992POPC   GL275626   5.381  17.419   5.867
 5992POPC   C1A75627   4.959  17.354   6.217
 5992POPC   D2A75628   5.185  17.415   6.611
 5992POPC   C3A75629   5.100  17.129   6.936
 5992POPC   C4A75630   5.045  17.188   7.353
 5992POPC   C1B75631   5.302  17.720   6.207
 5992POPC   C2B75632   5.432  17.864   6.651
 5992POPC   C3B75633   5.327  17.700   7.092
 5992POPC   C4B75634   5.428  17.477   7.491
 5993POPC   NC375635  34.353  25.523   5.370
 5993POPC   PO475636  34.371  24.866   5.288
 5993POPC   GL175637  34.344  25.098   5.699
 5993POPC   GL275638  34.620  25.348   5.786
 5993POPC   C1A75639  34.288  25.229   6.157
 5993POPC   D2A75640  34.461  25.443   6.500
 5993POPC   C3A75641  34.401  25.262   6.881
 5993POPC   C4A75642  34.353  25.129   7.285
 5993POPC   C1B75643  34.851  25.324   6.206
 5993POPC   C2B75644  34.913  25.288   6.684
 5993POPC   C3B75645  34.854  25.278   7.150
 5993POPC   C4B75646  35.140  25.211   7.523
 5994POPC   NC375647  19.664  40.858   5.487
 5994POPC   PO475648  20.149  40.388   5.348
 5994POPC   GL175649  20.013  40.608   5.766
 5994POPC   GL275650  19.951  40.987   5.878
 5994POPC   C1A75651  19.778  40.560   6.172
 5994POPC   D2A75652  19.934  40.563   6.588
 5994POPC   C3A75653  19.708  40.512   6.963
 5994POPC   C4A75654  20.039  40.512   7.248
 5994POPC   C1B75655  19.562  41.033   6.146
 5994POPC   C2B75656  19.511  40.877   6.575
 5994POPC   C3B75657  19.551  41.016   6.996
 5994POPC   C4B75658  19.697  40.890   7.406
 5995POPC   NC375659  27.922   3.439   5.523
 5995POPC   PO475660  27.301   3.429   5.287
 5995POPC   GL175661  27.435   3.446   5.698
 5995POPC   GL275662  27.350   3.123   5.818
 5995POPC   C1A75663  27.523   3.687   6.077
 5995POPC   D2A75664  27.424   3.597   6.510
 5995POPC   C3A75665  27.551   3.695   6.931
 5995POPC   C4A75666  27.215   3.874   7.170
 5995POPC   C1B75667  27.349   3.097   6.275
 5995POPC   C2B75668  27.519   3.109   6.705
 5995POPC   C3B75669  27.595   3.217   7.133
 5995POPC   C4B75670  27.386   3.466   7.434
 5996POPC   NC375671   7.799  29.150   5.164
 5996POPC   PO475672   8.488  29.183   5.273
 5996POPC   GL175673   8.141  29.177   5.639
 5996POPC   GL275674   8.081  28.840   5.781
 5996POPC   C1A75675   8.128  29.247   6.115
 5996POPC   D2A75676   8.067  29.073   6.550
 5996POPC   C3A75677   8.266  29.269   6.929
 5996POPC   C4A75678   8.350  29.138   7.343
 5996POPC   C1B75679   7.969  28.659   6.192
 5996POPC   C2B75680   7.866  28.601   6.620
 5996POPC   C3B75681   7.867  28.834   6.987
 5996POPC   C4B75682   7.909  28.894   7.372
 5997POPC   NC375683   2.270  36.770   5.028
 5997POPC   PO475684   1.723  36.663   5.488
 5997POPC   GL175685   1.842  36.909   5.858
 5997POPC   GL275686   2.214  36.984   5.871
 5997POPC   C1A75687   1.790  37.043   6.301
 5997POPC   D2A75688   1.785  36.833   6.718
 5997POPC   C3A75689   1.819  37.018   7.122
 5997POPC   C4A75690   2.138  36.971   7.499
 5997POPC   C1B75691   2.184  36.713   6.237
 5997POPC   C2B75692   2.285  36.806   6.641
 5997POPC   C3B75693   2.201  36.686   7.067
 5997POPC   C4B75694   2.514  36.612   7.447
 5998POPC   NC375695  23.047  22.189   5.469
 5998POPC   PO475696  23.329  22.727   5.708
 5998POPC   GL175697  23.036  22.412   5.913
 5998POPC   GL275698  22.698  22.271   5.885
 5998POPC   C1A75699  23.095  22.092   6.218
 5998POPC   D2A75700  22.957  22.045   6.616
 5998POPC   C3A75701  23.107  22.251   6.970
 5998POPC   C4A75702  22.844  22.385   7.313
 5998POPC   C1B75703  22.592  21.951   6.239
 5998POPC   C2B75704  22.583  21.717   6.642
 5998POPC   C3B75705  22.675  21.955   7.047
 5998POPC   C4B75706  22.708  21.929   7.506
 5999POPC   NC375707  39.429  11.774   5.483
 5999POPC   PO475708  38.963  11.253   5.469
 5999POPC   GL175709  39.195  11.330   5.838
 5999POPC   GL275710  39.445  11.573   5.940
 5999POPC   C1A75711  39.216  11.219   6.244
 5999POPC   D2A75712  39.373  10.973   6.547
 5999POPC   C3A75713  39.118  11.070   6.865
 5999POPC   C4A75714  38.982  10.982   7.257
 5999POPC   C1B75715  39.419  11.777   6.304
 5999POPC   C2B75716  39.183  11.577   6.608
 5999POPC   C3B75717  38.985  11.580   6.978
 5999POPC   C4B75718  39.256  11.421   7.244
 6000POPC   NC375719   0.836  44.489   5.575
 6000POPC   PO475720   0.178  44.571   5.397
 6000POPC   GL175721   0.425  44.848   5.687
 6000POPC   GL275722   0.436  44.555   5.879
 6000POPC   C1A75723   0.612  44.958   6.127
 6000POPC   D2A75724   0.610  44.669   6.496
 6000POPC   C3A75725   0.341  44.707   6.856
 6000POPC   C4A75726   0.554  44.770   7.229
 6000POPC   C1B75727   0.190  44.524   6.242
 6000POPC   C2B75728   0.263  44.286   6.571
 6000POPC   C3B75729   0.093  44.228   6.919
 6000POPC   C4B75730   0.207  44.326   7.277
 6001POPC   NC375731   5.178  12.252   5.476
 6001POPC   PO475732   4.620  11.868   5.466
 6001POPC   GL175733   4.803  12.076   5.793
 6001POPC   GL275734   5.088  11.861   5.821
 6001POPC   C1A75735   4.808  12.345   6.165
 6001POPC   D2A75736   4.809  12.108   6.531
 6001POPC   C3A75737   4.861  12.274   6.927
 6001POPC   C4A75738   4.825  12.062   7.309
 6001POPC   C1B75739   5.263  12.096   6.162
 6001POPC   C2B75740   5.302  12.144   6.598
 6001POPC   C3B75741   5.141  11.861   6.919
 6001POPC   C4B75742   5.270  11.804   7.341
 6002POPC   NC375743  22.697  39.686   5.117
 6002POPC   PO475744  23.108  39.299   5.509
 6002POPC   GL175745  22.891  39.145   5.876
 6002POPC   GL275746  22.930  39.483   6.028
 6002POPC   C1A75747  22.742  39.124   6.315
 6002POPC   D2A75748  22.888  39.352   6.670
 6002POPC   C3A75749  22.926  39.087   7.022
 6002POPC   C4A75750  22.869  39.209   7.461
 6002POPC   C1B75751  23.298  39.394   6.272
 6002POPC   C2B75752  23.388  39.465   6.715
 6002POPC   C3B75753  23.179  39.522   7.140
 6002POPC   C4B75754  23.211  39.586   7.625
 6003POPC   NC375755  31.780   6.113   5.158
 6003POPC   PO475756  31.282   5.638   5.270
 6003POPC   GL175757  31.358   5.692   5.721
 6003POPC   GL275758  31.660   5.491   5.808
 6003POPC   C1A75759  31.295   5.983   6.117
 6003POPC   D2A75760  31.483   6.156   6.521
 6003POPC   C3A75761  31.236   6.053   6.922
 6003POPC   C4A75762  31.413   6.026   7.273
 6003POPC   C1B75763  31.361   5.482   6.176
 6003POPC   C2B75764  31.286   5.687   6.580
 6003POPC   C3B75765  31.448   5.578   7.037
 6003POPC   C4B75766  31.304   5.610   7.516
 6004POPC   NC375767  11.842  27.300   5.495
 6004POPC   PO475768  12.259  26.804   5.415
 6004POPC   GL175769  12.042  26.707   5.753
 6004POPC   GL275770  11.705  26.827   5.676
 6004POPC   C1A75771  12.172  26.842   6.158
 6004POPC   D2A75772  12.311  26.954   6.557
 6004POPC   C3A75773  12.091  26.794   6.909
 6004POPC   C4A75774  12.195  26.928   7.328
 6004POPC   C1B75775  11.707  27.036   6.086
 6004POPC   C2B75776  11.737  26.926   6.530
 6004POPC   C3B75777  11.673  27.075   6.956
 6004POPC   C4B75778  11.732  26.768   7.278
 6005POPC   NC375779  42.052  31.281   5.417
 6005POPC   PO475780  42.616  31.612   5.337
 6005POPC   GL175781  42.469  31.698   5.730
 6005POPC   GL275782  42.428  31.358   5.777
 6005POPC   C1A75783  42.298  31.720   6.136
 6005POPC   D2A75784  42.441  31.768   6.539
 6005POPC   C3A75785  42.328  31.611   6.930
 6005POPC   C4A75786  42.438  31.699   7.360
 6005POPC   C1B75787  42.373  31.193   6.187
 6005POPC   C2B75788  42.296  30.982   6.575
 6005POPC   C3B75789  42.376  31.098   6.954
 6005POPC   C4B75790  42.391  30.963   7.325
 6006POPC   NC375791  14.930  36.237   5.687
 6006POPC   PO475792  14.443  35.886   5.294
 6006POPC   GL175793  14.420  36.064   5.740
 6006POPC   GL275794  14.178  36.313   5.829
 6006POPC   C1A75795  14.554  36.180   6.190
 6006POPC   D2A75796  14.715  36.016   6.566
 6006POPC   C3A75797  14.655  36.263   6.940
 6006POPC   C4A75798  14.621  36.076   7.358
 6006POPC   C1B75799  14.083  36.016   6.204
 6006POPC   C2B75800  14.204  36.183   6.603
 6006POPC   C3B75801  14.209  36.030   7.010
 6006POPC   C4B75802  14.094  36.109   7.434
 6007POPC   NC375803  41.720  10.695   5.541
 6007POPC   PO475804  41.317  10.211   5.494
 6007POPC   GL175805  41.375  10.389   5.881
 6007POPC   GL275806  41.316  10.733   5.876
 6007POPC   C1A75807  41.692  10.443   6.192
 6007POPC   D2A75808  41.751  10.659   6.584
 6007POPC   C3A75809  41.722  10.394   6.956
 6007POPC   C4A75810  41.859  10.465   7.384
 6007POPC   C1B75811  41.265  10.914   6.281
 6007POPC   C2B75812  41.187  11.005   6.734
 6007POPC   C3B75813  41.389  10.781   7.097
 6007POPC   C4B75814  41.518  10.804   7.522
 6008POPC   NC375815  22.089  25.547   5.314
 6008POPC   PO475816  22.459  25.019   5.379
 6008POPC   GL175817  22.201  25.181   5.722
 6008POPC   GL275818  21.970  25.488   5.800
 6008POPC   C1A75819  22.153  25.017   6.117
 6008POPC   D2A75820  22.256  25.146   6.529
 6008POPC   C3A75821  21.965  24.998   6.822
 6008POPC   C4A75822  21.945  24.881   7.248
 6008POPC   C1B75823  22.132  25.528   6.209
 6008POPC   C2B75824  21.969  25.575   6.631
 6008POPC   C3B75825  22.017  25.478   7.072
 6008POPC   C4B75826  22.012  25.696   7.464
 6009POPC   NC375827  38.975  15.414   5.546
 6009POPC   PO475828  39.452  14.947   5.432
 6009POPC   GL175829  39.215  15.064   5.810
 6009POPC   GL275830  38.882  14.900   5.801
 6009POPC   C1A75831  39.156  15.209   6.226
 6009POPC   D2A75832  39.313  15.100   6.624
 6009POPC   C3A75833  39.120  15.365   6.911
 6009POPC   C4A75834  39.133  15.576   7.330
 6009POPC   C1B75835  38.960  14.745   6.217
 6009POPC   C2B75836  38.831  14.893   6.644
 6009POPC   C3B75837  39.005  14.863   7.058
 6009POPC   C4B75838  39.243  15.091   7.400
 6010POPC   NC375839   7.114  24.027   5.375
 6010POPC   PO475840   7.360  24.722   5.380
 6010POPC   GL175841   7.240  24.440   5.696
 6010POPC   GL275842   7.557  24.544   5.851
 6010POPC   C1A75843   7.242  24.314   6.142
 6010POPC   D2A75844   7.510  24.504   6.432
 6010POPC   C3A75845   7.475  24.355   6.848
 6010POPC   C4A75846   7.687  24.300   7.225
 6010POPC   C1B75847   7.645  24.904   6.095
 6010POPC   C2B75848   7.605  25.026   6.483
 6010POPC   C3B75849   7.396  24.864   6.811
 6010POPC   C4B75850   7.342  24.687   7.211
 6011POPC   NC375851  25.792  15.432   5.357
 6011POPC   PO475852  26.439  15.280   5.466
 6011POPC   GL175853  26.253  15.353   5.836
 6011POPC   GL275854  25.889  15.272   5.845
 6011POPC   C1A75855  26.210  15.139   6.211
 6011POPC   D2A75856  25.879  15.008   6.467
 6011POPC   C3A75857  26.070  15.110   6.854
 6011POPC   C4A75858  26.249  15.178   7.259
 6011POPC   C1B75859  25.845  15.503   6.251
 6011POPC   C2B75860  25.714  15.484   6.652
 6011POPC   C3B75861  25.580  15.178   6.913
 6011POPC   C4B75862  25.752  15.043   7.274
 6012POPC   NC375863   1.433  31.980   5.400
 6012POPC   PO475864   1.037  32.440   5.156
 6012POPC   GL175865   1.187  32.544   5.645
 6012POPC   GL275866   1.194  32.210   5.792
 6012POPC   C1A75867   1.007  32.525   6.125
 6012POPC   D2A75868   1.184  32.314   6.511
 6012POPC   C3A75869   1.037  32.478   6.896
 6012POPC   C4A75870   0.919  32.378   7.314
 6012POPC   C1B75871   1.506  32.160   6.109
 6012POPC   C2B75872   1.556  31.940   6.500
 6012POPC   C3B75873   1.425  31.999   6.926
 6012POPC   C4B75874   1.434  32.358   7.211
 6013POPC   NC375875  28.032  14.577   5.277
 6013POPC   PO475876  27.296  14.472   5.364
 6013POPC   GL175877  27.429  14.397   5.835
 6013POPC   GL275878  27.270  14.081   6.020
 6013POPC   C1A75879  27.622  14.500   6.209
 6013POPC   D2A75880  27.801  14.381   6.587
 6013POPC   C3A75881  27.583  14.309   6.891
 6013POPC   C4A75882  27.660  14.500   7.267
 6013POPC   C1B75883  27.314  14.129   6.452
 6013POPC   C2B75884  27.256  14.549   6.584
 6013POPC   C3B75885  27.286  14.712   6.995
 6013POPC   C4B75886  27.223  14.640   7.469
 6014POPC   NC375887  37.710  14.522   5.348
 6014POPC   PO475888  37.326  13.998   5.139
 6014POPC   GL175889  37.548  14.099   5.630
 6014POPC   GL275890  37.876  14.295   5.760
 6014POPC   C1A75891  37.668  14.098   6.152
 6014POPC   D2A75892  37.815  14.294   6.575
 6014POPC   C3A75893  37.721  14.085   6.983
 6014POPC   C4A75894  37.506  14.070   7.384
 6014POPC   C1B75895  37.543  14.569   6.010
 6014POPC   C2B75896  37.389  14.573   6.460
 6014POPC   C3B75897  37.405  14.455   6.888
 6014POPC   C4B75898  37.578  14.568   7.299
 6015POPC   NC375899  25.106  11.700   5.541
 6015POPC   PO475900  25.626  11.264   5.297
 6015POPC   GL175901  25.519  11.435   5.742
 6015POPC   GL275902  25.195  11.380   5.920
 6015POPC   C1A75903  25.601  11.458   6.223
 6015POPC   D2A75904  25.383  11.524   6.647
 6015POPC   C3A75905  25.370  11.255   7.029
 6015POPC   C4A75906  25.355  10.836   7.197
 6015POPC   C1B75907  25.168  11.769   6.218
 6015POPC   C2B75908  25.036  11.896   6.657
 6015POPC   C3B75909  25.087  11.703   7.084
 6015POPC   C4B75910  25.379  11.584   7.406
 6016POPC   NC375911  30.412  11.022   5.582
 6016POPC   PO475912  30.872  11.500   5.418
 6016POPC   GL175913  30.823  11.304   5.816
 6016POPC   GL275914  31.081  11.062   5.914
 6016POPC   C1A75915  30.777  11.340   6.272
 6016POPC   D2A75916  30.839  11.563   6.666
 6016POPC   C3A75917  31.005  11.368   7.056
 6016POPC   C4A75918  30.591  11.439   7.144
 6016POPC   C1B75919  31.151  11.002   6.339
 6016POPC   C2B75920  30.885  11.047   6.675
 6016POPC   C3B75921  30.729  10.918   7.029
 6016POPC   C4B75922  31.042  10.815   7.276
 6017POPC   NC375923   1.019  23.432   5.498
 6017POPC   PO475924   1.444  22.901   5.467
 6017POPC   GL175925   1.157  22.933   5.753
 6017POPC   GL275926   1.106  22.570   5.795
 6017POPC   C1A75927   1.251  23.174   6.135
 6017POPC   D2A75928   1.375  23.303   6.534
 6017POPC   C3A75929   1.578  23.096   6.882
 6017POPC   C4A75930   1.387  23.170   7.286
 6017POPC   C1B75931   1.044  22.727   6.202
 6017POPC   C2B75932   1.291  22.776   6.568
 6017POPC   C3B75933   1.123  22.882   6.957
 6017POPC   C4B75934   0.893  23.042   7.314
 6018POPC   NC375935  37.695  13.739   5.241
 6018POPC   PO475936  37.298  13.350   5.585
 6018POPC   GL175937  37.601  13.614   5.814
 6018POPC   GL275938  37.959  13.763   5.687
 6018POPC   C1A75939  37.428  13.670   6.248
 6018POPC   D2A75940  37.350  14.017   6.570
 6018POPC   C3A75941  37.254  13.835   6.962
 6018POPC   C4A75942  37.489  13.551   7.183
 6018POPC   C1B75943  38.026  13.726   6.133
 6018POPC   C2B75944  37.840  13.765   6.534
 6018POPC   C3B75945  37.941  13.640   6.913
 6018POPC   C4B75946  37.933  13.751   7.320
 6019POPC   NC375947  14.941  32.283   5.738
 6019POPC   PO475948  15.575  32.330   5.450
 6019POPC   GL175949  15.409  32.482   5.846
 6019POPC   GL275950  15.399  32.156   6.039
 6019POPC   C1A75951  15.489  32.587   6.289
 6019POPC   D2A75952  15.545  32.226   6.587
 6019POPC   C3A75953  15.179  32.194   6.895
 6019POPC   C4A75954  15.086  32.485   7.203
 6019POPC   C1B75955  15.076  32.227   6.380
 6019POPC   C2B75956  14.764  31.938   6.580
 6019POPC   C3B75957  14.708  31.792   7.005
 6019POPC   C4B75958  14.944  31.997   7.358
 6020POPC   NC375959  10.280  28.821   5.238
 6020POPC   PO475960  10.695  28.217   5.078
 6020POPC   GL175961  10.631  28.206   5.590
 6020POPC   GL275962  10.663  28.535   5.774
 6020POPC   C1A75963  10.605  28.062   6.064
 6020POPC   D2A75964  10.726  28.035   6.528
 6020POPC   C3A75965  10.468  28.248   6.878
 6020POPC   C4A75966  10.542  28.213   7.338
 6020POPC   C1B75967  10.429  28.533   6.197
 6020POPC   C2B75968  10.256  28.835   6.500
 6020POPC   C3B75969  10.158  28.899   6.939
 6020POPC   C4B75970  10.178  28.589   7.273
 6021POPC   NC375971  16.160  22.898   5.524
 6021POPC   PO475972  15.529  22.784   5.458
 6021POPC   GL175973  15.809  22.655   5.787
 6021POPC   GL275974  15.863  22.979   5.927
 6021POPC   C1A75975  15.864  22.566   6.235
 6021POPC   D2A75976  15.771  22.666   6.670
 6021POPC   C3A75977  16.073  22.818   6.909
 6021POPC   C4A75978  16.091  22.769   7.323
 6021POPC   C1B75979  15.968  23.261   6.261
 6021POPC   C2B75980  15.898  23.261   6.710
 6021POPC   C3B75981  16.044  23.290   7.131
 6021POPC   C4B75982  15.794  23.379   7.514
 6022POPC   NC375983   2.350  27.856   5.353
 6022POPC   PO475984   1.885  27.437   5.489
 6022POPC   GL175985   2.125  27.681   5.804
 6022POPC   GL275986   2.039  28.056   5.764
 6022POPC   C1A75987   2.128  27.541   6.245
 6022POPC   D2A75988   2.159  27.708   6.638
 6022POPC   C3A75989   1.952  27.523   6.982
 6022POPC   C4A75990   2.178  27.673   7.338
 6022POPC   C1B75991   1.813  27.921   6.151
 6022POPC   C2B75992   1.711  27.955   6.576
 6022POPC   C3B75993   1.897  28.031   6.963
 6022POPC   C4B75994   1.712  27.836   7.307
 6023POPC   NC375995  37.168  40.420   5.346
 6023POPC   PO475996  36.753  40.942   5.234
 6023POPC   GL175997  36.797  40.850   5.665
 6023POPC   GL275998  36.475  41.040   5.743
 6023POPC   C1A75999  37.126  40.778   6.026
 6023POPC   D2A76000  37.162  40.641   6.470
 6023POPC   C3A76001  36.850  40.709   6.831
 6023POPC   C4A76002  37.030  40.763   7.245
 6023POPC   C1B76003  36.666  40.965   6.145
 6023POPC   C2B76004  36.852  41.108   6.503
 6023POPC   C3B76005  36.725  41.213   6.903
 6023POPC   C4B76006  36.744  41.176   7.358
 6024POPC   NC376007   3.382  30.750   5.347
 6024POPC   PO476008   4.056  30.682   5.451
 6024POPC   GL176009   3.723  30.634   5.788
 6024POPC   GL276010   3.343  30.548   5.803
 6024POPC   C1A76011   3.552  30.730   6.215
 6024POPC   D2A76012   3.581  30.524   6.616
 6024POPC   C3A76013   3.659  30.817   6.967
 6024POPC   C4A76014   3.700  30.848   7.412
 6024POPC   C1B76015   3.266  30.323   6.189
 6024POPC   C2B76016   3.069  30.461   6.571
 6024POPC   C3B76017   3.214  30.525   6.970
 6024POPC   C4B76018   3.196  30.809   7.289
 6025POPC   NC376019  42.754  12.237   5.431
 6025POPC   PO476020  43.219  11.786   5.512
 6025POPC   GL176021  43.209  11.922   5.919
 6025POPC   GL276022  42.924  12.145   5.907
 6025POPC   C1A76023  43.206  12.014   6.354
 6025POPC   D2A76024  43.094  12.346   6.605
 6025POPC   C3A76025  43.089  12.143   6.946
 6025POPC   C4A76026  43.320  11.800   7.101
 6025POPC   C1B76027  42.734  11.919   6.227
 6025POPC   C2B76028  42.660  12.074   6.613
 6025POPC   C3B76029  42.642  11.884   7.009
 6025POPC   C4B76030  42.884  11.946   7.370
 6026POPC   NC376031  31.617   5.259   5.310
 6026POPC   PO476032  31.467   4.687   5.517
 6026POPC   GL176033  31.648   4.968   5.780
 6026POPC   GL276034  31.324   5.113   5.808
 6026POPC   C1A76035  31.715   5.136   6.209
 6026POPC   D2A76036  31.455   5.226   6.618
 6026POPC   C3A76037  31.559   5.073   7.031
 6026POPC   C4A76038  31.633   5.257   7.448
 6026POPC   C1B76039  31.216   4.963   6.215
 6026POPC   C2B76040  31.085   4.838   6.616
 6026POPC   C3B76041  31.080   4.922   7.022
 6026POPC   C4B76042  31.198   4.989   7.460
 6027POPC   NC376043   3.363  11.727   5.409
 6027POPC   PO476044   3.774  12.238   5.585
 6027POPC   GL176045   3.651  12.131   5.966
 6027POPC   GL276046   3.700  11.804   5.883
 6027POPC   C1A76047   3.889  12.031   6.324
 6027POPC   D2A76048   3.987  12.091   6.733
 6027POPC   C3A76049   3.642  12.173   6.952
 6027POPC   C4A76050   3.441  12.306   7.306
 6027POPC   C1B76051   3.399  11.781   6.244
 6027POPC   C2B76052   3.380  11.799   6.693
 6027POPC   C3B76053   3.634  11.691   7.063
 6027POPC   C4B76054   3.639  11.864   7.473
 6028POPC   NC376055  13.440   3.781   5.405
 6028POPC   PO476056  14.014   4.087   5.664
 6028POPC   GL176057  13.729   3.749   5.854
 6028POPC   GL276058  13.535   3.440   5.777
 6028POPC   C1A76059  13.480   3.729   6.232
 6028POPC   D2A76060  13.622   3.832   6.654
 6028POPC   C3A76061  13.458   3.858   7.075
 6028POPC   C4A76062  13.724   3.722   7.398
 6028POPC   C1B76063  13.709   3.266   6.141
 6028POPC   C2B76064  13.519   3.312   6.551
 6028POPC   C3B76065  13.631   3.400   6.954
 6028POPC   C4B76066  13.368   3.386   7.306
 6029POPC   NC376067  25.243  38.998   5.545
 6029POPC   PO476068  25.642  39.393   5.174
 6029POPC   GL176069  25.424  39.451   5.648
 6029POPC   GL276070  25.600  39.324   5.947
 6029POPC   C1A76071  25.119  39.431   6.032
 6029POPC   D2A76072  25.194  39.323   6.477
 6029POPC   C3A76073  25.065  39.555   6.832
 6029POPC   C4A76074  25.242  39.408   7.212
 6029POPC   C1B76075  25.378  38.968   6.164
 6029POPC   C2B76076  25.122  38.805   6.506
 6029POPC   C3B76077  25.219  38.965   6.916
 6029POPC   C4B76078  25.035  38.894   7.316
 6030POPC   NC376079  29.664  31.318   5.274
 6030POPC   PO476080  30.270  31.325   5.445
 6030POPC   GL176081  30.065  31.604   5.776
 6030POPC   GL276082  29.677  31.622   5.781
 6030POPC   C1A76083  29.938  31.788   6.216
 6030POPC   D2A76084  29.690  31.814   6.629
 6030POPC   C3A76085  29.805  31.496   6.947
 6030POPC   C4A76086  30.013  31.228   7.241
 6030POPC   C1B76087  29.414  31.708   6.205
 6030POPC   C2B76088  29.177  31.730   6.641
 6030POPC   C3B76089  29.300  31.582   7.022
 6030POPC   C4B76090  29.492  31.326   7.327
 6031POPC   NC376091  28.998  26.436   5.490
 6031POPC   PO476092  29.199  25.775   5.406
 6031POPC   GL176093  29.052  25.906   5.829
 6031POPC   GL276094  29.295  26.145   5.843
 6031POPC   C1A76095  29.000  25.854   6.307
 6031POPC   D2A76096  29.359  25.933   6.581
 6031POPC   C3A76097  29.369  26.086   7.006
 6031POPC   C4A76098  28.980  26.071   7.218
 6031POPC   C1B76099  29.092  26.337   6.193
 6031POPC   C2B76100  28.909  26.285   6.620
 6031POPC   C3B76101  28.842  26.512   7.013
 6031POPC   C4B76102  29.202  26.549   7.248
 6032POPC   NC376103   5.207   4.527   5.503
 6032POPC   PO476104   4.985   3.838   5.509
 6032POPC   GL176105   4.988   4.244   5.870
 6032POPC   GL276106   5.241   4.546   6.005
 6032POPC   C1A76107   4.883   4.444   6.346
 6032POPC   D2A76108   4.824   4.631   6.802
 6032POPC   C3A76109   5.038   4.398   7.182
 6032POPC   C4A76110   5.223   3.976   7.237
 6032POPC   C1B76111   5.124   4.913   6.327
 6032POPC   C2B76112   5.262   4.973   6.774
 6032POPC   C3B76113   5.461   4.671   7.104
 6032POPC   C4B76114   5.381   4.502   7.561
 6033POPC   NC376115   4.261  25.788   5.226
 6033POPC   PO476116   4.545  25.148   5.525
 6033POPC   GL176117   4.461  25.302   5.924
 6033POPC   GL276118   4.085  25.276   5.966
 6033POPC   C1A76119   4.364  25.389   6.355
 6033POPC   D2A76120   4.045  25.191   6.594
 6033POPC   C3A76121   4.237  25.223   6.986
 6033POPC   C4A76122   4.600  25.216   7.242
 6033POPC   C1B76123   3.909  25.590   6.288
 6033POPC   C2B76124   4.139  25.750   6.658
 6033POPC   C3B76125   4.036  25.871   7.096
 6033POPC   C4B76126   4.171  25.562   7.383
 6034POPC   NC376127  24.949  39.823   5.061
 6034POPC   PO476128  25.500  39.918   5.496
 6034POPC   GL176129  25.152  39.913   5.816
 6034POPC   GL276130  25.076  40.281   5.944
 6034POPC   C1A76131  25.054  39.869   6.273
 6034POPC   D2A76132  25.227  40.200   6.521
 6034POPC   C3A76133  25.265  40.036   6.920
 6034POPC   C4A76134  25.386  39.933   7.307
 6034POPC   C1B76135  24.755  40.264   6.290
 6034POPC   C2B76136  24.761  40.091   6.721
 6034POPC   C3B76137  24.861  40.262   7.149
 6034POPC   C4B76138  24.850  40.372   7.594
 6035POPC   NC376139  34.516  19.566   5.530
 6035POPC   PO476140  34.196  20.160   5.392
 6035POPC   GL176141  34.447  20.009   5.802
 6035POPC   GL276142  34.290  19.707   5.956
 6035POPC   C1A76143  34.706  20.050   6.225
 6035POPC   D2A76144  34.946  20.064   6.653
 6035POPC   C3A76145  34.717  20.028   7.049
 6035POPC   C4A76146  34.504  19.959   7.470
 6035POPC   C1B76147  34.568  19.557   6.245
 6035POPC   C2B76148  34.518  19.768   6.629
 6035POPC   C3B76149  34.354  19.680   7.022
 6035POPC   C4B76150  34.750  19.535   7.182
 6036POPC   NC376151  26.520   5.353   5.560
 6036POPC   PO476152  26.866   4.983   5.070
 6036POPC   GL176153  26.846   4.936   5.601
 6036POPC   GL276154  27.066   5.170   5.726
 6036POPC   C1A76155  26.728   5.091   6.105
 6036POPC   D2A76156  26.505   5.282   6.489
 6036POPC   C3A76157  26.675   5.064   6.850
 6036POPC   C4A76158  26.741   5.124   7.268
 6036POPC   C1B76159  27.202   4.901   6.139
 6036POPC   C2B76160  27.059   4.797   6.602
 6036POPC   C3B76161  27.273   4.765   7.022
 6036POPC   C4B76162  27.174   4.891   7.459
 6037POPC   NC376163   7.951   0.974   5.471
 6037POPC   PO476164   8.322   1.550   5.367
 6037POPC   GL176165   8.242   1.389   5.799
 6037POPC   GL276166   8.579   1.342   5.915
 6037POPC   C1A76167   8.093   1.197   6.227
 6037POPC   D2A76168   8.043   0.958   6.644
 6037POPC   C3A76169   7.874   1.235   6.964
 6037POPC   C4A76170   7.839   1.510   7.299
 6037POPC   C1B76171   8.591   1.192   6.334
 6037POPC   C2B76172   8.444   1.301   6.745
 6037POPC   C3B76173   8.376   1.097   7.122
 6037POPC   C4B76174   8.531   1.024   7.552
 6038POPC   NC376175  14.285   7.214   5.383
 6038POPC   PO476176  14.471   7.850   5.305
 6038POPC   GL176177  14.337   7.681   5.762
 6038POPC   GL276178  14.378   7.325   5.866
 6038POPC   C1A76179  14.349   7.680   6.235
 6038POPC   D2A76180  14.581   7.406   6.579
 6038POPC   C3A76181  14.617   7.574   7.016
 6038POPC   C4A76182  14.566   7.562   7.476
 6038POPC   C1B76183  14.271   7.168   6.240
 6038POPC   C2B76184  14.193   7.023   6.622
 6038POPC   C3B76185  14.236   7.194   7.035
 6038POPC   C4B76186  14.161   7.244   7.504
 6039POPC   NC376187  41.389  17.211   5.525
 6039POPC   PO476188  41.751  16.616   5.431
 6039POPC   GL176189  41.626  16.811   5.831
 6039POPC   GL276190  41.273  16.753   5.853
 6039POPC   C1A76191  41.544  16.705   6.288
 6039POPC   D2A76192  41.525  16.854   6.730
 6039POPC   C3A76193  41.310  16.610   7.051
 6039POPC   C4A76194  41.520  16.407   7.390
 6039POPC   C1B76195  41.152  17.111   6.166
 6039POPC   C2B76196  41.220  17.260   6.607
 6039POPC   C3B76197  41.318  17.198   7.068
 6039POPC   C4B76198  41.528  16.916   7.398
 6040POPC   NC376199  24.640  38.670   5.265
 6040POPC   PO476200  24.714  38.035   5.495
 6040POPC   GL176201  24.465  38.383   5.723
 6040POPC   GL276202  24.687  38.684   5.779
 6040POPC   C1A76203  24.316  38.630   6.122
 6040POPC   D2A76204  24.561  38.715   6.514
 6040POPC   C3A76205  24.410  38.415   6.819
 6040POPC   C4A76206  24.310  38.353   7.261
 6040POPC   C1B76207  24.775  38.383   6.141
 6040POPC   C2B76208  24.880  38.304   6.587
 6040POPC   C3B76209  24.876  38.573   6.952
 6040POPC   C4B76210  24.530  38.809   7.142
 6041POPC   NC376211  44.454  25.077   5.460
 6041POPC   PO476212  44.863  25.507   5.239
 6041POPC   GL176213  44.802  25.415   5.702
 6041POPC   GL276214  44.779  25.048   5.830
 6041POPC   C1A76215  44.622  25.464   6.125
 6041POPC   D2A76216  44.760  25.423   6.576
 6041POPC   C3A76217  44.426  25.488   6.879
 6041POPC   C4A76218  44.467  25.567   7.324
 6041POPC   C1B76219  44.539  24.956   6.208
 6041POPC   C2B76220  44.528  24.988   6.664
 6041POPC   C3B76221  44.710  25.111   7.087
 6041POPC   C4B76222  44.595  24.810   7.418
 6042POPC   NC376223  39.186   2.039   5.386
 6042POPC   PO476224  39.268   1.407   5.373
 6042POPC   GL176225  39.327   1.773   5.780
 6042POPC   GL276226  39.327   2.176   5.846
 6042POPC   C1A76227  39.170   1.889   6.237
 6042POPC   D2A76228  38.990   1.888   6.656
 6042POPC   C3A76229  39.226   1.972   7.038
 6042POPC   C4A76230  39.032   1.917   7.424
 6042POPC   C1B76231  39.332   2.399   6.235
 6042POPC   C2B76232  39.162   2.357   6.639
 6042POPC   C3B76233  39.254   2.494   7.035
 6042POPC   C4B76234  39.441   2.346   7.406
 6043POPC   NC376235   8.122  20.152   5.428
 6043POPC   PO476236   8.689  20.448   5.581
 6043POPC   GL176237   8.396  20.572   5.889
 6043POPC   GL276238   8.129  20.339   5.920
 6043POPC   C1A76239   8.343  20.885   6.229
 6043POPC   D2A76240   8.056  21.026   6.578
 6043POPC   C3A76241   8.256  20.944   6.976
 6043POPC   C4A76242   8.312  20.999   7.394
 6043POPC   C1B76243   7.997  20.520   6.322
 6043POPC   C2B76244   7.997  20.542   6.794
 6043POPC   C3B76245   8.115  20.504   7.234
 6043POPC   C4B76246   8.189  20.231   7.561
 6044POPC   NC376247  12.949  30.428   5.419
 6044POPC   PO476248  12.448  30.922   5.459
 6044POPC   GL176249  12.537  30.604   5.807
 6044POPC   GL276250  12.894  30.583   5.883
 6044POPC   C1A76251  12.586  30.581   6.295
 6044POPC   D2A76252  12.554  30.862   6.669
 6044POPC   C3A76253  12.670  30.672   7.079
 6044POPC   C4A76254  12.937  30.362   7.303
 6044POPC   C1B76255  13.011  30.863   6.196
 6044POPC   C2B76256  13.043  30.690   6.616
 6044POPC   C3B76257  13.126  30.882   6.999
 6044POPC   C4B76258  13.009  30.884   7.415
 6045POPC   NC376259  32.135  42.191   5.310
 6045POPC   PO476260  32.683  42.634   5.468
 6045POPC   GL176261  32.438  42.383   5.824
 6045POPC   GL276262  32.037  42.384   5.789
 6045POPC   C1A76263  32.556  42.307   6.298
 6045POPC   D2A76264  32.606  42.243   6.785
 6045POPC   C3A76265  32.355  42.033   7.102
 6045POPC   C4A76266  31.934  42.098   7.193
 6045POPC   C1B76267  32.043  42.533   6.213
 6045POPC   C2B76268  32.218  42.528   6.619
 6045POPC   C3B76269  32.254  42.521   7.074
 6045POPC   C4B76270  32.074  42.736   7.405
 6046POPC   NC376271  23.030   6.605   5.351
 6046POPC   PO476272  22.452   6.716   5.644
 6046POPC   GL176273  22.770   6.727   5.939
 6046POPC   GL276274  22.983   6.433   5.860
 6046POPC   C1A76275  22.721   6.857   6.403
 6046POPC   D2A76276  22.593   6.868   6.856
 6046POPC   C3A76277  22.995   6.781   7.078
 6046POPC   C4A76278  23.425   6.913   7.152
 6046POPC   C1B76279  22.711   6.349   6.262
 6046POPC   C2B76280  22.843   6.433   6.685
 6046POPC   C3B76281  22.664   6.393   7.094
 6046POPC   C4B76282  22.796   6.493   7.505
 6047POPC   NC376283  42.316  22.658   5.335
 6047POPC   PO476284  42.078  23.356   5.316
 6047POPC   GL176285  42.225  23.072   5.716
 6047POPC   GL276286  42.085  22.749   5.792
 6047POPC   C1A76287  42.087  23.103   6.177
 6047POPC   D2A76288  42.167  22.836   6.538
 6047POPC   C3A76289  42.356  23.021   6.927
 6047POPC   C4A76290  42.381  23.435   7.129
 6047POPC   C1B76291  42.469  22.767   6.084
 6047POPC   C2B76292  42.561  22.530   6.473
 6047POPC   C3B76293  42.550  22.525   6.934
 6047POPC   C4B76294  42.385  22.680   7.312
 6048POPC   NC376295  41.783  39.235   5.405
 6048POPC   PO476296  41.095  38.989   5.443
 6048POPC   GL176297  41.433  39.084   5.796
 6048POPC   GL276298  41.745  38.885   5.857
 6048POPC   C1A76299  41.643  39.244   6.196
 6048POPC   D2A76300  41.501  39.296   6.615
 6048POPC   C3A76301  41.564  39.526   6.985
 6048POPC   C4A76302  41.269  39.667   7.295
 6048POPC   C1B76303  41.497  38.741   6.215
 6048POPC   C2B76304  41.321  38.827   6.628
 6048POPC   C3B76305  41.478  38.949   7.009
 6048POPC   C4B76306  41.727  38.952   7.362
 6049POPC   NC376307   0.365   2.684   5.423
 6049POPC   PO476308   0.527   3.278   5.587
 6049POPC   GL176309   0.616   2.948   5.827
 6049POPC   GL276310   0.247   2.920   5.879
 6049POPC   C1A76311   0.664   2.899   6.264
 6049POPC   D2A76312   0.313   2.877   6.551
 6049POPC   C3A76313   0.491   2.790   6.941
 6049POPC   C4A76314   0.418   2.930   7.379
 6049POPC   C1B76315   0.353   2.536   6.084
 6049POPC   C2B76316   0.530   2.422   6.477
 6049POPC   C3B76317   0.239   2.375   6.803
 6049POPC   C4B76318   0.199   2.478   7.232
 6050POPC   NC376319  21.262  35.865   5.461
 6050POPC   PO476320  21.527  36.431   5.691
 6050POPC   GL176321  21.519  36.002   5.904
 6050POPC   GL276322  21.190  35.815   5.960
 6050POPC   C1A76323  21.653  35.919   6.363
 6050POPC   D2A76324  21.634  36.227   6.719
 6050POPC   C3A76325  21.634  36.268   7.186
 6050POPC   C4A76326  21.742  36.251   7.645
 6050POPC   C1B76327  21.176  36.162   6.229
 6050POPC   C2B76328  21.135  36.286   6.640
 6050POPC   C3B76329  21.232  36.051   6.971
 6050POPC   C4B76330  21.024  36.091   7.311
 6051POPC   NC376331  15.465  41.912   5.360
 6051POPC   PO476332  15.074  41.404   5.408
 6051POPC   GL176333  15.065  41.478   5.815
 6051POPC   GL276334  15.333  41.712   5.797
 6051POPC   C1A76335  15.094  41.631   6.229
 6051POPC   D2A76336  14.855  41.687   6.586
 6051POPC   C3A76337  15.030  41.560   6.974
 6051POPC   C4A76338  14.952  41.449   7.392
 6051POPC   C1B76339  15.529  41.927   6.137
 6051POPC   C2B76340  15.502  41.743   6.510
 6051POPC   C3B76341  15.589  41.727   6.899
 6051POPC   C4B76342  15.379  41.826   7.254
 6052POPC   NC376343   3.134  15.051   5.344
 6052POPC   PO476344   2.465  15.026   5.180
 6052POPC   GL176345   2.644  14.895   5.642
 6052POPC   GL276346   3.005  14.959   5.818
 6052POPC   C1A76347   2.610  15.047   6.117
 6052POPC   D2A76348   2.512  15.402   6.386
 6052POPC   C3A76349   2.562  15.330   6.824
 6052POPC   C4A76350   2.656  15.494   7.240
 6052POPC   C1B76351   3.026  15.332   6.135
 6052POPC   C2B76352   3.013  15.452   6.578
 6052POPC   C3B76353   3.042  15.236   6.996
 6052POPC   C4B76354   3.053  15.230   7.447
 6053POPC   NC376355  28.279  25.905   5.222
 6053POPC   PO476356  28.546  26.487   5.406
 6053POPC   GL176357  28.619  26.229   5.791
 6053POPC   GL276358  28.538  25.835   5.768
 6053POPC   C1A76359  28.576  26.119   6.224
 6053POPC   D2A76360  28.552  25.889   6.610
 6053POPC   C3A76361  28.257  26.119   6.836
 6053POPC   C4A76362  28.376  26.352   7.159
 6053POPC   C1B76363  28.312  25.656   6.162
 6053POPC   C2B76364  28.085  25.659   6.592
 6053POPC   C3B76365  28.121  25.694   7.060
 6053POPC   C4B76366  28.539  25.840   7.186
 6054POPC   NC376367   7.216   0.680   5.456
 6054POPC   PO476368   7.880   0.461   5.364
 6054POPC   GL176369   7.589   0.406   5.714
 6054POPC   GL276370   7.424   0.073   5.759
 6054POPC   C1A76371   7.561   0.422   6.176
 6054POPC   D2A76372   7.636   0.387   6.632
 6054POPC   C3A76373   7.318   0.536   6.914
 6054POPC   C4A76374   7.295   0.662   7.334
 6054POPC   C1B76375   7.191  44.997   6.157
 6054POPC   C2B76376   6.988   0.095   6.578
 6054POPC   C3B76377   7.110   0.090   7.014
 6054POPC   C4B76378   7.354   0.178   7.401
 6055POPC   NC376379   6.126  21.469   5.319
 6055POPC   PO476380   5.597  21.058   5.346
 6055POPC   GL176381   5.850  21.239   5.756
 6055POPC   GL276382   6.111  21.537   5.826
 6055POPC   C1A76383   5.764  21.415   6.199
 6055POPC   D2A76384   5.544  21.271   6.590
 6055POPC   C3A76385   5.751  21.347   7.015
 6055POPC   C4A76386   6.097  21.359   7.367
 6055POPC   C1B76387   6.153  21.746   6.247
 6055POPC   C2B76388   5.906  21.718   6.638
 6055POPC   C3B76389   6.042  21.770   7.060
 6055POPC   C4B76390   5.810  21.747   7.473
 6056POPC   NC376391  37.200   6.183   5.470
 6056POPC   PO476392  36.551   5.904   5.383
 6056POPC   GL176393  36.734   6.110   5.694
 6056POPC   GL276394  36.984   5.922   5.839
 6056POPC   C1A76395  36.625   6.097   6.136
 6056POPC   D2A76396  36.873   6.006   6.471
 6056POPC   C3A76397  36.841   5.943   6.879
 6056POPC   C4A76398  37.155   6.041   7.155
 6056POPC   C1B76399  37.236   5.822   6.167
 6056POPC   C2B76400  37.136   5.558   6.489
 6056POPC   C3B76401  37.238   5.589   6.893
 6056POPC   C4B76402  36.951   5.590   7.229
 6057POPC   NC376403   6.287  40.758   5.114
 6057POPC   PO476404   5.704  40.550   5.455
 6057POPC   GL176405   5.798  40.855   5.809
 6057POPC   GL276406   5.860  40.627   5.969
 6057POPC   C1A76407   6.008  40.953   6.279
 6057POPC   D2A76408   6.084  40.713   6.672
 6057POPC   C3A76409   6.020  40.970   7.034
 6057POPC   C4A76410   6.135  40.936   7.469
 6057POPC   C1B76411   5.508  40.836   6.229
 6057POPC   C2B76412   5.611  40.954   6.642
 6057POPC   C3B76413   5.536  40.756   7.036
 6057POPC   C4B76414   5.644  40.972   7.402
 6058POPC   NC376415   1.414  37.058   5.120
 6058POPC   PO476416   0.746  36.911   5.254
 6058POPC   GL176417   0.949  37.061   5.661
 6058POPC   GL276418   1.314  36.936   5.691
 6058POPC   C1A76419   1.049  37.088   6.131
 6058POPC   D2A76420   1.319  36.938   6.494
 6058POPC   C3A76421   1.261  37.072   6.943
 6058POPC   C4A76422   1.368  37.088   7.406
 6058POPC   C1B76423   1.229  36.610   6.033
 6058POPC   C2B76424   0.971  36.556   6.430
 6058POPC   C3B76425   0.993  36.605   6.887
 6058POPC   C4B76426   1.316  36.620   7.186
 6059POPC   NC376427  40.424  29.222   5.529
 6059POPC   PO476428  40.912  28.785   5.403
 6059POPC   GL176429  40.743  28.920   5.817
 6059POPC   GL276430  40.729  29.306   5.914
 6059POPC   C1A76431  40.897  28.983   6.251
 6059POPC   D2A76432  41.145  28.992   6.606
 6059POPC   C3A76433  40.941  28.970   7.009
 6059POPC   C4A76434  40.734  28.945   7.441
 6059POPC   C1B76435  40.447  29.504   6.241
 6059POPC   C2B76436  40.456  29.680   6.669
 6059POPC   C3B76437  40.651  29.427   7.025
 6059POPC   C4B76438  41.088  29.419   7.198
 6060POPC   NC376439  14.896  44.164   5.163
 6060POPC   PO476440  15.074  43.592   5.306
 6060POPC   GL176441  15.026  43.805   5.720
 6060POPC   GL276442  15.102  44.178   5.735
 6060POPC   C1A76443  14.942  43.782   6.170
 6060POPC   D2A76444  15.159  43.774   6.576
 6060POPC   C3A76445  14.865  43.771   6.905
 6060POPC   C4A76446  14.934  43.732   7.307
 6060POPC   C1B76447  15.297  44.147   6.192
 6060POPC   C2B76448  15.373  44.258   6.647
 6060POPC   C3B76449  15.317  44.017   7.040
 6060POPC   C4B76450  15.322  44.005   7.501
 6061POPC   NC376451  11.213  39.088   5.444
 6061POPC   PO476452  11.609  39.528   5.777
 6061POPC   GL176453  11.204  39.336   5.911
 6061POPC   GL276454  11.128  38.977   5.936
 6061POPC   C1A76455  11.209  39.290   6.355
 6061POPC   D2A76456  11.431  39.497   6.673
 6061POPC   C3A76457  11.320  39.366   7.050
 6061POPC   C4A76458  11.095  39.056   7.238
 6061POPC   C1B76459  11.565  38.994   6.103
 6061POPC   C2B76460  11.627  39.025   6.532
 6061POPC   C3B76461  11.473  38.851   6.902
 6061POPC   C4B76462  11.601  38.980   7.288
 6062POPC   NC376463  15.801  15.081   5.312
 6062POPC   PO476464  16.234  15.574   5.396
 6062POPC   GL176465  15.956  15.362   5.698
 6062POPC   GL276466  15.576  15.416   5.707
 6062POPC   C1A76467  15.868  15.067   6.032
 6062POPC   D2A76468  16.018  15.118   6.433
 6062POPC   C3A76469  15.885  15.131   6.864
 6062POPC   C4A76470  15.910  14.879   7.223
 6062POPC   C1B76471  15.715  15.531   6.121
 6062POPC   C2B76472  15.727  15.534   6.559
 6062POPC   C3B76473  15.716  15.590   7.001
 6062POPC   C4B76474  15.913  15.380   7.321
 6063POPC   NC376475  43.369   8.254   5.625
 6063POPC   PO476476  44.063   8.190   5.384
 6063POPC   GL176477  43.901   8.212   5.815
 6063POPC   GL276478  44.193   8.003   5.895
 6063POPC   C1A76479  43.647   8.315   6.240
 6063POPC   D2A76480  43.864   8.360   6.650
 6063POPC   C3A76481  43.707   8.301   7.085
 6063POPC   C4A76482  43.538   8.032   7.402
 6063POPC   C1B76483  43.878   7.876   6.237
 6063POPC   C2B76484  43.670   7.682   6.601
 6063POPC   C3B76485  43.803   7.611   7.028
 6063POPC   C4B76486  44.056   7.714   7.376
 6064POPC   NC376487  26.588   8.456   5.286
 6064POPC   PO476488  27.186   8.065   5.361
 6064POPC   GL176489  27.046   8.292   5.758
 6064POPC   GL276490  26.702   8.460   5.803
 6064POPC   C1A76491  26.883   8.171   6.174
 6064POPC   D2A76492  26.608   8.146   6.535
 6064POPC   C3A76493  26.824   7.926   6.846
 6064POPC   C4A76494  26.819   7.890   7.268
 6064POPC   C1B76495  26.601   8.574   6.248
 6064POPC   C2B76496  26.511   8.615   6.722
 6064POPC   C3B76497  26.604   8.337   7.135
 6064POPC   C4B76498  26.439   8.064   7.554
 6065POPC   NC376499  25.052   0.671   5.352
 6065POPC   PO476500  25.474   0.235   5.261
 6065POPC   GL176501  25.276   0.357   5.687
 6065POPC   GL276502  25.234   0.724   5.822
 6065POPC   C1A76503  25.274   0.261   6.131
 6065POPC   D2A76504  25.257   0.420   6.553
 6065POPC   C3A76505  25.327   0.210   6.959
 6065POPC   C4A76506  25.496   0.498   7.258
 6065POPC   C1B76507  24.904   0.642   6.123
 6065POPC   C2B76508  24.749   0.617   6.543
 6065POPC   C3B76509  24.972   0.608   6.947
 6065POPC   C4B76510  25.013   0.439   7.380
 6066POPC   NC376511  21.808  11.703   5.627
 6066POPC   PO476512  21.154  11.726   5.444
 6066POPC   GL176513  21.191  11.992   5.801
 6066POPC   GL276514  21.427  11.780   5.978
 6066POPC   C1A76515  21.430  12.254   6.125
 6066POPC   D2A76516  21.351  12.318   6.564
 6066POPC   C3A76517  21.611  12.124   6.894
 6066POPC   C4A76518  21.551  12.248   7.326
 6066POPC   C1B76519  21.099  11.869   6.301
 6066POPC   C2B76520  21.042  11.886   6.737
 6066POPC   C3B76521  21.176  11.956   7.151
 6066POPC   C4B76522  21.158  11.784   7.589
 6067POPC   NC376523   7.307  22.244   5.209
 6067POPC   PO476524   7.444  22.861   5.378
 6067POPC   GL176525   7.413  23.043   5.794
 6067POPC   GL276526   7.178  22.823   6.005
 6067POPC   C1A76527   7.529  23.126   6.212
 6067POPC   D2A76528   7.240  22.936   6.511
 6067POPC   C3A76529   7.405  22.998   6.883
 6067POPC   C4A76530   7.759  23.028   7.133
 6067POPC   C1B76531   7.160  22.427   6.269
 6067POPC   C2B76532   7.079  22.381   6.713
 6067POPC   C3B76533   6.991  22.739   6.997
 6067POPC   C4B76534   7.301  22.805   7.338
 6068POPC   NC376535  16.519  36.090   5.361
 6068POPC   PO476536  16.889  36.687   5.239
 6068POPC   GL176537  16.783  36.466   5.661
 6068POPC   GL276538  16.444  36.395   5.799
 6068POPC   C1A76539  16.987  36.310   6.076
 6068POPC   D2A76540  17.019  36.064   6.493
 6068POPC   C3A76541  17.073  36.170   6.951
 6068POPC   C4A76542  17.143  35.880   7.299
 6068POPC   C1B76543  16.542  36.464   6.236
 6068POPC   C2B76544  16.700  36.467   6.669
 6068POPC   C3B76545  16.707  36.504   7.095
 6068POPC   C4B76546  16.670  36.186   7.341
 6069POPC   NC376547   9.793  15.775   5.483
 6069POPC   PO476548   9.250  16.180   5.306
 6069POPC   GL176549   9.630  16.212   5.693
 6069POPC   GL276550   9.738  15.902   5.958
 6069POPC   C1A76551   9.701  16.354   6.158
 6069POPC   D2A76552   9.913  16.413   6.570
 6069POPC   C3A76553   9.682  16.240   6.955
 6069POPC   C4A76554   9.842  16.132   7.397
 6069POPC   C1B76555   9.784  15.923   6.427
 6069POPC   C2B76556  10.069  15.924   6.779
 6069POPC   C3B76557   9.816  15.735   7.091
 6069POPC   C4B76558   9.680  15.647   7.509
 6070POPC   NC376559   1.910   3.700   5.444
 6070POPC   PO476560   2.337   3.285   5.691
 6070POPC   GL176561   1.882   3.383   5.869
 6070POPC   GL276562   1.815   3.751   5.941
 6070POPC   C1A76563   1.631   3.388   6.297
 6070POPC   D2A76564   1.639   3.488   6.767
 6070POPC   C3A76565   2.087   3.484   6.950
 6070POPC   C4A76566   2.296   3.531   7.333
 6070POPC   C1B76567   2.131   3.872   6.229
 6070POPC   C2B76568   2.032   3.908   6.654
 6070POPC   C3B76569   1.813   3.924   7.027
 6070POPC   C4B76570   1.804   3.985   7.466
 6071POPC   NC376571  21.770  39.223   5.244
 6071POPC   PO476572  21.069  39.129   5.363
 6071POPC   GL176573  21.271  39.194   5.716
 6071POPC   GL276574  21.095  38.942   5.867
 6071POPC   C1A76575  21.389  39.277   6.128
 6071POPC   D2A76576  21.258  39.332   6.540
 6071POPC   C3A76577  21.524  39.498   6.867
 6071POPC   C4A76578  21.365  39.325   7.251
 6071POPC   C1B76579  21.150  38.633   6.182
 6071POPC   C2B76580  21.341  38.631   6.580
 6071POPC   C3B76581  21.165  38.637   6.977
 6071POPC   C4B76582  21.127  38.878   7.315
 6072POPC   NC376583   7.171  32.319   5.375
 6072POPC   PO476584   7.622  31.865   5.492
 6072POPC   GL176585   7.289  31.930   5.748
 6072POPC   GL276586   7.357  32.300   5.855
 6072POPC   C1A76587   7.286  31.899   6.186
 6072POPC   D2A76588   7.304  32.223   6.488
 6072POPC   C3A76589   7.197  32.095   6.888
 6072POPC   C4A76590   7.527  32.043   7.170
 6072POPC   C1B76591   7.579  32.649   6.114
 6072POPC   C2B76592   7.730  32.605   6.536
 6072POPC   C3B76593   7.455  32.521   6.894
 6072POPC   C4B76594   7.231  32.429   7.314
 6073POPC   NC376595  15.948  37.618   5.409
 6073POPC   PO476596  15.598  38.211   5.457
 6073POPC   GL176597  15.700  37.902   5.779
 6073POPC   GL276598  16.059  37.868   5.847
 6073POPC   C1A76599  15.726  37.708   6.206
 6073POPC   D2A76600  15.620  37.408   6.523
 6073POPC   C3A76601  15.716  37.588   6.947
 6073POPC   C4A76602  15.909  37.847   7.304
 6073POPC   C1B76603  16.242  37.666   6.222
 6073POPC   C2B76604  16.450  37.764   6.583
 6073POPC   C3B76605  16.247  37.714   6.938
 6073POPC   C4B76606  16.369  37.609   7.328
 6074POPC   NC376607  30.876   2.284   5.546
 6074POPC   PO476608  30.438   1.746   5.450
 6074POPC   GL176609  30.657   1.871   5.845
 6074POPC   GL276610  30.546   2.209   5.935
 6074POPC   C1A76611  30.684   1.865   6.314
 6074POPC   D2A76612  30.619   1.663   6.720
 6074POPC   C3A76613  30.742   1.920   7.050
 6074POPC   C4A76614  30.393   2.095   7.224
 6074POPC   C1B76615  30.826   2.369   6.257
 6074POPC   C2B76616  30.929   2.284   6.680
 6074POPC   C3B76617  30.743   2.436   7.050
 6074POPC   C4B76618  30.889   2.314   7.426
 6075POPC   NC376619  12.323  10.237   5.554
 6075POPC   PO476620  12.289  10.826   5.367
 6075POPC   GL176621  12.036  10.618   5.752
 6075POPC   GL276622  11.661  10.650   5.774
 6075POPC   C1A76623  12.115  10.509   6.165
 6075POPC   D2A76624  12.406  10.533   6.504
 6075POPC   C3A76625  12.210  10.561   6.895
 6075POPC   C4A76626  11.988  10.545   7.277
 6075POPC   C1B76627  11.713  10.857   6.154
 6075POPC   C2B76628  11.880  10.753   6.544
 6075POPC   C3B76629  11.837  10.913   6.920
 6075POPC   C4B76630  11.845  11.062   7.302
 6076POPC   NC376631  30.405   4.043   5.515
 6076POPC   PO476632  30.084   4.585   5.283
 6076POPC   GL176633  30.074   4.445   5.750
 6076POPC   GL276634  29.753   4.540   5.947
 6076POPC   C1A76635  30.119   4.240   6.176
 6076POPC   D2A76636  30.170   4.325   6.641
 6076POPC   C3A76637  29.827   4.338   6.966
 6076POPC   C4A76638  29.941   4.404   7.435
 6076POPC   C1B76639  29.896   4.691   6.352
 6076POPC   C2B76640  29.733   4.791   6.767
 6076POPC   C3B76641  29.544   4.695   7.206
 6076POPC   C4B76642  29.621   4.713   7.698
 6077POPC   NC376643   3.878  15.718   5.367
 6077POPC   PO476644   3.618  15.079   5.342
 6077POPC   GL176645   3.486  15.211   5.742
 6077POPC   GL276646   3.739  15.443   5.775
 6077POPC   C1A76647   3.417  15.012   6.155
 6077POPC   D2A76648   3.439  15.164   6.568
 6077POPC   C3A76649   3.371  14.874   6.891
 6077POPC   C4A76650   3.547  14.720   7.231
 6077POPC   C1B76651   3.925  15.260   6.132
 6077POPC   C2B76652   4.081  15.266   6.550
 6077POPC   C3B76653   3.826  15.187   6.903
 6077POPC   C4B76654   3.526  15.245   7.236
 6078POPC   NC376655  32.188  32.647   5.447
 6078POPC   PO476656  32.599  32.092   5.347
 6078POPC   GL176657  32.366  32.235   5.724
 6078POPC   GL276658  32.530  31.922   5.822
 6078POPC   C1A76659  32.182  32.489   6.093
 6078POPC   D2A76660  31.997  32.347   6.512
 6078POPC   C3A76661  32.151  32.454   6.932
 6078POPC   C4A76662  32.504  32.569   7.154
 6078POPC   C1B76663  32.389  32.049   6.212
 6078POPC   C2B76664  32.348  31.852   6.566
 6078POPC   C3B76665  32.388  31.705   6.938
 6078POPC   C4B76666  32.443  32.042   7.163
 6079POPC   NC376667   7.234  42.373   5.375
 6079POPC   PO476668   7.799  41.914   5.443
 6079POPC   GL176669   7.521  42.132   5.761
 6079POPC   GL276670   7.287  42.441   5.862
 6079POPC   C1A76671   7.511  41.994   6.185
 6079POPC   D2A76672   7.356  42.087   6.583
 6079POPC   C3A76673   7.484  41.961   6.979
 6079POPC   C4A76674   7.564  42.334   7.212
 6079POPC   C1B76675   7.374  42.653   6.258
 6079POPC   C2B76676   7.453  42.945   6.613
 6079POPC   C3B76677   7.416  42.822   7.036
 6079POPC   C4B76678   7.131  42.803   7.376
 6080POPC   NC376679  23.986  12.756   5.618
 6080POPC   PO476680  24.567  12.715   5.357
 6080POPC   GL176681  24.515  12.917   5.772
 6080POPC   GL276682  24.745  13.207   5.907
 6080POPC   C1A76683  24.398  12.906   6.207
 6080POPC   D2A76684  24.493  12.731   6.602
 6080POPC   C3A76685  24.282  12.891   6.954
 6080POPC   C4A76686  24.442  12.798   7.325
 6080POPC   C1B76687  24.675  13.297   6.370
 6080POPC   C2B76688  24.617  13.254   6.807
 6080POPC   C3B76689  24.644  13.300   7.255
 6080POPC   C4B76690  24.562  13.141   7.672
 6081POPC   NC376691  41.313  38.420   5.492
 6081POPC   PO476692  41.975  38.730   5.440
 6081POPC   GL176693  41.964  38.408   5.798
 6081POPC   GL276694  41.653  38.174   5.806
 6081POPC   C1A76695  41.928  38.319   6.255
 6081POPC   D2A76696  42.067  38.444   6.678
 6081POPC   C3A76697  41.863  38.541   7.054
 6081POPC   C4A76698  41.729  38.273   7.407
 6081POPC   C1B76699  41.429  38.232   6.228
 6081POPC   C2B76700  41.534  38.340   6.655
 6081POPC   C3B76701  41.371  38.440   7.062
 6081POPC   C4B76702  41.349  38.638   7.494
 6082POPC   NC376703   6.387  20.743   5.421
 6082POPC   PO476704   6.909  20.251   5.273
 6082POPC   GL176705   6.720  20.405   5.663
 6082POPC   GL276706   6.458  20.256   5.872
 6082POPC   C1A76707   6.805  20.584   6.074
 6082POPC   D2A76708   6.740  20.613   6.516
 6082POPC   C3A76709   7.061  20.726   6.796
 6082POPC   C4A76710   6.906  20.608   7.180
 6082POPC   C1B76711   6.318  20.439   6.261
 6082POPC   C2B76712   6.266  20.770   6.557
 6082POPC   C3B76713   6.496  20.803   6.932
 6082POPC   C4B76714   6.405  20.638   7.354
 6083POPC   NC376715  16.223  31.451   5.408
 6083POPC   PO476716  15.635  31.332   5.461
 6083POPC   GL176717  15.936  31.473   5.839
 6083POPC   GL276718  16.260  31.685   5.876
 6083POPC   C1A76719  16.042  31.523   6.316
 6083POPC   D2A76720  15.839  31.745   6.697
 6083POPC   C3A76721  15.732  31.428   7.006
 6083POPC   C4A76722  16.101  31.143   7.055
 6083POPC   C1B76723  16.482  31.803   6.293
 6083POPC   C2B76724  16.386  31.737   6.757
 6083POPC   C3B76725  16.138  31.721   7.137
 6083POPC   C4B76726  16.226  31.792   7.594
 6084POPC   NC376727  42.194   4.590   5.644
 6084POPC   PO476728  41.932   4.095   5.253
 6084POPC   GL176729  42.138   4.084   5.703
 6084POPC   GL276730  42.475   4.216   5.826
 6084POPC   C1A76731  42.110   4.159   6.182
 6084POPC   D2A76732  42.150   4.464   6.529
 6084POPC   C3A76733  42.189   4.233   6.915
 6084POPC   C4A76734  42.381   4.343   7.315
 6084POPC   C1B76735  42.572   4.469   6.190
 6084POPC   C2B76736  42.768   4.457   6.589
 6084POPC   C3B76737  42.703   4.574   6.998
 6084POPC   C4B76738  42.865   4.534   7.418
 6085POPC   NC376739  21.166   4.851   5.325
 6085POPC   PO476740  21.423   5.511   5.408
 6085POPC   GL176741  21.457   5.287   5.812
 6085POPC   GL276742  21.671   5.508   5.994
 6085POPC   C1A76743  21.342   4.878   6.054
 6085POPC   D2A76744  21.347   4.731   6.497
 6085POPC   C3A76745  21.198   5.066   6.788
 6085POPC   C4A76746  21.107   5.289   7.188
 6085POPC   C1B76747  21.533   5.267   6.339
 6085POPC   C2B76748  21.821   5.178   6.654
 6085POPC   C3B76749  21.678   5.077   7.026
 6085POPC   C4B76750  21.595   5.222   7.384
 6086POPC   NC376751  24.236  43.417   5.512
 6086POPC   PO476752  24.688  43.014   5.527
 6086POPC   GL176753  24.568  43.187   5.837
 6086POPC   GL276754  24.252  43.031   5.860
 6086POPC   C1A76755  24.626  43.051   6.245
 6086POPC   D2A76756  24.866  43.118   6.589
 6086POPC   C3A76757  24.727  42.932   6.958
 6086POPC   C4A76758  24.569  43.068   7.339
 6086POPC   C1B76759  24.113  42.977   6.259
 6086POPC   C2B76760  24.319  42.973   6.649
 6086POPC   C3B76761  24.194  42.903   7.042
 6086POPC   C4B76762  24.015  43.121   7.389
 6087POPC   NC376763  42.500   8.565   5.616
 6087POPC   PO476764  42.141   9.153   5.507
 6087POPC   GL176765  42.089   9.061   5.958
 6087POPC   GL276766  42.439   9.093   6.001
 6087POPC   C1A76767  42.116   8.998   6.430
 6087POPC   D2A76768  42.422   8.834   6.765
 6087POPC   C3A76769  42.306   8.608   7.163
 6087POPC   C4A76770  42.078   8.695   7.559
 6087POPC   C1B76771  42.515   9.317   6.404
 6087POPC   C2B76772  42.220   9.499   6.652
 6087POPC   C3B76773  42.112   9.243   6.981
 6087POPC   C4B76774  42.475   9.098   7.241
 6088POPC   NC376775  31.892  12.799   5.492
 6088POPC   PO476776  32.521  12.862   5.508
 6088POPC   GL176777  32.272  12.688   5.843
 6088POPC   GL276778  32.153  13.001   5.883
 6088POPC   C1A76779  32.216  12.641   6.302
 6088POPC   D2A76780  32.344  12.594   6.750
 6088POPC   C3A76781  32.047  12.517   7.088
 6088POPC   C4A76782  32.130  12.684   7.491
 6088POPC   C1B76783  32.013  13.161   6.242
 6088POPC   C2B76784  32.133  13.058   6.622
 6088POPC   C3B76785  31.983  13.006   6.991
 6088POPC   C4B76786  32.098  13.160   7.347
 6089POPC   NC376787  29.660  25.955   5.356
 6089POPC   PO476788  30.329  26.044   5.543
 6089POPC   GL176789  30.141  26.086   5.910
 6089POPC   GL276790  29.807  26.129   5.834
 6089POPC   C1A76791  30.101  26.071   6.339
 6089POPC   D2A76792  29.850  26.139   6.695
 6089POPC   C3A76793  30.006  25.849   6.982
 6089POPC   C4A76794  29.748  25.864   7.328
 6089POPC   C1B76795  29.594  26.243   6.255
 6089POPC   C2B76796  29.408  26.469   6.628
 6089POPC   C3B76797  29.640  26.595   6.992
 6089POPC   C4B76798  29.920  26.314   7.186
 6090POPC   NC376799  33.499  23.022   5.466
 6090POPC   PO476800  34.098  22.705   5.436
 6090POPC   GL176801  33.847  22.711   5.804
 6090POPC   GL276802  33.485  22.588   5.728
 6090POPC   C1A76803  34.005  22.875   6.237
 6090POPC   D2A76804  33.854  23.021   6.667
 6090POPC   C3A76805  34.043  22.919   7.073
 6090POPC   C4A76806  33.975  22.520   7.204
 6090POPC   C1B76807  33.470  22.763   6.157
 6090POPC   C2B76808  33.388  22.766   6.618
 6090POPC   C3B76809  33.521  22.807   7.034
 6090POPC   C4B76810  33.630  23.227   7.122
 6091POPC   NC376811  23.471  11.796   5.288
 6091POPC   PO476812  23.837  12.374   5.422
 6091POPC   GL176813  23.765  12.190   5.828
 6091POPC   GL276814  23.631  11.836   5.814
 6091POPC   C1A76815  23.949  12.021   6.235
 6091POPC   D2A76816  23.925  11.858   6.666
 6091POPC   C3A76817  23.850  12.120   7.023
 6091POPC   C4A76818  23.438  12.216   7.205
 6091POPC   C1B76819  23.442  12.014   6.228
 6091POPC   C2B76820  23.371  11.985   6.695
 6091POPC   C3B76821  23.518  11.731   7.058
 6091POPC   C4B76822  23.641  11.411   7.350
 6092POPC   NC376823  17.245  15.302   5.570
 6092POPC   PO476824  17.756  14.925   5.755
 6092POPC   GL176825  17.605  15.317   5.958
 6092POPC   GL276826  17.879  15.560   5.877
 6092POPC   C1A76827  17.274  15.261   6.316
 6092POPC   D2A76828  17.227  14.932   6.698
 6092POPC   C3A76829  17.542  14.940   7.049
 6092POPC   C4A76830  17.933  15.058   7.251
 6092POPC   C1B76831  17.892  15.660   6.225
 6092POPC   C2B76832  17.738  15.417   6.500
 6092POPC   C3B76833  17.762  15.404   6.908
 6092POPC   C4B76834  17.613  15.472   7.306
 6093POPC   NC376835   1.872  41.197   5.277
 6093POPC   PO476836   2.083  41.865   5.374
 6093POPC   GL176837   1.898  41.639   5.749
 6093POPC   GL276838   2.146  41.473   5.987
 6093POPC   C1A76839   1.735  41.641   6.183
 6093POPC   D2A76840   2.046  41.587   6.507
 6093POPC   C3A76841   1.838  41.529   6.888
 6093POPC   C4A76842   2.036  41.617   7.263
 6093POPC   C1B76843   1.943  41.147   6.246
 6093POPC   C2B76844   2.080  40.996   6.637
 6093POPC   C3B76845   2.200  41.172   7.041
 6093POPC   C4B76846   1.820  41.166   7.269
 6094POPC   NC376847   7.232   9.073   5.361
 6094POPC   PO476848   7.835   9.122   5.572
 6094POPC   GL176849   7.457   8.922   5.810
 6094POPC   GL276850   7.091   9.033   5.871
 6094POPC   C1A76851   7.364   8.874   6.269
 6094POPC   D2A76852   7.627   9.022   6.625
 6094POPC   C3A76853   7.463   8.910   7.045
 6094POPC   C4A76854   7.480   8.765   7.503
 6094POPC   C1B76855   6.902   9.272   6.245
 6094POPC   C2B76856   7.039   9.417   6.675
 6094POPC   C3B76857   7.090   9.288   7.106
 6094POPC   C4B76858   7.017   8.896   7.335
 6095POPC   NC376859  14.762  28.502   5.701
 6095POPC   PO476860  14.289  28.179   5.342
 6095POPC   GL176861  14.291  28.248   5.822
 6095POPC   GL276862  14.226  28.575   5.993
 6095POPC   C1A76863  14.201  28.145   6.267
 6095POPC   D2A76864  14.460  28.200   6.641
 6095POPC   C3A76865  14.295  28.274   7.057
 6095POPC   C4A76866  13.881  28.178   7.250
 6095POPC   C1B76867  14.470  28.631   6.341
 6095POPC   C2B76868  14.496  28.718   6.771
 6095POPC   C3B76869  14.664  28.645   7.167
 6095POPC   C4B76870  14.534  28.452   7.539
 6096POPC   NC376871   9.764  30.269   5.247
 6096POPC   PO476872   9.904  30.853   5.458
 6096POPC   GL176873   9.593  30.826   5.777
 6096POPC   GL276874   9.562  30.488   5.803
 6096POPC   C1A76875   9.678  30.757   6.228
 6096POPC   D2A76876   9.938  30.906   6.533
 6096POPC   C3A76877   9.832  30.757   6.896
 6096POPC   C4A76878  10.099  30.771   7.233
 6096POPC   C1B76879   9.416  30.267   6.182
 6096POPC   C2B76880   9.453  30.434   6.582
 6096POPC   C3B76881   9.386  30.278   6.976
 6096POPC   C4B76882   9.578  30.522   7.270
 6097POPC   NC376883  38.799  28.593   5.391
 6097POPC   PO476884  39.383  28.178   5.326
 6097POPC   GL176885  39.463  28.344   5.717
 6097POPC   GL276886  39.248  28.625   5.738
 6097POPC   C1A76887  39.555  28.321   6.157
 6097POPC   D2A76888  39.275  28.397   6.510
 6097POPC   C3A76889  39.227  28.080   6.820
 6097POPC   C4A76890  39.537  28.018   7.122
 6097POPC   C1B76891  39.287  28.785   6.162
 6097POPC   C2B76892  39.021  28.858   6.541
 6097POPC   C3B76893  39.060  28.716   6.993
 6097POPC   C4B76894  39.039  28.821   7.480
 6098POPC   NC376895  29.219  24.455   5.333
 6098POPC   PO476896  28.651  24.825   5.418
 6098POPC   GL176897  28.948  24.573   5.759
 6098POPC   GL276898  29.111  24.217   5.782
 6098POPC   C1A76899  29.153  24.579   6.177
 6098POPC   D2A76900  29.167  24.369   6.594
 6098POPC   C3A76901  28.923  24.575   6.941
 6098POPC   C4A76902  29.028  24.556   7.360
 6098POPC   C1B76903  28.850  24.171   6.174
 6098POPC   C2B76904  28.684  24.261   6.600
 6098POPC   C3B76905  28.822  24.087   6.994
 6098POPC   C4B76906  28.829  24.099   7.431
 6099POPC   NC376907  35.201   3.362   5.369
 6099POPC   PO476908  35.872   3.650   5.343
 6099POPC   GL176909  35.567   3.433   5.710
 6099POPC   GL276910  35.737   3.253   5.898
 6099POPC   C1A76911  35.393   3.443   6.216
 6099POPC   D2A76912  35.052   3.597   6.547
 6099POPC   C3A76913  34.998   3.429   6.991
 6099POPC   C4A76914  35.056   3.663   7.399
 6099POPC   C1B76915  35.919   3.210   6.265
 6099POPC   C2B76916  35.721   3.115   6.642
 6099POPC   C3B76917  35.482   3.420   6.849
 6099POPC   C4B76918  35.444   3.367   7.297
 6100POPC   NC376919  25.097  44.975   5.353
 6100POPC   PO476920  25.261  44.381   5.535
 6100POPC   GL176921  25.063  44.640   5.775
 6100POPC   GL276922  25.342  44.858   5.795
 6100POPC   C1A76923  24.996  44.588   6.209
 6100POPC   D2A76924  25.188  44.542   6.624
 6100POPC   C3A76925  24.980  44.639   7.031
 6100POPC   C4A76926  25.174  44.399   7.356
 6100POPC   C1B76927  25.458  44.786   6.228
 6100POPC   C2B76928  25.632  44.884   6.631
 6100POPC   C3B76929  25.506  44.694   7.021
 6100POPC   C4B76930  25.386  44.906   7.400
 6101POPC   NC376931   0.071  25.078   5.348
 6101POPC   PO476932   0.676  25.210   5.392
 6101POPC   GL176933   0.585  25.334   5.787
 6101POPC   GL276934   0.272  25.191   5.826
 6101POPC   C1A76935   0.536  25.351   6.247
 6101POPC   D2A76936   0.312  25.445   6.651
 6101POPC   C3A76937   0.584  25.351   7.035
 6101POPC   C4A76938   0.536  25.231   7.470
 6101POPC   C1B76939   0.048  25.194   6.222
 6101POPC   C2B76940   0.050  24.978   6.602
 6101POPC   C3B76941   0.207  24.990   6.993
 6101POPC   C4B76942   0.218  24.839   7.392
 6102POPC   NC376943  37.829  21.404   5.258
 6102POPC   PO476944  37.209  21.422   5.360
 6102POPC   GL176945  37.481  21.317   5.736
 6102POPC   GL276946  37.858  21.243   5.735
 6102POPC   C1A76947  37.526  21.193   6.188
 6102POPC   D2A76948  37.386  21.133   6.651
 6102POPC   C3A76949  37.536  21.403   7.022
 6102POPC   C4A76950  37.658  21.830   7.219
 6102POPC   C1B76951  38.104  21.273   6.117
 6102POPC   C2B76952  37.913  21.189   6.527
 6102POPC   C3B76953  38.015  21.165   6.935
 6102POPC   C4B76954  37.998  21.458   7.248
 6103POPC   NC376955  33.573   2.703   5.313
 6103POPC   PO476956  32.916   2.756   5.245
 6103POPC   GL176957  32.982   2.779   5.698
 6103POPC   GL276958  32.657   2.867   5.769
 6103POPC   C1A76959  33.194   2.775   6.123
 6103POPC   D2A76960  33.334   2.691   6.565
 6103POPC   C3A76961  33.107   2.577   6.954
 6103POPC   C4A76962  33.194   2.720   7.370
 6103POPC   C1B76963  32.701   2.735   6.209
 6103POPC   C2B76964  32.893   2.936   6.598
 6103POPC   C3B76965  32.939   3.044   7.054
 6103POPC   C4B76966  32.625   2.935   7.328
 6104POPC   NC376967  26.045   0.059   5.306
 6104POPC   PO476968  26.353   0.634   5.524
 6104POPC   GL176969  26.066   0.333   5.776
 6104POPC   GL276970  26.156  44.982   5.808
 6104POPC   C1A76971  25.820   0.289   6.184
 6104POPC   D2A76972  25.771   0.579   6.561
 6104POPC   C3A76973  26.109   0.618   6.871
 6104POPC   C4A76974  25.984   0.696   7.287
 6104POPC   C1B76975  26.316   0.105   6.227
 6104POPC   C2B76976  26.082   0.155   6.614
 6104POPC   C3B76977  25.861   0.194   6.999
 6104POPC   C4B76978  26.196   0.229   7.285
 6105POPC   NC376979   4.679  34.585   5.368
 6105POPC   PO476980   5.350  34.709   5.255
 6105POPC   GL176981   5.193  34.540   5.692
 6105POPC   GL276982   5.013  34.820   5.800
 6105POPC   C1A76983   5.156  34.476   6.198
 6105POPC   D2A76984   5.093  34.282   6.646
 6105POPC   C3A76985   5.205  34.556   7.020
 6105POPC   C4A76986   5.169  34.549   7.474
 6105POPC   C1B76987   4.767  34.805   6.176
 6105POPC   C2B76988   4.759  34.666   6.589
 6105POPC   C3B76989   4.756  34.879   6.981
 6105POPC   C4B76990   4.753  34.836   7.388
 6106POPC   NC376991  38.188  41.863   5.374
 6106POPC   PO476992  38.014  41.237   5.343
 6106POPC   GL176993  37.715  41.438   5.702
 6106POPC   GL276994  37.611  41.817   5.778
 6106POPC   C1A76995  37.593  41.480   6.154
 6106POPC   D2A76996  37.646  41.718   6.544
 6106POPC   C3A76997  37.572  41.447   6.911
 6106POPC   C4A76998  37.755  41.322   7.325
 6106POPC   C1B76999  37.288  41.881   6.164
 6106POPC   C2B77000  37.128  42.018   6.598
 6106POPC   C3B77001  37.385  41.939   6.945
 6106POPC   C4B77002  37.457  41.728   7.318
 6107POPC   NC377003   0.281  36.888   5.246
 6107POPC   PO477004   0.505  37.345   5.749
 6107POPC   GL177005   0.479  36.949   5.907
 6107POPC   GL277006   0.187  36.771   5.845
 6107POPC   C1A77007   0.489  36.819   6.336
 6107POPC   D2A77008   0.448  37.215   6.584
 6107POPC   C3A77009   0.714  37.164   6.926
 6107POPC   C4A77010   0.522  36.825   7.117
 6107POPC   C1B77011   0.066  37.070   6.232
 6107POPC   C2B77012  44.943  37.088   6.664
 6107POPC   C3B77013   0.085  37.090   7.094
 6107POPC   C4B77014   0.126  37.018   7.546
 6108POPC   NC377015  17.983  36.161   5.508
 6108POPC   PO477016  18.618  36.201   5.623
 6108POPC   GL177017  18.324  35.990   5.885
 6108POPC   GL277018  17.969  36.120   6.004
 6108POPC   C1A77019  18.247  35.839   6.292
 6108POPC   D2A77020  18.003  35.936   6.596
 6108POPC   C3A77021  18.246  35.826   6.884
 6108POPC   C4A77022  18.255  36.024   7.242
 6108POPC   C1B77023  17.878  36.387   6.380
 6108POPC   C2B77024  17.957  36.396   6.853
 6108POPC   C3B77025  18.004  36.481   7.299
 6108POPC   C4B77026  18.048  36.248   7.689
 6109POPC   NC377027  34.947   0.341   5.543
 6109POPC   PO477028  34.326   0.506   5.349
 6109POPC   GL177029  34.494   0.415   5.761
 6109POPC   GL277030  34.443   0.082   5.686
 6109POPC   C1A77031  34.722   0.445   6.169
 6109POPC   D2A77032  34.681   0.656   6.562
 6109POPC   C3A77033  34.774   0.499   6.950
 6109POPC   C4A77034  34.496   0.659   7.243
 6109POPC   C1B77035  34.298   0.057   6.106
 6109POPC   C2B77036  34.472   0.180   6.521
 6109POPC   C3B77037  34.288   0.403   6.823
 6109POPC   C4B77038  34.176   0.216   7.200
 6110POPC   NC377039  13.298   9.040   5.464
 6110POPC   PO477040  13.801   8.570   5.450
 6110POPC   GL177041  13.693   8.875   5.741
 6110POPC   GL277042  13.400   8.707   5.832
 6110POPC   C1A77043  13.501   9.132   6.101
 6110POPC   D2A77044  13.359   9.111   6.540
 6110POPC   C3A77045  13.645   8.952   6.873
 6110POPC   C4A77046  13.744   9.199   7.233
 6110POPC   C1B77047  13.741   8.692   6.198
 6110POPC   C2B77048  13.718   8.480   6.588
 6110POPC   C3B77049  13.834   8.465   7.017
 6110POPC   C4B77050  13.696   8.677   7.362
 6111POPC   NC377051  24.056   5.882   5.634
 6111POPC   PO477052  24.687   5.695   5.497
 6111POPC   GL177053  24.532   5.857   5.885
 6111POPC   GL277054  24.475   6.185   5.770
 6111POPC   C1A77055  24.306   5.820   6.296
 6111POPC   D2A77056  24.211   6.088   6.672
 6111POPC   C3A77057  24.333   5.767   6.963
 6111POPC   C4A77058  24.622   5.818   7.298
 6111POPC   C1B77059  24.428   6.300   6.201
 6111POPC   C2B77060  24.685   6.160   6.518
 6111POPC   C3B77061  24.653   6.178   6.940
 6111POPC   C4B77062  24.293   6.202   7.227
 6112POPC   NC377063  38.934  35.854   5.536
 6112POPC   PO477064  39.588  36.102   5.397
 6112POPC   GL177065  39.424  36.265   5.842
 6112POPC   GL277066  39.074  36.172   5.935
 6112POPC   C1A77067  39.312  36.445   6.275
 6112POPC   D2A77068  39.072  36.243   6.583
 6112POPC   C3A77069  39.307  36.136   6.958
 6112POPC   C4A77070  39.208  36.392   7.289
 6112POPC   C1B77071  39.041  35.844   6.242
 6112POPC   C2B77072  39.185  35.746   6.637
 6112POPC   C3B77073  39.003  35.714   7.034
 6112POPC   C4B77074  39.118  35.900   7.428
 6113POPC   NC377075   2.252  30.621   5.456
 6113POPC   PO477076   1.660  30.938   5.548
 6113POPC   GL177077   1.942  30.681   5.870
 6113POPC   GL277078   2.196  30.928   5.924
 6113POPC   C1A77079   2.072  30.635   6.335
 6113POPC   D2A77080   1.836  30.482   6.715
 6113POPC   C3A77081   1.978  30.581   7.151
 6113POPC   C4A77082   1.974  30.349   7.541
 6113POPC   C1B77083   1.774  31.030   6.195
 6113POPC   C2B77084   1.631  30.957   6.619
 6113POPC   C3B77085   1.801  31.070   7.050
 6113POPC   C4B77086   2.206  31.079   7.281
 6114POPC   NC377087  44.566  42.300   5.343
 6114POPC   PO477088  44.611  41.653   5.426
 6114POPC   GL177089  44.681  42.042   5.764
 6114POPC   GL277090  44.423  42.347   5.842
 6114POPC   C1A77091  44.766  42.226   6.190
 6114POPC   D2A77092  44.484  42.400   6.524
 6114POPC   C3A77093  44.517  42.211   6.948
 6114POPC   C4A77094  44.860  42.241   7.239
 6114POPC   C1B77095  44.591  42.709   6.118
 6114POPC   C2B77096  44.608  42.935   6.518
 6114POPC   C3B77097  44.613  42.733   6.920
 6114POPC   C4B77098  44.470  42.577   7.315
 6115POPC   NC377099   2.198   7.149   5.602
 6115POPC   PO477100   2.285   6.490   5.530
 6115POPC   GL177101   1.976   6.553   5.836
 6115POPC   GL277102   1.832   6.889   5.891
 6115POPC   C1A77103   1.884   6.484   6.242
 6115POPC   D2A77104   2.031   6.665   6.590
 6115POPC   C3A77105   1.965   6.444   6.952
 6115POPC   C4A77106   1.975   6.547   7.350
 6115POPC   C1B77107   2.159   6.992   6.211
 6115POPC   C2B77108   2.353   7.107   6.592
 6115POPC   C3B77109   2.247   6.912   6.979
 6115POPC   C4B77110   2.346   6.920   7.401
 6116POPC   NC377111   8.883  39.783   5.449
 6116POPC   PO477112   8.867  40.462   5.388
 6116POPC   GL177113   8.832  40.361   5.827
 6116POPC   GL277114   8.750  40.050   5.843
 6116POPC   C1A77115   8.624  40.305   6.246
 6116POPC   D2A77116   8.721  40.055   6.616
 6116POPC   C3A77117   8.780  40.272   7.021
 6116POPC   C4A77118   9.020  40.078   7.407
 6116POPC   C1B77119   9.000  39.883   6.191
 6116POPC   C2B77120   9.035  39.648   6.585
 6116POPC   C3B77121   8.937  39.785   7.002
 6116POPC   C4B77122   8.896  39.580   7.458
 6117POPC   NC377123  23.180  12.890   5.042
 6117POPC   PO477124  22.636  12.661   5.389
 6117POPC   GL177125  22.751  12.971   5.679
 6117POPC   GL277126  23.088  12.965   5.762
 6117POPC   C1A77127  22.707  13.020   6.132
 6117POPC   D2A77128  22.873  12.912   6.543
 6117POPC   C3A77129  22.801  13.038   6.918
 6117POPC   C4A77130  22.863  12.872   7.286
 6117POPC   C1B77131  23.229  12.871   6.181
 6117POPC   C2B77132  23.413  12.911   6.590
 6117POPC   C3B77133  23.311  12.918   7.018
 6117POPC   C4B77134  23.305  12.663   7.394
 6118POPC   NC377135   7.053   1.377   5.293
 6118POPC   PO477136   6.427   1.172   5.459
 6118POPC   GL177137   6.460   1.224   5.874
 6118POPC   GL277138   6.236   1.472   5.946
 6118POPC   C1A77139   6.777   1.039   6.187
 6118POPC   D2A77140   6.974   0.817   6.563
 6118POPC   C3A77141   6.837   0.981   6.952
 6118POPC   C4A77142   6.941   1.389   7.153
 6118POPC   C1B77143   6.539   1.496   6.279
 6118POPC   C2B77144   6.574   1.251   6.618
 6118POPC   C3B77145   6.423   1.289   7.042
 6118POPC   C4B77146   6.525   1.696   7.199
 6119POPC   NC377147  34.401  43.620   5.310
 6119POPC   PO477148  35.045  43.563   5.457
 6119POPC   GL177149  34.723  43.702   5.744
 6119POPC   GL277150  34.641  44.080   5.742
 6119POPC   C1A77151  34.570  43.516   6.115
 6119POPC   D2A77152  34.364  43.595   6.514
 6119POPC   C3A77153  34.463  43.794   6.891
 6119POPC   C4A77154  34.584  43.626   7.286
 6119POPC   C1B77155  34.451  43.988   6.155
 6119POPC   C2B77156  34.458  44.174   6.523
 6119POPC   C3B77157  34.484  44.332   6.913
 6119POPC   C4B77158  34.512  44.122   7.288
 6120POPC   NC377159  19.141   8.503   5.412
 6120POPC   PO477160  19.216   7.785   5.216
 6120POPC   GL177161  19.111   7.896   5.679
 6120POPC   GL277162  19.001   8.245   5.827
 6120POPC   C1A77163  19.157   7.891   6.138
 6120POPC   D2A77164  19.070   7.749   6.553
 6120POPC   C3A77165  19.099   8.000   6.905
 6120POPC   C4A77166  18.994   7.922   7.313
 6120POPC   C1B77167  19.325   8.448   6.110
 6120POPC   C2B77168  19.636   8.501   6.466
 6120POPC   C3B77169  19.452   8.450   6.872
 6120POPC   C4B77170  19.156   8.406   7.200
 6121POPC   NC377171  12.343   6.127   5.422
 6121POPC   PO477172  12.120   5.569   5.401
 6121POPC   GL177173  11.973   5.565   5.817
 6121POPC   GL277174  11.930   5.916   5.789
 6121POPC   C1A77175  12.123   5.690   6.238
 6121POPC   D2A77176  12.229   6.059   6.498
 6121POPC   C3A77177  12.230   5.904   6.901
 6121POPC   C4A77178  12.071   5.638   7.213
 6121POPC   C1B77179  11.822   6.093   6.191
 6121POPC   C2B77180  11.729   6.112   6.651
 6121POPC   C3B77181  11.792   6.095   7.124
 6121POPC   C4B77182  11.787   5.923   7.550
 6122POPC   NC377183  15.863  26.411   5.323
 6122POPC   PO477184  16.034  25.735   5.319
 6122POPC   GL177185  16.035  25.839   5.764
 6122POPC   GL277186  15.876  26.174   5.781
 6122POPC   C1A77187  15.790  25.784   6.150
 6122POPC   D2A77188  15.946  25.625   6.522
 6122POPC   C3A77189  15.808  25.692   6.925
 6122POPC   C4A77190  16.038  25.657   7.292
 6122POPC   C1B77191  15.756  26.339   6.174
 6122POPC   C2B77192  15.800  26.102   6.558
 6122POPC   C3B77193  16.053  26.131   6.911
 6122POPC   C4B77194  15.780  26.110   7.268
 6123POPC   NC377195  17.170   4.159   5.382
 6123POPC   PO477196  17.845   4.121   5.562
 6123POPC   GL177197  17.512   4.156   5.875
 6123POPC   GL277198  17.351   4.471   5.788
 6123POPC   C1A77199  17.289   4.116   6.313
 6123POPC   D2A77200  17.181   4.033   6.783
 6123POPC   C3A77201  17.161   4.233   7.181
 6123POPC   C4A77202  17.121   4.437   7.601
 6123POPC   C1B77203  17.523   4.545   6.226
 6123POPC   C2B77204  17.594   4.361   6.664
 6123POPC   C3B77205  17.567   4.533   7.096
 6123POPC   C4B77206  17.602   4.710   7.526
 6124POPC   NC377207  12.084  21.079   5.354
 6124POPC   PO477208  11.701  21.589   5.478
 6124POPC   GL177209  11.958  21.360   5.771
 6124POPC   GL277210  12.108  21.625   5.872
 6124POPC   C1A77211  12.154  21.207   6.178
 6124POPC   D2A77212  12.231  21.393   6.603
 6124POPC   C3A77213  12.121  21.327   7.038
 6124POPC   C4A77214  12.333  21.502   7.425
 6124POPC   C1B77215  11.879  21.623   6.277
 6124POPC   C2B77216  11.872  21.722   6.728
 6124POPC   C3B77217  12.099  21.859   7.119
 6124POPC   C4B77218  12.157  22.144   7.494
 6125POPC   NC377219   4.008   5.260   5.313
 6125POPC   PO477220   3.412   4.971   5.266
 6125POPC   GL177221   3.433   5.036   5.767
 6125POPC   GL277222   3.682   5.336   5.823
 6125POPC   C1A77223   3.534   4.870   6.208
 6125POPC   D2A77224   3.401   4.659   6.609
 6125POPC   C3A77225   3.403   4.877   6.972
 6125POPC   C4A77226   3.273   4.936   7.361
 6125POPC   C1B77227   3.518   5.389   6.234
 6125POPC   C2B77228   3.628   5.190   6.630
 6125POPC   C3B77229   3.642   5.326   7.067
 6125POPC   C4B77230   3.729   5.162   7.476
 6126POPC   NC377231  31.763  44.301   5.530
 6126POPC   PO477232  32.437  44.393   5.444
 6126POPC   GL177233  32.182  44.530   5.801
 6126POPC   GL277234  32.496  44.740   5.943
 6126POPC   C1A77235  32.046  44.541   6.220
 6126POPC   D2A77236  32.361  44.408   6.516
 6126POPC   C3A77237  32.436  44.576   6.915
 6126POPC   C4A77238  32.322  44.521   7.317
 6126POPC   C1B77239  32.376  44.947   6.323
 6126POPC   C2B77240  32.077  44.855   6.643
 6126POPC   C3B77241  32.013  44.839   7.078
 6126POPC   C4B77242  32.122  44.929   7.533
 6127POPC   NC377243   3.982  27.547   5.382
 6127POPC   PO477244   4.620  27.863   5.406
 6127POPC   GL177245   4.297  27.756   5.745
 6127POPC   GL277246   4.128  27.396   5.838
 6127POPC   C1A77247   4.457  27.644   6.142
 6127POPC   D2A77248   4.347  27.496   6.514
 6127POPC   C3A77249   4.496  27.630   6.877
 6127POPC   C4A77250   4.534  27.724   7.295
 6127POPC   C1B77251   3.914  27.520   6.236
 6127POPC   C2B77252   3.939  27.769   6.647
 6127POPC   C3B77253   4.032  27.623   7.077
 6127POPC   C4B77254   3.920  27.651   7.505
 6128POPC   NC377255  31.281  19.859   5.450
 6128POPC   PO477256  31.860  20.077   5.430
 6128POPC   GL177257  31.566  20.014   5.848
 6128POPC   GL277258  31.423  19.649   5.910
 6128POPC   C1A77259  31.365  19.984   6.289
 6128POPC   D2A77260  31.584  20.061   6.721
 6128POPC   C3A77261  31.586  19.818   7.121
 6128POPC   C4A77262  31.555  19.638   7.559
 6128POPC   C1B77263  31.133  19.545   6.286
 6128POPC   C2B77264  31.057  19.714   6.734
 6128POPC   C3B77265  31.172  19.541   7.169
 6128POPC   C4B77266  31.253  19.229   7.497
 6129POPC   NC377267  43.970  38.304   5.272
 6129POPC   PO477268  44.418  38.744   5.517
 6129POPC   GL177269  44.187  38.699   5.905
 6129POPC   GL277270  44.041  38.379   5.813
 6129POPC   C1A77271  43.873  38.750   6.285
 6129POPC   D2A77272  43.635  38.780   6.719
 6129POPC   C3A77273  43.919  38.762   7.076
 6129POPC   C4A77274  43.781  38.696   7.509
 6129POPC   C1B77275  43.890  38.157   6.178
 6129POPC   C2B77276  43.662  38.306   6.522
 6129POPC   C3B77277  43.790  38.281   6.946
 6129POPC   C4B77278  44.181  38.111   7.090
 6130POPC   NC377279  38.669   7.844   5.538
 6130POPC   PO477280  39.113   7.412   5.212
 6130POPC   GL177281  39.124   7.461   5.686
 6130POPC   GL277282  38.806   7.402   5.832
 6130POPC   C1A77283  39.258   7.285   6.118
 6130POPC   D2A77284  39.156   7.019   6.492
 6130POPC   C3A77285  39.352   7.087   6.923
 6130POPC   C4A77286  39.264   7.152   7.378
 6130POPC   C1B77287  38.852   7.545   6.275
 6130POPC   C2B77288  39.108   7.504   6.656
 6130POPC   C3B77289  38.994   7.449   7.077
 6130POPC   C4B77290  38.911   7.474   7.542
 6131POPC   NC377291  12.929  21.689   5.353
 6131POPC   PO477292  12.381  21.404   5.467
 6131POPC   GL177293  12.554  21.293   5.857
 6131POPC   GL277294  12.903  21.422   5.860
 6131POPC   C1A77295  12.665  21.167   6.301
 6131POPC   D2A77296  12.725  21.383   6.698
 6131POPC   C3A77297  12.613  21.183   7.088
 6131POPC   C4A77298  12.755  21.209   7.525
 6131POPC   C1B77299  12.978  21.623   6.293
 6131POPC   C2B77300  13.138  21.678   6.735
 6131POPC   C3B77301  12.978  21.550   7.157
 6131POPC   C4B77302  13.086  21.663   7.594
 6132POPC   NC377303   2.604  29.874   4.981
 6132POPC   PO477304   2.997  29.690   5.476
 6132POPC   GL177305   2.738  29.796   5.848
 6132POPC   GL277306   2.851  30.123   5.980
 6132POPC   C1A77307   2.474  29.846   6.226
 6132POPC   D2A77308   2.435  29.654   6.623
 6132POPC   C3A77309   2.511  29.906   6.981
 6132POPC   C4A77310   2.723  29.873   7.394
 6132POPC   C1B77311   3.003  29.882   6.274
 6132POPC   C2B77312   2.841  30.005   6.617
 6132POPC   C3B77313   3.019  30.012   7.012
 6132POPC   C4B77314   2.986  30.312   7.362
 6133POPC   NC377315  17.064  39.453   5.452
 6133POPC   PO477316  17.634  39.003   5.415
 6133POPC   GL177317  17.700  39.146   5.806
 6133POPC   GL277318  17.439  39.372   5.787
 6133POPC   C1A77319  17.635  39.048   6.239
 6133POPC   D2A77320  17.880  38.956   6.599
 6133POPC   C3A77321  17.782  39.157   6.953
 6133POPC   C4A77322  17.505  39.077   7.231
 6133POPC   C1B77323  17.153  39.267   6.091
 6133POPC   C2B77324  17.132  39.147   6.510
 6133POPC   C3B77325  17.273  39.328   6.875
 6133POPC   C4B77326  17.070  39.370   7.264
 6134POPC   NC377327   5.186  35.181   5.272
 6134POPC   PO477328   4.615  35.026   5.556
 6134POPC   GL177329   4.883  35.321   5.785
 6134POPC   GL277330   5.223  35.461   5.698
 6134POPC   C1A77331   5.097  35.195   6.212
 6134POPC   D2A77332   5.204  34.913   6.601
 6134POPC   C3A77333   5.217  35.078   7.047
 6134POPC   C4A77334   5.185  35.049   7.530
 6134POPC   C1B77335   5.110  35.687   6.087
 6134POPC   C2B77336   4.862  35.678   6.461
 6134POPC   C3B77337   5.075  35.547   6.837
 6134POPC   C4B77338   5.151  35.736   7.224
 6135POPC   NC377339   0.555  42.359   5.226
 6135POPC   PO477340  44.981  42.012   5.327
 6135POPC   GL177341   0.219  42.204   5.718
 6135POPC   GL277342   0.531  42.441   5.733
 6135POPC   C1A77343   0.224  42.454   6.141
 6135POPC   D2A77344  44.983  42.569   6.547
 6135POPC   C3A77345   0.220  42.429   6.912
 6135POPC   C4A77346   0.381  42.345   7.326
 6135POPC   C1B77347   0.752  42.538   6.134
 6135POPC   C2B77348   0.886  42.423   6.534
 6135POPC   C3B77349   0.745  42.352   6.932
 6135POPC   C4B77350   0.831  42.565   7.279
 6136POPC   NC377351  32.469   4.863   5.140
 6136POPC   PO477352  32.352   4.255   5.415
 6136POPC   GL177353  32.207   4.281   5.822
 6136POPC   GL277354  31.900   4.144   5.815
 6136POPC   C1A77355  32.245   4.374   6.245
 6136POPC   D2A77356  32.536   4.361   6.597
 6136POPC   C3A77357  32.292   4.343   6.974
 6136POPC   C4A77358  32.342   4.538   7.376
 6136POPC   C1B77359  32.076   3.882   6.145
 6136POPC   C2B77360  32.176   3.981   6.567
 6136POPC   C3B77361  32.074   3.864   6.965
 6136POPC   C4B77362  32.117   4.041   7.387
 6137POPC   NC377363  13.179  28.896   5.647
 6137POPC   PO477364  12.646  29.327   5.435
 6137POPC   GL177365  12.820  29.212   5.819
 6137POPC   GL277366  12.704  28.878   5.840
 6137POPC   C1A77367  12.927  29.223   6.268
 6137POPC   D2A77368  12.890  29.565   6.576
 6137POPC   C3A77369  12.923  29.314   6.915
 6137POPC   C4A77370  12.873  29.487   7.284
 6137POPC   C1B77371  12.535  28.900   6.222
 6137POPC   C2B77372  12.666  28.847   6.632
 6137POPC   C3B77373  12.512  28.988   7.030
 6137POPC   C4B77374  12.810  28.987   7.325
 6138POPC   NC377375   5.701   9.205   5.512
 6138POPC   PO477376   5.637   9.877   5.572
 6138POPC   GL177377   6.021   9.786   5.848
 6138POPC   GL277378   6.180   9.432   5.846
 6138POPC   C1A77379   6.033  10.028   6.229
 6138POPC   D2A77380   5.751  10.030   6.593
 6138POPC   C3A77381   5.855   9.870   6.998
 6138POPC   C4A77382   5.590   9.637   7.249
 6138POPC   C1B77383   5.997   9.490   6.272
 6138POPC   C2B77384   5.871   9.426   6.707
 6138POPC   C3B77385   6.082   9.422   7.092
 6138POPC   C4B77386   6.082   9.263   7.493
 6139POPC   NC377387  12.269  37.953   5.545
 6139POPC   PO477388  11.841  37.701   5.192
 6139POPC   GL177389  11.986  37.651   5.800
 6139POPC   GL277390  11.918  37.916   5.986
 6139POPC   C1A77391  12.288  37.671   6.212
 6139POPC   D2A77392  12.444  37.843   6.615
 6139POPC   C3A77393  12.332  37.628   7.021
 6139POPC   C4A77394  11.921  37.507   7.237
 6139POPC   C1B77395  11.748  38.097   6.309
 6139POPC   C2B77396  11.956  38.034   6.637
 6139POPC   C3B77397  11.911  37.927   6.981
 6139POPC   C4B77398  11.623  37.977   7.284
 6140POPC   NC377399  29.089  41.995   5.139
 6140POPC   PO477400  28.995  41.356   5.393
 6140POPC   GL177401  29.183  41.479   5.787
 6140POPC   GL277402  28.971  41.667   5.990
 6140POPC   C1A77403  29.374  41.426   6.205
 6140POPC   D2A77404  29.235  41.690   6.558
 6140POPC   C3A77405  29.305  41.506   6.957
 6140POPC   C4A77406  29.038  41.483   7.351
 6140POPC   C1B77407  28.770  41.835   6.323
 6140POPC   C2B77408  28.566  41.759   6.694
 6140POPC   C3B77409  28.835  41.814   7.033
 6140POPC   C4B77410  29.264  41.977   7.123
 6141POPC   NC377411  38.193   9.554   5.421
 6141POPC   PO477412  38.865   9.803   5.321
 6141POPC   GL177413  38.567   9.826   5.698
 6141POPC   GL277414  38.624   9.506   5.807
 6141POPC   C1A77415  38.670   9.890   6.174
 6141POPC   D2A77416  38.739   9.691   6.612
 6141POPC   C3A77417  38.633   9.863   7.037
 6141POPC   C4A77418  38.298   9.778   7.303
 6141POPC   C1B77419  38.448   9.427   6.208
 6141POPC   C2B77420  38.426   9.261   6.586
 6141POPC   C3B77421  38.483   9.383   6.995
 6141POPC   C4B77422  38.643   9.304   7.373
 6142POPC   NC377423  38.635  12.360   5.322
 6142POPC   PO477424  38.407  11.794   5.007
 6142POPC   GL177425  38.557  11.910   5.533
 6142POPC   GL277426  38.819  11.689   5.713
 6142POPC   C1A77427  38.564  12.058   6.006
 6142POPC   D2A77428  38.308  12.241   6.391
 6142POPC   C3A77429  38.421  12.155   6.833
 6142POPC   C4A77430  38.517  11.772   7.155
 6142POPC   C1B77431  38.916  11.683   6.171
 6142POPC   C2B77432  38.778  11.881   6.592
 6142POPC   C3B77433  38.880  12.092   7.041
 6142POPC   C4B77434  38.522  12.248   7.341
 6143POPC   NC377435  44.696  25.940   5.428
 6143POPC   PO477436  44.617  26.559   5.451
 6143POPC   GL177437  44.638  26.289   5.831
 6143POPC   GL277438  44.757  25.922   5.912
 6143POPC   C1A77439  44.653  26.262   6.277
 6143POPC   D2A77440  44.838  26.400   6.631
 6143POPC   C3A77441  44.539  26.283   6.978
 6143POPC   C4A77442  44.577  26.143   7.385
 6143POPC   C1B77443  44.932  25.844   6.312
 6143POPC   C2B77444  44.674  25.908   6.673
 6143POPC   C3B77445  44.836  25.780   7.069
 6143POPC   C4B77446   0.100  25.447   7.240
 6144POPC   NC377447  36.870  39.607   5.460
 6144POPC   PO477448  36.727  40.255   5.325
 6144POPC   GL177449  36.715  39.994   5.752
 6144POPC   GL277450  37.042  39.854   5.868
 6144POPC   C1A77451  36.676  39.682   6.132
 6144POPC   D2A77452  36.961  39.697   6.527
 6144POPC   C3A77453  36.755  39.808   6.930
 6144POPC   C4A77454  36.754  40.178   7.171
 6144POPC   C1B77455  36.895  40.127   6.238
 6144POPC   C2B77456  36.955  40.213   6.685
 6144POPC   C3B77457  37.264  40.439   6.941
 6144POPC   C4B77458  37.481  40.327   7.304
 6145POPC   NC377459  28.603   7.758   5.536
 6145POPC   PO477460  29.078   7.288   5.301
 6145POPC   GL177461  29.239   7.453   5.703
 6145POPC   GL277462  28.916   7.557   5.889
 6145POPC   C1A77463  29.322   7.312   6.118
 6145POPC   D2A77464  29.130   7.392   6.530
 6145POPC   C3A77465  29.082   7.242   6.958
 6145POPC   C4A77466  29.199   7.095   7.355
 6145POPC   C1B77467  28.708   7.623   6.296
 6145POPC   C2B77468  28.852   7.796   6.685
 6145POPC   C3B77469  28.755   7.734   7.110
 6145POPC   C4B77470  28.820   7.448   7.418
 6146POPC   NC377471  32.294  36.999   5.392
 6146POPC   PO477472  32.078  36.314   5.415
 6146POPC   GL177473  32.336  36.617   5.747
 6146POPC   GL277474  32.522  37.006   5.826
 6146POPC   C1A77475  32.185  36.612   6.174
 6146POPC   D2A77476  32.333  36.596   6.604
 6146POPC   C3A77477  32.119  36.726   6.985
 6146POPC   C4A77478  32.188  36.573   7.383
 6146POPC   C1B77479  32.278  37.103   6.188
 6146POPC   C2B77480  32.104  37.064   6.599
 6146POPC   C3B77481  32.124  37.224   7.037
 6146POPC   C4B77482  32.329  37.128   7.429
 6147POPC   NC377483   3.015   8.405   5.462
 6147POPC   PO477484   2.664   7.882   5.235
 6147POPC   GL177485   2.849   7.976   5.709
 6147POPC   GL277486   2.750   8.293   5.880
 6147POPC   C1A77487   2.857   7.910   6.172
 6147POPC   D2A77488   3.040   8.038   6.578
 6147POPC   C3A77489   2.721   8.048   6.899
 6147POPC   C4A77490   2.714   8.004   7.337
 6147POPC   C1B77491   2.845   8.443   6.285
 6147POPC   C2B77492   2.687   8.523   6.701
 6147POPC   C3B77493   2.864   8.496   7.134
 6147POPC   C4B77494   2.922   8.753   7.511
 6148POPC   NC377495  35.694  26.554   5.469
 6148POPC   PO477496  35.146  26.967   5.416
 6148POPC   GL177497  35.299  26.765   5.756
 6148POPC   GL277498  35.637  26.911   5.827
 6148POPC   C1A77499  35.257  26.722   6.183
 6148POPC   D2A77500  35.287  26.919   6.571
 6148POPC   C3A77501  35.052  26.785   6.915
 6148POPC   C4A77502  35.224  26.993   7.259
 6148POPC   C1B77503  35.628  27.105   6.240
 6148POPC   C2B77504  35.771  27.062   6.700
 6148POPC   C3B77505  35.629  26.806   7.053
 6148POPC   C4B77506  35.652  26.993   7.537
 6149POPC   NC377507  33.700  41.901   5.073
 6149POPC   PO477508  34.213  42.291   5.340
 6149POPC   GL177509  34.000  42.418   5.783
 6149POPC   GL277510  33.688  42.326   5.822
 6149POPC   C1A77511  34.009  42.273   6.215
 6149POPC   D2A77512  33.956  41.988   6.543
 6149POPC   C3A77513  33.963  42.226   6.930
 6149POPC   C4A77514  33.645  42.241   7.223
 6149POPC   C1B77515  33.457  42.481   6.161
 6149POPC   C2B77516  33.562  42.323   6.558
 6149POPC   C3B77517  33.588  42.607   6.864
 6149POPC   C4B77518  33.474  42.733   7.224
 6150POPC   NC377519  42.087  29.598   5.621
 6150POPC   PO477520  41.885  30.123   5.337
 6150POPC   GL177521  42.262  30.098   5.675
 6150POPC   GL277522  42.477  29.781   5.863
 6150POPC   C1A77523  42.463  30.220   6.089
 6150POPC   D2A77524  42.568  29.921   6.424
 6150POPC   C3A77525  42.620  30.032   6.867
 6150POPC   C4A77526  42.466  29.779   7.221
 6150POPC   C1B77527  42.103  29.865   6.192
 6150POPC   C2B77528  42.058  29.983   6.625
 6150POPC   C3B77529  41.986  29.873   7.065
 6150POPC   C4B77530  41.951  29.921   7.527
 6151POPC   NC377531  13.092  43.553   5.071
 6151POPC   PO477532  12.672  44.032   5.404
 6151POPC   GL177533  12.787  43.816   5.772
 6151POPC   GL277534  12.519  43.593   5.819
 6151POPC   C1A77535  12.761  43.895   6.224
 6151POPC   D2A77536  12.986  44.065   6.568
 6151POPC   C3A77537  12.964  43.899   6.946
 6151POPC   C4A77538  12.679  43.977   7.239
 6151POPC   C1B77539  12.407  43.484   6.222
 6151POPC   C2B77540  12.597  43.472   6.671
 6151POPC   C3B77541  12.547  43.512   7.141
 6151POPC   C4B77542  12.298  43.397   7.521
 6152POPC   NC377543  13.995  12.604   5.470
 6152POPC   PO477544  13.307  12.822   5.443
 6152POPC   GL177545  13.591  12.777   5.776
 6152POPC   GL277546  13.866  13.031   5.773
 6152POPC   C1A77547  13.467  12.873   6.181
 6152POPC   D2A77548  13.388  13.154   6.490
 6152POPC   C3A77549  13.193  13.012   6.842
 6152POPC   C4A77550  13.432  12.895   7.160
 6152POPC   C1B77551  13.983  12.822   6.172
 6152POPC   C2B77552  13.808  12.821   6.577
 6152POPC   C3B77553  13.934  12.767   7.004
 6152POPC   C4B77554  13.934  13.166   7.165
 6153POPC   NC377555  22.485  23.888   5.472
 6153POPC   PO477556  21.907  23.496   5.380
 6153POPC   GL177557  22.168  23.580   5.749
 6153POPC   GL277558  22.104  23.922   5.892
 6153POPC   C1A77559  22.210  23.376   6.155
 6153POPC   D2A77560  21.964  23.317   6.553
 6153POPC   C3A77561  22.161  23.269   6.963
 6153POPC   C4A77562  22.094  23.555   7.298
 6153POPC   C1B77563  21.952  23.807   6.335
 6153POPC   C2B77564  21.978  23.785   6.812
 6153POPC   C3B77565  22.163  24.032   7.168
 6153POPC   C4B77566  22.152  23.973   7.617
 6154POPC   NC377567   0.732  17.170   5.317
 6154POPC   PO477568   0.166  17.467   5.276
 6154POPC   GL177569   0.462  17.472   5.670
 6154POPC   GL277570   0.546  17.145   5.823
 6154POPC   C1A77571   0.631  17.567   6.135
 6154POPC   D2A77572   0.761  17.694   6.577
 6154POPC   C3A77573   0.496  17.553   6.937
 6154POPC   C4A77574   0.713  17.408   7.310
 6154POPC   C1B77575   0.159  17.360   6.067
 6154POPC   C2B77576   0.105  17.374   6.542
 6154POPC   C3B77577   0.080  17.197   6.987
 6154POPC   C4B77578   0.127  17.353   7.436
 6155POPC   NC377579  20.319  35.749   5.455
 6155POPC   PO477580  20.744  35.158   5.426
 6155POPC   GL177581  20.605  35.347   5.810
 6155POPC   GL277582  20.261  35.434   5.838
 6155POPC   C1A77583  20.530  35.365   6.265
 6155POPC   D2A77584  20.770  35.457   6.613
 6155POPC   C3A77585  20.517  35.420   6.979
 6155POPC   C4A77586  20.489  35.291   7.426
 6155POPC   C1B77587  20.202  35.744   6.179
 6155POPC   C2B77588  20.335  35.750   6.586
 6155POPC   C3B77589  20.185  35.828   6.957
 6155POPC   C4B77590  20.119  35.595   7.284
 6156POPC   NC377591   3.266   9.896   5.341
 6156POPC   PO477592   3.911   9.758   5.571
 6156POPC   GL177593   3.621   9.921   5.789
 6156POPC   GL277594   3.422   9.622   5.745
 6156POPC   C1A77595   3.737   9.891   6.211
 6156POPC   D2A77596   3.931   9.663   6.493
 6156POPC   C3A77597   3.706   9.850   6.857
 6156POPC   C4A77598   3.779   9.724   7.254
 6156POPC   C1B77599   3.229   9.859   6.083
 6156POPC   C2B77600   3.290   9.915   6.518
 6156POPC   C3B77601   3.183   9.991   6.939
 6156POPC   C4B77602   3.345  10.027   7.359
 6157POPC   NC377603  11.126  31.547   5.363
 6157POPC   PO477604  10.868  30.970   5.705
 6157POPC   GL177605  11.241  31.229   5.851
 6157POPC   GL277606  11.292  31.610   5.895
 6157POPC   C1A77607  11.328  31.200   6.240
 6157POPC   D2A77608  11.225  31.486   6.537
 6157POPC   C3A77609  11.074  31.286   6.900
 6157POPC   C4A77610  11.404  31.258   7.197
 6157POPC   C1B77611  11.106  31.915   6.245
 6157POPC   C2B77612  11.003  31.914   6.708
 6157POPC   C3B77613  11.263  31.732   7.021
 6157POPC   C4B77614  11.237  31.660   7.470
 6158POPC   NC377615  29.594  35.604   5.500
 6158POPC   PO477616  28.987  35.620   5.351
 6158POPC   GL177617  28.874  35.670   5.763
 6158POPC   GL277618  29.222  35.629   5.865
 6158POPC   C1A77619  28.825  35.527   6.186
 6158POPC   D2A77620  29.131  35.332   6.466
 6158POPC   C3A77621  29.071  35.559   6.839
 6158POPC   C4A77622  28.844  35.425   7.178
 6158POPC   C1B77623  29.569  35.530   6.176
 6158POPC   C2B77624  29.507  35.679   6.580
 6158POPC   C3B77625  29.561  35.488   6.987
 6158POPC   C4B77626  29.346  35.321   7.337
 6159POPC   NC377627   4.696  39.671   5.319
 6159POPC   PO477628   4.312  39.027   5.393
 6159POPC   GL177629   4.412  39.199   5.784
 6159POPC   GL277630   4.120  39.212   5.897
 6159POPC   C1A77631   4.510  39.439   6.185
 6159POPC   D2A77632   4.447  39.208   6.571
 6159POPC   C3A77633   4.579  39.382   6.932
 6159POPC   C4A77634   4.493  39.276   7.330
 6159POPC   C1B77635   3.889  38.997   6.182
 6159POPC   C2B77636   4.021  38.887   6.586
 6159POPC   C3B77637   3.918  38.983   6.981
 6159POPC   C4B77638   3.971  39.264   7.262
 6160POPC   NC377639  23.629  25.038   5.454
 6160POPC   PO477640  23.251  25.629   5.413
 6160POPC   GL177641  23.498  25.407   5.807
 6160POPC   GL277642  23.531  25.057   5.940
 6160POPC   C1A77643  23.672  25.474   6.251
 6160POPC   D2A77644  23.563  25.619   6.679
 6160POPC   C3A77645  23.851  25.557   7.039
 6160POPC   C4A77646  23.866  25.361   7.473
 6160POPC   C1B77647  23.731  24.964   6.322
 6160POPC   C2B77648  23.858  25.181   6.693
 6160POPC   C3B77649  23.850  25.019   7.102
 6160POPC   C4B77650  24.070  24.660   7.216
 6161POPC   NC377651  23.894   6.489   5.259
 6161POPC   PO477652  23.360   6.952   5.299
 6161POPC   GL177653  23.481   6.665   5.647
 6161POPC   GL277654  23.811   6.744   5.763
 6161POPC   C1A77655  23.472   6.533   6.113
 6161POPC   D2A77656  23.372   6.716   6.548
 6161POPC   C3A77657  23.471   6.457   6.918
 6161POPC   C4A77658  23.806   6.430   7.236
 6161POPC   C1B77659  23.997   6.592   6.167
 6161POPC   C2B77660  23.868   6.518   6.594
 6161POPC   C3B77661  23.891   6.819   6.948
 6161POPC   C4B77662  23.911   6.981   7.356
 6162POPC   NC377663  15.795  32.762   5.649
 6162POPC   PO477664  16.042  33.248   5.273
 6162POPC   GL177665  16.002  33.193   5.818
 6162POPC   GL277666  16.113  32.844   6.022
 6162POPC   C1A77667  15.769  33.062   6.264
 6162POPC   D2A77668  15.966  32.932   6.656
 6162POPC   C3A77669  16.089  33.189   6.984
 6162POPC   C4A77670  15.996  33.118   7.419
 6162POPC   C1B77671  16.271  33.176   6.294
 6162POPC   C2B77672  16.480  33.089   6.675
 6162POPC   C3B77673  16.401  32.698   6.891
 6162POPC   C4B77674  16.125  32.645   7.254
 6163POPC   NC377675  14.221  40.720   5.557
 6163POPC   PO477676  14.816  40.677   5.256
 6163POPC   GL177677  14.834  40.852   5.719
 6163POPC   GL277678  14.550  41.089   5.782
 6163POPC   C1A77679  14.760  40.773   6.191
 6163POPC   D2A77680  14.409  40.624   6.485
 6163POPC   C3A77681  14.408  40.785   6.900
 6163POPC   C4A77682  14.130  40.731   7.223
 6163POPC   C1B77683  14.274  41.015   6.165
 6163POPC   C2B77684  14.089  41.047   6.589
 6163POPC   C3B77685  14.138  41.206   7.029
 6163POPC   C4B77686  13.966  41.157   7.484
 6164POPC   NC377687  44.483  11.426   5.349
 6164POPC   PO477688  43.797  11.339   5.197
 6164POPC   GL177689  44.003  11.315   5.582
 6164POPC   GL277690  44.132  11.609   5.744
 6164POPC   C1A77691  43.808  11.230   5.990
 6164POPC   D2A77692  43.799  11.176   6.440
 6164POPC   C3A77693  43.647  10.883   6.745
 6164POPC   C4A77694  43.683  10.937   7.210
 6164POPC   C1B77695  44.229  11.465   6.215
 6164POPC   C2B77696  44.064  11.538   6.669
 6164POPC   C3B77697  43.914  11.486   7.110
 6164POPC   C4B77698  44.174  11.660   7.490
 6165POPC   NC377699  23.102  41.546   5.114
 6165POPC   PO477700  22.854  40.913   5.093
 6165POPC   GL177701  22.963  41.214   5.504
 6165POPC   GL277702  23.049  41.612   5.611
 6165POPC   C1A77703  22.999  41.284   5.973
 6165POPC   D2A77704  23.220  41.325   6.372
 6165POPC   C3A77705  22.985  41.280   6.784
 6165POPC   C4A77706  22.757  41.435   7.169
 6165POPC   C1B77707  22.926  41.800   6.050
 6165POPC   C2B77708  22.930  41.736   6.497
 6165POPC   C3B77709  22.978  41.825   6.919
 6165POPC   C4B77710  22.781  41.945   7.311
 6166POPC   NC377711  14.279  35.443   5.445
 6166POPC   PO477712  14.676  34.979   5.643
 6166POPC   GL177713  14.426  35.275   5.901
 6166POPC   GL277714  14.050  35.211   5.859
 6166POPC   C1A77715  14.464  35.653   6.181
 6166POPC   D2A77716  14.326  35.684   6.633
 6166POPC   C3A77717  14.649  35.697   6.983
 6166POPC   C4A77718  14.691  35.541   7.430
 6166POPC   C1B77719  14.037  35.397   6.251
 6166POPC   C2B77720  13.860  35.449   6.605
 6166POPC   C3B77721  14.047  35.356   6.961
 6166POPC   C4B77722  14.205  35.600   7.258
 6167POPC   NC377723  18.512   4.923   5.209
 6167POPC   PO477724  17.925   5.053   5.445
 6167POPC   GL177725  18.186   5.032   5.833
 6167POPC   GL277726  18.515   4.876   5.743
 6167POPC   C1A77727  18.152   5.310   6.236
 6167POPC   D2A77728  18.022   5.264   6.704
 6167POPC   C3A77729  18.347   5.338   7.071
 6167POPC   C4A77730  18.360   5.522   7.521
 6167POPC   C1B77731  18.642   5.115   6.127
 6167POPC   C2B77732  18.509   5.135   6.573
 6167POPC   C3B77733  18.422   4.839   6.913
 6167POPC   C4B77734  18.618   4.871   7.321
 6168POPC   NC377735   2.917  31.228   5.372
 6168POPC   PO477736   2.577  31.818   5.342
 6168POPC   GL177737   2.780  31.655   5.681
 6168POPC   GL277738   2.530  31.403   5.788
 6168POPC   C1A77739   2.993  31.468   6.062
 6168POPC   D2A77740   3.158  31.470   6.500
 6168POPC   C3A77741   2.870  31.431   6.826
 6168POPC   C4A77742   2.652  31.284   7.173
 6168POPC   C1B77743   2.553  31.734   6.130
 6168POPC   C2B77744   2.523  31.773   6.561
 6168POPC   C3B77745   2.323  31.555   6.894
 6168POPC   C4B77746   2.287  31.610   7.332
 6169POPC   NC377747  26.619  27.439   5.650
 6169POPC   PO477748  26.933  27.954   5.531
 6169POPC   GL177749  26.969  27.707   5.915
 6169POPC   GL277750  27.138  27.382   5.798
 6169POPC   C1A77751  26.765  27.577   6.323
 6169POPC   D2A77752  26.546  27.724   6.676
 6169POPC   C3A77753  26.815  27.997   6.883
 6169POPC   C4A77754  26.953  27.755   7.194
 6169POPC   C1B77755  26.972  27.156   6.158
 6169POPC   C2B77756  27.007  27.211   6.625
 6169POPC   C3B77757  26.778  27.275   7.031
 6169POPC   C4B77758  26.855  27.120   7.454
 6170POPC   NC377759  13.393  27.164   5.272
 6170POPC   PO477760  13.904  26.706   5.241
 6170POPC   GL177761  13.700  26.660   5.678
 6170POPC   GL277762  13.364  26.552   5.786
 6170POPC   C1A77763  13.635  26.814   6.137
 6170POPC   D2A77764  13.697  27.027   6.547
 6170POPC   C3A77765  13.604  26.789   6.921
 6170POPC   C4A77766  13.782  26.878   7.300
 6170POPC   C1B77767  13.382  26.371   6.215
 6170POPC   C2B77768  13.222  26.359   6.659
 6170POPC   C3B77769  13.231  26.379   7.115
 6170POPC   C4B77770  13.342  26.667   7.464
 6171POPC   NC377771  12.529  36.953   5.617
 6171POPC   PO477772  13.159  37.171   5.451
 6171POPC   GL177773  12.980  37.028   5.839
 6171POPC   GL277774  12.983  36.701   5.902
 6171POPC   C1A77775  12.734  37.104   6.237
 6171POPC   D2A77776  12.512  37.310   6.613
 6171POPC   C3A77777  12.693  37.221   7.039
 6171POPC   C4A77778  13.070  37.251   7.303
 6171POPC   C1B77779  12.661  36.515   6.162
 6171POPC   C2B77780  12.543  36.523   6.584
 6171POPC   C3B77781  12.831  36.478   6.920
 6171POPC   C4B77782  12.905  36.757   7.235
 6172POPC   NC377783  24.680  28.209   5.581
 6172POPC   PO477784  25.212  28.071   5.101
 6172POPC   GL177785  25.216  28.254   5.616
 6172POPC   GL277786  24.978  28.521   5.806
 6172POPC   C1A77787  25.339  28.414   6.112
 6172POPC   D2A77788  25.477  28.633   6.525
 6172POPC   C3A77789  25.456  28.432   6.971
 6172POPC   C4A77790  25.558  28.408   7.400
 6172POPC   C1B77791  24.830  28.525   6.246
 6172POPC   C2B77792  25.008  28.482   6.649
 6172POPC   C3B77793  24.956  28.371   7.053
 6172POPC   C4B77794  25.108  28.605   7.374
 6173POPC   NC377795  17.493  12.986   5.378
 6173POPC   PO477796  17.609  12.342   5.221
 6173POPC   GL177797  17.502  12.562   5.707
 6173POPC   GL277798  17.634  12.910   5.873
 6173POPC   C1A77799  17.516  12.561   6.214
 6173POPC   D2A77800  17.287  12.663   6.626
 6173POPC   C3A77801  17.507  12.515   7.035
 6173POPC   C4A77802  17.483  12.485   7.511
 6173POPC   C1B77803  17.469  13.056   6.294
 6173POPC   C2B77804  17.638  13.027   6.733
 6173POPC   C3B77805  17.543  12.990   7.187
 6173POPC   C4B77806  17.593  13.156   7.582
 6174POPC   NC377807  15.516  12.829   5.571
 6174POPC   PO477808  16.162  12.985   5.491
 6174POPC   GL177809  16.085  12.874   5.906
 6174POPC   GL277810  15.768  12.717   5.992
 6174POPC   C1A77811  15.949  13.081   6.288
 6174POPC   D2A77812  15.736  12.910   6.614
 6174POPC   C3A77813  16.069  12.787   6.851
 6174POPC   C4A77814  16.049  12.889   7.245
 6174POPC   C1B77815  15.726  12.447   6.355
 6174POPC   C2B77816  15.753  12.366   6.801
 6174POPC   C3B77817  15.651  12.477   7.220
 6174POPC   C4B77818  15.781  12.595   7.649
 6175POPC   NC377819   4.787  28.969   5.535
 6175POPC   PO477820   5.157  29.480   5.461
 6175POPC   GL177821   5.145  29.241   5.818
 6175POPC   GL277822   5.154  28.880   5.870
 6175POPC   C1A77823   5.355  29.173   6.221
 6175POPC   D2A77824   5.237  28.825   6.513
 6175POPC   C3A77825   5.126  28.965   6.919
 6175POPC   C4A77826   5.360  29.155   7.203
 6175POPC   C1B77827   4.861  29.018   6.195
 6175POPC   C2B77828   4.716  28.954   6.582
 6175POPC   C3B77829   4.621  28.913   6.998
 6175POPC   C4B77830   4.809  29.027   7.369
 6176POPC   NC377831  12.413  13.791   5.492
 6176POPC   PO477832  11.712  13.998   5.533
 6176POPC   GL177833  11.997  13.719   5.816
 6176POPC   GL277834  11.882  13.362   5.918
 6176POPC   C1A77835  12.157  13.657   6.283
 6176POPC   D2A77836  12.133  13.789   6.730
 6176POPC   C3A77837  11.875  13.761   7.108
 6176POPC   C4A77838  12.065  13.845   7.509
 6176POPC   C1B77839  11.863  13.271   6.409
 6176POPC   C2B77840  12.198  13.299   6.747
 6176POPC   C3B77841  12.271  13.443   7.225
 6176POPC   C4B77842  12.121  13.362   7.673
 6177POPC   NC377843   1.385  21.795   5.285
 6177POPC   PO477844   1.154  22.306   5.341
 6177POPC   GL177845   1.263  22.070   5.727
 6177POPC   GL277846   0.897  22.028   5.811
 6177POPC   C1A77847   1.458  21.936   6.147
 6177POPC   D2A77848   1.305  21.730   6.540
 6177POPC   C3A77849   1.347  21.900   6.947
 6177POPC   C4A77850   1.064  21.841   7.289
 6177POPC   C1B77851   1.040  22.228   6.192
 6177POPC   C2B77852   1.291  22.262   6.577
 6177POPC   C3B77853   1.193  22.383   7.019
 6177POPC   C4B77854   1.233  22.666   7.400
 6178POPC   NC377855   3.010   3.842   5.473
 6178POPC   PO477856   2.759   3.320   5.180
 6178POPC   GL177857   2.809   3.443   5.685
 6178POPC   GL277858   3.055   3.363   5.909
 6178POPC   C1A77859   2.703   3.647   6.155
 6178POPC   D2A77860   2.475   3.616   6.590
 6178POPC   C3A77861   2.624   3.765   7.017
 6178POPC   C4A77862   2.645   3.845   7.524
 6178POPC   C1B77863   3.177   3.521   6.322
 6178POPC   C2B77864   2.954   3.434   6.721
 6178POPC   C3B77865   2.619   3.261   6.979
 6178POPC   C4B77866   2.800   3.412   7.348
 6179POPC   NC377867  32.533  38.724   5.551
 6179POPC   PO477868  32.192  39.336   5.564
 6179POPC   GL177869  32.034  39.195   5.918
 6179POPC   GL277870  32.034  38.823   5.812
 6179POPC   C1A77871  32.217  39.371   6.302
 6179POPC   D2A77872  32.516  39.368   6.638
 6179POPC   C3A77873  32.289  39.442   6.999
 6179POPC   C4A77874  32.395  39.567   7.399
 6179POPC   C1B77875  32.288  38.856   6.205
 6179POPC   C2B77876  32.179  38.977   6.618
 6179POPC   C3B77877  32.236  38.932   7.034
 6179POPC   C4B77878  32.059  39.179   7.372
 6180POPC   NC377879  44.608  28.681   5.495
 6180POPC   PO477880  44.654  28.006   5.403
 6180POPC   GL177881  44.612  28.228   5.809
 6180POPC   GL277882  44.290  28.173   6.029
 6180POPC   C1A77883  44.707  28.469   6.153
 6180POPC   D2A77884  44.932  28.350   6.497
 6180POPC   C3A77885  44.763  28.452   6.885
 6180POPC   C4A77886  44.855  28.393   7.320
 6180POPC   C1B77887  44.155  28.458   6.331
 6180POPC   C2B77888  44.199  28.540   6.767
 6180POPC   C3B77889  44.347  28.384   7.148
 6180POPC   C4B77890  44.406  28.307   7.592
 6181POPC   NC377891  22.307  28.853   5.413
 6181POPC   PO477892  22.059  29.520   5.420
 6181POPC   GL177893  22.191  29.356   5.817
 6181POPC   GL277894  22.013  29.042   5.826
 6181POPC   C1A77895  22.368  29.197   6.207
 6181POPC   D2A77896  22.329  28.970   6.625
 6181POPC   C3A77897  22.244  29.174   7.031
 6181POPC   C4A77898  21.976  29.173   7.420
 6181POPC   C1B77899  21.944  28.904   6.255
 6181POPC   C2B77900  21.810  29.092   6.639
 6181POPC   C3B77901  21.836  28.880   7.018
 6181POPC   C4B77902  21.935  28.683   7.394
 6182POPC   NC377903  20.076  27.105   5.078
 6182POPC   PO477904  19.766  27.627   5.369
 6182POPC   GL177905  19.735  27.801   5.794
 6182POPC   GL277906  20.042  27.654   5.929
 6182POPC   C1A77907  19.649  27.767   6.244
 6182POPC   D2A77908  19.657  27.514   6.615
 6182POPC   C3A77909  19.827  27.722   6.978
 6182POPC   C4A77910  19.593  27.766   7.377
 6182POPC   C1B77911  19.925  27.289   6.211
 6182POPC   C2B77912  19.957  27.080   6.620
 6182POPC   C3B77913  19.769  27.199   7.019
 6182POPC   C4B77914  19.979  27.406   7.356
 6183POPC   NC377915   0.221   6.113   5.046
 6183POPC   PO477916   0.643   5.889   5.549
 6183POPC   GL177917   0.547   5.837   5.950
 6183POPC   GL277918   0.821   5.609   6.030
 6183POPC   C1A77919   0.307   5.944   6.312
 6183POPC   D2A77920   0.306   5.863   6.750
 6183POPC   C3A77921   0.159   6.212   6.966
 6183POPC   C4A77922   0.260   6.176   7.383
 6183POPC   C1B77923   0.605   5.538   6.390
 6183POPC   C2B77924   0.805   5.694   6.734
 6183POPC   C3B77925   0.778   5.670   7.146
 6183POPC   C4B77926   0.597   5.812   7.459
 6184POPC   NC377927  18.179   7.998   5.518
 6184POPC   PO477928  18.659   8.468   5.493
 6184POPC   GL177929  18.477   8.239   5.849
 6184POPC   GL277930  18.595   7.887   5.826
 6184POPC   C1A77931  18.167   8.183   6.190
 6184POPC   D2A77932  18.293   8.370   6.569
 6184POPC   C3A77933  18.089   8.289   6.952
 6184POPC   C4A77934  18.180   8.501   7.335
 6184POPC   C1B77935  18.662   7.997   6.265
 6184POPC   C2B77936  18.647   8.039   6.695
 6184POPC   C3B77937  18.624   8.255   7.079
 6184POPC   C4B77938  18.478   8.067   7.439
 6185POPC   NC377939  17.475  21.994   5.401
 6185POPC   PO477940  17.926  22.424   5.520
 6185POPC   GL177941  17.642  22.183   5.856
 6185POPC   GL277942  17.368  21.887   5.871
 6185POPC   C1A77943  17.473  22.337   6.264
 6185POPC   D2A77944  17.507  22.182   6.685
 6185POPC   C3A77945  17.397  22.388   7.077
 6185POPC   C4A77946  17.710  22.187   7.323
 6185POPC   C1B77947  17.479  21.834   6.276
 6185POPC   C2B77948  17.246  21.744   6.640
 6185POPC   C3B77949  17.383  21.851   7.066
 6185POPC   C4B77950  17.278  21.997   7.492
 6186POPC   NC377951  19.604  37.747   5.465
 6186POPC   PO477952  20.078  38.179   5.407
 6186POPC   GL177953  19.973  37.961   5.818
 6186POPC   GL277954  19.899  37.583   5.859
 6186POPC   C1A77955  19.893  37.940   6.297
 6186POPC   D2A77956  19.719  37.799   6.722
 6186POPC   C3A77957  19.950  37.547   7.039
 6186POPC   C4A77958  20.047  37.577   7.520
 6186POPC   C1B77959  19.646  37.444   6.230
 6186POPC   C2B77960  19.441  37.355   6.628
 6186POPC   C3B77961  19.443  37.431   7.046
 6186POPC   C4B77962  19.545  37.500   7.436
 6187POPC   NC377963  42.548  10.261   5.309
 6187POPC   PO477964  42.173  10.791   5.504
 6187POPC   GL177965  42.143  10.518   5.816
 6187POPC   GL277966  42.457  10.398   5.792
 6187POPC   C1A77967  42.195  10.585   6.250
 6187POPC   D2A77968  42.115  10.280   6.555
 6187POPC   C3A77969  42.237  10.353   6.982
 6187POPC   C4A77970  42.346  10.320   7.416
 6187POPC   C1B77971  42.651  10.340   6.181
 6187POPC   C2B77972  42.593  10.487   6.602
 6187POPC   C3B77973  42.748  10.447   7.017
 6187POPC   C4B77974  42.755  10.662   7.389
 6188POPC   NC377975  15.199  37.095   5.249
 6188POPC   PO477976  15.261  36.425   5.242
 6188POPC   GL177977  15.062  36.748   5.618
 6188POPC   GL277978  15.351  36.974   5.724
 6188POPC   C1A77979  15.017  36.784   6.143
 6188POPC   D2A77980  14.959  36.601   6.623
 6188POPC   C3A77981  14.978  36.897   7.011
 6188POPC   C4A77982  15.105  36.853   7.456
 6188POPC   C1B77983  15.489  37.006   6.144
 6188POPC   C2B77984  15.377  36.904   6.572
 6188POPC   C3B77985  15.453  36.739   6.969
 6188POPC   C4B77986  15.442  37.111   7.208
 6189POPC   NC377987  19.997  13.778   5.457
 6189POPC   PO477988  19.520  13.255   5.449
 6189POPC   GL177989  19.675  13.523   5.798
 6189POPC   GL277990  20.026  13.448   5.847
 6189POPC   C1A77991  19.524  13.560   6.269
 6189POPC   D2A77992  19.640  13.346   6.673
 6189POPC   C3A77993  19.846  13.504   7.022
 6189POPC   C4A77994  19.679  13.609   7.418
 6189POPC   C1B77995  19.989  13.701   6.200
 6189POPC   C2B77996  19.816  13.865   6.633
 6189POPC   C3B77997  19.852  14.006   7.096
 6189POPC   C4B77998  20.120  13.833   7.459
 6190POPC   NC377999  12.163   9.514   5.520
 6190POPC   PO478000  11.853  10.138   5.503
 6190POPC   GL178001  12.017  10.066   5.932
 6190POPC   GL278002  12.085   9.720   5.967
 6190POPC   C1A78003  12.127  10.041   6.390
 6190POPC   D2A78004  12.342  10.083   6.782
 6190POPC   C3A78005  12.017  10.022   7.114
 6190POPC   C4A78006  11.993   9.665   7.443
 6190POPC   C1B78007  12.005   9.545   6.367
 6190POPC   C2B78008  12.077   9.645   6.782
 6190POPC   C3B78009  12.375   9.619   7.101
 6190POPC   C4B78010  12.398   9.377   7.498
 6191POPC   NC378011  34.828  31.214   5.644
 6191POPC   PO478012  34.336  31.499   5.198
 6191POPC   GL178013  34.296  31.575   5.690
 6191POPC   GL278014  34.618  31.729   5.795
 6191POPC   C1A78015  34.322  31.493   6.156
 6191POPC   D2A78016  34.175  31.465   6.600
 6191POPC   C3A78017  34.488  31.493   6.906
 6191POPC   C4A78018  34.390  31.690   7.279
 6191POPC   C1B78019  34.852  31.633   6.185
 6191POPC   C2B78020  34.956  31.420   6.579
 6191POPC   C3B78021  35.000  31.580   6.992
 6191POPC   C4B78022  34.801  31.378   7.332
 6192POPC   NC378023  29.267  14.788   5.426
 6192POPC   PO478024  29.077  14.104   5.388
 6192POPC   GL178025  29.161  14.257   5.745
 6192POPC   GL278026  28.965  14.531   5.767
 6192POPC   C1A78027  29.344  14.387   6.102
 6192POPC   D2A78028  29.283  14.575   6.495
 6192POPC   C3A78029  29.455  14.308   6.817
 6192POPC   C4A78030  29.381  14.218   7.249
 6192POPC   C1B78031  28.870  14.463   6.190
 6192POPC   C2B78032  28.917  14.218   6.592
 6192POPC   C3B78033  28.971  14.371   7.002
 6192POPC   C4B78034  29.205  14.706   7.107
 6193POPC   NC378035  28.968  16.464   5.143
 6193POPC   PO478036  29.579  16.809   5.261
 6193POPC   GL178037  29.335  16.681   5.647
 6193POPC   GL278038  29.003  16.547   5.645
 6193POPC   C1A78039  29.299  16.738   6.104
 6193POPC   D2A78040  29.468  16.669   6.514
 6193POPC   C3A78041  29.232  16.577   6.850
 6193POPC   C4A78042  29.310  16.658   7.287
 6193POPC   C1B78043  28.885  16.453   6.042
 6193POPC   C2B78044  28.922  16.510   6.440
 6193POPC   C3B78045  28.701  16.676   6.763
 6193POPC   C4B78046  28.827  16.620   7.156
 6194POPC   NC378047  30.185  14.106   5.613
 6194POPC   PO478048  29.780  14.634   5.421
 6194POPC   GL178049  29.758  14.508   5.871
 6194POPC   GL278050  30.056  14.444   5.962
 6194POPC   C1A78051  29.758  14.432   6.387
 6194POPC   D2A78052  29.665  14.815   6.723
 6194POPC   C3A78053  29.713  14.685   7.136
 6194POPC   C4A78054  29.883  14.297   7.135
 6194POPC   C1B78055  30.259  14.255   6.309
 6194POPC   C2B78056  30.114  14.065   6.696
 6194POPC   C3B78057  30.351  14.131   7.047
 6194POPC   C4B78058  30.364  14.533   7.200
 6195POPC   NC378059  21.631  23.183   5.596
 6195POPC   PO478060  21.171  22.676   5.413
 6195POPC   GL178061  21.216  22.909   5.795
 6195POPC   GL278062  21.199  23.284   5.843
 6195POPC   C1A78063  21.372  22.766   6.199
 6195POPC   D2A78064  21.154  22.715   6.591
 6195POPC   C3A78065  21.318  22.814   7.006
 6195POPC   C4A78066  21.572  22.619   7.270
 6195POPC   C1B78067  21.430  23.273   6.217
 6195POPC   C2B78068  21.507  23.094   6.599
 6195POPC   C3B78069  21.642  23.288   6.960
 6195POPC   C4B78070  21.734  23.141   7.336
 6196POPC   NC378071   0.155   8.694   5.424
 6196POPC   PO478072  44.502   9.022   5.408
 6196POPC   GL178073  44.633   8.963   5.848
 6196POPC   GL278074  44.916   8.718   5.889
 6196POPC   C1A78075  44.514   8.805   6.276
 6196POPC   D2A78076  44.504   8.767   6.759
 6196POPC   C3A78077  44.269   9.021   7.070
 6196POPC   C4A78078  44.279   8.995   7.562
 6196POPC   C1B78079   0.023   9.049   6.200
 6196POPC   C2B78080   0.146   9.009   6.647
 6196POPC   C3B78081  44.978   8.727   6.966
 6196POPC   C4B78082  44.677   8.809   7.272
 6197POPC   NC378083   4.959  41.788   5.495
 6197POPC   PO478084   5.374  41.324   5.420
 6197POPC   GL178085   5.150  41.334   5.797
 6197POPC   GL278086   5.222  41.674   5.912
 6197POPC   C1A78087   5.208  41.293   6.258
 6197POPC   D2A78088   5.045  41.207   6.659
 6197POPC   C3A78089   5.324  41.229   6.983
 6197POPC   C4A78090   5.090  41.485   7.203
 6197POPC   C1B78091   5.210  41.817   6.321
 6197POPC   C2B78092   5.041  41.727   6.718
 6197POPC   C3B78093   4.980  41.970   7.063
 6197POPC   C4B78094   5.300  42.076   7.313
 6198POPC   NC378095  12.206  43.777   5.429
 6198POPC   PO478096  12.161  44.362   5.640
 6198POPC   GL178097  11.969  44.034   5.839
 6198POPC   GL278098  12.311  44.008   5.981
 6198POPC   C1A78099  11.945  43.816   6.240
 6198POPC   D2A78100  12.266  43.847   6.539
 6198POPC   C3A78101  12.186  43.982   6.912
 6198POPC   C4A78102  12.172  43.838   7.300
 6198POPC   C1B78103  12.151  44.293   6.304
 6198POPC   C2B78104  12.152  44.565   6.666
 6198POPC   C3B78105  12.005  44.410   7.085
 6198POPC   C4B78106  11.895  44.214   7.485
 6199POPC   NC378107  44.437   2.843   4.992
 6199POPC   PO478108  44.906   2.717   5.357
 6199POPC   GL178109  44.752   2.844   5.750
 6199POPC   GL278110  44.807   2.519   5.902
 6199POPC   C1A78111  44.818   2.954   6.186
 6199POPC   D2A78112  44.851   2.604   6.474
 6199POPC   C3A78113  44.802   2.719   6.910
 6199POPC   C4A78114  44.895   2.925   7.279
 6199POPC   C1B78115  44.422   2.360   6.116
 6199POPC   C2B78116  44.393   2.286   6.540
 6199POPC   C3B78117  44.736   2.225   6.821
 6199POPC   C4B78118  44.730   2.286   7.247
 6200POPC   NC378119   9.408   9.606   5.329
 6200POPC   PO478120  10.000   9.910   5.341
 6200POPC   GL178121   9.988   9.813   5.829
 6200POPC   GL278122   9.626   9.725   5.863
 6200POPC   C1A78123  10.035   9.869   6.333
 6200POPC   D2A78124  10.158  10.021   6.792
 6200POPC   C3A78125   9.898   9.810   7.147
 6200POPC   C4A78126   9.578   9.983   7.419
 6200POPC   C1B78127   9.503   9.821   6.319
 6200POPC   C2B78128   9.554   9.742   6.768
 6200POPC   C3B78129   9.431   9.553   7.153
 6200POPC   C4B78130   9.375   9.256   7.482
 6201POPC   NC378131  37.322  34.567   5.405
 6201POPC   PO478132  37.858  35.039   5.372
 6201POPC   GL178133  37.761  34.916   5.801
 6201POPC   GL278134  37.648  34.586   5.825
 6201POPC   C1A78135  37.490  34.903   6.177
 6201POPC   D2A78136  37.584  34.705   6.551
 6201POPC   C3A78137  37.684  34.782   6.993
 6201POPC   C4A78138  37.860  34.785   7.396
 6201POPC   C1B78139  37.689  34.311   6.199
 6201POPC   C2B78140  37.446  34.215   6.569
 6201POPC   C3B78141  37.661  34.280   6.955
 6201POPC   C4B78142  37.545  34.371   7.359
 6202POPC   NC378143   4.306  31.130   5.382
 6202POPC   PO478144   4.182  31.757   5.175
 6202POPC   GL178145   4.324  31.567   5.643
 6202POPC   GL278146   4.620  31.708   5.823
 6202POPC   C1A78147   4.331  31.397   6.114
 6202POPC   D2A78148   4.227  31.518   6.574
 6202POPC   C3A78149   4.256  31.232   6.965
 6202POPC   C4A78150   4.062  31.301   7.380
 6202POPC   C1B78151   4.575  31.879   6.255
 6202POPC   C2B78152   4.495  31.991   6.681
 6202POPC   C3B78153   4.367  31.726   7.032
 6202POPC   C4B78154   4.538  31.491   7.410
 6203POPC   NC378155  19.876  27.210   5.573
 6203POPC   PO478156  19.956  26.670   5.149
 6203POPC   GL178157  19.897  26.719   5.625
 6203POPC   GL278158  20.198  26.905   5.783
 6203POPC   C1A78159  19.753  26.775   6.101
 6203POPC   D2A78160  19.667  26.566   6.521
 6203POPC   C3A78161  19.801  26.697   6.916
 6203POPC   C4A78162  19.760  26.690   7.368
 6203POPC   C1B78163  20.238  26.875   6.230
 6203POPC   C2B78164  20.197  26.549   6.542
 6203POPC   C3B78165  20.271  26.557   6.970
 6203POPC   C4B78166  20.179  26.950   7.190
 6204POPC   NC378167  24.006  33.616   5.476
 6204POPC   PO478168  23.526  34.093   5.322
 6204POPC   GL178169  23.382  33.915   5.691
 6204POPC   GL278170  23.470  33.582   5.811
 6204POPC   C1A78171  23.445  34.015   6.127
 6204POPC   D2A78172  23.392  33.673   6.433
 6204POPC   C3A78173  23.493  33.707   6.887
 6204POPC   C4A78174  23.505  33.941   7.272
 6204POPC   C1B78175  23.824  33.655   6.116
 6204POPC   C2B78176  24.163  33.752   6.439
 6204POPC   C3B78177  24.176  33.634   6.899
 6204POPC   C4B78178  23.954  33.695   7.338
 6205POPC   NC378179  31.729  42.665   5.467
 6205POPC   PO478180  31.734  42.024   5.503
 6205POPC   GL178181  31.525  42.145   5.844
 6205POPC   GL278182  31.380  42.477   5.787
 6205POPC   C1A78183  31.627  42.255   6.255
 6205POPC   D2A78184  31.826  42.193   6.661
 6205POPC   C3A78185  31.773  42.572   6.881
 6205POPC   C4A78186  31.637  42.514   7.271
 6205POPC   C1B78187  31.274  42.653   6.167
 6205POPC   C2B78188  31.266  42.470   6.558
 6205POPC   C3B78189  31.320  42.300   6.926
 6205POPC   C4B78190  31.136  42.497   7.251
 6206POPC   NC378191   6.803   4.834   5.372
 6206POPC   PO478192   6.250   4.860   5.692
 6206POPC   GL178193   6.659   5.003   5.868
 6206POPC   GL278194   6.967   4.782   5.874
 6206POPC   C1A78195   6.651   5.251   6.253
 6206POPC   D2A78196   6.521   5.080   6.645
 6206POPC   C3A78197   6.700   5.304   6.966
 6206POPC   C4A78198   6.859   5.373   7.377
 6206POPC   C1B78199   6.853   4.788   6.335
 6206POPC   C2B78200   6.977   4.878   6.759
 6206POPC   C3B78201   6.791   4.861   7.168
 6206POPC   C4B78202   6.423   4.696   7.410
 6207POPC   NC378203  17.808  41.115   5.376
 6207POPC   PO478204  17.627  40.506   5.627
 6207POPC   GL178205  17.429  40.728   5.926
 6207POPC   GL278206  17.278  40.477   6.092
 6207POPC   C1A78207  17.453  40.934   6.307
 6207POPC   D2A78208  17.290  40.914   6.702
 6207POPC   C3A78209  17.498  41.084   7.068
 6207POPC   C4A78210  17.339  40.906   7.484
 6207POPC   C1B78211  17.635  40.459   6.341
 6207POPC   C2B78212  17.476  40.369   6.703
 6207POPC   C3B78213  17.448  40.590   7.075
 6207POPC   C4B78214  17.842  40.795   7.281
 6208POPC   NC378215   8.454  38.429   5.446
 6208POPC   PO478216   7.894  38.742   5.410
 6208POPC   GL178217   8.117  38.645   5.865
 6208POPC   GL278218   8.427  38.438   5.960
 6208POPC   C1A78219   8.230  38.669   6.362
 6208POPC   D2A78220   8.308  38.559   6.799
 6208POPC   C3A78221   8.206  38.781   7.183
 6208POPC   C4A78222   8.027  38.581   7.578
 6208POPC   C1B78223   8.400  38.177   6.369
 6208POPC   C2B78224   8.397  38.063   6.830
 6208POPC   C3B78225   8.307  38.263   7.259
 6208POPC   C4B78226   8.305  38.177   7.722
 6209POPC   NC378227  38.723   6.118   5.330
 6209POPC   PO478228  39.368   5.927   5.303
 6209POPC   GL178229  39.115   5.974   5.682
 6209POPC   GL278230  39.404   5.839   5.823
 6209POPC   C1A78231  39.063   5.989   6.158
 6209POPC   D2A78232  38.936   6.191   6.556
 6209POPC   C3A78233  38.761   5.917   6.890
 6209POPC   C4A78234  38.895   5.944   7.323
 6209POPC   C1B78235  39.470   5.665   6.249
 6209POPC   C2B78236  39.242   5.781   6.642
 6209POPC   C3B78237  39.251   6.095   6.996
 6209POPC   C4B78238  39.390   5.871   7.395
 6210POPC   NC378239  28.116  26.567   5.552
 6210POPC   PO478240  28.477  27.133   5.587
 6210POPC   GL178241  28.488  26.748   5.864
 6210POPC   GL278242  28.235  26.521   6.046
 6210POPC   C1A78243  28.682  26.616   6.263
 6210POPC   D2A78244  28.457  26.536   6.624
 6210POPC   C3A78245  28.442  26.840   6.921
 6210POPC   C4A78246  28.480  26.814   7.343
 6210POPC   C1B78247  28.270  26.911   6.293
 6210POPC   C2B78248  28.063  27.050   6.614
 6210POPC   C3B78249  27.950  26.675   6.804
 6210POPC   C4B78250  28.005  26.711   7.221
 6211POPC   NC378251   4.521  16.941   5.153
 6211POPC   PO478252   4.176  16.465   5.498
 6211POPC   GL178253   4.110  16.759   5.833
 6211POPC   GL278254   4.381  17.004   5.809
 6211POPC   C1A78255   4.149  16.732   6.283
 6211POPC   D2A78256   4.330  16.849   6.681
 6211POPC   C3A78257   4.242  16.738   7.118
 6211POPC   C4A78258   4.131  17.027   7.518
 6211POPC   C1B78259   4.462  17.152   6.237
 6211POPC   C2B78260   4.713  17.173   6.616
 6211POPC   C3B78261   4.546  17.168   7.028
 6211POPC   C4B78262   4.601  16.948   7.395
 6212POPC   NC378263  22.258  27.209   5.310
 6212POPC   PO478264  21.798  27.757   5.337
 6212POPC   GL178265  22.117  27.765   5.681
 6212POPC   GL278266  22.261  27.430   5.780
 6212POPC   C1A78267  22.124  27.832   6.146
 6212POPC   D2A78268  22.243  27.686   6.586
 6212POPC   C3A78269  22.098  27.842   7.009
 6212POPC   C4A78270  22.272  27.743   7.436
 6212POPC   C1B78271  22.427  27.231   6.154
 6212POPC   C2B78272  22.252  27.177   6.577
 6212POPC   C3B78273  22.277  27.347   7.004
 6212POPC   C4B78274  22.175  27.244   7.439
 6213POPC   NC378275  42.413  38.899   5.443
 6213POPC   PO478276  42.201  39.434   5.344
 6213POPC   GL178277  42.150  39.210   5.758
 6213POPC   GL278278  42.283  38.892   5.925
 6213POPC   C1A78279  42.154  39.343   6.167
 6213POPC   D2A78280  42.334  39.250   6.542
 6213POPC   C3A78281  42.128  39.426   6.887
 6213POPC   C4A78282  42.342  39.434   7.262
 6213POPC   C1B78283  42.035  38.841   6.303
 6213POPC   C2B78284  41.933  38.960   6.729
 6213POPC   C3B78285  42.177  38.955   7.122
 6213POPC   C4B78286  42.111  38.663   7.492
 6214POPC   NC378287   7.287  34.117   5.358
 6214POPC   PO478288   7.560  33.505   5.402
 6214POPC   GL178289   7.479  33.635   5.843
 6214POPC   GL278290   7.228  33.879   5.811
 6214POPC   C1A78291   7.661  33.648   6.301
 6214POPC   D2A78292   7.953  33.614   6.664
 6214POPC   C3A78293   7.659  33.555   6.980
 6214POPC   C4A78294   7.410  33.835   7.270
 6214POPC   C1B78295   7.246  33.936   6.281
 6214POPC   C2B78296   7.324  33.991   6.760
 6214POPC   C3B78297   7.162  34.271   7.117
 6214POPC   C4B78298   6.970  34.246   7.527
 6215POPC   NC378299  39.633  30.528   5.400
 6215POPC   PO478300  40.322  30.547   5.465
 6215POPC   GL178301  39.970  30.570   5.815
 6215POPC   GL278302  39.690  30.840   5.820
 6215POPC   C1A78303  39.826  30.574   6.273
 6215POPC   D2A78304  39.627  30.477   6.682
 6215POPC   C3A78305  39.874  30.329   7.061
 6215POPC   C4A78306  40.090  30.456   7.478
 6215POPC   C1B78307  40.012  31.032   6.107
 6215POPC   C2B78308  40.156  30.954   6.559
 6215POPC   C3B78309  40.125  30.813   7.017
 6215POPC   C4B78310  40.193  30.983   7.430
 6216POPC   NC378311  41.153  31.745   5.421
 6216POPC   PO478312  40.582  32.240   5.338
 6216POPC   GL178313  40.524  32.278   5.802
 6216POPC   GL278314  40.798  32.468   5.963
 6216POPC   C1A78315  40.453  32.232   6.247
 6216POPC   D2A78316  40.653  32.434   6.594
 6216POPC   C3A78317  40.574  32.231   6.990
 6216POPC   C4A78318  40.483  32.123   7.404
 6216POPC   C1B78319  41.082  32.551   6.276
 6216POPC   C2B78320  41.098  32.683   6.683
 6216POPC   C3B78321  41.100  32.360   6.969
 6216POPC   C4B78322  41.231  32.452   7.353
 6217POPC   NC378323  18.314   3.987   5.497
 6217POPC   PO478324  18.099   3.317   5.401
 6217POPC   GL178325  18.227   3.485   5.828
 6217POPC   GL278326  18.147   3.830   5.955
 6217POPC   C1A78327  18.533   3.521   6.170
 6217POPC   D2A78328  18.548   3.815   6.506
 6217POPC   C3A78329  18.439   3.599   6.868
 6217POPC   C4A78330  18.409   3.222   7.103
 6217POPC   C1B78331  18.060   3.614   6.362
 6217POPC   C2B78332  18.027   3.326   6.717
 6217POPC   C3B78333  17.935   3.436   7.083
 6217POPC   C4B78334  18.105   3.839   7.197
 6218POPC   NC378335   3.656  43.469   5.415
 6218POPC   PO478336   3.194  42.921   5.346
 6218POPC   GL178337   3.308  42.929   5.818
 6218POPC   GL278338   3.649  43.109   5.845
 6218POPC   C1A78339   3.330  43.112   6.258
 6218POPC   D2A78340   3.556  43.140   6.673
 6218POPC   C3A78341   3.316  43.252   7.066
 6218POPC   C4A78342   3.521  43.031   7.366
 6218POPC   C1B78343   3.824  43.309   6.245
 6218POPC   C2B78344   3.930  43.532   6.639
 6218POPC   C3B78345   3.793  43.415   7.057
 6218POPC   C4B78346   3.821  43.522   7.485
 6219POPC   NC378347   5.976  41.280   5.360
 6219POPC   PO478348   6.169  41.918   5.540
 6219POPC   GL178349   5.922  41.591   5.782
 6219POPC   GL278350   6.074  41.277   5.872
 6219POPC   C1A78351   5.683  41.503   6.177
 6219POPC   D2A78352   5.680  41.780   6.555
 6219POPC   C3A78353   5.511  41.729   6.988
 6219POPC   C4A78354   5.761  41.892   7.343
 6219POPC   C1B78355   6.201  41.411   6.262
 6219POPC   C2B78356   5.978  41.345   6.625
 6219POPC   C3B78357   5.986  41.562   6.974
 6219POPC   C4B78358   5.931  41.396   7.338
 6220POPC   NC378359  34.860  39.664   5.528
 6220POPC   PO478360  34.522  39.051   5.304
 6220POPC   GL178361  34.450  39.157   5.727
 6220POPC   GL278362  34.805  39.189   5.836
 6220POPC   C1A78363  34.433  39.280   6.177
 6220POPC   D2A78364  34.687  39.263   6.575
 6220POPC   C3A78365  34.618  38.936   6.864
 6220POPC   C4A78366  34.273  38.964   7.157
 6220POPC   C1B78367  34.900  39.516   6.176
 6220POPC   C2B78368  35.052  39.621   6.617
 6220POPC   C3B78369  34.833  39.589   7.008
 6220POPC   C4B78370  34.728  39.241   7.267
 6221POPC   NC378371  43.985  19.898   5.036
 6221POPC   PO478372  43.629  19.570   5.504
 6221POPC   GL178373  43.809  19.722   5.877
 6221POPC   GL278374  44.067  19.955   5.805
 6221POPC   C1A78375  43.951  19.593   6.259
 6221POPC   D2A78376  43.945  19.296   6.579
 6221POPC   C3A78377  44.061  19.521   6.926
 6221POPC   C4A78378  44.102  19.765   7.283
 6221POPC   C1B78379  43.894  20.124   6.188
 6221POPC   C2B78380  43.995  20.097   6.606
 6221POPC   C3B78381  43.949  20.179   7.015
 6221POPC   C4B78382  43.696  20.469   7.186
 6222POPC   NC378383   2.378  38.582   5.240
 6222POPC   PO478384   1.887  38.280   5.619
 6222POPC   GL178385   2.085  38.622   5.765
 6222POPC   GL278386   1.775  38.782   5.852
 6222POPC   C1A78387   2.230  38.612   6.187
 6222POPC   D2A78388   2.120  38.313   6.562
 6222POPC   C3A78389   2.125  38.479   6.998
 6222POPC   C4A78390   2.196  38.704   7.393
 6222POPC   C1B78391   1.738  38.643   6.321
 6222POPC   C2B78392   1.727  38.747   6.771
 6222POPC   C3B78393   1.683  38.689   7.192
 6222POPC   C4B78394   1.567  38.266   7.322
 6223POPC   NC378395  27.962   7.167   5.047
 6223POPC   PO478396  27.555   7.490   5.433
 6223POPC   GL178397  27.474   7.555   5.834
 6223POPC   GL278398  27.377   7.888   5.808
 6223POPC   C1A78399  27.629   7.489   6.270
 6223POPC   D2A78400  27.761   7.581   6.694
 6223POPC   C3A78401  28.016   7.280   6.918
 6223POPC   C4A78402  27.946   7.138   7.348
 6223POPC   C1B78403  27.218   7.792   6.182
 6223POPC   C2B78404  27.207   7.613   6.551
 6223POPC   C3B78405  27.327   7.743   6.931
 6223POPC   C4B78406  27.293   7.735   7.328
 6224POPC   NC378407   0.435   4.343   5.385
 6224POPC   PO478408   0.810   3.925   5.685
 6224POPC   GL178409   0.403   4.214   5.874
 6224POPC   GL278410   0.318   4.564   5.873
 6224POPC   C1A78411   0.141   4.323   6.280
 6224POPC   D2A78412   0.299   4.448   6.694
 6224POPC   C3A78413   0.284   4.207   7.032
 6224POPC   C4A78414   0.061   3.866   7.175
 6224POPC   C1B78415   0.498   4.700   6.295
 6224POPC   C2B78416   0.781   4.590   6.650
 6224POPC   C3B78417   0.633   4.667   7.049
 6224POPC   C4B78418   0.496   4.473   7.417
 6225POPC   NC378419  28.320  15.142   5.539
 6225POPC   PO478420  28.455  14.715   5.038
 6225POPC   GL178421  28.398  14.653   5.610
 6225POPC   GL278422  28.075  14.727   5.805
 6225POPC   C1A78423  28.524  14.811   6.063
 6225POPC   D2A78424  28.474  15.026   6.504
 6225POPC   C3A78425  28.493  15.390   6.823
 6225POPC   C4A78426  28.586  15.388   7.289
 6225POPC   C1B78427  28.058  14.780   6.289
 6225POPC   C2B78428  28.099  14.772   6.750
 6225POPC   C3B78429  28.222  15.024   7.086
 6225POPC   C4B78430  27.959  15.118   7.423
 6226POPC   NC378431  29.507  13.928   5.318
 6226POPC   PO478432  30.083  13.671   5.480
 6226POPC   GL178433  29.744  13.668   5.787
 6226POPC   GL278434  29.636  14.017   5.810
 6226POPC   C1A78435  29.891  13.570   6.215
 6226POPC   D2A78436  29.973  13.346   6.590
 6226POPC   C3A78437  30.031  13.547   6.971
 6226POPC   C4A78438  29.949  13.425   7.401
 6226POPC   C1B78439  29.543  13.940   6.239
 6226POPC   C2B78440  29.659  13.776   6.634
 6226POPC   C3B78441  29.626  13.832   7.046
 6226POPC   C4B78442  29.774  13.908   7.441
 6227POPC   NC378443  37.337  25.708   5.427
 6227POPC   PO478444  37.712  26.223   5.468
 6227POPC   GL178445  37.701  26.179   5.879
 6227POPC   GL278446  37.740  26.522   5.898
 6227POPC   C1A78447  37.463  26.034   6.258
 6227POPC   D2A78448  37.470  25.795   6.668
 6227POPC   C3A78449  37.525  25.949   7.101
 6227POPC   C4A78450  37.872  25.866   7.359
 6227POPC   C1B78451  37.814  26.402   6.318
 6227POPC   C2B78452  37.679  26.262   6.693
 6227POPC   C3B78453  37.830  26.351   7.086
 6227POPC   C4B78454  37.883  26.465   7.491
 6228POPC   NC378455  11.790  32.974   5.495
 6228POPC   PO478456  12.344  33.265   5.342
 6228POPC   GL178457  12.151  33.270   5.771
 6228POPC   GL278458  12.123  32.891   5.870
 6228POPC   C1A78459  12.016  33.261   6.228
 6228POPC   D2A78460  12.228  33.115   6.621
 6228POPC   C3A78461  12.101  32.932   7.024
 6228POPC   C4A78462  11.948  33.127   7.390
 6228POPC   C1B78463  12.317  32.772   6.253
 6228POPC   C2B78464  12.307  32.584   6.655
 6228POPC   C3B78465  12.455  32.517   7.063
 6228POPC   C4B78466  12.318  32.683   7.447
 6229POPC   NC378467  38.727   7.539   4.993
 6229POPC   PO478468  38.371   7.397   5.543
 6229POPC   GL178469  38.277   7.412   5.960
 6229POPC   GL278470  38.425   7.701   5.996
 6229POPC   C1A78471  38.356   7.395   6.392
 6229POPC   D2A78472  38.593   7.502   6.725
 6229POPC   C3A78473  38.391   7.256   7.013
 6229POPC   C4A78474  38.606   7.133   7.362
 6229POPC   C1B78475  38.515   7.916   6.360
 6229POPC   C2B78476  38.852   7.960   6.625
 6229POPC   C3B78477  38.608   7.974   6.965
 6229POPC   C4B78478  38.572   7.680   7.219
 6230POPC   NC378479  33.484  35.815   5.474
 6230POPC   PO478480  34.175  35.894   5.465
 6230POPC   GL178481  33.997  35.980   5.858
 6230POPC   GL278482  33.758  36.233   5.784
 6230POPC   C1A78483  34.074  35.997   6.286
 6230POPC   D2A78484  33.805  35.960   6.609
 6230POPC   C3A78485  33.820  36.286   6.894
 6230POPC   C4A78486  33.902  36.226   7.291
 6230POPC   C1B78487  33.592  36.199   6.208
 6230POPC   C2B78488  33.406  36.355   6.599
 6230POPC   C3B78489  33.419  36.629   6.958
 6230POPC   C4B78490  33.517  36.522   7.399
 6231POPC   NC378491   0.903  28.148   5.641
 6231POPC   PO478492   0.481  28.530   5.199
 6231POPC   GL178493   0.456  28.498   5.680
 6231POPC   GL278494   0.748  28.604   5.827
 6231POPC   C1A78495   0.447  28.373   6.167
 6231POPC   D2A78496   0.392  28.552   6.607
 6231POPC   C3A78497   0.241  28.245   6.923
 6231POPC   C4A78498   0.402  28.295   7.326
 6231POPC   C1B78499   0.696  28.829   6.249
 6231POPC   C2B78500   0.826  28.839   6.693
 6231POPC   C3B78501   0.635  28.680   7.092
 6231POPC   C4B78502   0.654  28.698   7.577
 6232POPC   NC378503  24.327  18.626   5.454
 6232POPC   PO478504  24.599  19.199   5.244
 6232POPC   GL178505  24.602  19.014   5.728
 6232POPC   GL278506  24.397  18.738   5.938
 6232POPC   C1A78507  24.590  19.101   6.210
 6232POPC   D2A78508  24.385  19.123   6.623
 6232POPC   C3A78509  24.687  19.225   6.911
 6232POPC   C4A78510  24.792  18.983   7.226
 6232POPC   C1B78511  24.075  18.928   6.233
 6232POPC   C2B78512  23.883  18.977   6.636
 6232POPC   C3B78513  24.123  18.683   6.896
 6232POPC   C4B78514  24.310  18.784   7.283
 6233POPC   NC378515  19.596  38.402   5.501
 6233POPC   PO478516  20.158  38.721   5.324
 6233POPC   GL178517  19.938  38.690   5.823
 6233POPC   GL278518  19.714  38.381   5.976
 6233POPC   C1A78519  19.886  38.662   6.338
 6233POPC   D2A78520  19.598  38.367   6.520
 6233POPC   C3A78521  19.677  38.284   6.939
 6233POPC   C4A78522  19.968  38.441   7.239
 6233POPC   C1B78523  19.479  38.780   6.085
 6233POPC   C2B78524  19.433  38.887   6.542
 6233POPC   C3B78525  19.603  38.795   6.966
 6233POPC   C4B78526  19.397  38.832   7.398
 6234POPC   NC378527  10.125  43.881   5.672
 6234POPC   PO478528  10.703  43.852   5.311
 6234POPC   GL178529  10.654  43.779   5.742
 6234POPC   GL278530  10.572  44.086   5.940
 6234POPC   C1A78531  10.910  43.723   6.118
 6234POPC   D2A78532  10.773  43.998   6.427
 6234POPC   C3A78533  10.795  43.926   6.843
 6234POPC   C4A78534  10.738  43.944   7.277
 6234POPC   C1B78535  10.277  43.947   6.296
 6234POPC   C2B78536  10.228  43.794   6.719
 6234POPC   C3B78537  10.273  43.858   7.152
 6234POPC   C4B78538  10.195  44.027   7.575
 6235POPC   NC378539   4.140   5.969   5.505
 6235POPC   PO478540   4.635   6.454   5.543
 6235POPC   GL178541   4.534   6.040   5.809
 6235POPC   GL278542   4.173   6.029   5.992
 6235POPC   C1A78543   4.472   5.699   6.169
 6235POPC   D2A78544   4.229   5.883   6.505
 6235POPC   C3A78545   4.368   5.830   6.928
 6235POPC   C4A78546   4.328   5.969   7.356
 6235POPC   C1B78547   3.825   5.806   6.205
 6235POPC   C2B78548   3.775   5.674   6.633
 6235POPC   C3B78549   3.875   5.796   7.050
 6235POPC   C4B78550   3.958   5.626   7.448
 6236POPC   NC378551  16.920  24.950   5.452
 6236POPC   PO478552  16.824  24.341   5.612
 6236POPC   GL178553  16.794  24.675   5.908
 6236POPC   GL278554  17.121  24.755   5.904
 6236POPC   C1A78555  16.808  24.664   6.378
 6236POPC   D2A78556  16.870  24.350   6.686
 6236POPC   C3A78557  16.754  24.410   7.094
 6236POPC   C4A78558  16.462  24.741   7.196
 6236POPC   C1B78559  17.162  24.348   6.172
 6236POPC   C2B78560  17.280  24.109   6.567
 6236POPC   C3B78561  17.282  24.263   7.005
 6236POPC   C4B78562  17.125  24.202   7.428
 6237POPC   NC378563  36.961  30.626   5.115
 6237POPC   PO478564  37.324  30.244   5.594
 6237POPC   GL178565  37.256  30.279   6.014
 6237POPC   GL278566  36.929  30.470   6.083
 6237POPC   C1A78567  37.331  30.534   6.378
 6237POPC   D2A78568  36.956  30.547   6.624
 6237POPC   C3A78569  37.016  30.788   6.967
 6237POPC   C4A78570  37.318  30.692   7.262
 6237POPC   C1B78571  36.775  30.864   6.225
 6237POPC   C2B78572  36.508  30.866   6.562
 6237POPC   C3B78573  36.518  30.607   6.902
 6237POPC   C4B78574  36.566  30.836   7.243
 6238POPC   NC378575  22.373  40.931   5.226
 6238POPC   PO478576  21.778  40.575   5.504
 6238POPC   GL178577  22.088  40.877   5.759
 6238POPC   GL278578  22.274  40.707   5.989
 6238POPC   C1A78579  22.028  41.071   6.191
 6238POPC   D2A78580  22.245  40.838   6.530
 6238POPC   C3A78581  22.041  40.816   6.944
 6238POPC   C4A78582  21.869  41.017   7.282
 6238POPC   C1B78583  22.571  40.529   6.218
 6238POPC   C2B78584  22.538  40.336   6.571
 6238POPC   C3B78585  22.491  40.550   6.937
 6238POPC   C4B78586  22.363  40.636   7.319
 6239POPC   NC378587  14.903  18.482   5.596
 6239POPC   PO478588  14.320  18.367   5.457
 6239POPC   GL178589  14.404  18.190   5.832
 6239POPC   GL278590  14.591  18.472   5.991
 6239POPC   C1A78591  14.164  18.207   6.205
 6239POPC   D2A78592  14.182  18.029   6.589
 6239POPC   C3A78593  14.121  18.280   6.933
 6239POPC   C4A78594  14.365  18.121   7.268
 6239POPC   C1B78595  14.767  18.621   6.377
 6239POPC   C2B78596  14.456  18.664   6.707
 6239POPC   C3B78597  14.512  18.583   7.118
 6239POPC   C4B78598  14.589  18.548   7.527
 6240POPC   NC378599  35.253  30.379   5.294
 6240POPC   PO478600  35.361  31.094   5.489
 6240POPC   GL178601  35.132  30.735   5.677
 6240POPC   GL278602  35.438  30.571   5.766
 6240POPC   C1A78603  35.033  30.567   6.128
 6240POPC   D2A78604  35.094  30.809   6.536
 6240POPC   C3A78605  35.066  30.633   6.971
 6240POPC   C4A78606  35.010  30.890   7.343
 6240POPC   C1B78607  35.549  30.702   6.195
 6240POPC   C2B78608  35.551  30.590   6.633
 6240POPC   C3B78609  35.662  30.869   6.944
 6240POPC   C4B78610  35.545  30.900   7.309
 6241POPC   NC378611   3.008   9.039   5.481
 6241POPC   PO478612   2.547   8.516   5.475
 6241POPC   GL178613   2.658   8.810   5.777
 6241POPC   GL278614   2.575   9.179   5.732
 6241POPC   C1A78615   2.886   8.935   6.134
 6241POPC   D2A78616   2.752   9.063   6.512
 6241POPC   C3A78617   2.906   8.945   6.888
 6241POPC   C4A78618   3.037   9.148   7.234
 6241POPC   C1B78619   2.514   9.355   6.135
 6241POPC   C2B78620   2.570   9.537   6.546
 6241POPC   C3B78621   2.528   9.330   6.916
 6241POPC   C4B78622   2.579   9.323   7.322
 6242POPC   NC378623   5.287  10.684   5.521
 6242POPC   PO478624   4.846  10.135   5.482
 6242POPC   GL178625   5.067  10.340   5.852
 6242POPC   GL278626   5.040  10.720   5.967
 6242POPC   C1A78627   4.896  10.333   6.275
 6242POPC   D2A78628   4.793  10.518   6.656
 6242POPC   C3A78629   4.924  10.290   7.017
 6242POPC   C4A78630   4.884  10.447   7.425
 6242POPC   C1B78631   5.229  10.708   6.399
 6242POPC   C2B78632   5.263  10.675   6.858
 6242POPC   C3B78633   5.042  10.857   7.181
 6242POPC   C4B78634   5.128  10.846   7.636
 6243POPC   NC378635   1.908   0.753   5.715
 6243POPC   PO478636   1.917   1.320   5.327
 6243POPC   GL178637   1.648   1.189   5.691
 6243POPC   GL278638   1.977   1.219   5.925
 6243POPC   C1A78639   1.532   1.202   6.146
 6243POPC   D2A78640   1.803   1.430   6.453
 6243POPC   C3A78641   2.001   1.215   6.798
 6243POPC   C4A78642   1.961   1.110   7.230
 6243POPC   C1B78643   1.937   0.937   6.333
 6243POPC   C2B78644   2.150   0.723   6.672
 6243POPC   C3B78645   2.398   0.929   6.993
 6243POPC   C4B78646   2.381   0.898   7.453
 6244POPC   NC378647  37.560   5.322   5.507
 6244POPC   PO478648  37.936   4.775   5.453
 6244POPC   GL178649  37.738   4.872   5.852
 6244POPC   GL278650  37.458   5.111   5.956
 6244POPC   C1A78651  37.846   4.836   6.288
 6244POPC   D2A78652  38.011   5.203   6.553
 6244POPC   C3A78653  37.781   5.326   6.914
 6244POPC   C4A78654  37.848   5.142   7.301
 6244POPC   C1B78655  37.529   5.227   6.396
 6244POPC   C2B78656  37.587   4.897   6.719
 6244POPC   C3B78657  37.433   4.923   7.126
 6244POPC   C4B78658  37.355   5.296   7.303
 6245POPC   NC378659  15.926  24.871   5.372
 6245POPC   PO478660  16.069  24.214   5.299
 6245POPC   GL178661  15.922  24.459   5.682
 6245POPC   GL278662  15.599  24.649   5.739
 6245POPC   C1A78663  16.067  24.746   6.032
 6245POPC   D2A78664  15.922  24.837   6.451
 6245POPC   C3A78665  16.064  24.679   6.858
 6245POPC   C4A78666  15.956  24.733   7.276
 6245POPC   C1B78667  15.607  24.539   6.203
 6245POPC   C2B78668  15.608  24.491   6.698
 6245POPC   C3B78669  15.733  24.265   7.128
 6245POPC   C4B78670  15.765  23.918   7.477
 6246W        W78671   8.059  38.885  10.633
 6247W        W78672   0.375   6.641   3.216
 6248W        W78673  25.915  36.769  11.535
 6249W        W78674  29.211   0.136  13.439
 6250W        W78675  42.994  38.316   3.666
 6251W        W78676  22.232  11.771  13.503
 6252W        W78677  26.540  41.463  11.607
 6253W        W78678   6.248  26.097  12.449
 6254W        W78679  15.437  36.493  14.485
 6255W        W78680  18.973  39.453   0.795
 6256W        W78681  18.702   3.432   2.848
 6257W        W78682  12.591  38.215  12.954
 6258W        W78683  33.649  11.792   4.516
 6259W        W78684   4.710  19.454  13.948
 6260W        W78685   5.356  26.925   1.706
 6261W        W78686  44.390  42.747  10.599
 6262W        W78687   5.648   9.398   1.807
 6263W        W78688   1.452   8.139   4.553
 6264W        W78689  15.293   5.853  10.408
 6265W        W78690   8.703  11.354   2.277
 6266W        W78691  40.045   5.816   0.334
 6267W        W78692  15.661   5.326  14.331
 6268W        W78693   3.495   7.203  11.679
 6269W        W78694  10.088   6.641  13.397
 6270W        W78695  13.038  21.015  14.488
 6271W        W78696  26.058  44.263   0.532
 6272W        W78697   5.825  34.121   2.297
 6273W        W78698  29.164  34.414  13.912
 6274W        W78699  41.785  14.386  13.026
 6275W        W78700  14.882  28.206   1.099
 6276W        W78701  31.396  40.981   0.476
 6277W        W78702  18.657  39.368   4.339
 6278W        W78703  17.568  43.190  13.585
 6279W        W78704   2.007  11.611   4.244
 6280W        W78705  11.153  18.607  14.390
 6281W        W78706   7.045   2.506  11.657
 6282W        W78707  20.028  16.164   3.380
 6283W        W78708  12.131   5.715   2.501
 6284W        W78709   0.776  24.989  13.447
 6285W        W78710  10.392  12.620   3.930
 6286W        W78711  29.083   4.464  14.400
 6287W        W78712  10.352  22.642   3.058
 6288W        W78713   0.057  42.574   5.255
 6289W        W78714  38.961  20.568  12.932
 6290W        W78715  41.458   3.763   4.665
 6291W        W78716  42.306  31.900   2.665
 6292W        W78717  10.129  35.681  12.277
 6293W        W78718  42.210   9.421   3.238
 6294W        W78719   3.391  20.253   3.310
 6295W        W78720  32.703  42.869  12.549
 6296W        W78721  41.467  12.752   3.645
 6297W        W78722   2.872  27.697   3.835
 6298W        W78723  29.417  23.100   4.274
 6299W        W78724  14.828  17.209   1.974
 6300W        W78725  44.788  18.625   1.741
 6301W        W78726  44.270  14.045   4.841
 6302W        W78727  10.524  26.643   0.481
 6303W        W78728  16.685  33.628  14.784
 6304W        W78729   7.918  13.272  13.764
 6305W        W78730  37.854  26.137  11.156
 6306W        W78731  12.070  29.997   3.835
 6307W        W78732  30.401  20.289  13.496
 6308W        W78733  24.461  28.438  12.444
 6309W        W78734   1.828  30.099   3.203
 6310W        W78735  28.797  17.734  12.486
 6311W        W78736  24.914   4.654   4.541
 6312W        W78737  23.801  37.903   0.127
 6313W        W78738  29.402  25.989   1.321
 6314W        W78739  44.983  41.996   1.759
 6315W        W78740  35.277  35.839   1.919
 6316W        W78741   1.195   9.672  10.900
 6317W        W78742  34.615  19.676  10.759
 6318W        W78743  42.660   8.542   5.115
 6319W        W78744  14.845   3.614  14.993
 6320W        W78745  38.450   9.355   3.794
 6321W        W78746  40.332  31.420   0.401
 6322W        W78747  32.951  26.678   1.343
 6323W        W78748   4.837  30.383   3.322
 6324W        W78749   3.954  27.474  13.364
 6325W        W78750   0.685  38.330   0.485
 6326W        W78751  20.533   1.686  12.863
 6327W        W78752  25.912  33.116  13.184
 6328W        W78753  31.653  21.131   1.365
 6329W        W78754  20.357  32.162   2.369
 6330W        W78755  38.832  19.190  11.423
 6331W        W78756  40.423  38.600   4.690
 6332W        W78757   5.943  12.459   3.368
 6333W        W78758   8.589  14.253   2.496
 6334W        W78759   1.835  21.318   0.546
 6335W        W78760   2.695  14.078  14.803
 6336W        W78761  27.061  17.693   3.367
 6337W        W78762  40.461   3.709   1.069
 6338W        W78763  25.063  32.502   4.446
 6339W        W78764  37.040  18.585   2.626
 6340W        W78765  37.204  32.054  11.837
 6341W        W78766  38.689  17.743  14.521
 6342W        W78767  15.238  14.008  14.950
 6343W        W78768  26.083   6.011   0.228
 6344W        W78769  42.040  30.924   0.941
 6345W        W78770  44.432  14.251   2.934
 6346W        W78771  22.003  15.744   2.139
 6347W        W78772  36.340  32.840  10.600
 6348W        W78773  38.544  31.842   2.305
 6349W        W78774   4.877  14.575   1.484
 6350W        W78775  35.481  20.645   3.726
 6351W        W78776   3.402  22.710  12.044
 6352W        W78777  42.873   4.222   1.886
 6353W        W78778  28.632   5.737   1.869
 6354W        W78779  24.846   8.243   2.850
 6355W        W78780   7.369  30.189   1.818
 6356W        W78781  40.754  43.344  14.585
 6357W        W78782   6.937  36.383   0.724
 6358W        W78783  31.047  38.077  14.298
 6359W        W78784  23.691  34.417  10.584
 6360W        W78785   8.414  12.750   3.666
 6361W        W78786  21.142   4.943   3.799
 6362W        W78787  33.159  21.325  12.368
 6363W        W78788   3.483  37.418   4.572
 6364W        W78789  37.033   0.130  13.952
 6365W        W78790  16.928   4.845   2.438
 6366W        W78791  41.369  43.047   3.249
 6367W        W78792  10.053  14.827  14.903
 6368W        W78793  41.471  23.403  11.077
 6369W        W78794  19.256  22.283  12.791
 6370W        W78795   9.142  24.283   1.317
 6371W        W78796   8.935   3.855   3.719
 6372W        W78797  23.640  21.289  13.403
 6373W        W78798  31.895  16.873  11.630
 6374W        W78799  44.059  22.524   0.835
 6375W        W78800   9.837  43.921  12.893
 6376W        W78801  27.677  22.621  13.481
 6377W        W78802   2.259  40.546  14.517
 6378W        W78803  27.906  19.243   0.545
 6379W        W78804   7.951   6.662   3.233
 6380W        W78805   8.820  34.117  12.113
 6381W        W78806  21.098  18.587   4.138
 6382W        W78807   1.756  32.565  10.643
 6383W        W78808  31.826  31.192   3.097
 6384W        W78809  23.342  16.986   3.182
 6385W        W78810  10.908  41.972  12.477
 6386W        W78811  43.616  23.074   2.194
 6387W        W78812   7.819   8.194   9.974
 6388W        W78813  39.898  26.650  14.859
 6389W        W78814  21.273  32.469   5.035
 6390W        W78815  12.423  37.834  14.357
 6391W        W78816   8.774  35.370   5.550
 6392W        W78817  38.546  15.636  11.540
 6393W        W78818  29.077  13.880  13.960
 6394W        W78819  40.241  39.894  11.178
 6395W        W78820   4.893  28.511  13.820
 6396W        W78821  14.618  24.673   9.918
 6397W        W78822  25.176  14.274  13.341
 6398W        W78823  41.328   7.419   4.530
 6399W        W78824  20.998  27.634   2.344
 6400W        W78825  20.168   3.858  13.855
 6401W        W78826  27.377  23.109   1.786
 6402W        W78827  44.506  21.207   0.010
 6403W        W78828  40.892  29.352  13.901
 6404W        W78829  14.478  21.402  11.622
 6405W        W78830  28.616   0.955   0.121
 6406W        W78831  37.520   3.653  12.060
 6407W        W78832  43.894  23.259  14.122
 6408W        W78833   6.812  30.002   4.965
 6409W        W78834  17.236  43.054   1.600
 6410W        W78835  33.425  38.818   4.470
 6411W        W78836   4.444  15.625  11.148
 6412W        W78837   7.320  43.915  11.644
 6413W        W78838  15.209  41.106  12.804
 6414W        W78839  41.503   2.909   0.958
 6415W        W78840  38.939  26.118  13.859
 6416W        W78841  27.101  11.243  13.698
 6417W        W78842  38.176   0.725  14.684
 6418W        W78843  10.337  27.468   0.691
 6419W        W78844  20.322  17.813  11.740
 6420W        W78845   9.727   3.522  10.724
 6421W        W78846  40.281  35.320  14.305
 6422W        W78847   9.916  37.627   2.239
 6423W        W78848  25.633  14.050   4.023
 6424W        W78849   7.169  16.734   0.442
 6425W        W78850  26.804  31.892   4.556
 6426W        W78851   4.596  38.978   1.210
 6427W        W78852  34.875  16.643   2.802
 6428W        W78853  33.495  25.684  11.176
 6429W        W78854  38.520  15.588   1.323
 6430W        W78855  14.769  14.162  14.804
 6431W        W78856  21.186  19.283   3.245
 6432W        W78857  43.095  24.008  11.608
 6433W        W78858  41.883  32.191   1.255
 6434W        W78859  42.754  37.386  14.298
 6435W        W78860   4.101  15.599  10.235
 6436W        W78861  21.051  36.490  13.938
 6437W        W78862  20.502   8.930  11.821
 6438W        W78863  21.192  25.250   1.846
 6439W        W78864  32.411   7.412  11.453
 6440W        W78865  10.672  29.213   1.708
 6441W        W78866  32.844  34.452  13.800
 6442W        W78867  11.725  30.179   0.424
 6443W        W78868   8.911  35.146   1.816
 6444W        W78869  28.046  39.319   5.081
 6445W        W78870  11.131  16.060   4.569
 6446W        W78871  31.599   8.389  12.895
 6447W        W78872  14.091   9.595   0.923
 6448W        W78873  20.091  42.094   1.842
 6449W        W78874  28.022  30.478  12.866
 6450W        W78875   9.794   3.499  12.047
 6451W        W78876  26.963  43.405   1.136
 6452W        W78877   1.432  41.763  12.472
 6453W        W78878  44.353  26.555   5.034
 6454W        W78879   9.863   3.561   1.292
 6455W        W78880   0.620  33.911  13.817
 6456W        W78881  43.753  30.874   3.322
 6457W        W78882   7.503  21.483   3.266
 6458W        W78883  16.816   1.784   1.829
 6459W        W78884  20.008  22.991  14.763
 6460W        W78885   8.570   9.125   0.768
 6461W        W78886  25.710  36.518  14.244
 6462W        W78887  33.336  33.566   2.730
 6463W        W78888  23.061  10.570  13.535
 6464W        W78889  20.535  25.858  14.371
 6465W        W78890  34.775  37.322  10.779
 6466W        W78891  40.465  25.506   3.218
 6467W        W78892   5.308  13.842   2.107
 6468W        W78893  43.505  26.332   4.524
 6469W        W78894  22.750  39.834  12.809
 6470W        W78895   4.628  14.247   2.582
 6471W        W78896  29.215  19.652  12.906
 6472W        W78897  25.610  11.315   2.354
 6473W        W78898  30.177   5.743  11.440
 6474W        W78899  36.016   3.114  13.860
 6475W        W78900  16.791  24.867  14.785
 6476W        W78901  25.400   6.372   1.699
 6477W        W78902   0.204   6.693  14.647
 6478W        W78903  26.559  34.635  14.028
 6479W        W78904  27.123  37.933   4.510
 6480W        W78905  12.599  21.212   3.130
 6481W        W78906  28.994  19.220  11.690
 6482W        W78907  23.093  17.462   3.257
 6483W        W78908   6.486  32.511  14.518
 6484W        W78909  24.634  44.006   4.014
 6485W        W78910  42.353  36.484  14.062
 6486W        W78911  29.320   0.537  11.552
 6487W        W78912  18.492  33.514  12.940
 6488W        W78913  18.700  31.946   9.842
 6489W        W78914  34.507  27.066   0.314
 6490W        W78915   0.869  16.718   0.350
 6491W        W78916  37.371  43.549  13.390
 6492W        W78917  37.561  30.518  14.597
 6493W        W78918  29.925  44.402  12.615
 6494W        W78919  32.956  25.282  14.209
 6495W        W78920  44.149  26.088   2.208
 6496W        W78921   2.742   0.466  12.594
 6497W        W78922  20.274  12.619   9.898
 6498W        W78923  41.340   3.003  14.364
 6499W        W78924   6.635  23.920  12.082
 6500W        W78925  43.208  10.574   3.865
 6501W        W78926  17.548  34.517   2.268
 6502W        W78927  17.445  37.181   2.787
 6503W        W78928  34.731  40.477   1.179
 6504W        W78929  17.705   7.619   3.864
 6505W        W78930  43.926  23.552  11.048
 6506W        W78931  22.104  43.600  11.489
 6507W        W78932  42.702  18.632   1.988
 6508W        W78933  39.028  11.982   2.229
 6509W        W78934  14.051  17.171  11.197
 6510W        W78935  43.369  10.651  12.905
 6511W        W78936   5.892   5.824   1.738
 6512W        W78937  42.350  24.641  10.445
 6513W        W78938  27.435  15.988  13.422
 6514W        W78939   1.707  39.616   3.729
 6515W        W78940  11.157   8.836   4.519
 6516W        W78941  36.928  21.991   0.776
 6517W        W78942  17.195   9.736   4.345
 6518W        W78943  16.168  38.601  11.007
 6519W        W78944  20.891  41.551  10.268
 6520W        W78945  12.656  42.750  13.439
 6521W        W78946  34.217  13.628   3.105
 6522W        W78947   7.659  32.917   1.489
 6523W        W78948  40.462  16.827   1.785
 6524W        W78949  13.263  40.009  13.889
 6525W        W78950   8.793  24.460   2.168
 6526W        W78951  39.902  43.329   3.427
 6527W        W78952  37.868  25.599   0.386
 6528W        W78953   7.404  28.057   4.078
 6529W        W78954  30.961  11.414   2.740
 6530W        W78955  12.698   4.773   2.793
 6531W        W78956  43.387  20.085  14.223
 6532W        W78957  39.402  31.103   0.781
 6533W        W78958  37.759  43.235  14.263
 6534W        W78959  13.852  15.102   3.214
 6535W        W78960  28.116   8.942   4.607
 6536W        W78961  15.576  15.569   4.278
 6537W        W78962  35.559   4.352  13.952
 6538W        W78963   3.999  39.580   2.244
 6539W        W78964  32.834  22.472  13.940
 6540W        W78965  19.517  11.335  11.579
 6541W        W78966  17.546  27.571  10.578
 6542W        W78967  25.781  34.846   0.654
 6543W        W78968   4.139  16.801  13.468
 6544W        W78969  11.121  20.955   3.049
 6545W        W78970   1.410  36.587  14.095
 6546W        W78971  13.608  43.306  10.388
 6547W        W78972   7.882  44.434   0.479
 6548W        W78973  35.610  31.533  14.839
 6549W        W78974  20.720  41.848   2.110
 6550W        W78975  40.736   4.766  14.896
 6551W        W78976  26.213  36.340  13.349
 6552W        W78977  22.500  36.897   4.385
 6553W        W78978   2.170  12.833  11.924
 6554W        W78979  24.461  20.651   0.416
 6555W        W78980  10.936   9.563  12.514
 6556W        W78981   7.126  34.726   4.172
 6557W        W78982   2.920  22.735   2.708
 6558W        W78983  44.637  12.756   1.591
 6559W        W78984  41.956  43.033  14.334
 6560W        W78985  15.628   0.059  12.065
 6561W        W78986  44.677   9.774  12.750
 6562W        W78987   5.668   2.406   4.366
 6563W        W78988  18.386  29.484   3.633
 6564W        W78989  34.557   1.182   4.858
 6565W        W78990  44.429  40.093   1.707
 6566W        W78991   6.973  26.009   0.381
 6567W        W78992  11.630  36.061   4.249
 6568W        W78993   2.945   9.536   2.473
 6569W        W78994   8.377  39.402  10.661
 6570W        W78995   6.118   4.004   2.759
 6571W        W78996   0.480  41.390  14.296
 6572W        W78997  25.662   6.303   2.120
 6573W        W78998   4.853  12.546  10.534
 6574W        W78999   2.062  18.126  11.492
 6575W        W79000  19.740  36.519  12.659
 6576W        W79001   0.947  17.801  14.840
 6577W        W79002  37.388  13.836   3.779
 6578W        W79003  34.068  21.837   4.358
 6579W        W79004  11.161  16.546   0.445
 6580W        W79005  28.225  11.181   2.360
 6581W        W79006  23.823   4.315  10.557
 6582W        W79007  16.067  29.156   3.765
 6583W        W79008  29.775  18.142   5.016
 6584W        W79009  23.143  28.229   3.841
 6585W        W79010   8.277  15.204  11.615
 6586W        W79011  28.380  28.604   0.987
 6587W        W79012   7.373  37.037   2.310
 6588W        W79013  20.591  35.604  12.056
 6589W        W79014  10.480   5.156  13.306
 6590W        W79015  37.304   8.434   0.798
 6591W        W79016  40.541  15.083   4.070
 6592W        W79017  43.629  16.648  14.783
 6593W        W79018  42.841  27.972   0.196
 6594W        W79019   0.215  26.576  12.621
 6595W        W79020  21.485  22.648  12.397
 6596W        W79021  20.333  30.041  11.460
 6597W        W79022  43.013  19.269  10.708
 6598W        W79023  22.945  28.691   2.366
 6599W        W79024   0.460  13.585   1.224
 6600W        W79025  29.100  23.553   4.194
 6601W        W79026  11.382  16.229  12.191
 6602W        W79027  37.327  37.880  14.077
 6603W        W79028  27.940  21.242  12.661
 6604W        W79029   9.435   4.405   1.715
 6605W        W79030  39.027  14.186  13.069
 6606W        W79031  19.376  10.642   1.059
 6607W        W79032  19.346  23.575  14.603
 6608W        W79033   7.354  12.657  13.892
 6609W        W79034  44.224  43.803  13.784
 6610W        W79035  20.529   6.267  12.944
 6611W        W79036  27.612   5.198   2.787
 6612W        W79037  11.690   9.415  14.813
 6613W        W79038  32.878  11.371  11.147
 6614W        W79039  35.964  10.935  13.496
 6615W        W79040  41.320  31.366   4.635
 6616W        W79041  31.955  31.942  13.138
 6617W        W79042  42.589  35.402  12.461
 6618W        W79043  44.739  21.662   2.668
 6619W        W79044  34.979  12.804  12.604
 6620W        W79045  14.809  37.829  12.883
 6621W        W79046  29.960  32.945  11.437
 6622W        W79047   7.922  11.131  11.542
 6623W        W79048   1.730  17.869  11.877
 6624W        W79049  38.810  12.808   4.127
 6625W        W79050  42.297  32.600  12.836
 6626W        W79051   0.504  41.209   2.505
 6627W        W79052  23.906  21.605   4.151
 6628W        W79053   3.448  26.030  11.103
 6629W        W79054   0.244  18.540  13.913
 6630W        W79055   5.707  15.324   0.351
 6631W        W79056  27.190  31.516  13.797
 6632W        W79057  29.126  35.114   1.163
 6633W        W79058  34.842  21.244   1.356
 6634W        W79059  33.642  20.804   0.425
 6635W        W79060   3.563  20.158  11.656
 6636W        W79061  30.916  14.400  13.079
 6637W        W79062  10.784  21.293   4.735
 6638W        W79063   0.687   5.361   4.277
 6639W        W79064  37.267  37.527   4.645
 6640W        W79065   2.774  16.782  14.907
 6641W        W79066  18.894  14.825   2.053
 6642W        W79067   2.738  23.045  14.703
 6643W        W79068  16.373  30.979   3.766
 6644W        W79069   9.470  30.916   1.801
 6645W        W79070  15.558   4.241   3.818
 6646W        W79071  18.297   9.319   4.159
 6647W        W79072  31.732   9.368  13.620
 6648W        W79073  14.173  32.176   4.201
 6649W        W79074  10.302   6.632   1.050
 6650W        W79075  38.926  12.572  11.850
 6651W        W79076  12.633  33.658  13.884
 6652W        W79077  27.613  18.146   0.056
 6653W        W79078   5.500  21.550   1.637
 6654W        W79079  34.975  24.912   0.424
 6655W        W79080  13.608   1.922  11.271
 6656W        W79081  43.304  33.416   4.168
 6657W        W79082   6.202  35.679   1.889
 6658W        W79083  43.224  18.050   2.722
 6659W        W79084  12.538  26.452  11.201
 6660W        W79085  13.151  21.323  11.871
 6661W        W79086   0.753   5.339  14.295
 6662W        W79087  15.734  13.518  12.460
 6663W        W79088  13.155  21.555   3.823
 6664W        W79089  42.741  12.651  14.851
 6665W        W79090  30.083  38.381   0.560
 6666W        W79091  41.913   8.329  13.990
 6667W        W79092  32.954  10.180   3.328
 6668W        W79093  42.651  30.879  12.047
 6669W        W79094   3.129  36.496   0.391
 6670W        W79095  39.274  35.221  12.900
 6671W        W79096  27.557  34.403   1.624
 6672W        W79097   3.989  18.163   4.971
 6673W        W79098   8.078  25.101  14.424
 6674W        W79099  32.347   9.807  11.655
 6675W        W79100   9.315  39.029  13.007
 6676W        W79101  12.007  39.509  12.046
 6677W        W79102  43.239  35.289   1.267
 6678W        W79103   4.541  18.300   2.643
 6679W        W79104   4.645  43.171   3.134
 6680W        W79105  15.134  39.999   3.313
 6681W        W79106  38.834  21.312   4.213
 6682W        W79107  17.533  23.079   1.913
 6683W        W79108  34.104   9.659   0.363
 6684W        W79109  16.011  41.226   1.286
 6685W        W79110  18.793  11.833  10.771
 6686W        W79111  29.118  18.120   4.658
 6687W        W79112   3.020  29.173  10.563
 6688W        W79113  28.679  18.136   0.716
 6689W        W79114  14.137  16.833   4.399
 6690W        W79115  43.988  43.251   2.330
 6691W        W79116   2.686  40.818  14.182
 6692W        W79117  31.253  13.434  13.434
 6693W        W79118  30.072  43.995   4.702
 6694W        W79119  41.817   8.508   4.528
 6695W        W79120  26.457   3.202  10.559
 6696W        W79121  14.110  20.744   4.569
 6697W        W79122  14.587   5.643   4.254
 6698W        W79123  27.731  42.429   1.954
 6699W        W79124  22.012  13.546  12.824
 6700W        W79125   9.625  43.872   4.463
 6701W        W79126  33.684  16.803  12.535
 6702W        W79127  38.545  28.664   0.874
 6703W        W79128   0.877  12.307   1.003
 6704W        W79129  26.144  15.180  10.738
 6705W        W79130  43.119   9.802   0.366
 6706W        W79131  32.364  22.677  10.078
 6707W        W79132  14.877  43.950  11.180
 6708W        W79133   8.505  37.899   0.868
 6709W        W79134   7.881  12.732   1.380
 6710W        W79135  41.556  16.869   4.557
 6711W        W79136   3.193  24.088  11.369
 6712W        W79137  33.534  13.499   4.964
 6713W        W79138  37.771  40.981  14.456
 6714W        W79139   3.822  44.902   0.860
 6715W        W79140  12.859   9.685   2.788
 6716W        W79141  25.860  14.772   3.657
 6717W        W79142  22.270   8.883  13.564
 6718W        W79143  15.724  11.656  14.859
 6719W        W79144  39.250  17.425  14.491
 6720W        W79145  14.113  13.697   3.104
 6721W        W79146   0.448  44.547   3.757
 6722W        W79147  27.461  13.187   1.836
 6723W        W79148  10.518  32.070   3.884
 6724W        W79149   2.434   7.759  13.431
 6725W        W79150  40.229   1.014   1.318
 6726W        W79151  34.440  43.950  14.818
 6727W        W79152  25.668  35.585  12.452
 6728W        W79153  43.783  22.621   1.302
 6729W        W79154  35.607  17.699   4.109
 6730W        W79155  43.853  20.197   1.454
 6731W        W79156  15.177  37.754   4.719
 6732W        W79157  19.869  17.011   4.996
 6733W        W79158   5.813  40.837   4.273
 6734W        W79159  27.261  32.453   2.570
 6735W        W79160  21.782   7.839  14.347
 6736W        W79161  32.881  32.969   0.153
 6737W        W79162  36.262   1.917   4.150
 6738W        W79163  27.995  37.353   0.214
 6739W        W79164  17.098   6.567   1.647
 6740W        W79165  18.221  14.913  11.550
 6741W        W79166  32.264  24.539  13.376
 6742W        W79167  12.176  26.716  12.639
 6743W        W79168  44.415  29.937  13.744
 6744W        W79169   8.209  38.271  12.942
 6745W        W79170  20.075  33.049  14.368
 6746W        W79171  14.805   4.016   3.918
 6747W        W79172  12.267   0.252  13.941
 6748W        W79173  44.060  42.398   0.797
 6749W        W79174  16.005  38.479   4.595
 6750W        W79175  14.871  27.536  10.695
 6751W        W79176  21.643  36.629   2.252
 6752W        W79177  41.521  17.105  14.735
 6753W        W79178   1.216  40.521   0.339
 6754W        W79179  36.224  18.862  10.744
 6755W        W79180  14.760  21.956   3.131
 6756W        W79181  14.933  43.282  14.469
 6757W        W79182   9.281  17.742  14.722
 6758W        W79183   7.815  41.793   1.695
 6759W        W79184  16.394   8.509   3.363
 6760W        W79185  14.085  29.657  13.614
 6761W        W79186  30.368  42.282  11.501
 6762W        W79187   4.188  21.742  12.837
 6763W        W79188  43.409   3.766  10.276
 6764W        W79189  26.865  20.039   2.660
 6765W        W79190   1.440  35.321   1.254
 6766W        W79191  14.705  15.001  11.186
 6767W        W79192  22.584  39.146  12.476
 6768W        W79193  42.005  21.458   4.341
 6769W        W79194  29.716  18.701   0.325
 6770W        W79195  21.685  17.048   0.796
 6771W        W79196   2.235  40.600   1.881
 6772W        W79197  16.262  29.121   1.816
 6773W        W79198  19.556  38.993   3.866
 6774W        W79199  18.097  44.023  14.534
 6775W        W79200   8.834   7.719   0.064
 6776W        W79201  22.736  35.909   3.203
 6777W        W79202  40.142  31.009   1.232
 6778W        W79203  39.790  36.088  14.197
 6779W        W79204  28.660   4.762  11.654
 6780W        W79205  34.338  44.225  13.810
 6781W        W79206  36.865  43.247   3.266
 6782W        W79207  40.015   3.119   1.920
 6783W        W79208   8.669   9.176  14.814
 6784W        W79209  23.920  40.148   1.706
 6785W        W79210   2.748  12.749   0.208
 6786W        W79211  29.111  13.369   3.719
 6787W        W79212  17.546   6.923   0.816
 6788W        W79213  21.873  16.555   3.991
 6789W        W79214   8.158   8.429  10.701
 6790W        W79215  11.184  23.108   0.937
 6791W        W79216  40.736  24.611   0.239
 6792W        W79217  25.715  42.937  12.549
 6793W        W79218   3.448  22.311  10.974
 6794W        W79219  20.209  31.479  11.149
 6795W        W79220  25.540   2.437  13.423
 6796W        W79221   1.267  15.756   1.260
 6797W        W79222   0.763  30.139   4.193
 6798W        W79223  19.459   6.873   3.051
 6799W        W79224  44.489  39.365   2.038
 6800W        W79225   0.661  37.250   4.099
 6801W        W79226  24.677  12.746   2.441
 6802W        W79227  26.465  15.169  12.967
 6803W        W79228   4.237  12.100  14.450
 6804W        W79229  37.076  41.569   1.735
 6805W        W79230  20.099  42.465  10.572
 6806W        W79231  19.231   8.789   3.853
 6807W        W79232  15.902  34.054   0.761
 6808W        W79233  17.840  34.913   0.342
 6809W        W79234   4.666  34.876  12.418
 6810W        W79235  15.404  33.980  12.984
 6811W        W79236   0.902  35.399   2.339
 6812W        W79237  44.308  20.090   1.698
 6813W        W79238  11.385  23.655  13.873
 6814W        W79239  25.710   5.208   4.420
 6815W        W79240  21.302  42.749  10.713
 6816W        W79241  42.097  32.340   2.089
 6817W        W79242  42.821  33.203  12.468
 6818W        W79243  29.515  20.065  13.045
 6819W        W79244  17.603  11.204   1.342
 6820W        W79245  41.542   3.809  14.990
 6821W        W79246   9.355  26.354   4.359
 6822W        W79247  37.295  11.257   2.304
 6823W        W79248  39.379  11.137  11.749
 6824W        W79249  17.515  34.709  14.925
 6825W        W79250  32.640  16.595   2.883
 6826W        W79251   4.943  39.830   1.658
 6827W        W79252  44.709  30.554  14.709
 6828W        W79253  39.105  43.912  12.571
 6829W        W79254  13.794  37.114  13.807
 6830W        W79255  41.561  17.895   1.735
 6831W        W79256  16.775  41.437   4.101
 6832W        W79257   7.377   8.204  14.406
 6833W        W79258  35.358   4.990  13.529
 6834W        W79259   5.986   4.950   1.690
 6835W        W79260  19.566   5.713   1.880
 6836W        W79261  23.078  16.510   1.257
 6837W        W79262  34.867  30.839   3.763
 6838W        W79263  33.374   9.827   3.798
 6839W        W79264  27.282   9.236  11.512
 6840W        W79265   1.763  12.727  14.122
 6841W        W79266  13.230  28.438   1.413
 6842W        W79267   4.195  16.105   4.323
 6843W        W79268   3.267  28.898   1.938
 6844W        W79269  22.514  12.667   2.871
 6845W        W79270   8.467  28.324   4.739
 6846W        W79271  32.490   8.504   5.065
 6847W        W79272  38.775  14.544   2.507
 6848W        W79273  11.452  26.916   0.167
 6849W        W79274  21.196  41.572   5.097
 6850W        W79275  39.311  26.993   3.930
 6851W        W79276   9.472  15.410   3.628
 6852W        W79277  30.599  13.323  11.995
 6853W        W79278  32.088  43.363   3.535
 6854W        W79279  25.974  44.849   1.770
 6855W        W79280  18.996  19.657  14.003
 6856W        W79281   9.060   5.197   4.083
 6857W        W79282  14.635  30.769   4.535
 6858W        W79283  23.425  34.080  11.902
 6859W        W79284  40.496  35.007  14.681
 6860W        W79285  20.609  15.949   4.416
 6861W        W79286  32.842   5.650  12.884
 6862W        W79287  13.978  37.871  13.967
 6863W        W79288  21.029   6.179   4.533
 6864W        W79289  28.481  21.765   0.750
 6865W        W79290   5.894  42.270   2.387
 6866W        W79291  34.755  36.026   2.790
 6867W        W79292  10.851  35.460   1.803
 6868W        W79293  22.756  21.214  14.934
 6869W        W79294  43.227  31.009   1.947
 6870W        W79295  27.162  22.770   2.395
 6871W        W79296  33.115  25.173  10.757
 6872W        W79297   1.073  42.500   2.584
 6873W        W79298  24.698   8.705   1.003
 6874W        W79299  29.447  22.999  11.970
 6875W        W79300  39.678   3.297   0.769
 6876W        W79301  40.818  31.506   4.436
 6877W        W79302  25.782  27.090  13.403
 6878W        W79303   3.380  38.823  11.757
 6879W        W79304  22.244  22.560  12.888
 6880W        W79305  10.967  15.043   3.791
 6881W        W79306   7.238  34.778  11.500
 6882W        W79307  24.360  39.009   1.553
 6883W        W79308   4.884   2.459  10.544
 6884W        W79309  41.408  14.437   2.678
 6885W        W79310   2.258  33.700  11.038
 6886W        W79311  39.192  38.552  10.064
 6887W        W79312   1.095  30.595   4.205
 6888W        W79313  40.987  20.956  13.340
 6889W        W79314  15.092  25.575   2.198
 6890W        W79315  32.482  34.058   0.508
 6891W        W79316  18.827   3.533   2.349
 6892W        W79317  30.155  12.848  13.493
 6893W        W79318  19.203  24.047   1.840
 6894W        W79319  21.260   3.520   5.062
 6895W        W79320   0.275  11.795  11.593
 6896W        W79321  38.872  15.289   3.942
 6897W        W79322  17.560  39.369   2.296
 6898W        W79323   2.995  29.933  14.838
 6899W        W79324  27.190  32.036   4.093
 6900W        W79325  27.488  38.566  14.176
 6901W        W79326  15.370  40.526  13.424
 6902W        W79327  19.625   3.529  11.254
 6903W        W79328   1.270   2.824  13.466
 6904W        W79329  35.106  20.892  12.023
 6905W        W79330  13.327  14.501  14.242
 6906W        W79331  36.712  12.169  12.451
 6907W        W79332  16.352  29.550   3.590
 6908W        W79333  10.758  19.677   4.577
 6909W        W79334  23.794   2.558   4.002
 6910W        W79335  39.982  26.627   3.234
 6911W        W79336   6.299  36.973  10.510
 6912W        W79337  37.514  13.056   1.645
 6913W        W79338  33.946  17.554  14.762
 6914W        W79339  27.311   9.360  13.580
 6915W        W79340  40.492  37.128   3.155
 6916W        W79341  39.574   2.301   4.485
 6917W        W79342   2.362  19.985   2.035
 6918W        W79343  31.438  28.198  14.576
 6919W        W79344   4.163  33.577   4.609
 6920W        W79345  40.336  29.169  11.167
 6921W        W79346   7.092   6.646   4.536
 6922W        W79347   7.758  30.147   3.413
 6923W        W79348  30.975  30.638  14.484
 6924W        W79349  18.675  23.265   3.065
 6925W        W79350   1.420  23.478   4.121
 6926W        W79351  43.409   7.755  13.451
 6927W        W79352  19.969  29.928  11.977
 6928W        W79353  22.188   1.939   3.706
 6929W        W79354  20.697  40.782   0.929
 6930W        W79355  16.419  40.939   2.690
 6931W        W79356  17.596  19.296  13.441
 6932W        W79357  10.706  16.997   3.603
 6933W        W79358  31.200  16.673   0.817
 6934W        W79359   8.176  14.905   1.232
 6935W        W79360  38.870  32.088   3.454
 6936W        W79361   8.721  40.143   0.221
 6937W        W79362  22.228  38.306  14.780
 6938W        W79363  11.556   3.310   3.779
 6939W        W79364   7.983  36.929   3.756
 6940W        W79365   2.850  34.912  11.663
 6941W        W79366   2.686  42.384   0.224
 6942W        W79367  15.154   6.607   1.689
 6943W        W79368   5.917  19.599  11.283
 6944W        W79369  28.534  33.034  10.801
 6945W        W79370  14.750   8.389  10.699
 6946W        W79371  40.935  31.368   0.894
 6947W        W79372  22.184  27.442  13.804
 6948W        W79373  25.073  14.330   1.424
 6949W        W79374   8.693  43.799  10.457
 6950W        W79375  35.894   0.738  10.671
 6951W        W79376  28.190  31.276  10.769
 6952W        W79377  17.556  13.745  11.963
 6953W        W79378  16.806  44.497  10.377
 6954W        W79379  16.137   5.907  10.504
 6955W        W79380  41.834  16.721   0.785
 6956W        W79381  23.626  23.553  11.192
 6957W        W79382  10.741  12.329  11.145
 6958W        W79383  25.838  41.376  10.700
 6959W        W79384  35.905  17.588   3.705
 6960W        W79385  14.124  19.374  14.745
 6961W        W79386  20.306  43.039   4.237
 6962W        W79387  18.851   9.389   4.219
 6963W        W79388  20.047  38.391  12.500
 6964W        W79389  21.076  40.105   3.937
 6965W        W79390   8.441   1.903  12.066
 6966W        W79391  19.664  17.356   1.462
 6967W        W79392  20.691  41.419   1.800
 6968W        W79393  19.153  24.781   2.732
 6969W        W79394  31.103  23.455  11.926
 6970W        W79395  38.878  22.122   0.134
 6971W        W79396   5.381  39.862  11.193
 6972W        W79397  36.039  17.808   2.656
 6973W        W79398  18.707   7.768  13.864
 6974W        W79399  25.162  26.149  12.588
 6975W        W79400  20.224   2.201  13.345
 6976W        W79401  18.433   6.672   2.721
 6977W        W79402   9.349  14.101   1.257
 6978W        W79403  37.841   3.336  13.339
 6979W        W79404   9.729   7.434   0.035
 6980W        W79405  13.117  37.517   1.838
 6981W        W79406  33.971  12.612  14.261
 6982W        W79407   1.474   7.375  13.847
 6983W        W79408   3.174  33.524   3.017
 6984W        W79409  25.487  31.028  13.438
 6985W        W79410  39.875  44.213  11.057
 6986W        W79411  24.428  11.590  12.225
 6987W        W79412  23.451   0.573   2.865
 6988W        W79413  35.846  11.423   3.538
 6989W        W79414  14.810   5.688   2.941
 6990W        W79415   6.868  25.458   4.165
 6991W        W79416  15.717  38.914   0.721
 6992W        W79417  24.048  30.355   1.317
 6993W        W79418  34.007  23.240  13.845
 6994W        W79419   0.374  42.467   3.146
 6995W        W79420  14.232  25.054  14.365
 6996W        W79421   4.245  34.487   3.179
 6997W        W79422  41.805  35.574   2.666
 6998W        W79423  34.683   7.989   3.676
 6999W        W79424   2.419  43.045  14.575
 7000W        W79425  25.697  38.554   2.312
 7001W        W79426  39.429  42.027   3.226
 7002W        W79427   6.838  12.541   3.495
 7003W        W79428  21.754  22.729   2.399
 7004W        W79429  29.107   9.475   0.135
 7005W        W79430  43.873   1.133  14.818
 7006W        W79431  27.017  20.509   4.315
 7007W        W79432   0.828  13.696  13.022
 7008W        W79433   1.669  39.039   1.781
 7009W        W79434  42.995   0.351   1.878
 7010W        W79435   0.096  10.827  13.402
 7011W        W79436  30.287  15.025   4.866
 7012W        W79437  22.512  21.587   0.209
 7013W        W79438  37.909  14.167   3.902
 7014W        W79439  15.103  44.463   2.458
 7015W        W79440  29.992  14.857  11.617
 7016W        W79441  23.492  14.818  11.407
 7017W        W79442   5.777  37.980   2.247
 7018W        W79443  16.105  24.242   0.660
 7019W        W79444  13.443   7.401  14.431
 7020W        W79445  33.345   8.671   4.516
 7021W        W79446  43.524  27.066   1.924
 7022W        W79447  36.317  12.616   4.300
 7023W        W79448  40.287  20.548  12.874
 7024W        W79449  40.222   9.781  12.650
 7025W        W79450  30.919  12.223  11.521
 7026W        W79451  21.672  41.023   2.638
 7027W        W79452  40.800  39.431  13.007
 7028W        W79453  31.600  40.954  14.982
 7029W        W79454  27.715  37.888  14.618
 7030W        W79455  33.319  30.519   0.812
 7031W        W79456  33.051  13.044   3.330
 7032W        W79457  44.212  26.303  14.332
 7033W        W79458  12.604   6.191   3.286
 7034W        W79459   1.434  24.923   5.076
 7035W        W79460  36.497   6.727  13.995
 7036W        W79461  20.973   4.172  11.196
 7037W        W79462   2.707  40.741  12.768
 7038W        W79463  14.173  30.092   3.660
 7039W        W79464  42.870  16.472   1.176
 7040W        W79465  34.318  37.940   4.060
 7041W        W79466  40.766   4.481   0.772
 7042W        W79467   4.287  33.340  14.298
 7043W        W79468   1.377   1.730   2.949
 7044W        W79469   1.369  10.075  13.528
 7045W        W79470  29.915   3.823   4.174
 7046W        W79471  44.524   4.350   1.417
 7047W        W79472  38.002   4.223   2.359
 7048W        W79473  42.711  29.641  12.911
 7049W        W79474   5.387   7.462   0.660
 7050W        W79475  21.144  33.881   3.309
 7051W        W79476  10.313   5.488   1.793
 7052W        W79477  43.116  12.642  12.194
 7053W        W79478  16.481  10.724   4.323
 7054W        W79479  26.501  10.596   3.250
 7055W        W79480  34.845   1.359   3.356
 7056W        W79481  35.899  27.567   3.577
 7057W        W79482  41.014  27.494   1.633
 7058W        W79483  11.058  36.591   2.178
 7059W        W79484   0.875   5.015   2.814
 7060W        W79485  30.196  41.321   4.113
 7061W        W79486  13.553  10.116  11.832
 7062W        W79487   8.070  22.721  12.012
 7063W        W79488  13.226  10.360   2.523
 7064W        W79489   7.008  25.633   3.539
 7065W        W79490  41.963  17.552   3.662
 7066W        W79491  16.715   1.713  13.515
 7067W        W79492  20.513   7.176   1.712
 7068W        W79493   7.503   9.533  13.315
 7069W        W79494   8.193  11.757   1.258
 7070W        W79495  38.896  39.556  14.852
 7071W        W79496   6.256  10.272  14.099
 7072W        W79497  10.082  20.927   1.214
 7073W        W79498  18.533  20.907   0.793
 7074W        W79499   2.670   3.769   4.033
 7075W        W79500  11.105   3.092   0.269
 7076W        W79501   8.392  30.937  14.045
 7077W        W79502   5.372  29.213   3.567
 7078W        W79503  28.493  16.281   0.011
 7079W        W79504   3.274  26.817   2.897
 7080W        W79505   3.239  37.223   0.883
 7081W        W79506  27.582  39.828   4.885
 7082W        W79507   9.351   2.168   3.713
 7083W        W79508  29.150  29.940  13.515
 7084W        W79509   6.259   1.494   2.356
 7085W        W79510  21.987  13.637   4.280
 7086W        W79511  38.387   5.680   4.248
 7087W        W79512  42.632   6.523  13.054
 7088W        W79513  22.585  30.915   1.053
 7089W        W79514  22.438  43.698   3.656
 7090W        W79515  12.631  20.574  10.669
 7091W        W79516  41.400  30.537  11.907
 7092W        W79517  30.973   2.228  12.448
 7093W        W79518   3.034  25.675   2.325
 7094W        W79519  19.563  30.085   3.393
 7095W        W79520  37.321  42.417   1.624
 7096W        W79521   1.527  43.396   2.166
 7097W        W79522  11.152  30.757  13.606
 7098W        W79523  20.251   3.745   2.753
 7099W        W79524  29.036  28.564   3.786
 7100W        W79525  26.323  36.376   0.240
 7101W        W79526  41.650  23.792   1.964
 7102W        W79527  18.716  23.713  10.732
 7103W        W79528  39.018  44.322   5.084
 7104W        W79529  35.395  17.002  13.988
 7105W        W79530  10.302  17.836  10.265
 7106W        W79531  14.422  24.060   0.991
 7107W        W79532  27.783  18.963  13.341
 7108W        W79533  43.516  18.536  11.137
 7109W        W79534  19.301  43.749  12.094
 7110W        W79535  11.727  23.530   0.292
 7111W        W79536  27.902  24.314   0.398
 7112W        W79537   5.905  13.799   4.725
 7113W        W79538  21.880  36.568   0.971
 7114W        W79539  18.578  26.154   3.908
 7115W        W79540  42.299  26.060  13.818
 7116W        W79541  26.912  43.637   4.664
 7117W        W79542  12.853  40.338   0.922
 7118W        W79543  24.776  14.236   3.383
 7119W        W79544   7.485  30.785  13.090
 7120W        W79545  12.158   4.305  10.273
 7121W        W79546  27.738  11.755   1.458
 7122W        W79547  37.604  11.435   4.158
 7123W        W79548  42.991   0.257  11.686
 7124W        W79549  36.512  30.449   2.838
 7125W        W79550  29.041  28.670  12.858
 7126W        W79551   6.800  39.249   1.448
 7127W        W79552  16.231  20.514   3.356
 7128W        W79553  21.997  44.889   2.882
 7129W        W79554  40.713  32.569   1.888
 7130W        W79555  12.542  20.294  11.100
 7131W        W79556  17.144  34.707  13.547
 7132W        W79557   6.548  38.092   0.848
 7133W        W79558   4.032  36.064   0.543
 7134W        W79559  21.005  21.201  13.347
 7135W        W79560  39.680   0.408   3.172
 7136W        W79561  15.178   9.379   2.314
 7137W        W79562  16.663  27.925  11.998
 7138W        W79563   9.696  12.678  12.507
 7139W        W79564  32.577  35.088   3.640
 7140W        W79565  44.531  14.684  11.571
 7141W        W79566  41.367  27.539  11.971
 7142W        W79567  37.566  35.849  10.602
 7143W        W79568  23.294   5.832   0.857
 7144W        W79569  37.887  28.146   1.403
 7145W        W79570  23.505   6.116  11.708
 7146W        W79571  39.988  11.325  13.344
 7147W        W79572  13.272  34.112   0.733
 7148W        W79573   8.151  10.125  11.938
 7149W        W79574   2.762  20.366  11.250
 7150W        W79575  38.522  16.306   3.705
 7151W        W79576  32.627  10.620   1.169
 7152W        W79577  10.160  20.517   3.717
 7153W        W79578  37.248  31.089  11.043
 7154W        W79579  18.154   1.782  10.546
 7155W        W79580  17.299  32.102   5.103
 7156W        W79581  42.923  35.238   4.172
 7157W        W79582   7.246  20.267  11.452
 7158W        W79583  15.627  40.473  13.887
 7159W        W79584   9.680   6.358   5.083
 7160W        W79585  33.142  18.177  12.949
 7161W        W79586  21.234  25.070   0.502
 7162W        W79587  27.416   1.984   2.507
 7163W        W79588  42.040   6.828  10.944
 7164W        W79589  17.347  23.197   3.161
 7165W        W79590  16.981   7.823   4.512
 7166W        W79591  42.783   6.443  10.719
 7167W        W79592  11.647  43.002   2.279
 7168W        W79593  25.554  15.749   3.554
 7169W        W79594  33.168   8.773   3.655
 7170W        W79595  12.164  14.642  12.437
 7171W        W79596   0.301  23.409  12.992
 7172W        W79597  31.013   4.677   4.928
 7173W        W79598  44.464  32.937  12.000
 7174W        W79599   5.824  43.766  11.144
 7175W        W79600  40.022  35.876  12.012
 7176W        W79601   3.098  23.484  13.474
 7177W        W79602   5.812  14.330  12.372
 7178W        W79603  34.566  25.802   4.639
 7179W        W79604  37.719   7.702  11.200
 7180W        W79605  23.741  39.426   3.711
 7181W        W79606   0.921  27.599  13.479
 7182W        W79607  36.821  38.282  11.860
 7183W        W79608   7.765  37.580   3.271
 7184W        W79609  20.207  23.525   3.107
 7185W        W79610  10.243  28.091  14.799
 7186W        W79611  40.669   8.813   4.638
 7187W        W79612  40.428  21.112  14.675
 7188W        W79613  21.176  43.952   0.824
 7189W        W79614  39.337   6.898   1.828
 7190W        W79615  16.219   8.830   1.015
 7191W        W79616  30.868  38.301  12.931
 7192W        W79617   9.667  28.695  11.854
 7193W        W79618  20.506  39.070   3.658
 7194W        W79619  42.770  35.914   1.878
 7195W        W79620  15.481  12.606  12.614
 7196W        W79621  19.130  12.953   4.681
 7197W        W79622  17.474  37.691   0.712
 7198W        W79623  24.938  20.057  10.694
 7199W        W79624  26.450  36.191   2.664
 7200W        W79625  16.902  28.621   3.634
 7201W        W79626  24.063  36.080  12.010
 7202W        W79627  32.345  20.832  12.965
 7203W        W79628  33.129  41.440  14.180
 7204W        W79629  37.877  34.447  11.419
 7205W        W79630  22.998   5.413  14.470
 7206W        W79631   3.834  20.102   0.864
 7207W        W79632  15.742   6.709  13.054
 7208W        W79633  11.617  40.286  10.907
 7209W        W79634  39.663  23.188   4.802
 7210W        W79635  27.965  18.253  12.963
 7211W        W79636  44.455   5.318  10.838
 7212W        W79637  37.100  39.542   0.690
 7213W        W79638  12.800  13.388   0.128
 7214W        W79639  27.857  37.962  14.112
 7215W        W79640  26.947  36.890  13.980
 7216W        W79641  43.933  24.328  13.246
 7217W        W79642   1.821  23.813  10.650
 7218W        W79643  19.157   7.467  12.081
 7219W        W79644  30.612  31.982  14.854
 7220W        W79645  28.181   5.990   4.130
 7221W        W79646  19.512  38.827  14.163
 7222W        W79647  39.212  21.216   4.798
 7223W        W79648  21.446   3.706  11.883
 7224W        W79649  24.533  19.281   4.172
 7225W        W79650  20.158  30.009   0.289
 7226W        W79651  30.643  30.934   2.706
 7227W        W79652  42.834  10.164   3.217
 7228W        W79653  16.296   0.965   2.736
 7229W        W79654  29.682   2.849  14.945
 7230W        W79655  32.078  11.333  14.786
 7231W        W79656   5.260  19.098  13.422
 7232W        W79657   8.331   9.270   3.902
 7233W        W79658  44.511  26.007   1.230
 7234W        W79659  10.858  41.673  11.557
 7235W        W79660   6.344  32.516   0.031
 7236W        W79661   8.795  27.606   4.556
 7237W        W79662  20.795  20.015   0.200
 7238W        W79663   9.698   6.296  11.519
 7239W        W79664  16.827  20.233  11.983
 7240W        W79665   4.258  42.420  10.730
 7241W        W79666   9.305  39.582   0.705
 7242W        W79667  25.701  20.054  10.302
 7243W        W79668   3.142  22.588   4.560
 7244W        W79669   9.733   0.959  11.759
 7245W        W79670  15.085  12.755   3.121
 7246W        W79671  17.780  15.232   1.294
 7247W        W79672  15.976   2.680  11.689
 7248W        W79673   9.784   2.648  12.845
 7249W        W79674  34.873  31.175  12.948
 7250W        W79675  23.474  18.627   2.849
 7251W        W79676  40.510  44.068   4.138
 7252W        W79677  17.654  22.592   4.170
 7253W        W79678  38.011  37.477  12.993
 7254W        W79679  30.973  27.088   2.460
 7255W        W79680  21.731  14.825  13.038
 7256W        W79681  38.411  41.978  14.568
 7257W        W79682  42.658  28.737   4.099
 7258W        W79683  22.729  18.176  14.413
 7259W        W79684  36.978  38.532   2.879
 7260W        W79685  20.174  25.131   1.372
 7261W        W79686   1.898  18.660  11.154
 7262W        W79687  42.756  24.526   4.669
 7263W        W79688  30.908  13.329   4.486
 7264W        W79689  28.988  15.670   0.423
 7265W        W79690  40.264  26.013   3.137
 7266W        W79691  29.658  17.502  11.375
 7267W        W79692  16.426  14.939  11.672
 7268W        W79693   0.596  12.893  11.109
 7269W        W79694   6.914   1.861  14.985
 7270W        W79695   4.413  30.053  11.841
 7271W        W79696   6.207  39.066  11.779
 7272W        W79697   2.747   8.155   3.343
 7273W        W79698  28.145  21.714  12.640
 7274W        W79699  20.664  25.209   1.709
 7275W        W79700   7.357   6.441  12.897
 7276W        W79701  20.224  19.364   2.669
 7277W        W79702  23.407  19.938   5.048
 7278W        W79703  12.757  12.921  12.291
 7279W        W79704  21.753  36.045   4.123
 7280W        W79705  36.666  26.691   4.536
 7281W        W79706   2.996  27.158  12.120
 7282W        W79707  16.841  40.184  11.487
 7283W        W79708  40.905  11.566  13.342
 7284W        W79709  23.679  21.532   1.512
 7285W        W79710   6.203  36.613  11.090
 7286W        W79711  38.707   0.990   4.668
 7287W        W79712  42.079  39.739  13.565
 7288W        W79713  31.884  28.540   4.584
 7289W        W79714  12.180  36.267  13.135
 7290W        W79715  27.427  38.322  13.292
 7291W        W79716   1.850  11.672  10.708
 7292W        W79717  43.813  10.552   0.332
 7293W        W79718  26.141  26.495   3.855
 7294W        W79719   7.362  13.687   1.398
 7295W        W79720   2.487  34.693  12.002
 7296W        W79721  24.241  39.284  13.386
 7297W        W79722   1.396  15.523   1.853
 7298W        W79723  29.026  34.309   4.025
 7299W        W79724   3.701   4.458   1.848
 7300W        W79725  27.464  33.638  11.844
 7301W        W79726  20.965  27.833  11.632
 7302W        W79727  24.586   6.241   0.734
 7303W        W79728  33.019  36.338  11.121
 7304W        W79729  40.326   8.208   2.921
 7305W        W79730  23.185  19.293   0.552
 7306W        W79731  11.877  14.421   0.300
 7307W        W79732  32.454  40.108  11.148
 7308W        W79733  36.889  10.388  11.204
 7309W        W79734  26.468  19.414   3.190
 7310W        W79735   3.715  41.833   2.765
 7311W        W79736  38.933  33.105   3.152
 7312W        W79737  10.685   4.916  12.059
 7313W        W79738  36.333  12.784   3.394
 7314W        W79739   6.248  29.119  11.143
 7315W        W79740  32.827   6.925  12.584
 7316W        W79741  26.985  21.952   0.501
 7317W        W79742   3.381   1.197  14.345
 7318W        W79743   5.344  36.326   3.814
 7319W        W79744  27.663  20.172  11.961
 7320W        W79745  36.082  34.311  12.958
 7321W        W79746  37.278  32.094   4.201
 7322W        W79747  39.862  42.327  10.843
 7323W        W79748  18.302   4.956   3.158
 7324W        W79749  26.579  24.201  12.473
 7325W        W79750  38.162  27.128  11.876
 7326W        W79751  18.998   5.906  11.058
 7327W        W79752  24.875  44.547  11.097
 7328W        W79753  25.364  36.375   1.907
 7329W        W79754  43.379   4.443  13.442
 7330W        W79755  27.962  34.682   1.452
 7331W        W79756  18.602  38.254  11.244
 7332W        W79757   7.734  21.203   5.050
 7333W        W79758  31.958  35.626   3.317
 7334W        W79759  11.771  12.883   2.839
 7335W        W79760  27.111  10.260   4.709
 7336W        W79761  44.439   4.501  10.269
 7337W        W79762  42.905  14.151   3.646
 7338W        W79763  26.049  11.878  10.365
 7339W        W79764  11.567   5.307  14.382
 7340W        W79765   1.908  19.725  12.921
 7341W        W79766  22.725  12.048   0.471
 7342W        W79767   8.702   0.392   3.279
 7343W        W79768  20.496  44.878   1.798
 7344W        W79769  33.721   9.704   3.442
 7345W        W79770  30.505   2.941   1.228
 7346W        W79771  37.351  15.454   5.095
 7347W        W79772  14.180   7.895  13.091
 7348W        W79773   7.256   5.945  10.726
 7349W        W79774  15.410   7.951   2.905
 7350W        W79775   5.940  24.615  13.316
 7351W        W79776  43.986  25.613  13.954
 7352W        W79777   8.916  31.981   0.835
 7353W        W79778   3.853  25.437  12.590
 7354W        W79779  18.822  30.397   3.720
 7355W        W79780   4.346  18.730   2.433
 7356W        W79781   9.603   1.226   1.774
 7357W        W79782  44.005   9.414   4.127
 7358W        W79783  15.040  42.183  13.516
 7359W        W79784  22.234  38.145   0.358
 7360W        W79785  27.284  31.195   2.119
 7361W        W79786  15.307  25.445   1.724
 7362W        W79787  18.658   2.299   4.090
 7363W        W79788  26.936  25.720   2.904
 7364W        W79789  31.139   3.328   3.984
 7365W        W79790   3.910  38.745   4.849
 7366W        W79791  27.902  35.637   4.069
 7367W        W79792  19.393  34.906   1.225
 7368W        W79793  17.552  13.564  11.482
 7369W        W79794  35.266  25.157   2.162
 7370W        W79795  17.710   5.156  13.014
 7371W        W79796  44.963  28.030  12.896
 7372W        W79797  19.532  36.378   2.258
 7373W        W79798  23.512  27.919   1.420
 7374W        W79799   8.832  37.867   9.925
 7375W        W79800  15.765  42.807   4.376
 7376W        W79801  42.267  35.536   4.743
 7377W        W79802  16.324  27.024   3.788
 7378W        W79803  43.009  20.262   4.093
 7379W        W79804  37.228  38.970  12.934
 7380W        W79805   7.344  32.619  14.743
 7381W        W79806  40.786  20.192  13.742
 7382W        W79807   8.897   3.287   3.110
 7383W        W79808   1.955  14.997  14.900
 7384W        W79809  24.199  25.936   1.177
 7385W        W79810  38.620  17.904  12.645
 7386W        W79811  36.168  37.141  10.740
 7387W        W79812  31.171  16.821  13.743
 7388W        W79813   3.206   3.947   1.348
 7389W        W79814  29.846  30.036  14.733
 7390W        W79815  14.855   3.661   2.053
 7391W        W79816  34.345  38.197  12.039
 7392W        W79817   2.611  15.204   3.609
 7393W        W79818  29.994  17.224   0.011
 7394W        W79819  32.100   0.395  11.697
 7395W        W79820  17.032  10.298  14.822
 7396W        W79821  24.250  19.414  10.123
 7397W        W79822  19.566  12.858   4.437
 7398W        W79823  36.571   6.958   2.824
 7399W        W79824  31.005   7.837  11.905
 7400W        W79825  32.997  40.450   4.601
 7401W        W79826  19.673  35.826  10.758
 7402W        W79827   2.461   2.895  12.623
 7403W        W79828  14.184  32.591   0.512
 7404W        W79829  21.244  31.687  14.972
 7405W        W79830  40.765  42.931  13.802
 7406W        W79831  17.024  28.611  14.604
 7407W        W79832   0.538  25.563   1.933
 7408W        W79833  28.632   5.814   4.881
 7409W        W79834  33.990  42.312  14.380
 7410W        W79835  39.225  13.092   1.678
 7411W        W79836  27.487   6.657  13.053
 7412W        W79837  41.464  26.136   4.503
 7413W        W79838  12.700  13.454   4.106
 7414W        W79839   1.046  33.057   2.419
 7415W        W79840  24.705  16.714  14.083
 7416W        W79841  25.569   1.205  10.744
 7417W        W79842  21.920  19.570   3.177
 7418W        W79843   3.231  37.490   3.682
 7419W        W79844  23.133  10.031   5.109
 7420W        W79845  37.758   5.227   4.488
 7421W        W79846   1.216   9.315  14.050
 7422W        W79847   8.892  14.615   2.794
 7423W        W79848  34.380  13.925  12.231
 7424W        W79849  40.611  12.297  10.741
 7425W        W79850  36.798  16.661   1.878
 7426W        W79851   8.521   7.268   5.041
 7427W        W79852   3.447  44.568   4.190
 7428W        W79853   9.922  24.764   1.397
 7429W        W79854  37.663  22.171   2.719
 7430W        W79855  37.063  24.745  14.278
 7431W        W79856  20.671  37.426   1.252
 7432W        W79857  39.750  17.799   3.094
 7433W        W79858   2.725  26.004  10.903
 7434W        W79859   3.157  10.051  11.447
 7435W        W79860  18.643  19.756   5.046
 7436W        W79861  19.285  22.652   2.848
 7437W        W79862  31.186  27.557   1.774
 7438W        W79863   5.161  33.041   4.225
 7439W        W79864  23.750  22.779  13.103
 7440W        W79865   4.647   4.673  11.014
 7441W        W79866  26.574  15.180   0.329
 7442W        W79867  13.026  22.287   2.231
 7443W        W79868  43.849  38.581   3.239
 7444W        W79869  18.207  31.031   3.729
 7445W        W79870   9.388   8.344   5.102
 7446W        W79871  16.163   2.365   3.875
 7447W        W79872  15.232  23.130   0.834
 7448W        W79873  24.025  12.172   1.862
 7449W        W79874  42.853  13.218   0.472
 7450W        W79875  25.662  37.910  13.408
 7451W        W79876   1.267  32.605  10.806
 7452W        W79877  25.641  11.797   2.119
 7453W        W79878  27.990  21.033   3.266
 7454W        W79879  30.938  43.009   1.753
 7455W        W79880   0.432  12.630   3.475
 7456W        W79881  21.712  26.017   0.918
 7457W        W79882   6.894   0.773   4.357
 7458W        W79883  42.368  17.778   3.868
 7459W        W79884  32.322  24.581  10.664
 7460W        W79885  21.527   4.935  13.543
 7461W        W79886  31.124  34.153  11.876
 7462W        W79887  11.398  16.723  12.408
 7463W        W79888  43.785   2.310   1.606
 7464W        W79889  16.831  12.563  13.806
 7465W        W79890  42.199   9.665   3.801
 7466W        W79891  15.119  43.993   4.143
 7467W        W79892  37.867  26.924  10.664
 7468W        W79893  21.140  37.016   1.765
 7469W        W79894  34.806  17.310  13.034
 7470W        W79895  20.832  12.394  11.536
 7471W        W79896  37.001  23.867  14.781
 7472W        W79897   3.901  37.469  12.574
 7473W        W79898  25.231  10.210   1.793
 7474W        W79899  41.959  10.938  10.704
 7475W        W79900   1.916   4.945   0.177
 7476W        W79901  42.020  20.641  10.679
 7477W        W79902  35.364  14.954  11.215
 7478W        W79903  18.444  18.332  11.448
 7479W        W79904  21.233  13.256   4.243
 7480W        W79905  40.877  39.087  12.014
 7481W        W79906  35.983  44.260   4.125
 7482W        W79907  30.161  27.341  13.051
 7483W        W79908   0.382  11.211  14.751
 7484W        W79909  39.590  26.933  12.205
 7485W        W79910  31.759  43.048   2.696
 7486W        W79911  17.545  23.592  12.966
 7487W        W79912  13.057  39.664   1.937
 7488W        W79913  29.108  35.479   3.164
 7489W        W79914  14.870  44.350  10.666
 7490W        W79915   2.546  22.174  11.141
 7491W        W79916  20.608  19.025   2.730
 7492W        W79917   3.115  15.616  14.948
 7493W        W79918  13.221  39.268  12.005
 7494W        W79919  41.377  36.056   2.001
 7495W        W79920  31.713  35.869  11.039
 7496W        W79921  24.623   9.788   4.501
 7497W        W79922   4.873  13.610   0.393
 7498W        W79923  33.612   1.451  13.292
 7499W        W79924  35.684  42.756   2.936
 7500W        W79925  16.490  35.566  13.487
 7501W        W79926   1.503  26.886   3.551
 7502W        W79927  40.577  16.318   1.826
 7503W        W79928  30.383  31.636   2.314
 7504W        W79929  35.788  22.198   2.490
 7505W        W79930  31.150  22.567   2.656
 7506W        W79931  22.491  36.754  13.579
 7507W        W79932  39.137  16.201  13.547
 7508W        W79933  18.500  19.780  11.085
 7509W        W79934  39.557  39.647  11.841
 7510W        W79935  10.869   2.315   2.203
 7511W        W79936  15.259  41.597   3.402
 7512W        W79937   9.623  27.231   0.481
 7513W        W79938  19.267   9.816  12.055
 7514W        W79939  36.344  28.510  11.420
 7515W        W79940  40.418  15.045  14.210
 7516W        W79941  24.050  26.046  14.934
 7517W        W79942  26.886  35.910   2.670
 7518W        W79943   5.937   1.288  13.312
 7519W        W79944  34.014  29.385  14.526
 7520W        W79945  39.866   8.375   1.150
 7521W        W79946  32.628  35.628  10.813
 7522W        W79947  31.941  33.138  13.822
 7523W        W79948  25.198  35.808  11.172
 7524W        W79949  29.394  16.301   4.394
 7525W        W79950   0.948  38.926  14.848
 7526W        W79951  27.960  40.790  13.282
 7527W        W79952  33.109   7.107  13.847
 7528W        W79953  34.787  39.856  11.501
 7529W        W79954  39.320   9.805   4.573
 7530W        W79955   1.728  13.838   0.915
 7531W        W79956  16.262  23.124  10.349
 7532W        W79957  31.698  20.632   0.326
 7533W        W79958  10.303  34.493  14.889
 7534W        W79959  31.383  33.484   4.557
 7535W        W79960  20.059  37.109  14.751
 7536W        W79961  38.325   2.358   3.353
 7537W        W79962  27.163  37.500   1.542
 7538W        W79963  39.065  29.085   4.589
 7539W        W79964   1.525  31.953   1.703
 7540W        W79965  11.897   3.485   4.127
 7541W        W79966   4.765  15.393  14.102
 7542W        W79967  37.802  15.603   2.578
 7543W        W79968  34.321  29.555   2.644
 7544W        W79969  18.401  37.476  14.369
 7545W        W79970  13.719  44.972  11.661
 7546W        W79971  26.889  11.690   4.603
 7547W        W79972  10.346  27.988   2.686
 7548W        W79973  22.087  29.615  11.612
 7549W        W79974  22.496   1.233  14.476
 7550W        W79975  42.979  39.798  12.019
 7551W        W79976  10.886   9.744   3.842
 7552W        W79977  20.490  31.933   1.914
 7553W        W79978  30.094  16.802  14.035
 7554W        W79979   7.737  27.936   3.661
 7555W        W79980   4.712  26.889  12.483
 7556W        W79981   0.385  13.838   0.288
 7557W        W79982   7.450  10.826   2.702
 7558W        W79983  16.069  13.046  11.598
 7559W        W79984  34.897  17.951  11.653
 7560W        W79985  27.587  32.965   9.792
 7561W        W79986   7.247  40.648   4.676
 7562W        W79987  22.584   8.807  11.923
 7563W        W79988  41.175  40.392   4.144
 7564W        W79989   2.831   8.327  12.040
 7565W        W79990  36.465  29.966   0.858
 7566W        W79991  41.516  10.733   0.486
 7567W        W79992  31.838  43.913   2.794
 7568W        W79993  44.182  33.470  14.957
 7569W        W79994  43.832   9.119   2.659
 7570W        W79995  24.005  20.768   0.119
 7571W        W79996   4.021  23.673  11.626
 7572W        W79997  26.958  19.008   1.530
 7573W        W79998   5.831  41.921   1.008
 7574W        W79999  25.872  29.602  13.248
 7575W        W80000  28.973  35.309  13.935
 7576W        W80001   2.543  39.094   5.110
 7577W        W80002  33.874  18.584  10.644
 7578W        W80003  12.617  24.097   0.280
 7579W        W80004   8.868  17.579   0.670
 7580W        W80005   5.640   4.687   4.922
 7581W        W80006  23.750  28.546   2.907
 7582W        W80007  39.435  11.477   0.658
 7583W        W80008  27.304  39.588  11.162
 7584W        W80009  15.400  30.798   2.814
 7585W        W80010  10.710   7.281   4.555
 7586W        W80011  40.064  40.739  14.846
 7587W        W80012   9.601  22.244  12.283
 7588W        W80013  18.699  29.434  12.483
 7589W        W80014  43.981  22.342  13.338
 7590W        W80015  44.344  19.791  12.987
 7591W        W80016  21.991  11.201   2.871
 7592W        W80017  21.970  10.917   4.197
 7593W        W80018  31.460   5.371  14.833
 7594W        W80019   9.239  11.657  13.451
 7595W        W80020  20.256  31.807   5.519
 7596W        W80021   7.363  13.674  14.021
 7597W        W80022  33.874  12.642  11.385
 7598W        W80023  39.627  39.357   1.688
 7599W        W80024  42.968  30.082   0.409
 7600W        W80025  11.350  37.798   4.289
 7601W        W80026  15.365  16.264  12.391
 7602W        W80027  38.704  19.648   1.148
 7603W        W80028  42.979  41.159   0.883
 7604W        W80029  29.541  36.474  13.073
 7605W        W80030  18.946  28.601  14.458
 7606W        W80031   0.163  20.878   4.105
 7607W        W80032  17.153  35.827  12.634
 7608W        W80033  16.593  41.345   0.392
 7609W        W80034  15.884   7.871   4.369
 7610W        W80035  18.292  27.247   4.195
 7611W        W80036  20.676  30.043   4.829
 7612W        W80037  42.328  12.055   0.298
 7613W        W80038  11.806  24.240  14.571
 7614W        W80039  10.265  20.370  10.677
 7615W        W80040  43.644  39.924  13.017
 7616W        W80041   8.823  44.413   1.913
 7617W        W80042  18.670  40.881   4.133
 7618W        W80043  21.032  35.996  10.395
 7619W        W80044  30.732  31.306  14.510
 7620W        W80045  14.569  11.842  13.423
 7621W        W80046  21.524   4.498  10.424
 7622W        W80047  23.915  30.375   3.569
 7623W        W80048   0.010  40.317   2.433
 7624W        W80049  33.360   6.807  11.195
 7625W        W80050  43.377  39.423   4.182
 7626W        W80051  25.598   7.546   4.565
 7627W        W80052  30.327  38.330   1.470
 7628W        W80053  23.703  29.032  14.419
 7629W        W80054  14.546  31.038  12.660
 7630W        W80055  18.820   8.477   3.146
 7631W        W80056  15.187  32.183  10.625
 7632W        W80057  41.038  10.239  12.813
 7633W        W80058  37.916  25.485   4.729
 7634W        W80059  27.503  42.066   0.481
 7635W        W80060   1.508   2.156   1.201
 7636W        W80061  16.290   4.497   1.872
 7637W        W80062  37.977   0.765   4.191
 7638W        W80063  29.911   7.611   4.224
 7639W        W80064   6.464  41.908  12.512
 7640W        W80065  39.565  24.621  14.347
 7641W        W80066  14.125  36.452  10.870
 7642W        W80067  30.523  39.545   3.215
 7643W        W80068  39.785  41.373   1.379
 7644W        W80069  40.762   0.799  10.960
 7645W        W80070  19.620   4.555   2.896
 7646W        W80071  28.114  40.322   2.276
 7647W        W80072  40.322  18.808  14.799
 7648W        W80073  12.347  38.620   1.822
 7649W        W80074   6.045  41.798   3.192
 7650W        W80075  12.056   5.679  12.501
 7651W        W80076  14.683  42.000  13.883
 7652W        W80077  23.966   1.271   1.902
 7653W        W80078  38.750  32.815   2.325
 7654W        W80079  29.567  24.875  12.016
 7655W        W80080  37.545  24.163  14.853
 7656W        W80081   3.269  17.769   4.564
 7657W        W80082  12.973  22.999   2.821
 7658W        W80083  25.466  31.654   1.837
 7659W        W80084   3.228   2.240  11.530
 7660W        W80085  41.721  20.157   3.921
 7661W        W80086  27.634   1.805   1.130
 7662W        W80087  41.718  39.102   0.763
 7663W        W80088  31.281   0.714  11.617
 7664W        W80089  15.784   7.700   3.247
 7665W        W80090  13.314  24.284  11.566
 7666W        W80091   1.787  40.149  11.859
 7667W        W80092  43.005  26.176   2.831
 7668W        W80093  23.956  26.553  14.812
 7669W        W80094  15.789  36.808  13.844
 7670W        W80095  17.221  43.280   1.130
 7671W        W80096   4.693  22.998   2.370
 7672W        W80097   6.735   9.347   2.969
 7673W        W80098  41.475  34.567  14.663
 7674W        W80099  34.100   6.330  12.337
 7675W        W80100  32.036  18.694  14.527
 7676W        W80101  19.221  24.784   1.366
 7677W        W80102  22.287  25.659  11.620
 7678W        W80103  10.951  11.481  12.370
 7679W        W80104  43.881  19.758   4.186
 7680W        W80105   6.087   3.395  11.954
 7681W        W80106  30.518  12.273  10.932
 7682W        W80107  33.026  24.040  10.717
 7683W        W80108   1.896  39.301   0.974
 7684W        W80109   1.742   1.884  13.509
 7685W        W80110  13.151  40.325   2.551
 7686W        W80111  17.114   5.905   1.753
 7687W        W80112  24.689  30.071  12.071
 7688W        W80113  16.243   4.955   3.900
 7689W        W80114  26.511  21.152   0.939
 7690W        W80115  17.844  44.395   4.145
 7691W        W80116  32.219  35.625   1.136
 7692W        W80117   9.393  23.659   3.305
 7693W        W80118   2.855  35.140  11.166
 7694W        W80119  15.563  44.460  12.585
 7695W        W80120  21.515  26.500  11.127
 7696W        W80121  27.613  22.931  14.761
 7697W        W80122  19.591  36.537  13.960
 7698W        W80123  39.050  44.409  12.259
 7699W        W80124  12.689  31.580   4.056
 7700W        W80125  27.593  24.269  10.748
 7701W        W80126  13.179  15.972  12.551
 7702W        W80127   1.695  21.534   3.737
 7703W        W80128  17.623  33.114   3.072
 7704W        W80129  36.478   9.782  13.822
 7705W        W80130   3.420  10.199  14.993
 7706W        W80131  38.019  12.449   1.165
 7707W        W80132  11.371  10.076   4.599
 7708W        W80133  24.259  30.767   4.251
 7709W        W80134  16.429   3.254   5.040
 7710W        W80135  27.596  32.467   4.561
 7711W        W80136  21.732   8.610   2.686
 7712W        W80137  24.567  21.801   2.405
 7713W        W80138  24.015  26.726  13.559
 7714W        W80139  41.897  26.535   3.718
 7715W        W80140  31.880   8.168   2.666
 7716W        W80141   8.335  34.990   1.613
 7717W        W80142  33.978  12.816  14.737
 7718W        W80143  10.238  24.468  14.573
 7719W        W80144  28.600  43.809   3.332
 7720W        W80145  39.968   2.951   0.518
 7721W        W80146   1.301  17.393   2.411
 7722W        W80147  16.269   0.935   0.786
 7723W        W80148  17.163  15.090   3.683
 7724W        W80149  38.794  10.269  11.473
 7725W        W80150   9.569  41.447  13.013
 7726W        W80151  14.607  29.166   1.416
 7727W        W80152   2.256  18.160  14.055
 7728W        W80153  21.943   5.205  10.922
 7729W        W80154   3.329  44.178  10.374
 7730W        W80155  16.123   0.141  14.019
 7731W        W80156   3.903  31.390   3.675
 7732W        W80157  13.246   0.424  14.553
 7733W        W80158   6.891  42.828  12.782
 7734W        W80159  19.845   3.299   4.642
 7735W        W80160  34.402  41.350  11.648
 7736W        W80161   1.241   7.736  11.493
 7737W        W80162  12.274  44.742  12.638
 7738W        W80163   3.318   4.221   2.142
 7739W        W80164  23.019  36.453   1.911
 7740W        W80165  36.398   9.272   4.049
 7741W        W80166  16.089  18.218  12.049
 7742W        W80167   4.842   8.806  12.445
 7743W        W80168  15.644   8.469  12.619
 7744W        W80169   5.931  28.410  12.947
 7745W        W80170  15.777  34.465   5.043
 7746W        W80171  31.148  38.409   2.792
 7747W        W80172  13.110  15.252   2.101
 7748W        W80173  27.045   1.311   0.753
 7749W        W80174  23.027  29.399  11.127
 7750W        W80175  14.362  32.865   2.652
 7751W        W80176   2.958   5.882   3.234
 7752W        W80177  17.101   3.665  10.563
 7753W        W80178  19.546  21.979   1.509
 7754W        W80179  29.087  10.336   3.714
 7755W        W80180  15.125  13.063  11.586
 7756W        W80181   5.431  20.087  12.878
 7757W        W80182  30.244   5.707  11.979
 7758W        W80183  25.939  23.718  14.320
 7759W        W80184  30.500  30.134  12.935
 7760W        W80185  21.311  27.677   3.678
 7761W        W80186  44.280   8.507  12.195
 7762W        W80187  25.757  12.588  13.081
 7763W        W80188   4.088  43.261   0.304
 7764W        W80189  14.126  30.520  13.499
 7765W        W80190   8.927  32.143   0.304
 7766W        W80191   9.167  42.448   4.576
 7767W        W80192  41.256  29.979   4.203
 7768W        W80193  42.419  40.882   4.157
 7769W        W80194  22.534  11.194  10.161
 7770W        W80195  42.841  12.742   3.192
 7771W        W80196  34.865  27.489  12.039
 7772W        W80197  19.294  18.312   4.068
 7773W        W80198   6.758  26.755  14.814
 7774W        W80199   1.462  40.559  13.180
 7775W        W80200  13.711  22.472   1.186
 7776W        W80201   2.462  43.791   3.220
 7777W        W80202  17.782  20.086   0.860
 7778W        W80203   4.233  12.705   1.890
 7779W        W80204  28.751   9.786   3.740
 7780W        W80205  10.166  14.364  11.092
 7781W        W80206  22.914  19.092  11.237
 7782W        W80207  39.033   0.714  14.358
 7783W        W80208  32.734  43.019   4.228
 7784W        W80209  14.129  41.468   1.509
 7785W        W80210  40.892  37.288   4.783
 7786W        W80211  37.035  42.872  11.966
 7787W        W80212   7.630   4.866  13.855
 7788W        W80213   9.870  22.454   3.758
 7789W        W80214  15.989   2.577   2.660
 7790W        W80215  38.014   0.517   2.741
 7791W        W80216   2.005  10.373   0.873
 7792W        W80217  15.689  11.331   2.820
 7793W        W80218  38.391  28.168  13.984
 7794W        W80219  40.453  22.707  14.318
 7795W        W80220  42.832  32.216   4.623
 7796W        W80221  25.948  31.991   0.369
 7797W        W80222   7.099  11.719   0.196
 7798W        W80223   2.381  23.089   3.764
 7799W        W80224  38.015  32.745  11.932
 7800W        W80225  25.063  22.772   0.841
 7801W        W80226  15.100  43.693  12.020
 7802W        W80227   4.527  34.354   0.535
 7803W        W80228   7.550   7.266   3.760
 7804W        W80229  40.943  10.099   1.773
 7805W        W80230  31.160  17.119  10.230
 7806W        W80231  14.632  31.960   4.031
 7807W        W80232   9.439  34.815  11.823
 7808W        W80233  26.166   9.312   3.439
 7809W        W80234  23.272  29.985  12.824
 7810W        W80235  34.126   8.495   1.187
 7811W        W80236  17.365  27.130  11.487
 7812W        W80237  18.698   5.006  12.928
 7813W        W80238  44.124   2.006   1.011
 7814W        W80239   6.644  26.197   2.916
 7815W        W80240  43.699  19.269  12.051
 7816W        W80241  40.030  14.395  11.388
 7817W        W80242  16.192  32.036  14.893
 7818W        W80243  11.894  44.982   1.563
 7819W        W80244  21.117  35.944  12.643
 7820W        W80245  43.657   8.731  14.945
 7821W        W80246  21.950  33.610  14.436
 7822W        W80247  40.599  23.207   3.785
 7823W        W80248  26.652  23.017   2.269
 7824W        W80249  35.889  18.184  11.502
 7825W        W80250  21.096  21.897  14.900
 7826W        W80251   4.455  14.556   3.555
 7827W        W80252   7.287  26.772  12.973
 7828W        W80253  34.483  40.644  12.791
 7829W        W80254  34.375  29.688   4.198
 7830W        W80255  19.625   9.523   3.148
 7831W        W80256   1.775  43.856   2.108
 7832W        W80257  13.333   2.251  14.397
 7833W        W80258  44.819  19.736   4.116
 7834W        W80259  26.561   0.739  12.557
 7835W        W80260  10.213   4.658  14.433
 7836W        W80261  24.435  17.757   3.759
 7837W        W80262  28.627  42.362  11.880
 7838W        W80263  16.265  29.852   0.370
 7839W        W80264  30.600  39.580   3.717
 7840W        W80265   2.859  18.980   2.594
 7841W        W80266  29.174  33.147  12.013
 7842W        W80267  22.025  23.968  10.998
 7843W        W80268  21.246  28.742  14.346
 7844W        W80269   5.685  27.763   2.312
 7845W        W80270  40.075  21.546  14.825
 7846W        W80271  20.497  20.707  12.005
 7847W        W80272   4.363  20.867   4.629
 7848W        W80273  41.956  42.522  13.458
 7849W        W80274  24.848   3.648   0.317
 7850W        W80275   3.037   5.891   0.498
 7851W        W80276  44.649  31.653  11.882
 7852W        W80277  23.688  43.504  10.536
 7853W        W80278   7.606  38.796   1.693
 7854W        W80279   8.438  29.340   4.579
 7855W        W80280  24.935   9.663   4.899
 7856W        W80281   4.547  15.879  10.278
 7857W        W80282  19.173  27.094  12.632
 7858W        W80283  24.564   0.343   0.989
 7859W        W80284  25.004  23.805   4.703
 7860W        W80285  35.966  43.905   1.368
 7861W        W80286  20.012  42.824   2.668
 7862W        W80287   2.240  15.470   3.857
 7863W        W80288  35.450  10.387  10.232
 7864W        W80289  31.367  43.820  12.164
 7865W        W80290  26.192   1.040  12.389
 7866W        W80291   7.793  13.283   2.014
 7867W        W80292  22.504  11.203   0.799
 7868W        W80293  16.712  44.784  11.276
 7869W        W80294  37.435  19.652   3.796
 7870W        W80295  16.172  31.048  13.116
 7871W        W80296  14.175  14.862   4.307
 7872W        W80297  21.572  12.703   3.343
 7873W        W80298  34.051  14.157   1.285
 7874W        W80299  35.854  19.539  12.473
 7875W        W80300  14.294  17.328   4.486
 7876W        W80301  15.391   6.634  11.010
 7877W        W80302  32.070  37.040  11.568
 7878W        W80303  44.451   1.326  14.823
 7879W        W80304   8.081  28.128  11.640
 7880W        W80305  44.405  11.299   3.449
 7881W        W80306   9.304   6.133   0.537
 7882W        W80307  29.215  29.485  14.329
 7883W        W80308  26.139   0.069   3.147
 7884W        W80309  19.167  22.777   1.387
 7885W        W80310   3.398  14.711  14.743
 7886W        W80311  11.846  14.786   3.746
 7887W        W80312  40.072  40.058   0.554
 7888W        W80313  12.664  31.087  12.761
 7889W        W80314   0.030  31.097  11.274
 7890W        W80315   4.012  39.481   0.406
 7891W        W80316   4.848  24.665  14.047
 7892W        W80317   6.752  41.292   4.689
 7893W        W80318  17.060  10.629  10.700
 7894W        W80319   8.173  43.642   0.996
 7895W        W80320   5.386   0.585   2.382
 7896W        W80321  18.064  42.541   3.295
 7897W        W80322  16.860  23.629   3.773
 7898W        W80323  41.729  26.046  11.963
 7899W        W80324  22.238  18.194   0.473
 7900W        W80325  22.032  42.533   1.701
 7901W        W80326  43.019  21.773   1.292
 7902W        W80327   9.836  25.026  10.264
 7903W        W80328  34.583  40.867  11.824
 7904W        W80329  44.666  44.461  10.706
 7905W        W80330  19.604  35.490  14.218
 7906W        W80331  43.022  33.155   2.564
 7907W        W80332   1.835  13.663  13.968
 7908W        W80333  36.912  28.961   2.854
 7909W        W80334  33.846  42.987  13.090
 7910W        W80335  17.815  17.086   3.212
 7911W        W80336  41.232   5.229   2.655
 7912W        W80337   9.502  17.028   0.971
 7913W        W80338  34.697  44.996  11.244
 7914W        W80339  12.684  41.128  14.483
 7915W        W80340  44.718  16.243   2.113
 7916W        W80341  31.000  13.711  11.667
 7917W        W80342  16.639  14.303   1.264
 7918W        W80343  19.221   2.856  12.840
 7919W        W80344  44.488  27.289  13.613
 7920W        W80345  34.653  40.456  11.512
 7921W        W80346  26.988  25.090  11.980
 7922W        W80347  25.459  27.989   4.643
 7923W        W80348  35.926  39.597  11.493
 7924W        W80349  40.390   0.483   4.903
 7925W        W80350  32.639  19.411   5.135
 7926W        W80351   8.978  12.695   2.416
 7927W        W80352  12.631  22.561  13.600
 7928W        W80353   3.720  29.537   4.953
 7929W        W80354  43.471  14.667   1.329
 7930W        W80355  29.607  25.433   4.380
 7931W        W80356  28.465   8.093  10.713
 7932W        W80357   4.272   9.368   1.741
 7933W        W80358  13.908   0.995   0.549
 7934W        W80359  14.218  41.718   3.828
 7935W        W80360  26.515  36.032   3.810
 7936W        W80361  43.923   5.427  12.085
 7937W        W80362  28.298  35.781   3.780
 7938W        W80363  11.305  40.868  14.310
 7939W        W80364  27.913  29.514   4.228
 7940W        W80365   6.503  44.827   3.646
 7941W        W80366   8.050  41.946   4.374
 7942W        W80367  17.614  42.854   4.896
 7943W        W80368  33.087  37.642  14.442
 7944W        W80369   1.498  33.995  10.607
 7945W        W80370  18.712  17.720   1.411
 7946W        W80371  43.835  40.702   1.380
 7947W        W80372  13.619   3.224   4.436
 7948W        W80373  37.822   2.002   1.836
 7949W        W80374  22.583  35.211   4.836
 7950W        W80375  21.077  32.577   4.058
 7951W        W80376   4.326  22.221  13.968
 7952W        W80377   2.559  10.606  10.272
 7953W        W80378  33.232  19.851   2.343
 7954W        W80379  21.910  43.315  14.725
 7955W        W80380  32.426   0.243  12.091
 7956W        W80381  32.893   9.267   1.425
 7957W        W80382  35.375   6.727  12.380
 7958W        W80383  36.527  26.181   2.728
 7959W        W80384  41.912  17.170   0.548
 7960W        W80385  23.746  42.645  11.415
 7961W        W80386  14.949   0.687  10.748
 7962W        W80387  36.107  43.079  12.677
 7963W        W80388  14.280  39.335   3.621
 7964W        W80389  19.053  35.282  12.442
 7965W        W80390  22.044  17.725   2.376
 7966W        W80391  11.230  36.067   2.733
 7967W        W80392  25.083   8.883  13.864
 7968W        W80393  43.219  28.931  12.392
 7969W        W80394  26.194  27.485  13.499
 7970W        W80395  42.266   6.264   2.353
 7971W        W80396   4.173   5.198   3.227
 7972W        W80397  14.722  25.096   3.932
 7973W        W80398  30.562  31.561   1.343
 7974W        W80399  28.994   0.940   0.466
 7975W        W80400  37.939  38.338  13.396
 7976W        W80401  17.595  37.794   4.449
 7977W        W80402  11.848  44.567   3.275
 7978W        W80403   1.080  18.669   2.815
 7979W        W80404  10.635  40.424   3.737
 7980W        W80405  31.066  26.452  12.586
 7981W        W80406   9.431  40.025   3.296
 7982W        W80407  27.427  24.632  13.335
 7983W        W80408   9.136  25.087  14.441
 7984W        W80409  27.183   4.852  13.164
 7985W        W80410  36.479  23.743  11.324
 7986W        W80411  13.182  38.552  10.664
 7987W        W80412   3.443  19.040   0.967
 7988W        W80413  23.015  21.047   1.779
 7989W        W80414   5.269  23.246   0.935
 7990W        W80415  36.863   7.830   4.359
 7991W        W80416  10.860  43.280   2.675
 7992W        W80417  42.572   2.835   2.952
 7993W        W80418  27.167   7.697  14.781
 7994W        W80419  41.639   7.141   4.119
 7995W        W80420  29.982  19.270   1.128
 7996W        W80421  18.303   6.449  12.565
 7997W        W80422  17.648  42.939   2.381
 7998W        W80423  25.673  42.072  12.083
 7999W        W80424  32.606  36.875   4.193
 8000W        W80425   7.719   9.786  13.896
 8001W        W80426   4.964  33.580  11.153
 8002W        W80427  11.356  40.049   4.154
 8003W        W80428   5.301  20.587  12.941
 8004W        W80429   3.839  20.974  12.951
 8005W        W80430  12.789  31.376  11.460
 8006W        W80431  38.088  29.088   2.215
 8007W        W80432  11.705  32.894   1.953
 8008W        W80433  21.169   2.286   3.382
 8009W        W80434  35.011  42.440   4.006
 8010W        W80435   0.909  44.889   2.785
 8011W        W80436  20.191  18.709  14.242
 8012W        W80437   4.046   0.301   3.482
 8013W        W80438   0.321  27.216  13.121
 8014W        W80439   9.942   3.904   3.498
 8015W        W80440  35.041  15.360   0.259
 8016W        W80441   5.636   5.679   0.860
 8017W        W80442  34.568   5.666  12.545
 8018W        W80443  37.342  10.287  11.854
 8019W        W80444  11.329   6.935  13.917
 8020W        W80445  44.955   5.646   3.758
 8021W        W80446  35.463  26.530   0.698
 8022W        W80447   7.752  37.983   2.239
 8023W        W80448  28.979  12.632   1.242
 8024W        W80449   4.362  13.626   1.850
 8025W        W80450   2.469  25.099   1.136
 8026W        W80451  16.632  36.680  13.054
 8027W        W80452  13.360   8.933  13.038
 8028W        W80453  20.179  38.474  10.595
 8029W        W80454   9.428  37.217  10.969
 8030W        W80455  18.753  14.868   4.069
 8031W        W80456  36.732  21.019  13.375
 8032W        W80457   1.637  21.548  14.040
 8033W        W80458  16.574  20.269   3.706
 8034W        W80459  19.788  43.811  12.515
 8035W        W80460  28.133  15.107  11.915
 8036W        W80461  38.696  22.124   4.608
 8037W        W80462  34.307  34.583   3.457
 8038W        W80463  26.915  20.450  11.282
 8039W        W80464  12.082  23.296  12.408
 8040W        W80465  21.799  25.512  11.609
 8041W        W80466  16.632  10.841   3.303
 8042W        W80467  39.894  33.472   1.408
 8043W        W80468  22.596  30.450   2.298
 8044W        W80469  22.755  37.880   1.196
 8045W        W80470   7.270  19.537  13.337
 8046W        W80471  26.199  40.394  13.915
 8047W        W80472  10.364  28.220  13.931
 8048W        W80473  27.300  10.684   3.745
 8049W        W80474  42.906  24.717   3.691
 8050W        W80475  15.638  33.415   4.115
 8051W        W80476  43.533  14.729   2.705
 8052W        W80477   7.645  30.104  13.854
 8053W        W80478  35.491  20.826  12.847
 8054W        W80479   8.898  37.504  13.289
 8055W        W80480  35.823  28.525   3.208
 8056W        W80481  31.152  44.441  10.232
 8057W        W80482   1.645  41.379  10.747
 8058W        W80483  25.338  24.886   3.282
 8059W        W80484  23.043  21.340   4.100
 8060W        W80485  18.608   7.397  12.051
 8061W        W80486  29.088   2.184   2.146
 8062W        W80487  19.093  18.088  11.958
 8063W        W80488  14.486  35.198   1.629
 8064W        W80489   5.863  38.503  11.171
 8065W        W80490   3.522   7.614   4.780
 8066W        W80491  31.031  10.313  11.490
 8067W        W80492  21.953  29.682  12.089
 8068W        W80493  14.800  15.548  12.010
 8069W        W80494  38.845   8.412   1.916
 8070W        W80495  38.002   9.267   0.673
 8071W        W80496  21.164  40.279  14.699
 8072W        W80497   8.657  18.600   2.073
 8073W        W80498  22.000   8.201  13.469
 8074W        W80499   6.210  40.810  10.197
 8075W        W80500  38.428  11.850  12.829
 8076W        W80501  32.678  36.590   1.309
 8077W        W80502  23.979  43.463  12.872
 8078W        W80503   3.684  17.029  13.809
 8079W        W80504  43.877   4.821   4.551
 8080W        W80505  13.615  30.466  14.337
 8081W        W80506  18.832  25.709   2.792
 8082W        W80507  18.644   5.154   4.742
 8083W        W80508  22.309   5.701  12.919
 8084W        W80509   4.858   7.968   1.136
 8085W        W80510  20.717  15.856   1.827
 8086W        W80511  11.253   7.939   2.674
 8087W        W80512  16.072   2.295  13.375
 8088W        W80513   6.161  24.096  12.051
 8089W        W80514  43.736   3.182   1.799
 8090W        W80515  32.914  32.896   1.866
 8091W        W80516  33.283  28.987  14.469
 8092W        W80517  40.096  14.085  13.894
 8093W        W80518   4.097  27.612  10.721
 8094W        W80519   8.791  22.583   0.001
 8095W        W80520  19.889  35.011  10.301
 8096W        W80521   1.755  13.770  11.469
 8097W        W80522  33.364  10.655   2.603
 8098W        W80523  34.728   9.337  10.732
 8099W        W80524  35.682   8.346  10.790
 8100W        W80525   5.874  41.206  10.083
 8101W        W80526  18.094  42.504  13.027
 8102W        W80527   8.748  44.434   0.318
 8103W        W80528  28.202  25.570  14.547
 8104W        W80529  32.372   6.216   0.283
 8105W        W80530  13.807  14.623  12.987
 8106W        W80531   3.289   9.659  12.327
 8107W        W80532  29.226  33.490  10.564
 8108W        W80533  44.445   1.725   0.713
 8109W        W80534  29.367  36.987  12.032
 8110W        W80535  18.156  25.158  10.771
 8111W        W80536  15.079   2.765   2.805
 8112W        W80537   6.970  23.086   3.562
 8113W        W80538  19.110   6.376   1.426
 8114W        W80539   5.702   4.286   4.561
 8115W        W80540   5.218  35.831   4.700
 8116W        W80541  23.264   7.918   4.513
 8117W        W80542  44.555   2.550   3.683
 8118W        W80543   0.554  40.248  14.433
 8119W        W80544   9.682   4.033  14.590
 8120W        W80545  39.741   7.358  11.338
 8121W        W80546   9.258   7.849   4.597
 8122W        W80547  25.405   2.428   1.859
 8123W        W80548   6.696  32.483   4.640
 8124W        W80549   0.161   8.203   4.163
 8125W        W80550  32.791  23.315   2.724
 8126W        W80551  15.130  32.538  11.941
 8127W        W80552   5.217  36.421   2.999
 8128W        W80553  27.885   4.225  14.804
 8129W        W80554  13.126  33.134  13.344
 8130W        W80555   1.572  13.132  12.856
 8131W        W80556  21.674  30.120  12.131
 8132W        W80557  27.693  17.424   0.518
 8133W        W80558   7.016  22.437   4.098
 8134W        W80559   9.610  19.105  14.288
 8135W        W80560  10.182  26.745   3.339
 8136W        W80561  31.410  28.456  11.349
 8137W        W80562  20.193   4.399  13.849
 8138W        W80563  41.003  17.237   2.631
 8139W        W80564  38.936  20.023  13.041
 8140W        W80565   4.823  18.786  10.710
 8141W        W80566  12.877  42.344  13.005
 8142W        W80567   7.151  34.056   3.118
 8143W        W80568  29.941  22.061   2.763
 8144W        W80569  38.599  41.253   0.407
 8145W        W80570  40.439  33.857   2.312
 8146W        W80571  40.766  38.851  14.940
 8147W        W80572  10.648  16.757  11.197
 8148W        W80573  44.314  18.118  11.200
 8149W        W80574  19.443  34.079   2.167
 8150W        W80575   2.828  42.886   2.941
 8151W        W80576  22.760   3.793   1.792
 8152W        W80577  29.974   8.246   1.844
 8153W        W80578   4.741  43.385  10.890
 8154W        W80579  14.441  10.726   2.816
 8155W        W80580  41.578   9.589  12.776
 8156W        W80581  17.172  13.238   2.624
 8157W        W80582  34.488  17.287   3.796
 8158W        W80583  32.477   0.913   2.251
 8159W        W80584  24.082  22.814  11.869
 8160W        W80585  24.990   4.354   2.161
 8161W        W80586  15.900   2.834   4.725
 8162W        W80587  35.857  37.497  13.750
 8163W        W80588   3.667  42.714  14.419
 8164W        W80589  20.764   2.594  11.686
 8165W        W80590  18.471  21.937  11.061
 8166W        W80591  24.555  29.049  11.048
 8167W        W80592   0.390  12.510   0.926
 8168W        W80593  22.701  13.762   3.841
 8169W        W80594  24.661  13.733   4.302
 8170W        W80595  24.596  32.455   4.702
 8171W        W80596  42.848  42.048   1.990
 8172W        W80597  14.707  16.765   2.262
 8173W        W80598  34.958  42.058   4.437
 8174W        W80599  19.324  14.986  14.824
 8175W        W80600   5.666  42.910  14.335
 8176W        W80601  20.685  13.296  13.021
 8177W        W80602   1.789   3.320  12.214
 8178W        W80603  27.529  25.650  11.074
 8179W        W80604  35.843  17.655   4.600
 8180W        W80605  15.245  38.371  13.478
 8181W        W80606   0.201  33.146  12.458
 8182W        W80607  21.493   2.273   0.801
 8183W        W80608  25.658   6.255  11.559
 8184W        W80609  35.120  36.905  11.617
 8185W        W80610   0.980  11.571   3.311
 8186W        W80611   5.228  29.905  12.478
 8187W        W80612  15.376  26.778  13.577
 8188W        W80613  24.032  17.866   2.315
 8189W        W80614   2.962   8.215   4.339
 8190W        W80615  22.181  17.582  10.723
 8191W        W80616  25.106  38.883  12.570
 8192W        W80617  43.507  18.992   0.457
 8193W        W80618  36.531  19.658  12.175
 8194W        W80619  14.024  36.375  11.374
 8195W        W80620  30.124   7.429  11.267
 8196W        W80621  13.406  27.868   4.672
 8197W        W80622  21.737  17.044   4.115
 8198W        W80623  20.713  40.833  10.721
 8199W        W80624  32.289  29.966  14.854
 8200W        W80625   4.441  24.992   2.234
 8201W        W80626  13.666  11.220   3.784
 8202W        W80627  35.749   8.802  11.739
 8203W        W80628  27.112  40.071   2.342
 8204W        W80629  16.813   8.938   3.195
 8205W        W80630  20.007  16.496   1.917
 8206W        W80631  34.824  38.811   0.305
 8207W        W80632  16.421  41.698  11.952
 8208W        W80633  31.491  26.075  11.501
 8209W        W80634  37.353  21.555  14.298
 8210W        W80635   0.813   9.017  11.203
 8211W        W80636  11.658   3.176  13.652
 8212W        W80637  24.523   6.475   2.697
 8213W        W80638  33.037  15.666  14.515
 8214W        W80639  25.447  32.682   1.969
 8215W        W80640  44.568  13.313  13.321
 8216W        W80641  35.882  40.110   3.917
 8217W        W80642   4.240   2.375  11.745
 8218W        W80643  18.693  32.110   2.760
 8219W        W80644  26.544  38.756   5.366
 8220W        W80645  37.726  30.713   3.170
 8221W        W80646  33.862  14.325  14.051
 8222W        W80647  24.399   6.323   1.465
 8223W        W80648  14.950  16.406  11.922
 8224W        W80649  15.509  35.693  13.565
 8225W        W80650  19.130  13.209   3.805
 8226W        W80651  33.716  35.919   0.732
 8227W        W80652  31.088   5.722   4.618
 8228W        W80653  11.296  40.069  11.236
 8229W        W80654  29.468  37.074  13.740
 8230W        W80655  43.520  22.692   1.838
 8231W        W80656   0.897  19.580   0.894
 8232W        W80657  14.038  43.361  14.785
 8233W        W80658   4.762   9.674  10.732
 8234W        W80659  41.596  27.867  13.461
 8235W        W80660  28.992  26.918   2.888
 8236W        W80661   3.285  42.031  12.399
 8237W        W80662  21.224   4.698   4.291
 8238W        W80663  36.515  14.732   2.121
 8239W        W80664  42.094  22.544   1.076
 8240W        W80665  44.189   1.271   0.745
 8241W        W80666  37.871  30.401  12.480
 8242W        W80667  34.633  23.589  14.885
 8243W        W80668  23.977  28.541  12.568
 8244W        W80669  12.216  27.037   1.053
 8245W        W80670  31.061  39.324  14.522
 8246W        W80671  19.722   2.997  12.092
 8247W        W80672  27.224  12.566   2.651
 8248W        W80673   2.556   5.584   4.098
 8249W        W80674  31.288  40.860  14.523
 8250W        W80675  16.409  25.831   3.552
 8251W        W80676  29.120   3.367   0.469
 8252W        W80677  19.575  11.643   4.603
 8253W        W80678   9.275  33.707   1.320
 8254W        W80679   8.878  31.039  12.119
 8255W        W80680  24.598  14.355  13.322
 8256W        W80681   5.275  22.469  11.772
 8257W        W80682   6.754  33.912  13.478
 8258W        W80683  34.604  24.986   3.433
 8259W        W80684  40.993  32.687   0.520
 8260W        W80685  36.616  12.662   2.887
 8261W        W80686   1.527  30.430  12.993
 8262W        W80687   4.509  27.446  11.958
 8263W        W80688  15.101  27.599   0.827
 8264W        W80689  39.038  22.163  11.315
 8265W        W80690   2.247  19.662   0.458
 8266W        W80691  34.452  20.747   3.287
 8267W        W80692   9.440  28.124  13.879
 8268W        W80693  12.727  11.641   3.633
 8269W        W80694  17.547   7.384  12.003
 8270W        W80695   1.462  28.145  11.064
 8271W        W80696  20.801  24.956  12.564
 8272W        W80697  43.770  12.114   2.449
 8273W        W80698   4.485  25.938   4.407
 8274W        W80699  35.938  41.030  11.185
 8275W        W80700  29.168  37.373   0.978
 8276W        W80701  41.261  17.262  13.746
 8277W        W80702  15.685  40.024  14.771
 8278W        W80703  20.657   3.734   1.811
 8279W        W80704  13.769  22.247  10.534
 8280W        W80705  27.552  20.425   0.506
 8281W        W80706  31.002  43.444  10.639
 8282W        W80707  14.085  15.912  13.049
 8283W        W80708   1.949  34.474   0.669
 8284W        W80709  30.550  24.962   1.814
 8285W        W80710  30.450  16.740  10.704
 8286W        W80711  15.243  23.501  11.571
 8287W        W80712  17.423  12.829  12.055
 8288W        W80713  40.960  13.759  14.297
 8289W        W80714  17.081  39.826  13.422
 8290W        W80715   4.378  18.734   0.907
 8291W        W80716  17.252   2.491  13.577
 8292W        W80717  15.689   8.375   2.999
 8293W        W80718  28.684   7.132  12.926
 8294W        W80719  19.348  33.505   3.294
 8295W        W80720  44.330  13.265  11.935
 8296W        W80721  35.278  43.983   2.334
 8297W        W80722  15.619  30.036   1.215
 8298W        W80723  10.307  18.264  10.820
 8299W        W80724  15.422  15.059   4.934
 8300W        W80725  25.535   0.724  12.541
 8301W        W80726  44.437  18.866   4.141
 8302W        W80727  24.534   7.842   2.734
 8303W        W80728  29.130   2.334  13.982
 8304W        W80729  36.667  12.623  10.749
 8305W        W80730  44.540   6.879   3.789
 8306W        W80731   7.285   4.197  12.187
 8307W        W80732  31.404  13.720  10.502
 8308W        W80733  13.223  18.559   2.369
 8309W        W80734  17.393  41.849  12.170
 8310W        W80735  24.713  38.233  14.924
 8311W        W80736  28.083  34.966   4.675
 8312W        W80737  29.400   7.882  12.888
 8313W        W80738   8.441  29.967  12.290
 8314W        W80739  44.851  18.550   2.736
 8315W        W80740   8.120   4.244  13.444
 8316W        W80741  20.870   8.812   5.015
 8317W        W80742  15.324  29.850   5.132
 8318W        W80743   7.924  17.672  14.566
 8319W        W80744  22.487   6.618   2.822
 8320W        W80745   6.057  12.498   4.234
 8321W        W80746  35.825  36.779  11.127
 8322W        W80747   6.689   6.878  14.833
 8323W        W80748  17.168  16.080   3.642
 8324W        W80749  15.054   6.022   0.042
 8325W        W80750  39.480   5.807   1.315
 8326W        W80751  31.974  34.552  11.389
 8327W        W80752   5.503  23.216  12.513
 8328W        W80753  18.354  32.168  13.439
 8329W        W80754  40.398  44.201  11.602
 8330W        W80755  42.828  40.283  12.532
 8331W        W80756   6.001   0.846   3.241
 8332W        W80757  35.762  17.810  13.536
 8333W        W80758  43.473  17.729  11.243
 8334W        W80759  43.939  28.953  14.958
 8335W        W80760  13.101   3.572  10.128
 8336W        W80761  23.661  43.324   1.344
 8337W        W80762  10.197  20.918  11.053
 8338W        W80763  18.626  40.825   0.803
 8339W        W80764  18.830  38.525   2.426
 8340W        W80765  24.917  16.387   4.588
 8341W        W80766   2.634  36.523  10.400
 8342W        W80767  35.446  25.413   1.750
 8343W        W80768  36.219  37.653  10.459
 8344W        W80769  23.687  40.034   4.152
 8345W        W80770  37.359   2.881   3.089
 8346W        W80771   2.790  15.179   2.582
 8347W        W80772  36.153  26.562  11.064
 8348W        W80773  31.366  22.179   1.818
 8349W        W80774  18.674  35.987  12.994
 8350W        W80775  38.498   4.788  11.911
 8351W        W80776  37.384  15.835   2.373
 8352W        W80777  30.941  44.356   4.819
 8353W        W80778   1.949  29.928   2.722
 8354W        W80779  42.256  39.551  11.249
 8355W        W80780  22.552  39.404   4.175
 8356W        W80781  30.997  36.863  13.983
 8357W        W80782  38.449  15.538  12.383
 8358W        W80783  25.585   2.896  14.669
 8359W        W80784  40.001  42.009   1.779
 8360W        W80785   7.350   7.461   4.189
 8361W        W80786  39.401  16.376  12.103
 8362W        W80787  25.717  36.103  12.570
 8363W        W80788   7.532  38.368  13.834
 8364W        W80789  41.358  11.438  12.107
 8365W        W80790   7.535   1.073  10.712
 8366W        W80791  34.208  42.708   1.793
 8367W        W80792  26.936  32.599   1.674
 8368W        W80793   3.388  28.393   1.865
 8369W        W80794  35.440  38.738  13.943
 8370W        W80795  25.680   0.224  11.502
 8371W        W80796  11.773  41.110  14.438
 8372W        W80797  29.141  25.932   2.627
 8373W        W80798  20.474   2.396  12.073
 8374W        W80799  16.372   2.242  12.431
 8375W        W80800   5.909  26.302  14.768
 8376W        W80801  15.231  26.481   1.957
 8377W        W80802  27.308  36.075   2.314
 8378W        W80803   6.680  15.853  10.782
 8379W        W80804  33.006   4.741   4.254
 8380W        W80805  21.034  20.969  14.813
 8381W        W80806   6.546   7.375  10.280
 8382W        W80807  25.469  41.753   4.127
 8383W        W80808   8.605  16.190  10.712
 8384W        W80809  17.851   2.055  11.175
 8385W        W80810  18.633   0.668  14.769
 8386W        W80811  30.456  41.089  10.930
 8387W        W80812   9.455   3.543  13.834
 8388W        W80813  14.197  25.242   0.353
 8389W        W80814   2.290  26.078   2.195
 8390W        W80815  14.151   0.889   4.300
 8391W        W80816   1.295  28.575   0.729
 8392W        W80817  39.724  22.098   2.158
 8393W        W80818  12.729  37.067  12.279
 8394W        W80819   3.962  33.984  13.558
 8395W        W80820  21.335  27.097   1.776
 8396W        W80821  38.513   3.332   3.132
 8397W        W80822  18.517  25.638  10.978
 8398W        W80823   6.344  37.656   1.601
 8399W        W80824  35.244  28.647   4.620
 8400W        W80825  29.146  36.452  10.720
 8401W        W80826  12.275   2.234   0.243
 8402W        W80827  21.398  26.587  11.958
 8403W        W80828  19.621  14.535  10.368
 8404W        W80829  29.267  32.301   4.217
 8405W        W80830   6.181  40.419   3.290
 8406W        W80831  17.622  44.945  11.361
 8407W        W80832   1.031   9.528   3.312
 8408W        W80833  34.111  32.523   4.806
 8409W        W80834  10.273   5.127   3.821
 8410W        W80835   6.392   7.642  12.904
 8411W        W80836  11.243  29.921  12.459
 8412W        W80837  34.659  13.989   0.605
 8413W        W80838  20.615   5.460  13.397
 8414W        W80839  34.082  17.835  11.121
 8415W        W80840  38.961   8.235   2.834
 8416W        W80841  18.126   0.873  14.081
 8417W        W80842  34.564  37.964   1.735
 8418W        W80843  13.639  41.714  13.036
 8419W        W80844  35.523  28.351   4.165
 8420W        W80845  25.715  14.884  11.156
 8421W        W80846  15.693  17.773   3.568
 8422W        W80847  40.975  21.408   1.212
 8423W        W80848   7.775  14.733  13.742
 8424W        W80849  21.081   5.603   4.317
 8425W        W80850  35.817  11.925   0.441
 8426W        W80851  13.109  24.024   4.771
 8427W        W80852  22.963  15.410  14.882
 8428W        W80853   2.523   7.307   4.613
 8429W        W80854  10.688   4.848   1.793
 8430W        W80855  23.789   7.712  14.249
 8431W        W80856  18.803  20.653  12.527
 8432W        W80857  13.778  29.934   3.378
 8433W        W80858   9.828  35.617  13.321
 8434W        W80859  35.299  42.323  11.231
 8435W        W80860  40.460   9.127   0.675
 8436W        W80861  37.488  13.238  10.701
 8437W        W80862  11.410  14.852  11.183
 8438W        W80863  15.145   0.757  14.724
 8439W        W80864  13.399  26.196  14.033
 8440W        W80865  43.799  41.069  12.477
 8441W        W80866   3.749  34.535   4.067
 8442W        W80867  13.109  16.275  12.145
 8443W        W80868  19.123  10.428  13.851
 8444W        W80869  43.097   1.724  14.326
 8445W        W80870  11.413  11.524  12.588
 8446W        W80871  21.168  33.356   3.285
 8447W        W80872  23.071   7.736  10.999
 8448W        W80873   3.033  38.832  13.279
 8449W        W80874  41.257  39.517  14.745
 8450W        W80875   1.294  40.007  13.606
 8451W        W80876  40.614  30.398   4.947
 8452W        W80877  14.259   9.732   4.017
 8453W        W80878  15.296  12.240  11.877
 8454W        W80879  28.787  14.692   1.933
 8455W        W80880  33.269  16.982   3.188
 8456W        W80881  13.275  29.424   1.143
 8457W        W80882  36.850  36.357   4.387
 8458W        W80883  36.937   2.728  14.990
 8459W        W80884   3.637  24.679   3.247
 8460W        W80885  25.180  29.757  11.598
 8461W        W80886   4.460  36.882   3.165
 8462W        W80887  38.381  29.125   4.105
 8463W        W80888  33.129  37.496  12.027
 8464W        W80889  20.330  35.029  14.803
 8465W        W80890   9.242  41.360   3.175
 8466W        W80891  34.470  35.453   3.635
 8467W        W80892  10.570  36.158   1.333
 8468W        W80893   4.002  10.283   2.605
 8469W        W80894  27.125  16.753   0.229
 8470W        W80895   7.450  27.491  11.914
 8471W        W80896  22.980  11.270   9.902
 8472W        W80897  27.131  44.293   2.918
 8473W        W80898   3.474  42.404  14.034
 8474W        W80899   9.330  32.935   0.881
 8475W        W80900  41.141  27.526   2.153
 8476W        W80901  34.559  29.107  11.463
 8477W        W80902  27.495  32.525  10.067
 8478W        W80903   8.577   4.649  13.906
 8479W        W80904  41.791  29.240  12.997
 8480W        W80905  34.612  28.369  13.845
 8481W        W80906  30.107   4.311   1.277
 8482W        W80907  13.591   3.222   2.712
 8483W        W80908  10.595   0.522   3.717
 8484W        W80909  35.445  37.909  10.778
 8485W        W80910  43.329  27.795   4.676
 8486W        W80911  39.126  13.868  11.439
 8487W        W80912  27.195  39.473   4.757
 8488W        W80913   7.185   0.805   3.156
 8489W        W80914  22.716  10.670   4.606
 8490W        W80915  10.920   0.509   2.303
 8491W        W80916  29.470  24.726  12.498
 8492W        W80917  34.784  42.355   0.467
 8493W        W80918  26.057  14.531  13.441
 8494W        W80919  34.543  20.553   3.801
 8495W        W80920  21.231  26.158  10.841
 8496W        W80921   5.329  23.957   1.810
 8497W        W80922  20.619  26.583  13.446
 8498W        W80923  17.253  27.330   3.823
 8499W        W80924  24.278  22.030   0.116
 8500W        W80925  12.220  26.573   3.183
 8501W        W80926   5.323  15.065   3.524
 8502W        W80927  13.108   4.316  13.318
 8503W        W80928  14.313  18.251  12.608
 8504W        W80929  35.116  14.111   4.596
 8505W        W80930  44.236  26.947   0.801
 8506W        W80931  43.524  19.929  12.531
 8507W        W80932  20.743  37.343  13.881
 8508W        W80933  33.033   5.941  14.794
 8509W        W80934  43.425  23.565   0.426
 8510W        W80935   7.463   8.754  11.830
 8511W        W80936  20.586  23.234  13.952
 8512W        W80937   7.124   2.822   2.839
 8513W        W80938  13.318  40.320  12.131
 8514W        W80939  20.979  10.706   5.040
 8515W        W80940  39.275   7.369   0.833
 8516W        W80941   0.208  24.429   1.324
 8517W        W80942  12.358  16.621   4.558
 8518W        W80943  18.012   1.458   2.797
 8519W        W80944  34.593  40.516   4.678
 8520W        W80945  11.537  43.033  11.660
 8521W        W80946  27.179  37.679   0.244
 8522W        W80947  10.716   0.241  10.944
 8523W        W80948  27.582  33.470   0.672
 8524W        W80949  34.910  40.485  11.958
 8525W        W80950  18.863  31.123   3.278
 8526W        W80951   7.178  42.111  14.743
 8527W        W80952  15.990  14.278   4.199
 8528W        W80953  33.605  40.812  14.966
 8529W        W80954  33.018   9.390   1.913
 8530W        W80955  18.151   5.810  14.770
 8531W        W80956   5.333  38.581  11.660
 8532W        W80957  33.417   1.560   3.104
 8533W        W80958  13.252  35.804  14.284
 8534W        W80959   3.581  16.622   3.358
 8535W        W80960  38.578  35.458  13.374
 8536W        W80961   8.871  20.178  13.122
 8537W        W80962  44.532  23.401   3.652
 8538W        W80963  28.516  15.034  11.572
 8539W        W80964  12.925  30.985   1.430
 8540W        W80965  16.169  26.923  10.725
 8541W        W80966  26.100  15.311  11.509
 8542W        W80967   7.279   8.035   0.483
 8543W        W80968  32.084  32.311  11.974
 8544W        W80969  13.663  22.440  13.447
 8545W        W80970  35.093  11.351   3.150
 8546W        W80971  38.638   1.912  12.381
 8547W        W80972  35.656  12.561   1.671
 8548W        W80973  12.131  23.030  12.961
 8549W        W80974  26.996  32.121  10.629
 8550W        W80975  13.342  31.156   3.586
 8551W        W80976  23.262  18.299   0.375
 8552W        W80977  44.402   2.673  11.886
 8553W        W80978  39.518  15.099  12.956
 8554W        W80979  36.776  31.586   3.677
 8555W        W80980  19.774  33.820   0.339
 8556W        W80981   1.471  29.960  14.913
 8557W        W80982  30.770   7.257   2.539
 8558W        W80983  12.540  14.616   2.947
 8559W        W80984  32.425  36.578   1.750
 8560W        W80985   5.288  44.049  13.538
 8561W        W80986  23.817  18.775   4.287
 8562W        W80987   6.490  32.369   1.915
 8563W        W80988  10.946   4.901   0.688
 8564W        W80989  14.528  25.657   0.415
 8565W        W80990  34.130  19.117  14.346
 8566W        W80991   6.340  37.453  10.703
 8567W        W80992  25.750  36.673  14.741
 8568W        W80993  35.587  40.138  12.597
 8569W        W80994  26.863  43.868   1.376
 8570W        W80995  36.338   4.820  11.092
 8571W        W80996  22.197  23.766  12.112
 8572W        W80997  32.074  20.577   2.357
 8573W        W80998   0.955  14.216   4.057
 8574W        W80999  18.479  29.095  10.261
 8575W        W81000  32.555  34.854   4.619
 8576W        W81001  37.925  27.000   0.434
 8577W        W81002  42.003  44.113   4.645
 8578W        W81003  16.621  39.370  11.224
 8579W        W81004   6.459  20.676  11.563
 8580W        W81005  25.017  28.962  12.018
 8581W        W81006  33.449   8.280  12.507
 8582W        W81007  41.929   9.344   4.112
 8583W        W81008  34.607  30.453  11.365
 8584W        W81009  26.283  14.080   2.401
 8585W        W81010  24.262  13.108  10.164
 8586W        W81011   9.584   4.850  12.061
 8587W        W81012  25.133  37.275   0.464
 8588W        W81013   6.386   4.340   0.883
 8589W        W81014  42.266  18.025   0.805
 8590W        W81015  39.283  22.623  10.655
 8591W        W81016  18.034   5.905   3.632
 8592W        W81017  38.705  37.545   2.618
 8593W        W81018   0.564  37.168  13.863
 8594W        W81019  38.439  38.312  14.881
 8595W        W81020  14.502  27.570   3.747
 8596W        W81021   6.245  12.529   0.834
 8597W        W81022  13.103  29.536   3.211
 8598W        W81023  22.046  24.717   0.440
 8599W        W81024   2.921  12.085   1.558
 8600W        W81025   4.917   3.946  10.513
 8601W        W81026   0.634  26.589  10.088
 8602W        W81027   4.590   9.421   0.879
 8603W        W81028  10.972  29.410   4.296
 8604W        W81029  38.672  34.062  11.627
 8605W        W81030  40.617  18.300  13.059
 8606W        W81031  39.360  21.154  14.009
 8607W        W81032  39.052  18.543  10.878
 8608W        W81033  30.400  21.306   2.626
 8609W        W81034   6.657  13.609  14.430
 8610W        W81035  10.433   6.194  11.936
 8611W        W81036   2.219   8.121   1.692
 8612W        W81037  34.441  34.125   2.113
 8613W        W81038  22.293  35.416   1.319
 8614W        W81039  23.211   6.641  11.956
 8615W        W81040  40.824   7.791  12.530
 8616W        W81041  18.929  17.104  10.991
 8617W        W81042  30.922  15.724   3.937
 8618W        W81043  26.469  41.706   1.852
 8619W        W81044   7.711  18.307  12.349
 8620W        W81045  24.141  17.700   4.183
 8621W        W81046  33.132  26.638  12.552
 8622W        W81047   3.328  24.342  13.010
 8623W        W81048   2.807  32.040   0.002
 8624W        W81049  31.119  44.517  13.920
 8625W        W81050  17.667  28.407   4.203
 8626W        W81051   3.047  18.035  11.404
 8627W        W81052  31.935   8.006  14.749
 8628W        W81053   5.400  34.861  11.126
 8629W        W81054   7.245  16.279  12.950
 8630W        W81055  44.865  19.209   1.651
 8631W        W81056   0.962   6.924   2.325
 8632W        W81057   5.882   7.898  10.713
 8633W        W81058  11.826  22.573  14.585
 8634W        W81059  28.630  25.705   4.351
 8635W        W81060   7.396  28.374  14.527
 8636W        W81061  13.132  23.152  12.560
 8637W        W81062   0.258  26.898   1.419
 8638W        W81063  11.152  33.046  14.469
 8639W        W81064  25.728  21.956  12.455
 8640W        W81065  44.464   3.796  13.883
 8641W        W81066  10.188  18.336  12.127
 8642W        W81067   4.806   7.196  11.134
 8643W        W81068   3.821   5.126  13.346
 8644W        W81069  43.083   5.481   2.342
 8645W        W81070  18.394  42.811   1.773
 8646W        W81071  10.636  27.040   3.330
 8647W        W81072   5.197  44.358   3.618
 8648W        W81073  31.945  39.613   2.459
 8649W        W81074  37.978   7.863  12.994
 8650W        W81075  39.673  17.134  11.557
 8651W        W81076   4.299  29.058  11.612
 8652W        W81077   5.202  41.879   4.764
 8653W        W81078   9.330  40.730  13.359
 8654W        W81079  39.142   5.647   3.695
 8655W        W81080  36.469  24.056   0.965
 8656W        W81081  25.477  12.215  11.769
 8657W        W81082  17.747  18.063   0.734
 8658W        W81083  28.469  21.100   3.601
 8659W        W81084   6.884  24.021   3.982
 8660W        W81085   7.055  17.153   1.848
 8661W        W81086  41.080  33.071  12.594
 8662W        W81087   8.833   9.465   4.037
 8663W        W81088  28.738   7.653   3.759
 8664W        W81089   5.924  21.353   2.618
 8665W        W81090   4.443  29.139  12.090
 8666W        W81091   6.350  35.335  13.851
 8667W        W81092  26.635  24.722   3.739
 8668W        W81093  27.539  33.808  13.405
 8669W        W81094  29.711  26.720   0.880
 8670W        W81095  28.923  44.922   0.470
 8671W        W81096   1.802  15.618  14.796
 8672W        W81097  38.370  13.802   0.013
 8673W        W81098  25.947  25.050  11.887
 8674W        W81099  21.537   9.905   3.189
 8675W        W81100   9.796   7.129  11.556
 8676W        W81101  35.676  30.438  11.041
 8677W        W81102  41.308   8.840  13.294
 8678W        W81103  12.326  42.026   2.360
 8679W        W81104  33.371  29.594  11.242
 8680W        W81105  32.065  43.249  12.652
 8681W        W81106  42.962  23.175  14.477
 8682W        W81107  34.644  13.153  11.884
 8683W        W81108   9.570   8.221   4.296
 8684W        W81109  34.313  21.872  11.970
 8685W        W81110  20.072   9.901  13.141
 8686W        W81111  26.622  15.634  12.188
 8687W        W81112  20.332   8.705  10.471
 8688W        W81113  20.578   7.283   4.887
 8689W        W81114  10.054   9.651  13.806
 8690W        W81115  26.180  22.194  10.665
 8691W        W81116   9.698  40.270   2.698
 8692W        W81117  33.374  29.575   1.665
 8693W        W81118   9.056  11.775   0.280
 8694W        W81119  42.379   3.017   3.813
 8695W        W81120  33.343  15.692   4.546
 8696W        W81121  16.856   3.829  12.946
 8697W        W81122  13.808  35.310   0.007
 8698W        W81123  27.616  17.682   4.032
 8699W        W81124  24.795   8.794  11.617
 8700W        W81125  16.661   3.579   0.659
 8701W        W81126  24.853   4.213  11.321
 8702W        W81127  31.114  38.842   4.243
 8703W        W81128  29.187  28.162  14.505
 8704W        W81129  36.032  42.802  11.178
 8705W        W81130  10.896   5.408  11.000
 8706W        W81131  15.299  28.085   2.797
 8707W        W81132   4.724  39.108   2.285
 8708W        W81133  17.617  25.986  14.866
 8709W        W81134  19.373  11.322  10.625
 8710W        W81135  33.554  18.496  13.006
 8711W        W81136  22.141  20.966   3.220
 8712W        W81137  43.187   3.221   4.995
 8713W        W81138  44.370  10.675   4.862
 8714W        W81139  36.575   9.048   2.176
 8715W        W81140   9.760  32.121  11.956
 8716W        W81141  16.286  38.144   2.720
 8717W        W81142  41.801  41.277   4.191
 8718W        W81143  12.205  11.382   2.624
 8719W        W81144  19.558  32.408  12.632
 8720W        W81145  44.907  15.539   0.526
 8721W        W81146  15.224  22.182  10.880
 8722W        W81147  20.572  17.991   2.016
 8723W        W81148  10.677   7.877  12.161
 8724W        W81149  38.642  27.242  14.134
 8725W        W81150  16.684  12.680   4.759
 8726W        W81151  27.900  34.013   0.289
 8727W        W81152  13.370  13.754   0.725
 8728W        W81153  31.880  44.295   4.683
 8729W        W81154   8.541   8.383  12.514
 8730W        W81155  27.446  27.029   4.385
 8731W        W81156  43.413   2.035   1.307
 8732W        W81157  25.644  24.190   4.432
 8733W        W81158  22.920  16.485  14.925
 8734W        W81159  18.560  27.683   4.075
 8735W        W81160  40.154  33.901   2.740
 8736W        W81161  26.442  17.545  12.370
 8737W        W81162  42.827  31.376   0.744
 8738W        W81163  34.580  12.225   3.167
 8739W        W81164   7.642  12.597  11.594
 8740W        W81165  25.681  15.817  11.778
 8741W        W81166  41.839  18.608  13.134
 8742W        W81167  10.173  32.812   2.759
 8743W        W81168   9.177   6.338  11.476
 8744W        W81169   2.498  18.260   0.970
 8745W        W81170  18.239  30.837  13.967
 8746W        W81171  41.412  14.843   4.080
 8747W        W81172   9.450   2.156  14.011
 8748W        W81173  23.783  20.973  12.024
 8749W        W81174  37.952  10.836  14.329
 8750W        W81175   2.434  20.059   4.597
 8751W        W81176  20.388   1.270  11.050
 8752W        W81177  43.350   8.532  14.529
 8753W        W81178  20.665  21.066  11.463
 8754W        W81179   9.593   3.818   3.117
 8755W        W81180   6.704  19.071   4.213
 8756W        W81181   4.792  28.660  14.802
 8757W        W81182  27.042  13.275  14.877
 8758W        W81183  30.047   8.942  14.335
 8759W        W81184   0.310  39.764  13.866
 8760W        W81185  31.501  25.566   4.208
 8761W        W81186  30.997  40.017  13.857
 8762W        W81187  31.951   2.402   4.960
 8763W        W81188  36.144   5.850   2.688
 8764W        W81189  40.358  16.316   2.312
 8765W        W81190   8.228  37.787  14.954
 8766W        W81191  27.709  36.621   4.854
 8767W        W81192  44.755  21.090   1.881
 8768W        W81193   9.152   4.517   3.656
 8769W        W81194  23.189  18.492  14.399
 8770W        W81195  34.892  30.844   4.610
 8771W        W81196  23.479  26.752   2.926
 8772W        W81197  44.936  12.671   0.715
 8773W        W81198   1.395  26.024  12.379
 8774W        W81199  14.336  31.690   4.356
 8775W        W81200   5.924   0.081   4.554
 8776W        W81201  37.256  42.057   1.995
 8777W        W81202  35.192  17.217   2.462
 8778W        W81203  25.555  32.714  13.109
 8779W        W81204  36.266  26.493   0.274
 8780W        W81205   5.883  41.911  11.265
 8781W        W81206   3.750  13.357  10.708
 8782W        W81207  14.832  38.356  12.516
 8783W        W81208  14.844  41.371  13.192
 8784W        W81209  25.720  17.871  14.010
 8785W        W81210  42.311  13.421  14.488
 8786W        W81211  15.922  10.464  13.405
 8787W        W81212  29.224  28.555   1.389
 8788W        W81213  22.144  23.891  14.838
 8789W        W81214   7.623  10.075  14.317
 8790W        W81215  31.464  32.491  10.978
 8791W        W81216   3.812   9.309   1.220
 8792W        W81217  27.161  25.556   3.951
 8793W        W81218  25.022  20.592  10.706
 8794W        W81219  12.283   7.520   1.526
 8795W        W81220  25.039  26.307   5.122
 8796W        W81221  24.004  35.850   0.064
 8797W        W81222   4.857   8.975   0.992
 8798W        W81223  25.948  17.178   1.394
 8799W        W81224  26.426  13.252  12.876
 8800W        W81225  39.737  23.429   2.352
 8801W        W81226  15.065  23.237  13.899
 8802W        W81227   9.718   4.948  10.706
 8803W        W81228  16.360   2.808  11.315
 8804W        W81229  32.152  12.597   0.635
 8805W        W81230  23.688  21.454   1.002
 8806W        W81231   2.862  23.429  12.002
 8807W        W81232  12.255  28.180  12.641
 8808W        W81233  32.696  31.424  10.375
 8809W        W81234  27.494  26.694  10.377
 8810W        W81235  26.705   5.021   2.689
 8811W        W81236  31.461  15.218   1.795
 8812W        W81237   8.192  39.425  14.604
 8813W        W81238  11.242   6.012  14.803
 8814W        W81239  35.006  40.854  13.029
 8815W        W81240  30.872  14.149   0.813
 8816W        W81241  15.360  21.244  11.142
 8817W        W81242   1.434   8.002  11.086
 8818W        W81243   1.784  40.587  13.677
 8819W        W81244  26.269  36.051  13.960
 8820W        W81245   1.884   2.961   3.175
 8821W        W81246  21.557  24.662  10.703
 8822W        W81247  37.838  23.198   4.915
 8823W        W81248  37.002  17.230  12.131
 8824W        W81249  38.560  37.486  10.216
 8825W        W81250  28.012  16.044   2.454
 8826W        W81251  13.859  12.881  11.621
 8827W        W81252   1.824  44.053   1.637
 8828W        W81253  15.389   0.940  10.678
 8829W        W81254  11.694  24.240   3.383
 8830W        W81255   0.455  28.256   9.936
 8831W        W81256   7.235  26.927  14.445
 8832W        W81257  18.505  12.863   2.263
 8833W        W81258   6.521  41.969   3.137
 8834W        W81259   6.820  13.378   0.268
 8835W        W81260  42.773  39.773   3.551
 8836W        W81261  39.537  35.225  13.338
 8837W        W81262   3.334  10.591  12.798
 8838W        W81263   5.070  30.385   0.370
 8839W        W81264  18.368  32.100  10.206
 8840W        W81265  33.026  39.740  11.445
 8841W        W81266  37.984  35.427  11.441
 8842W        W81267  22.626  13.323   4.574
 8843W        W81268  33.050  37.368   0.990
 8844W        W81269  33.961   3.398  14.360
 8845W        W81270  44.729  39.078   1.167
 8846W        W81271  12.308  21.228  14.068
 8847W        W81272  25.565   5.012  10.695
 8848W        W81273  25.026  40.328  14.313
 8849W        W81274  37.157  38.554   0.808
 8850W        W81275  10.530  14.269   3.869
 8851W        W81276  29.705  40.372  14.328
 8852W        W81277  31.385  11.940   1.318
 8853W        W81278  22.919  18.215  11.965
 8854W        W81279  18.757  26.934  10.427
 8855W        W81280  24.826  29.050   3.722
 8856W        W81281  19.312  18.376  14.350
 8857W        W81282   6.385  10.196  13.140
 8858W        W81283   1.409  25.701   1.427
 8859W        W81284   3.281   6.785   2.697
 8860W        W81285  44.859  35.257   4.598
 8861W        W81286  35.784  35.507   3.324
 8862W        W81287  34.904  10.635  11.559
 8863W        W81288  12.810  20.056   2.680
 8864W        W81289  42.508  37.821   4.134
 8865W        W81290  23.067  44.458   1.173
 8866W        W81291  33.982  37.067   4.384
 8867W        W81292  35.903  22.603  14.028
 8868W        W81293   2.755  29.841   4.287
 8869W        W81294   5.683   6.584  10.986
 8870W        W81295  18.066  17.226   2.769
 8871W        W81296  16.776  32.999  10.629
 8872W        W81297  36.928   5.316  10.983
 8873W        W81298  29.156  21.259   1.791
 8874W        W81299   6.812  11.245  13.530
 8875W        W81300  21.256  19.344  13.332
 8876W        W81301  29.380  43.055  10.217
 8877W        W81302  38.090  22.079  11.030
 8878W        W81303  28.076  34.095  11.987
 8879W        W81304  34.110  36.802  11.492
 8880W        W81305   0.802  43.667  14.685
 8881W        W81306  20.692  31.125  10.695
 8882W        W81307  14.595  31.957   1.808
 8883W        W81308   9.149  41.806   1.422
 8884W        W81309  20.989  36.980  13.526
 8885W        W81310  38.954  38.377   4.943
 8886W        W81311  38.550  29.344   4.556
 8887W        W81312  20.690  34.097   1.800
 8888W        W81313  44.744  15.340  13.983
 8889W        W81314  39.810   0.545   9.829
 8890W        W81315  32.062  13.203  11.951
 8891W        W81316  16.654  28.446  11.938
 8892W        W81317  26.641  21.463   3.408
 8893W        W81318  39.602  40.137   2.729
 8894W        W81319  29.867  18.043   2.815
 8895W        W81320  10.851  37.452   0.817
 8896W        W81321  27.559  39.039  13.203
 8897W        W81322   1.690   6.255  14.303
 8898W        W81323  16.136  15.513  13.036
 8899W        W81324  18.003  12.954  15.000
 8900W        W81325  37.386  16.592  13.403
 8901W        W81326  32.889  22.690   3.031
 8902W        W81327   0.618  17.665  14.476
 8903W        W81328  26.622   7.952   3.646
 8904W        W81329   1.729   5.535  13.360
 8905W        W81330  35.275   5.676  12.056
 8906W        W81331  36.562   4.795   0.773
 8907W        W81332  33.599   9.767   0.998
 8908W        W81333   7.240  39.236  11.573
 8909W        W81334  28.985  12.865  10.770
 8910W        W81335  39.399  19.299  11.345
 8911W        W81336  36.111  10.711   3.315
 8912W        W81337  27.949  25.161  14.763
 8913W        W81338  41.503   8.066  14.160
 8914W        W81339  15.594  17.358   0.406
 8915W        W81340   5.644  13.278   4.606
 8916W        W81341   7.865   7.253  14.515
 8917W        W81342  14.204   6.735  13.412
 8918W        W81343  27.512  25.884   3.145
 8919W        W81344   1.291  24.480   4.112
 8920W        W81345  18.908  43.022  13.508
 8921W        W81346  39.085  21.180  12.203
 8922W        W81347  27.397   2.965  12.698
 8923W        W81348  17.086  32.165  13.697
 8924W        W81349   1.820  12.405  11.257
 8925W        W81350  34.930  25.444   1.690
 8926W        W81351  43.799  30.353   3.381
 8927W        W81352  44.428  18.692  10.250
 8928W        W81353   4.301  25.490  10.422
 8929W        W81354  25.198  16.607   3.243
 8930W        W81355  44.619  38.433   1.424
 8931W        W81356  37.654   6.257  12.647
 8932W        W81357  29.941  32.677   5.540
 8933W        W81358  42.805  27.099  14.312
 8934W        W81359  25.499  11.649  14.454
 8935W        W81360  15.833  24.391   3.637
 8936W        W81361  15.050  19.505  11.123
 8937W        W81362  37.171  18.244   0.775
 8938W        W81363  12.343   0.294   4.250
 8939W        W81364  24.043   2.225   1.991
 8940W        W81365  44.293  11.989   0.188
 8941W        W81366  14.222  36.019   0.999
 8942W        W81367  30.039  16.765   4.400
 8943W        W81368  39.014  41.764  11.813
 8944W        W81369   5.448  12.655  14.691
 8945W        W81370  22.652  19.701   2.431
 8946W        W81371  41.731  27.699   0.748
 8947W        W81372  28.758  42.940  12.635
 8948W        W81373  33.475  15.258   4.248
 8949W        W81374  43.805  30.251  12.637
 8950W        W81375  10.254  10.349  12.107
 8951W        W81376   4.725  44.973  14.034
 8952W        W81377  11.387  10.729  11.595
 8953W        W81378   4.978  43.354  13.073
 8954W        W81379  16.688  15.614  13.357
 8955W        W81380   7.971  44.881   2.243
 8956W        W81381  26.961  42.273  13.590
 8957W        W81382  32.860   9.946  12.571
 8958W        W81383   4.709  38.392  11.391
 8959W        W81384  33.586  21.313   0.377
 8960W        W81385  30.628  39.947   2.910
 8961W        W81386  15.654  38.981   1.246
 8962W        W81387  12.859  12.818  13.936
 8963W        W81388  38.349  20.045   0.921
 8964W        W81389  21.135   8.377  13.074
 8965W        W81390  27.022  34.920   2.966
 8966W        W81391  15.672  38.466  14.881
 8967W        W81392  34.487  39.355  12.086
 8968W        W81393  17.833  33.364  14.189
 8969W        W81394  19.660  10.714   2.098
 8970W        W81395  34.850   8.454  13.992
 8971W        W81396  41.328  29.573   4.506
 8972W        W81397  36.249  36.815  12.839
 8973W        W81398  14.437  14.230   4.499
 8974W        W81399  32.680  18.897   5.094
 8975W        W81400  35.943  44.467  12.441
 8976W        W81401  28.724  24.702   0.696
 8977W        W81402   2.425  43.176   4.471
 8978W        W81403   5.421  23.003   0.445
 8979W        W81404  41.192   7.344   1.768
 8980W        W81405  31.194  35.346   1.628
 8981W        W81406  32.586  10.041   1.110
 8982W        W81407   1.933  18.966   0.886
 8983W        W81408  31.610  29.689   4.281
 8984W        W81409  27.631  14.264   4.058
 8985W        W81410   8.828  28.439  15.000
 8986W        W81411   6.875  35.813  14.356
 8987W        W81412  33.410  32.522  12.086
 8988W        W81413  38.481  18.700  14.331
 8989W        W81414  33.603   6.273  12.507
 8990W        W81415  34.173  31.539  12.057
 8991W        W81416   6.709  22.709  12.990
 8992W        W81417  10.189  32.409  10.545
 8993W        W81418  22.106  27.585  12.370
 8994W        W81419  42.706  15.188  10.694
 8995W        W81420  42.015  17.600   1.761
 8996W        W81421  15.222  26.474  14.265
 8997W        W81422  34.740  43.959   0.831
 8998W        W81423  43.511  43.141  10.986
 8999W        W81424  31.017  17.103  12.865
 9000W        W81425   6.519  37.404  11.414
 9001W        W81426  19.036   6.103   0.997
 9002W        W81427  11.486  19.314   4.626
 9003W        W81428  11.082  39.142   1.276
 9004W        W81429  43.824  32.595   2.704
 9005W        W81430  31.632  33.387  14.173
 9006W        W81431   1.982   5.024  10.992
 9007W        W81432  26.354  21.700  13.484
 9008W        W81433   2.972  20.671  13.069
 9009W        W81434  24.658  34.236   1.980
 9010W        W81435   3.015  18.075   2.835
 9011W        W81436  20.171  34.176  13.312
 9012W        W81437  26.580  29.149  11.539
 9013W        W81438  30.339   7.187  13.736
 9014W        W81439  11.423   0.662   1.399
 9015W        W81440  14.547  27.095  12.661
 9016W        W81441  43.938  33.908   3.359
 9017W        W81442  40.824   6.850  12.103
 9018W        W81443  26.644  36.117   3.148
 9019W        W81444   5.324  26.246  10.679
 9020W        W81445  42.187   1.968  11.377
 9021W        W81446   1.141  27.547  10.951
 9022W        W81447  40.259   5.748   4.495
 9023W        W81448  27.556  24.436  14.813
 9024W        W81449   5.107  27.967  13.036
 9025W        W81450  43.423  44.538  14.404
 9026W        W81451  21.095  31.043  11.410
 9027W        W81452  21.748  36.770  11.075
 9028W        W81453  30.547  41.426   2.333
 9029W        W81454  25.626  23.671   4.475
 9030W        W81455  37.109  39.889   0.303
 9031W        W81456  23.678  40.502   4.375
 9032W        W81457  10.863  12.892   2.659
 9033W        W81458  39.486  44.404   1.230
 9034W        W81459   3.720  25.611  13.571
 9035W        W81460  14.910  17.256   0.970
 9036W        W81461  13.217  12.390  10.716
 9037W        W81462  36.056  12.342  13.289
 9038W        W81463  32.767  39.504   2.716
 9039W        W81464  21.053  37.463  14.685
 9040W        W81465  23.145   0.331   1.239
 9041W        W81466  29.229  12.111  13.778
 9042W        W81467  43.905  30.712   0.199
 9043W        W81468  14.178  21.173   3.193
 9044W        W81469  28.020   7.683  11.133
 9045W        W81470  25.460  18.379   3.816
 9046W        W81471  13.744  24.633   2.583
 9047W        W81472  19.247  25.599  14.607
 9048W        W81473  38.338  11.454  10.870
 9049W        W81474  26.638   4.704  14.451
 9050W        W81475  44.399  30.706   9.980
 9051W        W81476  42.248   5.312  12.436
 9052W        W81477  43.061  42.359  14.901
 9053W        W81478  34.284  38.162  11.134
 9054W        W81479  13.329  36.537   0.009
 9055W        W81480   6.319  11.870   3.723
 9056W        W81481   3.731  43.951  13.755
 9057W        W81482  33.028   1.185   2.275
 9058W        W81483  14.717  41.378   2.178
 9059W        W81484  35.053  21.127  14.913
 9060W        W81485  14.670  39.434   2.923
 9061W        W81486   0.086  18.084  13.048
 9062W        W81487  23.257  28.277   0.754
 9063W        W81488  41.512  34.926  13.809
 9064W        W81489  23.046  43.939   4.284
 9065W        W81490   4.448   0.403  10.654
 9066W        W81491  20.570  43.144   1.887
 9067W        W81492  32.546  21.221   0.295
 9068W        W81493   1.378  12.663  11.032
 9069W        W81494  41.869   2.845  12.952
 9070W        W81495   0.986  44.372   4.603
 9071W        W81496   3.877   2.593  11.096
 9072W        W81497   4.373  42.079  11.126
 9073W        W81498   2.702  43.820  11.654
 9074W        W81499  43.829  41.960  11.602
 9075W        W81500  19.737  12.367   4.475
 9076W        W81501   7.061  43.020  12.329
 9077W        W81502  11.683  33.291  14.914
 9078W        W81503   0.695  14.699   0.055
 9079W        W81504  15.355  44.245  10.481
 9080W        W81505  25.370  11.817   0.807
 9081W        W81506   9.003  27.841  13.858
 9082W        W81507  38.970   2.287  11.491
 9083W        W81508  40.077  10.794   1.505
 9084W        W81509  28.168  34.096   0.770
 9085W        W81510  20.237  13.642  13.712
 9086W        W81511   2.327  31.512   0.251
 9087W        W81512  17.213  34.475  11.166
 9088W        W81513  41.817  24.722   1.172
 9089W        W81514  21.003  42.881   4.983
 9090W        W81515  32.466  33.168   2.562
 9091W        W81516  35.117  24.009  12.515
 9092W        W81517  36.133  11.738  10.577
 9093W        W81518  21.173  18.700   0.954
 9094W        W81519  26.553   1.248   4.173
 9095W        W81520   8.736   5.653  14.106
 9096W        W81521  18.177   3.154  12.025
 9097W        W81522  33.572   4.928  12.946
 9098W        W81523  44.270   9.961  11.950
 9099W        W81524  24.127  34.548   4.127
 9100W        W81525  18.086   2.552  11.168
 9101W        W81526  44.836  25.646  14.880
 9102W        W81527  16.349  36.066  12.815
 9103W        W81528   5.441   7.163  11.984
 9104W        W81529  19.232  34.427   4.516
 9105W        W81530   0.303  34.582   4.527
 9106W        W81531  40.057  29.198  10.738
 9107W        W81532  34.526  31.687   3.755
 9108W        W81533  30.006   4.721   4.128
 9109W        W81534  41.866  42.762  12.979
 9110W        W81535  36.529  35.356  13.882
 9111W        W81536  17.342   5.142  13.952
 9112W        W81537  38.875  11.198  13.788
 9113W        W81538   5.390  20.635  13.454
 9114W        W81539  32.063   9.058  13.374
 9115W        W81540  40.596  41.414   2.973
 9116W        W81541   7.103  10.753  11.481
 9117W        W81542  27.996   2.790   4.109
 9118W        W81543  27.927   8.771  13.797
 9119W        W81544  37.465  17.209   0.274
 9120W        W81545  23.512  38.296  12.925
 9121W        W81546  28.222  43.321   2.363
 9122W        W81547   1.395  37.345  13.362
 9123W        W81548  21.350  18.229  14.355
 9124W        W81549   4.644  26.158  11.883
 9125W        W81550   3.011  10.406   2.680
 9126W        W81551  21.743  15.171  11.500
 9127W        W81552  14.016  44.323  11.424
 9128W        W81553  33.201  10.715  11.581
 9129W        W81554  30.555   0.210   1.866
 9130W        W81555  11.652  11.919   4.134
 9131W        W81556   1.250  37.534   0.980
 9132W        W81557  32.786  20.970  11.448
 9133W        W81558  35.624  25.705   3.740
 9134W        W81559  34.875  32.654   2.289
 9135W        W81560  30.725  27.425  14.490
 9136W        W81561  26.835  40.978  12.536
 9137W        W81562   3.240  36.889   2.411
 9138W        W81563  40.791   1.633  14.410
 9139W        W81564  37.894  41.706  13.353
 9140W        W81565  23.270  43.956   0.824
 9141W        W81566   3.815  33.947  14.457
 9142W        W81567   2.892   8.910  10.625
 9143W        W81568  19.138  38.053  12.617
 9144W        W81569   4.780  30.827  11.881
 9145W        W81570  15.054  24.794   4.679
 9146W        W81571  26.922  12.838   3.603
 9147W        W81572   5.891   2.798   0.360
 9148W        W81573  22.645  40.368   1.684
 9149W        W81574  34.952  43.351   0.532
 9150W        W81575  21.287  38.536   2.939
 9151W        W81576  25.764  30.772  10.087
 9152W        W81577  41.797  32.579   1.668
 9153W        W81578   3.836  11.123  13.790
 9154W        W81579  29.432  30.883  13.525
 9155W        W81580   9.991  35.534   3.647
 9156W        W81581  30.589   0.623  10.677
 9157W        W81582  23.518  44.004  10.655
 9158W        W81583   9.630  20.748  13.008
 9159W        W81584  21.649   3.257  12.008
 9160W        W81585  21.586   7.236   4.612
 9161W        W81586  20.254  21.681  13.295
 9162W        W81587   5.799   4.384   2.818
 9163W        W81588  30.911  12.954  10.956
 9164W        W81589   6.468  21.706  14.929
 9165W        W81590   0.869  38.902  13.974
 9166W        W81591  40.151  26.958  10.968
 9167W        W81592  21.347  33.929  12.072
 9168W        W81593  16.031  40.887   3.053
 9169W        W81594  32.089  40.339  11.438
 9170W        W81595  39.391  18.512  11.650
 9171W        W81596  35.631   5.479   3.319
 9172W        W81597  40.854  39.253  11.507
 9173W        W81598  16.142  36.528   4.374
 9174W        W81599  20.131  30.966  11.199
 9175W        W81600   8.800  43.537   4.320
 9176W        W81601  34.609   3.797  13.087
 9177W        W81602  12.430  24.198   5.748
 9178W        W81603   4.667  25.009  12.310
 9179W        W81604  25.255   6.698  13.405
 9180W        W81605  19.441   7.704   0.988
 9181W        W81606  41.965  37.381   2.150
 9182W        W81607  12.102  10.196   1.877
 9183W        W81608  33.893   1.314  11.525
 9184W        W81609  31.760  31.911  12.613
 9185W        W81610   6.596  37.171   0.894
 9186W        W81611   8.875  36.926   3.297
 9187W        W81612  16.711   9.269   0.743
 9188W        W81613   5.550  25.567  10.859
 9189W        W81614  35.461  17.222  12.421
 9190W        W81615  37.371   2.632  13.092
 9191W        W81616  10.987  37.263   5.113
 9192W        W81617   0.439  42.882   2.714
 9193W        W81618  33.120  27.677   4.739
 9194W        W81619  28.894  10.283   0.819
 9195W        W81620  28.549   3.024  13.483
 9196W        W81621  35.426   2.847  12.952
 9197W        W81622  19.534   0.925  12.975
 9198W        W81623  22.464  26.065  11.316
 9199W        W81624   7.143  26.984   1.834
 9200W        W81625  17.583  43.960  12.070
 9201W        W81626  44.702  12.585   3.189
 9202W        W81627  37.373  23.191  12.082
 9203W        W81628  14.204  16.594   2.266
 9204W        W81629  20.616  42.766  12.190
 9205W        W81630  10.098  43.239   4.146
 9206W        W81631  32.068  29.153   1.401
 9207W        W81632  12.693  15.369   3.415
 9208W        W81633  18.819   6.623  12.047
 9209W        W81634  28.672  32.027   2.324
 9210W        W81635   5.970  26.545   3.872
 9211W        W81636   3.466  27.108  13.852
 9212W        W81637  22.169   5.377   1.365
 9213W        W81638  19.507  31.429  10.665
 9214W        W81639  18.825  42.525  13.440
 9215W        W81640   6.159  19.997   1.335
 9216W        W81641  34.291  35.099  13.495
 9217W        W81642   0.237   8.758  10.547
 9218W        W81643  29.397  33.675  12.864
 9219W        W81644  27.698  28.340  11.608
 9220W        W81645   1.094  26.167  12.769
 9221W        W81646   6.721  21.713  11.644
 9222W        W81647  37.634  13.115   2.647
 9223W        W81648  19.134  29.015  13.437
 9224W        W81649  20.279   8.160   2.810
 9225W        W81650   3.232  20.992  10.587
 9226W        W81651  11.592  38.941  13.880
 9227W        W81652  12.617  37.863  13.892
 9228W        W81653   7.982   6.035   2.406
 9229W        W81654  36.755  43.955   1.253
 9230W        W81655  43.159  17.859  12.148
 9231W        W81656   7.329  29.758  12.871
 9232W        W81657  38.820   0.746   1.335
 9233W        W81658  30.111   2.488   3.694
 9234W        W81659  21.032  25.071   3.723
 9235W        W81660  37.063  44.989   4.638
 9236W        W81661  43.752  24.376  10.266
 9237W        W81662  43.967  35.570   4.601
 9238W        W81663   0.784  20.306   4.674
 9239W        W81664  10.172  38.339  11.614
 9240W        W81665  21.806  16.845  13.673
 9241W        W81666  14.651  25.495   3.300
 9242W        W81667  31.964  21.834   2.941
 9243W        W81668  28.295  15.426  14.987
 9244W        W81669  37.503  43.678  11.983
 9245W        W81670  21.489  32.054   1.640
 9246W        W81671  41.695   6.292  13.455
 9247W        W81672  10.794  14.199  13.555
 9248W        W81673  32.501  25.250   4.706
 9249W        W81674  43.085   9.395  14.572
 9250W        W81675   3.126   8.765  12.032
 9251W        W81676  21.006  10.159  14.994
 9252W        W81677  17.247   5.623   0.197
 9253W        W81678  44.005   6.827  14.295
 9254W        W81679   6.428  42.812   4.689
 9255W        W81680  23.959  21.764  11.656
 9256W        W81681  23.751  35.902   0.994
 9257W        W81682  36.409   6.206  10.981
 9258W        W81683  38.871   6.193   1.888
 9259W        W81684  13.347   2.929   4.984
 9260W        W81685  44.932  13.576   0.125
 9261W        W81686  43.828   2.047  12.673
 9262W        W81687  36.403  42.252  14.333
 9263W        W81688   5.720  14.408  13.426
 9264W        W81689  25.671  33.479  13.642
 9265W        W81690   7.689   6.649  11.012
 9266W        W81691  39.722  28.114  12.929
 9267W        W81692   1.937  34.320  14.286
 9268W        W81693   5.842  36.123   3.634
 9269W        W81694  15.685  41.533   2.143
 9270W        W81695  16.305  16.990   4.511
 9271W        W81696  14.721   4.884  13.912
 9272W        W81697  44.862  28.936  14.421
 9273W        W81698   3.673   5.129   3.416
 9274W        W81699   3.246  24.337   4.985
 9275W        W81700  36.533  30.891  12.358
 9276W        W81701  18.130  41.595  14.902
 9277W        W81702  41.524   2.161   2.141
 9278W        W81703  33.011   3.863   4.619
 9279W        W81704  33.349  25.916   0.821
 9280W        W81705  27.677  22.136   1.824
 9281W        W81706  12.752  38.974   4.224
 9282W        W81707  13.114  42.902   4.021
 9283W        W81708   3.779  24.972  11.840
 9284W        W81709   4.328  32.822   0.987
 9285W        W81710  17.809  36.833   0.441
 9286W        W81711   3.499  28.016   2.686
 9287W        W81712  13.932  16.774  11.954
 9288W        W81713  35.648   1.340   1.802
 9289W        W81714  42.611  39.123   3.836
 9290W        W81715  28.584  20.727   4.879
 9291W        W81716  22.067  23.740   2.659
 9292W        W81717   8.666  26.240  10.781
 9293W        W81718  10.193   9.273  11.080
 9294W        W81719  17.887  32.668   2.863
 9295W        W81720  43.839  19.108  12.544
 9296W        W81721  26.531   7.385  13.581
 9297W        W81722  28.651  22.141   4.626
 9298W        W81723  38.318  11.217   0.021
 9299W        W81724  37.507  17.763  11.738
 9300W        W81725   9.082  10.782  11.759
 9301W        W81726   4.052  32.416   3.031
 9302W        W81727  36.053  34.396   2.678
 9303W        W81728   4.234   5.246   0.631
 9304W        W81729  32.340  23.462   4.794
 9305W        W81730  23.022  20.480  11.553
 9306W        W81731  12.830   0.925   2.249
 9307W        W81732   9.389  23.298   4.563
 9308W        W81733  12.265   0.711  14.233
 9309W        W81734  41.823  19.394   0.327
 9310W        W81735  19.343  35.056  11.189
 9311W        W81736  36.516   0.356  13.970
 9312W        W81737  33.681   3.233  13.955
 9313W        W81738  35.512   6.629   2.422
 9314W        W81739  28.152  28.579  11.529
 9315W        W81740  44.763  28.876  11.396
 9316W        W81741  17.540  22.777  12.471
 9317W        W81742   8.319  27.828  14.489
 9318W        W81743  11.369  34.758   1.886
 9319W        W81744  35.306  11.697   2.774
 9320W        W81745  36.221   8.920  13.432
 9321W        W81746  28.223  29.057   3.412
 9322W        W81747  25.727  41.794  13.493
 9323W        W81748  24.211  43.432  10.518
 9324W        W81749  38.546  36.550   0.312
 9325W        W81750  11.187  41.964   3.622
 9326W        W81751   7.618  33.450  13.067
 9327W        W81752  33.484  17.393   0.694
 9328W        W81753  17.282   5.218   0.501
 9329W        W81754   8.179  40.493   3.365
 9330W        W81755   8.787   2.197  13.392
 9331W        W81756  16.237  22.147   1.324
 9332W        W81757  11.883   7.169  10.541
 9333W        W81758  30.141  18.475   3.706
 9334W        W81759   1.979  29.050  13.939
 9335W        W81760  23.308  16.673  13.924
 9336W        W81761  42.421  19.564   0.427
 9337W        W81762   2.072   8.789  12.028
 9338W        W81763  13.383  17.092  13.879
 9339W        W81764  29.585   8.120  12.463
 9340W        W81765   8.378  42.046   4.766
 9341W        W81766   2.815  19.464   2.816
 9342W        W81767  28.495  23.929   1.230
 9343W        W81768  44.728  24.920  12.483
 9344W        W81769  35.383  11.848   3.254
 9345W        W81770  33.653  17.730   4.292
 9346W        W81771   7.935  41.042   2.206
 9347W        W81772  10.579  36.994  11.921
 9348W        W81773  21.643  31.468  14.022
 9349W        W81774   5.783  23.395  13.912
 9350W        W81775  32.396  26.977  13.554
 9351W        W81776  23.975  25.459   4.085
 9352W        W81777  32.431  19.635   2.463
 9353W        W81778  18.201  17.895   1.446
 9354W        W81779   9.336   6.690   4.104
 9355W        W81780   0.178   3.274   4.707
 9356W        W81781  12.826  37.546   1.371
 9357W        W81782  26.573   5.670  14.349
 9358W        W81783  19.239   0.041   4.158
 9359W        W81784  34.795  44.453   4.098
 9360W        W81785  37.817  22.801  10.790
 9361W        W81786  37.858  29.069   4.109
 9362W        W81787  29.082  10.099  14.446
 9363W        W81788  24.764  33.617  12.533
 9364W        W81789  24.447   6.089  13.374
 9365W        W81790  14.367  12.070  12.049
 9366W        W81791  28.247  23.394   2.877
 9367W        W81792  10.202  39.296   0.738
 9368W        W81793  33.105  39.372  10.498
 9369W        W81794   1.667  10.668  11.271
 9370W        W81795   0.460  20.208  14.847
 9371W        W81796  33.042  40.708   0.482
 9372W        W81797   2.226   1.802  14.901
 9373W        W81798  10.763  41.044  12.581
 9374W        W81799  20.111   1.787   1.440
 9375W        W81800  32.347  23.592  10.617
 9376W        W81801  17.384   8.573  12.903
 9377W        W81802   3.332  23.642   2.902
 9378W        W81803  15.356   1.695  11.951
 9379W        W81804  39.670  32.024   3.129
 9380W        W81805  26.834  36.410   0.210
 9381W        W81806  26.419  25.189   3.737
 9382W        W81807  24.143   0.763   4.100
 9383W        W81808  44.333  17.611  13.499
 9384W        W81809   9.831   2.039   3.603
 9385W        W81810  11.338  38.169   3.817
 9386W        W81811   7.803   5.075   2.737
 9387W        W81812  12.928  10.476  10.082
 9388W        W81813  32.791  39.272  13.783
 9389W        W81814  22.121  43.344  13.299
 9390W        W81815  32.803  28.412   2.855
 9391W        W81816   0.779  11.591  11.548
 9392W        W81817  19.694  27.618   2.475
 9393W        W81818  28.212  19.166   3.725
 9394W        W81819  25.324  18.192   2.709
 9395W        W81820  24.790   5.041   1.757
 9396W        W81821  32.727  26.062  11.961
 9397W        W81822  21.439  23.070  10.925
 9398W        W81823  43.601  13.271   3.398
 9399W        W81824  11.291  17.272  11.614
 9400W        W81825  44.757   6.520   2.800
 9401W        W81826   5.321  16.789   3.084
 9402W        W81827  42.890  29.152   4.364
 9403W        W81828  13.155   1.902   0.351
 9404W        W81829  19.155   8.758   1.880
 9405W        W81830  21.750  33.914  10.730
 9406W        W81831  36.089  42.581  12.489
 9407W        W81832   3.932  14.825   2.438
 9408W        W81833  37.385  27.482  13.382
 9409W        W81834  26.601  33.564   0.859
 9410W        W81835  24.749  42.566   1.854
 9411W        W81836  22.514  23.779   2.937
 9412W        W81837   8.362  31.145  10.724
 9413W        W81838  17.318  42.911  14.222
 9414W        W81839  21.484  38.657  14.460
 9415W        W81840  24.373  14.196  11.977
 9416W        W81841   8.946  14.861   1.431
 9417W        W81842  35.641  15.457   3.549
 9418W        W81843  38.392  29.942  12.985
 9419W        W81844  12.023  43.885  13.485
 9420W        W81845  30.887  23.587   2.776
 9421W        W81846  20.335   7.590  10.480
 9422W        W81847  36.223  43.738   4.054
 9423W        W81848  11.731  10.648  13.570
 9424W        W81849  38.879  27.517  11.272
 9425W        W81850   4.284  23.577   1.792
 9426W        W81851   4.805   0.036  10.696
 9427W        W81852  23.989  43.808  10.842
 9428W        W81853  29.634  10.810  10.664
 9429W        W81854   3.966  43.945  11.755
 9430W        W81855   5.331   3.505   3.072
 9431W        W81856  14.281  39.846   0.428
 9432W        W81857  34.006  24.574   4.762
 9433W        W81858  37.845   1.944   4.946
 9434W        W81859  23.401  39.626   2.426
 9435W        W81860  22.674  35.514  14.807
 9436W        W81861   9.366  31.628  12.965
 9437W        W81862  44.902  13.659   4.571
 9438W        W81863  17.660  16.238  10.911
 9439W        W81864  34.014  22.866   4.207
 9440W        W81865  16.647  18.616  11.541
 9441W        W81866  14.680   5.087  14.942
 9442W        W81867  17.376  25.953   4.564
 9443W        W81868   8.286  29.131   3.142
 9444W        W81869  37.656  24.243   3.091
 9445W        W81870  23.696  19.126   3.662
 9446W        W81871  40.413  18.015   4.043
 9447W        W81872  42.137   7.155  12.185
 9448W        W81873  22.979   5.843  14.152
 9449W        W81874  27.075  10.264   2.700
 9450W        W81875  12.730   8.122  10.948
 9451W        W81876   2.766   1.378  12.937
 9452W        W81877   9.329  43.355   1.689
 9453W        W81878   7.861  13.750  14.076
 9454W        W81879  14.794  39.922   4.156
 9455W        W81880  22.955  22.731  10.434
 9456W        W81881   1.463  31.653  12.153
 9457W        W81882  25.883   9.355  11.082
 9458W        W81883  20.800   3.467   3.741
 9459W        W81884  41.223  36.964  12.598
 9460W        W81885  30.481  29.354  11.295
 9461W        W81886   9.418   4.473   2.804
 9462W        W81887  11.638  39.609   4.110
 9463W        W81888  10.264  26.546  12.220
 9464W        W81889  20.572  18.161  12.870
 9465W        W81890  21.367  18.440  13.089
 9466W        W81891   2.000  34.879  13.570
 9467W        W81892   7.618   4.877   4.745
 9468W        W81893  16.303  25.385  14.976
 9469W        W81894  34.261  36.326   3.387
 9470W        W81895  30.949  27.974   4.579
 9471W        W81896  29.876  27.132   4.607
 9472W        W81897  39.480  13.310   3.001
 9473W        W81898  17.304   9.390   0.061
 9474W        W81899  40.028   7.982   2.081
 9475W        W81900   7.724  30.718   4.200
 9476W        W81901  34.004  35.169   2.275
 9477W        W81902  10.072  25.185   3.740
 9478W        W81903  11.977   5.356  12.034
 9479W        W81904  23.052   0.267  13.237
 9480W        W81905  30.344  31.667  11.080
 9481W        W81906  38.066   2.388  14.280
 9482W        W81907  16.308   8.372   0.737
 9483W        W81908  37.024  31.957  13.798
 9484W        W81909   4.686  37.097   3.609
 9485W        W81910  33.599  34.591  11.930
 9486W        W81911  37.034  11.775   4.034
 9487W        W81912   8.176   4.755  12.043
 9488W        W81913  21.048   3.370   4.231
 9489W        W81914  37.319  44.539   4.602
 9490W        W81915  23.218   5.996  10.584
 9491W        W81916  37.638   2.832   2.674
 9492W        W81917  34.166  44.749   1.007
 9493W        W81918  17.362  39.352   3.822
 9494W        W81919   7.750  43.400   4.687
 9495W        W81920   6.263  23.094   2.104
 9496W        W81921  29.030  21.173   0.744
 9497W        W81922  13.753  28.324   1.505
 9498W        W81923  11.212   9.880   0.934
 9499W        W81924  18.190   2.582  13.527
 9500W        W81925   3.990   2.843  12.380
 9501W        W81926  39.483  25.885   0.767
 9502W        W81927   3.109   8.299   0.027
 9503W        W81928  43.736  10.236  11.140
 9504W        W81929  24.987   8.234  10.906
 9505W        W81930   1.796  33.567   3.196
 9506W        W81931   7.869  34.879   3.601
 9507W        W81932  12.394  17.635  14.471
 9508W        W81933  44.869  22.211  13.379
 9509W        W81934  35.370  11.331   1.422
 9510W        W81935   4.210  43.693  10.293
 9511W        W81936  34.868  30.112  10.768
 9512W        W81937  16.217  24.632  14.169
 9513W        W81938  22.052   0.269  11.571
 9514W        W81939  29.491  44.261  11.909
 9515W        W81940  31.981  34.337  14.394
 9516W        W81941  30.400   1.696  10.669
 9517W        W81942  29.206  40.064   0.590
 9518W        W81943  28.107  34.380   4.157
 9519W        W81944  11.633  26.719  12.900
 9520W        W81945  38.844  15.810   1.677
 9521W        W81946  13.937  17.519   0.978
 9522W        W81947  31.423  18.704  12.403
 9523W        W81948  34.023  16.277   4.909
 9524W        W81949  42.957  30.649   2.180
 9525W        W81950  35.475   7.062  13.209
 9526W        W81951  11.168  36.361   4.505
 9527W        W81952  11.646  23.697   1.809
 9528W        W81953  26.500  26.765   1.766
 9529W        W81954  19.188  36.113   1.327
 9530W        W81955  44.073  37.480   1.927
 9531W        W81956   8.711  11.340   0.327
 9532W        W81957  40.953  30.409  11.695
 9533W        W81958   6.240  24.520   3.714
 9534W        W81959  29.278  36.110   3.863
 9535W        W81960   1.423  19.409   0.472
 9536W        W81961   7.792  14.775  12.893
 9537W        W81962  44.244   8.249  11.433
 9538W        W81963  35.163  39.908  11.150
 9539W        W81964   2.228  20.724  12.616
 9540W        W81965  29.406   5.936  11.110
 9541W        W81966   7.217  11.384   3.400
 9542W        W81967  26.736  32.972   2.030
 9543W        W81968  39.945  27.929  11.531
 9544W        W81969  43.315  19.386   1.380
 9545W        W81970  11.239  15.657  10.976
 9546W        W81971  25.440  12.118  12.281
 9547W        W81972  33.769  44.352   4.095
 9548W        W81973  37.274   4.864   2.149
 9549W        W81974  14.218  40.788   2.192
 9550W        W81975  42.296   2.430  11.567
 9551W        W81976  42.586  33.985  14.459
 9552W        W81977  22.651   6.289   0.362
 9553W        W81978  36.115  24.259  14.057
 9554W        W81979  22.663  31.495   3.579
 9555W        W81980  19.837  42.914   5.019
 9556W        W81981  27.074  36.017  12.375
 9557W        W81982  39.578   1.827  12.559
 9558W        W81983  31.656  40.236  13.244
 9559W        W81984  44.351  34.395   2.710
 9560W        W81985  36.373  20.320  12.424
 9561W        W81986   2.071   5.349  11.398
 9562W        W81987   6.693   9.142   1.583
 9563W        W81988  37.011  19.720  14.451
 9564W        W81989  21.637   5.428  14.968
 9565W        W81990  33.934  17.268   4.683
 9566W        W81991  12.214   1.739  11.420
 9567W        W81992  30.396  26.420   4.165
 9568W        W81993  21.659  36.385  10.588
 9569W        W81994  41.925   5.530  14.406
 9570W        W81995  31.323  29.911   3.493
 9571W        W81996  35.041   0.304   3.731
 9572W        W81997  27.102  24.981  10.464
 9573W        W81998   2.725  31.622  12.019
 9574W        W81999  25.195  40.638  10.801
 9575W        W82000  25.274  22.431   4.482
 9576W        W82001  44.460  42.889  14.173
 9577W        W82002   0.548  25.934   1.281
 9578W        W82003  42.875  44.277   3.180
 9579W        W82004  35.801  26.027  12.153
 9580W        W82005  18.655  39.586  13.558
 9581W        W82006   2.948  10.731  10.687
 9582W        W82007  36.581   2.815  14.579
 9583W        W82008  34.450  34.691  13.863
 9584W        W82009  11.923  13.259  14.756
 9585W        W82010   4.509  12.023   1.321
 9586W        W82011   3.896  10.718  10.975
 9587W        W82012  13.214  38.550   2.736
 9588W        W82013  22.294  17.040   3.360
 9589W        W82014  12.939   0.823  14.455
 9590W        W82015  17.374  21.620   4.965
 9591W        W82016  10.374  20.939   0.749
 9592W        W82017  28.402  20.522  11.098
 9593W        W82018  43.848  21.137   4.041
 9594W        W82019  35.612  12.094   2.779
 9595W        W82020  40.546  26.422   4.127
 9596W        W82021  39.016  22.849  13.951
 9597W        W82022   2.863  23.972  13.682
 9598W        W82023  26.054  22.307  11.156
 9599W        W82024  17.271  36.350  11.949
 9600W        W82025  35.872   2.232  13.501
 9601W        W82026  24.145  32.845  13.361
 9602W        W82027  24.529  20.962  13.097
 9603W        W82028  24.089  29.798  10.179
 9604W        W82029   3.506  40.545   1.469
 9605W        W82030   4.762   4.732  12.664
 9606W        W82031  32.695   8.139   2.473
 9607W        W82032  22.491  10.431  10.773
 9608W        W82033  32.898  22.088  13.083
 9609W        W82034  34.953  12.624   1.120
 9610W        W82035  36.336  26.479  14.450
 9611W        W82036  43.236  18.212   4.184
 9612W        W82037  12.852  30.114  10.690
 9613W        W82038  32.413  35.872   3.401
 9614W        W82039   0.762  30.194  11.618
 9615W        W82040  44.992  20.591   2.180
 9616W        W82041   1.243  23.480  13.996
 9617W        W82042  27.581   3.813  14.947
 9618W        W82043   7.145  33.122  14.748
 9619W        W82044  38.742  29.146  14.694
 9620W        W82045  28.418  36.893   0.977
 9621W        W82046  34.864  36.358  10.493
 9622W        W82047  11.723  36.578  12.135
 9623W        W82048  26.515  16.843  12.852
 9624W        W82049  20.514  44.992   3.493
 9625W        W82050   5.183  42.774  12.465
 9626W        W82051  18.704  29.720   2.284
 9627W        W82052  41.879   6.278   3.949
 9628W        W82053  41.616  16.249  13.104
 9629W        W82054  44.386   8.884   1.390
 9630W        W82055   9.655  42.508   4.736
 9631W        W82056  41.769  33.534   0.735
 9632W        W82057   1.386  19.223   1.936
 9633W        W82058  24.311  36.365  14.794
 9634W        W82059  12.330   2.980  11.544
 9635W        W82060  16.568  22.519   3.247
 9636W        W82061  28.681  39.349  14.680
 9637W        W82062   1.012   8.849  13.094
 9638W        W82063   7.299  39.000  11.103
 9639W        W82064  40.696  31.467   3.634
 9640W        W82065  19.140  10.679   4.595
 9641W        W82066  18.550   5.693   1.910
 9642W        W82067  20.016  17.843   3.792
 9643W        W82068   9.481  29.333  12.982
 9644W        W82069  24.215  10.321  11.937
 9645W        W82070   5.458   2.036  11.158
 9646W        W82071  21.916  33.340   1.744
 9647W        W82072   1.950  13.867   0.449
 9648W        W82073  11.605   2.788  14.844
 9649W        W82074   7.794  36.120   3.223
 9650W        W82075  26.360  33.177   4.054
 9651W        W82076  12.211  30.370  12.361
 9652W        W82077  15.592  11.868   4.067
 9653W        W82078  30.632   7.939   0.965
 9654W        W82079   0.980  29.929   2.742
 9655W        W82080  38.961   9.165   0.706
 9656W        W82081  11.710  20.559   4.312
 9657W        W82082  28.556   7.143   3.676
 9658W        W82083  17.212  44.357   1.947
 9659W        W82084  26.193   7.920  12.357
 9660W        W82085  39.003  33.450  14.859
 9661W        W82086  41.100  23.253  12.960
 9662W        W82087   9.550  22.318   1.276
 9663W        W82088  20.029  34.305  14.561
 9664W        W82089  32.734  42.935  10.701
 9665W        W82090  38.827  36.566   3.703
 9666W        W82091  32.559  21.478   1.429
 9667W        W82092  11.715  15.351  12.029
 9668W        W82093  23.141   7.162  12.739
 9669W        W82094   5.146  16.544  13.448
 9670W        W82095  42.093   8.958  11.541
 9671W        W82096   0.489  17.877   0.904
 9672W        W82097  25.120  18.176   4.550
 9673W        W82098  43.363   6.825  10.752
 9674W        W82099   0.969   9.752  13.923
 9675W        W82100   0.778  27.573   3.759
 9676W        W82101   6.375  27.427  13.426
 9677W        W82102   1.133  21.489   2.327
 9678W        W82103  35.904  34.025   1.764
 9679W        W82104  42.010  10.115   3.545
 9680W        W82105  43.655  39.035  14.652
 9681W        W82106  36.882  30.173  12.495
 9682W        W82107   7.804  13.115   0.795
 9683W        W82108  37.399  44.800   2.698
 9684W        W82109  32.845  43.759  12.105
 9685W        W82110  40.950   2.899   0.979
 9686W        W82111   3.373   0.319  14.888
 9687W        W82112  13.607  24.729  14.418
 9688W        W82113  39.915  15.744  10.661
 9689W        W82114  17.730  20.799   3.222
 9690W        W82115  10.646  44.477  13.122
 9691W        W82116  28.674  35.433  13.395
 9692W        W82117  31.898  41.744  13.876
 9693W        W82118  39.967  21.669   2.373
 9694W        W82119  19.653   3.484   1.015
 9695W        W82120  37.424  18.339   4.182
 9696W        W82121  32.879  16.087  10.506
 9697W        W82122  40.020   5.964  12.319
 9698W        W82123  43.359   1.519   3.376
 9699W        W82124   6.182  20.277  12.447
 9700W        W82125  15.040  10.145   5.013
 9701W        W82126  22.500  27.426   2.417
 9702W        W82127  14.806   1.103   0.383
 9703W        W82128  15.208  40.577   3.147
 9704W        W82129  30.491  10.335  12.106
 9705W        W82130  41.266  26.218  11.877
 9706W        W82131  28.036  42.887  11.988
 9707W        W82132  24.239  37.379   1.286
 9708W        W82133  23.640  17.802   4.249
 9709W        W82134  18.559   6.282  13.811
 9710W        W82135   0.123  25.633   4.058
 9711W        W82136  14.643  37.139  11.051
 9712W        W82137  38.258  16.444  11.158
 9713W        W82138  35.239   1.976   0.251
 9714W        W82139  13.697  27.568   3.192
 9715W        W82140  11.249  20.763   1.170
 9716W        W82141   7.354   7.168  14.327
 9717W        W82142  21.596  31.207   1.816
 9718W        W82143  36.351  17.488   0.072
 9719W        W82144   6.173  21.200   1.707
 9720W        W82145   3.891  32.967   1.290
 9721W        W82146  19.818  31.728   1.802
 9722W        W82147  44.293   1.050   1.192
 9723W        W82148  20.162  42.927   2.120
 9724W        W82149  40.946  33.202   0.357
 9725W        W82150  31.161  38.478   3.862
 9726W        W82151   0.304  38.532  13.471
 9727W        W82152  19.748  32.619   1.776
 9728W        W82153  17.603  29.637  12.081
 9729W        W82154  42.499  34.549   1.634
 9730W        W82155   2.800  15.664   3.833
 9731W        W82156  15.693   2.470   4.469
 9732W        W82157  20.763  17.828  11.505
 9733W        W82158  20.027   8.849  13.984
 9734W        W82159  37.850  44.827  13.775
 9735W        W82160  23.158   3.704   0.070
 9736W        W82161  24.121  25.752   4.507
 9737W        W82162  18.187   2.896   2.718
 9738W        W82163  36.584  12.172  13.363
 9739W        W82164  33.490  23.273   0.314
 9740W        W82165  19.657   0.235  10.643
 9741W        W82166  18.195  19.739  14.654
 9742W        W82167  13.716  19.984   0.857
 9743W        W82168   0.028  12.426   1.717
 9744W        W82169  33.438   3.497   3.262
 9745W        W82170  32.221   8.273   2.268
 9746W        W82171   0.312  41.425   2.982
 9747W        W82172  33.467  25.309  10.390
 9748W        W82173   1.801  32.050  13.913
 9749W        W82174  38.428  32.372   3.344
 9750W        W82175   4.710  11.893   3.250
 9751W        W82176   7.143   5.927  12.910
 9752W        W82177  17.596  41.802  12.622
 9753W        W82178  13.534  14.966  14.402
 9754W        W82179   8.307   6.418  13.122
 9755W        W82180  10.903  23.546  11.940
 9756W        W82181  29.887  12.668  13.025
 9757W        W82182  44.266  14.985   4.507
 9758W        W82183  36.133  21.719   4.282
 9759W        W82184   9.250   9.835   2.135
 9760W        W82185  16.189   2.973   1.862
 9761W        W82186   5.493  38.840  11.244
 9762W        W82187  11.218  42.337   1.625
 9763W        W82188  39.649   1.477  12.061
 9764W        W82189  33.882   6.362  13.828
 9765W        W82190  16.496  39.108   2.772
 9766W        W82191  39.859  42.402  14.469
 9767W        W82192  13.706   9.621   4.877
 9768W        W82193  13.894  19.278  13.039
 9769W        W82194  29.906  28.395   3.354
 9770W        W82195  39.191  23.081   4.929
 9771W        W82196  44.750  35.146  14.428
 9772W        W82197   8.347  11.175  13.357
 9773W        W82198  41.840  34.384   0.005
 9774W        W82199  44.673   2.730   3.185
 9775W        W82200  30.878   7.687   4.329
 9776W        W82201  28.521   1.042   4.509
 9777W        W82202  26.050  38.048   1.286
 9778W        W82203  12.325  24.006  10.159
 9779W        W82204  44.065  25.486  13.066
 9780W        W82205  30.385   1.941  12.596
 9781W        W82206  41.259   6.185  10.753
 9782W        W82207  42.412  18.261   1.255
 9783W        W82208   2.291  14.744  10.948
 9784W        W82209  12.531  38.950  11.521
 9785W        W82210  19.737  29.938  14.981
 9786W        W82211   6.257  42.071   0.107
 9787W        W82212  14.117   1.413   0.300
 9788W        W82213  44.790  41.359  12.586
 9789W        W82214  28.518   0.492   2.713
 9790W        W82215  12.205  18.261   2.768
 9791W        W82216  39.511  36.981   4.575
 9792W        W82217  23.599  41.425   4.258
 9793W        W82218  10.819   2.211   3.622
 9794W        W82219   6.178  34.082   1.309
 9795W        W82220  40.769  20.505  10.717
 9796W        W82221  11.266  11.813  10.742
 9797W        W82222   9.638  35.674   2.276
 9798W        W82223  26.989  42.879   4.286
 9799W        W82224  35.562  19.169   4.669
 9800W        W82225   2.995   1.891   2.192
 9801W        W82226  42.891  39.813   1.413
 9802W        W82227   0.393   8.106  11.127
 9803W        W82228  36.523  31.648  11.146
 9804W        W82229  35.364  25.389  12.476
 9805W        W82230  40.921  24.816  11.859
 9806W        W82231  27.633  44.917   1.728
 9807W        W82232  36.456  32.535  12.288
 9808W        W82233  42.545  34.001  10.698
 9809W        W82234  26.112  41.527   3.126
 9810W        W82235  44.263  34.183   1.204
 9811W        W82236   5.781   5.236   3.442
 9812W        W82237  16.807  11.476   0.896
 9813W        W82238  41.076  38.774   3.657
 9814W        W82239  28.496  16.258   1.026
 9815W        W82240   9.599   5.756  11.033
 9816W        W82241  28.046  24.608  10.407
 9817W        W82242   9.821   0.395  10.785
 9818W        W82243  39.973  41.034  13.725
 9819W        W82244  29.730  21.126  14.065
 9820W        W82245   9.837  38.175  13.812
 9821W        W82246   3.544   3.775   3.165
 9822W        W82247  18.438  25.878   1.847
 9823W        W82248  37.449  15.277  10.220
 9824W        W82249  30.329  29.833  11.164
 9825W        W82250  19.774  40.311  12.170
 9826W        W82251  31.860   0.951  14.961
 9827W        W82252  24.983  23.794  11.234
 9828W        W82253  15.804  43.332  12.910
 9829W        W82254  42.717   4.371  12.464
 9830W        W82255  40.241  32.198   0.795
 9831W        W82256  12.706  11.474   2.366
 9832W        W82257  26.790  33.596   4.798
 9833W        W82258  15.354  23.029  10.375
 9834W        W82259  18.590  16.638  14.788
 9835W        W82260  20.498  26.170  12.884
 9836W        W82261   6.948  14.117   0.562
 9837W        W82262   1.487  24.557  11.023
 9838W        W82263  10.024  14.217   2.389
 9839W        W82264  44.431  27.661  12.366
 9840W        W82265  40.955  12.182  11.507
 9841W        W82266  15.128  28.721   3.263
 9842W        W82267  25.505  27.535   3.697
 9843W        W82268  25.406   2.506  12.460
 9844W        W82269   1.917  25.209  10.906
 9845W        W82270   3.766  16.018   1.335
 9846W        W82271   9.282  27.753  14.295
 9847W        W82272  44.966  38.582  14.791
 9848W        W82273  26.865  21.702  13.641
 9849W        W82274   2.780  42.007   3.661
 9850W        W82275  29.525  36.018  10.961
 9851W        W82276  23.308  43.027  14.873
 9852W        W82277  31.074  43.121   3.385
 9853W        W82278   9.334   3.565   3.989
 9854W        W82279  22.528  42.719   1.437
 9855W        W82280  19.701   4.263  13.558
 9856W        W82281   8.267  41.726  13.003
 9857W        W82282  42.822  19.261   1.328
 9858W        W82283   4.889  16.098  13.373
 9859W        W82284  19.315  28.574   1.739
 9860W        W82285   5.193   1.544  10.426
 9861W        W82286  37.353  43.059   3.217
 9862W        W82287  26.490  12.321   1.496
 9863W        W82288  40.188   3.358   0.820
 9864W        W82289  17.069  41.219   1.201
 9865W        W82290   0.744  19.700   2.798
 9866W        W82291  25.174  14.347  14.294
 9867W        W82292  37.643   4.789  11.892
 9868W        W82293  27.844  27.351   1.040
 9869W        W82294  11.793  27.638  14.861
 9870W        W82295  37.455  43.847  10.084
 9871W        W82296  19.229  27.511  13.517
 9872W        W82297  43.745   1.138  13.885
 9873W        W82298  25.276   8.041  14.482
 9874W        W82299  26.064  42.267  13.476
 9875W        W82300   6.000   1.854   4.789
 9876W        W82301  17.114  24.510   3.265
 9877W        W82302  23.687   8.765   1.206
 9878W        W82303   2.948  21.712   4.091
 9879W        W82304  24.303  38.504  14.043
 9880W        W82305  11.083  41.887  13.826
 9881W        W82306  31.899  31.086   4.619
 9882W        W82307   9.826   6.304   2.549
 9883W        W82308  39.870   8.601   3.779
 9884W        W82309  17.300  26.513  13.363
 9885W        W82310  14.189  18.454   0.931
 9886W        W82311  38.935  28.134   3.638
 9887W        W82312  39.548  17.126  14.899
 9888W        W82313  14.195  40.189  13.795
 9889W        W82314  35.646  21.497   1.835
 9890W        W82315  32.616  42.333  14.803
 9891W        W82316  23.206   7.750   4.995
 9892W        W82317  26.683   1.728   3.230
 9893W        W82318   9.699  42.421  10.407
 9894W        W82319  29.128  23.498   3.134
 9895W        W82320   7.311  29.235  12.868
 9896W        W82321  22.646  19.666  14.426
 9897W        W82322  36.909  40.249  10.721
 9898W        W82323  11.918  14.781  12.016
 9899W        W82324   1.714  30.041  11.028
 9900W        W82325  32.668  41.653   0.407
 9901W        W82326  20.266   5.792   3.372
 9902W        W82327  29.811  16.076   2.882
 9903W        W82328  32.086   0.256   2.797
 9904W        W82329   1.026  19.622   3.267
 9905W        W82330  35.858   3.476  12.860
 9906W        W82331  20.282  41.157   1.633
 9907W        W82332  39.548  21.722   4.097
 9908W        W82333   0.381   8.971   2.014
 9909W        W82334   8.854  15.516  11.440
 9910W        W82335   5.398   4.901   0.275
 9911W        W82336  29.415  15.749   1.404
 9912W        W82337  34.533  12.115  14.897
 9913W        W82338  10.459  43.041   4.429
 9914W        W82339  43.369  37.933  14.049
 9915W        W82340  29.938  30.661  12.467
 9916W        W82341  43.360  43.080   1.208
 9917W        W82342  43.932  29.094  14.045
 9918W        W82343  24.902   8.713   3.084
 9919W        W82344  21.643  42.216   3.795
 9920W        W82345  19.659  41.798  11.748
 9921W        W82346   9.316   8.584   0.876
 9922W        W82347  21.223  12.874  14.952
 9923W        W82348  14.805  22.528  11.525
 9924W        W82349  41.865  13.545  11.240
 9925W        W82350  34.848  44.960  14.061
 9926W        W82351  38.294  29.020   3.190
 9927W        W82352   0.277  20.069  12.172
 9928W        W82353   1.545  29.401  12.066
 9929W        W82354   8.693  22.449  14.491
 9930W        W82355  28.629  17.818   2.891
 9931W        W82356   1.258  28.905   1.342
 9932W        W82357   6.790  40.773  11.655
 9933W        W82358  19.745  21.253   9.966
 9934W        W82359  36.376   0.356  13.052
 9935W        W82360  11.645  33.889   2.422
 9936W        W82361  35.979  31.531  10.938
 9937W        W82362   1.727  30.861  13.150
 9938W        W82363  32.021   1.498  13.616
 9939W        W82364  16.837  39.381   3.069
 9940W        W82365   2.713  19.696   4.912
 9941W        W82366  23.620  38.824  12.836
 9942W        W82367  23.702  17.061   0.714
 9943W        W82368   2.582  33.565  11.441
 9944W        W82369  22.145  12.881   1.349
 9945W        W82370  25.067  23.255  12.016
 9946W        W82371  36.887  25.640  10.305
 9947W        W82372  20.641  41.708  12.440
 9948W        W82373  10.779  27.182   1.835
 9949W        W82374  13.390   9.070   1.858
 9950W        W82375  33.416  29.063   1.711
 9951W        W82376  38.913  35.439  11.640
 9952W        W82377   4.353   1.305   3.828
 9953W        W82378   1.304   9.090  12.543
 9954W        W82379  26.734  20.024  11.493
 9955W        W82380   4.389   1.940  11.975
 9956W        W82381   4.588  36.818   4.067
 9957W        W82382  41.747  11.219   2.192
 9958W        W82383  21.058  44.266   3.189
 9959W        W82384   5.745  30.105  13.608
 9960W        W82385   6.183  29.825   1.790
 9961W        W82386   7.088   0.704  13.554
 9962W        W82387   3.867  27.139  14.754
 9963W        W82388  36.311  23.273  13.561
 9964W        W82389  22.108  27.739  14.243
 9965W        W82390  18.956  24.878  14.928
 9966W        W82391  12.751  22.249  12.825
 9967W        W82392   1.745  23.140  13.304
 9968W        W82393  28.416  27.126   4.571
 9969W        W82394  36.692   4.877   4.058
 9970W        W82395   7.106  33.184  13.311
 9971W        W82396  27.976  24.675   3.163
 9972W        W82397   6.615  44.533  11.624
 9973W        W82398  31.116  28.121  13.353
 9974W        W82399  15.605  43.800  12.009
 9975W        W82400  23.609  24.188  14.800
 9976W        W82401  44.824  40.815  13.472
 9977W        W82402   3.448   6.900  10.856
 9978W        W82403  17.159  29.547  10.156
 9979W        W82404  37.602  18.618  12.000
 9980W        W82405  30.460  22.250   4.556
 9981W        W82406   8.957   3.237  12.700
 9982W        W82407  44.408   3.775  10.679
 9983W        W82408  20.069  16.553   3.714
 9984W        W82409  13.712  23.885  12.404
 9985W        W82410  24.356  22.557   1.330
 9986W        W82411  19.775  17.490   1.964
 9987W        W82412   9.257  34.220  10.750
 9988W        W82413  30.515   2.286  11.625
 9989W        W82414  23.135  43.421   2.711
 9990W        W82415  18.327  33.441   3.567
 9991W        W82416  17.750  18.851  14.811
 9992W        W82417  35.178  34.753   1.271
 9993W        W82418  17.691  29.455   4.166
 9994W        W82419  33.327  28.266   2.700
 9995W        W82420   9.608  20.647  11.439
 9996W        W82421  43.612  19.623   2.912
 9997W        W82422  22.172  33.348  12.001
 9998W        W82423  44.844  40.890  11.238
 9999W        W82424  41.871   8.623  10.672
10000W        W82425  24.194  29.939   0.215
10001W        W82426  15.744  26.013  12.393
10002W        W82427  39.042  38.075   2.268
10003W        W82428   2.538   1.066  10.945
10004W        W82429  33.144  16.749   9.790
10005W        W82430   7.463  29.980   2.371
10006W        W82431  10.697   0.407   4.598
10007W        W82432  22.888   2.822   4.136
10008W        W82433  26.752  22.491   1.380
10009W        W82434   1.768  11.872   1.949
10010W        W82435  28.611  43.276   3.290
10011W        W82436  20.773  23.194  12.926
10012W        W82437  22.494  11.158  11.488
10013W        W82438   6.923  35.892   1.424
10014W        W82439  28.168  41.464   1.432
10015W        W82440  12.224  27.487   2.908
10016W        W82441   4.238  20.537  11.207
10017W        W82442  32.580  27.510   2.366
10018W        W82443  17.541  42.804  11.866
10019W        W82444  35.157  44.798  13.661
10020W        W82445  44.929  12.195   4.716
10021W        W82446  31.666   5.548   2.260
10022W        W82447  39.602   2.214   0.618
10023W        W82448  11.821  32.573  14.427
10024W        W82449   4.674   3.200   3.788
10025W        W82450  33.825  25.891  13.919
10026W        W82451  16.985   5.718  13.141
10027W        W82452   6.274  30.681  13.058
10028W        W82453  20.663  14.003  12.572
10029W        W82454   1.491  34.349  11.016
10030W        W82455  37.003  42.612  12.548
10031W        W82456  40.455  35.032   3.879
10032W        W82457  17.607  43.435   3.050
10033W        W82458  26.483  35.611  10.559
10034W        W82459  36.575  19.662   2.280
10035W        W82460  13.125   1.544   4.779
10036W        W82461   8.111  28.388  10.754
10037W        W82462   0.495  21.480  10.551
10038W        W82463  33.410  24.077   1.358
10039W        W82464   1.591  35.813  12.516
10040W        W82465  34.088   5.882  11.678
10041W        W82466  18.118  23.283   4.453
10042W        W82467  33.616   3.156  12.455
10043W        W82468  38.753  26.539   2.256
10044W        W82469   5.421   5.764   1.393
10045W        W82470   1.318  22.599   4.509
10046W        W82471  35.532  27.678   1.853
10047W        W82472  31.081   0.264  11.508
10048W        W82473  34.034  19.603  14.510
10049W        W82474   5.366  27.884   2.698
10050W        W82475   9.236  20.475  12.035
10051W        W82476  16.569  36.378   3.411
10052W        W82477  30.730  35.566   1.426
10053W        W82478   9.860  29.402  11.620
10054W        W82479  39.750  28.132   1.612
10055W        W82480  34.659  23.023   1.872
10056W        W82481  33.635   0.351   4.356
10057W        W82482   2.889  39.532   4.757
10058W        W82483   9.722  30.152   1.639
10059W        W82484   7.457   8.420   0.814
10060W        W82485   8.217   6.209  11.099
10061W        W82486  36.924  13.449  13.237
10062W        W82487  19.806   3.720  12.442
10063W        W82488  22.169  43.518   4.633
10064W        W82489  11.222  27.952   1.420
10065W        W82490  40.811  10.671  13.689
10066W        W82491  28.021  16.271   3.421
10067W        W82492  30.176  23.108   1.272
10068W        W82493  29.994  38.017  11.566
10069W        W82494  24.483  21.988   0.605
10070W        W82495   6.346   7.820   4.540
10071W        W82496  11.631  27.966   4.551
10072W        W82497  15.996   6.060   2.198
10073W        W82498  39.293  39.530  12.605
10074W        W82499  30.463  13.057   4.485
10075W        W82500  23.692  21.978   0.138
10076W        W82501  43.451  23.435  12.139
10077W        W82502  41.767  19.637  13.019
10078W        W82503  40.512  10.216   0.835
10079W        W82504  43.059  12.953   4.190
10080W        W82505  14.572   0.789   2.753
10081W        W82506   4.197  25.294   1.325
10082W        W82507   6.805  40.387  13.641
10083W        W82508  15.230   2.488   0.265
10084W        W82509  15.067  42.846  12.984
10085W        W82510  24.508   1.287  12.975
10086W        W82511  44.144  40.325  10.682
10087W        W82512  25.340  42.968   1.796
10088W        W82513   4.400  14.985  12.505
10089W        W82514  11.054  33.400  13.161
10090W        W82515  26.063   9.657   1.399
10091W        W82516  17.017  40.531   0.806
10092W        W82517  37.330  21.595  13.757
10093W        W82518  20.064  36.709  10.996
10094W        W82519  36.281  13.174  11.380
10095W        W82520  39.744  32.086   0.890
10096W        W82521  16.102  26.034  11.073
10097W        W82522  18.091  43.533   4.401
10098W        W82523  17.784   8.395   0.733
10099W        W82524  30.567  13.175  12.968
10100W        W82525  18.745  16.436   2.336
10101W        W82526  29.786  32.183  12.853
10102W        W82527  30.167  27.636  12.627
10103W        W82528  40.776  24.483  13.311
10104W        W82529  38.049  25.241   4.300
10105W        W82530  26.240   9.828   0.928
10106W        W82531  34.999  37.936  14.100
10107W        W82532  43.612  33.907   4.129
10108W        W82533  11.528  14.170   3.622
10109W        W82534  15.309  43.070   1.813
10110W        W82535   5.838  42.778   0.764
10111W        W82536   3.979  38.862  14.842
10112W        W82537  44.540  10.113   2.036
10113W        W82538  39.013   7.731  12.079
10114W        W82539  37.951  43.028  13.828
10115W        W82540   7.847  42.798  13.754
10116W        W82541   3.700  12.558  11.146
10117W        W82542   1.396  20.788  10.772
10118W        W82543  27.501  21.426   4.738
10119W        W82544  43.362   7.578  14.368
10120W        W82545  37.278  21.921   5.499
10121W        W82546  18.176   9.790   3.989
10122W        W82547   0.030   7.233  14.050
10123W        W82548  41.300   1.258   2.389
10124W        W82549   8.751  37.912  13.642
10125W        W82550  23.249  11.198  13.021
10126W        W82551  39.547  25.211  11.148
10127W        W82552  24.049   3.484  14.217
10128W        W82553  42.962   5.630  13.366
10129W        W82554  40.277  21.690   3.361
10130W        W82555  21.375  13.738   0.569
10131W        W82556   8.859  31.823  12.074
10132W        W82557  17.637   9.181  11.102
10133W        W82558  14.075  26.893  10.215
10134W        W82559  38.845   2.893  14.752
10135W        W82560  36.016  31.958   2.034
10136W        W82561  11.231  37.307   4.214
10137W        W82562  28.551  44.456  10.946
10138W        W82563  11.542  39.485  13.458
10139W        W82564  22.620  15.831   3.698
10140W        W82565  39.490  43.531  13.991
10141W        W82566  35.438  26.716   2.387
10142W        W82567   3.788  13.153  13.800
10143W        W82568  19.842  19.442   0.475
10144W        W82569   7.626  40.932  12.112
10145W        W82570   7.053   5.708  14.396
10146W        W82571  22.998  28.430  13.415
10147W        W82572   6.165  30.168  12.966
10148W        W82573   5.307  11.162  14.628
10149W        W82574   5.312   7.192   1.629
10150W        W82575  39.110  27.532   5.004
10151W        W82576   1.690   0.863   2.390
10152W        W82577  13.090  25.560  11.059
10153W        W82578  25.668  34.140   1.843
10154W        W82579  15.209  27.862  11.944
10155W        W82580  37.179  32.959   4.106
10156W        W82581   0.664  21.996   3.254
10157W        W82582  14.208  36.473  14.727
10158W        W82583  28.264  17.195  11.524
10159W        W82584   1.046  44.653   1.878
10160W        W82585   4.176  44.311  10.726
10161W        W82586  17.105  34.488   0.849
10162W        W82587  31.317  17.566  13.890
10163W        W82588  36.605   8.867   3.170
10164W        W82589  19.074  13.828  10.520
10165W        W82590  14.428  38.790   4.271
10166W        W82591  10.883   3.916  14.708
10167W        W82592   7.880  36.579   9.971
10168W        W82593   8.499  21.067   0.267
10169W        W82594  19.434   7.162   3.912
10170W        W82595  33.330  40.478  12.905
10171W        W82596   6.817  31.401   3.294
10172W        W82597  16.173  25.316  13.620
10173W        W82598  29.432  29.726  14.774
10174W        W82599   6.940  32.483  10.666
10175W        W82600   1.909  27.964  11.255
10176W        W82601  23.643   8.870   4.956
10177W        W82602  40.296   5.037   3.876
10178W        W82603  27.755  38.826  11.338
10179W        W82604  40.743   1.648  11.085
10180W        W82605  44.996  14.413  13.704
10181W        W82606  20.647  10.683  11.656
10182W        W82607  30.007  16.391  10.634
10183W        W82608   2.177  42.852   3.556
10184W        W82609  39.343  39.477  11.417
10185W        W82610  28.454  13.402  14.755
10186W        W82611  38.377   1.794   1.159
10187W        W82612  13.572   0.874  12.420
10188W        W82613   6.240  26.286   4.280
10189W        W82614   0.295  19.341   2.926
10190W        W82615  13.137  21.154   3.107
10191W        W82616  15.272  43.379  14.032
10192W        W82617  12.388  24.258  12.668
10193W        W82618   3.512  42.497  12.444
10194W        W82619  25.355  22.260   1.389
10195W        W82620   8.095   1.518   3.738
10196W        W82621  36.550   2.283   3.906
10197W        W82622  15.524  30.500   1.930
10198W        W82623  36.977  13.730  11.187
10199W        W82624  35.711   9.351  11.525
10200W        W82625   9.406  37.843  11.909
10201W        W82626  22.682  23.496  11.638
10202W        W82627  35.549  39.482  14.763
10203W        W82628  30.646  16.292  12.148
10204W        W82629  14.319  39.027  14.434
10205W        W82630  22.456  18.055  13.480
10206W        W82631   8.670  23.133   3.165
10207W        W82632  17.000  18.896   2.849
10208W        W82633  28.905  41.886  13.741
10209W        W82634  36.794  24.787   2.691
10210W        W82635  31.916  43.767   3.801
10211W        W82636  17.319  28.384  13.119
10212W        W82637  21.195  33.915  13.199
10213W        W82638  37.293  12.676  12.995
10214W        W82639  17.266  13.681  12.508
10215W        W82640  40.813   6.316  10.519
10216W        W82641   7.763  38.480  14.922
10217W        W82642   5.188   8.970  10.773
10218W        W82643  21.160   2.254  11.631
10219W        W82644  27.528   8.719  12.998
10220W        W82645  35.277  30.073  13.087
10221W        W82646  26.792  26.644   4.925
10222W        W82647  42.946  17.197   0.337
10223W        W82648  12.992  23.699  11.088
10224W        W82649  35.829   1.073  11.396
10225W        W82650  23.081  19.581  11.086
10226W        W82651  27.803  35.057   3.398
10227W        W82652  28.555  42.891  11.862
10228W        W82653  23.320  23.516   0.952
10229W        W82654  19.007  36.164  13.358
10230W        W82655  15.085  44.885   0.721
10231W        W82656   1.736  33.094  12.951
10232W        W82657   5.780   7.317   3.412
10233W        W82658  41.236  35.516  11.833
10234W        W82659  21.057   9.277  11.980
10235W        W82660  22.463  35.986   2.731
10236W        W82661  21.799  27.552   4.653
10237W        W82662   6.754  30.953  13.446
10238W        W82663  10.936   6.419   4.058
10239W        W82664   3.689  32.083   1.280
10240W        W82665   2.972  43.536  10.922
10241W        W82666   7.759   3.411   2.080
10242W        W82667  14.421  23.647  14.058
10243W        W82668  24.508  31.661  12.976
10244W        W82669  18.560   2.801   1.612
10245W        W82670  10.093  14.726  12.476
10246W        W82671  34.347   6.210  13.610
10247W        W82672   5.498  16.337   4.328
10248W        W82673  29.221  18.886  10.806
10249W        W82674   8.716  20.581  12.109
10250W        W82675  38.434  38.349   4.086
10251W        W82676  29.095  33.493  14.714
10252W        W82677  23.295   5.262  13.465
10253W        W82678  13.131  11.844   1.365
10254W        W82679  37.648  28.568   1.237
10255W        W82680   0.197  34.146   2.455
10256W        W82681  18.615  29.347  11.892
10257W        W82682  10.256  13.410  13.814
10258W        W82683  31.034  12.971   1.639
10259W        W82684  33.584   7.277  11.022
10260W        W82685  16.206  21.211   2.742
10261W        W82686  23.507  24.952   0.405
10262W        W82687  17.518   9.088  13.793
10263W        W82688   9.813  34.063   3.812
10264W        W82689  44.819  22.026   1.286
10265W        W82690  32.495  18.292   0.293
10266W        W82691  35.194  17.084  11.585
10267W        W82692   8.874  19.972   2.154
10268W        W82693   6.908  31.442  13.334
10269W        W82694  18.129  28.147  11.711
10270W        W82695  43.017  23.098  13.973
10271W        W82696   1.297   0.819   3.759
10272W        W82697   5.608  42.981   0.340
10273W        W82698  28.898  12.543   3.347
10274W        W82699  29.983  42.423  12.196
10275W        W82700  43.947  28.527  12.410
10276W        W82701  11.866  33.567   4.170
10277W        W82702  43.539  22.950  13.860
10278W        W82703  44.931  13.770  11.547
10279W        W82704   0.239  25.105   1.782
10280W        W82705  32.493  11.115  12.527
10281W        W82706   7.711  17.213   4.240
10282W        W82707   7.894  26.602   3.088
10283W        W82708  24.181  16.694   2.609
10284W        W82709  38.133  22.758   2.125
10285W        W82710  35.337  32.949   0.959
10286W        W82711  10.704   1.301   0.736
10287W        W82712  31.601  21.040   3.111
10288W        W82713  25.854  31.594  10.236
10289W        W82714  39.942  41.258  14.836
10290W        W82715   7.091  33.602   0.743
10291W        W82716  20.329   7.113  10.692
10292W        W82717  41.495  16.437   2.820
10293W        W82718  28.229  25.207  12.582
10294W        W82719  38.593  35.035   0.036
10295W        W82720  24.105   9.359  13.953
10296W        W82721  10.959  25.038  14.287
10297W        W82722   9.073  20.003  11.911
10298W        W82723  27.387  14.485   2.702
10299W        W82724  14.097  11.605  12.523
10300W        W82725  10.429  19.700  13.477
10301W        W82726  13.232  42.328   4.698
10302W        W82727  36.864  11.915   1.309
10303W        W82728   9.851   7.247  14.559
10304W        W82729   6.638   2.849  13.963
10305W        W82730  29.477   7.792  12.058
10306W        W82731   1.525  18.906   0.551
10307W        W82732  20.219  32.467   0.370
10308W        W82733  12.250  16.046  10.982
10309W        W82734  41.002  41.389  14.292
10310W        W82735  14.879  11.271   3.317
10311W        W82736  12.169   5.163   4.590
10312W        W82737  34.409  44.246  10.860
10313W        W82738   6.772  21.224   0.936
10314W        W82739  38.753  30.655  11.177
10315W        W82740  17.619   5.449   1.100
10316W        W82741  31.992  43.681   1.387
10317W        W82742  12.527  32.169   4.557
10318W        W82743   1.326   4.641   1.860
10319W        W82744  26.699   3.412  12.873
10320W        W82745  34.553  36.913   2.183
10321W        W82746   2.934   7.349  12.019
10322W        W82747  28.293  30.695  12.035
10323W        W82748  16.070  19.575  11.108
10324W        W82749  34.055  33.469   4.738
10325W        W82750  41.863  36.205   0.472
10326W        W82751  40.188  36.433  10.976
10327W        W82752  23.031  31.645   5.042
10328W        W82753   6.480  25.030  14.953
10329W        W82754  41.572  20.762   0.942
10330W        W82755  26.236  26.032   0.517
10331W        W82756  35.027  17.513  12.608
10332W        W82757  40.974   0.226   5.398
10333W        W82758   2.915  10.668  12.046
10334W        W82759   3.581  24.562  11.598
10335W        W82760  11.284  43.406  10.467
10336W        W82761  24.683  25.585   1.722
10337W        W82762  14.129  19.846  14.913
10338W        W82763  35.440  25.981   4.122
10339W        W82764   5.381   2.956   0.385
10340W        W82765  36.013   0.836   1.166
10341W        W82766  24.161   8.353   0.474
10342W        W82767  17.144  23.426  11.187
10343W        W82768  35.924   3.270  13.345
10344W        W82769  22.557  12.263  14.762
10345W        W82770  28.074  17.702   1.718
10346W        W82771  20.634   6.438   4.335
10347W        W82772   6.224  10.167  14.603
10348W        W82773  39.971  29.028   4.065
10349W        W82774  21.035  20.663   4.935
10350W        W82775  43.972  35.639  12.113
10351W        W82776  16.361   5.149   0.427
10352W        W82777  17.031  38.523  12.812
10353W        W82778   7.226  22.728  12.951
10354W        W82779  17.796  17.392  10.725
10355W        W82780  36.691  25.159  14.119
10356W        W82781  11.917  23.758  14.810
10357W        W82782  42.933  27.130   2.912
10358W        W82783  18.330  27.194   1.933
10359W        W82784   6.074  16.053  14.924
10360W        W82785  23.530  16.874  12.427
10361W        W82786   4.857   8.428   4.239
10362W        W82787  15.205  42.541   1.728
10363W        W82788  11.441   6.216   1.178
10364W        W82789  31.620  11.214  12.146
10365W        W82790  23.487  40.444  13.568
10366W        W82791  11.761  44.917   4.620
10367W        W82792  29.141   4.827  12.596
10368W        W82793  43.899   4.088   2.883
10369W        W82794  30.687  26.560   0.753
10370W        W82795  19.244  15.574   1.178
10371W        W82796  19.014  17.811  13.495
10372W        W82797  21.701   1.484  12.786
10373W        W82798  12.560   3.427   4.664
10374W        W82799  28.858  15.092  11.154
10375W        W82800   0.751   6.480  13.488
10376W        W82801  13.203  19.532   4.531
10377W        W82802   1.870   5.438   1.986
10378W        W82803  28.685  37.552  14.038
10379W        W82804  18.105  24.817   5.011
10380W        W82805  33.039  27.450   0.248
10381W        W82806  42.954  26.278   3.733
10382W        W82807  17.589  24.424   1.596
10383W        W82808   5.759  41.549  13.576
10384W        W82809  38.332  24.510   0.710
10385W        W82810  40.747  15.282   3.411
10386W        W82811  15.799   6.299   5.246
10387W        W82812  34.039   3.869   2.899
10388W        W82813  38.321  39.348  10.642
10389W        W82814   3.532  32.644  11.553
10390W        W82815  24.464   5.607  11.625
10391W        W82816  42.374  26.677  11.473
10392W        W82817  35.385  20.134  14.011
10393W        W82818   7.443   9.226   1.661
10394W        W82819   2.352   3.667  14.398
10395W        W82820  32.441  44.959  10.768
10396W        W82821  38.966  29.873   4.245
10397W        W82822   0.325  35.469   4.632
10398W        W82823   8.815  13.234   1.842
10399W        W82824  32.436   4.397  14.825
10400W        W82825  10.800   5.743   3.328
10401W        W82826  16.140  36.196   4.778
10402W        W82827   2.515  12.658   4.117
10403W        W82828  40.879  38.719  13.391
10404W        W82829  12.816   8.126   0.540
10405W        W82830   6.869  19.501  11.667
10406W        W82831  12.128  39.858  12.663
10407W        W82832  13.833  41.325  13.332
10408W        W82833  21.969  35.447   2.402
10409W        W82834  22.558   9.844  14.814
10410W        W82835  11.779  36.319  13.536
10411W        W82836  29.601  14.165  12.640
10412W        W82837  12.515  12.260   1.509
10413W        W82838  44.843  35.602  12.114
10414W        W82839  35.179  35.216   3.691
10415W        W82840  23.608   8.511  13.945
10416W        W82841  26.304  22.544   3.092
10417W        W82842  12.659   6.192   0.870
10418W        W82843  19.650  23.596  11.165
10419W        W82844  41.527   0.070   9.589
10420W        W82845   1.472  19.369   4.236
10421W        W82846  43.693   7.414   1.183
10422W        W82847  22.493   3.713   2.707
10423W        W82848  31.887  26.860  13.679
10424W        W82849  42.136   3.912  12.784
10425W        W82850  39.816  32.572   0.683
10426W        W82851  38.937  22.983  11.966
10427W        W82852   6.668  36.929  11.492
10428W        W82853  37.781  29.023  13.429
10429W        W82854  14.732  17.637  11.234
10430W        W82855  33.474  25.567  13.337
10431W        W82856  24.115  42.015  10.797
10432W        W82857  43.617  35.844   2.255
10433W        W82858  38.841  15.139   4.993
10434W        W82859  24.707  40.750   1.266
10435W        W82860  38.144  44.959  11.849
10436W        W82861  30.013  13.877   4.589
10437W        W82862  23.055  43.102   4.185
10438W        W82863   2.032  10.893  13.917
10439W        W82864  22.104  21.498  12.502
10440W        W82865  29.087  29.954  14.039
10441W        W82866   6.917  34.819  11.116
10442W        W82867   9.638  31.685  14.212
10443W        W82868  17.750  20.752   1.323
10444W        W82869  22.639  36.362   1.325
10445W        W82870  24.187  13.077  11.171
10446W        W82871  25.054   0.307   0.296
10447W        W82872  32.526  36.439  14.203
10448W        W82873  43.527   4.687  11.613
10449W        W82874  35.543  26.638   3.726
10450W        W82875  41.933   2.768   3.857
10451W        W82876  32.031   6.376   2.379
10452W        W82877  32.548  28.104  10.398
10453W        W82878  17.720  41.492  10.585
10454W        W82879  16.473  25.023   2.783
10455W        W82880  42.839  30.934   3.418
10456W        W82881  38.715  42.453   1.708
10457W        W82882   8.671  32.739  14.316
10458W        W82883  43.042  19.460  14.910
10459W        W82884  12.777  37.554  12.151
10460W        W82885   3.632  25.962  12.006
10461W        W82886  14.263   6.232   2.744
10462W        W82887  26.581  42.775  11.516
10463W        W82888  15.467  32.265   0.627
10464W        W82889  44.288  23.836  14.677
10465W        W82890  34.485  37.054   1.279
10466W        W82891  15.805  36.448   1.959
10467W        W82892  25.718  21.413  11.141
10468W        W82893   5.685   2.718  13.844
10469W        W82894  36.363   8.346   1.805
10470W        W82895  37.047  13.326  11.998
10471W        W82896   4.802  29.494   1.442
10472W        W82897  34.765   2.410   2.019
10473W        W82898  12.029   7.712   0.897
10474W        W82899   5.048  17.672  11.491
10475W        W82900  42.349  44.371  12.914
10476W        W82901  20.791  39.869  11.937
10477W        W82902   4.714  24.659  11.915
10478W        W82903  14.363   1.464  11.908
10479W        W82904  42.706   1.533   0.281
10480W        W82905  37.894   7.888  12.185
10481W        W82906  17.184  23.553   4.522
10482W        W82907  11.463   6.292   2.628
10483W        W82908   4.800  40.506   3.709
10484W        W82909  32.424  13.615  13.398
10485W        W82910  13.446  16.645   3.852
10486W        W82911  42.091  26.960   1.778
10487W        W82912  16.072  15.856   2.883
10488W        W82913  33.417  26.702  12.991
10489W        W82914  17.246   2.608   4.094
10490W        W82915  15.105  40.554  13.902
10491W        W82916  25.641  44.227   2.302
10492W        W82917  25.401  22.180   2.354
10493W        W82918   3.816  25.384  10.634
10494W        W82919  26.009  33.416   2.718
10495W        W82920  11.782   1.770   0.077
10496W        W82921   0.433  13.725  13.979
10497W        W82922  20.098   5.228  11.109
10498W        W82923  12.157  40.607   2.732
10499W        W82924  34.696  14.840  12.071
10500W        W82925  26.447  17.071   3.682
10501W        W82926  15.547  14.838  12.895
10502W        W82927  21.223  42.272  11.613
10503W        W82928  32.752  28.991   4.599
10504W        W82929  41.386  39.342  14.281
10505W        W82930  12.400  23.519  12.999
10506W        W82931   7.275  22.098  12.042
10507W        W82932  25.527  37.931  14.280
10508W        W82933  12.452  14.593   3.786
10509W        W82934  23.613  28.920  14.914
10510W        W82935  24.519   8.305  11.808
10511W        W82936  28.166   0.282  11.942
10512W        W82937  21.397  33.469  11.290
10513W        W82938  39.938   6.644  13.881
10514W        W82939  20.505   5.152   0.469
10515W        W82940   2.833  11.667  11.888
10516W        W82941  33.535  33.372   4.592
10517W        W82942  32.521   1.685  14.859
10518W        W82943   1.819  25.088   1.815
10519W        W82944  10.257  12.459   1.088
10520W        W82945  24.798  36.516   3.507
10521W        W82946  27.368  28.587   4.291
10522W        W82947  16.130   8.546  11.938
10523W        W82948  44.778  37.552   2.846
10524W        W82949  35.490  21.690  10.813
10525W        W82950  12.397  42.166  12.952
10526W        W82951  25.458   0.556   2.757
10527W        W82952  22.608  41.088   2.354
10528W        W82953  19.541  20.628   0.784
10529W        W82954  38.783  15.789   3.703
10530W        W82955  30.397  26.927  12.838
10531W        W82956  37.002  20.729   2.618
10532W        W82957  20.858  33.954   1.337
10533W        W82958  38.073  29.706  13.921
10534W        W82959  44.116  13.803   3.552
10535W        W82960  36.368   7.130   1.450
10536W        W82961  43.750  14.631   2.210
10537W        W82962  27.511   1.888  14.257
10538W        W82963  16.505  26.991   4.294
10539W        W82964  35.151  39.853   0.332
10540W        W82965  21.641   3.900  13.773
10541W        W82966  42.818  30.620  12.551
10542W        W82967   3.781  36.795  10.988
10543W        W82968  24.675  21.598  14.431
10544W        W82969   2.696  15.658  12.466
10545W        W82970  14.670  26.269  10.498
10546W        W82971   4.962  34.050  13.529
10547W        W82972  44.336  14.623  14.072
10548W        W82973  11.979  38.611  13.914
10549W        W82974  17.055  28.479  12.537
10550W        W82975  26.141  21.216  12.934
10551W        W82976  26.566   1.402   0.511
10552W        W82977  15.622  23.984  11.507
10553W        W82978  38.880  18.114  14.227
10554W        W82979  19.230  13.460  13.915
10555W        W82980  35.918  42.301   1.218
10556W        W82981  20.123  40.670   2.339
10557W        W82982  33.106  29.056   1.284
10558W        W82983  35.577  36.330  12.513
10559W        W82984  17.147  21.697  11.477
10560W        W82985  27.853  14.745  13.058
10561W        W82986  40.512  36.604  12.530
10562W        W82987  26.993  25.948   4.271
10563W        W82988  39.107  43.134  14.440
10564W        W82989  28.313  36.152   5.212
10565W        W82990  16.794   7.174   3.685
10566W        W82991  15.733  36.822  11.169
10567W        W82992  44.412  19.106   0.807
10568W        W82993  23.694  12.849  14.386
10569W        W82994   1.804  41.087  14.021
10570W        W82995  28.048  43.968   1.209
10571W        W82996  23.555  30.548   0.276
10572W        W82997  21.470  37.403  11.669
10573W        W82998  10.588  28.733  14.471
10574W        W82999  34.417  29.618  12.681
10575W        W83000  38.932  16.622  11.611
10576W        W83001  43.527   8.798  11.192
10577W        W83002  10.939  20.565  12.452
10578W        W83003  22.064  39.526   0.805
10579W        W83004  19.266  20.004  12.184
10580W        W83005   8.953  13.761  14.901
10581W        W83006   1.704  38.345   1.588
10582W        W83007   6.808  13.113   0.745
10583W        W83008  43.703  25.608   0.442
10584W        W83009  18.730  12.742  13.844
10585W        W83010  17.825  42.714  14.256
10586W        W83011  42.685  29.996   3.777
10587W        W83012  33.029  15.117  10.938
10588W        W83013  34.774  33.158  10.668
10589W        W83014  20.166   6.008  11.496
10590W        W83015   8.281   4.941   4.663
10591W        W83016  12.385  16.024  13.539
10592W        W83017  38.705  31.551  14.100
10593W        W83018  27.421   7.095   4.391
10594W        W83019  43.985  32.672   0.409
10595W        W83020  22.698  22.614   2.312
10596W        W83021   9.902   1.945  13.743
10597W        W83022  19.975  20.121  11.519
10598W        W83023   7.170  24.463  13.884
10599W        W83024  25.241   2.028  13.375
10600W        W83025  18.720  33.039   9.771
10601W        W83026  35.564  10.402  14.816
10602W        W83027  15.788   0.992  13.116
10603W        W83028  29.701  44.552  13.403
10604W        W83029  19.287  14.672   4.189
10605W        W83030  32.873  17.228   5.484
10606W        W83031   3.848   5.984   2.701
10607W        W83032  18.372  41.024   4.539
10608W        W83033  36.375  37.128  12.450
10609W        W83034  13.569  39.309   4.140
10610W        W83035  40.415  14.196  11.677
10611W        W83036  24.711  10.840  10.917
10612W        W83037  10.745  15.803   1.338
10613W        W83038  24.103  12.606   1.087
10614W        W83039  38.815  10.922   4.596
10615W        W83040  41.850   3.641   1.826
10616W        W83041  28.605  17.669  14.487
10617W        W83042  27.102  33.941  11.059
10618W        W83043  17.041   1.862  11.550
10619W        W83044   7.557   4.378   2.172
10620W        W83045   2.325  30.972  11.581
10621W        W83046  16.042  31.588  13.017
10622W        W83047   3.948  28.432  14.540
10623W        W83048   5.449  40.813   0.209
10624W        W83049  11.900  33.028   2.937
10625W        W83050  22.078   2.152  10.615
10626W        W83051  21.547   3.039  12.488
10627W        W83052  40.426   6.184  12.547
10628W        W83053  26.639  43.833  14.010
10629W        W83054  10.078   9.226   2.786
10630W        W83055   0.296  42.382   4.603
10631W        W83056  40.877  19.053   4.738
10632W        W83057  44.244  13.711   4.037
10633W        W83058   8.842  21.481   3.808
10634W        W83059  13.870  43.257  14.310
10635W        W83060  42.251   7.488   4.499
10636W        W83061  21.413  28.821  10.331
10637W        W83062  43.996   1.025  12.554
10638W        W83063  23.061  38.715  10.159
10639W        W83064   2.373  11.861   4.538
10640W        W83065  35.110  37.788  14.590
10641W        W83066  39.834  13.500  14.892
10642W        W83067  37.010   7.328   4.185
10643W        W83068  22.852  34.942  12.881
10644W        W83069  36.040   2.696   2.830
10645W        W83070  28.009  28.011  11.865
10646W        W83071   6.617  27.024   1.884
10647W        W83072   3.962   9.180  11.049
10648W        W83073  12.107  13.199   1.927
10649W        W83074   6.649  12.069   3.379
10650W        W83075  33.419  43.338  11.439
10651W        W83076  32.803  12.644   4.251
10652W        W83077   2.344  34.490   1.013
10653W        W83078   8.771  29.895   3.317
10654W        W83079  26.536  10.279   0.942
10655W        W83080  42.724  41.393   4.230
10656W        W83081  43.161  34.538   2.300
10657W        W83082  27.511  23.927  14.799
10658W        W83083  27.600  15.124   1.221
10659W        W83084  35.950  17.051  13.984
10660W        W83085  44.199  30.597   5.210
10661W        W83086  21.537  13.298   2.065
10662W        W83087   4.258  28.879   1.772
10663W        W83088  36.355  17.814  14.145
10664W        W83089   7.507   4.632  12.039
10665W        W83090  18.821  16.743   3.254
10666W        W83091  18.984   1.910   4.143
10667W        W83092   0.230  37.310  12.038
10668W        W83093  12.764  33.325   1.664
10669W        W83094  32.126  43.368  14.123
10670W        W83095  36.747  42.754   5.015
10671W        W83096   3.717  40.360  14.355
10672W        W83097  17.880  27.019   4.455
10673W        W83098  33.408  44.196   3.298
10674W        W83099  16.565  15.851   1.262
10675W        W83100  27.162   3.206   0.368
10676W        W83101   0.132   9.156   3.324
10677W        W83102   9.137   2.888   1.730
10678W        W83103  44.612  10.382   1.581
10679W        W83104  16.206   5.427   3.676
10680W        W83105  30.712   1.905   3.018
10681W        W83106  34.594  11.782  10.607
10682W        W83107  18.975  42.812  13.011
10683W        W83108  36.854  12.195  10.986
10684W        W83109   1.379  10.259  11.132
10685W        W83110  19.193  32.674   0.398
10686W        W83111  15.383  42.019  13.153
10687W        W83112  21.827  24.661   2.783
10688W        W83113  16.039  12.669  10.504
10689W        W83114   7.404   5.814   4.903
10690W        W83115  10.358  35.439  12.693
10691W        W83116  23.388  28.551   3.278
10692W        W83117  38.600  21.653  11.600
10693W        W83118  14.245  10.176  13.163
10694W        W83119  36.934  10.227  14.842
10695W        W83120   0.408  37.529  11.581
10696W        W83121  27.443  13.780   3.798
10697W        W83122   6.074  29.306   1.869
10698W        W83123  10.408  23.530  13.854
10699W        W83124   6.265  44.486  14.563
10700W        W83125  24.617  17.763  12.171
10701W        W83126  14.822  15.329   3.693
10702W        W83127  42.734  25.697   4.579
10703W        W83128   2.852  43.394  11.913
10704W        W83129   4.975  37.715   0.906
10705W        W83130  26.032  32.833   3.838
10706W        W83131  36.024  16.632   4.683
10707W        W83132   8.686   1.033   1.412
10708W        W83133  29.757  10.590  11.127
10709W        W83134  22.558  29.789   1.649
10710W        W83135   4.316  41.843   3.684
10711W        W83136  31.124  32.111  12.100
10712W        W83137  10.769  27.628   0.457
10713W        W83138  43.477  10.704  10.688
10714W        W83139  33.929   2.243   2.333
10715W        W83140   1.222  37.650  12.065
10716W        W83141   7.917  37.615  14.027
10717W        W83142   3.304   8.217   3.162
10718W        W83143  25.189  20.802  11.157
10719W        W83144  17.694   8.585   4.132
10720W        W83145  19.357  13.051  11.115
10721W        W83146  42.451  31.544  12.855
10722W        W83147  10.989  23.220   4.558
10723W        W83148   7.256   6.392   4.110
10724W        W83149  33.502   1.987   2.203
10725W        W83150   0.451   0.083  13.936
10726W        W83151  32.390  29.027  14.748
10727W        W83152  17.348  39.119   1.888
10728W        W83153  30.978  22.796   3.106
10729W        W83154  38.881  34.082  11.171
10730W        W83155   7.375   9.401   4.383
10731W        W83156  30.153  19.036   2.065
10732W        W83157  16.202  37.919  13.137
10733W        W83158  44.382  40.574   2.614
10734W        W83159   1.234   5.863  12.507
10735W        W83160  43.528  27.769  12.276
10736W        W83161  36.063   1.497  11.599
10737W        W83162  19.346  12.934   2.807
10738W        W83163  38.420  11.756  13.357
10739W        W83164  24.219  19.999  11.234
10740W        W83165  25.493  13.693   0.368
10741W        W83166  33.666  12.801  10.590
10742W        W83167   6.974   8.458   2.446
10743W        W83168  31.853  22.702  13.915
10744W        W83169  22.151  17.235  12.762
10745W        W83170  17.526  33.376   0.318
10746W        W83171  35.348   5.657   3.725
10747W        W83172  12.018  29.213  11.613
10748W        W83173  39.978  11.344   2.786
10749W        W83174  21.999  17.300  13.778
10750W        W83175   8.031  16.780  11.291
10751W        W83176  10.348  44.022   2.846
10752W        W83177  41.475  44.879  13.672
10753W        W83178  18.119  20.662  14.298
10754W        W83179  28.843   5.355   2.187
10755W        W83180   3.038   0.403   1.288
10756W        W83181  29.971  37.111  13.771
10757W        W83182   0.492  27.921   0.834
10758W        W83183  19.917   2.883   3.720
10759W        W83184  27.925  43.266  14.226
10760W        W83185  25.081  15.677   1.773
10761W        W83186   5.392  32.695  10.663
10762W        W83187   9.887  14.907   2.746
10763W        W83188  24.492  26.098   2.449
10764W        W83189  40.415  22.929   4.254
10765W        W83190  33.540  15.168  10.595
10766W        W83191   7.595   8.195  12.557
10767W        W83192  28.101  16.506   0.239
10768W        W83193  37.540  36.048  13.764
10769W        W83194  21.937  33.584  13.532
10770W        W83195  41.222  36.301  14.271
10771W        W83196  22.823  26.981   0.695
10772W        W83197   4.378  13.529   0.265
10773W        W83198  20.942  10.077   4.615
10774W        W83199   1.100  17.451  14.499
10775W        W83200   5.318  35.021  12.609
10776W        W83201  41.374  19.652  12.137
10777W        W83202  32.523  11.792  10.562
10778W        W83203  12.334  42.011   0.217
10779W        W83204   6.781  16.556   3.134
10780W        W83205  18.118  26.569   4.537
10781W        W83206  16.658   7.754   1.929
10782W        W83207  19.147  12.631   0.892
10783W        W83208  26.119  21.938   4.491
10784W        W83209   6.971   1.953   3.748
10785W        W83210  37.001  30.283   2.743
10786W        W83211  10.345  42.311  11.906
10787W        W83212  28.226   6.670   0.266
10788W        W83213   3.874  28.949  13.894
10789W        W83214  33.069   4.826   2.154
10790W        W83215   6.874   8.237  11.209
10791W        W83216  12.274  35.194   0.978
10792W        W83217   0.452  32.158   4.099
10793W        W83218   9.407  17.849  10.475
10794W        W83219  17.084  31.387  10.347
10795W        W83220  17.768  35.631  13.979
10796W        W83221   0.680  21.555   0.310
10797W        W83222  39.353  10.166   1.293
10798W        W83223  10.615  18.444   2.397
10799W        W83224  20.740  20.794   1.478
10800W        W83225  18.174   0.735   0.884
10801W        W83226  14.429   1.761   4.669
10802W        W83227   0.847   4.670  14.680
10803W        W83228  19.517  24.202   4.997
10804W        W83229   3.903   6.953   4.302
10805W        W83230   7.303  39.627  14.432
10806W        W83231   5.518  33.620  10.512
10807W        W83232  28.530  15.871  12.917
10808W        W83233  29.407  25.166  10.336
10809W        W83234  26.551  40.780  12.930
10810W        W83235  25.610  36.993   3.160
10811W        W83236  27.184  33.974  11.571
10812W        W83237   6.480   5.233  11.565
10813W        W83238  40.952  10.776   1.285
10814W        W83239  12.241  29.249  13.518
10815W        W83240  24.434  29.706  10.572
10816W        W83241  22.724  32.684   2.316
10817W        W83242  22.062  34.849  14.585
10818W        W83243  44.398  20.556  13.380
10819W        W83244  43.436  42.352   4.601
10820W        W83245  27.869  44.360  13.988
10821W        W83246  22.076   8.176  11.143
10822W        W83247  35.474  15.718  13.510
10823W        W83248  14.127  13.240   0.417
10824W        W83249  18.333  28.966  13.015
10825W        W83250  27.299  44.218  12.237
10826W        W83251  43.252   3.374  14.749
10827W        W83252   0.861  27.930   4.714
10828W        W83253  15.363  18.597   4.050
10829W        W83254  23.676   9.289   4.661
10830W        W83255  26.837  17.625   0.461
10831W        W83256  39.977  37.582   1.522
10832W        W83257  44.468  38.574   4.552
10833W        W83258   8.806  12.913  13.373
10834W        W83259  37.176  41.377  12.842
10835W        W83260  23.218  19.563   4.197
10836W        W83261  35.869  33.922   4.604
10837W        W83262  19.855  41.560   4.612
10838W        W83263   0.225  16.672  11.186
10839W        W83264   8.169  18.604   3.245
10840W        W83265  29.460   5.954  13.010
10841W        W83266  41.822  27.920   2.661
10842W        W83267  12.241  43.314   0.087
10843W        W83268  24.523  39.477  14.670
10844W        W83269  27.454  17.138  14.777
10845W        W83270   9.152  38.052  14.494
10846W        W83271  42.119   7.903  14.790
10847W        W83272  18.006  43.443  12.941
10848W        W83273   2.671  18.641  14.558
10849W        W83274  17.558   9.793  13.957
10850W        W83275  13.738  11.232  13.937
10851W        W83276  19.510   5.839  11.744
10852W        W83277   5.534   7.425  14.606
10853W        W83278   9.292  16.479  13.125
10854W        W83279  33.363  15.275  14.357
10855W        W83280  44.939  41.401  14.079
10856W        W83281  31.652  15.637   2.788
10857W        W83282  25.055   2.730  12.828
10858W        W83283  21.852  12.549   1.939
10859W        W83284   0.924  33.213   1.943
10860W        W83285  42.454  44.143  14.364
10861W        W83286  32.401  32.003  13.531
10862W        W83287  10.285  26.944  13.140
10863W        W83288  25.274  20.949   0.424
10864W        W83289  33.993  27.668   3.402
10865W        W83290   7.170  15.726   2.454
10866W        W83291  11.651  36.290   0.237
10867W        W83292  20.246   2.820   1.945
10868W        W83293  31.428  44.043  13.988
10869W        W83294  18.797  28.480  10.776
10870W        W83295  28.525  34.933  12.650
10871W        W83296  36.997  10.398   0.320
10872W        W83297  24.263  33.007   0.281
10873W        W83298   8.049  32.246  13.441
10874W        W83299   5.312  38.376  14.892
10875W        W83300  39.914   0.322  13.848
10876W        W83301   1.200  20.834   3.938
10877W        W83302  24.148   7.965  13.448
10878W        W83303  35.582  21.126   3.905
10879W        W83304  29.518   1.829   4.183
10880W        W83305   7.252  29.013  13.326
10881W        W83306  43.766   5.128  11.502
10882W        W83307  24.556  40.892   4.368
10883W        W83308   8.261   4.123   2.153
10884W        W83309  32.450  11.093   0.249
10885W        W83310   1.316  42.131  10.747
10886W        W83311   0.326   8.897  14.362
10887W        W83312   7.926  19.198  10.638
10888W        W83313   7.628  19.323  14.457
10889W        W83314  22.700  16.299  10.676
10890W        W83315   9.148  29.610   2.380
10891W        W83316  39.729  26.664   4.028
10892W        W83317  28.771  32.555  10.733
10893W        W83318   0.710  14.766   1.847
10894W        W83319  13.750  26.780  14.815
10895W        W83320  18.721   0.763  12.439
10896W        W83321   0.558  30.540   3.356
10897W        W83322  41.415   3.338   1.750
10898W        W83323   4.038  42.568  12.376
10899W        W83324  12.849  39.936  11.423
10900W        W83325   6.908  12.278  13.459
10901W        W83326  34.979  40.428   3.650
10902W        W83327  25.231   4.726   1.807
10903W        W83328   0.708   7.846  10.645
10904W        W83329   2.223   4.417   0.896
10905W        W83330   8.715  22.850  11.300
10906W        W83331  21.292   4.643  11.992
10907W        W83332  16.541  37.320   2.762
10908W        W83333  28.980  15.694   3.213
10909W        W83334  13.065  13.985   4.957
10910W        W83335  25.288  29.513   2.370
10911W        W83336  18.647  10.248   3.369
10912W        W83337  17.819  16.785   4.668
10913W        W83338  25.954  23.179  10.984
10914W        W83339  42.377  31.534  14.072
10915W        W83340  24.093  43.681  11.879
10916W        W83341   8.710  20.247   4.115
10917W        W83342  10.808  14.829   2.590
10918W        W83343  13.406   1.483   3.802
10919W        W83344  43.034  21.181  11.497
10920W        W83345   5.106  30.180  10.604
10921W        W83346   7.463  16.766  13.012
10922W        W83347  14.904  26.727   1.347
10923W        W83348   6.753  34.233   5.023
10924W        W83349  18.236  28.528   1.878
10925W        W83350  36.045  30.759   0.950
10926W        W83351  27.135  31.977  13.534
10927W        W83352  38.371  14.193   2.502
10928W        W83353  28.961  44.305   2.576
10929W        W83354  23.763  34.417   0.979
10930W        W83355  41.571  28.081   4.305
10931W        W83356  17.594  30.171   1.324
10932W        W83357  12.952  38.435  11.631
10933W        W83358  10.094   1.380   2.919
10934W        W83359  40.803  26.968   0.182
10935W        W83360  29.327  42.948   4.184
10936W        W83361  13.568   3.499   1.867
10937W        W83362  12.773  44.414   2.386
10938W        W83363   5.799  42.396  14.718
10939W        W83364   0.547  42.402  14.363
10940W        W83365  14.784   5.326   1.971
10941W        W83366  28.114   8.388   3.607
10942W        W83367  14.103   8.949  13.783
10943W        W83368  21.107  31.164   1.234
10944W        W83369  30.452  14.117   1.805
10945W        W83370   0.204  11.432   2.991
10946W        W83371  28.462  39.046  10.694
10947W        W83372  12.949  23.292  14.011
10948W        W83373   0.771  25.204  12.585
10949W        W83374  30.910   9.395  11.065
10950W        W83375  40.969   6.915  14.486
10951W        W83376  25.088   6.199   4.703
10952W        W83377  12.253  29.869  12.269
10953W        W83378  31.950  24.191  14.450
10954W        W83379   7.448  12.381   2.902
10955W        W83380  10.669   8.332  11.924
10956W        W83381   2.749  33.312   0.917
10957W        W83382  22.609  37.727  12.383
10958W        W83383  40.013   7.715  11.878
10959W        W83384   4.890  13.346  14.090
10960W        W83385  19.683  19.773   2.093
10961W        W83386  31.537   9.666   4.336
10962W        W83387  22.189  30.059   4.909
10963W        W83388  24.569  41.826  10.986
10964W        W83389   0.315  35.477  12.849
10965W        W83390   3.278   5.964  12.393
10966W        W83391  33.156   7.453   5.056
10967W        W83392  17.831   3.487   0.771
10968W        W83393  17.344  22.058   4.103
10969W        W83394  34.535  25.191  13.631
10970W        W83395  11.538   9.801  10.102
10971W        W83396  37.385  15.385   3.329
10972W        W83397  20.478   6.877   4.571
10973W        W83398  22.497  30.742   0.179
10974W        W83399  22.153  30.038   3.887
10975W        W83400  21.531  24.258  12.393
10976W        W83401   2.242  17.186   3.314
10977W        W83402  14.730  16.275  11.487
10978W        W83403  12.649  35.342  12.091
10979W        W83404  17.807  35.274   4.012
10980W        W83405  38.910  43.447  12.435
10981W        W83406  24.650  18.552  11.474
10982W        W83407   7.420  42.497   1.382
10983W        W83408   5.973  27.487   2.650
10984W        W83409   9.386  41.624   2.740
10985W        W83410  14.575  31.272   4.529
10986W        W83411  14.291  32.994  12.910
10987W        W83412  24.302   2.782  11.694
10988W        W83413  16.723  39.949   1.656
10989W        W83414  10.115  43.941  13.872
10990W        W83415  35.345   3.685   4.244
10991W        W83416   6.812  27.702  13.541
10992W        W83417  13.670  43.865   2.868
10993W        W83418  24.771  36.278   4.020
10994W        W83419  30.978   4.282  12.541
10995W        W83420   6.663  34.898   4.167
10996W        W83421  29.085  10.205  12.033
10997W        W83422  13.111  28.122  14.417
10998W        W83423  16.844  38.989   1.926
10999W        W83424  36.054  26.674   3.821
11000W        W83425  35.095  22.521  12.507
11001W        W83426   1.912  16.037  12.041
11002W        W83427  15.753  20.266  13.563
11003W        W83428  20.141  29.500   0.392
11004W        W83429  27.195   0.797   0.002
11005W        W83430  18.292  39.245   2.752
11006W        W83431   7.584  32.926   3.932
11007W        W83432  42.488  35.093   3.234
11008W        W83433   7.279  10.216   1.963
11009W        W83434  12.261  42.957  12.101
11010W        W83435  44.467  39.266  10.668
11011W        W83436  18.792  27.638  12.331
11012W        W83437  31.448  40.019  14.100
11013W        W83438  31.019  33.726   4.839
11014W        W83439  30.145  21.773   3.167
11015W        W83440   5.248  31.845  11.089
11016W        W83441  30.741  40.810  12.444
11017W        W83442  25.347  14.526  12.884
11018W        W83443  14.087  27.832   4.121
11019W        W83444  23.216  16.688   4.703
11020W        W83445  25.545  30.454  14.907
11021W        W83446  19.551   4.425   4.067
11022W        W83447  36.473   0.214  10.480
11023W        W83448  30.903  42.084   3.268
11024W        W83449  29.451  40.955  10.813
11025W        W83450   4.270   6.706  12.588
11026W        W83451  18.836   5.243   1.851
11027W        W83452  11.250  23.609  12.451
11028W        W83453  18.702  14.136  13.065
11029W        W83454  37.531   8.104   2.640
11030W        W83455   3.781  37.925  10.707
11031W        W83456  27.898  15.762   3.309
11032W        W83457   5.264  27.431   1.768
11033W        W83458  36.800  39.982   3.702
11034W        W83459   6.324  10.644  11.076
11035W        W83460  19.868   6.624   1.720
11036W        W83461  29.299  11.308   4.074
11037W        W83462  28.426   0.240   1.320
11038W        W83463   5.424  41.911   0.350
11039W        W83464  27.048  11.565   4.116
11040W        W83465   2.516   0.344   3.755
11041W        W83466  10.798  34.589   4.644
11042W        W83467   6.074  29.221  14.635
11043W        W83468   0.275  31.635   4.154
11044W        W83469  39.305  37.075  11.123
11045W        W83470  22.935   7.756   9.600
11046W        W83471  29.343  34.909  13.812
11047W        W83472  23.637  22.607   1.221
11048W        W83473  12.272   9.164  11.412
11049W        W83474  13.165  29.328   3.716
11050W        W83475  12.864   4.628   3.259
11051W        W83476  34.399  13.423   1.538
11052W        W83477  35.486  24.263   0.823
11053W        W83478  18.618  30.983  13.303
11054W        W83479  42.325  15.288  11.648
11055W        W83480  24.977  35.924  13.256
11056W        W83481  34.955  32.147   2.221
11057W        W83482   1.238  24.204   0.372
11058W        W83483  14.653  41.515   4.085
11059W        W83484   8.598  18.357   3.407
11060W        W83485  26.676  33.896  10.325
11061W        W83486  37.410   0.429  13.491
11062W        W83487   7.452  27.486   2.797
11063W        W83488  20.694  40.426   3.754
11064W        W83489  21.269  26.136   3.318
11065W        W83490  37.795  19.780   2.885
11066W        W83491  26.019  32.613  11.471
11067W        W83492  10.278  25.146   4.615
11068W        W83493   4.174  35.558  12.022
11069W        W83494  41.828  42.029  11.049
11070W        W83495  30.083  24.704  11.930
11071W        W83496   9.756  11.256   2.487
11072W        W83497  29.660   3.405   4.588
11073W        W83498  26.498  37.007   3.710
11074W        W83499   6.077  14.279  11.647
11075W        W83500   0.419  17.516  14.009
11076W        W83501   6.889  16.171  13.393
11077W        W83502  22.388  21.445  14.223
11078W        W83503   7.790  31.608   4.016
11079W        W83504  23.441  18.932   3.275
11080W        W83505  11.597  11.115   0.462
11081W        W83506  14.626  40.016  12.600
11082W        W83507  20.799  38.022   3.878
11083W        W83508  23.272  42.993   1.823
11084W        W83509  33.617  41.206  12.537
11085W        W83510  39.631  39.218  13.994
11086W        W83511  30.407  40.396   2.809
11087W        W83512  36.381  22.680  14.246
11088W        W83513  13.096   7.612  12.506
11089W        W83514  36.980  19.820  12.969
11090W        W83515  32.059   4.638   2.400
11091W        W83516  17.072   3.762   0.047
11092W        W83517   6.819  23.408  10.930
11093W        W83518   0.431   5.201   1.011
11094W        W83519  42.011  26.094  13.391
11095W        W83520  14.560  23.730   3.660
11096W        W83521   4.433  25.101  11.493
11097W        W83522   5.356   2.575  13.438
11098W        W83523  22.236  37.751   3.420
11099W        W83524  43.631  15.100   0.581
11100W        W83525  33.317  43.776  12.942
11101W        W83526  10.310  16.253   2.116
11102W        W83527  40.387  40.986   0.793
11103W        W83528   5.899  16.157   4.046
11104W        W83529  44.458  10.291   2.507
11105W        W83530   3.330  12.217   0.869
11106W        W83531   6.184  37.288  13.945
11107W        W83532  24.004  26.080  11.502
11108W        W83533  26.620  27.461   4.654
11109W        W83534  11.733   0.030  11.835
11110W        W83535   1.703   8.170  12.586
11111W        W83536  20.214  11.719   0.846
11112W        W83537   1.564  20.161  13.786
11113W        W83538   1.994  39.757  10.752
11114W        W83539   3.902  34.446  14.279
11115W        W83540  31.716  24.819  11.267
11116W        W83541  14.690   9.920  10.236
11117W        W83542  39.863  31.872  14.488
11118W        W83543  26.896  30.319   3.694
11119W        W83544  36.276  42.970  11.620
11120W        W83545   1.228   1.941  13.435
11121W        W83546  16.269  44.366  14.406
11122W        W83547  14.419  17.349  11.575
11123W        W83548  20.885  16.564   0.278
11124W        W83549  20.000  17.349   4.163
11125W        W83550   6.201  27.450   0.736
11126W        W83551   2.961  22.220  10.805
11127W        W83552  30.413  22.757   2.299
11128W        W83553   4.943  35.965   3.837
11129W        W83554  21.247  36.054   4.139
11130W        W83555  30.160  31.789  14.001
11131W        W83556  31.150  37.437   4.448
11132W        W83557  15.386   4.269   1.418
11133W        W83558  21.592   3.378  14.407
11134W        W83559  39.987  23.466  11.184
11135W        W83560  26.489   4.519   1.228
11136W        W83561   6.978  20.596  13.584
11137W        W83562  40.864  35.311   0.431
11138W        W83563  21.713  19.518  10.634
11139W        W83564  26.100   4.675   2.030
11140W        W83565  12.236  37.798   4.174
11141W        W83566  43.355   9.651  12.232
11142W        W83567   6.783   2.880   4.654
11143W        W83568   3.381   8.281  12.883
11144W        W83569   4.940   0.110  12.029
11145W        W83570  25.064  42.091  14.058
11146W        W83571  38.553  34.049  12.497
11147W        W83572   4.754  14.112   4.687
11148W        W83573  28.543  14.392   3.335
11149W        W83574   5.685  36.471   5.667
11150W        W83575   6.861  23.236  12.864
11151W        W83576  22.532  29.945   2.132
11152W        W83577   3.021  40.813   1.884
11153W        W83578  17.835   8.628   2.409
11154W        W83579   3.225  31.377   2.622
11155W        W83580   7.927   6.729  12.414
11156W        W83581  16.399   2.666  13.550
11157W        W83582  42.066  18.128   0.065
11158W        W83583  25.566  12.557  10.771
11159W        W83584  40.389  21.792   4.625
11160W        W83585   3.805   2.752  13.269
11161W        W83586  21.733  11.696   0.906
11162W        W83587   1.964  17.091   1.897
11163W        W83588  26.010   0.853  13.358
11164W        W83589   2.504  38.223  14.755
11165W        W83590  10.914   7.094   0.669
11166W        W83591  34.087  42.926  10.189
11167W        W83592   6.355   5.601  13.722
11168W        W83593  19.421  33.581  12.991
11169W        W83594   2.361  35.449   0.069
11170W        W83595  33.824  41.861   4.579
11171W        W83596  22.323  15.643  12.846
11172W        W83597  22.790  12.200   3.623
11173W        W83598   0.890  25.755  12.460
11174W        W83599  17.917  42.817  10.419
11175W        W83600  35.357  37.521   2.705
11176W        W83601   7.728  17.049  11.617
11177W        W83602  27.833  18.735   3.201
11178W        W83603  29.625  28.161   2.702
11179W        W83604  33.557   6.092   3.825
11180W        W83605  24.308   5.767   3.119
11181W        W83606  13.970  37.497   2.106
11182W        W83607   5.825  30.256   4.794
11183W        W83608  25.563  44.677   4.262
11184W        W83609  20.042   4.667  11.156
11185W        W83610  15.251  15.066   3.654
11186W        W83611  31.455   3.777   4.910
11187W        W83612   6.635  42.811   4.203
11188W        W83613   0.272  30.991   3.298
11189W        W83614   4.928  12.753  14.440
11190W        W83615  16.759   0.727  13.548
11191W        W83616   1.975  25.135  13.101
11192W        W83617  15.765   3.359   3.185
11193W        W83618  35.005  35.112   2.178
11194W        W83619  25.245   0.373   3.679
11195W        W83620  16.283  15.619  12.153
11196W        W83621   3.424  39.818  11.486
11197W        W83622  17.205   9.219   0.540
11198W        W83623   2.724   1.458  12.431
11199W        W83624  24.049  22.929  14.882
11200W        W83625  16.522  16.633   4.133
11201W        W83626  11.923   0.949  11.427
11202W        W83627  21.263  10.349  10.439
11203W        W83628  10.634  28.945   0.832
11204W        W83629  44.214  40.916  14.245
11205W        W83630  34.014  24.891   1.232
11206W        W83631   0.693   7.837  14.041
11207W        W83632   7.140  35.504  12.093
11208W        W83633  22.459  42.518   0.892
11209W        W83634   1.689   1.812  14.855
11210W        W83635  12.095  15.757   4.194
11211W        W83636  15.284  11.661  14.017
11212W        W83637  17.822   1.474   5.046
11213W        W83638   5.669  41.831   4.160
11214W        W83639  11.231  43.298   4.930
11215W        W83640  18.849  24.983  11.584
11216W        W83641  40.005  35.393   0.924
11217W        W83642   6.472  11.197   2.070
11218W        W83643  11.733  31.338   3.294
11219W        W83644  34.931  13.549  13.028
11220W        W83645   2.835  37.563   0.926
11221W        W83646  43.416  32.376   4.151
11222W        W83647  15.597   0.248  12.923
11223W        W83648  36.628  20.752   1.889
11224W        W83649   0.993  39.994   4.144
11225W        W83650   7.758  23.674  12.429
11226W        W83651  37.185   1.880  11.715
11227W        W83652  42.892  11.642  10.941
11228W        W83653  37.958  36.153  11.245
11229W        W83654  27.244   6.964  13.417
11230W        W83655  37.352  43.962  14.391
11231W        W83656   5.325  10.727   3.331
11232W        W83657  40.900  34.062   0.900
11233W        W83658  20.714  44.963   1.323
11234W        W83659  21.427  16.392  12.781
11235W        W83660  39.823  12.564  11.345
11236W        W83661   3.176  40.419   4.356
11237W        W83662   7.502  43.475  14.216
11238W        W83663  11.617  19.077  13.254
11239W        W83664  40.405  23.159  14.569
11240W        W83665  29.140  38.997  13.308
11241W        W83666  39.273   6.944   0.458
11242W        W83667  31.024  20.347   3.830
11243W        W83668  41.483  24.534   2.400
11244W        W83669  12.769  40.075   1.757
11245W        W83670  33.194  18.182   5.069
11246W        W83671  28.970  12.716  12.635
11247W        W83672   3.344  17.980   3.219
11248W        W83673  12.152  44.736  13.956
11249W        W83674  35.879  24.485  13.057
11250W        W83675  24.094  15.999  13.906
11251W        W83676  31.697  15.658   1.868
11252W        W83677  40.516  37.201  10.734
11253W        W83678  44.743   5.352  14.339
11254W        W83679  22.222  14.326   1.908
11255W        W83680  40.421  22.493  13.834
11256W        W83681  31.083  12.330   4.588
11257W        W83682  21.260  15.712  11.210
11258W        W83683   1.620  29.479   1.455
11259W        W83684   6.900   6.337  13.117
11260W        W83685  15.333   0.533  10.337
11261W        W83686  44.909   4.755   0.952
11262W        W83687   4.890  18.564   0.820
11263W        W83688  14.222  39.683  11.068
11264W        W83689   1.423  39.036  13.904
11265W        W83690  24.274  26.407  11.219
11266W        W83691   6.711   5.848  11.423
11267W        W83692  25.765  14.206  10.710
11268W        W83693  32.398  30.992   4.780
11269W        W83694  29.449   3.644  10.932
11270W        W83695  29.148  37.589  13.832
11271W        W83696  31.601   7.503  13.501
11272W        W83697  30.711  33.019   1.781
11273W        W83698  31.333   6.701   1.183
11274W        W83699  17.620  14.886   3.684
11275W        W83700  36.883  37.278   3.931
11276W        W83701   1.508  14.829   1.364
11277W        W83702  30.415  23.669   2.989
11278W        W83703  23.257  42.835   4.572
11279W        W83704  21.615  25.172  14.734
11280W        W83705  36.470  13.578  11.096
11281W        W83706   5.124  30.468  11.643
11282W        W83707  26.917   4.217  13.371
11283W        W83708  24.750  11.841   4.609
11284W        W83709  36.846  26.907   4.985
11285W        W83710  27.784  15.082   2.162
11286W        W83711  15.556  10.889  11.057
11287W        W83712  28.473  32.010  14.576
11288W        W83713  26.665  44.142  11.586
11289W        W83714  44.170  23.323  13.299
11290W        W83715   2.449  20.566  13.860
11291W        W83716   7.331  31.260  10.674
11292W        W83717  19.210  22.662   1.978
11293W        W83718  32.190   6.276  10.733
11294W        W83719  13.691   6.868   4.718
11295W        W83720  21.364  36.923  11.871
11296W        W83721  29.189  33.415  11.557
11297W        W83722  39.263  30.264  11.591
11298W        W83723  24.026  17.845   0.971
11299W        W83724  22.238  18.086   4.577
11300W        W83725  39.839  40.985  10.561
11301W        W83726   2.759  10.899  14.839
11302W        W83727  32.803  17.870   0.236
11303W        W83728  43.384  44.450   4.094
11304W        W83729  22.258  40.943  12.733
11305W        W83730  15.686  13.986   0.314
11306W        W83731   5.653  18.785  12.064
11307W        W83732   3.350  11.184  14.846
11308W        W83733   4.601  21.149   1.373
11309W        W83734  24.290  23.367  14.708
11310W        W83735   0.284   2.079  11.934
11311W        W83736   1.639  35.160   2.000
11312W        W83737  32.021  30.808   5.062
11313W        W83738  28.016  22.909   3.861
11314W        W83739  12.500  19.316   3.617
11315W        W83740   7.492  29.708   3.622
11316W        W83741  17.067   2.315   3.706
11317W        W83742  11.844  27.037  13.844
11318W        W83743  25.002  18.276   3.545
11319W        W83744  36.611  20.722   0.954
11320W        W83745  44.870   9.522   1.258
11321W        W83746   0.781   4.813  10.502
11322W        W83747   9.244  31.141  10.494
11323W        W83748   0.529  11.370  13.116
11324W        W83749   8.725  11.424   3.163
11325W        W83750  16.640  26.132   2.788
11326W        W83751   5.923  15.540  14.903
11327W        W83752  13.753  30.020  14.049
11328W        W83753  43.066  26.488   4.190
11329W        W83754  14.854  20.632  14.518
11330W        W83755  10.755  27.538  12.426
11331W        W83756  25.603  31.041   0.272
11332W        W83757  34.397   5.481   3.028
11333W        W83758   1.802  16.141   1.568
11334W        W83759  21.684  43.339  13.559
11335W        W83760  30.858  44.307  10.634
11336W        W83761  39.001   4.843   0.790
11337W        W83762  15.719  14.272   3.760
11338W        W83763  21.173  39.646  11.514
11339W        W83764  42.713  11.199  12.070
11340W        W83765  14.769  36.882   0.684
11341W        W83766  28.058  44.414   4.560
11342W        W83767  17.799   8.212   1.263
11343W        W83768  15.153  26.588  12.555
11344W        W83769  33.384  30.604  14.918
11345W        W83770  25.111  30.661  13.821
11346W        W83771  38.564  43.112   5.011
11347W        W83772  42.104  33.044   4.677
11348W        W83773  36.275  11.304   2.567
11349W        W83774   7.321  17.843  13.983
11350W        W83775   8.557  40.106  13.001
11351W        W83776  30.031  32.687  10.129
11352W        W83777  28.721  36.000  11.267
11353W        W83778  10.411   6.017  14.116
11354W        W83779  30.049  12.718   3.798
11355W        W83780  44.316  19.729   3.921
11356W        W83781  43.834  24.309   0.326
11357W        W83782  25.523  37.747   4.556
11358W        W83783  33.420  35.859  11.506
11359W        W83784  29.623  36.963  13.230
11360W        W83785   3.481  28.371  13.219
11361W        W83786  10.779  32.255  14.461
11362W        W83787   9.830  18.655   4.921
11363W        W83788  32.296  26.643  12.758
11364W        W83789  29.861  29.759   3.856
11365W        W83790   7.160   5.783   2.417
11366W        W83791  39.619  16.962  12.105
11367W        W83792  19.551   5.784   2.390
11368W        W83793  35.363  13.546  13.957
11369W        W83794  42.180   7.762   3.691
11370W        W83795   3.258  30.820  12.673
11371W        W83796  27.571  10.148   0.925
11372W        W83797   1.252  34.518   2.983
11373W        W83798  37.134  21.538   0.949
11374W        W83799  22.074  44.376  13.068
11375W        W83800  39.416  20.234   2.317
11376W        W83801   9.306   3.502  11.544
11377W        W83802  33.900  13.082   3.664
11378W        W83803  14.257  22.008   5.580
11379W        W83804  43.370  43.949   0.268
11380W        W83805  42.460  30.366   4.803
11381W        W83806  28.487   5.325   5.005
11382W        W83807  31.469   1.337   0.060
11383W        W83808  34.251  31.430  13.342
11384W        W83809  25.160   9.871   2.555
11385W        W83810  30.561  41.329   0.870
11386W        W83811  10.195   9.725   1.990
11387W        W83812   9.825   8.386  11.929
11388W        W83813  21.146  40.951   2.771
11389W        W83814  29.826  25.158   1.314
11390W        W83815   2.212  44.449   2.800
11391W        W83816  40.979  36.334   0.857
11392W        W83817   2.719   0.456  13.146
11393W        W83818  37.778  39.888   2.647
11394W        W83819  39.074  17.647  13.563
11395W        W83820  41.921  34.958   3.337
11396W        W83821   7.463  31.618   2.704
11397W        W83822   8.658  25.405   4.677
11398W        W83823  23.735   2.373  11.277
11399W        W83824   8.351  13.817   3.665
11400W        W83825  10.694   4.531   4.317
11401W        W83826  13.640  23.997   4.664
11402W        W83827  30.689  41.977   0.952
11403W        W83828  30.600  38.133  14.998
11404W        W83829  20.052  27.404  13.912
11405W        W83830  39.405  43.060  10.505
11406W        W83831  35.397  23.744   5.065
11407W        W83832  23.068  17.727   0.955
11408W        W83833  19.567  29.591   1.772
11409W        W83834  14.300  31.465  14.552
11410W        W83835  41.308  32.448   2.669
11411W        W83836  11.773  37.913   3.660
11412W        W83837  36.607  13.169  12.969
11413W        W83838  16.843  17.101   4.601
11414W        W83839  15.578  37.009   3.773
11415W        W83840  43.976  18.012   3.677
11416W        W83841  17.719  20.523   2.783
11417W        W83842  12.779  34.293  10.597
11418W        W83843   8.397  12.407  14.717
11419W        W83844  21.827  43.289   2.359
11420W        W83845  36.465  38.279   0.480
11421W        W83846  40.417  40.860  11.465
11422W        W83847  36.033   6.484  13.916
11423W        W83848  29.831   1.811  13.505
11424W        W83849   9.108  14.852   2.382
11425W        W83850  44.068   9.476   0.859
11426W        W83851  14.808  20.081  11.687
11427W        W83852  37.946  26.962   1.874
11428W        W83853  14.875  30.102   2.410
11429W        W83854   5.268  34.184  11.809
11430W        W83855  39.308  25.996  11.443
11431W        W83856  25.057  42.439   2.330
11432W        W83857  29.410  34.575   4.241
11433W        W83858   4.769  42.689  13.356
11434W        W83859  31.604  38.128   4.487
11435W        W83860  27.233  27.257  12.295
11436W        W83861  35.747  16.576  13.987
11437W        W83862  23.579   3.913   4.587
11438W        W83863  22.976  27.875   4.183
11439W        W83864  23.571  17.220  12.843
11440W        W83865  11.714  12.388   3.719
11441W        W83866  25.551   6.683   4.159
11442W        W83867  27.068  19.503  12.299
11443W        W83868  36.854  20.131   4.407
11444W        W83869   1.326  40.889  13.990
11445W        W83870   4.648  25.749  10.736
11446W        W83871   8.623  33.494   4.997
11447W        W83872  14.546   0.203  12.933
11448W        W83873  28.921  31.661  11.077
11449W        W83874  17.908   0.974  10.584
11450W        W83875  10.752  25.792   0.475
11451W        W83876  38.960  15.728   3.186
11452W        W83877  41.249  12.408  14.171
11453W        W83878  25.010   4.943  11.260
11454W        W83879   5.715   3.300  10.627
11455W        W83880  23.440  21.760  11.639
11456W        W83881  38.989   9.683  13.065
11457W        W83882  41.962  36.696   2.827
11458W        W83883  44.358  15.323  14.727
11459W        W83884  16.062  30.496  14.090
11460W        W83885   5.148   0.763  14.231
11461W        W83886  36.981  13.756  11.708
11462W        W83887  41.005  30.430   3.354
11463W        W83888  19.156  42.284  13.765
11464W        W83889  19.331  30.569   3.512
11465W        W83890  36.074  32.015   1.510
11466W        W83891  40.685  42.856  10.195
11467W        W83892  44.378   5.700   2.610
11468W        W83893  31.498   1.325   1.888
11469W        W83894   7.396  26.064  10.445
11470W        W83895  36.897  10.365   1.958
11471W        W83896  28.320  26.151   3.612
11472W        W83897  38.828   7.805   4.205
11473W        W83898   8.343  28.741  13.351
11474W        W83899  37.965   5.878   3.028
11475W        W83900  22.611   6.114   1.481
11476W        W83901  35.852  42.363   2.616
11477W        W83902   9.354  22.792   1.366
11478W        W83903  27.695   1.679  14.703
11479W        W83904  26.273  38.909  10.560
11480W        W83905  31.513   9.459   0.495
11481W        W83906  36.009  25.915   2.790
11482W        W83907  38.089  24.693   1.573
11483W        W83908   3.766  40.419  12.658
11484W        W83909  11.136   3.736  13.833
11485W        W83910   1.916  14.376   0.449
11486W        W83911  18.554  36.514   2.412
11487W        W83912   5.286  28.501  12.239
11488W        W83913   9.433  12.202  12.361
11489W        W83914  26.148  28.700   4.695
11490W        W83915   9.678  21.278  10.619
11491W        W83916  13.419   0.289   2.831
11492W        W83917   0.424  14.128  10.744
11493W        W83918  16.641   5.868   0.607
11494W        W83919  36.897  18.837   3.645
11495W        W83920  13.229  13.843   2.748
11496W        W83921   7.383  34.664  13.364
11497W        W83922  11.231  22.910   2.203
11498W        W83923  12.098  37.412  13.944
11499W        W83924  18.133  15.321  14.550
11500W        W83925  11.068  30.952   4.226
11501W        W83926  33.784  21.039   2.824
11502W        W83927  33.466   7.735   4.527
11503W        W83928   5.442  24.014   0.438
11504W        W83929  21.618  15.414  14.029
11505W        W83930  41.200  14.282  12.205
11506W        W83931  38.026   7.402  14.656
11507W        W83932  40.275  35.702  12.903
11508W        W83933   2.314  19.551   4.575
11509W        W83934  27.582  17.893   1.731
11510W        W83935  38.819  37.017  10.080
11511W        W83936  13.315   7.455  12.972
11512W        W83937  12.378  16.533   3.693
11513W        W83938   4.351  37.598   1.944
11514W        W83939  35.287   1.430   3.115
11515W        W83940  44.066  20.571   1.739
11516W        W83941  36.010   5.350  11.009
11517W        W83942   9.373   9.570   3.067
11518W        W83943   2.206  37.275  10.940
11519W        W83944  20.048  19.593  11.660
11520W        W83945   7.593  34.522   4.175
11521W        W83946  23.243   7.563   4.091
11522W        W83947  16.316   7.614  14.415
11523W        W83948  20.473  20.037  14.769
11524W        W83949  34.452  37.120  13.816
11525W        W83950  35.517  39.564  11.174
11526W        W83951   1.000  42.934   1.395
11527W        W83952  27.231  20.284  14.785
11528W        W83953  14.574  42.710   4.808
11529W        W83954  33.488  27.579   0.541
11530W        W83955   2.025  24.447   0.732
11531W        W83956  30.073  11.638   4.317
11532W        W83957  39.912  37.111  14.428
11533W        W83958  14.755   0.428   4.574
11534W        W83959  43.419  32.379  11.575
11535W        W83960  31.946  10.787   3.666
11536W        W83961  33.438   5.555  12.093
11537W        W83962  31.627  17.549  13.453
11538W        W83963  31.471  12.118  12.724
11539W        W83964  39.982   6.456  10.705
11540W        W83965  23.798  14.446  11.167
11541W        W83966  37.763  43.059  12.653
11542W        W83967  18.769  38.887  12.037
11543W        W83968  23.175  38.684  13.084
11544W        W83969  30.430  28.589   4.525
11545W        W83970  20.735  30.583   3.688
11546W        W83971   5.177  36.368   4.649
11547W        W83972  14.373  36.710   2.954
11548W        W83973  33.054  36.124   2.159
11549W        W83974  31.619  42.388  13.231
11550W        W83975  34.809  44.781   1.352
11551W        W83976  42.404   7.803   1.262
11552W        W83977   1.830  33.449  11.070
11553W        W83978  28.501  30.777   5.243
11554W        W83979  16.799  14.315  13.029
11555W        W83980   2.450  13.179   4.833
11556W        W83981  41.889  39.740  12.656
11557W        W83982  31.318  25.456  12.098
11558W        W83983  29.573  41.942  14.376
11559W        W83984  12.229  26.205  12.590
11560W        W83985  29.063  20.484   3.627
11561W        W83986  42.655  19.574  14.033
11562W        W83987  29.798  17.128   4.060
11563W        W83988   8.727  29.350   3.487
11564W        W83989   1.531   1.127  11.993
11565W        W83990  21.265  39.262  12.425
11566W        W83991  13.227  17.292   2.739
11567W        W83992  12.235  21.706  10.853
11568W        W83993  15.768   8.261  14.592
11569W        W83994  14.662  26.295  13.278
11570W        W83995  31.599   0.530  12.498
11571W        W83996  28.114  20.821  10.721
11572W        W83997  24.721  41.780   2.514
11573W        W83998  26.117   1.922   1.390
11574W        W83999   3.249  15.093   1.170
11575W        W84000  30.571  33.326  13.857
11576W        W84001  23.106  20.120   3.212
11577W        W84002  30.011   5.990  14.368
11578W        W84003   6.601  14.463   0.425
11579W        W84004   9.127  14.237  11.605
11580W        W84005  40.824   4.994  11.319
11581W        W84006  30.058  18.739   1.181
11582W        W84007  29.037  17.226  12.975
11583W        W84008  29.461  32.099  10.538
11584W        W84009   0.720   9.755   1.257
11585W        W84010   4.043  41.786   3.216
11586W        W84011   1.509  12.668   4.187
11587W        W84012  33.940  25.575  14.799
11588W        W84013  32.088   4.158  11.498
11589W        W84014   9.422  43.058  12.905
11590W        W84015  18.214  10.862   3.580
11591W        W84016  38.498  28.553   3.314
11592W        W84017  43.400  24.715  12.451
11593W        W84018  18.397  33.581  11.049
11594W        W84019  24.694  10.710  11.422
11595W        W84020   3.001  29.500  14.520
11596W        W84021  38.376  32.464   1.168
11597W        W84022  14.772  28.594  12.767
11598W        W84023   7.335  13.270  12.113
11599W        W84024  15.890  35.536  10.474
11600W        W84025  31.564  28.195   3.253
11601W        W84026  30.094   5.678   1.459
11602W        W84027  40.871  11.289   3.227
11603W        W84028  28.131   5.759  13.332
11604W        W84029  41.957   3.386   4.558
11605W        W84030   6.108  44.922   2.705
11606W        W84031  37.142  44.512  13.599
11607W        W84032  23.430  34.113  11.383
11608W        W84033   0.716  15.223  14.351
11609W        W84034  29.166   0.397  10.704
11610W        W84035  36.591  30.344  14.379
11611W        W84036   9.363  10.640  13.338
11612W        W84037  17.570  42.549  13.060
11613W        W84038  43.523  27.556  11.453
11614W        W84039  10.614  31.228  14.352
11615W        W84040   1.521  16.478   1.847
11616W        W84041  32.259  32.823  14.553
11617W        W84042  22.086  23.230  10.714
11618W        W84043  31.026  19.690   5.006
11619W        W84044   6.943  34.897   0.191
11620W        W84045  14.469  13.284  12.116
11621W        W84046  26.449  40.036   1.701
11622W        W84047   7.671   7.844  12.042
11623W        W84048  41.515  11.487  11.216
11624W        W84049  10.633   4.847  10.242
11625W        W84050  11.321   8.697  10.562
11626W        W84051  20.219  36.508  12.388
11627W        W84052  25.392  25.347   0.340
11628W        W84053  16.914  42.004  13.511
11629W        W84054  43.138  44.384   1.842
11630W        W84055  36.661   1.489   0.896
11631W        W84056  14.013  41.766  12.304
11632W        W84057  10.488   7.849  10.775
11633W        W84058  21.032  34.600  13.978
11634W        W84059   3.027  26.934   4.597
11635W        W84060  21.698  37.852   1.416
11636W        W84061   2.177   6.212   3.230
11637W        W84062  16.626   2.606   3.742
11638W        W84063  11.425  41.453   2.914
11639W        W84064  40.613  30.064  13.379
11640W        W84065   3.309  14.645  12.536
11641W        W84066  35.029  31.380   4.583
11642W        W84067  37.039  12.747   2.536
11643W        W84068   7.595  22.168   2.362
11644W        W84069  25.296   5.223   3.777
11645W        W84070   3.445   7.813  11.029
11646W        W84071  35.161  14.628   4.478
11647W        W84072   9.928   0.792  12.983
11648W        W84073  14.549  34.432  10.693
11649W        W84074  18.031  10.716  14.451
11650W        W84075  18.387  32.426   3.751
11651W        W84076  36.877  11.904   2.721
11652W        W84077  19.642  32.894  13.532
11653W        W84078  35.325   5.414   4.201
11654W        W84079   0.432  10.395  14.334
11655W        W84080   7.130  26.534  11.620
11656W        W84081  26.556   1.529  13.008
11657W        W84082  35.291  40.431  12.911
11658W        W84083   1.457   5.627   2.263
11659W        W84084  44.766  34.065   1.919
11660W        W84085  37.428  43.328   4.094
11661W        W84086  44.060  13.835   0.367
11662W        W84087   9.201  11.651  11.682
11663W        W84088  35.069   3.239   4.147
11664W        W84089  23.121  29.477   4.381
11665W        W84090   3.173  27.159  13.388
11666W        W84091   5.846  14.217  10.975
11667W        W84092   0.196  44.802  14.322
11668W        W84093  11.161   3.343  11.683
11669W        W84094  37.554  20.215   0.413
11670W        W84095  41.183  42.502   0.996
11671W        W84096  15.545  12.257   3.430
11672W        W84097  27.706  30.046  13.594
11673W        W84098  32.901  31.298  10.854
11674W        W84099   9.986  11.661  12.124
11675W        W84100  15.095  14.827  13.141
11676W        W84101  42.855   7.747   3.164
11677W        W84102   5.859  10.289  13.129
11678W        W84103  23.209  31.017  13.383
11679W        W84104   5.234  23.058   4.151
11680W        W84105  12.896   6.154   0.419
11681W        W84106  42.797   9.850  11.588
11682W        W84107  35.358  37.616   0.038
11683W        W84108  17.266  12.534   0.373
11684W        W84109  15.363  24.807  11.004
11685W        W84110  16.972  35.727  11.164
11686W        W84111   5.336  33.954  10.931
11687W        W84112  35.062  15.534  10.065
11688W        W84113  14.099  14.901  14.900
11689W        W84114  19.176  40.220   2.167
11690W        W84115  44.225  41.501   1.308
11691W        W84116  16.020  43.312  14.490
11692W        W84117  14.307  12.862   3.589
11693W        W84118  35.590  22.851  11.346
11694W        W84119  33.060  10.600   0.778
11695W        W84120  20.678  15.856   4.921
11696W        W84121   2.877  10.230  10.009
11697W        W84122  12.767  42.788   1.726
11698W        W84123  29.178  34.837   1.620
11699W        W84124  22.370  38.308   4.200
11700W        W84125  20.648  27.940  12.503
11701W        W84126  20.769  30.028   1.945
11702W        W84127  30.129   3.742  14.965
11703W        W84128  37.069   2.877   1.813
11704W        W84129  36.946   5.874   0.447
11705W        W84130  38.218  19.908   1.951
11706W        W84131  29.685  35.335  12.484
11707W        W84132  28.599  30.193   3.149
11708W        W84133  36.108  37.294   0.391
11709W        W84134  19.454  27.390  10.732
11710W        W84135  11.874   0.885   2.622
11711W        W84136  13.624   4.968   1.350
11712W        W84137  15.288  41.282  10.742
11713W        W84138  26.059  15.440  14.337
11714W        W84139  35.006  26.575  10.066
11715W        W84140  13.333  38.878   2.358
11716W        W84141  12.615  35.229  10.880
11717W        W84142  41.310  23.001   3.231
11718W        W84143  18.553  43.209   2.762
11719W        W84144  30.044  44.311  13.103
11720W        W84145  34.778   3.791  12.000
11721W        W84146  37.639  24.887  14.401
11722W        W84147  26.584  33.357  11.614
11723W        W84148  41.406  35.499   0.784
11724W        W84149  44.979   5.403  12.117
11725W        W84150  19.754  21.000   2.769
11726W        W84151  40.647  36.520   2.327
11727W        W84152  35.327  27.566   0.821
11728W        W84153  12.702  29.085  14.394
11729W        W84154  14.466  12.020  11.172
11730W        W84155  30.936  43.070  11.524
11731W        W84156  17.531   6.874  10.772
11732W        W84157  21.676  23.834   3.201
11733W        W84158  39.863  18.803   1.871
11734W        W84159  21.429   9.265   1.474
11735W        W84160  14.824  15.839  11.058
11736W        W84161  11.613  33.799  14.973
11737W        W84162  17.865  29.970   0.850
11738W        W84163  22.148  36.826   3.167
11739W        W84164  43.942  36.607  11.847
11740W        W84165  40.727  17.627   2.451
11741W        W84166  27.284  24.197  11.144
11742W        W84167  38.645   6.968   2.900
11743W        W84168  33.680  30.084   4.882
11744W        W84169  18.275   2.212   3.303
11745W        W84170  31.867  35.094  14.980
11746W        W84171  14.639  35.822  13.815
11747W        W84172   5.680  24.259  12.028
11748W        W84173  24.884  44.141  13.591
11749W        W84174  29.059  23.178   2.218
11750W        W84175  12.269   8.669  11.560
11751W        W84176  33.063   7.211   2.737
11752W        W84177  26.782  35.077  12.528
11753W        W84178  15.820  28.801   1.900
11754W        W84179  31.674  23.468  13.626
11755W        W84180  25.652  11.090   1.340
11756W        W84181   3.152   5.248  11.584
11757W        W84182  25.518  22.606  14.795
11758W        W84183  24.006  36.960   4.566
11759W        W84184  33.418  44.864   2.636
11760W        W84185  31.668  40.017  11.440
11761W        W84186  34.050   4.955  13.175
11762W        W84187  12.060  38.004   2.460
11763W        W84188  10.638  27.214  12.848
11764W        W84189  35.297  36.525  13.820
11765W        W84190  28.984   1.786  10.658
11766W        W84191  38.612  12.453  14.436
11767W        W84192  15.408  29.575   0.393
11768W        W84193   0.089  14.029  11.993
11769W        W84194  21.544  20.215   4.769
11770W        W84195  29.036  32.920   2.876
11771W        W84196  26.879   2.362   1.290
11772W        W84197  14.079  34.744  12.117
11773W        W84198   8.400  33.617   1.241
11774W        W84199  11.598  16.728   4.138
11775W        W84200  31.005  14.243   4.100
11776W        W84201  16.089  13.626   2.414
11777W        W84202  33.788   9.833  14.975
11778W        W84203  42.409  35.611  14.999
11779W        W84204  10.890   2.832  13.760
11780W        W84205  32.327  33.706  11.281
11781W        W84206  12.505  35.723   1.976
11782W        W84207  22.810  25.174   0.842
11783W        W84208  35.642  34.523   3.585
11784W        W84209  28.609  21.699  12.968
11785W        W84210   5.355   7.568   3.296
11786W        W84211  32.869  10.373  12.307
11787W        W84212  41.379  33.875   0.831
11788W        W84213  25.759  36.999  12.884
11789W        W84214  15.643  39.026  10.476
11790W        W84215   9.899  26.457  10.415
11791W        W84216  20.860  23.168   2.375
11792W        W84217  21.284   3.260   3.685
11793W        W84218  27.580   9.590  14.002
11794W        W84219  36.917  23.015  14.594
11795W        W84220   8.778  24.024   3.116
11796W        W84221  36.678  42.669  14.523
11797W        W84222   1.470   2.701  13.912
11798W        W84223  16.523  20.746  12.613
11799W        W84224   7.278  15.022   4.697
11800W        W84225  43.554  16.534  14.289
11801W        W84226   1.434  12.146  11.031
11802W        W84227  27.510  26.653   0.313
11803W        W84228  12.682  16.667   2.272
11804W        W84229   8.908  19.642   3.055
11805W        W84230  32.374  10.766   3.362
11806W        W84231  32.001   1.188   1.271
11807W        W84232   1.727   0.113   2.259
11808W        W84233   6.674  43.035   9.827
11809W        W84234  13.345  28.546  14.799
11810W        W84235  38.533  11.675   0.215
11811W        W84236  27.035   2.180  14.040
11812W        W84237  40.504  35.576  11.492
11813W        W84238  13.243  35.417   4.435
11814W        W84239  27.103  15.713  14.913
11815W        W84240  23.983  31.538  11.585
11816W        W84241  15.774  35.508  12.394
11817W        W84242  40.504  41.965  12.896
11818W        W84243  12.813  10.175  12.386
11819W        W84244  21.640   4.937  14.078
11820W        W84245   8.094  10.659  11.543
11821W        W84246   4.639  18.098  12.749
11822W        W84247   6.741  20.478  10.697
11823W        W84248  29.973  21.905  11.160
11824W        W84249  43.431  25.177  14.277
11825W        W84250  12.196  21.813   4.708
11826W        W84251   8.205  28.566   0.290
11827W        W84252   4.820  29.309   0.781
11828W        W84253  22.310  44.673  13.581
11829W        W84254  19.504  41.364   0.015
11830W        W84255  30.589  28.517   2.603
11831W        W84256  44.133  37.893  13.029
11832W        W84257  11.263  23.176  14.045
11833W        W84258  20.231  22.171   2.616
11834W        W84259  36.994  44.334  14.083
11835W        W84260  33.814  44.814   0.368
11836W        W84261  13.195  33.715  12.531
11837W        W84262   8.627  13.334   0.553
11838W        W84263   9.939  42.834  12.503
11839W        W84264   8.902  36.861   5.651
11840W        W84265  10.312  32.858  13.766
11841W        W84266  43.247  21.785  12.882
11842W        W84267  22.253   3.069  14.846
11843W        W84268  32.579  26.499  13.743
11844W        W84269  33.369  12.645   1.386
11845W        W84270  23.810  15.794   1.406
11846W        W84271  36.799  37.998  12.626
11847W        W84272   9.626   2.756  13.337
11848W        W84273  30.639  10.702  14.807
11849W        W84274  28.721  23.208   2.640
11850W        W84275  16.131  26.206  12.686
11851W        W84276  30.139  44.546   1.893
11852W        W84277  41.412  14.310   0.992
11853W        W84278  13.982   7.631   0.898
11854W        W84279  26.738  22.216  14.583
11855W        W84280  13.627  27.036   2.392
11856W        W84281  27.956  34.865  14.911
11857W        W84282  37.254   2.438  13.586
11858W        W84283  41.873   5.820  10.787
11859W        W84284  20.487   9.361   3.708
11860W        W84285  11.238  38.465   0.112
11861W        W84286  41.805   0.785   2.260
11862W        W84287  38.855  34.631   0.297
11863W        W84288  16.318  24.979  14.582
11864W        W84289   5.293  15.344   3.089
11865W        W84290  39.138  44.327   0.452
11866W        W84291  44.246  43.928   1.695
11867W        W84292   2.922  18.499   0.801
11868W        W84293  13.567  20.275  14.531
11869W        W84294  10.896   7.407  14.797
11870W        W84295  10.730   2.475  11.995
11871W        W84296  28.196   6.694   4.203
11872W        W84297  22.884  41.825   3.354
11873W        W84298  43.724  15.358  10.636
11874W        W84299  41.449  31.149  14.739
11875W        W84300  11.099  33.381   1.965
11876W        W84301   7.327  36.895   4.908
11877W        W84302   7.686   0.725   3.770
11878W        W84303  43.350  32.374   2.813
11879W        W84304  24.424  10.347   1.548
11880W        W84305  40.495   7.733  11.676
11881W        W84306  34.805  37.025   1.745
11882W        W84307  23.682  17.732  13.948
11883W        W84308  38.831  31.325  14.541
11884W        W84309  38.587  16.777   2.295
11885W        W84310  30.177   1.952  12.085
11886W        W84311  31.627   5.743   3.619
11887W        W84312  23.696  19.766  10.437
11888W        W84313   3.489  35.839  13.867
11889W        W84314  19.076  41.555  11.595
11890W        W84315  19.063  21.083   3.150
11891W        W84316   7.343  36.415   1.672
11892W        W84317  29.013   1.922   1.178
11893W        W84318  40.687  37.885  10.794
11894W        W84319  42.842  25.353   4.987
11895W        W84320  23.238   0.829   4.187
11896W        W84321   4.242  40.871  13.495
11897W        W84322  20.248  27.429  12.085
11898W        W84323  22.108  17.812  11.718
11899W        W84324  38.325  31.490   2.750
11900W        W84325  41.709   9.158  14.304
11901W        W84326   9.863  17.559  10.382
11902W        W84327   0.027  19.143   3.355
11903W        W84328   0.675  15.551  12.336
11904W        W84329  34.783  12.049   3.639
11905W        W84330  29.648  21.286   2.473
11906W        W84331  25.344  28.673  12.541
11907W        W84332  37.804  14.980  12.060
11908W        W84333  25.737  31.062  12.973
11909W        W84334  40.710  40.903  12.010
11910W        W84335  40.297  25.632  14.773
11911W        W84336  29.913  31.319   0.706
11912W        W84337  42.998  21.268  14.081
11913W        W84338  15.349  26.308  13.797
11914W        W84339  14.865  18.094   3.357
11915W        W84340   8.759  33.912   3.774
11916W        W84341  33.465   8.008  14.902
11917W        W84342  39.857   5.151   2.653
11918W        W84343   0.274  33.789   3.782
11919W        W84344  24.105  39.325  11.605
11920W        W84345  44.253  36.544  13.264
11921W        W84346  25.926  21.847  10.963
11922W        W84347   6.063  41.747   2.396
11923W        W84348  14.064   7.670  14.928
11924W        W84349  44.619  17.201   0.723
11925W        W84350   4.353  21.706  14.052
11926W        W84351  40.567   3.748   1.563
11927W        W84352  34.058  41.773  13.461
11928W        W84353  15.268  34.533  11.610
11929W        W84354   6.609  42.441  12.444
11930W        W84355  17.387  32.686   3.764
11931W        W84356  34.528  17.240  14.193
11932W        W84357  29.998  26.435   1.884
11933W        W84358  35.814  21.194  11.554
11934W        W84359  25.042  37.955  14.503
11935W        W84360  13.157   3.377   5.193
11936W        W84361  41.982  17.137  14.498
11937W        W84362  14.406  39.273   1.331
11938W        W84363  10.735  29.149  12.553
11939W        W84364  41.577  33.705  14.952
11940W        W84365  37.898  43.280   4.295
11941W        W84366   7.634  20.363  12.061
11942W        W84367  34.828  41.564  10.283
11943W        W84368  43.945  23.478  14.605
11944W        W84369   1.913  43.051   4.364
11945W        W84370  36.643  12.227   4.184
11946W        W84371  13.636  11.952  13.051
11947W        W84372  29.675   9.589   3.971
11948W        W84373  26.645  26.717   2.705
11949W        W84374  44.928   1.741   0.885
11950W        W84375  29.904  34.116  11.110
11951W        W84376  26.057   3.517  10.465
11952W        W84377  44.004   6.945   1.295
11953W        W84378  30.338  44.916   2.663
11954W        W84379  42.857  21.997   4.152
11955W        W84380   8.958  15.060   0.933
11956W        W84381  36.155   0.993   4.524
11957W        W84382   4.568   6.005   5.250
11958W        W84383   0.498  30.884   1.109
11959W        W84384  10.732  42.486  10.637
11960W        W84385  10.870   6.725   0.261
11961W        W84386  19.014  18.695   4.263
11962W        W84387  24.676  19.096  13.592
11963W        W84388  24.534  32.203  12.599
11964W        W84389   4.795  44.884   0.032
11965W        W84390  37.628  34.494   1.850
11966W        W84391  30.125   9.185   1.497
11967W        W84392   8.359  27.654   1.931
11968W        W84393  10.623   3.201   3.785
11969W        W84394  27.598  26.726  12.191
11970W        W84395  15.696  41.592  13.795
11971W        W84396  13.314  40.807  11.204
11972W        W84397  18.157  19.702   1.504
11973W        W84398  33.061  26.978   3.549
11974W        W84399  12.363  10.685   3.809
11975W        W84400  34.032  33.451  11.727
11976W        W84401  24.862  40.613   4.996
11977W        W84402  12.317  20.541  12.368
11978W        W84403  14.281  39.736  14.926
11979W        W84404  25.086  33.956  13.834
11980W        W84405   1.344  23.208   0.749
11981W        W84406  40.156  33.196   4.287
11982W        W84407  14.169  13.042  11.106
11983W        W84408  26.783  16.736  13.273
11984W        W84409  14.052  24.452  13.025
11985W        W84410  43.418  15.750  12.681
11986W        W84411  11.233  43.469  10.975
11987W        W84412  31.894   1.877   3.643
11988W        W84413   4.473  24.637   3.749
11989W        W84414  27.878  20.130   4.648
11990W        W84415   7.117  20.168  12.377
11991W        W84416   5.981  16.115  10.689
11992W        W84417  27.147   0.438   4.005
11993W        W84418   1.691  23.188  10.693
11994W        W84419  15.189  25.831   1.349
11995W        W84420  20.233  29.262  14.465
11996W        W84421  29.624  23.451   3.315
11997W        W84422  35.070  35.556   4.807
11998W        W84423  41.041   9.008  14.261
11999W        W84424  36.473  30.684   0.703
12000W        W84425  27.879   2.503   3.162
12001W        W84426  23.188   6.476  10.734
12002W        W84427   5.994   3.623  14.104
12003W        W84428  38.550  21.195   0.009
12004W        W84429  20.677   3.421  14.367
12005W        W84430  14.805  37.450  12.029
12006W        W84431   5.316   5.849  14.916
12007W        W84432   7.700   5.663  10.616
12008W        W84433  15.143  26.028   3.772
12009W        W84434  14.596   2.790  13.263
12010W        W84435  28.362  30.543   0.007
12011W        W84436   0.183  11.422  14.299
12012W        W84437  35.020  15.150  13.346
12013W        W84438  11.210  40.538   1.294
12014W        W84439  12.305  28.418   4.440
12015W        W84440   8.651  25.673  12.916
12016W        W84441  13.297  27.583  11.388
12017W        W84442   5.309  19.713  12.537
12018W        W84443   8.132  43.638  14.314
12019W        W84444  39.086  13.869   1.354
12020W        W84445  44.396  35.480  12.351
12021W        W84446   0.299  19.156   3.808
12022W        W84447  18.163  40.801  13.443
12023W        W84448  17.744  18.564  12.091
12024W        W84449  24.512  33.862  13.950
12025W        W84450  21.030  39.410  11.992
12026W        W84451  35.054  43.072  11.207
12027W        W84452  38.487   5.256  11.153
12028W        W84453   0.580  27.545  11.549
12029W        W84454  18.891   6.247  14.230
12030W        W84455  40.803  17.811  12.886
12031W        W84456   6.513  25.562   1.749
12032W        W84457   0.903  19.872  14.253
12033W        W84458  35.774   7.074   1.703
12034W        W84459  25.635  10.371   0.869
12035W        W84460  17.531  36.424   0.295
12036W        W84461  14.235   0.175  11.878
12037W        W84462  43.482  43.026   3.398
12038W        W84463  10.167  23.904   3.543
12039W        W84464  25.485  22.014   0.423
12040W        W84465  26.445   8.242   1.878
12041W        W84466  22.540  40.338   0.715
12042W        W84467   2.987  29.884   3.393
12043W        W84468   5.086   5.443  11.524
12044W        W84469  31.722  43.007  10.659
12045W        W84470   1.448  25.242  11.692
12046W        W84471  39.798  14.568   3.204
12047W        W84472  18.266  38.530   1.203
12048W        W84473  31.944  34.547   0.848
12049W        W84474  37.033  22.727   0.018
12050W        W84475  29.708  34.400  10.727
12051W        W84476  36.853   5.201   1.931
12052W        W84477  10.854  22.150  10.982
12053W        W84478  14.204  16.653  12.371
12054W        W84479   5.978  37.492   2.356
12055W        W84480  41.579  15.718   4.559
12056W        W84481   8.722  25.216  10.426
12057W        W84482  31.711  17.780   0.244
12058W        W84483  37.794  38.869   0.068
12059W        W84484  24.471  27.665   3.869
12060W        W84485   4.356   1.286  13.947
12061W        W84486  23.965  37.040  12.601
12062W        W84487  21.465  11.124  13.365
12063W        W84488  27.974  21.042   2.318
12064W        W84489  41.400   8.295  12.674
12065W        W84490  10.528   1.397  14.711
12066W        W84491  42.070  36.383   2.429
12067W        W84492  37.157  44.362   2.317
12068W        W84493  41.261   4.037   4.168
12069W        W84494   3.210  21.019  11.929
12070W        W84495  42.939  15.585  12.560
12071W        W84496  23.452  24.188  10.428
12072W        W84497   5.625  24.244   0.899
12073W        W84498  33.864  11.046   1.273
12074W        W84499  26.419  18.774   4.621
12075W        W84500   1.821  13.393   1.186
12076W        W84501  34.451  15.301  12.132
12077W        W84502  42.096  38.479  14.861
12078W        W84503  39.028  13.142   0.216
12079W        W84504  26.783  29.228  11.069
12080W        W84505  31.367  28.663  14.202
12081W        W84506   8.324  35.110  11.182
12082W        W84507  18.223  33.673  12.494
12083W        W84508  14.337  36.564   0.734
12084W        W84509  36.932  27.591   2.657
12085W        W84510  10.471  19.231   4.395
12086W        W84511  28.554   2.357  12.386
12087W        W84512   0.541   9.848   2.874
12088W        W84513   8.210  13.873  14.422
12089W        W84514  39.932  16.115   1.024
12090W        W84515   0.053  43.538  14.085
12091W        W84516  44.354  36.930   1.324
12092W        W84517   3.182   7.939   3.895
12093W        W84518  13.054  14.762   0.764
12094W        W84519  43.805  13.593   4.400
12095W        W84520   5.286   6.704   3.911
12096W        W84521  34.158  30.063   4.666
12097W        W84522  11.400  44.637  12.023
12098W        W84523  27.334  22.571  13.869
12099W        W84524  28.527  34.166   9.855
12100W        W84525  22.946   6.342   2.717
12101W        W84526  31.557   3.130  11.969
12102W        W84527   5.277  23.533  13.806
12103W        W84528  31.014   2.726  11.064
12104W        W84529  25.944  33.965   4.115
12105W        W84530   5.524  18.524  12.596
12106W        W84531  29.551  15.018   5.062
12107W        W84532  12.854  36.318   3.701
12108W        W84533  15.160   2.945   3.781
12109W        W84534  31.003  44.773   4.488
12110W        W84535  18.791  24.748  13.342
12111W        W84536   2.296  21.401   9.559
12112W        W84537  21.104  21.519   2.710
12113W        W84538   6.290  15.475  14.053
12114W        W84539  16.129  42.806  11.623
12115W        W84540  23.549   7.478  10.947
12116W        W84541  36.925  31.634  14.574
12117W        W84542  44.424  23.756  11.153
12118W        W84543  22.966  12.324  11.682
12119W        W84544  14.684   0.569   0.055
12120W        W84545   0.840  13.148  13.313
12121W        W84546  17.086  34.236   0.358
12122W        W84547  27.176  41.966  11.176
12123W        W84548   4.947  31.731   2.294
12124W        W84549  36.418  20.695  11.984
12125W        W84550  39.146   3.243  13.950
12126W        W84551   4.411  38.022   2.241
12127W        W84552  42.902  16.326   3.042
12128W        W84553  26.812  14.649  11.923
12129W        W84554  32.942  35.826   3.142
12130W        W84555  18.312   3.224   0.748
12131W        W84556  10.930  28.229   2.789
12132W        W84557  36.898  19.695  13.913
12133W        W84558   0.301  18.546   4.012
12134W        W84559  41.889   9.614   0.737
12135W        W84560  26.582  42.590   3.663
12136W        W84561  16.694  31.217   2.923
12137W        W84562   7.709  25.692   2.806
12138W        W84563  40.127  16.682  11.272
12139W        W84564  32.978  43.302   3.351
12140W        W84565  21.435   7.769  11.518
12141W        W84566  12.678  40.495  12.897
12142W        W84567   0.430  11.338   4.450
12143W        W84568  32.345   4.370  13.575
12144W        W84569  40.760  17.816   0.421
12145W        W84570  38.685  27.628   1.605
12146W        W84571  18.731   2.570   5.204
12147W        W84572  31.156  26.179   3.787
12148W        W84573  12.273  29.298   1.261
12149W        W84574   5.190  29.443   1.828
12150W        W84575   4.200  13.185   1.587
12151W        W84576  36.333  26.615  13.341
12152W        W84577  30.033   1.442   2.585
12153W        W84578   7.240   0.912  13.113
12154W        W84579  17.887   4.123   0.482
12155W        W84580  38.173  30.197  12.118
12156W        W84581  36.295  22.746  11.077
12157W        W84582  27.630  18.623  12.990
12158W        W84583  29.335   9.696   4.769
12159W        W84584  29.508  38.264   0.331
12160W        W84585   8.156  10.870   1.393
12161W        W84586  23.281  27.801   0.548
12162W        W84587  26.098  35.526  13.872
12163W        W84588  10.698  14.612   0.670
12164W        W84589  33.886  33.477  10.176
12165W        W84590  14.981  23.858  12.990
12166W        W84591  44.027   9.598   0.341
12167W        W84592  21.113   0.200  14.931
12168W        W84593   3.403  35.402  14.911
12169W        W84594  44.986   3.305  14.795
12170W        W84595  41.028   1.345  11.575
12171W        W84596   6.828  35.846  10.969
12172W        W84597  13.869  13.560   4.261
12173W        W84598  34.255  32.492   2.523
12174W        W84599  41.803   8.841   0.187
12175W        W84600  34.460  15.671   2.827
12176W        W84601  30.538  32.576  13.454
12177W        W84602  25.487  18.523   4.712
12178W        W84603  28.066  29.511  12.009
12179W        W84604   1.454  27.135   1.619
12180W        W84605   1.324   5.621   3.742
12181W        W84606   6.478  30.036  11.608
12182W        W84607  21.431  10.502  12.098
12183W        W84608  22.273  36.488  12.154
12184W        W84609   0.771   3.992  11.068
12185W        W84610  23.257  15.355   0.846
12186W        W84611   0.336  16.545  14.029
12187W        W84612  10.782   5.770   0.720
12188W        W84613  28.694  29.548  13.842
12189W        W84614  16.160  35.849  10.843
12190W        W84615   2.368   4.532   2.810
12191W        W84616  29.793   7.791  13.995
12192W        W84617   6.294  20.746   3.164
12193W        W84618   8.445  23.631  10.008
12194W        W84619  39.261  44.522   2.736
12195W        W84620  30.577  44.049   4.075
12196W        W84621  25.724  42.939   2.677
12197W        W84622  27.139  15.475   2.875
12198W        W84623  22.920   2.888  11.252
12199W        W84624  30.031  15.877   3.308
12200W        W84625  20.753   2.873  12.113
12201W        W84626  25.988  41.226  12.649
12202W        W84627  15.301   3.634   3.229
12203W        W84628   8.251  39.074  11.922
12204W        W84629   2.841  35.640  13.011
12205W        W84630   0.034   2.363   0.219
12206W        W84631  28.403  34.602  13.995
12207W        W84632  22.927  33.931   4.161
12208W        W84633  32.848  43.898   2.660
12209W        W84634  31.348   3.777   4.375
12210W        W84635  31.619   3.905   0.960
12211W        W84636   8.955  33.410   0.696
12212W        W84637  32.072  13.956   4.519
12213W        W84638  24.384  33.004   4.156
12214W        W84639  24.458  14.794  10.757
12215W        W84640   4.869  29.898   4.965
12216W        W84641   2.487  30.646   2.212
12217W        W84642   3.433  22.789  13.969
12218W        W84643  39.459   8.305   3.640
12219W        W84644   7.506  35.159  13.369
12220W        W84645   6.998   8.778   0.822
12221W        W84646  34.864  33.421  14.830
12222W        W84647  44.102  12.083  14.713
12223W        W84648  32.232   0.715   1.288
12224W        W84649  44.947  24.204  10.608
12225W        W84650  39.069  16.039  11.187
12226W        W84651   6.267  38.871   2.239
12227W        W84652  20.865  18.020  14.322
12228W        W84653  28.537   4.780   1.868
12229W        W84654  20.494  44.251  14.979
12230W        W84655  35.166   0.403   4.278
12231W        W84656   3.614  20.251   5.066
12232W        W84657  43.726  38.857  10.453
12233W        W84658  42.294  34.318   1.209
12234W        W84659  41.589  30.956  12.114
12235W        W84660  36.053  24.975   3.148
12236W        W84661  20.820  37.395  12.480
12237W        W84662  26.617  27.199  13.738
12238W        W84663  31.320  23.176   2.942
12239W        W84664  14.743  34.129  14.080
12240W        W84665  19.558  28.989   3.302
12241W        W84666   4.541   6.216   3.991
12242W        W84667  18.048  26.554  13.909
12243W        W84668  18.070  42.338  11.558
12244W        W84669  11.650  25.692  14.016
12245W        W84670  26.525  36.530   1.893
12246W        W84671  10.571  38.493   2.914
12247W        W84672   1.285   3.659   4.724
12248W        W84673  30.645  27.161   4.299
12249W        W84674  29.786   0.734   0.961
12250W        W84675   2.293  11.288   0.959
12251W        W84676  25.749  18.529  14.937
12252W        W84677   0.338   5.626  13.354
12253W        W84678  21.464   6.097   3.599
12254W        W84679  10.566  14.833  13.920
12255W        W84680  25.534   0.785   2.312
12256W        W84681   8.279   4.502  14.298
12257W        W84682  15.886  16.815   3.232
12258W        W84683  18.271   1.699  11.102
12259W        W84684   9.539  44.297   4.184
12260W        W84685  18.809  36.508   4.073
12261W        W84686   5.618  29.508   1.441
12262W        W84687  42.055   2.665   2.901
12263W        W84688  38.037  13.015   0.444
12264W        W84689  41.783  18.717  14.446
12265W        W84690   7.140  35.348   1.675
12266W        W84691  30.597   0.246  11.703
12267W        W84692  31.083  12.358   0.890
12268W        W84693   9.002   4.827   2.384
12269W        W84694   3.354   9.896  11.886
12270W        W84695  24.096  19.746   4.600
12271W        W84696  43.022  15.806   4.275
12272W        W84697   6.085  36.495   2.811
12273W        W84698  38.344  41.490  10.495
12274W        W84699  25.964  38.909  11.585
12275W        W84700   2.682  32.144  12.072
12276W        W84701  11.140  39.114  13.500
12277W        W84702  32.416   2.572  10.918
12278W        W84703  25.282   9.738   1.645
12279W        W84704  23.502  39.600   0.409
12280W        W84705  33.109  23.022  10.668
12281W        W84706  14.767  24.494   0.932
12282W        W84707   8.585  42.638  12.491
12283W        W84708  34.680   5.947  13.879
12284W        W84709   9.148   6.951  14.881
12285W        W84710   4.660  15.940   4.498
12286W        W84711  18.636  40.385   3.881
12287W        W84712  39.994  41.441   3.737
12288W        W84713  34.131  14.290   0.061
12289W        W84714  23.957   4.150  14.898
12290W        W84715  26.520   2.332  13.399
12291W        W84716   8.679   6.164  13.890
12292W        W84717  17.707  33.782  10.103
12293W        W84718   2.778  26.409  14.286
12294W        W84719   1.285  19.146   4.677
12295W        W84720  19.358  40.875   0.097
12296W        W84721  38.807  26.003  11.551
12297W        W84722  30.903  25.066   0.007
12298W        W84723  41.735  22.738   1.808
12299W        W84724   4.201   0.851  10.730
12300W        W84725  39.144  17.338   4.406
12301W        W84726  19.022  18.378  13.498
12302W        W84727  33.761  34.752   5.211
12303W        W84728  23.083  37.655   3.688
12304W        W84729  33.479  29.889  10.394
12305W        W84730  43.466  28.952   0.255
12306W        W84731  15.331  35.450   3.119
12307W        W84732  27.164  41.754  12.145
12308W        W84733  16.609  25.224  11.564
12309W        W84734  19.306  14.697  12.132
12310W        W84735  25.898  24.086  10.601
12311W        W84736   8.387  19.284  10.409
12312W        W84737  41.203  37.510   5.113
12313W        W84738   5.241  32.333   4.810
12314W        W84739  33.005  21.932   0.884
12315W        W84740  42.255  44.417  11.416
12316W        W84741  41.156  12.234   3.219
12317W        W84742   6.311  21.256  10.756
12318W        W84743   6.466  43.995  12.948
12319W        W84744  25.220  31.597  11.239
12320W        W84745  19.035  25.833   1.449
12321W        W84746   6.957  43.242  13.539
12322W        W84747  12.304   2.045   0.711
12323W        W84748  21.602  36.675  14.643
12324W        W84749  17.882  24.164   1.265
12325W        W84750  43.902  39.837  14.856
12326W        W84751   0.193  33.655  12.522
12327W        W84752  16.100  26.446   2.612
12328W        W84753  23.261  27.141  11.121
12329W        W84754   4.348  42.875   0.016
12330W        W84755  42.069  30.452   2.176
12331W        W84756   7.046  22.574  12.072
12332W        W84757  10.141  37.382  10.652
12333W        W84758  34.836   6.273  14.284
12334W        W84759  37.280  19.801   2.826
12335W        W84760  26.013  31.968  11.995
12336W        W84761   8.571   5.814  10.616
12337W        W84762  40.860   0.968   2.344
12338W        W84763  41.953  17.190   2.115
12339W        W84764  21.466   8.349   4.200
12340W        W84765   3.685  40.053   1.402
12341W        W84766   6.229  31.909   2.687
12342W        W84767   8.980  43.330   0.845
12343W        W84768  23.754  15.869   4.390
12344W        W84769  24.224  25.476  13.585
12345W        W84770   7.355  44.135  13.074
12346W        W84771   0.221  21.949   4.138
12347W        W84772   1.980  20.608   1.754
12348W        W84773  31.442  42.035   2.599
12349W        W84774   6.382   4.259  13.973
12350W        W84775  36.071  13.222   2.651
12351W        W84776  25.231  33.873   1.764
12352W        W84777  16.485  39.951   2.967
12353W        W84778  24.232  16.742   3.173
12354W        W84779  36.977  40.556  12.465
12355W        W84780  16.332   1.007   1.820
12356W        W84781  43.998   3.376   0.349
12357W        W84782  38.049  34.648  13.379
12358W        W84783  43.487  32.862  13.430
12359W        W84784  20.133  34.746  13.102
12360W        W84785   6.080  15.628   3.715
12361W        W84786  14.334   6.442  12.977
12362W        W84787  13.845  42.091  11.899
12363W        W84788  21.076  21.713   0.418
12364W        W84789  10.034  42.748  14.668
12365W        W84790  38.435   8.765  10.849
12366W        W84791  14.065  21.466   5.085
12367W        W84792  33.070  10.449   4.882
12368W        W84793  31.070  33.133   3.572
12369W        W84794  33.973  30.694  13.058
12370W        W84795  18.755  17.233   3.967
12371W        W84796  38.781   7.677   1.008
12372W        W84797   8.931   5.316  13.294
12373W        W84798   0.411  23.306  14.712
12374W        W84799  34.492  35.022   3.152
12375W        W84800  13.155  10.772  11.006
12376W        W84801  33.675  41.683   0.964
12377W        W84802  29.683  39.090  12.406
12378W        W84803  10.591  19.005   3.299
12379W        W84804  34.007   9.345   2.942
12380W        W84805   8.873   8.363  13.440
12381W        W84806  35.641  22.826   0.846
12382W        W84807  14.126  19.158   1.392
12383W        W84808  40.548  27.702   3.602
12384W        W84809  19.672  32.365  13.516
12385W        W84810  41.879  44.066  13.446
12386W        W84811   0.201  16.092  13.845
12387W        W84812   7.542  34.564   5.444
12388W        W84813  15.710  23.912   3.866
12389W        W84814  40.678  17.151   5.111
12390W        W84815  30.722  14.599  11.191
12391W        W84816  42.662  29.728   0.159
12392W        W84817  32.808  14.750   1.041
12393W        W84818  14.896  44.313  10.142
12394W        W84819   6.658  37.115  13.797
12395W        W84820  17.113  42.796  12.191
12396W        W84821  26.319  16.388   1.789
12397W        W84822  42.897   0.736  11.941
12398W        W84823   1.638   8.177  13.572
12399W        W84824  23.003  25.614  14.286
12400W        W84825  42.471   4.732   0.889
12401W        W84826  36.408  32.247   1.842
12402W        W84827  22.291  41.311   0.383
12403W        W84828  41.905  16.273   3.127
12404W        W84829  10.147   8.972   1.896
12405W        W84830  17.074   8.857   3.678
12406W        W84831   9.878  11.018  13.387
12407W        W84832  40.278  30.735   0.777
12408W        W84833  11.347  39.104   3.884
12409W        W84834  44.621  42.482  12.019
12410W        W84835   3.525   5.947   1.463
12411W        W84836  30.141  44.194  13.586
12412W        W84837   8.839  28.109  12.942
12413W        W84838  12.685  15.023  13.337
12414W        W84839   2.880  30.577   0.664
12415W        W84840  25.216  17.826   3.657
12416W        W84841  36.019  25.906   4.800
12417W        W84842   4.943  11.269   4.266
12418W        W84843  10.925  24.626   0.927
12419W        W84844  40.826  13.563  11.875
12420W        W84845  24.923  35.800  11.602
12421W        W84846   1.457  27.330  11.739
12422W        W84847  39.551  29.055   4.406
12423W        W84848  23.320   9.955  14.375
12424W        W84849  17.980  44.314   3.346
12425W        W84850  28.306  16.073  11.545
12426W        W84851  10.923   5.603   9.924
12427W        W84852  31.379   2.465   2.979
12428W        W84853  30.247   9.035   2.482
12429W        W84854  40.812  29.397  12.887
12430W        W84855  23.107  25.001   4.487
12431W        W84856  31.461  43.142   4.162
12432W        W84857  25.187  36.921  13.408
12433W        W84858  12.339  36.674   2.334
12434W        W84859  32.405  40.813  11.412
12435W        W84860  42.260  37.008  12.456
12436W        W84861  31.545   6.660  11.214
12437W        W84862  31.847  33.669  11.944
12438W        W84863  44.024  41.045   1.743
12439W        W84864   7.591   1.384   1.722
12440W        W84865  14.480  18.088  11.370
12441W        W84866  15.261  41.929   1.076
12442W        W84867   1.344  23.693   1.521
12443W        W84868  16.163  39.732   2.113
12444W        W84869   7.942  31.136  14.215
12445W        W84870  13.048  43.004  14.490
12446W        W84871  22.927  26.492  14.942
12447W        W84872   5.006  21.177  12.182
12448W        W84873   5.706  38.093  13.832
12449W        W84874   5.705  22.692   3.702
12450W        W84875  12.693  16.647   3.256
12451W        W84876  27.248  34.042  14.485
12452W        W84877  17.589   0.465   2.380
12453W        W84878  16.519   7.301   1.691
12454W        W84879  42.506  33.834   0.336
12455W        W84880  16.590  27.602   2.113
12456W        W84881  24.485   9.208   0.306
12457W        W84882  14.597  10.316  11.895
12458W        W84883  21.201  34.999   1.707
12459W        W84884  35.554  11.194  11.415
12460W        W84885  34.718  22.064   2.663
12461W        W84886  30.287   7.145   2.601
12462W        W84887   1.391  37.448   4.711
12463W        W84888  40.502  11.281   3.964
12464W        W84889  11.317  41.525   3.871
12465W        W84890  30.041  31.509  12.671
12466W        W84891  27.887   4.741  13.960
12467W        W84892   0.356  21.615   4.533
12468W        W84893  44.379   2.497   4.630
12469W        W84894  31.601  32.173  13.962
12470W        W84895  43.391  26.482  12.897
12471W        W84896  12.519  44.926  12.194
12472W        W84897   6.307  37.552  12.129
12473W        W84898   3.711  35.044   4.722
12474W        W84899  11.807  11.598  13.840
12475W        W84900  42.400   9.224   2.706
12476W        W84901   2.663  22.219   4.293
12477W        W84902   2.988  22.653   3.205
12478W        W84903  36.823  42.479   2.908
12479W        W84904  22.059   0.299  12.583
12480W        W84905  20.776  10.372  14.262
12481W        W84906  29.335  30.953   5.429
12482W        W84907  28.535  25.402   1.908
12483W        W84908  37.385   0.047   2.252
12484W        W84909  19.195  25.307   1.418
12485W        W84910  32.354  30.359   2.103
12486W        W84911  33.988  13.825  10.799
12487W        W84912  17.033  17.987   3.866
12488W        W84913   9.132  16.783   1.265
12489W        W84914  12.560   9.443  11.722
12490W        W84915   9.997  21.035  11.518
12491W        W84916   4.198  13.687   4.380
12492W        W84917  40.461   8.098  14.956
12493W        W84918  10.860  18.008   0.640
12494W        W84919   7.332  16.809   2.271
12495W        W84920  16.706   8.347  12.784
12496W        W84921   9.228  44.855   1.367
12497W        W84922  10.208  41.018   2.641
12498W        W84923  21.088   2.368   5.176
12499W        W84924  10.350  14.744  13.441
12500W        W84925  43.917  41.947   2.762
12501W        W84926  28.048  34.986  12.831
12502W        W84927  12.605  37.298   3.966
12503W        W84928  16.201  27.456   2.847
12504W        W84929   0.435  18.796   0.048
12505W        W84930  12.234  13.971   1.228
12506W        W84931  17.754  27.010  14.795
12507W        W84932   2.902   4.654   4.044
12508W        W84933   0.315  15.612   0.193
12509W        W84934  14.436   0.153   0.301
12510W        W84935  19.809  41.136  10.474
12511W        W84936   2.861  12.933   1.070
12512W        W84937  13.714  25.159   5.435
12513W        W84938  20.710   5.740  13.834
12514W        W84939  25.541  23.450  11.145
12515W        W84940   1.899  31.743   2.755
12516W        W84941  29.391  34.817  11.581
12517W        W84942  43.047  12.452   4.174
12518W        W84943  23.763  16.708  14.264
12519W        W84944  16.256   3.170   4.527
12520W        W84945   0.443  28.336   2.158
12521W        W84946  17.579  37.769  11.139
12522W        W84947  19.720  11.114   3.854
12523W        W84948  38.435   5.735  12.393
12524W        W84949  13.736  23.788  10.279
12525W        W84950  29.570  41.358  14.176
12526W        W84951  35.870  11.421  13.397
12527W        W84952  24.567   1.509   0.390
12528W        W84953  12.707  11.699  14.870
12529W        W84954   2.182  39.695   2.371
12530W        W84955  17.388  19.116   4.198
12531W        W84956  16.355   1.790  12.165
12532W        W84957  29.589  15.372  14.039
12533W        W84958  35.718  44.162  11.597
12534W        W84959  29.089  30.042   3.315
12535W        W84960  18.122   2.768   0.900
12536W        W84961  11.464  31.815  11.549
12537W        W84962  25.559   3.347  14.379
12538W        W84963  18.293  29.075   4.894
12539W        W84964  19.089  32.948   4.155
12540W        W84965  33.724   4.305   4.712
12541W        W84966  22.158   6.621  12.996
12542W        W84967  40.933  26.013  10.679
12543W        W84968  35.160   0.646   2.693
12544W        W84969  40.003  41.460   1.857
12545W        W84970  29.935  26.215   0.953
12546W        W84971  10.901  43.048   0.954
12547W        W84972   0.063  23.360   2.459
12548W        W84973  24.670   8.634  11.075
12549W        W84974  13.780  32.057   0.262
12550W        W84975  44.614   2.158   1.041
12551W        W84976  35.541   3.822   1.317
12552W        W84977  39.452  10.229   4.898
12553W        W84978  21.184  42.616   1.337
12554W        W84979  37.831  37.019   0.639
12555W        W84980   6.672  44.609   1.343
12556W        W84981  12.239  42.873  11.231
12557W        W84982  42.495   4.428  13.848
12558W        W84983  28.138  25.995  14.261
12559W        W84984   5.778  41.288  11.594
12560W        W84985  30.423  20.186  11.385
12561W        W84986  27.460   3.367  10.660
12562W        W84987  39.048   4.960  12.602
12563W        W84988  36.385  36.761   2.615
12564W        W84989  20.121  14.097  13.886
12565W        W84990  11.952   8.394   9.924
12566W        W84991  12.661  33.403  10.813
12567W        W84992  31.641   2.835  13.513
12568W        W84993  10.690  28.717   1.829
12569W        W84994  19.487  42.726   3.578
12570W        W84995  30.047  10.421  13.065
12571W        W84996  42.637  38.740  13.952
12572W        W84997   9.764  38.479   2.487
12573W        W84998  19.701   1.322   4.386
12574W        W84999  28.658  27.055  13.436
12575W        W85000   4.681  42.954   4.737
12576W        W85001   5.165  42.377  11.316
12577W        W85002  29.781  19.545   4.979
12578W        W85003  29.393   5.255  11.536
12579W        W85004   0.276  29.759  14.431
12580W        W85005  25.089  34.624  14.286
12581W        W85006  20.260  40.370  13.090
12582W        W85007  31.385  33.033   3.156
12583W        W85008  13.829  42.486  12.655
12584W        W85009  20.639  37.836  14.771
12585W        W85010  27.597   5.049  14.302
12586W        W85011  27.279  13.241   2.306
12587W        W85012  15.843  29.556  10.324
12588W        W85013  40.506  29.029   2.438
12589W        W85014  37.116   5.596   3.724
12590W        W85015  17.237  11.774   1.500
12591W        W85016  31.159  13.112  14.377
12592W        W85017   7.694  20.985   3.230
12593W        W85018  18.044   1.078   0.500
12594W        W85019   4.306  17.595  12.802
12595W        W85020   3.931  23.121   4.481
12596W        W85021  21.718  36.820   3.759
12597W        W85022  21.511  34.098   2.059
12598W        W85023  42.473  28.504   2.413
12599W        W85024  44.525  15.840  14.731
12600W        W85025   4.850  21.013   0.908
12601W        W85026  41.950  30.886  12.895
12602W        W85027  36.177  22.558   3.340
12603W        W85028  40.116   9.337   4.167
12604W        W85029  11.442   2.870  11.666
12605W        W85030   7.026  32.345   3.288
12606W        W85031  24.470  35.346  11.628
12607W        W85032  23.926  36.836  13.076
12608W        W85033  23.108  14.608  14.548
12609W        W85034   2.043  27.626   0.577
12610W        W85035  41.825   7.286  14.277
12611W        W85036  33.972  27.577  14.952
12612W        W85037  17.263  42.249  10.998
12613W        W85038  35.362  21.808  12.736
12614W        W85039   4.756  23.612   4.573
12615W        W85040   6.151  38.455  12.983
12616W        W85041  44.264   6.556  14.659
12617W        W85042   9.681  17.826  14.383
12618W        W85043  16.681  32.831   0.421
12619W        W85044   7.136   0.359  11.689
12620W        W85045  31.607  32.553  11.976
12621W        W85046  12.195  23.170  10.110
12622W        W85047   9.876  14.591   4.556
12623W        W85048  39.355   2.924  11.958
12624W        W85049  15.231  26.587  10.758
12625W        W85050  22.075  31.466  11.738
12626W        W85051  39.471  29.550   0.915
12627W        W85052  27.713  39.892   2.771
12628W        W85053  28.906  36.551   1.801
12629W        W85054  20.210  25.673  13.579
12630W        W85055   0.483   6.875   0.532
12631W        W85056  24.461  22.427   2.676
12632W        W85057  29.992  13.839  13.873
12633W        W85058  34.894  31.500   2.778
12634W        W85059  21.060  21.229   0.665
12635W        W85060   2.191  42.910  13.396
12636W        W85061  33.858  26.258   3.978
12637W        W85062   6.242   8.969   1.287
12638W        W85063  29.064  28.169   1.039
12639W        W85064  28.515  44.714  12.552
12640W        W85065  22.191   7.976  14.071
12641W        W85066  19.621   7.609   2.989
12642W        W85067   4.664  31.080  12.394
12643W        W85068  34.176  10.180   0.253
12644W        W85069   3.770   1.732  11.167
12645W        W85070  33.021   5.421  13.576
12646W        W85071  27.713  33.000   0.880
12647W        W85072   0.813   6.222   3.601
12648W        W85073  33.895  42.447   0.693
12649W        W85074  33.103  35.803  13.414
12650W        W85075   1.827  30.547   2.628
12651W        W85076   9.334  44.455   4.728
12652W        W85077  24.497  31.510   1.836
12653W        W85078  19.268   0.173   5.072
12654W        W85079   1.973  30.580   2.133
12655W        W85080  33.247  27.656  12.443
12656W        W85081  29.483  26.686  10.686
12657W        W85082  34.105  19.673  10.757
12658W        W85083  11.124   0.356   0.420
12659W        W85084  15.116   4.186  11.611
12660W        W85085  28.930   9.268   3.521
12661W        W85086  39.816  40.134  11.028
12662W        W85087  43.833  37.523   2.377
12663W        W85088  21.179  10.570   4.588
12664W        W85089  30.371  19.937   2.696
12665W        W85090   4.387  19.685  13.599
12666W        W85091  28.946  44.501  10.630
12667W        W85092  31.104  38.409  13.881
12668W        W85093  36.187  41.900   2.658
12669W        W85094  32.308   9.411   4.085
12670W        W85095  31.009  25.557   4.444
12671W        W85096   0.855  38.163   1.426
12672W        W85097  15.324  17.160   2.721
12673W        W85098  28.185   3.332  13.030
12674W        W85099  28.185  22.552  13.454
12675W        W85100  44.496  12.388  14.913
12676W        W85101  35.863   5.252   1.945
12677W        W85102  42.808  29.722   1.650
12678W        W85103  12.048  11.597   4.163
12679W        W85104  33.430  18.606  14.886
12680W        W85105  17.748  44.633  10.719
12681W        W85106  22.246   3.701   0.514
12682W        W85107  18.665  34.884   3.630
12683W        W85108  26.235  42.057   4.519
12684W        W85109  32.300  28.166  14.860
12685W        W85110  29.377   8.313   3.732
12686W        W85111  17.358  42.444  14.430
12687W        W85112   8.428  41.476   0.445
12688W        W85113  41.723   6.798  13.331
12689W        W85114   2.812  25.369  14.468
12690W        W85115  37.133  31.056   1.234
12691W        W85116  28.959  11.749   2.928
12692W        W85117   7.342  40.781   3.242
12693W        W85118  40.021  18.583   2.777
12694W        W85119  30.978  21.140  12.576
12695W        W85120  21.984  32.995  10.656
12696W        W85121  43.929  15.590  13.346
12697W        W85122  15.197   8.808  11.512
12698W        W85123  30.233  39.489  14.126
12699W        W85124  14.348  15.111   3.791
12700W        W85125   2.163  13.543   0.812
12701W        W85126   8.161  10.231   2.734
12702W        W85127  30.582  36.449   0.514
12703W        W85128  38.470  22.549  10.337
12704W        W85129  23.760  42.741   2.707
12705W        W85130   0.660  40.924  12.365
12706W        W85131   5.049  20.164  12.531
12707W        W85132  25.009  31.358   3.027
12708W        W85133  11.737  22.069  11.387
12709W        W85134  20.665   4.672  13.898
12710W        W85135  11.283  24.701   4.569
12711W        W85136  36.505  25.807   9.904
12712W        W85137   7.622   8.818  11.284
12713W        W85138  26.903   8.729  10.522
12714W        W85139   7.356   7.245  12.411
12715W        W85140  13.712   0.790   3.198
12716W        W85141   7.420  20.090  10.995
12717W        W85142  41.114  31.189   3.660
12718W        W85143  25.108   4.504  10.986
12719W        W85144   5.117  38.016   4.418
12720W        W85145  17.345  16.642   0.411
12721W        W85146  20.748  19.731   4.728
12722W        W85147  30.657  38.623   2.714
12723W        W85148   7.500  37.351   1.254
12724W        W85149  15.665   9.300   0.852
12725W        W85150  42.364   1.058  11.713
12726W        W85151  28.365  16.802   4.892
12727W        W85152   8.989  26.250   1.631
12728W        W85153  44.816  13.940   3.219
12729W        W85154  33.166  13.676  11.142
12730W        W85155   7.323  44.822  11.634
12731W        W85156  16.841  16.066   1.765
12732W        W85157  23.082  26.196   4.667
12733W        W85158  22.417   2.009  12.564
12734W        W85159  11.534  19.374  12.245
12735W        W85160  44.040  12.400   3.274
12736W        W85161  23.224  35.563  12.091
12737W        W85162  37.418  36.916  14.804
12738W        W85163   6.669  28.427   1.338
12739W        W85164  22.224  12.647  13.349
12740W        W85165  43.480  23.926   3.073
12741W        W85166  39.056  42.764   0.359
12742W        W85167  44.471  35.463   4.334
12743W        W85168  18.806  34.390  11.478
12744W        W85169  23.495   6.877   0.335
12745W        W85170   0.269   8.891   2.881
12746W        W85171  35.573   1.449   2.682
12747W        W85172  10.888  30.262  14.270
12748W        W85173   2.044   5.712   1.361
12749W        W85174  23.135  24.920   1.861
12750W        W85175  13.735   0.320  14.855
12751W        W85176  27.535   0.848   1.872
12752W        W85177  13.576  14.847   2.834
12753W        W85178  42.307  44.753  12.575
12754W        W85179  16.089  20.976  13.186
12755W        W85180  15.776   4.390  14.304
12756W        W85181   3.523  28.002  13.900
12757W        W85182   0.510  31.707   4.637
12758W        W85183  19.996   4.627   1.721
12759W        W85184  15.297  38.447   1.175
12760W        W85185  14.616  10.464   5.002
12761W        W85186  29.657  14.952   2.479
12762W        W85187  26.223   9.187   1.591
12763W        W85188  20.533   2.257  14.427
12764W        W85189  40.292  21.076   0.670
12765W        W85190   7.158   2.304  13.431
12766W        W85191  30.852   1.787   3.917
12767W        W85192  44.400  29.659  11.103
12768W        W85193   8.749   2.772  12.521
12769W        W85194   8.264  34.975   1.073
12770W        W85195  35.414   7.165  12.722
12771W        W85196  36.974  38.638   3.811
12772W        W85197   2.598  39.883  13.572
12773W        W85198  29.232   3.237   4.045
12774W        W85199  30.090   7.440  13.060
12775W        W85200  42.775  34.116   1.776
12776W        W85201  34.571  41.888   0.291
12777W        W85202  19.840  30.694   4.761
12778W        W85203  15.857  12.557  11.659
12779W        W85204  13.175  26.086   3.927
12780W        W85205   6.142   3.468  14.648
12781W        W85206  22.257  30.513   2.741
12782W        W85207   7.189  22.053   2.981
12783W        W85208   6.435  36.624   4.274
12784W        W85209  18.070   5.790   0.762
12785W        W85210   8.401   6.543   9.815
12786W        W85211   3.067  12.430   0.467
12787W        W85212   6.290  20.019  13.424
12788W        W85213  22.628  15.961   1.762
12789W        W85214  16.250  21.823   3.529
12790W        W85215  32.942  22.685  14.415
12791W        W85216  13.676  16.403   3.020
12792W        W85217   9.135  21.613  12.505
12793W        W85218   7.808   1.175   0.333
12794W        W85219   6.468  15.143  14.866
12795W        W85220  42.333  22.274   2.403
12796W        W85221   9.709  35.073   4.695
12797W        W85222   3.945   7.367  12.910
12798W        W85223  44.360  33.616   3.211
12799W        W85224  35.326   2.405   4.098
12800W        W85225  11.853  20.492  13.621
12801W        W85226  44.258  34.312  14.007
12802W        W85227   9.771  40.410   0.015
12803W        W85228  29.779  30.500  13.517
12804W        W85229  14.014   1.593  11.532
12805W        W85230  15.196  15.266   1.829
12806W        W85231  18.633  38.441   4.450
12807W        W85232   0.374  30.915  11.652
12808W        W85233  31.434  44.933  14.889
12809W        W85234   0.422  43.501   0.939
12810W        W85235  14.687   2.215   2.495
12811W        W85236  24.179  37.531   0.792
12812W        W85237   0.790  31.636   0.837
12813W        W85238  29.412  39.969  10.459
12814W        W85239  36.359   4.424  13.590
12815W        W85240   7.671   6.294  12.343
12816W        W85241   3.392  12.189   4.323
12817W        W85242  42.526  42.306   4.231
12818W        W85243  31.214  36.356   3.625
12819W        W85244  26.149   9.236   4.469
12820W        W85245   4.695  13.765  12.297
12821W        W85246  42.709  27.967   0.676
12822W        W85247  18.603   2.265  13.429
12823W        W85248  29.470  33.118   0.825
12824W        W85249   6.467  26.093   0.746
12825W        W85250  20.245  16.340   0.751
12826W        W85251  13.705  22.072   4.812
12827W        W85252  28.760  32.158  11.109
12828W        W85253  35.423  36.585   1.390
12829W        W85254  37.577  32.562  14.405
12830W        W85255  37.451  22.642   2.757
12831W        W85256  24.482   2.419  13.416
12832W        W85257  22.988  17.132  14.270
12833W        W85258  26.429  16.621  12.098
12834W        W85259   0.722   9.410  10.830
12835W        W85260  40.481  44.485  13.801
12836W        W85261   4.779  20.555  12.733
12837W        W85262  43.976  16.883  10.431
12838W        W85263  40.348   0.840  14.384
12839W        W85264  27.189  38.804  10.709
12840W        W85265  36.009  33.417   4.699
12841W        W85266  36.590  39.464   0.685
12842W        W85267  19.556  24.283  14.516
12843W        W85268  14.536  29.701   2.374
12844W        W85269  19.794   8.937  11.987
12845W        W85270  21.517   1.797   2.324
12846W        W85271  40.567  27.995   0.212
12847W        W85272  29.952  20.666  12.134
12848W        W85273  17.510  28.545   4.680
12849W        W85274  39.540  21.659   2.721
12850W        W85275  16.157  26.127  13.992
12851W        W85276   4.267  18.741   1.421
12852W        W85277  32.319  40.868  14.488
12853W        W85278  12.728  17.297   1.381
12854W        W85279   1.652  14.859   0.849
12855W        W85280  20.318   5.403  10.678
12856W        W85281   0.475  12.416  11.919
12857W        W85282  26.090  41.010   3.108
12858W        W85283  38.416   6.428   2.041
12859W        W85284   9.893  33.967   0.320
12860W        W85285   8.347  37.380  12.611
12861W        W85286  15.400  29.024   0.967
12862W        W85287  35.486  40.832  11.054
12863W        W85288  24.529  10.198  14.041
12864W        W85289  35.332  24.427  12.846
12865W        W85290   9.331  41.725  13.411
12866W        W85291   5.257   3.930   4.511
12867W        W85292   3.957  32.037  10.800
12868W        W85293   5.933  40.326   4.239
12869W        W85294  44.347  33.041   0.248
12870W        W85295  31.987  27.750  12.951
12871W        W85296   6.262  17.936  10.169
12872W        W85297  33.169  34.662   2.065
12873W        W85298  15.145  10.235   1.905
12874W        W85299   6.891  21.069  13.412
12875W        W85300   9.249  13.387  11.956
12876W        W85301  38.660  24.777   5.451
12877W        W85302  18.054   9.314   2.737
12878W        W85303  12.548  31.468  10.687
12879W        W85304  36.633   8.821  10.267
12880W        W85305  10.115  17.612  13.450
12881W        W85306   3.299  44.054   4.233
12882W        W85307  29.544  41.054   0.487
12883W        W85308  34.138  26.689   3.792
12884W        W85309   5.201  16.156   1.349
12885W        W85310   3.431  22.547   5.007
12886W        W85311   8.128  20.073   3.295
12887W        W85312  22.929  42.033  13.086
12888W        W85313   4.389  30.741  11.083
12889W        W85314  28.044  30.868   4.586
12890W        W85315  38.872  35.720   1.730
12891W        W85316  35.421  42.498   2.259
12892W        W85317  12.875  12.178   2.790
12893W        W85318  37.022   0.491  12.450
12894W        W85319  32.571  35.760  13.359
12895W        W85320  23.038   4.853  13.320
12896W        W85321   9.289  37.046   5.356
12897W        W85322  32.623  29.070  13.853
12898W        W85323   7.225  14.818  12.919
12899W        W85324  36.477   2.410  14.902
12900W        W85325   4.143  40.817  10.476
12901W        W85326  11.964  34.339   2.310
12902W        W85327  21.243  19.531   1.389
12903W        W85328  12.648  33.381  12.088
12904W        W85329  24.723  40.388   4.558
12905W        W85330  16.047  33.041   0.811
12906W        W85331  34.341  29.101  12.601
12907W        W85332  29.076  36.977   3.231
12908W        W85333   3.902  21.713   2.144
12909W        W85334  22.198  10.568   2.813
12910W        W85335  12.734  42.458   4.907
12911W        W85336   6.439  18.195   3.691
12912W        W85337  12.190  44.311  11.449
12913W        W85338  14.143  27.078   0.054
12914W        W85339  27.987  19.032  12.383
12915W        W85340  20.691   2.965  13.458
12916W        W85341  43.968   6.632  12.374
12917W        W85342  15.603   4.748  11.119
12918W        W85343  35.455  20.792  14.320
12919W        W85344  21.327  39.920  10.627
12920W        W85345  14.080   2.833  13.298
12921W        W85346  18.236  27.165  12.687
12922W        W85347  37.156  12.761   4.680
12923W        W85348  37.948  18.275  11.173
12924W        W85349  35.570   5.654  11.066
12925W        W85350  43.371  10.841   0.919
12926W        W85351  18.573  41.247   0.517
12927W        W85352  22.753  32.150   0.423
12928W        W85353  44.944  15.879  14.364
12929W        W85354  36.874   9.907  11.069
12930W        W85355   1.526   9.073  13.296
12931W        W85356  11.133  23.404   2.283
12932W        W85357  19.798  22.426   0.845
12933W        W85358  28.405  24.525   3.373
12934W        W85359  33.305  44.700   3.131
12935W        W85360  22.947  10.912  10.261
12936W        W85361  33.048  17.738   2.831
12937W        W85362  37.926  40.849  10.661
12938W        W85363   6.289   5.153   1.283
12939W        W85364  32.089   4.658  13.069
12940W        W85365  17.627  39.792   2.006
12941W        W85366  31.064  12.756   2.146
12942W        W85367  12.274  34.902   1.901
12943W        W85368   0.229  44.038  13.919
12944W        W85369   8.653  20.337  13.907
12945W        W85370   2.338  15.955   3.786
12946W        W85371   0.286  22.580   3.501
12947W        W85372  44.121  12.102   2.848
12948W        W85373   9.386  12.886  12.873
12949W        W85374  25.796  21.656   3.350
12950W        W85375  37.761  16.869   0.891
12951W        W85376  16.086  39.631  11.221
12952W        W85377  44.043  30.615  11.230
12953W        W85378   8.002  16.666  13.980
12954W        W85379   3.948  32.930  11.730
12955W        W85380  40.055  32.489   1.166
12956W        W85381   4.157  26.031  12.006
12957W        W85382  38.095  29.581   1.340
12958W        W85383  35.457  34.566  10.625
12959W        W85384  10.574   7.460  10.401
12960W        W85385  37.557  17.299  13.796
12961W        W85386   4.734  29.218  13.413
12962W        W85387   9.824  23.748   1.179
12963W        W85388   1.708  33.611  12.955
12964W        W85389  44.026   2.336  11.613
12965W        W85390  40.338  40.738   3.309
12966W        W85391  19.340  26.737   0.877
12967W        W85392  32.348  27.367  13.916
12968W        W85393  26.596  12.241   3.751
12969W        W85394   2.074  41.698   1.323
12970W        W85395  23.073   5.975   9.825
12971W        W85396  35.339  21.313  12.930
12972W        W85397  16.259  33.457   2.398
12973W        W85398  41.480  29.154   2.773
12974W        W85399  35.416  28.243  14.265
12975W        W85400  25.001  31.435   1.852
12976W        W85401   7.885  37.696   5.456
12977W        W85402   0.291  40.480  10.610
12978W        W85403  10.911  32.615  12.105
12979W        W85404  31.438  20.497   1.775
12980W        W85405   6.935  24.709  14.738
12981W        W85406  38.071  19.735  12.462
12982W        W85407  38.689  35.047   0.539
12983W        W85408  14.312   5.012  14.188
12984W        W85409  18.564   3.250  11.662
12985W        W85410  43.251  35.787   0.458
12986W        W85411  38.060  28.496   4.739
12987W        W85412  14.751   6.867   4.655
12988W        W85413  15.232  44.213  14.096
12989W        W85414  38.491  11.303   4.835
12990W        W85415   1.149  10.762  11.338
12991W        W85416  30.116  12.608  11.105
12992W        W85417  23.432  21.544   0.009
12993W        W85418  21.270  22.147   2.267
12994W        W85419  26.606  42.820  14.850
12995W        W85420  40.840  35.723  13.124
12996W        W85421   5.836  34.918   1.763
12997W        W85422  11.746  18.388  11.977
12998W        W85423  27.044  16.821   0.804
12999W        W85424  12.367  28.959  13.938
13000W        W85425   5.891   1.189  11.984
13001W        W85426   8.147  43.786  10.290
13002W        W85427  43.434  44.693  10.018
13003W        W85428  13.348  33.945  14.860
13004W        W85429  24.109  10.752  12.163
13005W        W85430  21.810  44.839   2.389
13006W        W85431  42.027   0.107   4.750
13007W        W85432  35.800  13.010   1.399
13008W        W85433  30.590  26.526  14.833
13009W        W85434  22.976  12.156   0.894
13010W        W85435  43.218   6.821  13.864
13011W        W85436  17.606  30.163  13.016
13012W        W85437  29.633  18.065   0.961
13013W        W85438  41.065  38.316   0.882
13014W        W85439  27.704   5.856   4.260
13015W        W85440  29.638  13.124   1.101
13016W        W85441  28.566  40.091   2.246
13017W        W85442  17.065  29.575  11.178
13018W        W85443  13.074  20.389  12.080
13019W        W85444  41.807   2.163  13.479
13020W        W85445  35.942  36.932   2.356
13021W        W85446  15.738  19.398   2.240
13022W        W85447  18.778  22.769  10.532
13023W        W85448  37.546  44.969   4.862
13024W        W85449  44.411  12.846  13.462
13025W        W85450  29.704  13.096  13.883
13026W        W85451  14.944  22.264   3.849
13027W        W85452  44.999  42.865   0.366
13028W        W85453  15.350  21.562   2.272
13029W        W85454  18.724  23.000   3.708
13030W        W85455   9.377  31.137   3.096
13031W        W85456   9.117  29.083   3.969
13032W        W85457  31.467  36.315   3.192
13033W        W85458   7.411  14.177  14.133
13034W        W85459   5.821  17.738   0.147
13035W        W85460  35.453  41.535  13.303
13036W        W85461  37.035  24.546  11.114
13037W        W85462   9.688   9.912  10.457
13038W        W85463  11.350   7.919  10.913
13039W        W85464  41.405  11.990  14.484
13040W        W85465   7.032   9.437  10.320
13041W        W85466  37.296  23.908   2.240
13042W        W85467  23.993  17.111  10.952
13043W        W85468   3.445  33.627  14.746
13044W        W85469  33.935  34.010  12.525
13045W        W85470  22.081  28.411  14.842
13046W        W85471   4.372  40.577  12.000
13047W        W85472  39.835  22.564   3.672
13048W        W85473  29.977  27.907  11.331
13049W        W85474   4.802  42.100   3.662
13050W        W85475  24.324  43.827   0.355
13051W        W85476   5.036  35.450   2.679
13052W        W85477  33.119  42.060  10.446
13053W        W85478  37.026  33.876  14.891
13054W        W85479   5.156   7.740  14.896
13055W        W85480  24.064  17.076  11.636
13056W        W85481  12.293   2.150  10.667
13057W        W85482   0.064  32.010  11.198
13058W        W85483  27.886  24.587  13.065
13059W        W85484  42.968  26.764  12.903
13060W        W85485  32.247  16.239  14.401
13061W        W85486  14.339  38.016   0.309
13062W        W85487  24.954  14.719  13.524
13063W        W85488  11.301  21.768  10.303
13064W        W85489  36.974  15.852  12.984
13065W        W85490  25.193  44.935   2.665
13066W        W85491  15.860  15.646   3.859
13067W        W85492  31.046  42.878   4.247
13068W        W85493  30.139   2.218  14.872
13069W        W85494   2.069  25.437  13.900
13070W        W85495  40.519  17.488   4.090
13071W        W85496  40.484  14.595  10.881
13072W        W85497  44.731  32.804   3.132
13073W        W85498  34.943  30.340   0.448
13074W        W85499  19.340  19.309  13.503
13075W        W85500  13.755  26.930   3.329
13076W        W85501  33.101  31.608  13.985
13077W        W85502  22.944  31.888   4.155
13078W        W85503  19.806  26.414   1.745
13079W        W85504  26.000  29.045   4.339
13080W        W85505   1.370   0.567  14.295
13081W        W85506  41.952  18.428  11.864
13082W        W85507  19.456  30.377  14.973
13083W        W85508  37.854  14.286  12.282
13084W        W85509  22.323  33.408  11.511
13085W        W85510  41.889  37.593  11.120
13086W        W85511  38.287  23.606   0.940
13087W        W85512  28.726   2.833  12.576
13088W        W85513  25.674  17.861   2.938
13089W        W85514  12.937  41.251   0.959
13090W        W85515  33.424  29.971   4.441
13091W        W85516  37.063  20.275  14.386
13092W        W85517  39.393  18.844  14.308
13093W        W85518  37.626  20.608  13.006
13094W        W85519   7.791  28.156   1.223
13095W        W85520   8.704  10.843   1.323
13096W        W85521   6.260  27.656   4.858
13097W        W85522  22.061  35.886   4.518
13098W        W85523  29.628   6.367   3.102
13099W        W85524  16.650  18.617   1.906
13100W        W85525  31.994  42.302   0.454
13101W        W85526  16.615  37.141  12.113
13102W        W85527   8.356  16.307   3.719
13103W        W85528  33.189  23.704   0.256
13104W        W85529   2.245   4.737  12.595
13105W        W85530  12.397  18.462   0.369
13106W        W85531  43.580  15.728  11.638
13107W        W85532   2.474  16.547  11.499
13108W        W85533  34.211   6.870  11.657
13109W        W85534  35.916  25.496  12.819
13110W        W85535  18.079  17.742   0.982
13111W        W85536  26.758   5.815   1.794
13112W        W85537   3.388  41.678   4.560
13113W        W85538   5.288  16.104  13.733
13114W        W85539  21.461  32.606  13.831
13115W        W85540  15.629  22.989   3.346
13116W        W85541  23.534   2.720   1.755
13117W        W85542  26.591  33.450  12.130
13118W        W85543  39.388  23.230   0.212
13119W        W85544  18.820  28.138  12.123
13120W        W85545  29.792  13.828  11.630
13121W        W85546  22.620  37.487  11.546
13122W        W85547  41.093  21.186  11.917
13123W        W85548  28.748   4.492  11.212
13124W        W85549  30.638   9.280   4.917
13125W        W85550  34.248  25.872   3.217
13126W        W85551  36.991   6.822  14.389
13127W        W85552  13.042  26.079   1.243
13128W        W85553  42.900  18.412   5.023
13129W        W85554   6.804   6.203  10.497
13130W        W85555  23.705  36.884   2.236
13131W        W85556  19.661  12.291   0.438
13132W        W85557  35.572   5.797  13.014
13133W        W85558  19.327   2.950  10.677
13134W        W85559  31.575  29.931   0.501
13135W        W85560  24.878  22.086  12.400
13136W        W85561   2.791  20.264   2.192
13137W        W85562   0.781  44.463  14.926
13138W        W85563  41.383  26.383   1.857
13139W        W85564   2.546  39.490   2.781
13140W        W85565  30.041  24.153  13.627
13141W        W85566  44.703  22.058  14.362
13142W        W85567  10.444   0.019  11.764
13143W        W85568  21.179  36.825   0.911
13144W        W85569  42.431  18.535  10.529
13145W        W85570  16.451  38.372   3.629
13146W        W85571  12.839  16.981   0.438
13147W        W85572  15.162  15.426   1.345
13148W        W85573  39.612  32.316   1.357
13149W        W85574  35.278  42.492   0.586
13150W        W85575  33.989  25.989  12.124
13151W        W85576  29.326  17.900  11.440
13152W        W85577  10.661  29.066   2.220
13153W        W85578  24.339  36.038   1.835
13154W        W85579  43.363   5.910  13.928
13155W        W85580  25.009  15.362  12.852
13156W        W85581  30.876  19.204  12.536
13157W        W85582  20.030  14.118   1.789
13158W        W85583  32.179  18.325   0.830
13159W        W85584   4.908  20.753   1.852
13160W        W85585  37.774  27.950   3.057
13161W        W85586   9.188  39.304  11.196
13162W        W85587  16.634  36.656  10.651
13163W        W85588  12.895  12.183   1.904
13164W        W85589   2.432   1.403   1.884
13165W        W85590  34.108  13.569   3.625
13166W        W85591  32.889  33.413  12.002
13167W        W85592  44.490  39.793  10.662
13168W        W85593  10.629   3.561   2.911
13169W        W85594  24.176  15.708  12.388
13170W        W85595  19.046  44.083   0.402
13171W        W85596   4.789  20.682   4.378
13172W        W85597  37.615   4.444   2.105
13173W        W85598  27.669  24.050   1.898
13174W        W85599  35.315  31.686  10.755
13175W        W85600   0.828  30.688  11.592
13176W        W85601   7.825  28.449   2.852
13177W        W85602   6.103  19.499   1.198
13178W        W85603  34.315   9.795  14.912
13179W        W85604   6.968  28.571  13.928
13180W        W85605  31.478   4.319  13.453
13181W        W85606  25.574  37.287   0.805
13182W        W85607   1.118  30.360  13.803
13183W        W85608  16.218  25.169  11.906
13184W        W85609   2.464  14.121   1.485
13185W        W85610   0.095  35.806   1.314
13186W        W85611  22.096  26.183   2.942
13187W        W85612  12.673   9.901   3.238
13188W        W85613  14.254  25.155   2.591
13189W        W85614  42.981   8.907  13.200
13190W        W85615  22.168   6.338   1.616
13191W        W85616  27.017  21.332   4.583
13192W        W85617  41.244  26.678  14.881
13193W        W85618  11.228  43.859  14.527
13194W        W85619   9.454  23.187  12.608
13195W        W85620  17.362  41.678  10.923
13196W        W85621  39.257  22.693   0.266
13197W        W85622  16.546  23.762  11.950
13198W        W85623   9.146  29.090   3.285
13199W        W85624   9.441   8.813  11.956
13200W        W85625  35.001  35.944   3.250
13201W        W85626  29.905   8.479  12.186
13202W        W85627  18.185  36.069   3.717
13203W        W85628  25.510   7.965   1.653
13204W        W85629  26.255   8.919  11.591
13205W        W85630   8.930   3.210  11.394
13206W        W85631  18.075  18.367  14.506
13207W        W85632  28.596   6.982  13.423
13208W        W85633  20.517  35.051   4.421
13209W        W85634   1.865  13.312  11.232
13210W        W85635   7.875  30.946   4.632
13211W        W85636   0.753  42.077  10.963
13212W        W85637   4.888   3.508   0.919
13213W        W85638  43.364   2.930   2.304
13214W        W85639  43.023  43.569   1.902
13215W        W85640  21.173  29.043   0.777
13216W        W85641   1.180  42.326   1.746
13217W        W85642   2.516  28.157   1.974
13218W        W85643  28.484  29.899   1.166
13219W        W85644  14.981  25.291   4.740
13220W        W85645  43.138  16.262   0.784
13221W        W85646   8.344   7.863   1.455
13222W        W85647   3.479   2.038   4.216
13223W        W85648  31.407   2.121  14.452
13224W        W85649  29.805  32.841  10.958
13225W        W85650   3.282  43.296   2.841
13226W        W85651  13.323   8.701  10.718
13227W        W85652  39.773  23.631   4.594
13228W        W85653  34.973   1.530   0.416
13229W        W85654   0.908   3.268  11.630
13230W        W85655  29.116   5.341   1.262
13231W        W85656   5.036  38.670  11.112
13232W        W85657  38.631  18.055   0.840
13233W        W85658  14.294  29.740   3.256
13234W        W85659  25.962   0.862  14.399
13235W        W85660   0.878   1.987   2.736
13236W        W85661   0.399   8.794  11.524
13237W        W85662   4.225  44.944  13.794
13238W        W85663  44.433  31.795  13.838
13239W        W85664  37.492  17.851   3.324
13240W        W85665  41.557  14.063   1.440
13241W        W85666  12.604  36.909  10.984
13242W        W85667  38.866   8.389  10.391
13243W        W85668  37.436  25.681   0.100
13244W        W85669  13.556  33.459  13.409
13245W        W85670  25.544  38.739  13.800
13246W        W85671   6.385  35.920   3.693
13247W        W85672  33.631  42.712  14.305
13248W        W85673  41.238   8.709  12.395
13249W        W85674  21.102  26.589   3.189
13250W        W85675  23.016  38.404  13.557
13251W        W85676  18.067  28.741  12.547
13252W        W85677   1.298   6.309   3.326
13253W        W85678  13.646   6.634   1.774
13254W        W85679  40.720  11.859   5.123
13255W        W85680  21.988  37.227  10.981
13256W        W85681  13.648  21.952  12.886
13257W        W85682   5.491  40.825  13.936
13258W        W85683  22.208  20.743  14.867
13259W        W85684   1.939   5.583  12.448
13260W        W85685  17.138   5.720   1.248
13261W        W85686   5.642  33.061   4.431
13262W        W85687   7.057  16.483   1.265
13263W        W85688  16.240  16.498   3.672
13264W        W85689  23.014  22.078  13.116
13265W        W85690  21.029  24.251   3.258
13266W        W85691  41.213  26.560  12.459
13267W        W85692  29.608  41.916  14.911
13268W        W85693   5.704  19.361  13.326
13269W        W85694  27.529   4.269   0.214
13270W        W85695  12.700  18.082  14.338
13271W        W85696  34.305  25.749   4.183
13272W        W85697   3.193  44.312   3.800
13273W        W85698  28.106  12.803   1.688
13274W        W85699  26.240  29.508   3.320
13275W        W85700  30.645  40.877   2.893
13276W        W85701  20.681  44.009  14.565
13277W        W85702  44.375   7.397  12.455
13278W        W85703   6.805   0.262   0.247
13279W        W85704  27.382  44.380  11.148
13280W        W85705  10.955   2.004  13.561
13281W        W85706  39.552  44.428  10.725
13282W        W85707  29.236  25.503  13.016
13283W        W85708  42.569  24.254  14.900
13284W        W85709  38.040  42.299   2.373
13285W        W85710  26.683  20.275   1.677
13286W        W85711  23.618   4.554  14.819
13287W        W85712  35.204  29.072   0.244
13288W        W85713  35.156  15.262  10.544
13289W        W85714  23.184  32.508   4.052
13290W        W85715  33.870  23.840  14.725
13291W        W85716  37.588  19.237  10.649
13292W        W85717   0.969   6.176  12.904
13293W        W85718   2.640  18.115   1.923
13294W        W85719  32.500  44.419  14.065
13295W        W85720   4.734  22.848   1.535
13296W        W85721  32.536  33.958  14.910
13297W        W85722  36.224   1.203   0.850
13298W        W85723   4.795  44.989   4.657
13299W        W85724  26.509  14.300  13.442
13300W        W85725   6.763  41.894  10.693
13301W        W85726  23.927  35.014  12.011
13302W        W85727  20.325  16.731   2.264
13303W        W85728  14.168  21.076  14.429
13304W        W85729  20.459   3.228  13.072
13305W        W85730  41.829  18.108   0.527
13306W        W85731  30.407  41.896   3.203
13307W        W85732  43.427  20.023   3.229
13308W        W85733  13.745  38.999   2.059
13309W        W85734   8.160  30.570  11.529
13310W        W85735  12.777   3.826   2.853
13311W        W85736  16.102   8.288   2.227
13312W        W85737  17.513  28.318   2.619
13313W        W85738  37.502  41.869  14.922
13314W        W85739  16.303  23.536  14.793
13315W        W85740   0.668  33.877  12.557
13316W        W85741  42.629  40.357  11.092
13317W        W85742  13.409  35.396   3.382
13318W        W85743  25.618  29.642   0.461
13319W        W85744  30.344  29.537   3.828
13320W        W85745   3.515   7.414  13.851
13321W        W85746  17.933   6.980  13.400
13322W        W85747  43.821   8.748   4.519
13323W        W85748  19.193  21.531  12.037
13324W        W85749  10.308  40.783   0.876
13325W        W85750  27.615  13.233   2.677
13326W        W85751  11.220   7.670   0.144
13327W        W85752  10.798   0.325  12.777
13328W        W85753  22.446  39.285  11.191
13329W        W85754   0.307  38.079  12.874
13330W        W85755   5.762  21.677   0.210
13331W        W85756  16.043  24.179  12.429
13332W        W85757  13.504  25.190   1.455
13333W        W85758  22.634  33.492   3.381
13334W        W85759  18.241   9.552   3.150
13335W        W85760  21.366   6.458  13.370
13336W        W85761  14.098  34.539  14.508
13337W        W85762  21.197  29.690  11.572
13338W        W85763  33.644  11.391  10.079
13339W        W85764  42.884  17.311  14.378
13340W        W85765  12.754  18.105   1.737
13341W        W85766  34.851  27.952  14.063
13342W        W85767  36.418   0.174   2.202
13343W        W85768  42.647  31.301   4.138
13344W        W85769  16.240  14.795  14.516
13345W        W85770  22.505  13.098  13.333
13346W        W85771   8.629  40.907   1.425
13347W        W85772  36.415  17.139   1.832
13348W        W85773  38.075  40.465   1.932
13349W        W85774   6.438  37.204   1.392
13350W        W85775  16.405  22.133   1.813
13351W        W85776  11.597   6.691  10.467
13352W        W85777  15.015  24.157  10.879
13353W        W85778  37.486  27.226  12.528
13354W        W85779  13.497  44.969  14.500
13355W        W85780  29.420  37.814   2.896
13356W        W85781   6.217  25.804   3.279
13357W        W85782  39.825  20.997  13.364
13358W        W85783  13.859   9.137   5.330
13359W        W85784  41.974  35.771  14.266
13360W        W85785  39.270   2.010  11.041
13361W        W85786  22.049  13.191  12.009
13362W        W85787  32.516   8.945   4.165
13363W        W85788   9.191  16.072  12.823
13364W        W85789  20.702   8.437  13.995
13365W        W85790   7.270   1.972  12.539
13366W        W85791  31.191  28.707   0.474
13367W        W85792  44.451  27.913  12.899
13368W        W85793   7.729  36.345  13.797
13369W        W85794  39.525  14.619  14.314
13370W        W85795  43.507  15.083   2.311
13371W        W85796  30.007   6.902  12.131
13372W        W85797  33.446   7.965  12.077
13373W        W85798   4.210  17.054   2.228
13374W        W85799  15.501   4.103   0.850
13375W        W85800  17.959   6.405   2.916
13376W        W85801   5.369   0.082   2.414
13377W        W85802  10.249  13.247   3.137
13378W        W85803  24.637   4.323  13.925
13379W        W85804   7.110  14.366  14.512
13380W        W85805  34.165  19.007  13.840
13381W        W85806  13.182   6.841   1.779
13382W        W85807   6.418  30.932   0.589
13383W        W85808  36.371  30.936  14.400
13384W        W85809  15.700  42.321   4.153
13385W        W85810  34.056  12.346  12.123
13386W        W85811  10.887   7.401  11.506
13387W        W85812  40.971   5.952  12.186
13388W        W85813  30.676   3.660  14.948
13389W        W85814   8.629  15.875   1.280
13390W        W85815  12.646  44.764  10.384
13391W        W85816  14.832  44.870   4.917
13392W        W85817  15.572  21.033   5.152
13393W        W85818  20.786  16.179  12.054
13394W        W85819   6.728  43.439   4.619
13395W        W85820  29.658   3.922  12.454
13396W        W85821  15.225   5.134   1.724
13397W        W85822   4.424   4.518   4.482
13398W        W85823   8.253  40.622   2.858
13399W        W85824  35.492  10.728   3.714
13400W        W85825   2.520  10.811   0.293
13401W        W85826  13.627   9.380  12.963
13402W        W85827   8.675   1.893  13.886
13403W        W85828  41.376  34.331   1.289
13404W        W85829  12.913  34.365  12.330
13405W        W85830   8.482   3.450  11.293
13406W        W85831  16.271  31.530   4.646
13407W        W85832   8.665  19.114   2.242
13408W        W85833  30.162  44.251   0.692
13409W        W85834  24.952  23.825   1.381
13410W        W85835  35.796  16.456   1.718
13411W        W85836  24.451  32.985   1.622
13412W        W85837  14.479  44.486   5.039
13413W        W85838  15.259  39.045  11.031
13414W        W85839  30.892  21.468   0.947
13415W        W85840   0.752  18.521  14.014
13416W        W85841  41.733   5.604  13.046
13417W        W85842  23.174  14.693  13.042
13418W        W85843  13.693  21.252  11.872
13419W        W85844  14.578  30.962  12.165
13420W        W85845  41.012   9.983  10.241
13421W        W85846  20.663   0.028  11.468
13422W        W85847  21.451  29.152  14.930
13423W        W85848  11.383  41.138  10.426
13424W        W85849  13.205  10.925  14.687
13425W        W85850  23.900   7.807  11.520
13426W        W85851   5.746   6.874   0.159
13427W        W85852  18.647  44.192   5.046
13428W        W85853   4.977   4.472   1.360
13429W        W85854  17.779  39.248  12.673
13430W        W85855   2.370  23.729   2.768
13431W        W85856   3.220  38.651   3.824
13432W        W85857  27.467  20.520  14.351
13433W        W85858  43.590   1.222   4.915
13434W        W85859  23.765  23.123   2.703
13435W        W85860  39.029  40.957   2.561
13436W        W85861  36.921   3.744  13.875
13437W        W85862  34.491  42.568   2.235
13438W        W85863  41.356  28.919  11.244
13439W        W85864  34.351   7.162   2.836
13440W        W85865   9.774  28.615   4.359
13441W        W85866  27.007  29.928  11.638
13442W        W85867  42.792  21.140   2.976
13443W        W85868  29.450  36.410   3.193
13444W        W85869  19.058  16.824   0.882
13445W        W85870   3.499  23.310  13.828
13446W        W85871  26.126  30.137   5.177
13447W        W85872  23.698  22.706  11.133
13448W        W85873  40.351  12.737   4.213
13449W        W85874   8.952  22.460  11.540
13450W        W85875  20.141  24.697  14.975
13451W        W85876  40.422  10.642   2.398
13452W        W85877  40.587  26.151   3.663
13453W        W85878   7.327  16.306   3.179
13454W        W85879   4.656  15.896  14.210
13455W        W85880  28.295  14.551  13.935
13456W        W85881  34.194  23.688   0.116
13457W        W85882  44.461  38.477  11.988
13458W        W85883  14.674  14.300   4.958
13459W        W85884  12.733  34.022  12.660
13460W        W85885  17.542  22.476  13.984
13461W        W85886   2.351  33.610   5.075
13462W        W85887  23.173  44.803  13.435
13463W        W85888  39.884  39.599   0.484
13464W        W85889   1.125  23.979   4.031
13465W        W85890  31.795  35.641  13.915
13466W        W85891  43.750  41.913  14.429
13467W        W85892   3.453   2.497   0.851
13468W        W85893   5.746  18.899  13.558
13469W        W85894   2.091  21.978  12.640
13470W        W85895   9.952  35.546   4.639
13471W        W85896  34.919  31.850  14.197
13472W        W85897  43.320  34.323   4.101
13473W        W85898  10.666  19.857   2.201
13474W        W85899   9.653  13.268   1.380
13475W        W85900  13.645  41.532   4.109
13476W        W85901   6.001  23.579  14.351
13477W        W85902  39.783  37.804  10.536
13478W        W85903  25.542   7.693  11.112
13479W        W85904   3.677  43.295  13.266
13480W        W85905  42.104  32.414   0.852
13481W        W85906   9.796  27.981  12.520
13482W        W85907  41.589  30.837  14.352
13483W        W85908  30.558  16.287   1.311
13484W        W85909  43.565  23.107   1.343
13485W        W85910  27.825  34.377  14.941
13486W        W85911   1.278   8.348  12.325
13487W        W85912   8.092  33.841   3.170
13488W        W85913  37.907  16.602   4.803
13489W        W85914  33.550  10.827   0.903
13490W        W85915  42.858  37.813   3.747
13491W        W85916  42.954  32.136  11.645
13492W        W85917  38.742  27.492  10.269
13493W        W85918  32.514  28.218   4.155
13494W        W85919  43.458  38.598  13.607
13495W        W85920  23.473  23.358   1.419
13496W        W85921   2.571   4.898   2.249
13497W        W85922   1.929  34.223   4.135
13498W        W85923   2.092  31.516  14.757
13499W        W85924  28.210  33.548   3.084
13500W        W85925  43.808   7.730   3.146
13501W        W85926   5.158  36.919   1.931
13502W        W85927   1.427  22.772  10.932
13503W        W85928  23.663  11.135   2.255
13504W        W85929   9.378  30.297  12.522
13505W        W85930  32.971  26.608  14.923
13506W        W85931  40.946  14.364  11.600
13507W        W85932  29.447  38.370  10.607
13508W        W85933  31.447  31.393   4.644
13509W        W85934  14.246   9.325   1.922
13510W        W85935  18.820  27.608   1.082
13511W        W85936  33.508  14.388  12.244
13512W        W85937  22.264  35.382  13.853
13513W        W85938  21.154   1.153   4.728
13514W        W85939  37.678  32.417  11.706
13515W        W85940  38.811   3.449   0.901
13516W        W85941   5.239   7.741  11.271
13517W        W85942  43.783  40.648   0.440
13518W        W85943  20.399  32.214  10.101
13519W        W85944  24.700  23.634  14.875
13520W        W85945   0.704  40.688  14.606
13521W        W85946  21.127  39.126  11.559
13522W        W85947  14.851  15.271  12.450
13523W        W85948  16.638   8.192   2.727
13524W        W85949  21.748  12.166   3.165
13525W        W85950  37.779  29.558  13.538
13526W        W85951   7.044  30.115   0.005
13527W        W85952  36.554  24.178  12.624
13528W        W85953  20.747  43.778  12.155
13529W        W85954  43.244  19.012  14.058
13530W        W85955  19.569  28.920   2.158
13531W        W85956  17.125  42.810  10.819
13532W        W85957  26.169  40.757   0.271
13533W        W85958  42.308  30.991   0.027
13534W        W85959  39.955   0.782   2.760
13535W        W85960  31.379  22.799  11.604
13536W        W85961   7.829  31.791  14.810
13537W        W85962  34.638  30.696  12.381
13538W        W85963  17.731   1.232   3.175
13539W        W85964  30.963  11.636  13.397
13540W        W85965  20.243  37.105   1.294
13541W        W85966   5.922  28.222   2.430
13542W        W85967  33.750  39.761  14.001
13543W        W85968  24.979  35.072  13.394
13544W        W85969  29.019  16.200   3.884
13545W        W85970  25.462   1.684   3.335
13546W        W85971  24.192  17.089  12.949
13547W        W85972  27.745  28.398  14.016
13548W        W85973   2.756   0.797   1.395
13549W        W85974   3.755   0.021   4.332
13550W        W85975  31.563  19.594  11.572
13551W        W85976   6.191  30.524   2.250
13552W        W85977  36.084   0.741   2.554
13553W        W85978  32.663  12.336  13.862
13554W        W85979  41.765  40.951  13.650
13555W        W85980  34.434  10.762  12.824
13556W        W85981   3.044   6.691   1.390
13557W        W85982   5.187  13.087  12.699
13558W        W85983  12.206  20.238  11.945
13559W        W85984  22.933  23.205   2.222
13560W        W85985  34.543  30.004   2.758
13561W        W85986  37.820  43.730  10.561
13562W        W85987  13.832   4.599  13.535
13563W        W85988   5.799  18.785   3.567
13564W        W85989   5.311  11.021   1.635
13565W        W85990  17.087  16.138  11.559
13566W        W85991  37.936   5.975   4.218
13567W        W85992  35.542   5.177   3.767
13568W        W85993  13.571  14.057  14.380
13569W        W85994  28.497  36.444   2.748
13570W        W85995  37.608   2.930  11.185
13571W        W85996  34.631   2.331  14.416
13572W        W85997  39.794  40.527  13.877
13573W        W85998  28.055  21.440  11.405
13574W        W85999  25.678  34.094  12.501
13575W        W86000  37.673  12.725   4.635
13576W        W86001   6.819  15.305   2.849
13577W        W86002   7.439   5.458   0.687
13578W        W86003  41.401  37.224  10.553
13579W        W86004  33.517   3.249   4.108
13580W        W86005  43.536  30.596  11.222
13581W        W86006  35.345  21.096   1.913
13582W        W86007  25.210  23.400  14.317
13583W        W86008  17.780   2.438   4.707
13584W        W86009  36.534  15.161  10.654
13585W        W86010  25.070  27.764   1.515
13586W        W86011   2.300   0.327  12.377
13587W        W86012  30.956  24.970   0.496
13588W        W86013  38.405  26.630   5.114
13589W        W86014  18.689  24.054   1.700
13590W        W86015  40.780   8.731  13.341
13591W        W86016  12.276   3.800   4.399
13592W        W86017  23.399  21.006  14.256
13593W        W86018  29.980  31.847  13.529
13594W        W86019  30.771  26.476   4.977
13595W        W86020   9.537  18.669  13.839
13596W        W86021  44.729  24.552  14.347
13597W        W86022   3.526  20.972  11.018
13598W        W86023  44.626  12.577  13.048
13599W        W86024   9.383  18.182  13.758
13600W        W86025  15.862  23.441   4.052
13601W        W86026  28.644   4.194  14.307
13602W        W86027  28.627   1.308   1.268
13603W        W86028  15.906  32.476   3.814
13604W        W86029  30.967   4.279  13.471
13605W        W86030  26.256   1.322   4.794
13606W        W86031  38.247  38.167  12.510
13607W        W86032   8.611  32.473  13.001
13608W        W86033  27.314  10.360   4.164
13609W        W86034  10.443   1.769   0.776
13610W        W86035  15.748  22.098   4.228
13611W        W86036  41.007  44.251   0.455
13612W        W86037  23.735  32.163  11.189
13613W        W86038   0.231  19.987  13.513
13614W        W86039  21.445  11.658   2.265
13615W        W86040  31.921   3.488   1.836
13616W        W86041   6.997  22.835  13.412
13617W        W86042   1.413  26.955  13.991
13618W        W86043  11.754  13.779  12.162
13619W        W86044  41.277   9.332  11.234
13620W        W86045   1.350   2.499  13.050
13621W        W86046  16.830   9.505   0.289
13622W        W86047  35.989   6.264   4.161
13623W        W86048   7.768   2.343  12.398
13624W        W86049  44.006  23.274   3.224
13625W        W86050  13.518  27.796   3.890
13626W        W86051  19.267   9.684   3.623
13627W        W86052  14.053  25.013  13.886
13628W        W86053  34.559  36.043   0.378
13629W        W86054  31.534  39.866   2.620
13630W        W86055  40.548  30.219  12.559
13631W        W86056  15.282  26.082  11.658
13632W        W86057  40.886  28.364   0.419
13633W        W86058  34.365   4.684  12.864
13634W        W86059   5.197  37.525  11.535
13635W        W86060   4.450  35.087   3.702
13636W        W86061  30.617  29.593   2.842
13637W        W86062   4.735   1.555  12.119
13638W        W86063  38.940  20.916  14.239
13639W        W86064  18.122  44.139  11.380
13640W        W86065  24.898  29.588   0.426
13641W        W86066   4.850  36.459  12.974
13642W        W86067   2.917   4.158  10.710
13643W        W86068   9.562   5.264   4.112
13644W        W86069   0.986   6.757   0.483
13645W        W86070  13.673  14.514  10.715
13646W        W86071   9.309  22.371  13.632
13647W        W86072   4.211   6.196  13.956
13648W        W86073  29.555  28.543   2.385
13649W        W86074  12.902  11.936   0.647
13650W        W86075  25.541  14.561   2.653
13651W        W86076  33.439  38.586   1.805
13652W        W86077  38.924   0.930   2.710
13653W        W86078  42.557  29.140  12.938
13654W        W86079  39.724  11.129   2.329
13655W        W86080  39.349   1.256  13.869
13656W        W86081  32.911  28.097  13.390
13657W        W86082  30.876  24.437   0.416
13658W        W86083   3.416  30.202   3.281
13659W        W86084  14.035   6.236  13.342
13660W        W86085  31.692  35.349   4.864
13661W        W86086  36.637  20.863  11.427
13662W        W86087  30.555  29.398   1.983
13663W        W86088  23.883  26.902   4.504
13664W        W86089  18.227   2.000   4.198
13665W        W86090  27.558  36.780   1.350
13666W        W86091  32.614  33.398  12.461
13667W        W86092  15.721   2.918  13.918
13668W        W86093  18.557  10.338  13.145
13669W        W86094   2.858   8.562   2.352
13670W        W86095  14.684  26.950   1.798
13671W        W86096  39.344  19.713   3.697
13672W        W86097  44.524  30.811   2.769
13673W        W86098   6.157   0.029  12.455
13674W        W86099   6.958  37.577  10.238
13675W        W86100  17.104  39.636   4.184
13676W        W86101  41.379  24.938   2.745
13677W        W86102  10.796  29.000   4.564
13678W        W86103  37.293  32.368   1.216
13679W        W86104  12.700   0.514  13.690
13680W        W86105  37.980  36.163  14.579
13681W        W86106  28.932  39.149   0.341
13682W        W86107  18.925   2.942  14.429
13683W        W86108  31.302   0.944   0.861
13684W        W86109  20.115  13.343  11.862
13685W        W86110  33.788   1.432   3.414
13686W        W86111   5.585  36.596   2.693
13687W        W86112  44.285  42.062   4.999
13688W        W86113  30.731   0.990  14.430
13689W        W86114   4.299  35.952   3.128
13690W        W86115  12.350  13.602   0.253
13691W        W86116  16.193  43.086   1.417
13692W        W86117  21.567  27.576  14.944
13693W        W86118  43.003  21.683  14.923
13694W        W86119   7.403   2.024   2.387
13695W        W86120   8.492  43.745  11.806
13696W        W86121  37.360   5.791  11.424
13697W        W86122  14.452  20.129  13.546
13698W        W86123  37.019  12.950  13.352
13699W        W86124  44.184  19.743   2.106
13700W        W86125  13.361   9.616   1.936
13701W        W86126  44.494   9.832   4.692
13702W        W86127  29.963   8.865   2.894
13703W        W86128   9.740   0.228   0.688
13704W        W86129  20.468  11.111   1.761
13705W        W86130  33.129  42.435  11.218
13706W        W86131  43.364  34.367   0.978
13707W        W86132  15.299   5.296   1.214
13708W        W86133  12.252  34.033   3.138
13709W        W86134  11.132  36.368  13.610
13710W        W86135   0.384  24.095   4.358
13711W        W86136  40.998   1.180   1.308
13712W        W86137   0.114   2.439   2.380
13713W        W86138  31.581  19.706  13.147
13714W        W86139   5.434  30.946  11.198
13715W        W86140   0.462  31.085   0.183
13716W        W86141  12.616   3.414  14.470
13717W        W86142  43.003  40.326  11.984
13718W        W86143   4.729  35.733   0.112
13719W        W86144  36.945  37.080  14.400
13720W        W86145  37.201  26.689   2.176
13721W        W86146  32.115   1.127  14.559
13722W        W86147   0.717  17.642   0.277
13723W        W86148  11.655  44.012   0.537
13724W        W86149  40.286  35.867   4.823
13725W        W86150   4.127  12.345   1.497
13726W        W86151  33.628  16.713  14.852
13727W        W86152  19.849  10.644  14.789
13728W        W86153  17.512  19.756  10.891
13729W        W86154  44.840   1.314   4.807
13730W        W86155  10.219  10.714   1.282
13731W        W86156  27.500  18.775   0.880
13732W        W86157  30.449  28.218  14.078
13733W        W86158  17.754  39.884   1.406
13734W        W86159  27.497   6.301   0.691
13735W        W86160  10.762  22.808   4.324
13736W        W86161  37.573  12.145   3.587
13737W        W86162  24.696  44.127   3.036
13738W        W86163  17.662  39.002  14.450
13739W        W86164  24.806   3.061   4.211
13740W        W86165  41.322   1.020   0.922
13741W        W86166  20.477  11.373  13.640
13742W        W86167  21.765   6.592  12.069
13743W        W86168  24.856   4.232  10.601
13744W        W86169  41.426  14.345   0.479
13745W        W86170  26.095  26.704   3.391
13746W        W86171   1.306  32.295  12.941
13747W        W86172  29.759   1.698  14.015
13748W        W86173  34.757  10.177   5.179
13749W        W86174  13.843  13.802  13.994
13750W        W86175  24.939  10.402   1.426
13751W        W86176  26.885  32.090   1.772
13752W        W86177  40.844  37.707   4.468
13753W        W86178  29.098  20.154   4.014
13754W        W86179  12.595  17.755   4.471
13755W        W86180  30.218  30.902   5.117
13756W        W86181  35.289  17.800  14.391
13757W        W86182  20.187  30.979   4.464
13758W        W86183  18.531  35.525   1.444
13759W        W86184   5.576  18.236  14.486
13760W        W86185  15.861  22.545  14.806
13761W        W86186  37.590  12.407  12.640
13762W        W86187  12.594  34.982  11.720
13763W        W86188   6.304  10.595   3.144
13764W        W86189  32.992  29.659  12.383
13765W        W86190  28.390  28.570   3.183
13766W        W86191  23.150  16.935  11.504
13767W        W86192   4.874   2.987   0.874
13768W        W86193   1.448  20.268  11.189
13769W        W86194  38.478  10.671  14.289
13770W        W86195   7.427   9.513   2.129
13771W        W86196  26.927   0.053   4.281
13772W        W86197  17.115  10.907   3.150
13773W        W86198  38.579  44.053   1.270
13774W        W86199  41.080   3.804  13.803
13775W        W86200  44.321   7.636   4.466
13776W        W86201  21.863  33.258   0.733
13777W        W86202  31.597  28.220   4.273
13778W        W86203  18.798   3.813  13.501
13779W        W86204  36.237  29.394  12.409
13780W        W86205  33.482  43.539   4.750
13781W        W86206  10.940  22.040  14.369
13782W        W86207  43.633  30.400  13.469
13783W        W86208   7.825  17.313  10.187
13784W        W86209  34.483   9.822  10.498
13785W        W86210  39.612   9.205   4.103
13786W        W86211  40.231   4.881   0.090
13787W        W86212   0.301   6.400   2.774
13788W        W86213  16.856  27.520   0.359
13789W        W86214  31.635  20.710   4.636
13790W        W86215  21.478  44.054  14.369
13791W        W86216  35.440  44.337  11.213
13792W        W86217  44.676  32.443   0.936
13793W        W86218  13.734  28.654   4.049
13794W        W86219  10.003   3.896  14.979
13795W        W86220  31.578  39.559   0.324
13796W        W86221  22.555  34.010   4.548
13797W        W86222  35.874  27.632  11.086
13798W        W86223  14.288   1.900   1.964
13799W        W86224  23.570  29.716   4.445
13800W        W86225   9.305   9.152   5.524
13801W        W86226  10.202  18.344   4.712
13802W        W86227  15.799   5.267   1.381
13803W        W86228  21.147  35.338  14.479
13804W        W86229  26.797  41.482   4.160
13805W        W86230   2.808  17.602  11.507
13806W        W86231  28.504  29.673  14.871
13807W        W86232   5.572  34.496   1.977
13808W        W86233  33.411  39.843   3.098
13809W        W86234  11.997  15.799  13.241
13810W        W86235  26.510  12.892   3.198
13811W        W86236  35.902  36.413   0.713
13812W        W86237  32.498  41.858  14.449
13813W        W86238  40.031  10.648  12.579
13814W        W86239  21.482  20.526  11.995
13815W        W86240  17.976   2.163   3.732
13816W        W86241   8.841  37.096   4.667
13817W        W86242   2.747  21.974   1.385
13818W        W86243  40.724  22.004   4.270
13819W        W86244  40.007  33.501   3.366
13820W        W86245  10.079   4.002  12.909
13821W        W86246  10.193   0.474  14.947
13822W        W86247  28.944  26.572  11.037
13823W        W86248  34.951  15.018  13.846
13824W        W86249  23.638  12.299   4.467
13825W        W86250  38.747  22.602   0.341
13826W        W86251  14.769  40.635  10.281
13827W        W86252  30.385   6.452  10.914
13828W        W86253  11.692   0.239  10.847
13829W        W86254  35.207  33.645  12.360
13830W        W86255  41.841  21.397   1.563
13831W        W86256  12.011  27.599  11.313
13832W        W86257  37.912   8.203   1.738
13833W        W86258  23.094  11.093   0.580
13834W        W86259  13.922   3.944   3.714
13835W        W86260   9.918  11.692  14.920
13836W        W86261  36.380  23.497   4.963
13837W        W86262  38.751  27.877   2.273
13838W        W86263  27.470  12.911  13.717
13839W        W86264  40.481  25.665  10.538
13840W        W86265  24.506  13.776  11.704
13841W        W86266  14.840  20.813   0.230
13842W        W86267   1.843  23.999  11.639
13843W        W86268  43.817  15.279  11.623
13844W        W86269  21.775  38.293   2.819
13845W        W86270   3.273  27.564   1.608
13846W        W86271  15.816  31.181  13.884
13847W        W86272  38.121  32.164   2.345
13848W        W86273  40.991  43.803  14.547
13849W        W86274  23.201   1.865   1.901
13850W        W86275  14.052  12.223  14.390
13851W        W86276  10.595  18.777  12.322
13852W        W86277  34.248  26.355   3.033
13853W        W86278   7.638  19.128  12.460
13854W        W86279  11.845  30.481   3.732
13855W        W86280  27.621  10.290   4.716
13856W        W86281  20.764  29.039  10.564
13857W        W86282  31.187  43.816  14.415
13858W        W86283  41.183  44.968  14.077
13859W        W86284  41.403   5.692   2.787
13860W        W86285  12.243   6.339  12.827
13861W        W86286  44.909   5.120  10.663
13862W        W86287   7.991  44.519   5.031
13863W        W86288  26.155  25.049  14.719
13864W        W86289  13.944  14.814  14.058
13865W        W86290  31.171  29.412   3.344
13866W        W86291   1.005   0.872   4.602
13867W        W86292   7.367  35.136  10.267
13868W        W86293  29.933  31.716  14.460
13869W        W86294  14.259   0.042   2.665
13870W        W86295  36.235   9.116   0.713
13871W        W86296  42.926   7.962  13.443
13872W        W86297  32.380  33.963   4.102
13873W        W86298  33.092  37.490  13.131
13874W        W86299  20.078  29.332   2.905
13875W        W86300  24.036  25.693   0.322
13876W        W86301  36.604  16.667   3.604
13877W        W86302  36.037  30.445  10.660
13878W        W86303  41.238   8.874   2.276
13879W        W86304  26.044  25.449  13.289
13880W        W86305  29.474  35.397  13.915
13881W        W86306   4.575   6.305  14.886
13882W        W86307  28.095  11.359  11.940
13883W        W86308  40.276  38.412   3.374
13884W        W86309  23.703  14.764   3.593
13885W        W86310  36.480  35.595   1.256
13886W        W86311  37.069  37.914  11.608
13887W        W86312  12.636  38.771  10.730
13888W        W86313  32.369   6.434  11.205
13889W        W86314  16.745  36.081   2.143
13890W        W86315  32.368  18.597   9.746
13891W        W86316  25.988   4.349   2.417
13892W        W86317  42.432  43.305   3.581
13893W        W86318  38.926  12.632  12.354
13894W        W86319  33.944  14.247   2.396
13895W        W86320  39.229  31.980   0.859
13896W        W86321  19.055   0.401  11.481
13897W        W86322  24.096  36.885   1.195
13898W        W86323  31.449  12.037   4.381
13899W        W86324  28.766   7.943   2.729
13900W        W86325  20.790  39.871   4.593
13901W        W86326  30.446  24.548  13.558
13902W        W86327  37.321  22.648  14.600
13903W        W86328   2.371  42.510   0.712
13904W        W86329  44.978  37.107   2.681
13905W        W86330  20.740  23.737  14.693
13906W        W86331   6.356   8.882   9.957
13907W        W86332  39.478  13.934  13.680
13908W        W86333   3.463   4.237  14.633
13909W        W86334   3.951  26.532  13.058
13910W        W86335   0.733   5.956   1.091
13911W        W86336  31.498   9.701   1.848
13912W        W86337   2.768  29.446  14.980
13913W        W86338   2.827  20.044   0.811
13914W        W86339  14.373   3.237  10.792
13915W        W86340  11.650  13.859   2.894
13916W        W86341  36.496  13.064  10.492
13917W        W86342  28.024  15.814  13.025
13918W        W86343  21.647  17.341  10.712
13919W        W86344   3.651  14.264   3.760
13920W        W86345  29.579   0.215   0.267
13921W        W86346  16.337  22.067  12.873
13922W        W86347  26.609  30.141  11.393
13923W        W86348  24.200  12.286   2.578
13924W        W86349  43.286  24.959  12.921
13925W        W86350  15.313  30.828  13.251
13926W        W86351   7.396  42.499  14.482
13927W        W86352   8.891  41.217   4.185
13928W        W86353  32.580  39.035  13.381
13929W        W86354   0.277  17.345   2.248
13930W        W86355  44.728   1.654  12.983
13931W        W86356  29.937  39.169  13.793
13932W        W86357   2.938  20.827   2.784
13933W        W86358  21.047  13.160   1.174
13934W        W86359  23.949  38.393   4.705
13935W        W86360  39.398   2.900  10.653
13936W        W86361  26.102  15.570  11.070
13937W        W86362   4.699  21.989  14.336
13938W        W86363  38.393  24.951   0.979
13939W        W86364  35.337  12.402   0.115
13940W        W86365  41.294  27.420   0.811
13941W        W86366  10.245  30.473  10.531
13942W        W86367  44.517  37.341  11.292
13943W        W86368  41.980  19.586   2.741
13944W        W86369   2.280   6.885  12.043
13945W        W86370  18.747  31.652   1.454
13946W        W86371  36.590  41.428   1.921
13947W        W86372  41.639  43.085  12.535
13948W        W86373  31.655  22.181   4.133
13949W        W86374   6.841   2.297   0.739
13950W        W86375  14.859   2.824  12.804
13951W        W86376  17.127  32.861   3.197
13952W        W86377   5.657  37.168  11.572
13953W        W86378  41.239  42.419   3.364
13954W        W86379  16.228   0.388   0.750
13955W        W86380  32.589  19.925  12.314
13956W        W86381  44.102  15.297  14.243
13957W        W86382  20.706   8.727   4.528
13958W        W86383  20.204  33.005   1.428
13959W        W86384  43.479   0.882   4.527
13960W        W86385  10.361  39.595  10.442
13961W        W86386  15.730  35.224   1.402
13962W        W86387  38.671  15.644   4.620
13963W        W86388   5.362  39.784   2.556
13964W        W86389  13.159   9.349  12.779
13965W        W86390  16.147   6.036  14.262
13966W        W86391  29.996  39.071   1.615
13967W        W86392  36.993  30.212  11.187
13968W        W86393   6.402   0.807   3.577
13969W        W86394  22.929   7.325  14.858
13970W        W86395  21.740  19.594  12.495
13971W        W86396  11.745  39.772   0.785
13972W        W86397  12.694  40.413  11.515
13973W        W86398   3.447  10.582   3.138
13974W        W86399  29.469  33.871  11.506
13975W        W86400  33.456  36.353  10.287
13976W        W86401  21.243   4.178  10.747
13977W        W86402  35.445  26.298  10.130
13978W        W86403  35.119  38.843  11.570
13979W        W86404  43.384  28.266  10.405
13980W        W86405   9.200   2.349   0.981
13981W        W86406  22.575  44.361   1.335
13982W        W86407  21.185   3.719   1.897
13983W        W86408  38.463  19.285  13.933
13984W        W86409   9.686   8.889  14.178
13985W        W86410   0.182  38.894   2.099
13986W        W86411  40.568  41.750  14.827
13987W        W86412   7.421  24.425  11.652
13988W        W86413  37.023  10.615  11.635
13989W        W86414  13.708  44.895  10.776
13990W        W86415  29.353  22.744   2.181
13991W        W86416   5.662  38.260  12.957
13992W        W86417   3.164  20.796  12.371
13993W        W86418  20.382  28.039   1.251
13994W        W86419  43.791  26.058   2.605
13995W        W86420  16.306  42.825   1.864
13996W        W86421  20.759  35.903  11.503
13997W        W86422  41.349  34.135  12.040
13998W        W86423   5.985  35.417   2.906
13999W        W86424  44.893  25.045  14.402
14000W        W86425  23.559   2.356  10.794
14001W        W86426  16.054  19.633  12.079
14002W        W86427  20.279  40.043  14.517
14003W        W86428   6.888   4.216  12.916
14004W        W86429  39.577  23.865  11.161
14005W        W86430  38.276  29.901  10.728
14006W        W86431  29.484  15.998  12.890
14007W        W86432   8.723  37.079  14.360
14008W        W86433  25.710   3.184   0.326
14009W        W86434  24.696  26.275   3.371
14010W        W86435   8.753  24.136  11.658
14011W        W86436  11.061  12.318  14.988
14012W        W86437  38.998  24.293   4.768
14013W        W86438  35.630  32.174  11.641
14014W        W86439  25.610   5.170   1.099
14015W        W86440  34.538   1.283  10.969
14016W        W86441  33.271  13.859   4.695
14017W        W86442  10.352   0.040  14.721
14018W        W86443   7.226   3.411   3.468
14019W        W86444   1.521  43.493   4.497
14020W        W86445  19.775  32.850  14.866
14021W        W86446  36.295   7.700   3.266
14022W        W86447  25.803   8.734   1.492
14023W        W86448  40.151   0.052  10.762
14024W        W86449  34.810  14.317   4.218
14025W        W86450  10.178  23.261  11.573
14026W        W86451   5.639  31.095  12.069
14027W        W86452  18.780  36.293   3.254
14028W        W86453  21.563   0.343   2.360
14029W        W86454  30.070  19.393   4.581
14030W        W86455  19.260  34.435  13.743
14031W        W86456  29.077  11.554   1.952
14032W        W86457  15.614  44.004  10.860
14033W        W86458   6.781  43.431   0.493
14034W        W86459  29.621  35.880  13.839
14035W        W86460  15.993  23.463  10.661
14036W        W86461   4.434  10.118   3.790
14037W        W86462  22.200  32.370  13.070
14038W        W86463   2.191   2.758  14.948
14039W        W86464  35.650  38.780   2.665
14040W        W86465  33.780   8.285   3.230
14041W        W86466  41.443  25.452   2.453
14042W        W86467  42.278  24.660   0.963
14043W        W86468  31.407  22.275   0.505
14044W        W86469   4.765   6.141  13.011
14045W        W86470  24.510  38.057  14.253
14046W        W86471  38.615  32.929   1.858
14047W        W86472   6.075  37.015   2.139
14048W        W86473  17.284  16.134  12.605
14049W        W86474  41.799  23.959  13.273
14050W        W86475  40.598  36.871   2.730
14051W        W86476   3.268  10.108  13.049
14052W        W86477  25.164  22.078  10.606
14053W        W86478  28.583  30.848   0.910
14054W        W86479  23.122  31.206   4.691
14055W        W86480  38.513  22.547  12.453
14056W        W86481  19.490   6.749  14.733
14057W        W86482  42.271  15.408  14.142
14058W        W86483   0.659   1.326   2.985
14059W        W86484  43.986  21.697  10.655
14060W        W86485  30.794  22.823   3.616
14061W        W86486  23.454  37.456   3.974
14062W        W86487  27.622  27.487   4.149
14063W        W86488   5.160  40.602   0.971
14064W        W86489   5.424   5.279   1.155
14065W        W86490  34.165  42.746  11.690
14066W        W86491  29.360   4.777   0.349
14067W        W86492  28.605  14.830  12.050
14068W        W86493  41.489   6.385   3.604
14069W        W86494  41.851  37.618   3.205
14070W        W86495   6.226   3.017  10.749
14071W        W86496  23.579   6.968  12.125
14072W        W86497  41.683   3.731   4.212
14073W        W86498  38.473  11.892   0.679
14074W        W86499  20.615  38.165  14.377
14075W        W86500  33.903  22.361   4.350
14076W        W86501  35.382  26.183   2.345
14077W        W86502  35.575  28.572   1.460
14078W        W86503   2.145  35.635   4.172
14079W        W86504  18.000  35.093  11.644
14080W        W86505  31.662  21.650  13.607
14081W        W86506  37.313   9.063   4.688
14082W        W86507  14.692  21.756  11.981
14083W        W86508  10.602  41.292  13.943
14084W        W86509  34.799  35.019   1.673
14085W        W86510  19.102  13.385   2.005
14086W        W86511  31.978  35.861  11.624
14087W        W86512  42.486  38.829  11.085
14088W        W86513  27.038  23.013  11.738
14089W        W86514  35.090  17.842   4.096
14090W        W86515  37.913   4.482   0.799
14091W        W86516  41.681  18.870  11.592
14092W        W86517  28.163  28.420   1.429
14093W        W86518  11.063  39.645  13.514
14094W        W86519  35.208  44.462   1.492
14095W        W86520  34.004  31.697  12.975
14096W        W86521  37.233  28.569  11.402
14097W        W86522  44.196  31.028  13.003
14098W        W86523  23.518  31.178  12.312
14099W        W86524  38.812   5.847  10.620
14100W        W86525  22.198  16.153  13.521
14101W        W86526  24.216  17.268   3.910
14102W        W86527  31.829  38.259   0.939
14103W        W86528  15.241  34.106  10.634
14104W        W86529   5.752   3.560   0.845
14105W        W86530  10.584  25.344   1.433
14106W        W86531  19.174  29.768  11.898
14107W        W86532  30.715  16.388   5.177
14108W        W86533  11.616  25.010   2.839
14109W        W86534   8.148  30.642   1.336
14110W        W86535  17.789  10.469   4.129
14111W        W86536  17.915   3.406   3.387
14112W        W86537  10.534   8.179   1.490
14113W        W86538   1.508  39.828  11.548
14114W        W86539  43.268  24.669  14.229
14115W        W86540  26.151  18.593   3.166
14116W        W86541   2.710  26.067   2.473
14117W        W86542  43.530  32.908  14.500
14118W        W86543  15.349  10.234   4.595
14119W        W86544  23.489  27.217  13.029
14120W        W86545   8.221   1.419   4.866
14121W        W86546  41.084  19.547  13.655
14122W        W86547  29.992  43.237  10.918
14123W        W86548  24.745  21.065  11.029
14124W        W86549   2.455   3.200  11.432
14125W        W86550   1.017   2.408  11.362
14126W        W86551   9.917  20.332   0.432
14127W        W86552   9.540  17.358  14.970
14128W        W86553  16.589  18.192   4.686
14129W        W86554   7.749   5.244   3.757
14130W        W86555  22.736  22.248  10.357
14131W        W86556  25.394  39.025   0.838
14132W        W86557  38.406  33.304  13.542
14133W        W86558  33.480  28.572   2.311
14134W        W86559  43.712  31.986   3.386
14135W        W86560  28.991  12.775  14.563
14136W        W86561  13.251  25.291   2.333
14137W        W86562   4.058  12.836  11.640
14138W        W86563  21.111  19.045  12.894
14139W        W86564  15.620  14.626   5.132
14140W        W86565   0.652  15.108   1.422
14141W        W86566   4.260   6.198   4.431
14142W        W86567   9.781  29.899  13.410
14143W        W86568   4.582  16.710   2.898
14144W        W86569  14.410  32.388   3.778
14145W        W86570  10.561  21.543   2.785
14146W        W86571   5.828  11.427   2.360
14147W        W86572  22.288  25.743   2.328
14148W        W86573  14.909  26.589  11.470
14149W        W86574  33.818  20.709  10.888
14150W        W86575  40.085   3.591   1.683
14151W        W86576  20.556  24.691   1.805
14152W        W86577  28.319   8.451  14.848
14153W        W86578  18.670  26.573   4.593
14154W        W86579  20.613  21.643   2.643
14155W        W86580  39.304  24.155  10.764
14156W        W86581  41.840  36.383   1.069
14157W        W86582  19.002   5.689   3.249
14158W        W86583  17.564  27.233  12.395
14159W        W86584  43.605  27.903  11.802
14160W        W86585  37.120  21.295  14.724
14161W        W86586   4.535  27.999   2.838
14162W        W86587   7.810  33.133  14.520
14163W        W86588  31.630   1.366   0.932
14164W        W86589  36.978   8.895  11.204
14165W        W86590  26.481   4.175   2.395
14166W        W86591  43.277  40.835   2.222
14167W        W86592   5.625  18.729  11.244
14168W        W86593  24.715  15.092  12.024
14169W        W86594  13.001  23.601  14.446
14170W        W86595  10.797  41.421  14.757
14171W        W86596  37.352  19.693  10.758
14172W        W86597  23.790  19.305   0.533
14173W        W86598  43.543  23.591   3.931
14174W        W86599   8.398   0.253  14.374
14175W        W86600  18.774   0.412   5.038
14176W        W86601   4.052  11.327   2.896
14177W        W86602  43.611   8.719  12.557
14178W        W86603  40.200  22.003   0.764
14179W        W86604  14.352  14.337  12.521
14180W        W86605  10.861  26.523  11.511
14181W        W86606  31.986  39.439  12.004
14182W        W86607  40.483  30.702  13.855
14183W        W86608   1.851  43.893  11.361
14184W        W86609  43.407   1.971  10.611
14185W        W86610  32.117  10.224  11.459
14186W        W86611  40.260  42.568   3.045
14187W        W86612  21.631  41.012   1.698
14188W        W86613  20.372   5.619  14.292
14189W        W86614  39.806   8.638  12.392
14190W        W86615  18.842   6.188  11.768
14191W        W86616  34.941  23.165   2.626
14192W        W86617  28.907   7.908  12.808
14193W        W86618  28.552  32.197   2.944
14194W        W86619  25.436  37.093  14.875
14195W        W86620  41.030  35.880   4.102
14196W        W86621  18.578  10.182  11.633
14197W        W86622  33.100   5.912  12.517
14198W        W86623  34.164  34.936   3.838
14199W        W86624  44.368  37.400  12.323
14200W        W86625   6.826   4.313  11.990
14201W        W86626  29.533  16.601   3.194
14202W        W86627   9.111  36.471   3.319
14203W        W86628  38.302   2.219   1.861
14204W        W86629  22.711  15.311   2.803
14205W        W86630  43.561  43.773  14.808
14206W        W86631  24.973   0.754  11.469
14207W        W86632  14.141  12.237  13.895
14208W        W86633  20.982  33.023  14.061
14209W        W86634  35.406  41.018   4.561
14210W        W86635  18.010  43.161   1.693
14211W        W86636  13.383  11.011   1.758
14212W        W86637  18.514  26.404   1.828
14213W        W86638  14.470  43.022  12.534
14214W        W86639  22.973   1.638   2.326
14215W        W86640  33.374   6.663   4.647
14216W        W86641  18.226  17.396   3.261
14217W        W86642  23.803   2.830  11.545
14218W        W86643  11.292  20.453   3.148
14219W        W86644  32.971  40.308  13.887
14220W        W86645  11.922  28.995   0.424
14221W        W86646  12.164  39.471  11.575
14222W        W86647  19.181   9.984  14.104
14223W        W86648  33.725  20.192   2.961
14224W        W86649  16.216  10.770   2.991
14225W        W86650  33.484  27.032  10.323
14226W        W86651   1.424   2.277  14.810
14227W        W86652  13.394  24.403  14.786
14228W        W86653  28.574   1.340  12.455
14229W        W86654  14.892  10.817   3.097
14230W        W86655  11.181   5.263   3.788
14231W        W86656  13.908   7.785   1.502
14232W        W86657   7.798   2.208   1.893
14233W        W86658  23.724  28.952   1.925
14234W        W86659  13.724  35.619   2.695
14235W        W86660  26.248  32.950  10.015
14236W        W86661  43.475   3.264  11.502
14237W        W86662   9.391  27.652   0.320
14238W        W86663  34.154   7.386  12.497
14239W        W86664   5.425  30.595   1.818
14240W        W86665  20.642  34.679   3.635
14241W        W86666  41.061  16.962  12.311
14242W        W86667   3.001   9.054  14.510
14243W        W86668  40.706  17.774   1.447
14244W        W86669  31.477  18.977   1.849
14245W        W86670  37.923  22.107   3.328
14246W        W86671  21.849  18.752   1.488
14247W        W86672  12.754  27.056   1.951
14248W        W86673  27.584  22.493   1.243
14249W        W86674  15.564  40.498   2.590
14250W        W86675  35.131  39.344  14.453
14251W        W86676   2.998  15.898  13.408
14252W        W86677  33.997  43.407  10.380
14253W        W86678   6.501   9.875  11.584
14254W        W86679   5.216  43.687   1.305
14255W        W86680  26.249  21.143   1.383
14256W        W86681   5.057  15.867  14.601
14257W        W86682  30.733  36.516   3.658
14258W        W86683  24.020   2.794   1.918
14259W        W86684  13.692  39.288   3.258
14260W        W86685  36.079  23.109  12.354
14261W        W86686  13.921  37.957  12.783
14262W        W86687  21.681  10.167   0.713
14263W        W86688  11.807  42.893  13.011
14264W        W86689   7.059  32.170   3.806
14265W        W86690  37.811  34.068  12.023
14266W        W86691  23.615  24.445   2.351
14267W        W86692  15.720   0.939  11.086
14268W        W86693  21.488  36.524   0.643
14269W        W86694  10.681  19.128  12.966
14270W        W86695  10.938  17.620  12.002
14271W        W86696  40.407  33.521  14.227
14272W        W86697  31.447  42.533  10.472
14273W        W86698   8.829  25.467  14.247
14274W        W86699   2.306  27.711   3.266
14275W        W86700  10.613  24.234  11.004
14276W        W86701  35.516  43.336  11.130
14277W        W86702  19.660  12.473  12.958
14278W        W86703  12.595   1.675   4.659
14279W        W86704   2.521  21.132  12.489
14280W        W86705   5.296  22.492   0.376
14281W        W86706  15.542  15.099   4.452
14282W        W86707  21.618  32.065  14.832
14283W        W86708  32.606   8.230   4.637
14284W        W86709  40.998   7.246   3.617
14285W        W86710  21.481  31.857  14.386
14286W        W86711   6.784   5.335  13.833
14287W        W86712  44.425  21.964   3.804
14288W        W86713  37.001   5.882   2.201
14289W        W86714  24.045  26.945   3.220
14290W        W86715  44.229   0.022   0.448
14291W        W86716  30.456   5.203  13.439
14292W        W86717   5.373  16.103  13.221
14293W        W86718  32.412  32.784   0.889
14294W        W86719  20.591  13.750   0.699
14295W        W86720  18.510  29.504   4.571
14296W        W86721   1.073  37.423   1.841
14297W        W86722  15.404  44.978  13.332
14298W        W86723  30.050  37.512   0.434
14299W        W86724  40.332   4.447  12.086
14300W        W86725  16.753  42.982   2.775
14301W        W86726  14.558  11.909   2.270
14302W        W86727  42.341  10.274   4.340
14303W        W86728  19.162  31.331  11.085
14304W        W86729  17.547  13.169  11.115
14305W        W86730   5.388  34.377  11.349
14306W        W86731  10.188  16.380   3.085
14307W        W86732  16.195   3.306  11.998
14308W        W86733  43.949  13.641  11.645
14309W        W86734   0.811   7.116  12.487
14310W        W86735  14.969  36.433  11.564
14311W        W86736  27.389   5.255   1.001
14312W        W86737  23.052  25.994  14.873
14313W        W86738  30.852   4.150   0.015
14314W        W86739  35.127  25.852  10.311
14315W        W86740   6.736  19.033  13.457
14316W        W86741  20.700  13.466  12.502
14317W        W86742   1.803  13.636  12.883
14318W        W86743  35.452  23.070  14.075
14319W        W86744  43.940  16.618  13.410
14320W        W86745  38.070  37.837   4.144
14321W        W86746   7.154  34.042  13.799
14322W        W86747  44.045  42.450  13.013
14323W        W86748   4.979  31.900   3.551
14324W        W86749   7.765  24.825  10.804
14325W        W86750  26.034  44.468  11.591
14326W        W86751   2.066  39.154  13.579
14327W        W86752   6.719  33.110   0.061
14328W        W86753  43.073   2.334   0.450
14329W        W86754  27.650   8.010  11.278
14330W        W86755  36.595  12.459   5.134
14331W        W86756   0.683  26.467  12.807
14332W        W86757   1.936   9.399  11.165
14333W        W86758  13.792  40.917   2.966
14334W        W86759  34.281  22.535   2.777
14335W        W86760   8.273   3.460   4.769
14336W        W86761  22.339  23.159  11.493
14337W        W86762  33.046  25.584  12.463
14338W        W86763  16.745  42.474   0.764
14339W        W86764  43.746  18.039   2.828
14340W        W86765   8.690   2.248  12.446
14341W        W86766  22.241  34.054  10.619
14342W        W86767  14.643   6.731   0.672
14343W        W86768   1.171  19.582  11.924
14344W        W86769  13.841  16.537   3.519
14345W        W86770  41.337   0.274  11.068
14346W        W86771  29.186  21.161  12.801
14347W        W86772  15.091  24.933   0.878
14348W        W86773  11.371  35.907   4.700
14349W        W86774  40.572  41.294  10.745
14350W        W86775  32.633  24.863  14.152
14351W        W86776  29.134  35.182  13.421
14352W        W86777  34.620  40.555  13.291
14353W        W86778  12.660  42.056  12.465
14354W        W86779  22.924   3.757  12.157
14355W        W86780  17.034  37.361  12.843
14356W        W86781  36.880   2.897  10.724
14357W        W86782  18.717   7.385   4.110
14358W        W86783  18.357   9.030   2.430
14359W        W86784  25.077  43.615  11.060
14360W        W86785   2.541  18.516   2.201
14361W        W86786  30.127  31.860   2.754
14362W        W86787  17.573  32.321   2.658
14363W        W86788   6.569   5.854   4.031
14364W        W86789  29.969  38.311  11.157
14365W        W86790  33.550  38.829  13.887
14366W        W86791  12.434   4.320   4.739
14367W        W86792  20.573  21.974  11.522
14368W        W86793   8.758   9.184   3.600
14369W        W86794  28.767  14.729   2.443
14370W        W86795   2.425   9.138  13.402
14371W        W86796  16.356  10.292   4.562
14372W        W86797  39.538  38.916  10.701
14373W        W86798  34.746  10.122  10.828
14374W        W86799   7.270   1.386  11.885
14375W        W86800   5.817  37.985  11.204
14376W        W86801  34.087  29.142  11.725
14377W        W86802  23.628  28.371   4.115
14378W        W86803  37.528   9.851   3.284
14379W        W86804  37.940   1.430  14.205
14380W        W86805  24.931   2.427  14.826
14381W        W86806   7.366  27.401  14.296
14382W        W86807  35.836  43.770  14.366
14383W        W86808  41.067  42.746   2.108
14384W        W86809  33.195  21.909   1.902
14385W        W86810  19.755  26.033   3.025
14386W        W86811  11.760  39.980   0.286
14387W        W86812  25.363  35.610  14.974
14388W        W86813   0.261  19.859   2.702
14389W        W86814  42.514  11.492  12.993
14390W        W86815  11.379  13.531   1.481
14391W        W86816  38.401  22.575   4.372
14392W        W86817   0.374  32.478  10.711
14393W        W86818  20.277  32.539   0.879
14394W        W86819  14.721   6.131  12.824
14395W        W86820  30.575  40.765   2.003
14396W        W86821  25.528  28.532  13.911
14397W        W86822  24.955  24.578  12.956
14398W        W86823  24.555   3.002   1.877
14399W        W86824  19.581  32.565   9.888
14400W        W86825  26.037  37.036   3.930
14401W        W86826  42.141  27.589   2.352
14402W        W86827   6.948   8.906   3.247
14403W        W86828   8.960   4.679   4.134
14404W        W86829  33.868  22.604   3.348
14405W        W86830  43.485  18.665   3.425
14406W        W86831  26.217  36.413  14.345
14407W        W86832   0.126  30.184  12.778
14408W        W86833  43.570  17.114  10.685
14409W        W86834  13.730  44.363   2.679
14410W        W86835  34.658   0.446  14.914
14411W        W86836  33.474  22.647   4.275
14412W        W86837  34.403  42.127  10.473
14413W        W86838  25.816  38.778   1.424
14414W        W86839  37.980  23.495   0.416
14415W        W86840  27.226  11.834   3.676
14416W        W86841   0.484  37.349   5.239
14417W        W86842  26.932  28.313   4.113
14418W        W86843  44.614  22.235   0.268
14419W        W86844  19.319  16.657   2.265
14420W        W86845  19.473  35.927   4.177
14421W        W86846  36.311  33.519  12.481
14422W        W86847  36.534   8.804   4.203
14423W        W86848  27.073   6.466  12.401
14424W        W86849  33.500  28.982   3.109
14425W        W86850   1.784  10.206   4.205
14426W        W86851  37.014   0.550   3.771
14427W        W86852   6.924   9.819  12.509
14428W        W86853  26.853  31.235  14.762
14429W        W86854  34.222  34.807   4.473
14430W        W86855  20.077  41.971   0.597
14431W        W86856  27.444  33.448  10.525
14432W        W86857   2.729  42.136   0.953
14433W        W86858  11.572  17.535   0.397
14434W        W86859  35.931  16.251  11.894
14435W        W86860  13.130   3.413   4.625
14436W        W86861  33.678   4.873   4.976
14437W        W86862  21.700   7.375  10.889
14438W        W86863  28.571  20.335   3.312
14439W        W86864  14.656  11.912   1.342
14440W        W86865   9.810  33.055   1.962
14441W        W86866  41.823  40.761  14.586
14442W        W86867  25.184  30.637  13.306
14443W        W86868  20.530  32.406  14.913
14444W        W86869  40.390  37.848   4.688
14445W        W86870   5.473  34.938   3.549
14446W        W86871   6.023  34.712  12.513
14447W        W86872  44.369  27.134   2.326
14448W        W86873  33.455  21.235  13.323
14449W        W86874  39.030   8.862   1.562
14450W        W86875  26.941  12.959  11.170
14451W        W86876  30.901  21.602   4.256
14452W        W86877  25.122   7.374  13.356
14453W        W86878  32.434   0.868   3.222
14454W        W86879  13.651  34.920  11.617
14455W        W86880   9.634   1.578  14.015
14456W        W86881  21.353  18.683   1.443
14457W        W86882  23.141   9.885  14.894
14458W        W86883  42.437  22.830   3.286
14459W        W86884   0.465  28.185  11.049
14460W        W86885   0.378   9.360  11.894
14461W        W86886  36.053   6.414   2.233
14462W        W86887  27.847  22.999  11.195
14463W        W86888  38.796  25.416  10.719
14464W        W86889  25.817   6.772  12.551
14465W        W86890  28.931  13.698  13.485
14466W        W86891   4.235  33.397  13.451
14467W        W86892  43.884  20.082  12.869
14468W        W86893   7.283  30.962   1.313
14469W        W86894  17.312  36.662  11.121
14470W        W86895   1.457  38.816  14.838
14471W        W86896  35.506  32.130  13.446
14472W        W86897  26.980  21.603  14.142
14473W        W86898  24.912  24.731  11.292
14474W        W86899  30.064  37.275  11.158
14475W        W86900  43.194  23.571   4.837
14476W        W86901   2.671  23.991  13.210
14477W        W86902   1.460  44.807  10.688
14478W        W86903  30.413   8.185   3.599
14479W        W86904  26.716  11.272  14.956
14480W        W86905  15.619  28.192   1.951
14481W        W86906  22.300  38.158  12.456
14482W        W86907  31.353   8.727  11.359
14483W        W86908  44.303   6.146  14.254
14484W        W86909  41.002   2.770  13.999
14485W        W86910  27.663  40.971  10.929
14486W        W86911  35.620  14.190   0.478
14487W        W86912  44.721  17.017   3.246
14488W        W86913   5.802  14.601  14.171
14489W        W86914   1.506  24.726   2.771
14490W        W86915  36.015  27.318  10.696
14491W        W86916  12.730  20.570   2.633
14492W        W86917  12.704  33.101   2.263
14493W        W86918  36.542   5.831   1.813
14494W        W86919  41.762   5.903   3.602
14495W        W86920  21.527  39.669  11.079
14496W        W86921  16.183  13.603   3.320
14497W        W86922  28.680   7.707  14.368
14498W        W86923  23.246  23.061   3.896
14499W        W86924   5.982  25.550   4.645
14500W        W86925  28.674  43.908   0.855
14501W        W86926  36.975  24.031  12.906
14502W        W86927  29.037   7.858   1.545
14503W        W86928  34.956  38.071  13.605
14504W        W86929  37.088  15.134   0.342
14505W        W86930   5.826   4.370  12.060
14506W        W86931  42.373  20.501   3.729
14507W        W86932  26.912  20.207   3.518
14508W        W86933  38.860  42.220   0.320
14509W        W86934   4.210  42.797   0.510
14510W        W86935   7.932   9.199  10.393
14511W        W86936  16.358  41.009  12.538
14512W        W86937  12.585  14.716  14.893
14513W        W86938  21.876  23.175  11.721
14514W        W86939  11.870   8.368   2.175
14515W        W86940   2.388  16.186   4.246
14516W        W86941  35.372   5.664  14.552
14517W        W86942  20.204  27.539   1.294
14518W        W86943  22.965  13.688   0.472
14519W        W86944   1.083  15.289  12.129
14520W        W86945   6.701  32.701   0.391
14521W        W86946   7.691  19.874   4.005
14522W        W86947  13.534  31.942   1.583
14523W        W86948  11.463   5.000   2.399
14524W        W86949  24.120  16.285   2.916
14525W        W86950  39.836   7.409   3.251
14526W        W86951  13.525  29.906  11.991
14527W        W86952   9.353  16.443  13.625
14528W        W86953   3.684  15.288   4.414
14529W        W86954  26.976   4.652  11.203
14530W        W86955  27.925  33.616  12.043
14531W        W86956  22.622  42.388  14.001
14532W        W86957  15.761  13.768  10.794
14533W        W86958  20.887  34.817  11.913
14534W        W86959  36.346  28.528  11.910
14535W        W86960   1.005   0.614   0.953
14536W        W86961   0.764  31.507  12.584
14537W        W86962   9.383   9.840   2.631
14538W        W86963  30.471  42.495  10.559
14539W        W86964  41.803  41.769   1.238
14540W        W86965  22.555  12.182  12.855
14541W        W86966  30.509  17.681   2.816
14542W        W86967  26.605  40.463  14.807
14543W        W86968  32.803  43.463  14.842
14544W        W86969  43.979   1.947   1.911
14545W        W86970   2.466  10.235   0.004
14546W        W86971  27.412  21.965   1.417
14547W        W86972  24.279  24.705   0.285
14548W        W86973   1.250   7.918  12.621
14549W        W86974  21.258  32.977   1.428
14550W        W86975  38.422   7.818  10.456
14551W        W86976  20.113  18.902  14.714
14552W        W86977  31.005  44.058   3.300
14553W        W86978  23.139  30.547  11.651
14554W        W86979   6.980  22.580   3.129
14555W        W86980   7.511  22.617   4.920
14556W        W86981  23.987  19.467  12.093
14557W        W86982   9.783  16.158  13.657
14558W        W86983   1.039   8.695   0.253
14559W        W86984  43.035  42.824   2.345
14560W        W86985  35.815  32.959   1.138
14561W        W86986  25.772  44.863  11.148
14562W        W86987  39.754   0.712  14.986
14563W        W86988  31.406   1.279  11.022
14564W        W86989  33.616   1.350   3.965
14565W        W86990  18.380  12.064  13.189
14566W        W86991   2.182  43.354   1.474
14567W        W86992  37.474  11.289  13.937
14568W        W86993  26.170  37.327   2.199
14569W        W86994  37.826   2.853   3.309
14570W        W86995  35.388   4.157   1.715
14571W        W86996  20.749  39.570   0.164
14572W        W86997  21.990  34.445   1.270
14573W        W86998   3.806   0.970  12.818
14574W        W86999  41.495  24.681   0.768
14575W        W87000  21.693  28.960   3.628
14576W        W87001   8.780  40.072  11.117
14577W        W87002  27.949  38.449  13.234
14578W        W87003  43.230  18.767  12.413
14579W        W87004  38.970   1.005   1.761
14580W        W87005  24.471  26.765  10.557
14581W        W87006  37.459  10.351   3.198
14582W        W87007  26.986  33.361  13.985
14583W        W87008  10.840  44.648   4.000
14584W        W87009  38.334  43.694  10.193
14585W        W87010  15.891  18.098  11.246
14586W        W87011   2.797  32.318   0.801
14587W        W87012  36.980   9.717  12.547
14588W        W87013   0.378  27.434   2.404
14589W        W87014  34.787   3.790   0.817
14590W        W87015   9.161  44.137   0.452
14591W        W87016  35.849  20.156   4.596
14592W        W87017   4.485  18.224  13.597
14593W        W87018  40.861  38.757  11.594
14594W        W87019   9.231  12.519   5.015
14595W        W87020  35.569  21.991   1.790
14596W        W87021  21.608  34.050   3.063
14597W        W87022  24.569   5.461  14.056
14598W        W87023   6.978  39.369   4.424
14599W        W87024  39.352  21.003  12.617
14600W        W87025  24.100  17.817  13.416
14601W        W87026  31.502  42.805   4.550
14602W        W87027  17.785   6.651   0.349
14603W        W87028   0.688   5.196   3.265
14604W        W87029   1.223  34.468  13.864
14605W        W87030  20.541   5.223   2.305
14606W        W87031   0.651  11.749   3.718
14607W        W87032   2.390  13.632  13.190
14608W        W87033   6.675   8.681   1.259
14609W        W87034   9.269  19.288   1.560
14610W        W87035   1.922  23.754   3.383
14611W        W87036  17.535   7.882  12.446
14612W        W87037  35.211  42.911   1.753
14613W        W87038  20.553   9.651   3.284
14614W        W87039   7.114  23.256   2.262
14615W        W87040   0.283  34.566  12.346
14616W        W87041  12.372   7.328  11.380
14617W        W87042  29.448   0.303  10.256
14618W        W87043  11.730   2.777  12.844
14619W        W87044  39.138  13.779   2.318
14620W        W87045  28.422   0.207  11.154
14621W        W87046  23.083   4.371  12.286
14622W        W87047   1.827  34.856   2.367
14623W        W87048   9.886  15.622   4.221
14624W        W87049  34.572  32.740  12.447
14625W        W87050   1.000  21.156  11.550
14626W        W87051  43.848   6.991   0.332
14627W        W87052   9.751  23.595  11.472
14628W        W87053   6.539  13.559  12.144
14629W        W87054  10.897  25.609  13.536
14630W        W87055   5.398  38.876   3.943
14631W        W87056   6.642  41.500  13.973
14632W        W87057   6.061  29.039   0.910
14633W        W87058  16.359  15.567   4.008
14634W        W87059   7.629  21.115  10.594
14635W        W87060  24.205  18.279   5.055
14636W        W87061  36.399  30.986  12.844
14637W        W87062  43.871  40.928   0.919
14638W        W87063  43.718  11.287   1.250
14639W        W87064  10.551  36.499   2.200
14640W        W87065  16.372  43.916   1.749
14641W        W87066  15.135  38.466   1.759
14642W        W87067  44.315   9.269  14.983
14643W        W87068  36.486   5.315  11.230
14644W        W87069  12.193  21.546  10.356
14645W        W87070   9.781  27.055  13.008
14646W        W87071   7.774  38.565   3.137
14647W        W87072  35.996  22.215  12.289
14648W        W87073  38.552  16.959  12.857
14649W        W87074  15.245  16.611  14.922
14650W        W87075  39.723  44.879  10.586
14651W        W87076  43.856  34.833  10.952
14652W        W87077   6.762  17.738  10.782
14653W        W87078  27.148  14.027   2.779
14654W        W87079   1.225  25.027   4.170
14655W        W87080  21.639  42.805   1.486
14656W        W87081  39.500   1.308   4.759
14657W        W87082  11.086  29.954   3.500
14658W        W87083  43.750  14.169  13.021
14659W        W87084  38.797   9.854   4.650
14660W        W87085  15.712  21.699  11.951
14661W        W87086   0.670   2.285  13.957
14662W        W87087  12.629  10.374   4.145
14663W        W87088  42.452  25.504  10.732
14664W        W87089   2.314  13.738   3.663
14665W        W87090  18.606  33.114  11.080
14666W        W87091   0.286   5.683  11.097
14667W        W87092   2.734  43.869   1.845
14668W        W87093  10.367  18.949  11.447
14669W        W87094  16.465  36.941   2.438
14670W        W87095   8.386  44.809   1.910
14671W        W87096  15.217  39.759  11.498
14672W        W87097  34.454  26.159   0.786
14673W        W87098   5.802   2.512  13.141
14674W        W87099  41.241  33.655  14.492
14675W        W87100  12.331  44.341  10.379
14676W        W87101  43.527  29.413   0.641
14677W        W87102  13.910  29.119   1.900
14678W        W87103  36.415  15.086  11.167
14679W        W87104  32.058  18.396  11.583
14680W        W87105  23.091   5.772  11.536
14681W        W87106  44.937  17.486   3.194
14682W        W87107  24.649  31.870  14.079
14683W        W87108  30.081  41.585   1.783
14684W        W87109  24.160  29.208  10.740
14685W        W87110  24.944  28.042   4.639
14686W        W87111  13.252  28.516   4.212
14687W        W87112   9.313  38.376  12.543
14688W        W87113  15.274  16.329   1.278
14689W        W87114  12.374  10.152  13.956
14690W        W87115  25.477  44.487   3.749
14691W        W87116  37.837  25.436   3.885
14692W        W87117  23.575   7.792   0.302
14693W        W87118  26.765  29.457   3.365
14694W        W87119  36.512  20.306   1.272
14695W        W87120  16.755  35.307  14.008
14696W        W87121   3.222  26.562  11.706
14697W        W87122  36.441  40.533  13.551
14698W        W87123  16.671   8.368   0.323
14699W        W87124  20.184  44.765   2.259
14700W        W87125   0.252   5.335  14.463
14701W        W87126  38.466  18.817  11.560
14702W        W87127  28.085   8.785   0.146
14703W        W87128  25.804  14.235   2.331
14704W        W87129   9.232  43.478   2.187
14705W        W87130  18.532  26.643  10.785
14706W        W87131   8.979  43.464   2.650
14707W        W87132  30.929   7.081  13.596
14708W        W87133  22.855  17.768  13.260
14709W        W87134  28.215  26.656   1.027
14710W        W87135  15.622  35.007   3.108
14711W        W87136  28.686  44.740   2.406
14712W        W87137  23.617   8.693  13.010
14713W        W87138  26.761  15.771  12.677
14714W        W87139  10.992  40.999   3.107
14715W        W87140  13.897  18.282   3.271
14716W        W87141  15.650   6.436   2.377
14717W        W87142  20.301   6.495   0.337
14718W        W87143  11.747  11.325  12.113
14719W        W87144   3.226  17.081   1.288
14720W        W87145  40.852  29.147   1.549
14721W        W87146  33.095  19.207  13.897
14722W        W87147  25.189  34.167  13.363
14723W        W87148  28.687  37.140  14.373
14724W        W87149  22.574   7.413  11.975
14725W        W87150   2.294  13.643   2.799
14726W        W87151  24.120  18.079   4.591
14727W        W87152  31.808  33.854  13.416
14728W        W87153   7.499   1.926  11.089
14729W        W87154  37.126  25.321   3.936
14730W        W87155  13.575  32.822   3.749
14731W        W87156  14.877  20.325  13.300
14732W        W87157  20.576  36.348   0.411
14733W        W87158  30.621   6.118  12.173
14734W        W87159  41.934  21.655  10.680
14735W        W87160  39.363  13.019   3.406
14736W        W87161  25.251  42.958   3.508
14737W        W87162   7.944  11.867  14.298
14738W        W87163  31.173  29.673  12.491
14739W        W87164   9.305  10.685  14.371
14740W        W87165  23.007  43.706  13.826
14741W        W87166  36.137  12.734  10.695
14742W        W87167  15.819  34.209   2.481
14743W        W87168  23.794  31.461  13.757
14744W        W87169   7.812   4.216   3.704
14745W        W87170   9.332  19.854  10.633
14746W        W87171  26.108  13.067  14.935
14747W        W87172  11.630  20.105   3.323
14748W        W87173   1.824  38.588   2.770
14749W        W87174  37.567  12.329  10.710
14750W        W87175  24.424   7.742  13.039
14751W        W87176  27.038   2.400  13.530
14752W        W87177  16.231   7.168   0.800
14753W        W87178   9.227  25.016  13.509
14754W        W87179  21.112  14.442  12.024
14755W        W87180  14.888  24.146   9.998
14756W        W87181  11.085  33.163   3.656
14757W        W87182  10.624   3.541   0.472
14758W        W87183  41.330  27.633  13.073
14759W        W87184   5.863   6.262  13.938
14760W        W87185  23.141  23.535  11.411
14761W        W87186   7.407   9.593  14.259
14762W        W87187   1.061  42.328  14.315
14763W        W87188  23.611  37.008   1.034
14764W        W87189  38.447  26.770  11.560
14765W        W87190  42.827  13.679  10.792
14766W        W87191  32.920  37.883   1.175
14767W        W87192  27.485  10.851  12.372
14768W        W87193   0.284   4.554  13.362
14769W        W87194  33.962  12.059   2.717
14770W        W87195  43.469  35.068  10.706
14771W        W87196   4.461  15.883   3.295
14772W        W87197  18.153   0.224   0.805
14773W        W87198   0.150  11.637   3.685
14774W        W87199  37.533  39.357  12.118
14775W        W87200  30.576  21.244   2.132
14776W        W87201  43.920   2.108   4.197
14777W        W87202  41.238  16.211  10.690
14778W        W87203  34.066  34.309   1.661
14779W        W87204  18.078  33.688   4.274
14780W        W87205   1.365  16.060   2.781
14781W        W87206  10.707  25.367  12.478
14782W        W87207  32.885  10.163  14.915
14783W        W87208  13.802   5.378   3.703
14784W        W87209   9.178  21.078   1.175
14785W        W87210  39.946   5.565   3.120
14786W        W87211  26.586  29.657  11.545
14787W        W87212  10.476  32.051  13.347
14788W        W87213  22.208  36.018  14.386
14789W        W87214  34.023  32.810  14.048
14790W        W87215  11.383  28.167  11.204
14791W        W87216  10.123  37.543   2.820
14792W        W87217  25.837  38.216  11.151
14793W        W87218  12.499  22.863   0.275
14794W        W87219  11.583  26.705   9.876
14795W        W87220  16.597  43.443   0.971
14796W        W87221  16.040  15.073  13.940
14797W        W87222  17.802  12.760  13.963
14798W        W87223   1.790   6.629  12.576
14799W        W87224  22.125   4.742   3.699
14800W        W87225  15.191   9.700   1.922
14801W        W87226  20.861  16.892   3.257
14802W        W87227  34.094  15.720  14.795
14803W        W87228  29.629   7.893   3.915
14804W        W87229  24.527   9.125   2.311
14805W        W87230  16.189   0.833  11.849
14806W        W87231   4.882  10.352  12.675
14807W        W87232   1.513  17.568  11.178
14808W        W87233  43.512  32.839  11.795
14809W        W87234  14.922  22.155   0.685
14810W        W87235  37.555  13.146  12.034
14811W        W87236  16.608  39.756  11.583
14812W        W87237   8.721  18.684  10.768
14813W        W87238  44.833   0.784   4.789
14814W        W87239  13.828  21.293   0.868
14815W        W87240  44.969  27.501  13.518
14816W        W87241  28.023   5.765  13.841
14817W        W87242  10.347  22.086  13.110
14818W        W87243  20.660   4.338  14.881
14819W        W87244  22.962  42.972   3.272
14820W        W87245  20.239   3.901  14.814
14821W        W87246  37.293  36.975  11.949
14822W        W87247  37.908  31.929   1.916
14823W        W87248   8.171  18.303   3.705
14824W        W87249  21.244  12.375   4.088
14825W        W87250  35.469  31.519   2.847
14826W        W87251  25.446  25.469  11.066
14827W        W87252  13.105  18.159  11.135
14828W        W87253  15.671   4.200  11.163
14829W        W87254   7.840  19.574   0.427
14830W        W87255   1.053  11.580  10.232
14831W        W87256  22.459  17.110   1.136
14832W        W87257  11.451  23.738  10.049
14833W        W87258  17.009  11.647   3.660
14834W        W87259   9.369  19.552   0.223
14835W        W87260  42.890   1.017   2.793
14836W        W87261   9.831  24.515  11.957
14837W        W87262  35.931  17.618  12.953
14838W        W87263  34.315   6.673   2.339
14839W        W87264  26.644  28.470   1.257
14840W        W87265  21.532  39.583   0.926
14841W        W87266  25.074  39.663   2.861
14842W        W87267  32.356  16.741  14.304
14843W        W87268   2.069  19.790  14.836
14844W        W87269   6.818  36.779  10.672
14845W        W87270   8.186  41.144   2.775
14846W        W87271  12.692   0.435   0.245
14847W        W87272  43.998  17.799  12.046
14848W        W87273  43.495  40.784  14.909
14849W        W87274  37.500  27.835   4.526
14850W        W87275  10.819  30.398   3.378
14851W        W87276  40.373  40.976  14.477
14852W        W87277  35.932  28.265   4.902
14853W        W87278  24.111  24.541   0.901
14854W        W87279  18.281  32.816   4.608
14855W        W87280  11.770  26.445  12.473
14856W        W87281   2.864  37.359  11.666
14857W        W87282  11.242  37.474   4.714
14858W        W87283  11.170   0.464   1.806
14859W        W87284  41.600  27.986   3.131
14860W        W87285  20.761  37.310  10.854
14861W        W87286   1.008   8.208  10.863
14862W        W87287   3.909  20.071   1.753
14863W        W87288  14.830  18.033  13.637
14864W        W87289  41.788  18.133   9.683
14865W        W87290  11.558   0.390   3.296
14866W        W87291  43.739  37.279   3.668
14867W        W87292  31.924  37.568  14.788
14868W        W87293  31.496  21.583   3.106
14869W        W87294  23.418  13.828  14.333
14870W        W87295  38.100  20.426  12.183
14871W        W87296  15.725  44.522  12.095
14872W        W87297  17.062  26.954  12.461
14873W        W87298  37.376  23.479   1.965
14874W        W87299  13.173   5.393   4.699
14875W        W87300   4.421  40.171   3.746
14876W        W87301  23.497  16.220  14.337
14877W        W87302  16.652  13.696   2.443
14878W        W87303  39.616  44.456  12.187
14879W        W87304   7.933  25.134  10.400
14880W        W87305   3.182   3.127  11.088
14881W        W87306   1.404  21.261   2.722
14882W        W87307  14.664  25.425   2.792
14883W        W87308  12.971  32.402  12.836
14884W        W87309  31.077   2.850   3.132
14885W        W87310   4.837  27.197   0.755
14886W        W87311  38.021  22.888   4.549
14887W        W87312  12.523  28.694   1.009
14888W        W87313  31.169   2.168  12.945
14889W        W87314  11.400  13.587   0.367
14890W        W87315  21.203  36.464  12.146
14891W        W87316  38.313  15.099   1.374
14892W        W87317  27.204  25.620  11.540
14893W        W87318  44.835  35.895   0.785
14894W        W87319  31.173  22.308  14.577
14895W        W87320  39.946  17.334   2.951
14896W        W87321  23.492  15.314  11.605
14897W        W87322   7.483  42.998  14.968
14898W        W87323  19.843  41.025   0.205
14899W        W87324  19.653   0.032   4.547
14900W        W87325   2.487  36.048   1.243
14901W        W87326  13.603  15.185  13.918
14902W        W87327  37.760  18.609  12.973
14903W        W87328   0.949  33.621   0.780
14904W        W87329  38.867  28.626  12.059
14905W        W87330  20.903   7.575   3.145
14906W        W87331  40.393  38.235   4.330
14907W        W87332  38.949  38.104  14.577
14908W        W87333  43.396  26.274  14.249
14909W        W87334   9.906  23.123   0.433
14910W        W87335  43.301  30.558  10.776
14911W        W87336  38.666  21.641  10.665
14912W        W87337   5.466  10.487   1.615
14913W        W87338  41.790  40.490   1.876
14914W        W87339  23.836   9.835   2.631
14915W        W87340  34.830  12.566   3.610
14916W        W87341  23.133  31.353  14.441
14917W        W87342   4.284  27.571  14.046
14918W        W87343   9.555  31.705  12.492
14919W        W87344   4.774  35.484   3.640
14920W        W87345  15.298   2.205  13.389
14921W        W87346  35.072  11.421   1.842
14922W        W87347  41.801  42.466   0.350
14923W        W87348   4.842   0.741  12.547
14924W        W87349  32.436   2.317  11.904
14925W        W87350   9.913  12.606   1.925
14926W        W87351  20.935   2.996   0.584
14927W        W87352  32.161  25.960  13.622
14928W        W87353  23.022  20.859   0.903
14929W        W87354   9.884  38.203   1.386
14930W        W87355  18.720  26.095   4.401
14931W        W87356  26.128   1.841   4.060
14932W        W87357  35.366   1.467  13.406
14933W        W87358  15.777  18.639  11.982
14934W        W87359  17.110  23.971  13.879
14935W        W87360  39.756   9.908  10.625
14936W        W87361  21.233  26.432  12.809
14937W        W87362  10.962  27.984  12.568
14938W        W87363  21.068   5.374  11.574
14939W        W87364   3.482   2.788  10.391
14940W        W87365   7.914  38.469  13.368
14941W        W87366  14.906  33.597   2.607
14942W        W87367  23.445   1.418  13.153
14943W        W87368  28.241  16.083  13.965
14944W        W87369  22.437  31.412   0.945
14945W        W87370  42.788  18.688  14.002
14946W        W87371  22.736  25.880  11.736
14947W        W87372   0.736   3.363  13.084
14948W        W87373  26.750  26.922  12.011
14949W        W87374  20.770  27.529  14.402
14950W        W87375   5.268  22.088  13.266
14951W        W87376  39.840  35.674  11.130
14952W        W87377  35.596   1.198   4.066
14953W        W87378  32.405  33.449   1.467
14954W        W87379  39.829  18.832   3.176
14955W        W87380   6.303  41.909  12.035
14956W        W87381  43.989  42.074  14.869
14957W        W87382  41.340  26.520   1.342
14958W        W87383   6.094  42.292   1.687
14959W        W87384   4.028  41.850   1.399
14960W        W87385  37.244   5.325   4.577
14961W        W87386  24.371  30.852   0.440
14962W        W87387  13.503   1.301  11.651
14963W        W87388   6.217   8.977  11.858
14964W        W87389   6.309  38.778   3.593
14965W        W87390  16.020  36.035   4.285
14966W        W87391  12.083  13.631   3.288
14967W        W87392   8.353  43.885  11.313
14968W        W87393  30.931  23.672   1.430
14969W        W87394  11.616   7.727   1.829
14970W        W87395  11.245  19.289   0.694
14971W        W87396  15.126  10.623   4.309
14972W        W87397  41.962  34.200  11.066
14973W        W87398  14.697  19.201   1.397
14974W        W87399  38.915  38.376   0.085
14975W        W87400   1.444  19.196   3.435
14976W        W87401  16.041   2.287  12.845
14977W        W87402   8.664   3.722  10.556
14978W        W87403  12.423  19.193   2.237
14979W        W87404   4.266   2.707   1.725
14980W        W87405  20.999  16.128   2.206
14981W        W87406  24.754  44.974  14.019
14982W        W87407  11.855  19.217   2.336
14983W        W87408  14.642  24.431   2.651
14984W        W87409   5.388  42.712  14.949
14985W        W87410  15.736  23.139   0.666
14986W        W87411  41.912  37.927  11.536
14987W        W87412   3.272  27.046   5.047
14988W        W87413  21.937  14.505  12.521
14989W        W87414  37.768  20.173  12.538
14990W        W87415  13.090   5.689  14.720
14991W        W87416  19.258  29.610  15.000
14992W        W87417  18.502  22.736   0.690
14993W        W87418   1.010  23.439  13.498
14994W        W87419  41.907  30.469   3.169
14995W        W87420  27.019  38.981  14.510
14996W        W87421  33.936   5.906  13.559
14997W        W87422  15.937  39.515  14.810
14998W        W87423  12.744  38.594  11.202
14999W        W87424   2.266  33.833  12.208
15000W        W87425   9.425  43.898  13.212
15001W        W87426  38.373  27.717  14.890
15002W        W87427  19.272  12.393   1.811
15003W        W87428  34.449   7.000   3.764
15004W        W87429  33.174  10.167  11.381
15005W        W87430  19.171  21.269  11.593
15006W        W87431   5.166  11.353  10.551
15007W        W87432  38.008  37.366   1.483
15008W        W87433  31.587  37.742   1.790
15009W        W87434  33.885  33.596  14.931
15010W        W87435  31.382  21.677   4.607
15011W        W87436   0.918  20.796  12.130
15012W        W87437  36.013  34.873   3.616
15013W        W87438   3.277  44.799   3.606
15014W        W87439  38.406  15.113   1.882
15015W        W87440   9.987  34.532   3.612
15016W        W87441  41.696  24.092  13.841
15017W        W87442   6.159  23.330  14.948
15018W        W87443   6.194  38.005   0.491
15019W        W87444  10.901  14.690  13.451
15020W        W87445  18.027   0.740  11.012
15021W        W87446  33.660  40.286   3.320
15022W        W87447  16.587   8.774  11.980
15023W        W87448  29.352  15.347   2.356
15024W        W87449  26.120   1.250  14.011
15025W        W87450  19.835  40.959  11.684
15026W        W87451  27.815   6.876  12.660
15027W        W87452  17.102  12.186   2.849
15028W        W87453  41.405  40.899  11.387
15029W        W87454  18.064   3.675  11.961
15030W        W87455  26.102  30.396  12.599
15031W        W87456  15.592  14.213   1.255
15032W        W87457  14.185  19.701  14.327
15033W        W87458  14.305  41.857   5.213
15034W        W87459  43.051  17.685   1.751
15035W        W87460  12.896   4.226  12.844
15036W        W87461  34.124  25.441  13.794
15037W        W87462  13.115  29.003  14.720
15038W        W87463  11.995  39.312  13.277
15039W        W87464  12.350  27.680  12.566
15040W        W87465  39.261  10.453  13.152
15041W        W87466   9.770  35.516   0.420
15042W        W87467  16.025  24.087   2.660
15043W        W87468  16.013   7.178   1.745
15044W        W87469  39.631  44.542   9.755
15045W        W87470  16.336  40.264   0.424
15046W        W87471  36.858  14.145  14.441
15047W        W87472  38.311  25.528  14.195
15048W        W87473  36.529  43.390  13.308
15049W        W87474  24.142  39.676  10.643
15050W        W87475  36.198   2.829   4.631
15051W        W87476   9.723   4.780   0.113
15052W        W87477   5.485  21.940   4.731
15053W        W87478  18.662   7.298   0.727
15054W        W87479  25.507  13.670  13.940
15055W        W87480   4.244  37.064   2.722
15056W        W87481  40.719  44.935   5.057
15057W        W87482  36.479  39.648   4.486
15058W        W87483  44.242  24.415   2.205
15059W        W87484   5.159  27.641  12.586
15060W        W87485  17.840  38.543  11.671
15061W        W87486  22.767  29.991  14.271
15062W        W87487  32.482  19.188   3.692
15063W        W87488  41.035  25.019   0.160
15064W        W87489  33.998  43.341  10.891
15065W        W87490  31.607   6.629  10.700
15066W        W87491  30.131   8.185  10.872
15067W        W87492   0.910   9.740  10.470
15068W        W87493  40.991  42.979   3.629
15069W        W87494  21.045  20.021   2.888
15070W        W87495  10.362  14.379   1.451
15071W        W87496  31.905  34.883   1.812
15072W        W87497  41.303  25.740   4.775
15073W        W87498  36.302  43.633  14.582
15074W        W87499   9.732  43.781  10.897
15075W        W87500  10.827  44.803  12.777
15076W        W87501  42.414  17.646  13.439
15077W        W87502  35.365  35.976   4.618
15078W        W87503  41.898  23.447   4.788
15079W        W87504   4.321   0.392   0.287
15080W        W87505   6.808  40.802   4.417
15081W        W87506  24.468  22.036   3.375
15082W        W87507  38.906  32.111   2.936
15083W        W87508  12.773  35.968  14.449
15084W        W87509  27.720   2.099   0.717
15085W        W87510  28.131  21.350   1.033
15086W        W87511   1.415  23.211   3.677
15087W        W87512   4.266  27.171   0.402
15088W        W87513  23.121  38.789  14.374
15089W        W87514   6.561  36.542   2.961
15090W        W87515   5.343   7.145   3.628
15091W        W87516  17.222  17.601   1.299
15092W        W87517   2.165  42.014  13.849
15093W        W87518  14.842  41.817   4.433
15094W        W87519  43.586  34.486   4.518
15095W        W87520   0.346  12.146   3.636
15096W        W87521  28.032  12.668  13.712
15097W        W87522  17.393  39.557  12.880
15098W        W87523  11.343   1.285  13.649
15099W        W87524  33.143  34.825   0.384
15100W        W87525   6.410   1.947   2.085
15101W        W87526   3.323  12.364   1.894
15102W        W87527  31.937  17.383   0.000
15103W        W87528  36.567  40.874  11.200
15104W        W87529  33.050   9.361   2.427
15105W        W87530  32.860  28.935  12.201
15106W        W87531  12.583   8.382  14.777
15107W        W87532  30.972  37.942   3.712
15108W        W87533  30.554  37.831   1.652
15109W        W87534  22.175  28.932   1.873
15110W        W87535   6.137  28.983  13.732
15111W        W87536  32.670   2.463   1.321
15112W        W87537  11.164  38.771   3.154
15113W        W87538  25.975  29.165  11.991
15114W        W87539  18.221  18.164  14.072
15115W        W87540   5.364  36.401  11.346
15116W        W87541  14.800  37.285   2.239
15117W        W87542  44.231  38.919   1.886
15118W        W87543  11.742  11.773  13.356
15119W        W87544  32.316  18.242  14.428
15120W        W87545  42.974  27.965   4.104
15121W        W87546  23.230   6.908   0.798
15122W        W87547  17.585  36.150   2.798
15123W        W87548   0.298  14.392   1.810
15124W        W87549   4.936  10.521  13.237
15125W        W87550  17.640  34.106   2.592
15126W        W87551  37.483  20.166   5.013
15127W        W87552   8.936  13.076   2.799
15128W        W87553  41.052  27.004  13.635
15129W        W87554  17.174  17.044   2.636
15130W        W87555  26.749  20.955   1.352
15131W        W87556  19.681  22.477  10.870
15132W        W87557  17.608   3.934  13.557
15133W        W87558  11.903  16.729  12.356
15134W        W87559  16.786   8.416  14.227
15135W        W87560  17.623  43.316  12.589
15136W        W87561  36.915  23.539  12.105
15137W        W87562   9.222   8.749  10.229
15138W        W87563  12.717  36.563  12.317
15139W        W87564  14.757  34.147   0.029
15140W        W87565  24.141  32.648   4.458
15141W        W87566  30.133   0.521   1.804
15142W        W87567   0.196   7.758  13.934
15143W        W87568  39.999  37.139  11.494
15144W        W87569  40.589  30.970   0.428
15145W        W87570  36.341  22.097   0.291
15146W        W87571  43.277  21.040   0.217
15147W        W87572  24.366   2.314   2.743
15148W        W87573  22.528  37.398  14.964
15149W        W87574  43.938  32.625  11.583
15150W        W87575  10.625  21.248   3.662
15151W        W87576  14.353  12.336   0.359
15152W        W87577   0.014  35.373  10.764
15153W        W87578  41.781  14.200  14.794
15154W        W87579  14.062  33.512  13.742
15155W        W87580  26.646  14.685   0.320
15156W        W87581   9.949   6.217   5.519
15157W        W87582  19.175   9.481   0.798
15158W        W87583  16.142  19.533  14.838
15159W        W87584  39.181  33.878   4.594
15160W        W87585  26.583  40.782  14.384
15161W        W87586  20.998  32.139   1.699
15162W        W87587  20.509  44.309  13.469
15163W        W87588  36.576  29.989   0.329
15164W        W87589  17.619  34.191  14.828
15165W        W87590  17.032  14.733  14.916
15166W        W87591  12.782  34.619   1.743
15167W        W87592  40.980  33.056  11.237
15168W        W87593   5.163   3.899  11.599
15169W        W87594  30.437  41.780   1.421
15170W        W87595  32.963   8.676   4.160
15171W        W87596  42.458  14.653  13.391
15172W        W87597   7.961   4.680   4.352
15173W        W87598  24.448  38.913   1.054
15174W        W87599   3.172   3.633   3.894
15175W        W87600  10.429  16.478  12.529
15176W        W87601  34.345  23.289  11.560
15177W        W87602  42.364  36.380   1.325
15178W        W87603  42.249  16.336  10.679
15179W        W87604  15.677   4.735   2.952
15180W        W87605   4.799  26.240  11.409
15181W        W87606  10.786  44.268   3.633
15182W        W87607   0.815  20.592  14.988
15183W        W87608  33.331   6.716  14.989
15184W        W87609  43.279  22.112  10.492
15185W        W87610  17.293  37.574   4.072
15186W        W87611   3.110  20.325  12.551
15187W        W87612  11.960  41.537  13.610
15188W        W87613  42.979   1.487  12.463
15189W        W87614  27.455  34.320  13.535
15190W        W87615   7.400  24.212  14.303
15191W        W87616   9.845  33.081  14.385
15192W        W87617  23.197  37.395   1.833
15193W        W87618   5.742  40.398   1.852
15194W        W87619  24.269  32.406  10.525
15195W        W87620  35.001  27.228   0.227
15196W        W87621  19.997  33.312  14.839
15197W        W87622  20.496  10.348  12.022
15198W        W87623  37.606  31.559   2.173
15199W        W87624  19.774  25.031  13.412
15200W        W87625   4.918   7.199  12.907
15201W        W87626   3.162  44.976  12.611
15202W        W87627  28.863   2.200   3.191
15203W        W87628  14.118  39.726  13.548
15204W        W87629  14.425  26.953  14.004
15205W        W87630   8.133  29.849  11.907
15206W        W87631  15.683  33.493  14.968
15207W        W87632  21.994  26.248  11.117
15208W        W87633   3.002  28.122   0.696
15209W        W87634  31.120  22.957  12.020
15210W        W87635  19.060  37.491   4.779
15211W        W87636  25.271  34.660  13.311
15212W        W87637  15.303  10.595  13.324
15213W        W87638  42.371  37.902  12.485
15214W        W87639  10.345   1.468   3.353
15215W        W87640  42.434  33.219  11.983
15216W        W87641  42.778  34.579  14.030
15217W        W87642   3.781  39.567  13.370
15218W        W87643  44.378  27.518  14.995
15219W        W87644  21.470   8.299  13.485
15220W        W87645  42.817  35.498   4.613
15221W        W87646  27.152  34.751   0.386
15222W        W87647  13.800  22.067   5.833
15223W        W87648  19.470  42.614  12.946
15224W        W87649  33.606   0.930  14.497
15225W        W87650  40.273  27.505  10.722
15226W        W87651   9.137   5.127  10.720
15227W        W87652  24.086  19.135   3.974
15228W        W87653   6.209  39.735   0.136
15229W        W87654   4.461  17.490   2.235
15230W        W87655  20.732  41.909   1.144
15231W        W87656   6.894  16.228   1.918
15232W        W87657   2.740  33.504   3.303
15233W        W87658   9.660   2.213  12.582
15234W        W87659  21.667  20.068   0.923
15235W        W87660   9.318  22.418  11.897
15236W        W87661  30.909  44.009  14.820
15237W        W87662  25.426  28.588   2.056
15238W        W87663  15.835  37.994   4.529
15239W        W87664  35.920  42.256  13.529
15240W        W87665   0.910   1.272   0.067
15241W        W87666   0.281  39.079   1.085
15242W        W87667  42.393   3.521   3.788
15243W        W87668  24.366  18.119  11.399
15244W        W87669  40.048  44.472   0.379
15245W        W87670  18.508   8.410  11.999
15246W        W87671  19.973  20.138  12.466
15247W        W87672  21.217  37.910  13.864
15248W        W87673  21.631  17.183   2.342
15249W        W87674  20.806  23.639   4.049
15250W        W87675  11.830  10.609  12.544
15251W        W87676   7.326  40.035   3.933
15252W        W87677  19.892  39.910   3.561
15253W        W87678  14.150  38.753  12.077
15254W        W87679  43.332  43.261   2.211
15255W        W87680  32.398  41.452  12.631
15256W        W87681  39.801  20.564   1.337
15257W        W87682  39.301  38.617  11.065
15258W        W87683   2.858   5.678  12.368
15259W        W87684   3.431  43.330   2.339
15260W        W87685  25.494   1.968   1.663
15261W        W87686  20.085  35.439   3.796
15262W        W87687  21.741  39.104  14.525
15263W        W87688  13.398  37.605   0.855
15264W        W87689  10.650  32.894   2.947
15265W        W87690   7.427  20.374   1.843
15266W        W87691  28.474  27.525   3.667
15267W        W87692  12.189  35.876  10.640
15268W        W87693  31.919  13.364   0.447
15269W        W87694  21.006  23.638   2.185
15270W        W87695  26.032   5.906   3.335
15271W        W87696  36.619  18.263  11.017
15272W        W87697  15.618  36.975  14.320
15273W        W87698  10.391  25.915  13.914
15274W        W87699  20.052  25.045  10.867
15275W        W87700  12.697   5.893   0.028
15276W        W87701  15.115  35.591   0.736
15277W        W87702  19.180   7.336   2.884
15278W        W87703  27.218  13.949   4.243
15279W        W87704  31.465  31.053  12.121
15280W        W87705  10.035  18.153   4.261
15281W        W87706  23.881  25.393  13.980
15282W        W87707  37.363  43.411  12.477
15283W        W87708  44.805  28.026   1.323
15284W        W87709  29.826   1.761   2.249
15285W        W87710   9.484  43.994  14.537
15286W        W87711  42.064  40.347  14.411
15287W        W87712  21.553  30.617   0.326
15288W        W87713  15.314  23.364  14.964
15289W        W87714  27.095   1.491  12.402
15290W        W87715  11.137  40.471  11.539
15291W        W87716  11.200  24.214   2.661
15292W        W87717  43.011   8.893   4.127
15293W        W87718  42.039   0.703   1.281
15294W        W87719  28.146  19.301  14.553
15295W        W87720  19.165  21.452  12.547
15296W        W87721  19.439  20.525  10.946
15297W        W87722  23.509  23.692  14.903
15298W        W87723  35.595  35.089   0.365
15299W        W87724  15.475  32.609  12.798
15300W        W87725  38.081  25.678   1.326
15301W        W87726  38.223  16.071  11.494
15302W        W87727  28.633  31.525  14.780
15303W        W87728   6.233  43.489  12.037
15304W        W87729   0.341  39.518   4.474
15305W        W87730  32.047  11.094  13.381
15306W        W87731   5.387  31.139  14.930
15307W        W87732  13.128  40.320  11.213
15308W        W87733   9.152   5.383  13.830
15309W        W87734   2.713  22.122   3.358
15310W        W87735  44.688  20.225   0.641
15311W        W87736  44.222  36.658  13.870
15312W        W87737  16.335   7.094  14.405
15313W        W87738  13.348  14.669  11.958
15314W        W87739  30.250  37.833  13.292
15315W        W87740   8.241  22.471  10.544
15316W        W87741  10.247  20.584  10.208
15317W        W87742  29.668   2.674   3.271
15318W        W87743  37.082  14.370   0.820
15319W        W87744  15.692  41.301  12.905
15320W        W87745   8.191   2.292  10.673
15321W        W87746  23.726  40.415  10.543
15322W        W87747  30.192  35.458   2.359
15323W        W87748  44.564  22.138  11.172
15324W        W87749  11.621   1.376  11.554
15325W        W87750  17.323  44.530  11.499
15326W        W87751   4.921  35.746   2.262
15327W        W87752   7.282  41.018   2.757
15328W        W87753  41.278  40.951  11.878
15329W        W87754  17.676  42.033  10.739
15330W        W87755   9.776  24.215  13.256
15331W        W87756   2.814  23.181  11.532
15332W        W87757  42.643  16.471  12.177
15333W        W87758  40.745   0.195  13.313
15334W        W87759  34.996   1.911   0.751
15335W        W87760  32.932   8.220  12.522
15336W        W87761  17.758  34.007   4.540
15337W        W87762  35.419  22.038   3.922
15338W        W87763  20.508   6.705  14.828
15339W        W87764  11.589  33.293   1.656
15340W        W87765  27.052  33.846   2.644
15341W        W87766  31.266  19.208   5.145
15342W        W87767  44.827  23.991  13.476
15343W        W87768  34.463  19.255   1.688
15344W        W87769   3.150  26.074   3.676
15345W        W87770  19.591  28.912  11.135
15346W        W87771  10.919  40.054   2.263
15347W        W87772  29.342   1.954  13.367
15348W        W87773  43.363  43.989   2.851
15349W        W87774   7.999   9.746  14.350
15350W        W87775  44.534  15.469  10.114
15351W        W87776   9.713   8.854   1.125
15352W        W87777  10.805  43.061  12.032
15353W        W87778   1.559  18.755   2.139
15354W        W87779  43.383  23.088  12.985
15355W        W87780  11.754  30.585  11.166
15356W        W87781   2.700  37.400  10.773
15357W        W87782  32.180  21.975  13.676
15358W        W87783  41.878  42.800  11.607
15359W        W87784  32.430  37.595   2.196
15360W        W87785  34.478   8.494   4.666
15361W        W87786  33.912   4.448  11.598
15362W        W87787  36.348  10.914   2.896
15363W        W87788   2.344  33.845  14.963
15364W        W87789  35.023  25.427   1.156
15365W        W87790   4.984  37.959  14.813
15366W        W87791  18.422   2.957   3.774
15367W        W87792   2.334  33.041   1.130
15368W        W87793  40.076  36.599  11.456
15369W        W87794  13.845   1.931  14.267
15370W        W87795  20.078  29.713   1.278
15371W        W87796  25.190   1.181   1.600
15372W        W87797  21.978  18.648   0.542
15373W        W87798  24.620  43.041  14.478
15374W        W87799  29.239   9.846   3.835
15375W        W87800  11.260  32.301  12.824
15376W        W87801  34.524   9.243  14.241
15377W        W87802  22.637   6.051  11.424
15378W        W87803  11.143   5.215  12.490
15379W        W87804  12.148   6.701  10.573
15380W        W87805  20.717  15.804  11.146
15381W        W87806  33.838  40.996   4.904
15382W        W87807  14.862  18.617  13.313
15383W        W87808   4.004  38.670   2.165
15384W        W87809  39.914   5.715  13.273
15385W        W87810  28.041  42.845  10.684
15386W        W87811   2.506  21.138   1.430
15387W        W87812  41.470  14.585   1.429
15388W        W87813   2.915  31.460   1.260
15389W        W87814  43.695  35.936   3.990
15390W        W87815  44.716   6.347  11.657
15391W        W87816  29.691  22.563  11.166
15392W        W87817  29.114  22.494   2.581
15393W        W87818  17.523  11.477  11.132
15394W        W87819  12.845  43.862   3.131
15395W        W87820  14.264  22.093  10.727
15396W        W87821  19.879  41.720  14.046
15397W        W87822  12.626  42.778   3.324
15398W        W87823  11.745   9.634   4.542
15399W        W87824   2.429  31.628  12.528
15400W        W87825  42.087  43.130   4.597
15401W        W87826  41.941   9.879   1.180
15402W        W87827   7.421  28.782   2.882
15403W        W87828   5.131  28.489  10.849
15404W        W87829  33.404  41.943   0.075
15405W        W87830  41.433  43.883   0.855
15406W        W87831  20.477  30.665   3.233
15407W        W87832  16.229   0.824  10.949
15408W        W87833  38.318  16.801   3.689
15409W        W87834   4.864  16.079   1.908
15410W        W87835  37.479   0.554   1.368
15411W        W87836  17.081  29.463  12.157
15412W        W87837  13.666  19.019  13.902
15413W        W87838  22.507   8.842  10.139
15414W        W87839  26.651  37.908   3.684
15415W        W87840  34.607  14.672   3.562
15416W        W87841  22.795  13.593   0.962
15417W        W87842  10.037  43.577   2.720
15418W        W87843  42.226  21.750   0.212
15419W        W87844   1.328  36.939   4.115
15420W        W87845  38.833   7.294  11.865
15421W        W87846  41.750  10.343   1.315
15422W        W87847  14.628  22.230  12.826
15423W        W87848  29.549   0.895  14.852
15424W        W87849  16.066   7.159  12.137
15425W        W87850  38.293  34.495   3.738
15426W        W87851  29.125  40.061   3.307
15427W        W87852  36.923  31.493   4.699
15428W        W87853  29.850   9.222  14.784
15429W        W87854   0.738  16.251  11.881
15430W        W87855  44.280   4.229   1.858
15431W        W87856  21.011   8.419   0.789
15432W        W87857   0.221  34.152  12.616
15433W        W87858  29.576   1.913  10.347
15434W        W87859  23.495   5.529  12.945
15435W        W87860  20.488   8.840  13.735
15436W        W87861  21.970  10.183  14.830
15437W        W87862  40.786   2.422   3.228
15438W        W87863  33.673   5.658   4.954
15439W        W87864  34.082  36.349   0.767
15440W        W87865  19.347  21.394   4.909
15441W        W87866  18.662  22.664  11.651
15442W        W87867  30.131   5.227   1.228
15443W        W87868  34.635   8.201  13.296
15444W        W87869  43.916   2.052  11.211
15445W        W87870   8.380  39.531  13.581
15446W        W87871  30.508  43.893  11.620
15447W        W87872  13.136  42.259  13.990
15448W        W87873  13.936  44.799  11.232
15449W        W87874   9.931  22.275  14.952
15450W        W87875  28.907  15.362  11.599
15451W        W87876  40.313   7.320   1.784
15452W        W87877  35.484   9.219   3.518
15453W        W87878  12.270  21.266   3.557
15454W        W87879  22.009  40.946  14.493
15455W        W87880  36.868  10.479   4.814
15456W        W87881   2.561  24.538   3.843
15457W        W87882  39.627  14.737   3.700
15458W        W87883  40.755  14.738   2.240
15459W        W87884  26.921  30.813   3.835
15460W        W87885  23.713  37.385   1.372
15461W        W87886  16.161  42.288  11.634
15462W        W87887  10.140  27.701   2.283
15463W        W87888   2.944  27.255   2.865
15464W        W87889  27.580   7.353   3.501
15465W        W87890  17.263  25.675   1.874
15466W        W87891  36.333  29.187   2.283
15467W        W87892  15.617  39.323   0.382
15468W        W87893  13.830   4.856   3.698
15469W        W87894  12.914  27.945  11.209
15470W        W87895  37.848  37.381  12.446
15471W        W87896   2.526   4.870  12.999
15472W        W87897  39.358   3.436   3.194
15473W        W87898  12.762   5.953  13.583
15474W        W87899  32.364  35.056  10.181
15475W        W87900  39.273   9.591   3.122
15476W        W87901  39.781   5.825   1.762
15477W        W87902  42.795  16.633  11.713
15478W        W87903   4.117   9.687   2.320
15479W        W87904  31.709  23.549   3.143
15480W        W87905  21.713   4.499   0.984
15481W        W87906  29.874   5.266  12.586
15482W        W87907   8.775  21.095   2.908
15483W        W87908  27.012  20.605  10.803
15484W        W87909  23.162  20.488  10.972
15485W        W87910  11.781  39.654   3.235
15486W        W87911  30.843  21.705  11.398
15487W        W87912  41.519  38.414   0.666
15488W        W87913  13.056  44.629   3.794
15489W        W87914  12.590  22.302   3.296
15490W        W87915  25.647  35.544  11.110
15491W        W87916  44.319   7.122   1.767
15492W        W87917   7.345  35.219  14.939
15493W        W87918  44.904  20.103  13.074
15494W        W87919  39.660  39.641   2.857
15495W        W87920  37.729   4.200   3.623
15496W        W87921  22.555  15.747  11.522
15497W        W87922  28.643  29.176   4.093
15498W        W87923  44.317  18.841   5.043
15499W        W87924  37.589   2.932   1.769
15500W        W87925  31.536   9.855   2.829
15501W        W87926  23.896  39.959   3.685
15502W        W87927  19.335  38.558  12.969
15503W        W87928   0.946  25.332  11.528
15504W        W87929  14.006  21.970   3.625
15505W        W87930  43.106  30.962   0.848
15506W        W87931  26.953  33.767  11.966
15507W        W87932   3.960  34.412  10.591
15508W        W87933  43.126  24.474  10.750
15509W        W87934  23.626  37.827   4.539
15510W        W87935  42.813  11.846   4.608
15511W        W87936  27.708  29.110  12.121
15512W        W87937   2.419  24.116   4.125
15513W        W87938  34.551  27.581   0.377
15514W        W87939  32.591  10.700   2.351
15515W        W87940   0.071  10.158   2.302
15516W        W87941  18.890  21.603   4.852
15517W        W87942  32.396  18.790  10.220
15518W        W87943  13.869  16.687  10.707
15519W        W87944   2.111  43.469  11.188
15520W        W87945  10.530  26.829  14.186
15521W        W87946  42.712   1.551  13.340
15522W        W87947  32.564   6.297   1.159
15523W        W87948  12.582  33.067   4.637
15524W        W87949   5.732   3.672   2.775
15525W        W87950   1.693   3.354   2.343
15526W        W87951   5.309  43.701  14.805
15527W        W87952  14.041   2.008   4.431
15528W        W87953  16.762   5.225  10.834
15529W        W87954  17.641  10.366  12.766
15530W        W87955  35.300  17.166  12.896
15531W        W87956  38.869   2.291  12.107
15532W        W87957  20.718  19.770  10.459
15533W        W87958  20.018   2.303   2.760
15534W        W87959  12.049  26.283   4.940
15535W        W87960  13.234  35.366  14.000
15536W        W87961  38.125  43.834   1.403
15537W        W87962  42.149   5.121   0.738
15538W        W87963  15.735  34.889   4.494
15539W        W87964   0.250   1.898   0.044
15540W        W87965  17.135   5.500  11.059
15541W        W87966   0.784   9.667  14.403
15542W        W87967  31.302  18.693   5.355
15543W        W87968   2.864  10.360  13.942
15544W        W87969  43.342   7.435  11.947
15545W        W87970  22.084  38.247   3.296
15546W        W87971  24.977   7.766  13.046
15547W        W87972  33.351  37.393   4.060
15548W        W87973   8.373  15.747   1.715
15549W        W87974  33.733  28.701   2.734
15550W        W87975  12.690   7.359   4.429
15551W        W87976  18.231  33.534  13.852
15552W        W87977  26.134  28.171   3.262
15553W        W87978  10.623  43.035   3.189
15554W        W87979   8.993  14.329  12.883
15555W        W87980  16.163  35.923  11.337
15556W        W87981  14.620  24.429  12.949
15557W        W87982  37.879  41.228   4.062
15558W        W87983  42.490  11.240  11.578
15559W        W87984  23.642  43.895  11.666
15560W        W87985  31.092   0.400  10.673
15561W        W87986  23.203  30.982  14.838
15562W        W87987   2.480  22.651  13.511
15563W        W87988  17.035   6.744   2.892
15564W        W87989  21.651  43.221  14.055
15565W        W87990   3.876  34.988   1.696
15566W        W87991  32.669  13.854   2.942
15567W        W87992  33.132  29.087   4.247
15568W        W87993  32.948   6.300  14.231
15569W        W87994  28.385  41.956  10.444
15570W        W87995  12.767  30.347   1.934
15571W        W87996  26.526  42.900   5.073
15572W        W87997  37.693   1.946   0.921
15573W        W87998  29.972  27.076  12.108
15574W        W87999  43.416  42.913  11.429
15575W        W88000  21.075   9.675  11.623
15576W        W88001  32.286  13.405   2.283
15577W        W88002  22.894  22.325   4.225
15578W        W88003   4.891  44.446   2.899
15579W        W88004  14.646  10.818   0.467
15580W        W88005  20.309  21.254   4.647
15581W        W88006  32.309  35.520  12.424
15582W        W88007   6.121   6.278  12.628
15583W        W88008  14.998  29.088  11.610
15584W        W88009  36.907  35.997  12.850
15585W        W88010  28.394   6.955  11.589
15586W        W88011  40.544  24.027   0.803
15587W        W88012  12.334  36.290  10.917
15588W        W88013  29.737  17.006  12.826
15589W        W88014  39.316  26.219   4.698
15590W        W88015   9.652  20.423   3.682
15591W        W88016  21.038  40.623   2.410
15592W        W88017  35.602   8.137   2.847
15593W        W88018   0.479  37.212  11.173
15594W        W88019   6.002  28.958  11.589
15595W        W88020  42.649  39.349  13.589
15596W        W88021  14.611  14.159  13.629
15597W        W88022  10.738  10.989   3.210
15598W        W88023   2.695  16.339  13.477
15599W        W88024  36.498  42.083  11.621
15600W        W88025  13.302  35.103   5.011
15601W        W88026  29.397  22.309   3.899
15602W        W88027   6.211  44.355   3.246
15603W        W88028   6.929  18.693   0.725
15604W        W88029  30.694   4.769  12.510
15605W        W88030   6.285  17.001   5.092
15606W        W88031  42.734  23.285   3.434
15607W        W88032  17.145  12.660  12.501
15608W        W88033  16.667  37.800  12.315
15609W        W88034  10.314  32.446  14.367
15610W        W88035  41.787  33.847   4.684
15611W        W88036  42.872  42.200  12.537
15612W        W88037  26.712   7.797  12.395
15613W        W88038  15.652  43.458  13.541
15614W        W88039  24.199  11.446  12.671
15615W        W88040  12.538  21.584   5.023
15616W        W88041  10.652   7.160  14.377
15617W        W88042  39.199  11.619  10.158
15618W        W88043  19.561   2.073   5.277
15619W        W88044  42.746   2.486  14.738
15620W        W88045   5.403  36.160  14.866
15621W        W88046  14.820  38.393   0.918
15622W        W88047   8.580  26.182  12.308
15623W        W88048  38.361  42.124   0.432
15624W        W88049  32.851  20.225  13.268
15625W        W88050  33.081  30.159   3.154
15626W        W88051  21.679   9.131   0.846
15627W        W88052  23.047  42.793   3.768
15628W        W88053  32.876  41.530   2.600
15629W        W88054  10.127  39.883  12.127
15630W        W88055  23.037  36.602   2.395
15631W        W88056   9.326  27.499   2.321
15632W        W88057  19.530  42.510   4.909
15633W        W88058  43.439  22.257   1.554
15634W        W88059   9.939   9.839  12.643
15635W        W88060  24.127  37.588  14.834
15636W        W88061  42.784  10.903  10.619
15637W        W88062  15.818   6.233   1.369
15638W        W88063  14.846  29.460   2.695
15639W        W88064   8.733  39.412   4.941
15640W        W88065   6.690   4.759   0.795
15641W        W88066  23.038  29.040  14.984
15642W        W88067  28.586  10.294  11.241
15643W        W88068  26.501  26.978   3.144
15644W        W88069  39.573   0.434   0.848
15645W        W88070  28.470  36.925  13.951
15646W        W88071  16.454  15.664   2.570
15647W        W88072  14.091  34.932   1.821
15648W        W88073  28.610   2.960  14.813
15649W        W88074  35.815  21.587  12.903
15650W        W88075  20.580  28.447  12.451
15651W        W88076  19.519   8.455   4.144
15652W        W88077  14.588  42.304  13.109
15653W        W88078  41.914  30.604  12.464
15654W        W88079  25.047  30.634   1.406
15655W        W88080   9.738  42.030  13.448
15656W        W88081  11.036   7.144   4.944
15657W        W88082  36.795   6.242   4.806
15658W        W88083  13.068  18.091   4.505
15659W        W88084  24.163   1.109   4.882
15660W        W88085  16.755  27.031  11.985
15661W        W88086   8.056  21.259   2.163
15662W        W88087  14.231  44.460  10.963
15663W        W88088  29.038  44.486  11.647
15664W        W88089  42.034   8.148  11.125
15665W        W88090  11.324  27.619   4.890
15666W        W88091   8.605  30.727  11.263
15667W        W88092  35.182   5.351   1.377
15668W        W88093  41.766   3.279   0.695
15669W        W88094   9.944   6.910   3.380
15670W        W88095  44.747  20.087   4.577
15671W        W88096   3.978  28.424   3.768
15672W        W88097  16.580  19.018   3.186
15673W        W88098  12.443  35.807  11.108
15674W        W88099  32.806   5.439   3.514
15675W        W88100  27.090  30.226  11.197
15676W        W88101  33.829  20.097  12.574
15677W        W88102  29.545  26.300  12.400
15678W        W88103  17.579   4.384  12.113
15679W        W88104  37.391   8.836   2.216
15680W        W88105  31.392  24.655  11.626
15681W        W88106  14.810  44.918  12.575
15682W        W88107  18.327  37.549   9.877
15683W        W88108  32.939   1.901   4.060
15684W        W88109   2.339  31.084  13.442
15685W        W88110  28.133  14.745  14.420
15686W        W88111   2.786   5.394  12.894
15687W        W88112  31.350  36.129   0.294
15688W        W88113  11.164  14.062  10.977
15689W        W88114   6.917  35.633   2.581
15690W        W88115  14.388  18.172   3.165
15691W        W88116  27.203  19.967   4.926
15692W        W88117  35.080  34.143  12.395
15693W        W88118  26.513   6.153   3.209
15694W        W88119  12.787   7.215   0.788
15695W        W88120  14.410  29.021   1.886
15696W        W88121  33.099  27.232  11.511
15697W        W88122  17.583  23.642  11.370
15698W        W88123  38.652  16.555  12.484
15699W        W88124  44.256  41.254  10.594
15700W        W88125  12.361  21.925  10.039
15701W        W88126  34.320  34.791   1.635
15702W        W88127  28.210  26.116   1.954
15703W        W88128  20.138  19.090  13.866
15704W        W88129  41.953  16.072   4.453
15705W        W88130   9.174   7.359   1.391
15706W        W88131  33.159   1.464   2.679
15707W        W88132  22.757   1.877  12.182
15708W        W88133  14.279  33.959   4.620
15709W        W88134  37.894   7.869  14.474
15710W        W88135  28.212  18.483   9.895
15711W        W88136   2.268  39.963  13.185
15712W        W88137  16.099  36.521   1.138
15713W        W88138   7.750  32.048   0.874
15714W        W88139  23.665  33.425   4.375
15715W        W88140  21.748  28.242  12.909
15716W        W88141  13.737  25.952  13.748
15717W        W88142   0.421  30.424  10.937
15718W        W88143  43.369   0.867   2.666
15719W        W88144   4.484  29.382  12.920
15720W        W88145  39.888  26.525  11.121
15721W        W88146  43.339  23.965  14.006
15722W        W88147  28.082   2.343   2.205
15723W        W88148  30.039  41.905   0.246
15724W        W88149  35.359  42.023  10.814
15725W        W88150  33.721   1.356  14.799
15726W        W88151  12.089  10.691   3.361
15727W        W88152  19.280  14.665  10.739
15728W        W88153  25.661   1.348   3.839
15729W        W88154  29.974   2.373   1.834
15730W        W88155   5.774  43.732  11.964
15731W        W88156  27.567  41.507  11.066
15732W        W88157   0.161  18.285   0.876
15733W        W88158  41.004  24.113   4.302
15734W        W88159  32.455  41.475  13.160
15735W        W88160  14.731  31.889  11.699
15736W        W88161  12.372  18.863  11.528
15737W        W88162  33.436  43.982   2.335
15738W        W88163  25.742  32.652   9.698
15739W        W88164  22.324  44.899  10.592
15740W        W88165  42.365  40.620   1.466
15741W        W88166  43.634  43.594   3.129
15742W        W88167  19.779  14.235   4.593
15743W        W88168  40.858  13.901   3.279
15744W        W88169  33.870   0.430  12.022
15745W        W88170  32.628  24.976  10.785
15746W        W88171  12.785  36.148   1.904
15747W        W88172  22.087  31.190   3.803
15748W        W88173  41.532  44.582   3.330
15749W        W88174  17.119  44.986  10.587
15750W        W88175  39.496   2.754  12.410
15751W        W88176  13.100   5.177  14.726
15752W        W88177  24.707  24.243  11.332
15753W        W88178  12.617  32.350  10.792
15754W        W88179  33.127  41.513   0.158
15755W        W88180  26.219  10.716  13.064
15756W        W88181   6.311  41.411  12.351
15757W        W88182  29.566  31.962   5.272
15758W        W88183   7.441  23.541   1.984
15759W        W88184   4.785   9.284   0.349
15760W        W88185  13.221   9.360   3.803
15761W        W88186   8.259  35.631  11.124
15762W        W88187   4.765   2.009  12.353
15763W        W88188  19.503   1.812   0.152
15764W        W88189  26.617   8.253   4.151
15765W        W88190  26.533  37.349   4.970
15766W        W88191  26.865  34.789  11.751
15767W        W88192  38.410  17.410  11.359
15768W        W88193  30.789  18.902  11.758
15769W        W88194  40.417  28.818  12.759
15770W        W88195  27.384  34.495  12.430
15771W        W88196   0.368   2.105   2.738
15772W        W88197  19.767  10.724  11.936
15773W        W88198  28.475  32.488   2.225
15774W        W88199  35.571  42.346   4.788
15775W        W88200  28.445  32.821  14.720
15776W        W88201  35.808  23.849   3.681
15777W        W88202  44.282  37.253   2.377
15778W        W88203  43.532  26.409  11.993
15779W        W88204  44.203   3.696  14.941
15780W        W88205   1.439   5.968  13.029
15781W        W88206  43.431  20.216   1.757
15782W        W88207   8.495  40.104   5.295
15783W        W88208  10.726  32.708  13.494
15784W        W88209   8.629   5.716   2.862
15785W        W88210  19.223  35.019   0.369
15786W        W88211  26.690  28.651  11.623
15787W        W88212  31.185  10.455   4.892
15788W        W88213  42.587  43.052  10.875
15789W        W88214  17.187  42.789   2.128
15790W        W88215  37.305  24.105   1.286
15791W        W88216  33.429  26.140  10.951
15792W        W88217  41.968  31.603   0.392
15793W        W88218  22.733   5.728   1.167
15794W        W88219   6.816  12.642  11.646
15795W        W88220  18.633  10.764   0.346
15796W        W88221   3.368  16.324   3.731
15797W        W88222   4.497  40.437   1.177
15798W        W88223  19.253  10.793   2.399
15799W        W88224  32.473  43.075  14.981
15800W        W88225  15.060  13.904  14.466
15801W        W88226  30.684   2.686   3.429
15802W        W88227  26.458  14.524  12.554
15803W        W88228  42.262  23.274   2.392
15804W        W88229  36.944  38.578   4.664
15805W        W88230  28.028   3.807  13.876
15806W        W88231  32.540  34.376   4.901
15807W        W88232  28.346  33.340   1.339
15808W        W88233  35.328  37.662   1.181
15809W        W88234   2.190  14.896  13.433
15810W        W88235  25.993   4.361   0.949
15811W        W88236  11.168  24.130  13.063
15812W        W88237  28.746   9.276  13.364
15813W        W88238   2.739   6.171  13.877
15814W        W88239   3.483  37.814  11.144
15815W        W88240  13.625  24.060  12.895
15816W        W88241  42.751  11.114   0.419
15817W        W88242  13.122  31.991   0.389
15818W        W88243  23.450  28.059  14.290
15819W        W88244  40.471   1.052   4.517
15820W        W88245  40.992   5.083  11.793
15821W        W88246  28.446  32.373   3.757
15822W        W88247   7.173  26.527   0.059
15823W        W88248  28.577  17.198   1.009
15824W        W88249  36.415  40.397  10.530
15825W        W88250  24.084  35.056  10.658
15826W        W88251  36.545  17.028  13.441
15827W        W88252  29.585   1.912   5.137
15828W        W88253  42.519  40.501  12.126
15829W        W88254  29.964  12.504   1.723
15830W        W88255  35.803   9.509  13.919
15831W        W88256   4.193  31.776  14.010
15832W        W88257  27.927  10.372  13.029
15833W        W88258  18.799   2.532  13.031
15834W        W88259   0.311  44.759  11.964
15835W        W88260   1.422  38.132  11.134
15836W        W88261  17.890  20.293   3.278
15837W        W88262  18.202  11.135   4.773
15838W        W88263  39.383  31.609  12.681
15839W        W88264  18.188   8.218  13.973
15840W        W88265   2.231  25.366   2.713
15841W        W88266  32.339  43.824  12.016
15842W        W88267   7.408  11.167  12.500
15843W        W88268  25.971  21.550  13.912
15844W        W88269  21.155   8.877  12.870
15845W        W88270  29.627   8.911  12.904
15846W        W88271  42.071  35.165   2.896
15847W        W88272  27.931  22.093   2.284
15848W        W88273  11.581  26.598  10.397
15849W        W88274   3.579  36.569   3.794
15850W        W88275   8.947  23.174   2.706
15851W        W88276   2.956   8.712   1.451
15852W        W88277  26.965  34.276   2.376
15853W        W88278  31.510  29.481  10.590
15854W        W88279  23.131  18.240   4.525
15855W        W88280  41.775  40.848   3.363
15856W        W88281  44.220  31.003   3.132
15857W        W88282  29.935  11.569   1.288
15858W        W88283  34.291  32.878  10.682
15859W        W88284   1.294  17.080  12.055
15860W        W88285  33.469  29.498   4.223
15861W        W88286  13.151  17.576  13.723
15862W        W88287  44.181  30.212  10.238
15863W        W88288  22.719  34.664  13.594
15864W        W88289  38.985   1.190   3.595
15865W        W88290  40.278  44.394   1.884
15866W        W88291  40.279   3.507   4.138
15867W        W88292  31.099  44.446   2.954
15868W        W88293   4.124  19.632   0.962
15869W        W88294  37.940  31.873  10.192
15870W        W88295  12.270  39.319   1.270
15871W        W88296  29.979  38.529  14.347
15872W        W88297  18.984  38.179   0.216
15873W        W88298   7.716   6.604   4.120
15874W        W88299   3.861  42.797   2.766
15875W        W88300  27.179  31.603   2.838
15876W        W88301  14.291  19.567   0.347
15877W        W88302  39.200  27.397  13.128
15878W        W88303  23.228  24.968  12.936
15879W        W88304   3.912  42.718   1.341
15880W        W88305  20.098  29.724  12.431
15881W        W88306  13.876   3.252  13.505
15882W        W88307  14.713   8.193  13.012
15883W        W88308  29.509  33.152   2.808
15884W        W88309  11.486  44.967   0.395
15885W        W88310   8.263  14.798   1.943
15886W        W88311   2.173  34.833   1.367
15887W        W88312  27.077   0.316  10.723
15888W        W88313  32.475  40.444   4.120
15889W        W88314  34.577   1.325   2.883
15890W        W88315  27.463   7.688  12.200
15891W        W88316  15.154   9.583  13.148
15892W        W88317  41.767  30.816   4.199
15893W        W88318   2.372  24.765  14.798
15894W        W88319   2.422  35.435   2.629
15895W        W88320  26.389  34.134   0.236
15896W        W88321  20.031  33.109   4.223
15897W        W88322  10.649  25.104  10.974
15898W        W88323  29.737  26.542  14.482
15899W        W88324  11.429  30.078  11.995
15900W        W88325  17.139  35.364  12.910
15901W        W88326  41.104  18.704   1.291
15902W        W88327  40.167  37.251   4.078
15903W        W88328  36.895   3.986   0.724
15904W        W88329  19.502  32.407  10.371
15905W        W88330  41.566  13.639   2.784
15906W        W88331  21.266  38.427  14.034
15907W        W88332  26.105  33.450  12.841
15908W        W88333  11.413  40.314  12.182
15909W        W88334   4.855  23.967  12.426
15910W        W88335  24.284  26.953   2.706
15911W        W88336   8.425  26.099  14.442
15912W        W88337  38.299  35.831  12.144
15913W        W88338   2.965  20.645   1.765
15914W        W88339  24.688  34.270  11.703
15915W        W88340   1.773  30.733   1.265
15916W        W88341  25.134  27.425   3.303
15917W        W88342   0.044  22.698  12.639
15918W        W88343  34.063  38.082   2.271
15919W        W88344   6.937  10.099   3.610
15920W        W88345  43.966  43.359   3.693
15921W        W88346  22.034  11.248   4.609
15922W        W88347  11.414  30.160  14.166
15923W        W88348  14.645  27.058  11.404
15924W        W88349  14.776  19.229   2.409
15925W        W88350  19.196  38.557   2.013
15926W        W88351  11.287  35.869  14.165
15927W        W88352  39.757   9.927  14.890
15928W        W88353  38.848  13.105   3.686
15929W        W88354  44.007  34.274   4.333
15930W        W88355   4.557   8.683   1.300
15931W        W88356  44.209  10.686   3.732
15932W        W88357   6.606  42.307   0.829
15933W        W88358  35.098  35.182   5.220
15934W        W88359  41.813  41.816   4.250
15935W        W88360   7.691  18.069   0.592
15936W        W88361  29.881  25.488   3.054
15937W        W88362  12.286  23.194  11.944
15938W        W88363  40.754   3.292   4.160
15939W        W88364   2.361  34.897  13.961
15940W        W88365   6.419  13.861  11.660
15941W        W88366  23.608  26.486  12.863
15942W        W88367  40.737   5.142  13.933
15943W        W88368  12.760   0.727   3.213
15944W        W88369   8.374   8.591  12.958
15945W        W88370  37.989  32.625   4.591
15946W        W88371  10.386  37.614  11.107
15947W        W88372  24.954  21.190  12.908
15948W        W88373  25.633  35.151   4.425
15949W        W88374  35.406  33.019   1.481
15950W        W88375  14.350  19.165   4.139
15951W        W88376  11.626  13.568  13.422
15952W        W88377   7.694  32.415   1.255
15953W        W88378  44.123   7.688  12.094
15954W        W88379  20.762  19.749  12.679
15955W        W88380  24.396  14.665   2.235
15956W        W88381  26.740  10.421   3.878
15957W        W88382  42.538  15.341   4.514
15958W        W88383  18.080  38.041  13.687
15959W        W88384  33.150  16.389   2.910
15960W        W88385  20.711  29.509  11.515
15961W        W88386  16.572  41.016   2.190
15962W        W88387  27.530  27.822   0.940
15963W        W88388  39.620   4.886  12.896
15964W        W88389  17.872  10.464   0.720
15965W        W88390   5.937  40.458  10.447
15966W        W88391  33.004  42.276   1.828
15967W        W88392  10.286   1.235  11.187
15968W        W88393  19.256  21.220  13.886
15969W        W88394  35.099  29.395  14.034
15970W        W88395  13.342  29.982   4.127
15971W        W88396  35.839   7.266   3.707
15972W        W88397  27.431  13.327  13.138
15973W        W88398  27.529  31.135  11.256
15974W        W88399  27.389  21.441   1.365
15975W        W88400   9.052  32.341   1.430
15976W        W88401  41.299  12.084   1.895
15977W        W88402  14.126   7.139   4.479
15978W        W88403  25.487  30.916   1.271
15979W        W88404  30.437  30.533  12.486
15980W        W88405  27.079  29.988   4.979
15981W        W88406   9.895  32.761   4.942
15982W        W88407  16.866  32.920   2.746
15983W        W88408   5.463   9.221   0.416
15984W        W88409   8.860  36.615   1.214
15985W        W88410   6.634  24.179  14.742
15986W        W88411   2.783  36.077  10.636
15987W        W88412  44.751  28.061  12.434
15988W        W88413   3.684  23.278  12.184
15989W        W88414  21.116  15.481  12.967
15990W        W88415   9.454  44.901  14.396
15991W        W88416  20.637   1.752  12.022
15992W        W88417  37.368  36.946  11.051
15993W        W88418  21.078  32.535  11.496
15994W        W88419  31.304  23.681  10.730
15995W        W88420  32.662  20.048  10.529
15996W        W88421   7.439  21.635  10.785
15997W        W88422  30.575  29.904  13.396
15998W        W88423  20.730  11.727   0.903
15999W        W88424   1.298  18.148   4.822
16000W        W88425  38.970   0.496   1.820
16001W        W88426  27.099   8.717  14.306
16002W        W88427  14.040   1.717  11.030
16003W        W88428  26.539   0.773  13.490
16004W        W88429   1.456   6.033   1.414
16005W        W88430   9.117  35.393  12.084
16006W        W88431  44.567  22.285  12.018
16007W        W88432  19.575  10.203   0.277
16008W        W88433  36.139  41.547   2.189
16009W        W88434  22.545   0.430  12.489
16010W        W88435  33.306  27.367  11.050
16011W        W88436  40.067  37.110   1.930
16012W        W88437  29.140  38.492  12.049
16013W        W88438   9.300  16.771   2.137
16014W        W88439   7.087  43.902  13.458
16015W        W88440  35.876  15.872   4.160
16016W        W88441   2.762  42.913  11.549
16017W        W88442   6.649  23.474   2.259
16018W        W88443   6.758  37.264   0.393
16019W        W88444  44.741  37.939   1.643
16020W        W88445  36.327  13.064   1.387
16021W        W88446  23.706  16.449  10.973
16022W        W88447  18.811  21.501  11.207
16023W        W88448  41.232  20.798  14.973
16024W        W88449  37.517  40.972  11.486
16025W        W88450  25.580   5.624   3.266
16026W        W88451  18.575  41.318  14.952
16027W        W88452  31.838  36.978   2.737
16028W        W88453   8.816  26.713  10.590
16029W        W88454  28.021  11.155   4.271
16030W        W88455  38.805  25.830  12.038
16031W        W88456  35.255  16.170   0.013
16032W        W88457  12.274  30.987  14.448
16033W        W88458   9.556  28.565   1.266
16034W        W88459  36.912  12.689  11.209
16035W        W88460  37.365  16.110   2.793
16036W        W88461  16.065   3.176  11.522
16037W        W88462  34.603  41.362   1.091
16038W        W88463  44.773  23.246  10.913
16039W        W88464   2.704  40.919   4.616
16040W        W88465  26.268  40.709  13.521
16041W        W88466  31.184   6.269  12.357
16042W        W88467  43.540  34.713  14.438
16043W        W88468  24.786   2.372  14.293
16044W        W88469  39.932  44.740   5.594
16045W        W88470  17.663   0.764   4.576
16046W        W88471  37.912  17.798  12.074
16047W        W88472  27.536   0.021  14.298
16048W        W88473   0.781  36.408   2.753
16049W        W88474  42.951  28.912   0.421
16050W        W88475  14.336  42.970   1.318
16051W        W88476  12.561  18.316   1.276
16052W        W88477  31.370  25.065  14.787
16053W        W88478  14.123  42.268  12.291
16054W        W88479   9.010  24.605   1.711
16055W        W88480  32.441  36.078   2.411
16056W        W88481   0.524  10.876   3.237
16057W        W88482  10.580  38.391  14.327
16058W        W88483  14.347  33.957  10.766
16059W        W88484  40.765  28.694   0.000
16060W        W88485   9.056  12.874   0.604
16061W        W88486  40.102  42.955   0.187
16062W        W88487  15.592  34.417   1.716
16063W        W88488  24.975  26.230   1.161
16064W        W88489   5.270   3.896  14.291
16065W        W88490  20.580  12.105   1.958
16066W        W88491  13.680  25.026  11.270
16067W        W88492  42.054   9.689  13.002
16068W        W88493  42.947   5.737  12.401
16069W        W88494  31.705  38.558  12.482
16070W        W88495   6.592  37.618  13.890
16071W        W88496  40.770  43.894  10.886
16072W        W88497  31.881  18.703   2.317
16073W        W88498  31.384  44.304  10.691
16074W        W88499  24.142  36.667  10.602
16075W        W88500  29.643  24.953   4.565
16076W        W88501  33.190  10.583   3.099
16077W        W88502  21.315  44.888   1.478
16078W        W88503  39.800  24.526  13.387
16079W        W88504  35.142  13.084   2.771
16080W        W88505   5.107  21.723  12.926
16081W        W88506   5.685  20.092   0.442
16082W        W88507  24.377  43.394  11.493
16083W        W88508   7.910  15.170   0.208
16084W        W88509  23.243  41.399   1.334
16085W        W88510   0.745  14.597   3.751
16086W        W88511  16.783  21.124   1.610
16087W        W88512  43.816  30.071  13.129
16088W        W88513   5.237  18.704   3.216
16089W        W88514   0.250  36.781  14.328
16090W        W88515  21.986   2.037   0.019
16091W        W88516  19.492  40.923   2.825
16092W        W88517   2.915  12.872   4.375
16093W        W88518  16.547  33.350  10.293
16094W        W88519  22.392  24.272   3.604
16095W        W88520  29.521  17.577  10.484
16096W        W88521  35.086  12.761   4.796
16097W        W88522  26.509  41.804   2.367
16098W        W88523   8.729   2.954   3.574
16099W        W88524  35.287  26.189  12.075
16100W        W88525   4.653  16.809  14.357
16101W        W88526   5.614  11.197   0.856
16102W        W88527   4.258  13.642   4.885
16103W        W88528  37.381  10.553  14.998
16104W        W88529  26.774  44.067   4.919
16105W        W88530   6.143  22.554   2.884
16106W        W88531   9.719  29.432  14.990
16107W        W88532  32.043  27.657   1.141
16108W        W88533  28.803  14.819   3.459
16109W        W88534   6.869  20.126  14.324
16110W        W88535  12.862   2.773   0.699
16111W        W88536  36.022  11.038  12.199
16112W        W88537  36.109   2.000   0.405
16113W        W88538   6.331   1.132  13.021
16114W        W88539   8.171  31.397   1.818
16115W        W88540   1.057   3.727  11.872
16116W        W88541  25.739  11.396  14.075
16117W        W88542  19.602   6.030  12.213
16118W        W88543  29.056  23.420   0.756
16119W        W88544  33.422  39.647   1.930
16120W        W88545  29.494  17.117  13.263
16121W        W88546  11.798  32.629   4.577
16122W        W88547   1.698  28.520   1.486
16123W        W88548   3.756  39.233  14.544
16124W        W88549  36.025  43.547   1.727
16125W        W88550   3.280  41.424   1.249
16126W        W88551  13.263  34.510   3.386
16127W        W88552  35.358  21.176  10.741
16128W        W88553  25.246  10.208   0.439
16129W        W88554   0.247   9.609  14.901
16130W        W88555  41.898   7.131  12.762
16131W        W88556  43.275  22.735  12.391
16132W        W88557  43.290  40.968  12.595
16133W        W88558   0.899  44.230  13.979
16134W        W88559  35.941   4.414   3.912
16135W        W88560  37.557   3.805  10.785
16136W        W88561  13.327  18.303   3.332
16137W        W88562  44.990   1.371  13.436
16138W        W88563  31.931   2.117  14.332
16139W        W88564  23.172  23.958   3.778
16140W        W88565  15.552  12.082  14.372
16141W        W88566   4.227  21.188  14.222
16142W        W88567  16.033  27.588   2.374
16143W        W88568   0.012  39.854  10.751
16144W        W88569  20.494  41.240  10.456
16145W        W88570  31.485  34.177  14.520
16146W        W88571  35.651  20.978  12.389
16147W        W88572  37.482  18.032   1.138
16148W        W88573   5.945  33.543  13.916
16149W        W88574  36.312  17.727   2.214
16150W        W88575  42.828  32.343  13.839
16151W        W88576  12.724   0.146  13.314
16152W        W88577  21.744  27.485  12.004
16153W        W88578  23.722  20.244   1.120
16154W        W88579  36.195  21.091   2.655
16155W        W88580  33.375  26.655  10.657
16156W        W88581  41.708  14.496   2.249
16157W        W88582  27.670  32.477  12.825
16158W        W88583  36.355  36.985   1.175
16159W        W88584  24.987   8.682   3.983
16160W        W88585  33.046  43.404   2.852
16161W        W88586  18.213  30.239  12.536
16162W        W88587  33.541  29.679  11.714
16163W        W88588   6.343  35.612   4.129
16164W        W88589   4.805  20.693  12.239
16165W        W88590  32.237  18.491  12.226
16166W        W88591  11.776  39.071  11.955
16167W        W88592  29.483  32.948  11.646
16168W        W88593  32.715   9.669   0.738
16169W        W88594   4.492  34.449  11.914
16170W        W88595  43.830   6.826  14.807
16171W        W88596  31.511  33.392   3.512
16172W        W88597  32.910  18.834   4.491
16173W        W88598  36.858   0.466   0.766
16174W        W88599   3.838   0.185   2.530
16175W        W88600  11.098  21.708  13.012
16176W        W88601  29.126  13.837   1.153
16177W        W88602  40.952   6.724   3.903
16178W        W88603   8.262   7.880  10.675
16179W        W88604  30.471  32.236   2.085
16180W        W88605  27.461   3.929   2.349
16181W        W88606  32.225   8.474   1.780
16182W        W88607  31.693  11.613   0.018
16183W        W88608   5.391  20.801   3.036
16184W        W88609  34.425  28.752   0.941
16185W        W88610   9.488  32.034  13.313
16186W        W88611  32.401  36.555   0.869
16187W        W88612  28.657  35.727   3.322
16188W        W88613  18.800  18.135   0.700
16189W        W88614  33.620  19.647   1.824
16190W        W88615   1.478   1.429  11.032
16191W        W88616  21.627  27.984   3.387
16192W        W88617  22.012  19.366   1.204
16193W        W88618  30.684   5.264   0.371
16194W        W88619  34.026  22.901  13.427
16195W        W88620   6.001  20.656   1.753
16196W        W88621  10.800  41.486   1.672
16197W        W88622  40.638  39.924  13.115
16198W        W88623  24.916  12.021   0.929
16199W        W88624  31.375   0.861   2.296
16200W        W88625  12.965   1.416   2.280
16201W        W88626  24.610   7.979  10.546
16202W        W88627  22.362   0.828  10.962
16203W        W88628   2.823  33.178  14.931
16204W        W88629  30.493  17.781   2.255
16205W        W88630  34.849  18.023  13.510
16206W        W88631  29.455  14.457   2.531
16207W        W88632   5.289  18.840   1.426
16208W        W88633  31.584  42.289   4.585
16209W        W88634  41.746  38.288   4.637
16210W        W88635  39.528  31.617   2.362
16211W        W88636  41.322   3.686  11.085
16212W        W88637  16.888  24.387  14.917
16213W        W88638  11.526  25.893   0.075
16214W        W88639  27.602  43.556   0.537
16215W        W88640  40.457  23.448   4.251
16216W        W88641  32.824  43.700  13.928
16217W        W88642  21.546   1.939  11.539
16218W        W88643   7.776   1.831  12.446
16219W        W88644   9.825  13.580  12.068
16220W        W88645   1.758   0.454   3.191
16221W        W88646  41.740  31.229  11.140
16222W        W88647  14.089  19.564  12.075
16223W        W88648  20.034  44.107  13.386
16224W        W88649  18.838  26.862   0.834
16225W        W88650  37.862  44.021  12.114
16226W        W88651  43.823  41.440   2.676
16227W        W88652  28.496   2.505  13.390
16228W        W88653  21.547   3.728  11.004
16229W        W88654   4.196  20.082  11.968
16230W        W88655   8.019  10.194  13.396
16231W        W88656  13.387  19.206  13.025
16232W        W88657  38.851   8.364  10.906
16233W        W88658  33.785  32.110  11.636
16234W        W88659  18.536  30.033   4.508
16235W        W88660   7.738  39.584  12.531
16236W        W88661  15.142   4.600   1.773
16237W        W88662  27.096  34.994  10.121
16238W        W88663  33.989  25.148  10.446
16239W        W88664  22.478  27.645   1.950
16240W        W88665  33.142  37.024   2.251
16241W        W88666  16.712  26.054   3.925
16242W        W88667  32.513  20.299   3.231
16243W        W88668  12.723  31.141   4.645
16244W        W88669  35.473  37.403  14.085
16245W        W88670   2.461  29.991  10.525
16246W        W88671  42.873  13.153  10.943
16247W        W88672  14.045  18.764   4.112
16248W        W88673  44.061  27.722   0.917
16249W        W88674  38.650  32.030  11.659
16250W        W88675  25.255  28.997  11.192
16251W        W88676  42.456  24.732  11.325
16252W        W88677  33.552  15.062   1.708
16253W        W88678   7.009  43.505  11.512
16254W        W88679   5.753   2.853   4.638
16255W        W88680  40.634  19.632   5.141
16256W        W88681  31.799  16.315   0.297
16257W        W88682  44.028  35.062  10.520
16258W        W88683  32.701   8.312  13.428
16259W        W88684  11.075  28.425   1.565
16260W        W88685  44.892  38.937  11.588
16261W        W88686  44.403  43.009  11.066
16262W        W88687  44.721   2.930   4.545
16263W        W88688   3.900  40.594  14.820
16264W        W88689  37.169   4.390  13.319
16265W        W88690   9.837  40.780  10.689
16266W        W88691   9.677   2.554   3.612
16267W        W88692  35.605  43.246   1.735
16268W        W88693  40.046  24.940   4.922
16269W        W88694   9.413  15.610  12.829
16270W        W88695  25.565  35.964   2.796
16271W        W88696  29.121  29.181  11.103
16272W        W88697  11.262  28.256  13.990
16273W        W88698  22.068   0.184   1.121
16274W        W88699   3.873  40.036  10.908
16275W        W88700  36.462   1.233   1.327
16276W        W88701  33.560  16.790  13.496
16277W        W88702  28.641  20.643  10.659
16278W        W88703  35.282  31.300   4.140
16279W        W88704   8.360   9.918   1.224
16280W        W88705  44.157   1.325   0.237
16281W        W88706   4.977   8.812   3.195
16282W        W88707  15.863  11.282  13.381
16283W        W88708   2.204  42.433   3.260
16284W        W88709  28.177  10.577   0.420
16285W        W88710  42.799  13.228  12.981
16286W        W88711  20.665  12.454   0.438
16287W        W88712  11.923   2.685  14.436
16288W        W88713  19.733   6.112   2.780
16289W        W88714  14.033  24.977   0.761
16290W        W88715  42.437   7.467   0.531
16291W        W88716  32.381  40.839   2.900
16292W        W88717  44.922  21.978  14.964
16293W        W88718  26.659  23.319  14.618
16294W        W88719  35.755  12.342   3.745
16295W        W88720   2.769  39.965   5.010
16296W        W88721  19.999  44.628  13.421
16297W        W88722  43.947  17.338   0.351
16298W        W88723  20.060  32.172   1.680
16299W        W88724   3.841   7.350  11.180
16300W        W88725  22.876   8.316   1.722
16301W        W88726  14.252   4.283  13.438
16302W        W88727  19.765  23.818  14.398
16303W        W88728  10.689  18.620  12.819
16304W        W88729  31.343   1.011  12.596
16305W        W88730  43.249  32.946   1.376
16306W        W88731  31.903  29.068  14.482
16307W        W88732  40.783  44.701   0.935
16308W        W88733  24.574  13.261  13.034
16309W        W88734   1.768  32.055  13.035
16310W        W88735  33.417   7.269   1.430
16311W        W88736  44.808   5.825  14.991
16312W        W88737  21.582  43.650  12.183
16313W        W88738  32.061  28.355   3.212
16314W        W88739  30.584  20.603   4.140
16315W        W88740  44.581  15.015  12.833
16316W        W88741  31.978  38.987   4.521
16317W        W88742  17.752  28.952  11.486
16318W        W88743  14.986  33.954   2.248
16319W        W88744  41.976  15.603   0.840
16320W        W88745  41.673   7.867   3.714
16321W        W88746   3.688  14.887  10.676
16322W        W88747  29.111  27.185   0.491
16323W        W88748  26.673  15.125   0.830
16324W        W88749  41.041  40.515   3.248
16325W        W88750  26.017  17.619   1.136
16326W        W88751  21.743  23.968  12.015
16327W        W88752  26.323  37.945   1.722
16328W        W88753  22.612   5.451   4.826
16329W        W88754   5.907  21.713   4.033
16330W        W88755   3.887   5.445  12.893
16331W        W88756  19.257  10.419   3.351
16332W        W88757   1.471  41.265  14.945
16333W        W88758   5.895   9.377  12.532
16334W        W88759  36.593  33.876   4.160
16335W        W88760  23.710   9.931  14.763
16336W        W88761  11.738  39.361  11.332
16337W        W88762  24.063  14.202   0.465
16338W        W88763  33.417  30.378  10.552
16339W        W88764  42.047  37.932   3.944
16340W        W88765   2.377  35.384   0.598
16341W        W88766  21.094   1.339  12.105
16342W        W88767  21.088   4.679  10.785
16343W        W88768  28.196   9.203  12.100
16344W        W88769  20.048  21.440  12.872
16345W        W88770  22.775   3.663   4.121
16346W        W88771  11.083  11.575   2.815
16347W        W88772  36.917  31.699  12.456
16348W        W88773  41.857  43.269  12.951
16349W        W88774  39.294  43.999   2.827
16350W        W88775  40.821  34.543   0.642
16351W        W88776  28.656  44.468  13.002
16352W        W88777  38.665  39.444   5.168
16353W        W88778  14.886  37.876  12.350
16354W        W88779  29.503  16.156  14.958
16355W        W88780   9.046  44.890   4.633
16356W        W88781  22.845  11.396   1.980
16357W        W88782  31.176  40.337   0.267
16358W        W88783  13.595  22.910   1.449
16359W        W88784  21.042  37.628  10.081
16360W        W88785  26.472  39.716  13.069
16361W        W88786   8.586  41.238   3.775
16362W        W88787  44.402   3.270  10.534
16363W        W88788  42.803  10.614   3.521
16364W        W88789   1.769  28.692  10.750
16365W        W88790  33.363  39.415  13.914
16366W        W88791  13.692   7.265   2.201
16367W        W88792  29.665  34.993   3.352
16368W        W88793  40.380   3.672  12.546
16369W        W88794  11.307  39.338   2.086
16370W        W88795   8.852  16.296  11.149
16371W        W88796  21.268  34.362  10.695
16372W        W88797   8.510  27.836  11.554
16373W        W88798  31.450   7.248  10.420
16374W        W88799   1.801   3.447   3.033
16375W        W88800  31.572  33.692   2.381
16376W        W88801  17.749  43.009   3.323
16377W        W88802  28.101  22.690   4.735
16378W        W88803  32.099  18.862  11.352
16379W        W88804  25.534   1.221   0.263
16380W        W88805   0.214  28.698   1.864
16381W        W88806  34.507  13.039  12.926
16382W        W88807   1.322  34.664  13.376
16383W        W88808  20.270   8.028   1.267
16384W        W88809  23.744  13.489  12.962
16385W        W88810  29.110  43.801   0.235
16386W        W88811   7.118   3.601  13.928
16387W        W88812  30.652  37.004  13.452
16388W        W88813  15.486  36.217  13.495
16389W        W88814  35.702   1.885   4.602
16390W        W88815  32.652  30.172  12.525
16391W        W88816  41.916  14.573   4.766
16392W        W88817  18.145  22.802   4.300
16393W        W88818  24.543  34.856   4.844
16394W        W88819  19.354  35.411  12.859
16395W        W88820   7.173   1.489   4.800
16396W        W88821  35.089  19.280   3.784
16397W        W88822  29.942   3.037  14.120
16398W        W88823  15.454  16.236  13.773
16399W        W88824  27.011   2.713   0.387
16400W        W88825  34.892  38.129  12.592
16401W        W88826  27.421  12.714  12.409
16402W        W88827  15.664  19.554  11.725
16403W        W88828  43.489  41.434   4.698
16404W        W88829   7.745  39.438   2.749
16405W        W88830  38.434   0.388  13.498
16406W        W88831  15.374  30.495   3.233
16407W        W88832  23.999   5.197   0.855
16408W        W88833  17.635   2.862  12.369
16409W        W88834   1.465   2.505  11.135
16410W        W88835  27.586  34.996  11.992
16411W        W88836  40.435  30.877  13.359
16412W        W88837   6.998  16.676  11.169
16413W        W88838  34.140  22.115   3.375
16414W        W88839  35.293  29.554  14.941
16415W        W88840  42.522  29.485   2.352
16416W        W88841  36.523  42.440   4.552
16417W        W88842  37.600  30.874   1.391
16418W        W88843  25.377  19.095   4.019
16419W        W88844   2.872  33.985  12.524
16420W        W88845  11.390  17.065  12.797
16421W        W88846   4.559   8.964   2.605
16422W        W88847  18.783  12.717  13.078
16423W        W88848  42.824  42.487   3.842
16424W        W88849  39.894  18.830  14.492
16425W        W88850  36.970   5.290  12.815
16426W        W88851  26.164  28.618  10.803
16427W        W88852  28.072  12.692  13.188
16428W        W88853  13.404  39.364   2.203
16429W        W88854  23.883   0.247   1.976
16430W        W88855  13.376  23.890  13.326
16431W        W88856  40.330  42.523  14.309
16432W        W88857  20.046   6.317   0.926
16433W        W88858  23.619   7.908   4.150
16434W        W88859  12.201  34.007   4.900
16435W        W88860  15.363  36.131   1.804
16436W        W88861   4.725  40.988   4.604
16437W        W88862  27.590  12.726   1.429
16438W        W88863  17.234  33.575  11.657
16439W        W88864  19.687  42.305  11.944
16440W        W88865  23.818  10.336   0.117
16441W        W88866   8.576   3.129   1.283
16442W        W88867  23.221   7.448  13.154
16443W        W88868  39.511   7.448   2.675
16444W        W88869   4.166  13.117  11.213
16445W        W88870  31.403  43.762   0.409
16446W        W88871  14.701  15.807  12.446
16447W        W88872   1.256  11.500  13.700
16448W        W88873  44.250   6.453   3.684
16449W        W88874   1.855  17.579  12.937
16450W        W88875  42.096   7.272  10.722
16451W        W88876  28.754  39.886  12.925
16452W        W88877   3.872  34.821   2.714
16453W        W88878  25.438  25.076   5.148
16454W        W88879  22.859  39.173   3.200
16455W        W88880   5.205  20.144   2.688
16456W        W88881  26.095  37.555  14.518
16457W        W88882   6.162  29.450  10.746
16458W        W88883   0.752  41.258  10.603
16459W        W88884  30.583  35.289  10.986
16460W        W88885  35.559  32.640  10.719
16461W        W88886   5.340   8.080   3.363
16462W        W88887  42.745  30.201  14.921
16463W        W88888  44.310  36.049   0.852
16464W        W88889  32.590  29.061   1.375
16465W        W88890   8.842  39.157   0.529
16466W        W88891  13.568   5.772  14.921
16467W        W88892  34.443   4.478   3.330
16468W        W88893  34.290   6.319  10.433
16469W        W88894  25.636  31.406  11.464
16470W        W88895  33.371  31.051  12.964
16471W        W88896   0.994  20.118   0.140
16472W        W88897  30.093   4.853  10.449
16473W        W88898   6.637  21.576  12.535
16474W        W88899   2.182  25.277   0.257
16475W        W88900  30.561  39.382   1.369
16476W        W88901  35.341  31.518   1.838
16477W        W88902  41.933  14.127  12.443
16478W        W88903  13.922  24.291  10.348
16479W        W88904  14.164  42.969   4.556
16480W        W88905  44.559  42.844  12.467
16481W        W88906   4.595   3.940  11.750
16482W        W88907   7.665  23.705   0.309
16483W        W88908  13.695  24.564   0.691
16484W        W88909  39.366   9.950   0.793
16485W        W88910  32.694  28.410   4.643
16486W        W88911  28.775  31.419  11.505
16487W        W88912  40.581  11.466  14.338
16488W        W88913  38.950  40.257   4.862
16489W        W88914  10.237   6.763  11.074
16490W        W88915   0.946   9.678  13.414
16491W        W88916   6.215  36.819  13.687
16492W        W88917  10.383  16.232   4.987
16493W        W88918  20.095  40.997  14.335
16494W        W88919  14.351  15.853  14.748
16495W        W88920   8.928  25.606   3.384
16496W        W88921   5.939  28.976  10.723
16497W        W88922  19.420   1.430   5.622
16498W        W88923  41.320  35.512   0.260
16499W        W88924  23.704  16.169   3.189
16500W        W88925  15.101  42.568   0.696
16501W        W88926  36.168  18.080  13.018
16502W        W88927  25.231   0.259  11.723
16503W        W88928   0.998  37.111   2.370
16504W        W88929   2.327  37.395  14.757
16505W        W88930  30.062  37.638  13.762
16506W        W88931  21.068  43.013  11.085
16507W        W88932  33.567  36.816   1.403
16508W        W88933  15.217  42.311  14.740
16509W        W88934  25.461   7.982   0.147
16510W        W88935  31.721  10.693  13.348
16511W        W88936  20.415   9.491   5.072
16512W        W88937  28.892  18.242   1.175
16513W        W88938   7.899  35.236   1.330
16514W        W88939  44.549  26.602  10.725
16515W        W88940   8.152  30.851  11.093
16516W        W88941  20.913  41.378   2.275
16517W        W88942  22.620  38.015   3.664
16518W        W88943   1.836  33.127  10.477
16519W        W88944   6.658  26.150   1.494
16520W        W88945   3.772  24.925  14.926
16521W        W88946   8.148  35.009  10.727
16522W        W88947  19.933  18.180   4.952
16523W        W88948  20.637  36.835  13.916
16524W        W88949   2.852  20.677   1.245
16525W        W88950  28.693  27.416  14.319
16526W        W88951  30.053  27.962   0.477
16527W        W88952  30.395  15.663   4.578
16528W        W88953  41.579  14.274  14.157
16529W        W88954  23.170  15.533  12.626
16530W        W88955   0.327  32.824   1.203
16531W        W88956  30.127  10.598   1.418
16532W        W88957   2.405  29.217   1.916
16533W        W88958  20.077  25.781  13.091
16534W        W88959  16.437  19.789  12.379
16535W        W88960  32.642  15.115   2.698
16536W        W88961   5.368   4.175  10.656
16537W        W88962   9.424  35.984   0.425
16538W        W88963   2.255  29.091  13.476
16539W        W88964  36.704  31.633   0.052
16540W        W88965  14.803  42.377   4.294
16541W        W88966  17.815  39.652  11.606
16542W        W88967   2.754  18.067   4.723
16543W        W88968  13.718   1.243  14.495
16544W        W88969  12.287  11.809  12.649
16545W        W88970   0.918  30.211   3.176
16546W        W88971  41.766  40.436  13.451
16547W        W88972   9.642  17.588   3.241
16548W        W88973  37.546   9.180   0.406
16549W        W88974   1.525  14.195   3.625
16550W        W88975  35.435  25.726  11.080
16551W        W88976  28.614   1.389   4.110
16552W        W88977  41.888  21.866   4.026
16553W        W88978  22.416   3.958   1.399
16554W        W88979  18.336  24.676  10.995
16555W        W88980  25.142  15.852  11.202
16556W        W88981  17.133  32.099  12.867
16557W        W88982   6.152  12.134   2.653
16558W        W88983  10.199  24.877   5.068
16559W        W88984  41.742  36.424   2.044
16560W        W88985   8.659   3.310   1.791
16561W        W88986  12.037  30.506  10.712
16562W        W88987   8.211  24.476  10.819
16563W        W88988  26.923  31.960  14.017
16564W        W88989   3.519   1.425   1.976
16565W        W88990  29.072  14.347   2.210
16566W        W88991  33.963  30.089   3.207
16567W        W88992  27.648   6.350  11.499
16568W        W88993  21.526  15.808   2.880
16569W        W88994  31.872  15.280  14.385
16570W        W88995  22.317  29.932   0.301
16571W        W88996  17.685  18.911  13.939
16572W        W88997  40.463  16.016  11.071
16573W        W88998   6.609   6.707  12.886
16574W        W88999  29.851  24.438  10.918
16575W        W89000  15.719  28.500   4.247
16576W        W89001  20.873  11.242  13.948
16577W        W89002  20.795   7.470  14.543
16578W        W89003  32.654  18.852  12.858
16579W        W89004  30.993  44.034  13.035
16580W        W89005   2.463  13.395   2.316
16581W        W89006  18.695  26.748   2.162
16582W        W89007  38.266  19.732   0.263
16583W        W89008  30.054  13.562   1.742
16584W        W89009   1.412  37.848  10.677
16585W        W89010  14.188  38.808   1.295
16586W        W89011   7.789  38.728  12.075
16587W        W89012  31.083   5.318   1.336
16588W        W89013   4.842  43.398   4.485
16589W        W89014   7.960   3.904  13.885
16590W        W89015  32.172  40.066   2.311
16591W        W89016  42.244  31.648  14.561
16592W        W89017  32.188  33.336   0.993
16593W        W89018  10.147  25.212  11.706
16594W        W89019   4.813  43.326   1.336
16595W        W89020  29.508  23.388   0.546
16596W        W89021  19.095   3.367  12.818
16597W        W89022   0.041   8.753   1.691
16598W        W89023  19.948   4.091   4.158
16599W        W89024  37.934  33.127   3.314
16600W        W89025  39.067  17.276  12.923
16601W        W89026  36.459  15.696  13.039
16602W        W89027  28.426  29.523   0.770
16603W        W89028  35.611  38.786  12.420
16604W        W89029  40.495  15.805   0.831
16605W        W89030  33.869  43.946  12.077
16606W        W89031  21.169  13.960  11.923
16607W        W89032  14.029   0.246  12.807
16608W        W89033  21.547  19.047  10.474
16609W        W89034   6.645  13.113  14.268
16610W        W89035  14.813  42.218  11.168
16611W        W89036  39.594  35.119   0.748
16612W        W89037  23.247  28.616   2.784
16613W        W89038  24.499  12.529  11.936
16614W        W89039  34.813  19.667   1.961
16615W        W89040  41.057  19.968  13.360
16616W        W89041  26.557  42.305  14.755
16617W        W89042  14.971  44.486  13.293
16618W        W89043  24.668  20.139  12.499
16619W        W89044  33.438  16.119  11.772
16620W        W89045  22.053  41.960  14.493
16621W        W89046   5.819  44.243   2.228
16622W        W89047   1.199  21.185  13.410
16623W        W89048   7.355  22.621   1.084
16624W        W89049  24.175  23.377   3.639
16625W        W89050  33.727  10.176  11.260
16626W        W89051  25.703  19.745  13.963
16627W        W89052  18.424  44.030  10.979
16628W        W89053  20.700  40.226   0.969
16629W        W89054  24.942   5.172   4.589
16630W        W89055  38.410   6.152   1.174
16631W        W89056  14.767   9.485  13.487
16632W        W89057   6.858  13.193   3.652
16633W        W89058   4.028  36.471   0.907
16634W        W89059  36.125  33.957  14.951
16635W        W89060  14.998  28.963   2.803
16636W        W89061   6.334  25.975   4.705
16637W        W89062  40.792   3.704  11.267
16638W        W89063  36.478  34.968   2.933
16639W        W89064  26.222  41.600  14.561
16640W        W89065  13.340   4.795   3.506
16641W        W89066  13.141  33.762   2.719
16642W        W89067  42.444  14.274  12.446
16643W        W89068  16.613   7.880  13.318
16644W        W89069  19.496  12.673   2.383
16645W        W89070  25.619  31.078  14.761
16646W        W89071  32.608  15.583   2.926
16647W        W89072  13.299  26.015  11.210
16648W        W89073  36.145  41.309   1.682
16649W        W89074  11.191  23.258  11.458
16650W        W89075  14.055   1.331   3.176
16651W        W89076   8.838  11.805   4.153
16652W        W89077  23.532  20.688   0.333
16653W        W89078  41.457   4.641   0.741
16654W        W89079  17.118  22.703   3.244
16655W        W89080  36.250  35.343   1.659
16656W        W89081  13.626   1.567   3.352
16657W        W89082  10.398  36.548   1.053
16658W        W89083  17.721  17.808  14.755
16659W        W89084  25.125  33.047  10.621
16660W        W89085  15.709  41.334   2.609
16661W        W89086  22.162  31.445  12.260
16662W        W89087  22.541  26.451   4.600
16663W        W89088  41.387  44.785  11.735
16664W        W89089   3.384  29.141  14.590
16665W        W89090  22.993  17.099  12.369
16666W        W89091  34.795  25.126   5.163
16667W        W89092  22.592  18.828   3.443
16668W        W89093   7.359  17.620   2.692
16669W        W89094   1.466  29.472   4.435
16670W        W89095  11.131   8.617   2.161
16671W        W89096  41.813   7.712  13.414
16672W        W89097  36.919  11.467  11.542
16673W        W89098  28.502  33.057   5.483
16674W        W89099   2.569  35.105  14.778
16675W        W89100  23.589  26.497   0.655
16676W        W89101  12.187  21.619   0.313
16677W        W89102  43.765  13.392  14.491
16678W        W89103  29.150  24.150  14.070
16679W        W89104  32.518  26.130  14.560
16680W        W89105  12.073  14.135   4.197
16681W        W89106  33.372  14.115  13.268
16682W        W89107  31.348   2.890   0.847
16683W        W89108  18.041  31.588  12.018
16684W        W89109  18.980  16.511   1.885
16685W        W89110  33.381  11.648   2.608
16686W        W89111  32.628  13.860  12.934
16687W        W89112  12.656  41.388   1.375
16688W        W89113  43.604  30.914  12.088
16689W        W89114   5.030   7.261  14.715
16690W        W89115  42.645  34.490  13.552
16691W        W89116  37.440   9.464  12.446
16692W        W89117   0.942  17.105  10.622
16693W        W89118  41.972  41.461  13.786
16694W        W89119  20.751  41.298  11.959
16695W        W89120  18.066   6.410   2.387
16696W        W89121  42.079  27.923  13.659
16697W        W89122   5.930  37.579   1.299
16698W        W89123  13.050  33.677  13.398
16699W        W89124  41.273  24.306  13.295
16700W        W89125  32.395   8.513   1.217
16701W        W89126  11.895   7.245  13.552
16702W        W89127  12.170  17.852   3.771
16703W        W89128   6.274  30.455  12.547
16704W        W89129  21.506  12.115  13.053
16705W        W89130  37.040   7.692   1.815
16706W        W89131  22.069  32.099  12.639
16707W        W89132  38.551   5.728   4.736
16708W        W89133   1.417   0.908   4.262
16709W        W89134  44.131  41.498  14.810
16710W        W89135  21.008   2.478   2.583
16711W        W89136  37.501  11.383  10.349
16712W        W89137  29.504  17.057  10.444
16713W        W89138  17.226   5.882   2.408
16714W        W89139  29.962  26.157  13.336
16715W        W89140  24.031  34.055   1.826
16716W        W89141  17.693   9.767   0.010
16717W        W89142  21.949  39.692   1.290
16718W        W89143  38.016  27.354  14.807
16719W        W89144  21.410  12.824   0.972
16720W        W89145  37.738  16.338  11.186
16721W        W89146  11.052   5.253  14.389
16722W        W89147  11.239  12.774  10.625
16723W        W89148  26.132  38.921  12.091
16724W        W89149  19.588  35.515  11.291
16725W        W89150  15.174  31.662   2.783
16726W        W89151  37.610  16.832   2.357
16727W        W89152  10.786  36.181   4.189
16728W        W89153  22.955  35.577   4.855
16729W        W89154  13.557   4.958   2.277
16730W        W89155  35.778   2.677   4.163
16731W        W89156  27.507   1.044   0.932
16732W        W89157  11.417   5.908   1.947
16733W        W89158  30.890  16.832   2.504
16734W        W89159   2.721   7.309  13.389
16735W        W89160   8.296  10.662   4.502
16736W        W89161  17.602   6.440   1.725
16737W        W89162  22.137  11.257   0.186
16738W        W89163  41.676  28.239   2.256
16739W        W89164  12.100  22.631   3.522
16740W        W89165  27.471   6.007   0.267
16741W        W89166  32.381  40.354   2.735
16742W        W89167   8.884  21.527  14.436
16743W        W89168   6.267   4.140  14.919
16744W        W89169  29.774   8.309   4.660
16745W        W89170  24.540   4.970  10.615
16746W        W89171  37.615  28.907   4.548
16747W        W89172   1.288  17.669  13.664
16748W        W89173  11.744  26.992  12.468
16749W        W89174  16.659  37.171  10.805
16750W        W89175  40.636  18.163  13.549
16751W        W89176  24.327   7.149   3.255
16752W        W89177  38.193  10.098   4.257
16753W        W89178  37.763  43.386   4.758
16754W        W89179   6.756   1.011  13.296
16755W        W89180   3.844   4.696   1.391
16756W        W89181   4.803  33.270  12.513
16757W        W89182   7.540  38.340   5.144
16758W        W89183  36.069  31.745   0.661
16759W        W89184  34.886  26.336  10.676
16760W        W89185  37.364   8.343  13.808
16761W        W89186  35.161  18.961  13.917
16762W        W89187  23.388  34.312  13.014
16763W        W89188   7.237  10.357   0.995
16764W        W89189  42.107  16.625  13.031
16765W        W89190  23.213   6.295   3.565
16766W        W89191  22.995  39.839   4.713
16767W        W89192  13.779  12.701   0.030
16768W        W89193  30.462  15.923   4.109
16769W        W89194  43.367   4.660  14.396
16770W        W89195  37.594  21.464  14.804
16771W        W89196   3.854  26.019  14.782
16772W        W89197   6.000  12.414   1.314
16773W        W89198  23.547  21.040   1.682
16774W        W89199  43.526  21.769   1.363
16775W        W89200  28.351  33.412   2.075
16776W        W89201  25.940   1.423   2.861
16777W        W89202  29.201   0.382  12.878
16778W        W89203  36.445  30.267   4.380
16779W        W89204   7.751  27.590  13.412
16780W        W89205  43.441  36.400   4.694
16781W        W89206  43.354   8.225  13.751
16782W        W89207  29.089   0.758   1.646
16783W        W89208  33.578  43.723  13.397
16784W        W89209   3.146  32.984  13.405
16785W        W89210  43.993  34.339  11.915
16786W        W89211   9.730   3.670   1.792
16787W        W89212  37.781  41.495  14.434
16788W        W89213   2.767  38.300  11.540
16789W        W89214  22.526  16.061   4.169
16790W        W89215  30.568  18.756   3.598
16791W        W89216  24.938  35.138   2.845
16792W        W89217   7.695   2.985  13.923
16793W        W89218  14.050  11.665   4.183
16794W        W89219  17.637  24.359  13.439
16795W        W89220  16.185  38.872   3.626
16796W        W89221  27.055  41.488  11.436
16797W        W89222  44.073   6.750   2.384
16798W        W89223  31.145   9.121   2.262
16799W        W89224  22.649  42.264   4.440
16800W        W89225  29.081  42.510  11.672
16801W        W89226  35.365  13.814   0.737
16802W        W89227  36.564  37.844  11.741
16803W        W89228  41.032  33.662  12.458
16804W        W89229  39.439   6.459  13.798
16805W        W89230   2.164  12.211  13.007
16806W        W89231  20.575  11.843  13.844
16807W        W89232  17.645  36.092  13.815
16808W        W89233  29.610   7.470  11.099
16809W        W89234  10.785  34.738  12.461
16810W        W89235  43.757  13.921  14.533
16811W        W89236  35.784  41.047  10.689
16812W        W89237  36.248  18.523  11.650
16813W        W89238  35.120  11.615  12.860
16814W        W89239  15.595  17.887   0.485
16815W        W89240  17.639  36.096  12.824
16816W        W89241  43.709  43.479   0.222
16817W        W89242  33.159   4.368  13.732
16818W        W89243   3.837  38.974  11.588
16819W        W89244   1.822  28.998  11.172
16820W        W89245   7.923  28.857   0.963
16821W        W89246  28.656   2.817   1.715
16822W        W89247  10.345  21.671   2.321
16823W        W89248  14.591   3.993  13.696
16824W        W89249  37.574  11.940  11.099
16825W        W89250  22.787   9.382   4.577
16826W        W89251  35.245   7.075  11.470
16827W        W89252  28.154  25.502   0.910
16828W        W89253  12.578  14.604   0.793
16829W        W89254  24.018   9.576   2.207
16830W        W89255   5.770  22.516  12.002
16831W        W89256  18.998  26.630   0.404
16832W        W89257  38.105  18.965   3.844
16833W        W89258  43.895  13.599  14.936
16834W        W89259   5.691  42.789   3.248
16835W        W89260  40.083   9.982  12.045
16836W        W89261   0.877  38.299   2.806
16837W        W89262  21.674  35.874   2.271
16838W        W89263  31.896  10.542   2.814
16839W        W89264   3.325  40.706  11.281
16840W        W89265  37.978  36.482  11.650
16841W        W89266  11.706   2.316   3.707
16842W        W89267  20.754  10.253  13.757
16843W        W89268  10.359   7.806   3.150
16844W        W89269  29.709   1.254   4.876
16845W        W89270  30.621  18.083  11.637
16846W        W89271   5.293  12.368  10.791
16847W        W89272   2.754  33.831   3.725
16848W        W89273  31.002  35.939  11.599
16849W        W89274  39.240  44.478  14.959
16850W        W89275  28.489  32.030  12.053
16851W        W89276   0.800  30.576  12.462
16852W        W89277  12.390  25.924   0.035
16853W        W89278  30.107  36.525   2.336
16854W        W89279  40.556   4.298  13.447
16855W        W89280   3.058  10.307   0.935
16856W        W89281   3.170  38.481   1.286
16857W        W89282  21.090  12.169   1.150
16858W        W89283  18.326  39.360  13.228
16859W        W89284   9.967  15.371   3.761
16860W        W89285  40.311  22.444   1.810
16861W        W89286  24.236  28.010  12.613
16862W        W89287  39.456   6.650   3.365
16863W        W89288  36.761  31.062   4.940
16864W        W89289   7.500  17.854   2.221
16865W        W89290  36.863  36.747   1.832
16866W        W89291  24.098   2.515   1.042
16867W        W89292  39.315   6.482  11.997
16868W        W89293  35.675  28.653  13.100
16869W        W89294  35.389  42.387  14.295
16870W        W89295  18.532  40.115  14.401
16871W        W89296  22.073  34.869   2.182
16872W        W89297   3.411  40.381   3.401
16873W        W89298  16.656  39.788   4.496
16874W        W89299   8.758  42.706   1.564
16875W        W89300   6.157  14.752  14.534
16876W        W89301  17.624  20.107  13.106
16877W        W89302  25.490  26.961   3.202
16878W        W89303  38.580  24.120   4.506
16879W        W89304  26.273  25.078  11.489
16880W        W89305  29.415  40.521  11.092
16881W        W89306   4.743  18.999   3.082
16882W        W89307   2.519  39.818   4.114
16883W        W89308  44.861  30.753  11.632
16884W        W89309   1.044  19.298   2.673
16885W        W89310  14.110  13.810  12.609
16886W        W89311  35.812  26.144   1.413
16887W        W89312  26.967  19.971   4.437
16888W        W89313  37.063  32.460   0.715
16889W        W89314   9.051  15.231  12.901
16890W        W89315   3.750   1.408   0.003
16891W        W89316  10.560  19.288  12.260
16892W        W89317  41.970  41.085  10.680
16893W        W89318  43.261  12.714   1.696
16894W        W89319   3.786  17.633   2.721
16895W        W89320   6.757  34.992   1.663
16896W        W89321  36.987  14.653  14.460
16897W        W89322  20.828  18.209   3.875
16898W        W89323  39.787  33.831   3.710
16899W        W89324  21.496  29.534  10.727
16900W        W89325  12.271   4.522   1.942
16901W        W89326   6.945  16.387  11.600
16902W        W89327  43.806  41.032  14.558
16903W        W89328  37.860  36.620  14.839
16904W        W89329   5.644  22.174  14.427
16905W        W89330   3.230   1.924  12.590
16906W        W89331  33.830  14.356  12.927
16907W        W89332  43.883   9.192  14.726
16908W        W89333  29.992  43.498   3.201
16909W        W89334   2.429  10.764  10.754
16910W        W89335   8.202  11.978  14.935
16911W        W89336   3.622  25.559  14.879
16912W        W89337   4.343  38.520   2.522
16913W        W89338  36.653  24.121   0.479
16914W        W89339  31.243  16.296  14.449
16915W        W89340  30.435  15.771   1.445
16916W        W89341   0.052   0.508  11.576
16917W        W89342   8.141   4.131  12.658
16918W        W89343  37.852  39.336  12.528
16919W        W89344  14.892  29.027   0.989
16920W        W89345   4.002   3.288  12.070
16921W        W89346   6.979   1.535  13.516
16922W        W89347  36.386  40.881  13.944
16923W        W89348  36.167  36.337   3.606
16924W        W89349  32.414  22.725  14.377
16925W        W89350  13.405  20.720  13.003
16926W        W89351  25.077   5.263  12.774
16927W        W89352  41.389  24.358  12.011
16928W        W89353  13.444  34.005  13.104
16929W        W89354  10.075  33.484   1.861
16930W        W89355  21.519   3.722   2.330
16931W        W89356  44.351   0.553   1.369
16932W        W89357  20.345  17.734   0.836
16933W        W89358   5.863  34.363  11.594
16934W        W89359   1.315   9.331   4.399
16935W        W89360   7.396   4.278  11.670
16936W        W89361  19.054  36.928  10.694
16937W        W89362  16.026  17.146  12.628
16938W        W89363  38.002  27.455  12.503
16939W        W89364  17.704  41.042  12.189
16940W        W89365   7.100   2.768   4.179
16941W        W89366   6.143  41.679  13.984
16942W        W89367  24.906  33.996  12.085
16943W        W89368  41.720  39.694  14.914
16944W        W89369  34.904   9.599   2.921
16945W        W89370  40.471  24.027   5.075
16946W        W89371  40.814  13.091  12.027
16947W        W89372  10.650  11.267   4.646
16948W        W89373  15.111  16.706  14.133
16949W        W89374  20.568   0.299  10.684
16950W        W89375  33.479  36.123   0.272
16951W        W89376  37.057  39.543   3.724
16952W        W89377  12.824  15.292  13.789
16953W        W89378  13.231   8.354  13.920
16954W        W89379  39.435  13.324  11.098
16955W        W89380  15.912  42.845  13.791
16956W        W89381   3.830  21.937  11.146
16957W        W89382  40.004   4.275   2.413
16958W        W89383  10.119  19.311  11.708
16959W        W89384  15.775   9.472  11.101
16960W        W89385  29.053  31.117   2.433
16961W        W89386   9.414  17.721  12.937
16962W        W89387  23.634   8.789   0.680
16963W        W89388  24.560  19.594  14.863
16964W        W89389  34.699  26.665   1.891
16965W        W89390  16.839  21.114   3.357
16966W        W89391  30.186   7.666   5.338
16967W        W89392  19.043  43.413   0.980
16968W        W89393   3.338  35.914   4.759
16969W        W89394  39.818  28.616   4.349
16970W        W89395  17.733   2.225   3.263
16971W        W89396  41.663   0.469   1.547
16972W        W89397  30.146  26.663   4.573
16973W        W89398  10.858  14.770  11.230
16974W        W89399  25.678   4.238   0.186
16975W        W89400  31.034  26.731   3.756
16976W        W89401  25.124   6.450   3.337
16977W        W89402  39.061  15.711  11.600
16978W        W89403  29.390  43.252   1.026
16979W        W89404  43.332   7.578  11.453
16980W        W89405   1.014  25.517   1.722
16981W        W89406   7.941   0.779   2.015
16982W        W89407  25.062  13.628   4.645
16983W        W89408   9.037  31.775  12.565
16984W        W89409  26.393  23.740  12.576
16985W        W89410  20.976   7.365   1.867
16986W        W89411  40.233  24.688   3.660
16987W        W89412  19.111   2.415  13.550
16988W        W89413  17.590  23.813   0.516
16989W        W89414  33.561  25.826  12.420
16990W        W89415  21.396  29.377  13.572
16991W        W89416  40.265  32.586  12.384
16992W        W89417  16.615   9.592  10.627
16993W        W89418  10.298  18.533   1.709
16994W        W89419  37.352   9.831  10.888
16995W        W89420  18.308  42.539  14.483
16996W        W89421   4.350  29.205   1.396
16997W        W89422  39.527  11.467  14.880
16998W        W89423   8.336   1.340   3.328
16999W        W89424  11.403  11.613   0.473
17000W        W89425   7.962  11.917   2.325
17001W        W89426   2.541  18.695  13.841
17002W        W89427  41.302  19.146  12.116
17003W        W89428  33.558   5.944  10.092
17004W        W89429  40.389  26.700  13.104
17005W        W89430  34.993  28.054  14.542
17006W        W89431   5.996   8.268  14.834
17007W        W89432  28.383   1.409   1.751
17008W        W89433   6.432  18.821   4.592
17009W        W89434  18.497  16.341   3.186
17010W        W89435  17.907  13.204  11.465
17011W        W89436  23.426  11.916   0.925
17012W        W89437  38.813  23.567  11.546
17013W        W89438  31.488  31.944  10.255
17014W        W89439  28.037   0.367   3.481
17015W        W89440  32.122  30.144  11.594
17016W        W89441  33.870  34.042   1.230
17017W        W89442  26.675  16.639   0.475
17018W        W89443  11.731  42.606  11.239
17019W        W89444   3.434  39.411  12.445
17020W        W89445  37.819  29.479   0.868
17021W        W89446  44.977  32.477  14.799
17022W        W89447  18.264  36.992  11.179
17023W        W89448  30.143  17.104  11.118
17024W        W89449  24.142   2.383   0.558
17025W        W89450  36.514  29.661   2.163
17026W        W89451  28.928  14.767   0.064
17027W        W89452   2.831  33.155  12.158
17028W        W89453   7.336   2.834  10.962
17029W        W89454  22.768  27.249   1.758
17030W        W89455  42.873   0.709   2.352
17031W        W89456  41.135   7.689   0.376
17032W        W89457  27.436  18.140  13.117
17033W        W89458  15.228   3.628  14.238
17034W        W89459   1.277  42.891  13.539
17035W        W89460   9.748  13.183   2.383
17036W        W89461  39.800  20.321  13.048
17037W        W89462   2.385  38.548  11.264
17038W        W89463   4.326  34.065   1.756
17039W        W89464   2.633  41.175  13.532
17040W        W89465  36.929  44.386  12.075
17041W        W89466  13.925  38.878   4.329
17042W        W89467  13.164  19.051   0.754
17043W        W89468  33.656  34.999  11.607
17044W        W89469  27.520  37.499  14.346
17045W        W89470   0.049  44.326   1.534
17046W        W89471   9.413   4.430  14.797
17047W        W89472  33.564  11.721   2.135
17048W        W89473  25.760  20.192   1.731
17049W        W89474  13.719  27.626  13.088
17050W        W89475   4.909  23.633  12.044
17051W        W89476  13.669  44.526   1.231
17052W        W89477   2.667  24.163   2.849
17053W        W89478  41.186  25.435   3.766
17054W        W89479   6.643   2.284   3.364
17055W        W89480  32.851   5.170   0.857
17056W        W89481  16.203  13.169  10.642
17057W        W89482  14.679   9.418  10.389
17058W        W89483  14.373  12.849   4.650
17059W        W89484  18.060  43.526   4.915
17060W        W89485  22.256  42.996  12.427
17061W        W89486  32.041  17.950   1.155
17062W        W89487  37.913  14.561  10.525
17063W        W89488  23.677   1.885   3.791
17064W        W89489   9.820  28.453  12.277
17065W        W89490  30.200   6.855  12.965
17066W        W89491  23.401  11.447   4.579
17067W        W89492  12.269  10.918   1.219
17068W        W89493  13.869  12.840  10.434
17069W        W89494  34.402  10.688   0.953
17070W        W89495  20.700  26.818   4.457
17071W        W89496  21.651  31.711  13.551
17072W        W89497   9.714  20.740  11.931
17073W        W89498  19.214  10.414   1.968
17074W        W89499   1.726  24.220   2.613
17075W        W89500   3.136   9.747  14.924
17076W        W89501  19.041  31.490  12.558
17077W        W89502  13.961  43.188   3.608
17078W        W89503  38.097  21.552  11.601
17079W        W89504  43.351  23.696  12.580
17080W        W89505  31.545  17.297   0.365
17081W        W89506  17.022   4.987   0.139
17082W        W89507  33.164  23.776  10.300
17083W        W89508  38.334  13.840  12.015
17084W        W89509  11.373  16.249  11.678
17085W        W89510  21.231   1.341  10.748
17086W        W89511  19.059  25.228  11.160
17087W        W89512  16.008  41.392  12.508
17088W        W89513   6.284  36.944   9.460
17089W        W89514  12.005   1.251   0.373
17090W        W89515  18.557  30.462  13.334
17091W        W89516  30.369  30.536  14.988
17092W        W89517   2.435  34.399  14.477
17093W        W89518  36.842   8.431  13.976
17094W        W89519  30.202   4.164  11.206
17095W        W89520  43.989  14.843   0.339
17096W        W89521   4.498  25.631  11.812
17097W        W89522   5.238  29.176   1.393
17098W        W89523  18.421  35.138  12.962
17099W        W89524  12.678   8.692  12.860
17100W        W89525   9.168  38.508  14.754
17101W        W89526  38.959  21.801   1.247
17102W        W89527  35.828  33.949   2.832
17103W        W89528  30.624  30.992   0.059
17104W        W89529   7.487  42.329   3.347
17105W        W89530  36.975   2.359   3.501
17106W        W89531  22.342   5.786   3.683
17107W        W89532   8.976  29.452  12.887
17108W        W89533  19.294  15.595   4.766
17109W        W89534  42.811  20.237   2.763
17110W        W89535  36.546  28.929  14.130
17111W        W89536  28.507  24.485  11.112
17112W        W89537  31.566   7.871   2.368
17113W        W89538  38.769  41.251   1.419
17114W        W89539  10.766  22.463   2.797
17115W        W89540  37.336  44.402   0.039
17116W        W89541   8.631  38.817   2.556
17117W        W89542  37.057  12.179   0.737
17118W        W89543  11.842  43.276   0.433
17119W        W89544   2.716  39.930  14.236
17120W        W89545  34.442  32.499   2.047
17121W        W89546  34.347  11.803   2.955
17122W        W89547  28.546  43.862  14.256
17123W        W89548  12.154  19.801   3.862
17124W        W89549  18.960  29.138  13.909
17125W        W89550  39.062  31.747  11.419
17126W        W89551   0.552  25.184  11.224
17127W        W89552  36.927  27.687   3.785
17128W        W89553  32.036   0.259   2.271
17129W        W89554   2.769  42.291   2.190
17130W        W89555   8.680  28.855   3.322
17131W        W89556  37.092   4.529  10.418
17132W        W89557  26.164  14.094   3.352
17133W        W89558  15.397   8.558  14.391
17134W        W89559  20.028  30.619   2.990
17135W        W89560  12.738   4.493   2.344
17136W        W89561  18.564  27.038  14.370
17137W        W89562  42.574   6.918   1.240
17138W        W89563  12.780   2.677  13.893
17139W        W89564   0.408  10.237  11.136
17140W        W89565  37.887  34.121  14.519
17141W        W89566  30.389  26.675  13.302
17142W        W89567  22.618  29.993   4.113
17143W        W89568   6.715  42.806  13.289
17144W        W89569   7.292   5.742   0.278
17145W        W89570  35.641  44.418   1.200
17146W        W89571  24.729  37.833   4.002
17147W        W89572  25.911  33.887   3.168
17148W        W89573   4.248  29.768  10.898
17149W        W89574  32.632  14.764  14.468
17150W        W89575  11.523  43.330  12.711
17151W        W89576   5.378  29.715  12.942
17152W        W89577  12.609  34.004   2.718
17153W        W89578  31.663  20.315  14.909
17154W        W89579   8.279  44.213   0.229
17155W        W89580  17.152  31.549   1.421
17156W        W89581  23.728  14.685   4.621
17157W        W89582  28.776  29.417  11.512
17158W        W89583  25.098   9.975   4.159
17159W        W89584  29.405   9.307  10.684
17160W        W89585   6.420   5.881   4.987
17161W        W89586  21.004  25.943   2.383
17162W        W89587  14.555  38.992   5.094
17163W        W89588   3.845  24.508   1.134
17164W        W89589  36.091  33.647   0.375
17165W        W89590  33.773   4.158  11.174
17166W        W89591  34.957  28.348   4.311
17167W        W89592  35.574  23.519   4.211
17168W        W89593   8.834  44.779   0.728
17169W        W89594  37.808  23.618  13.150
17170W        W89595  32.951  16.266   0.161
17171W        W89596   8.444   5.299  13.460
17172W        W89597  11.237  39.080   4.732
17173W        W89598  12.111  34.903   2.812
17174W        W89599  40.653  14.277   5.042
17175W        W89600  34.418  35.611  14.277
17176W        W89601  11.815  27.641   3.680
17177W        W89602  39.592  11.690  13.974
17178W        W89603   4.889   5.727   4.954
17179W        W89604  37.304   4.207  13.812
17180W        W89605  18.805   8.823  14.771
17181W        W89606  44.888  20.748  12.511
17182W        W89607  41.026   8.384   2.435
17183W        W89608   7.266  19.616  12.371
17184W        W89609  38.769  35.298  12.911
17185W        W89610   9.962  36.045   0.426
17186W        W89611  17.990  10.700   4.977
17187W        W89612  19.543  41.978   1.918
17188W        W89613  18.561  16.411   4.086
17189W        W89614   9.289  13.584   1.157
17190W        W89615  18.219  25.204  13.387
17191W        W89616  11.385  30.951  11.093
17192W        W89617  14.503  43.013   3.638
17193W        W89618  12.728  44.341  14.877
17194W        W89619  38.808  32.119  11.155
17195W        W89620  43.478  24.149  13.327
17196W        W89621  12.796  21.812  11.073
17197W        W89622  37.479  28.012  14.768
17198W        W89623   0.904  30.476   3.747
17199W        W89624  36.546  15.092   4.219
17200W        W89625  38.413  42.180  10.170
17201W        W89626  17.859  23.979  12.820
17202W        W89627  33.474  43.028   0.247
17203W        W89628  20.760   8.712   2.268
17204W        W89629  20.985  22.702   4.523
17205W        W89630  25.375  31.465   0.092
17206W        W89631  18.691  44.827  10.307
17207W        W89632  31.755  35.570  10.623
17208W        W89633  19.092  35.475   0.569
17209W        W89634  26.667  34.002   3.643
17210W        W89635  42.236   3.423   2.130
17211W        W89636  31.058  25.647  11.136
17212W        W89637   8.229   8.758  13.462
17213W        W89638   1.261  21.312  14.369
17214W        W89639  36.573  19.305  13.850
17215W        W89640   0.241  10.918   2.813
17216W        W89641  35.674   4.815   4.126
17217W        W89642  42.801  15.803   0.483
17218W        W89643   0.322   0.037   3.474
17219W        W89644   3.715  25.564   4.197
17220W        W89645  23.680   7.643   1.396
17221W        W89646  22.202  35.503  12.090
17222W        W89647  22.036   2.384   3.917
17223W        W89648  39.881   2.716   0.042
17224W        W89649  17.852   7.758   4.387
17225W        W89650  40.186  16.695  12.589
17226W        W89651   8.666  43.977   4.936
17227W        W89652   7.357  15.579  11.566
17228W        W89653  14.880  16.250   0.094
17229W        W89654  11.290  41.357  14.481
17230W        W89655  42.092  17.593   4.497
17231W        W89656  31.664  42.508   2.707
17232W        W89657   0.927  23.664  10.734
17233W        W89658  20.039  24.267   5.137
17234W        W89659  41.036  40.811   2.661
17235W        W89660  23.752  41.946   2.238
17236W        W89661   9.293  32.660   2.334
17237W        W89662  36.398  26.987   0.285
17238W        W89663  13.242  17.825   2.830
17239W        W89664  36.990  35.427   1.221
17240W        W89665  16.323  12.320  10.748
17241W        W89666   2.857  25.415  12.623
17242W        W89667  22.956  31.583  11.638
17243W        W89668  13.984   8.143   3.246
17244W        W89669   4.759  16.369  10.177
17245W        W89670  22.162  31.388   0.384
17246W        W89671  29.699   7.645  11.584
17247W        W89672  28.040  24.778   4.681
17248W        W89673  37.542  42.104  13.385
17249W        W89674  13.405  23.781   5.103
17250W        W89675   2.766  10.705  14.358
17251W        W89676   8.672  25.896   2.418
17252W        W89677   5.616  17.972   2.423
17253W        W89678   1.107  12.227   0.216
17254W        W89679  17.617  22.272   2.329
17255W        W89680   5.568  25.389   3.643
17256W        W89681  15.810  35.447   2.905
17257W        W89682  42.270  12.136   2.322
17258W        W89683  20.976  36.650  11.698
17259W        W89684  11.165   4.287  12.513
17260W        W89685  12.238   1.924  14.823
17261W        W89686  17.796  43.200   5.235
17262W        W89687  16.026   4.732   1.246
17263W        W89688  14.831   5.822  13.787
17264W        W89689  18.341  15.302   1.352
17265W        W89690  18.645  10.396   4.406
17266W        W89691  37.928  32.507  12.367
17267W        W89692   9.830  37.120   2.904
17268W        W89693  23.744   0.190  14.500
17269W        W89694  20.024  39.879  11.202
17270W        W89695  26.503  37.102   2.670
17271W        W89696  35.543  20.655   0.996
17272W        W89697  44.870   2.277   2.905
17273W        W89698   9.928  43.888  13.399
17274W        W89699   6.947  25.502  12.607
17275W        W89700  25.570  34.567  12.643
17276W        W89701  31.987  44.346  13.318
17277W        W89702   9.395  21.967   0.827
17278W        W89703  19.106  29.519   4.122
17279W        W89704  12.310   7.974   1.275
17280W        W89705  16.141  42.384  10.707
17281W        W89706  37.158   0.978   4.704
17282W        W89707  20.517  39.827   1.269
17283W        W89708  34.562   8.350  14.427
17284W        W89709  14.771  39.955  11.714
17285W        W89710  26.919  32.428  13.180
17286W        W89711  30.162  29.551  13.924
17287W        W89712   1.775   0.887   2.905
17288W        W89713   0.196  31.517  11.010
17289W        W89714  34.056  34.073   2.941
17290W        W89715  10.456  35.995  11.084
17291W        W89716   0.573   2.778  13.100
17292W        W89717  25.096  36.090   3.626
17293W        W89718  25.704  42.023   3.686
17294W        W89719   6.826  10.403   1.627
17295W        W89720  38.536  16.728  14.945
17296W        W89721  11.950  34.980  11.140
17297W        W89722  20.507  10.567   0.252
17298W        W89723  29.048  43.032  11.667
17299W        W89724  43.515   7.308   2.084
17300W        W89725  16.349   2.517  14.462
17301W        W89726  38.502  38.573   0.353
17302W        W89727  24.912  25.232   4.405
17303W        W89728  14.750  36.902   1.775
17304W        W89729  43.046  19.682   3.098
17305W        W89730  15.316  38.997  11.890
17306W        W89731  28.412   4.304  11.592
17307W        W89732  20.033  11.224   0.748
17308W        W89733  42.345  15.376   3.734
17309W        W89734  33.011   2.244   2.219
17310W        W89735  13.098   2.922  12.074
17311W        W89736  22.078  18.399  13.716
17312W        W89737  43.344   9.151  12.927
17313W        W89738   0.674  38.958   1.935
17314W        W89739  16.118  14.749   2.417
17315W        W89740  26.350  16.678  13.542
17316W        W89741  28.257  29.055  12.139
17317W        W89742  42.266  43.900   1.862
17318W        W89743  16.782   6.668   1.248
17319W        W89744  41.268  27.187   2.835
17320W        W89745  30.992  40.577   1.693
17321W        W89746  11.842   9.843  14.458
17322W        W89747  24.238  43.187  11.935
17323W        W89748  13.243  10.241  13.338
17324W        W89749   3.258  30.440  10.322
17325W        W89750  32.376   0.786   4.844
17326W        W89751  33.003   8.230   3.905
17327W        W89752  23.733  30.642   2.605
17328W        W89753  31.902  24.479   0.952
17329W        W89754   6.757  19.517  12.566
17330W        W89755  19.360  40.800   3.687
17331W        W89756   8.014  22.476   4.889
17332W        W89757  31.929  23.777  13.977
17333W        W89758  10.302   6.414   2.792
17334W        W89759   7.827   8.188   2.226
17335W        W89760  39.362  24.441   0.926
17336W        W89761  11.212  43.966   1.825
17337W        W89762  15.306  16.184  10.665
17338W        W89763   2.844  19.131   1.667
17339W        W89764  38.251   5.792   0.809
17340W        W89765  28.048  32.144   0.772
17341W        W89766  44.347  18.157   3.368
17342W        W89767   8.451  44.195  10.238
17343W        W89768  19.793  30.867  11.586
17344W        W89769  26.778  41.262   1.919
17345W        W89770  22.720  37.006  11.664
17346W        W89771  25.149  23.783  13.994
17347W        W89772  20.590  12.179  12.448
17348W        W89773   4.806  36.997   1.042
17349W        W89774  18.286  11.307   3.302
17350W        W89775   9.432  24.163  12.880
17351W        W89776  37.929  29.333  11.064
17352W        W89777  31.463  13.700  11.954
17353W        W89778   9.778  28.353  14.841
17354W        W89779   7.191  31.971  13.310
17355W        W89780  39.665  19.809   4.115
17356W        W89781  35.308  44.931   2.183
17357W        W89782  12.126  19.422   1.857
17358W        W89783  31.973  30.456   1.091
17359W        W89784  19.177  22.151   3.709
17360W        W89785  27.661  29.123  13.529
17361W        W89786  10.310  38.248  10.586
17362W        W89787  36.309   4.902  13.429
17363W        W89788  25.572  10.182   2.478
17364W        W89789  11.745  29.144   3.664
17365W        W89790   5.709  14.087   0.118
17366W        W89791  15.702  43.440  14.951
17367W        W89792  30.959  36.275   4.083
17368W        W89793  40.697   0.863  14.780
17369W        W89794  27.439   0.768  12.478
17370W        W89795   8.311  14.948  11.141
17371W        W89796   5.749   2.353   3.340
17372W        W89797   6.713  20.953   2.292
17373W        W89798  30.017  26.601   1.298
17374W        W89799   4.485   5.179  12.111
17375W        W89800   3.443  14.247  11.958
17376W        W89801  15.481  16.276  12.889
17377W        W89802  17.639  16.151   4.328
17378W        W89803   0.448   4.749   3.206
17379W        W89804   7.871  13.736  11.679
17380W        W89805   7.287  38.135   0.316
17381W        W89806  22.229  39.262   1.297
17382W        W89807  16.260  34.149   3.219
17383W        W89808  22.554  21.196  10.471
17384W        W89809  37.889  26.268   0.835
17385W        W89810  17.143   0.307  13.759
17386W        W89811  41.303  38.816   4.126
17387W        W89812  27.457  11.900   4.161
17388W        W89813  18.704   0.743  14.257
17389W        W89814   1.392  28.338  12.083
17390W        W89815  17.461  15.044  14.916
17391W        W89816  15.522   0.381   0.358
17392W        W89817  38.562  24.968   3.266
17393W        W89818  13.545  30.627   0.354
17394W        W89819  21.021  34.895   3.256
17395W        W89820  23.289  35.583   3.599
17396W        W89821  15.867  42.992  13.297
17397W        W89822   3.497  14.135   2.347
17398W        W89823  10.221  12.843   3.476
17399W        W89824  20.068  35.066  13.947
17400W        W89825  32.043  43.775  10.292
17401W        W89826  18.554  43.829  14.724
17402W        W89827  21.323  15.644  12.487
17403W        W89828  12.633  30.634  12.540
17404W        W89829  32.063  39.496   4.605
17405W        W89830   1.706  29.113   2.280
17406W        W89831  34.870  20.730   4.165
17407W        W89832  41.437  30.449   4.015
17408W        W89833  27.450  10.144  10.758
17409W        W89834  21.949  34.010  13.939
17410W        W89835  41.885  22.404  13.487
17411W        W89836  25.216  12.557  13.059
17412W        W89837  41.888  34.012   3.327
17413W        W89838   3.401  19.104  14.273
17414W        W89839  22.769  31.475   2.318
17415W        W89840   6.375  36.138  10.200
17416W        W89841  38.456  16.235   2.315
17417W        W89842  17.121  21.635   3.324
17418W        W89843  32.918  41.121  11.966
17419W        W89844  12.437  34.841  11.249
17420W        W89845  13.040   3.071  14.838
17421W        W89846  20.125  27.551  13.022
17422W        W89847  25.153  24.646  13.919
17423W        W89848  34.592  10.308   3.825
17424W        W89849  22.755   4.949   1.780
17425W        W89850  37.328  16.031  11.292
17426W        W89851  38.374  29.425  12.878
17427W        W89852  27.966  18.691   3.737
17428W        W89853  40.885  29.905  11.575
17429W        W89854  11.123  14.560  10.850
17430W        W89855   9.697  40.817  14.695
17431W        W89856  38.984  13.971   3.178
17432W        W89857  26.146  17.637   3.123
17433W        W89858   1.019  29.494  12.065
17434W        W89859   6.088   0.418  11.517
17435W        W89860   4.811  33.931   0.436
17436W        W89861   3.759   5.895   3.651
17437W        W89862  42.546  31.184  11.629
17438W        W89863  27.017  39.265  10.877
17439W        W89864  41.362  24.057  10.639
17440W        W89865   1.487  41.594  13.146
17441W        W89866  32.926  32.801   3.645
17442W        W89867  20.731  31.921  10.413
17443W        W89868  16.885  27.390  14.804
17444W        W89869   2.036   8.123  11.721
17445W        W89870   4.374  15.789   1.987
17446W        W89871  43.275   8.135  10.674
17447W        W89872  29.979  15.785  14.262
17448W        W89873  44.946  39.388   3.841
17449W        W89874  32.375  37.052   2.798
17450W        W89875  10.070   4.761   2.454
17451W        W89876   7.174  19.735  12.861
17452W        W89877  38.831  12.063  11.908
17453W        W89878  44.217  17.618   3.882
17454W        W89879  10.258  32.522  13.370
17455W        W89880   1.982  20.284  13.013
17456W        W89881   5.250  17.208   0.665
17457W        W89882  37.650  24.605  10.399
17458W        W89883  34.590  39.517   0.950
17459W        W89884  36.284  29.482   0.804
17460W        W89885  31.066  28.603   2.770
17461W        W89886  16.796  41.794   4.789
17462W        W89887  24.311  38.331   2.193
17463W        W89888  42.480  33.179   1.023
17464W        W89889  20.626  27.760   3.384
17465W        W89890  37.817  39.318  10.662
17466W        W89891  19.578  38.900  12.672
17467W        W89892  11.404  35.385   3.285
17468W        W89893  12.196   5.692  10.686
17469W        W89894  30.235  31.995  13.031
17470W        W89895  22.597  17.658  11.528
17471W        W89896  11.643   7.090  12.668
17472W        W89897  26.116  18.114   0.949
17473W        W89898  28.689  33.498   3.234
17474W        W89899  23.597  31.586  12.584
17475W        W89900  17.430  14.347  11.128
17476W        W89901  24.523   7.240  13.896
17477W        W89902   4.453  37.259  12.681
17478W        W89903  19.360  12.365  14.945
17479W        W89904   5.778   0.269   2.130
17480W        W89905  33.061  23.249   2.274
17481W        W89906  35.473  25.006   4.994
17482W        W89907  33.001   7.408   2.245
17483W        W89908   6.476   4.718  12.010
17484W        W89909  14.768  36.672  13.392
17485W        W89910  24.180  20.103  13.412
17486W        W89911  22.992  32.746  12.503
17487W        W89912  14.928  24.918  11.286
17488W        W89913  22.430  22.436   1.897
17489W        W89914  32.936  27.687   3.254
17490W        W89915   7.200  37.863   2.458
17491W        W89916   0.027  24.517  14.785
17492W        W89917  21.838  19.149   0.743
17493W        W89918  27.859  36.866   3.760
17494W        W89919  15.782  34.651  10.846
17495W        W89920  14.323  39.125   4.648
17496W        W89921  39.310   0.072   1.109
17497W        W89922  13.755  26.241  10.599
17498W        W89923  20.018   4.425   3.201
17499W        W89924  26.114  15.376   0.250
17500W        W89925  39.648  13.193  12.366
17501W        W89926   9.183  21.648   2.477
17502W        W89927  32.018  33.920   2.765
17503W        W89928  22.174  41.074  11.015
17504W        W89929  18.782  31.000  12.408
17505W        W89930  11.645  21.225   5.110
17506W        W89931  15.907  15.353  12.433
17507W        W89932  35.529   5.169  10.824
17508W        W89933  32.954   4.360  14.822
17509W        W89934   1.454  36.112   3.132
17510W        W89935   6.576  38.626   2.641
17511W        W89936  36.925   2.637  12.878
17512W        W89937  44.424  29.757   2.290
17513W        W89938  39.636  19.520  14.979
17514W        W89939  21.607  36.144  11.917
17515W        W89940  39.946   5.222  14.728
17516W        W89941  13.683  35.979  11.489
17517W        W89942  13.610   1.817  10.247
17518W        W89943  26.632  40.638   0.628
17519W        W89944  19.056   4.241  12.673
17520W        W89945  43.906  29.400  12.404
17521W        W89946   6.168  23.800   0.289
17522W        W89947  11.546  32.648   3.069
17523W        W89948  22.510   5.588   2.989
17524W        W89949  39.621  15.586   4.126
17525W        W89950   3.885  15.713   4.227
17526W        W89951  22.076   0.967   0.837
17527W        W89952  26.635  26.401  12.075
17528W        W89953  15.182  11.085   4.526
17529W        W89954  11.877   9.784   3.666
17530W        W89955  34.157  18.591   4.966
17531W        W89956   0.038  42.275  14.400
17532W        W89957  41.876   8.589   1.732
17533W        W89958  13.770   7.209  13.016
17534W        W89959  41.307  20.622  12.047
17535W        W89960   1.019  34.418   2.153
17536W        W89961  13.808  25.984   3.340
17537W        W89962  24.253   7.752  14.495
17538W        W89963  38.444  31.185   1.720
17539W        W89964  22.940  13.628   4.279
17540W        W89965  32.785  37.360   2.659
17541W        W89966  35.147  28.330  13.814
17542W        W89967  40.367   8.353   3.839
17543W        W89968   0.387  39.113  11.401
17544W        W89969  44.057  38.067  11.021
17545W        W89970  13.751  14.292   3.792
17546W        W89971  13.616   6.679   0.864
17547W        W89972   8.409  21.471  10.407
17548W        W89973  34.474  20.079  11.058
17549W        W89974   2.818  19.665  12.938
17550W        W89975  26.726  25.182   0.763
17551W        W89976   8.183  21.638   2.732
17552W        W89977  33.036  36.805  12.632
17553W        W89978  26.982  33.195  12.928
17554W        W89979   9.689  20.970  11.048
17555W        W89980  35.165   6.927  13.888
17556W        W89981  40.317   0.310  13.016
17557W        W89982   5.263   4.771   4.172
17558W        W89983  17.594   2.486  12.007
17559W        W89984   5.643  33.801   0.005
17560W        W89985   7.957  29.159   4.644
17561W        W89986   2.459  10.879  12.181
17562W        W89987  34.934  43.877   0.345
17563W        W89988  11.751   7.458  13.052
17564W        W89989   9.136  13.128   1.421
17565W        W89990   4.876   3.483   1.850
17566W        W89991  30.265  34.998  11.256
17567W        W89992  44.892  26.161   0.002
17568W        W89993   8.100   8.688  11.189
17569W        W89994   7.181   6.212  12.471
17570W        W89995   0.442  20.955  10.506
17571W        W89996  38.397  44.806   2.368
17572W        W89997  44.311  26.926  11.517
17573W        W89998  32.970   3.356   3.061
17574W        W89999   3.031   2.281  13.431
17575W        W90000  11.130  16.573  11.008
17576W        W90001  37.070  14.614  11.689
17577W        W90002  12.694  19.698   4.527
17578W        W90003  43.915  23.271  11.491
17579W        W90004  25.737   2.000  10.268
17580W        W90005  32.563  38.152  11.170
17581W        W90006  41.660   9.539   3.413
17582W        W90007   9.614  10.428   1.747
17583W        W90008  37.979  42.559  11.605
17584W        W90009  16.221   8.805   2.968
17585W        W90010  35.999  19.302   0.715
17586W        W90011  16.566  41.581   0.851
17587W        W90012  10.342  21.755   3.190
17588W        W90013  31.361  19.745   2.825
17589W        W90014  17.558  34.082  10.994
17590W        W90015   7.804   5.863   4.579
17591W        W90016  24.771  32.628   2.732
17592W        W90017  43.051  16.355  12.867
17593W        W90018  43.227   0.590  13.272
17594W        W90019  16.129  11.406  10.632
17595W        W90020  29.548  30.456   9.798
17596W        W90021  25.560  12.202   4.536
17597W        W90022  35.565  15.265   2.089
17598W        W90023  24.720   8.959   5.012
17599W        W90024  35.872   4.742   3.179
17600W        W90025  36.394   7.586  12.878
17601W        W90026  30.028  39.652  13.602
17602W        W90027  20.255  29.139  11.711
17603W        W90028  38.950  26.239   1.376
17604W        W90029  37.124   7.270   3.263
17605W        W90030  40.989  11.676   0.500
17606W        W90031  23.827  36.490   3.781
17607W        W90032  34.936  19.413  13.736
17608W        W90033  37.784  13.393   4.867
17609W        W90034   4.985  32.572   4.336
17610W        W90035  36.974  28.009  14.373
17611W        W90036  19.745  24.960   0.211
17612W        W90037  13.591  30.941   1.952
17613W        W90038   8.057   6.916   4.343
17614W        W90039  16.318  42.701   2.825
17615W        W90040  27.738  19.212  13.808
17616W        W90041  37.539  23.238  11.034
17617W        W90042  10.351  35.473  11.008
17618W        W90043  29.741  17.237   2.071
17619W        W90044  42.065  44.454   5.013
17620W        W90045  37.600  28.920   2.227
17621W        W90046  30.094   1.462  11.871
17622W        W90047  16.112   7.913   0.823
17623W        W90048  29.446  44.378  12.464
17624W        W90049   3.321  15.195   2.498
17625W        W90050   9.932  17.621  12.968
17626W        W90051  28.144  23.322   3.395
17627W        W90052   2.129   2.359   4.033
17628W        W90053  42.724  17.785   2.143
17629W        W90054  19.598  16.004  14.405
17630W        W90055  38.079  20.716   0.711
17631W        W90056  22.133  27.168  13.362
17632W        W90057  19.054  23.979  12.199
17633W        W90058  34.113  32.543  12.391
17634W        W90059  15.986  39.086   2.640
17635W        W90060  28.593  33.757   4.711
17636W        W90061  44.836  17.787  11.167
17637W        W90062  39.483  31.523   3.202
17638W        W90063  43.551   9.258  11.538
17639W        W90064  17.137  18.488   4.668
17640W        W90065  44.255  36.391   2.763
17641W        W90066  10.781  19.171   2.812
17642W        W90067   4.307  33.331   0.820
17643W        W90068  40.056  30.521   2.969
17644W        W90069  44.802  11.638   3.300
17645W        W90070  43.945  27.251   3.626
17646W        W90071  14.142   8.883   1.626
17647W        W90072  17.701   4.734   2.254
17648W        W90073  10.175   5.903   2.685
17649W        W90074  30.629  31.366   0.449
17650W        W90075   7.638  24.020   3.347
17651W        W90076  36.326  27.363  11.201
17652W        W90077   8.793   8.716  10.530
17653W        W90078  13.757  11.066   2.401
17654W        W90079  10.830  17.640   3.276
17655W        W90080   7.004  32.406   1.796
17656W        W90081   3.514  43.361   0.856
17657W        W90082  41.332  17.149   4.167
17658W        W90083  23.021  11.846   2.773
17659W        W90084   6.328  19.002  13.859
17660W        W90085  20.686  39.712   0.794
17661W        W90086  18.361  15.795   3.877
17662W        W90087  32.692  41.912  13.049
17663W        W90088  26.613   7.437   3.792
17664W        W90089  20.550  23.965   0.528
17665W        W90090  33.557  10.357   4.665
17666W        W90091   5.846  30.994   2.577
17667W        W90092  24.499  33.871   0.376
17668W        W90093  36.942  24.011  11.839
17669W        W90094   8.691  35.319   2.402
17670W        W90095  38.817   6.345   2.371
17671W        W90096   3.200   0.047   3.146
17672W        W90097  42.893  19.298  12.468
17673W        W90098  16.354  10.163   1.199
17674W        W90099  20.853  14.331  10.112
17675W        W90100  13.167  22.527   4.504
17676W        W90101  31.894   1.317  11.160
17677W        W90102  17.683  25.185  12.185
17678W        W90103  36.309  23.035   0.409
17679W        W90104  38.420  38.360  14.345
17680W        W90105  10.717  35.086   4.803
17681W        W90106  27.962   7.136  14.534
17682W        W90107  15.753   2.686  12.593
17683W        W90108   4.475  37.140  10.658
17684W        W90109  36.912  44.555  11.217
17685W        W90110  30.119  16.242   2.504
17686W        W90111  10.829  21.590   4.320
17687W        W90112  15.035   0.954  10.293
17688W        W90113   2.859  29.146   2.739
17689W        W90114  37.558  37.450  13.911
17690W        W90115  36.331   2.735   3.285
17691W        W90116  15.827  22.940  10.599
17692W        W90117  23.786  40.471   2.263
17693W        W90118  42.453  17.537   0.777
17694W        W90119  18.279  24.723   4.129
17695W        W90120   3.719  31.231   1.688
17696W        W90121  21.963  28.052   1.158
17697W        W90122  34.015  12.826   3.216
17698W        W90123   2.650  39.689   0.829
17699W        W90124  43.970  16.770   2.160
17700W        W90125   8.887   9.323   4.563
17701W        W90126  22.272  28.025   0.732
17702W        W90127  14.750  41.896   0.426
17703W        W90128   0.882  21.273   2.732
17704W        W90129   4.809  33.520   0.752
17705W        W90130  15.157  42.955   0.342
17706W        W90131   2.404  31.575   2.235
17707W        W90132  24.135  43.513   1.214
17708W        W90133  44.796  12.705  12.532
17709W        W90134   3.726  35.838   2.632
17710W        W90135  28.138  12.703   2.287
17711W        W90136  26.136  43.000  14.760
17712W        W90137  24.764  22.570  14.539
17713W        W90138  16.894  43.756  13.557
17714W        W90139  42.862  15.190   1.694
17715W        W90140  15.016   4.323   0.032
17716W        W90141  35.168  41.896  12.941
17717W        W90142  10.689  41.521  12.352
17718W        W90143   7.592   5.921   2.742
17719W        W90144  16.315  27.986   3.694
17720W        W90145   6.810   4.501  11.043
17721W        W90146  41.441  16.255  11.158
17722W        W90147  42.855  19.992   0.815
17723W        W90148  44.283   0.920  14.544
17724W        W90149  28.565   8.175  14.035
17725W        W90150  19.633  24.259   3.303
17726W        W90151   2.790  34.288   0.827
17727W        W90152  34.340  33.006   4.613
17728W        W90153   1.696  42.005  14.069
17729W        W90154  18.156  22.233   2.301
17730W        W90155  38.337  17.382   2.921
17731W        W90156   3.746  35.428  14.277
17732W        W90157  25.851   9.906  12.842
17733W        W90158  35.801  25.104  11.530
17734W        W90159   2.767  11.631  13.834
17735W        W90160  32.179   7.396   4.327
17736W        W90161   5.451  23.507  10.694
17737W        W90162   6.346  42.291   4.836
17738W        W90163  35.610  11.567  12.980
17739W        W90164  38.310   9.398   2.830
17740W        W90165  41.156  32.855   1.000
17741W        W90166  18.951  19.262  14.412
17742W        W90167  33.919   9.891  12.579
17743W        W90168  25.009  13.640   2.235
17744W        W90169  39.815  22.789  11.595
17745W        W90170   4.399   4.895  11.684
17746W        W90171  37.400  43.397   3.598
17747W        W90172  34.857   2.823  10.688
17748W        W90173  10.750   1.024   3.636
17749W        W90174  23.146  21.628   3.221
17750W        W90175  35.411   1.930   2.737
17751W        W90176  35.944  10.087  12.637
17752W        W90177  35.844  29.391   3.467
17753W        W90178  39.818  21.790  13.857
17754W        W90179   1.735   5.907   0.973
17755W        W90180  13.907  15.615  13.464
17756W        W90181  25.738  16.092   0.751
17757W        W90182  41.195  41.533  13.352
17758W        W90183  29.174  33.561  13.365
17759W        W90184  36.268  20.881   4.216
17760W        W90185  23.272  38.828   3.139
17761W        W90186  17.508  15.859   1.764
17762W        W90187  22.680  41.201  12.647
17763W        W90188  13.655  12.384   0.799
17764W        W90189  21.799  18.323  12.860
17765W        W90190  43.046  16.098   3.810
17766W        W90191  22.850   7.693  11.481
17767W        W90192   8.927  36.409  14.990
17768W        W90193  21.416   4.948  12.408
17769W        W90194   0.047  23.522   1.036
17770W        W90195  15.997  34.212   1.991
17771W        W90196  21.748  31.557  14.861
17772W        W90197  13.166  13.705  11.664
17773W        W90198  18.609   9.859   4.292
17774W        W90199   2.417   1.987   3.798
17775W        W90200  22.708  11.752   3.958
17776W        W90201   3.909  21.534  13.838
17777W        W90202   1.965  27.392   3.496
17778W        W90203  44.223  35.886  11.635
17779W        W90204  31.639  32.589   3.379
17780W        W90205  38.115  31.062   3.080
17781W        W90206   7.110  12.664   1.793
17782W        W90207  39.123  41.494   0.551
17783W        W90208  22.189   6.257   0.646
17784W        W90209   1.427  21.297  10.660
17785W        W90210  20.504  37.858   0.968
17786W        W90211  27.080  19.050   3.864
17787W        W90212  35.390  26.941   4.147
17788W        W90213   6.696   0.459  10.833
17789W        W90214  16.767  21.504  13.779
17790W        W90215  37.339  41.818  11.448
17791W        W90216  36.132  32.615   0.910
17792W        W90217  35.510  17.015  14.926
17793W        W90218  31.477   0.797   4.748
17794W        W90219   1.846   2.241   2.947
17795W        W90220  12.874  20.934  11.592
17796W        W90221  29.271  29.836  12.550
17797W        W90222   5.270  20.610  13.962
17798W        W90223  39.212  38.819  14.917
17799W        W90224  36.402  38.300  11.582
17800W        W90225  26.293  19.724  14.225
17801W        W90226  20.617  42.190   1.746
17802W        W90227  30.918  12.321  14.923
17803W        W90228  24.731  42.105   3.685
17804W        W90229  38.963  30.153  11.194
17805W        W90230   4.118  43.863  14.139
17806W        W90231  18.684  38.574  13.471
17807W        W90232  27.982  33.009   5.358
17808W        W90233  28.219  18.224   0.940
17809W        W90234   1.016  43.374   2.267
17810W        W90235  13.399   1.764  12.579
17811W        W90236  20.574  12.420   2.917
17812W        W90237  41.293  31.518   2.413
17813W        W90238  19.206   9.633  13.401
17814W        W90239  22.715  42.951  14.983
17815W        W90240   9.399  33.213   1.302
17816W        W90241  17.609   8.248   0.253
17817W        W90242  28.006  37.441  14.679
17818W        W90243  32.555  27.470   0.886
17819W        W90244  38.875  18.001   2.268
17820W        W90245  23.555  27.539   0.200
17821W        W90246  41.910  38.953  10.199
17822W        W90247  15.255   0.623   4.711
17823W        W90248   6.155   4.916  12.821
17824W        W90249  40.101   7.123   3.625
17825W        W90250  17.030  42.782   3.582
17826W        W90251  39.877  42.817  10.634
17827W        W90252  32.132  15.272   3.594
17828W        W90253  22.149  25.250   1.647
17829W        W90254  24.657  27.289   2.620
17830W        W90255  19.064  19.150   4.497
17831W        W90256  33.578  32.846   4.405
17832W        W90257  43.354   3.921   3.911
17833W        W90258   2.171  40.745  12.680
17834W        W90259  14.757  38.479  13.769
17835W        W90260  13.381  24.308   4.356
17836W        W90261   8.625  11.139  11.158
17837W        W90262   9.901  21.748   0.808
17838W        W90263  12.761  43.477  10.444
17839W        W90264  17.046   6.330   4.694
17840W        W90265   2.222  34.040   0.818
17841W        W90266  27.531  42.890  13.607
17842W        W90267  29.185   1.305  11.597
17843W        W90268  22.255   6.745   0.844
17844W        W90269  33.106   0.514  10.953
17845W        W90270  34.490  12.205   2.643
17846W        W90271  38.983  23.301  12.356
17847W        W90272  38.317  20.616   0.245
17848W        W90273   8.041  13.113  12.967
17849W        W90274  44.922  17.331  12.944
17850W        W90275  20.619  35.005   4.940
17851W        W90276  13.334   9.446  11.096
17852W        W90277   8.898  44.939   1.899
17853W        W90278  39.934  35.015  14.556
17854W        W90279   9.454  11.680  12.133
17855W        W90280  41.525  20.679   4.196
17856W        W90281  19.782  13.159   4.062
17857W        W90282  16.668  44.019  12.107
17858W        W90283  23.371  14.315  12.114
17859W        W90284  12.765  33.537   4.016
17860W        W90285  29.783   7.109  11.465
17861W        W90286   7.772  30.072  11.007
17862W        W90287  21.981  13.537  14.563
17863W        W90288   0.511  40.301  12.145
17864W        W90289  36.100  27.104  12.342
17865W        W90290   9.796  20.143  13.666
17866W        W90291  40.393   7.389  13.992
17867W        W90292  35.806   9.368   2.369
17868W        W90293  14.680   2.700   3.889
17869W        W90294   0.455  41.868  12.063
17870W        W90295  39.267  36.106   1.054
17871W        W90296  16.116  42.125  11.141
17872W        W90297  23.956   0.923   1.439
17873W        W90298  21.505  27.252  10.591
17874W        W90299  28.277  27.035   2.300
17875W        W90300  29.396   5.922   3.230
17876W        W90301  11.108  22.118  13.868
17877W        W90302  33.755   5.263   3.810
17878W        W90303  16.349  39.319  13.509
17879W        W90304  17.347   8.365   1.031
17880W        W90305  12.730   5.909   3.721
17881W        W90306  35.043  26.390  14.792
17882W        W90307  18.638  26.027  14.073
17883W        W90308  31.821  33.114   4.560
17884W        W90309  24.026  36.082   2.792
17885W        W90310  22.725  35.536   2.708
17886W        W90311  22.666  40.219   2.731
17887W        W90312  18.577   4.400   3.943
17888W        W90313  19.696  23.443   1.080
17889W        W90314  35.466  43.816   2.813
17890W        W90315  35.721  19.698   4.855
17891W        W90316  23.602  41.396   2.168
17892W        W90317  14.702  42.760   1.019
17893W        W90318  20.052   5.679  12.441
17894W        W90319  13.067  28.414   2.327
17895W        W90320   0.875  41.619  11.931
17896W        W90321  16.870  29.996   1.616
17897W        W90322  15.282  22.649   3.673
17898W        W90323   0.333   7.860   0.425
17899W        W90324   9.600   5.806  13.752
17900W        W90325  36.431  31.177   3.598
17901W        W90326  12.216  39.566  14.919
17902W        W90327   0.493  26.436  12.173
17903W        W90328  15.646  42.388   3.268
17904W        W90329  38.929   1.337   0.680
17905W        W90330  19.612   6.249   1.468
17906W        W90331   1.316  26.563  11.891
17907W        W90332   6.880   6.523  11.446
17908W        W90333  14.807  32.045  12.664
17909W        W90334  31.114  27.573   4.882
17910W        W90335  26.057  35.096   0.289
17911W        W90336   8.653  41.057  12.978
17912W        W90337  43.842  27.726  11.018
17913W        W90338  41.399   7.176  13.992
17914W        W90339  37.523  29.095   3.652
17915W        W90340   1.111  12.801  13.024
17916W        W90341  28.157  38.498  12.755
17917W        W90342   3.234   3.235  14.266
17918W        W90343   0.535  29.520   0.965
17919W        W90344  35.990  20.990  11.999
17920W        W90345  27.520  34.327   4.716
17921W        W90346  17.848  25.769  14.481
17922W        W90347  10.614  23.822   1.694
17923W        W90348   4.369  29.603  12.318
17924W        W90349  35.091  33.213   0.255
17925W        W90350  39.332  25.620   1.468
17926W        W90351  14.174  24.626   1.739
17927W        W90352  19.619   9.155  14.871
17928W        W90353  40.029  26.584  13.893
17929W        W90354  16.776  31.445  11.620
17930W        W90355   5.203   8.707   4.549
17931W        W90356  28.601  30.168  14.730
17932W        W90357  23.761   2.679  12.064
17933W        W90358   1.948  33.489  14.789
17934W        W90359  37.622  31.253   3.288
17935W        W90360  13.299  37.344   1.327
17936W        W90361  40.919  23.658   0.749
17937W        W90362  44.080  30.373  12.137
17938W        W90363  15.565   6.312  11.407
17939W        W90364  42.078  36.817  14.701
17940W        W90365  43.322  33.942   3.676
17941W        W90366  37.425   5.440  12.523
17942W        W90367   7.745  22.812  13.033
17943W        W90368  38.583  44.049   5.285
17944W        W90369   5.805  20.619  12.204
17945W        W90370  15.100  39.028   2.455
17946W        W90371  16.701  33.641  14.268
17947W        W90372   8.758  43.233   2.245
17948W        W90373  31.844  37.518  13.915
17949W        W90374  29.506  22.318   2.864
17950W        W90375  19.006  34.321   2.295
17951W        W90376  37.527   5.681   1.915
17952W        W90377  25.443  35.830   0.436
17953W        W90378  39.854   9.781  14.335
17954W        W90379   5.429  28.396  13.518
17955W        W90380  13.152  19.756   2.434
17956W        W90381  20.399  15.795  11.969
17957W        W90382  38.254  24.000   1.279
17958W        W90383   3.942  16.969  10.477
17959W        W90384  32.723  11.813   1.755
17960W        W90385  39.322  32.915   4.888
17961W        W90386  23.125  42.481   3.347
17962W        W90387  44.561  40.988   1.739
17963W        W90388  41.050  23.785  14.774
17964W        W90389  15.093   1.397   3.031
17965W        W90390  32.019  12.674  11.902
17966W        W90391  29.479   3.776  11.439
17967W        W90392  34.660   0.332   2.262
17968W        W90393  39.598  33.669   2.613
17969W        W90394   4.676  37.528   2.347
17970W        W90395  41.966  44.368   3.117
17971W        W90396  25.101  22.564  12.384
17972W        W90397  26.641  26.633  11.266
17973W        W90398  37.353  17.132   2.732
17974W        W90399  44.906   9.679  11.350
17975W        W90400  23.762  44.266  12.024
17976W        W90401   1.357  21.794   0.979
17977W        W90402  23.027  18.728  12.085
17978W        W90403  20.939  33.923  11.063
17979W        W90404  18.304  31.793   4.572
17980W        W90405  16.610   3.938  10.628
17981W        W90406  38.447  32.081   3.775
17982W        W90407  27.510  28.565  14.978
17983W        W90408  14.101  41.272   0.177
17984W        W90409   3.879   1.502  10.672
17985W        W90410  23.676   7.768   0.883
17986W        W90411   7.779  26.219   2.756
17987W        W90412   2.230  15.894   4.647
17988W        W90413  42.380  44.249   3.915
17989W        W90414  35.302  24.990  11.562
17990W        W90415   1.962  23.258   1.987
17991W        W90416  31.594  29.953   4.740
17992W        W90417   9.886  29.709  12.916
17993W        W90418  19.626   6.124   3.655
17994W        W90419   6.234  13.108  12.570
17995W        W90420  37.419  14.278  10.674
17996W        W90421  41.417   3.392  14.713
17997W        W90422  28.488  39.924   1.698
17998W        W90423  21.285  27.610   4.692
17999W        W90424  20.838  40.595   0.041
18000W        W90425  33.422  10.217   1.162
18001W        W90426  39.483  32.523   4.603
18002W        W90427   9.850  36.175  11.939
18003W        W90428  23.403  41.352  12.878
18004W        W90429  19.731  39.411  11.220
18005W        W90430   5.101   4.420  11.019
18006W        W90431  44.853  17.120   1.195
18007W        W90432   8.745  39.965   2.723
18008W        W90433  15.155  26.880  12.968
18009W        W90434  40.827  42.006  13.825
18010W        W90435  43.491   1.343  13.401
18011W        W90436  33.606   1.712  11.181
18012W        W90437  37.818  37.597   3.258
18013W        W90438   8.842  36.673   1.726
18014W        W90439   7.338  25.775   3.920
18015W        W90440  40.925  29.202   2.107
18016W        W90441  27.986  33.934   2.700
18017W        W90442  34.811  13.881   2.286
18018W        W90443  15.531  27.513   4.063
18019W        W90444   0.676  17.907  10.230
18020W        W90445   5.949   4.297   1.373
18021W        W90446  15.867  38.966   4.376
18022W        W90447  10.218  15.318  13.510
18023W        W90448  10.798  38.391   1.844
18024W        W90449   9.968  17.504   1.839
18025W        W90450  16.290  26.545  10.375
18026W        W90451  41.892   0.833   2.768
18027W        W90452  13.382  37.790  11.074
18028W        W90453  41.386  20.686   0.466
18029W        W90454  14.638  42.342   0.716
18030W        W90455  11.443  42.798  12.672
18031W        W90456  34.641  20.233   1.279
18032W        W90457   7.958  25.466  13.992
18033W        W90458  44.697  16.635   1.277
18034W        W90459   6.804  11.060  12.016
18035W        W90460  39.538  30.460   1.364
18036W        W90461   9.907   1.813  11.848
18037W        W90462  15.136  41.575   0.467
18038W        W90463  32.639  42.827  14.553
18039W        W90464  15.698   4.406  13.316
18040W        W90465  39.104  24.937  12.044
18041W        W90466  12.369  22.406  10.245
18042W        W90467  10.076  12.851   0.305
18043W        W90468  39.355  37.896   0.820
18044W        W90469  38.345  27.526  13.359
18045W        W90470   8.756  12.734  13.845
18046W        W90471  13.066  12.827  13.440
18047W        W90472  21.019  19.286   4.693
18048W        W90473   6.169   4.320   2.259
18049W        W90474   8.651  23.947   3.613
18050W        W90475  15.910  21.579   4.199
18051W        W90476   0.868  18.340  11.045
18052W        W90477  21.082  42.292  10.778
18053W        W90478   2.377   0.928  13.089
18054W        W90479   2.265  30.077   0.420
18055W        W90480  40.040  15.137  13.017
18056W        W90481  19.683  14.290  13.048
18057W        W90482  12.142   0.718  12.281
18058W        W90483  25.742  24.255  14.431
18059W        W90484  11.490  36.124  11.022
18060W        W90485  14.098  34.445  12.560
18061W        W90486  40.293  40.883   0.298
18062W        W90487   2.932  17.324  10.650
18063W        W90488  44.265  40.241  12.514
18064W        W90489   1.097  26.630   3.685
18065W        W90490   2.230   6.171  11.730
18066W        W90491   9.167   4.700  14.383
18067W        W90492  21.720  16.277  11.579
18068W        W90493  29.468  13.465   2.540
18069W        W90494  42.512   6.125  11.167
18070W        W90495   9.794   9.000  14.672
18071W        W90496  27.620   0.079   4.272
18072W        W90497  22.588   2.978   2.161
18073W        W90498  17.095   3.904  13.405
18074W        W90499  42.514  19.090   4.080
18075W        W90500   4.384  26.303   2.364
18076W        W90501  13.865  20.292  11.509
18077W        W90502  12.642  15.674   0.145
18078W        W90503  21.778   9.815   2.747
18079W        W90504  15.220   1.273  14.530
18080W        W90505  13.398   6.827   2.242
18081W        W90506   9.276  19.258   4.692
18082W        W90507  36.441  20.162   2.305
18083W        W90508  39.432  42.206  10.215
18084W        W90509  33.934  35.407   0.665
18085W        W90510  24.384  15.709   0.705
18086W        W90511   1.007  41.477  10.208
18087W        W90512   0.294  42.161  12.474
18088W        W90513  21.661  19.697  11.110
18089W        W90514  13.877   8.134   1.875
18090W        W90515  43.109   2.462   3.558
18091W        W90516  23.484  44.561   9.905
18092W        W90517   4.416  22.967  14.905
18093W        W90518  26.267  32.407  11.891
18094W        W90519   1.824  13.647   1.627
18095W        W90520  29.898  33.423   0.757
18096W        W90521  13.814  42.309   1.837
18097W        W90522   9.961  32.036  11.479
18098W        W90523   5.658  29.118  13.903
18099W        W90524  25.108   6.957   4.224
18100W        W90525  36.510  12.152   3.645
18101W        W90526  14.205  44.422   1.312
18102W        W90527  20.447  35.565   4.190
18103W        W90528  28.093  32.505   3.114
18104W        W90529  35.421  43.525  12.476
18105W        W90530   9.875   9.479  10.219
18106W        W90531  15.707   0.309   0.910
18107W        W90532  26.547  27.688  11.661
18108W        W90533  43.422  17.193   1.577
18109W        W90534  26.992  37.317  14.877
18110W        W90535   8.313   1.434  11.066
18111W        W90536  19.681  40.712  10.825
18112W        W90537   7.810  13.131  14.873
18113W        W90538  26.287  32.974   0.339
18114W        W90539  37.272  16.551  11.164
18115W        W90540  19.321   5.146   0.997
18116W        W90541   7.338  34.306   4.556
18117W        W90542  21.619   8.656   9.777
18118W        W90543  40.444  44.909   5.499
18119W        W90544  43.840  37.257  13.509
18120W        W90545  26.202  16.079  12.841
18121W        W90546  44.438  14.250   3.447
18122W        W90547  19.288  11.848  10.612
18123W        W90548  10.699   7.930   1.933
18124W        W90549  38.439  20.355  11.782
18125W        W90550  34.681  12.380  13.543
18126W        W90551  13.755  30.143  13.555
18127W        W90552  39.711  43.962  10.148
18128W        W90553  36.455  13.842  10.628
18129W        W90554  26.408  14.652  13.052
18130W        W90555   7.190  27.182  12.648
18131W        W90556  37.628  28.569   0.396
18132W        W90557  23.165  40.475  12.308
18133W        W90558  25.641  44.639  10.710
18134W        W90559  10.405  39.748   2.220
18135W        W90560   2.318  18.294  12.394
18136W        W90561  15.333  15.722  14.067
18137W        W90562  38.310  28.111  11.658
18138W        W90563  22.583  10.202  13.998
18139W        W90564  10.196  11.770   3.617
18140W        W90565  34.431  26.096   1.326
18141W        W90566   0.936  29.486   4.541
18142W        W90567  22.280  18.778  14.624
18143W        W90568  16.935  32.469   4.615
18144W        W90569  26.077  44.544   2.252
18145W        W90570  24.229  37.106   2.757
18146W        W90571  29.587   7.383  12.927
18147W        W90572  15.756  44.744   2.266
18148W        W90573  36.551  10.413  11.632
18149W        W90574   4.482  33.413  12.929
18150W        W90575  30.889   5.400   0.829
18151W        W90576  22.596  39.391   2.789
18152W        W90577   1.019   8.877   1.198
18153W        W90578   9.582  33.952   0.972
18154W        W90579  39.844  21.606  12.100
18155W        W90580  15.799  32.606   0.958
18156W        W90581   3.342  18.719  13.444
18157W        W90582  42.037  35.402   3.787
18158W        W90583  25.716  42.792   1.031
18159W        W90584  14.383  12.415   3.812
18160W        W90585  11.083  40.959  14.790
18161W        W90586   7.235  24.792   3.651
18162W        W90587  25.912  14.838  13.021
18163W        W90588  30.578  42.488  11.069
18164W        W90589  27.956  28.675  14.406
18165W        W90590  19.470   3.437   3.773
18166W        W90591  44.291   4.916   3.080
18167W        W90592   9.847  21.727   3.283
18168W        W90593  12.326   2.881  10.631
18169W        W90594   6.165  26.033   2.783
18170W        W90595  11.309  16.542   4.597
18171W        W90596  44.504  32.362  12.997
18172W        W90597  42.242   4.189   2.665
18173W        W90598   2.470  10.287  11.004
18174W        W90599  32.881  15.001   3.203
18175W        W90600  33.628  10.620   1.377
18176W        W90601  10.222  28.975   1.791
18177W        W90602  13.076  10.741  10.510
18178W        W90603  21.032  14.086   1.479
18179W        W90604   9.208  14.202   1.822
18180W        W90605  42.389   5.899  10.736
18181W        W90606  34.380  27.262  12.048
18182W        W90607   4.823  30.197  12.573
18183W        W90608  36.917  41.712   4.243
18184W        W90609  22.701  39.898  12.278
18185W        W90610  16.243   6.963   2.394
18186W        W90611  44.988   2.260  13.314
18187W        W90612  37.946  33.659   0.181
18188W        W90613  29.371   3.583  10.411
18189W        W90614  27.412  33.633  12.926
18190W        W90615   4.359   4.403   2.588
18191W        W90616  14.608  16.814  14.464
18192W        W90617  32.381  35.523   3.867
18193W        W90618   0.275   7.394  14.467
18194W        W90619   7.123  19.340   4.490
18195W        W90620  24.626   4.317   1.263
18196W        W90621  11.087  15.244  11.233
18197W        W90622  21.537   6.085  11.988
18198W        W90623  29.803  17.333  14.115
18199W        W90624  33.916  39.514  12.391
18200W        W90625  18.650  31.232   0.279
18201W        W90626  42.642  28.879  12.512
18202W        W90627  19.226  35.820   1.820
18203W        W90628  37.398  44.202  11.925
18204W        W90629  37.756  13.790  12.347
18205W        W90630  10.665  37.546  11.580
18206W        W90631  39.308  13.417  14.886
18207W        W90632  36.585  12.405  14.255
18208W        W90633   4.873  40.309   4.743
18209W        W90634  27.041  11.959  11.002
18210W        W90635  22.969   9.924   1.037
18211W        W90636  24.729  22.474  12.735
18212W        W90637  19.630  13.685   0.021
18213W        W90638  32.913  16.992   2.789
18214W        W90639  44.674  18.751  13.685
18215W        W90640  39.604  35.035   0.233
18216W        W90641  43.971  14.575   1.233
18217W        W90642   0.596  23.189   4.293
18218W        W90643  20.154  31.012   0.249
18219W        W90644   2.688  19.792   2.405
18220W        W90645  21.023  19.184   2.330
18221W        W90646  34.522   4.188  10.783
18222W        W90647  39.381   1.360   4.239
18223W        W90648  13.693   5.363   4.786
18224W        W90649  40.447  44.345   3.696
18225W        W90650  28.145   2.800   2.824
18226W        W90651  44.386  30.383   1.297
18227W        W90652   2.765  23.753  12.416
18228W        W90653  26.438  34.532  14.908
18229W        W90654   7.755   6.359   3.663
18230W        W90655  14.756  40.377   3.331
18231W        W90656  21.225  21.577  12.920
18232W        W90657   5.327  27.193   3.310
18233W        W90658  33.077   3.453  11.473
18234W        W90659  16.230  30.425   1.251
18235W        W90660  10.251  16.770  13.924
18236W        W90661  29.538  43.723  11.404
18237W        W90662  31.367  24.690   3.695
18238W        W90663   1.997  38.256   4.212
18239W        W90664  32.133  30.368  11.093
18240W        W90665  14.054  11.041  12.756
18241W        W90666  28.060  27.216  12.787
18242W        W90667  18.821  19.368  13.476
18243W        W90668  18.989  15.382  12.587
18244W        W90669  40.501   9.095  10.784
18245W        W90670  24.749  16.635   3.519
18246W        W90671  23.985  34.345  11.047
18247W        W90672  20.005  43.940   4.042
18248W        W90673  28.291  21.897   1.190
18249W        W90674  35.390  24.038  14.770
18250W        W90675  15.792  23.979  13.411
18251W        W90676  37.078  36.317   3.214
18252W        W90677  38.205  33.387  14.302
18253W        W90678   6.516  43.476  11.606
18254W        W90679  12.863  40.114  14.484
18255W        W90680  17.113  25.706   4.192
18256W        W90681  23.131   6.570  12.948
18257W        W90682   6.166  10.624  13.338
18258W        W90683  40.618  24.866  12.283
18259W        W90684  23.224  44.782  10.981
18260W        W90685   9.650  31.590  11.541
18261W        W90686  38.457  30.006  11.227
18262W        W90687   7.798   1.476  10.985
18263W        W90688   7.314  30.399   4.186
18264W        W90689   0.405  29.512  10.962
18265W        W90690  35.469   0.486  14.369
18266W        W90691   1.841  22.291  13.114
18267W        W90692  24.010  24.670  14.409
18268W        W90693  33.710  42.786   1.743
18269W        W90694  34.895  18.419  11.424
18270W        W90695  37.241   7.110   4.608
18271W        W90696  43.568  40.016  14.457
18272W        W90697  16.442  33.399   4.645
18273W        W90698  16.587  11.096  11.058
18274W        W90699  37.255  41.005  14.459
18275W        W90700   7.291   0.642   0.842
18276W        W90701   6.389  11.197  10.708
18277W        W90702  31.963   8.236   1.115
18278W        W90703  25.483  36.688  13.800
18279W        W90704  28.640   6.631   1.315
18280W        W90705  38.818  20.801   4.150
18281W        W90706  34.744  44.264   1.316
18282W        W90707  28.461   7.205  14.347
18283W        W90708  43.387   6.194   4.593
18284W        W90709  29.606   5.526   4.237
18285W        W90710  38.118  10.404  14.025
18286W        W90711  22.667  42.081  10.797
18287W        W90712  44.306  32.869  13.807
18288W        W90713   4.686  15.373  11.557
18289W        W90714  40.287  37.971   1.788
18290W        W90715  10.923  37.091  12.450
18291W        W90716  33.305  19.167  13.425
18292W        W90717  20.489  38.384   4.085
18293W        W90718  39.396  25.869  13.910
18294W        W90719   8.138  35.926  11.551
18295W        W90720  30.995   3.832   2.517
18296W        W90721  44.270   5.297  14.023
18297W        W90722  14.298   6.909  12.024
18298W        W90723  37.276  24.612  14.743
18299W        W90724  25.149  26.875   0.383
18300W        W90725  41.670  35.196   0.472
18301W        W90726  13.644  16.672  12.374
18302W        W90727  19.288  28.544  10.958
18303W        W90728  42.447  38.436  14.481
18304W        W90729   6.315  38.586  11.951
18305W        W90730  26.772  22.090  12.227
18306W        W90731  19.146   0.630  10.649
18307W        W90732  21.777  14.110  13.751
18308W        W90733  29.164  27.181   3.313
18309W        W90734  26.607  17.503  11.394
18310W        W90735  13.088  20.206  11.143
18311W        W90736   2.467  44.905   2.744
18312W        W90737   6.239  24.503   4.579
18313W        W90738  35.077  43.469  12.077
18314W        W90739   2.122  43.911   0.222
18315W        W90740  44.234  10.402  11.210
18316W        W90741  17.360  15.548   1.339
18317W        W90742  41.842  10.592  14.792
18318W        W90743  15.205   2.788   0.896
18319W        W90744  18.999   9.740   4.620
18320W        W90745  18.984  29.755   4.553
18321W        W90746  34.195  28.129   2.418
18322W        W90747  29.379  30.442   0.851
18323W        W90748  30.230  24.708  11.116
18324W        W90749  13.690   8.612  14.008
18325W        W90750  33.774  15.788  13.446
18326W        W90751  15.384  27.888   3.720
18327W        W90752   2.688  34.836  14.361
18328W        W90753  22.504  33.200  10.602
18329W        W90754  21.581   0.784   0.928
18330W        W90755  17.827  26.316  12.463
18331W        W90756  41.102  15.585  14.828
18332W        W90757  44.525  17.659   3.466
18333W        W90758  33.646  13.644   3.831
18334W        W90759  13.590  29.610  13.536
18335W        W90760  15.274  37.332  10.700
18336W        W90761  16.809  10.638   1.901
18337W        W90762  16.370  19.525   1.699
18338W        W90763  25.894  19.651  11.540
18339W        W90764   4.898  10.183  10.754
18340W        W90765  12.651  40.148  10.980
18341W        W90766  40.517  17.809   0.898
18342W        W90767  37.100   2.176  11.309
18343W        W90768  37.865  14.631   0.863
18344W        W90769  22.231  23.278   2.800
18345W        W90770  39.386  40.117  12.445
18346W        W90771  29.976  36.280  14.435
18347W        W90772  27.742  36.363   0.487
18348W        W90773  39.979  38.800   0.871
18349W        W90774  15.925  41.912  11.935
18350W        W90775  30.428  28.571   4.009
18351W        W90776  23.936  14.588   0.957
18352W        W90777  43.866   3.979  13.031
18353W        W90778  38.874   1.255   4.111
18354W        W90779   3.324   3.058   0.956
18355W        W90780  42.542   5.740  14.976
18356W        W90781  29.141  10.664  10.687
18357W        W90782  18.517  39.263   4.845
18358W        W90783  15.177   9.602  14.048
18359W        W90784  21.481  16.074   1.321
18360W        W90785   5.702  14.748   2.713
18361W        W90786  31.513   8.818  12.540
18362W        W90787  10.825  24.011   2.955
18363W        W90788  30.832  31.389   2.467
18364W        W90789   2.360  18.760  10.412
18365W        W90790  35.024  44.619  11.308
18366W        W90791   9.410  10.341   1.257
18367W        W90792  39.950  13.094   1.130
18368W        W90793  44.835  19.587  12.942
18369W        W90794   7.788  20.299  14.717
18370W        W90795   1.246  44.657  12.081
18371W        W90796  41.502   4.461  10.669
18372W        W90797   8.062  34.705   2.153
18373W        W90798  32.925   6.121   1.929
18374W        W90799  22.962  23.210  14.238
18375W        W90800  29.422  33.360   4.057
18376W        W90801   8.373  29.619  11.532
18377W        W90802  34.893  37.961  13.084
18378W        W90803  30.385  39.762   4.553
18379W        W90804  31.953   0.051  12.052
18380W        W90805   2.884   2.349   1.478
18381W        W90806  21.685   4.211   3.697
18382W        W90807  40.041  37.298   2.460
18383W        W90808  35.427   9.091  12.012
18384W        W90809  29.545   1.915   0.459
18385W        W90810  41.947  20.532  11.162
18386W        W90811  38.248  30.408   0.854
18387W        W90812  21.917  36.041  14.850
18388W        W90813  21.197  18.405   0.353
18389W        W90814  41.681  15.869  11.460
18390W        W90815  36.666  10.842  14.458
18391W        W90816  33.335   2.921   2.120
18392W        W90817  22.597  34.473   0.429
18393W        W90818   5.860   9.894  11.514
18394W        W90819   2.022  17.994  10.576
18395W        W90820  35.174  30.916   2.362
18396W        W90821  11.603  16.878  11.938
18397W        W90822  26.236  27.027   2.676
18398W        W90823  41.383   0.503   2.876
18399W        W90824  24.159   6.361   1.011
18400W        W90825  19.086  27.010  12.111
18401W        W90826  14.792  27.296  13.060
18402W        W90827  39.501  39.354   0.753
18403W        W90828  16.220  36.581   1.640
18404W        W90829  25.846   2.360   1.607
18405W        W90830  43.850   0.364   2.341
18406W        W90831  38.993  34.907  14.489
18407W        W90832  28.560  20.776  14.324
18408W        W90833  34.584  44.848   4.777
18409W        W90834  36.930  15.596   3.179
18410W        W90835  19.385  43.887  11.144
18411W        W90836  19.583  18.727   2.815
18412W        W90837   7.909  40.562  14.391
18413W        W90838  27.672   8.625   3.736
18414W        W90839   1.758  29.904   4.201
18415W        W90840  27.061  34.865  11.099
18416W        W90841  27.894  11.713  11.639
18417W        W90842  37.917  13.674   3.821
18418W        W90843  34.680   6.629   0.243
18419W        W90844  31.088  24.150  10.630
18420W        W90845  26.260  42.209   1.814
18421W        W90846  37.400  43.584   5.086
18422W        W90847  40.990  13.878  11.513
18423W        W90848  42.163  14.710   2.237
18424W        W90849  11.088   0.203   3.180
18425W        W90850  13.828  38.898  14.464
18426W        W90851  21.464  38.799  10.276
18427W        W90852  13.511  41.182  12.941
18428W        W90853   6.666  13.053  13.060
18429W        W90854  11.616  23.515   1.316
18430W        W90855  24.551  44.577   3.240
18431W        W90856  26.920  40.374  14.379
18432W        W90857  11.065  43.874  10.701
18433W        W90858  13.466  39.851   4.165
18434W        W90859  34.847   5.772   3.659
18435W        W90860  19.844  35.073  11.129
18436W        W90861   9.196  24.160   4.362
18437W        W90862   8.616  37.001   0.950
18438W        W90863  34.386  14.670  11.659
18439W        W90864  42.385  12.873  12.681
18440W        W90865  27.039  34.401  13.916
18441W        W90866  32.590  31.170  12.535
18442W        W90867  15.295   8.914  12.033
18443W        W90868   0.811  22.632  12.750
18444W        W90869  12.622   1.874   1.065
18445W        W90870  40.528  42.371   4.514
18446W        W90871  23.194   2.770   4.536
18447W        W90872   2.659  14.616   0.786
18448W        W90873  29.107  10.451  14.816
18449W        W90874  32.938  32.915   0.686
18450W        W90875  22.810  17.014   3.277
18451W        W90876  30.428   3.311  13.156
18452W        W90877   2.690   5.388   2.616
18453W        W90878   3.307   0.897  13.197
18454W        W90879  23.645  43.470  11.043
18455W        W90880   5.215   5.612   3.929
18456W        W90881  36.458  30.974   2.763
18457W        W90882  41.873  13.334   0.177
18458W        W90883  43.825  20.155  14.525
18459W        W90884  25.154  10.553  13.122
18460W        W90885  19.245  39.201   0.381
18461W        W90886  22.962   0.414  10.497
18462W        W90887  22.418  43.926  10.716
18463W        W90888   8.551  22.711  11.807
18464W        W90889  25.217  11.241   3.347
18465W        W90890  42.854  18.175   1.794
18466W        W90891   1.824  28.491   4.308
18467W        W90892  37.552  33.111  12.367
18468W        W90893  39.771  22.138   2.705
18469W        W90894  24.695  20.551  11.114
18470W        W90895   3.046  35.936  12.609
18471W        W90896  43.828  41.275  12.027
18472W        W90897   5.949  19.064   1.895
18473W        W90898  28.903  25.218   1.295
18474W        W90899  16.407  21.175  12.845
18475W        W90900  25.822   5.168   3.715
18476W        W90901   5.480  32.465   3.181
18477W        W90902  27.765  16.025  10.159
18478W        W90903  13.153  36.019   2.752
18479W        W90904  36.844   0.370  14.399
18480W        W90905  44.360  27.696  11.149
18481W        W90906  42.005  30.574   4.602
18482W        W90907  18.291  32.498  11.685
18483W        W90908  14.251   4.803   2.788
18484W        W90909  33.710  40.111   2.790
18485W        W90910  19.046  35.784  12.484
18486W        W90911  10.626  42.398  12.348
18487W        W90912   1.278   9.568   2.071
18488W        W90913  10.112  12.869   5.191
18489W        W90914  41.691  33.624  13.452
18490W        W90915  19.317  18.163   0.723
18491W        W90916  27.154   6.337  11.604
18492W        W90917   2.447  39.572   1.895
18493W        W90918  30.636  27.919  14.453
18494W        W90919  44.451  18.554   3.678
18495W        W90920  12.229   8.449  13.589
18496W        W90921  43.726  31.424   1.366
18497W        W90922  23.817  38.549  11.987
18498W        W90923   8.452  25.930  13.933
18499W        W90924  23.187  17.011  10.578
18500W        W90925  18.905   7.274  10.791
18501W        W90926  40.700  24.133  14.958
18502W        W90927  23.122   8.225  10.788
18503W        W90928  42.534  36.609   0.859
18504W        W90929  37.948  24.723  12.139
18505W        W90930  25.137   6.826   1.721
18506W        W90931  12.037  41.760   1.988
18507W        W90932  43.268   8.793  12.191
18508W        W90933   4.922  24.259   1.702
18509W        W90934  19.437   1.060  14.821
18510W        W90935  15.172   8.669   0.057
18511W        W90936  20.064  23.912  12.948
18512W        W90937  25.470   9.383   0.371
18513W        W90938  32.455   6.338   3.167
18514W        W90939   3.490  39.838   1.832
18515W        W90940  29.178  13.263   1.327
18516W        W90941  22.487  11.827   2.146
18517W        W90942  26.781  31.878  10.219
18518W        W90943  42.862   8.338  14.523
18519W        W90944  12.065  13.645  12.563
18520W        W90945  16.879   8.723  11.570
18521W        W90946  34.259  33.047   2.290
18522W        W90947  19.790  21.293  10.550
18523W        W90948  40.198  22.267   1.241
18524W        W90949   3.571   5.986  13.437
18525W        W90950   1.566  13.541   4.125
18526W        W90951  31.077   7.215   4.182
18527W        W90952   1.095  36.299   3.950
18528W        W90953  42.936   7.264   0.588
18529W        W90954  17.123   0.309   4.616
18530W        W90955   6.711  22.169   0.815
18531W        W90956  41.126  44.942   2.770
18532W        W90957  11.258  33.400   2.981
18533W        W90958   5.375   3.505   1.702
18534W        W90959  24.049   3.656   1.479
18535W        W90960  40.809   5.683  14.853
18536W        W90961  33.695   7.329   0.568
18537W        W90962  38.423  24.723   2.787
18538W        W90963   0.700  44.392   2.835
18539W        W90964  25.264  23.011  14.640
18540W        W90965   9.837   5.248   2.220
18541W        W90966   7.112  13.345  14.340
18542W        W90967  36.944  44.024   3.685
18543W        W90968  26.910   7.206   4.334
18544W        W90969   6.425  44.831   1.754
18545W        W90970  27.751  39.270  12.602
18546W        W90971  15.539  12.615  10.309
18547W        W90972   4.718   3.154  13.325
18548W        W90973  11.217  34.364  13.322
18549W        W90974   8.155  25.747  14.829
18550W        W90975  12.200   7.818   3.679
18551W        W90976  23.078   8.102  14.450
18552W        W90977   9.229   7.649  14.311
18553W        W90978  44.293  17.609  10.500
18554W        W90979  42.671  19.633  10.818
18555W        W90980  21.510   5.120   2.253
18556W        W90981  11.334  22.193  12.814
18557W        W90982  14.677  33.860   4.274
18558W        W90983  18.834  15.553   4.539
18559W        W90984  17.810  39.762  11.091
18560W        W90985  21.068  35.484  11.430
18561W        W90986  41.364  26.036  12.358
18562W        W90987  32.961   8.152  14.909
18563W        W90988   0.059  17.238   3.813
18564W        W90989   8.709  41.486  13.251
18565W        W90990  12.871  14.236  10.580
18566W        W90991  13.173  15.796   4.203
18567W        W90992   6.195  35.074  10.718
18568W        W90993   2.352  19.004   0.319
18569W        W90994  36.916  14.209  11.958
18570W        W90995  10.260  13.847  12.021
18571W        W90996  17.678   3.777  12.557
18572W        W90997  13.220  35.540  10.641
18573W        W90998  24.454  11.865   5.037
18574W        W90999  24.497  29.563   1.814
18575W        W91000  21.383  38.500   3.937
18576W        W91001  36.396  29.081   2.815
18577W        W91002  16.728   6.123   3.776
18578W        W91003  13.582  17.873   3.244
18579W        W91004  43.760  35.495  10.630
18580W        W91005   3.310  34.129  14.757
18581W        W91006  28.881  27.159  12.558
18582W        W91007  24.226   4.299   0.313
18583W        W91008   2.244  43.350  12.983
18584W        W91009  34.981  34.521   0.820
18585W        W91010  26.448  43.007  14.365
18586W        W91011   6.686  44.788   2.257
18587W        W91012  22.779  20.772  11.190
18588W        W91013  39.219   9.822  10.427
18589W        W91014  12.875  25.202  10.694
18590W        W91015  40.041  22.462   2.340
18591W        W91016  19.627  35.016   4.625
18592W        W91017  36.498  44.236   4.204
18593W        W91018   2.218  15.303   3.301
18594W        W91019  35.958   3.480   2.293
18595W        W91020  26.119  44.173   1.025
18596W        W91021  40.126  44.748  14.904
18597W        W91022  26.640  33.944   1.656
18598W        W91023  18.602  11.614  13.349
18599W        W91024   9.138  34.386   1.793
18600W        W91025  26.929  26.575  11.672
18601W        W91026   3.877  18.785   2.251
18602W        W91027   1.779   2.410  12.306
18603W        W91028   5.485   5.921  14.047
18604W        W91029  24.721  12.282   4.914
18605W        W91030  18.535  44.707   2.715
18606W        W91031  33.408  21.503  14.928
18607W        W91032  19.140  35.603  12.018
18608W        W91033  22.043  35.303  14.323
18609W        W91034  13.074  28.530   3.386
18610W        W91035   1.407  37.330   1.425
18611W        W91036  25.213  22.745  12.866
18612W        W91037  19.614  40.930  14.642
18613W        W91038  40.993  33.102   4.639
18614W        W91039   1.936  22.014   3.748
18615W        W91040  10.285  21.387   1.667
18616W        W91041  31.085   5.843   0.651
18617W        W91042  26.013  25.737   1.358
18618W        W91043  31.449  24.600  12.940
18619W        W91044  44.795   1.271   3.858
18620W        W91045   4.923  34.991  12.957
18621W        W91046  16.352  30.414   3.114
18622W        W91047  34.425   9.001   1.740
18623W        W91048   6.259  11.268  14.447
18624W        W91049  24.983  12.003   2.810
18625W        W91050  18.133  17.664   0.477
18626W        W91051  25.556  19.827   3.321
18627W        W91052  27.734  20.568   3.193
18628W        W91053  23.524  41.696   3.529
18629W        W91054  32.658  21.609  13.110
18630W        W91055   1.720  10.931  14.362
18631W        W91056  33.225  15.300  11.968
18632W        W91057  34.652   0.852  14.557
18633W        W91058  28.629  41.604   4.737
18634W        W91059  14.779  22.080   2.644
18635W        W91060   4.432  22.169  13.048
18636W        W91061   4.958   6.056  10.144
18637W        W91062  42.987   1.070  14.567
18638W        W91063   8.679  42.783   3.217
18639W        W91064  37.081  14.634  11.181
18640W        W91065  34.491  14.311   0.982
18641W        W91066  22.556  35.542   1.768
18642W        W91067  15.635  33.987   4.861
18643W        W91068  28.729   9.087   1.744
18644W        W91069  21.953  22.287   4.088
18645W        W91070  22.723  10.380   5.041
18646W        W91071  37.529  20.707   4.413
18647W        W91072  42.759  34.969  14.359
18648W        W91073  21.982  13.319  13.315
18649W        W91074  17.223  39.945  13.903
18650W        W91075  35.047  29.104   4.737
18651W        W91076   7.409  24.959  14.912
18652W        W91077   2.010  13.258   3.037
18653W        W91078  10.802  18.377   0.988
18654W        W91079  35.849  36.753  14.821
18655W        W91080  19.847  43.592  11.174
18656W        W91081   7.230  36.629  11.201
18657W        W91082   4.971  13.662  11.847
18658W        W91083  42.240  24.248  13.347
18659W        W91084  38.376  44.413   0.922
18660W        W91085  29.097  13.974   0.651
18661W        W91086  29.018  39.690  14.512
18662W        W91087  15.628  23.154   1.721
18663W        W91088  28.179  32.224   5.051
18664W        W91089  27.772   6.431   0.241
18665W        W91090   3.965  13.889   3.530
18666W        W91091  15.852   1.421   9.578
18667W        W91092  23.529  36.083   3.596
18668W        W91093  34.420  27.670   2.506
18669W        W91094  23.563   4.619  11.360
18670W        W91095  11.029  10.895   0.896
18671W        W91096  10.194   3.123  14.833
18672W        W91097   0.838  26.002   1.723
18673W        W91098   8.112  32.467  12.939
18674W        W91099   2.764  40.054  11.061
18675W        W91100  19.543  21.852  11.581
18676W        W91101  10.323  36.463   0.362
18677W        W91102  20.603  15.184  10.597
18678W        W91103  11.524  10.262  12.823
18679W        W91104  34.318  38.730   4.809
18680W        W91105  30.437  20.469  12.199
18681W        W91106  33.429  41.722  11.727
18682W        W91107  42.365  13.586  11.065
18683W        W91108  27.685   3.450   2.347
18684W        W91109  14.442  10.115  12.349
18685W        W91110  11.405  35.921  13.646
18686W        W91111  37.761  28.860  11.054
18687W        W91112  38.973   0.371  13.365
18688W        W91113  22.111  36.800   4.722
18689W        W91114  16.975   9.076   4.904
18690W        W91115   7.091  38.916  12.455
18691W        W91116   5.367  39.032   1.667
18692W        W91117  17.456  21.780  12.545
18693W        W91118  12.774  25.995  14.670
18694W        W91119   8.224  13.712   1.291
18695W        W91120  44.372   9.849  10.591
18696W        W91121  23.630   3.725   1.748
18697W        W91122   8.806  24.779  12.659
18698W        W91123  32.428  31.466  13.784
18699W        W91124  31.138  10.373   3.491
18700W        W91125  30.157  42.912   4.552
18701W        W91126  13.559  32.910  13.519
18702W        W91127  14.779  33.407  10.292
18703W        W91128  14.283  34.051  13.789
18704W        W91129   7.328  11.677  14.749
18705W        W91130   9.314   3.488   2.840
18706W        W91131  20.021  12.115  12.892
18707W        W91132  10.781   2.820   1.752
18708W        W91133  34.566  23.748   4.140
18709W        W91134  44.974  29.586   1.659
18710W        W91135  20.187  19.755  10.340
18711W        W91136  31.407  41.314  12.564
18712W        W91137  32.067  38.773   4.050
18713W        W91138   4.236  35.506   3.895
18714W        W91139  16.873   0.960   5.048
18715W        W91140   7.707   7.788   3.814
18716W        W91141  40.557  10.056   4.085
18717W        W91142  35.195  18.712  11.729
18718W        W91143  20.949  39.649  12.959
18719W        W91144   6.316  15.948   4.278
18720W        W91145  18.460   8.288   9.741
18721W        W91146  12.024  43.311  12.549
18722W        W91147   4.828  32.066   4.492
18723W        W91148  40.926  20.820  14.424
18724W        W91149  34.562  17.802   2.731
18725W        W91150  14.157  41.965  14.821
18726W        W91151  42.751  12.239   0.879
18727W        W91152  44.992  35.947  12.438
18728W        W91153  39.365  10.867  12.841
18729W        W91154  30.612  19.668   1.402
18730W        W91155  15.121  14.122  10.967
18731W        W91156  10.899  32.599  12.622
18732W        W91157   0.942  44.939  10.677
18733W        W91158   3.264  18.699   4.193
18734W        W91159  17.673   7.838   3.102
18735W        W91160  33.093  14.063   3.170
18736W        W91161  36.725  36.261   1.930
18737W        W91162   9.443  10.056  12.597
18738W        W91163   3.876  41.918  11.112
18739W        W91164  18.556  13.251  10.820
18740W        W91165  39.621  31.631   1.860
18741W        W91166   7.440  11.780   3.097
18742W        W91167  35.263  27.924   4.276
18743W        W91168  24.503  43.508   0.848
18744W        W91169  43.288  18.094  14.505
18745W        W91170  37.565   7.460  13.353
18746W        W91171  38.220  41.868  12.994
18747W        W91172   4.717  27.682  13.785
18748W        W91173  44.908  23.854   2.400
18749W        W91174  19.666  21.306   4.524
18750W        W91175  38.913  17.477  11.203
18751W        W91176  14.120  36.061   0.028
18752W        W91177  16.788   2.211  14.386
18753W        W91178  27.254   9.338  12.017
18754W        W91179  39.799  37.438  12.000
18755W        W91180  20.107  16.864   0.675
18756W        W91181  30.541   9.332   4.411
18757W        W91182  11.298  16.591   3.707
18758W        W91183  33.207   8.265   1.211
18759W        W91184  26.486  35.790   1.073
18760W        W91185  13.130   6.384   1.028
18761W        W91186  19.719  38.056  13.974
18762W        W91187   5.742  20.369   4.624
18763W        W91188  20.614  41.974   2.896
18764W        W91189  14.210  43.497  12.675
18765W        W91190  29.639   9.787   2.023
18766W        W91191  14.761  33.545  14.902
18767W        W91192  29.189  20.672   0.611
18768W        W91193  28.001  12.368   1.400
18769W        W91194  10.404   7.655   0.181
18770W        W91195  26.669  37.449   3.453
18771W        W91196  40.453  20.299   3.681
18772W        W91197  16.303  26.474  11.367
18773W        W91198  10.210  11.806  13.378
18774W        W91199  44.789  20.184  12.364
18775W        W91200  41.488   3.275   3.290
18776W        W91201   4.975   5.390   4.558
18777W        W91202  39.338  16.665   3.648
18778W        W91203  19.754  20.816  12.551
18779W        W91204   2.526  26.246   1.090
18780W        W91205  38.326  36.560   0.775
18781W        W91206   2.053  11.550  11.521
18782W        W91207  30.492  25.400  14.285
18783W        W91208  19.485  26.284   2.146
18784W        W91209  24.308  37.769  11.576
18785W        W91210  26.806  23.727   3.635
18786W        W91211   4.946   4.084  13.261
18787W        W91212   4.231  31.803  14.979
18788W        W91213   9.325  28.580  14.928
18789W        W91214  11.143   9.298  12.955
18790W        W91215  22.055   8.507   0.496
18791W        W91216   7.043   7.344  10.416
18792W        W91217  37.844  34.037   2.154
18793W        W91218   8.792  37.932   2.452
18794W        W91219  26.602   4.537  11.539
18795W        W91220  32.921  13.518   1.256
18796W        W91221  31.834   1.698  10.819
18797W        W91222  38.245  23.465  12.902
18798W        W91223  32.308  17.694  11.984
18799W        W91224  35.086   6.240   3.695
18800W        W91225   0.324  40.432   0.440
18801W        W91226  31.647  28.615  13.762
18802W        W91227  39.096  34.116   1.274
18803W        W91228  42.393  41.137   2.297
18804W        W91229  41.452   0.056   3.149
18805W        W91230  23.125  19.767  13.839
18806W        W91231  27.127  10.940  14.540
18807W        W91232  38.852  26.441   4.537
18808W        W91233   5.197  44.689  10.770
18809W        W91234  17.582   1.913   4.521
18810W        W91235  39.104  16.789  12.095
18811W        W91236  37.069  23.275   0.045
18812W        W91237  33.106  18.047   1.013
18813W        W91238  12.345  20.363   1.670
18814W        W91239  44.916  19.550  12.411
18815W        W91240  30.511  24.957   3.470
18816W        W91241  16.053  22.579   4.118
18817W        W91242  36.470  19.145   0.947
18818W        W91243   3.839  31.009  14.872
18819W        W91244   1.853  17.619   1.261
18820W        W91245  35.256  31.925  11.959
18821W        W91246  16.371  25.168   3.276
18822W        W91247  20.417  42.987  13.933
18823W        W91248  11.821  24.725  13.965
18824W        W91249  34.653  44.181  11.668
18825W        W91250  41.349   7.741  12.602
18826W        W91251   2.947   2.989  11.523
18827W        W91252  37.389  37.352  14.394
18828W        W91253  35.842   2.186   2.816
18829W        W91254  17.086  14.278   3.311
18830W        W91255  40.114  34.102  12.612
18831W        W91256  26.446  32.076  13.882
18832W        W91257  27.500  11.201  12.745
18833W        W91258  28.463  17.653  11.966
18834W        W91259  42.272  30.474   0.778
18835W        W91260  34.649   1.225  10.481
18836W        W91261  11.382  33.034  13.973
18837W        W91262  33.615  18.108  13.854
18838W        W91263  35.980   0.447  14.163
18839W        W91264  17.196  31.262   0.116
18840W        W91265  11.150  21.277   0.341
18841W        W91266  37.896  42.027  13.771
18842W        W91267  11.573  44.080  13.697
18843W        W91268  18.889   4.560   5.058
18844W        W91269  30.663   6.857  11.116
18845W        W91270  36.184   4.923  12.323
18846W        W91271  13.943  33.691  14.241
18847W        W91272  30.205   0.799   1.233
18848W        W91273  16.498   1.943  10.752
18849W        W91274  22.700  11.099  13.002
18850W        W91275  25.134  23.975   2.251
18851W        W91276  34.859   3.437   4.566
18852W        W91277  42.620  40.077  13.952
18853W        W91278  24.464  38.645  13.028
18854W        W91279  24.415   6.963   3.735
18855W        W91280   1.318  24.146  12.357
18856W        W91281  11.252  20.562   2.126
18857W        W91282  30.057  12.649   3.227
18858W        W91283  38.305   9.887  12.673
18859W        W91284  16.832   2.628  13.841
18860W        W91285  12.356  42.016  14.325
18861W        W91286  44.282  19.244   1.283
18862W        W91287  20.793  41.290   3.635
18863W        W91288  28.210  36.977   0.513
18864W        W91289  14.572  12.609   4.246
18865W        W91290   3.304  19.207  13.264
18866W        W91291  35.135  39.340   4.765
18867W        W91292  35.079   3.660  13.871
18868W        W91293  26.709   7.191  12.119
18869W        W91294   2.430  16.114   0.945
18870W        W91295  15.343  21.262  11.739
18871W        W91296  20.207  39.990  12.043
18872W        W91297  22.517  31.443  13.306
18873W        W91298  29.087  44.955  10.436
18874W        W91299  36.548  12.665  12.486
18875W        W91300  42.751  41.742  11.498
18876W        W91301   5.503  38.744   2.519
18877W        W91302  31.521  26.254  11.032
18878W        W91303  18.768   0.273  14.484
18879W        W91304  33.038  10.313   2.353
18880W        W91305  32.555  19.636   1.190
18881W        W91306  16.596  37.198  13.049
18882W        W91307  36.881  24.476  13.869
18883W        W91308  27.306  15.491  13.424
18884W        W91309  41.990   4.356  11.554
18885W        W91310   5.198  34.562  13.005
18886W        W91311  35.970  42.346   3.656
18887W        W91312  26.670  36.387   0.720
18888W        W91313  25.427   2.938   3.297
18889W        W91314  25.753   1.910  14.954
18890W        W91315   6.382  25.579   0.848
18891W        W91316  30.543  29.961  10.726
18892W        W91317  14.016   0.004  14.494
18893W        W91318  41.461  17.179   0.258
18894W        W91319  20.576   1.241  12.038
18895W        W91320   7.663  43.460  12.037
18896W        W91321   1.736   3.217   5.355
18897W        W91322  37.625   5.156   3.143
18898W        W91323  21.068  23.375  14.850
18899W        W91324   7.705  41.053   4.014
18900W        W91325  39.929  43.331   1.372
18901W        W91326   3.642  43.792  14.311
18902W        W91327   2.147  20.144   2.807
18903W        W91328  40.395  14.029   2.848
18904W        W91329   7.281  30.446  11.932
18905W        W91330   4.339   9.870   1.833
18906W        W91331  10.886  43.763   0.349
18907W        W91332  31.921   3.854  14.365
18908W        W91333  42.207  27.177   3.201
18909W        W91334  36.856  39.426   0.229
18910W        W91335   4.646  32.988   2.753
18911W        W91336   3.373   9.524   1.387
18912W        W91337  44.908  31.952   1.122
18913W        W91338  12.423  17.279  13.961
18914W        W91339  14.034  29.964   0.841
18915W        W91340  44.549  31.698   2.588
18916W        W91341  41.534  31.676  14.788
18917W        W91342  17.548  40.944   0.012
18918W        W91343  26.444  15.077  12.448
18919W        W91344  39.045  26.671  10.941
18920W        W91345  11.012  22.024   4.138
18921W        W91346  20.117  43.421  11.636
18922W        W91347  36.121  37.387   1.411
18923W        W91348   1.988  12.427  14.938
18924W        W91349  42.126  20.967   2.443
18925W        W91350  31.372  17.471   4.094
18926W        W91351  32.127   2.443   0.711
18927W        W91352  28.664  22.618   4.362
18928W        W91353  27.701  41.775  14.127
18929W        W91354   5.830  16.388   0.755
18930W        W91355  16.364  40.774  13.508
18931W        W91356  36.988  21.608   2.822
18932W        W91357  44.151  27.563   4.743
18933W        W91358  30.193  17.823   1.356
18934W        W91359  33.933   9.240   1.878
18935W        W91360   7.578  37.595  14.411
18936W        W91361   1.100  11.572  14.415
18937W        W91362  29.012  13.122   0.414
18938W        W91363  11.920  10.735  11.629
18939W        W91364  14.115  22.102   0.258
18940W        W91365  13.835  31.870  14.760
18941W        W91366  14.732  39.799   0.186
18942W        W91367  17.175  24.096   3.626
18943W        W91368  24.346  39.148   0.043
18944W        W91369   5.755   9.898  10.652
18945W        W91370  42.011  22.551   3.088
18946W        W91371  11.084  30.683   4.670
18947W        W91372  25.552  43.843  11.986
18948W        W91373   7.842  17.530   1.424
18949W        W91374  23.946   0.730  13.423
18950W        W91375  10.274  19.732  14.359
18951W        W91376   7.498  37.702   4.178
18952W        W91377  14.728  23.994  14.978
18953W        W91378  25.541  24.973   1.271
18954W        W91379  22.508  34.101   2.065
18955W        W91380  35.930   0.717  13.302
18956W        W91381  44.799  10.595   2.231
18957W        W91382  32.570   4.882  12.389
18958W        W91383  18.539  27.980   0.242
18959W        W91384  43.454   1.464   2.245
18960W        W91385  22.567   1.187   2.892
18961W        W91386  30.891  29.088   2.730
18962W        W91387  36.459  17.332  13.870
18963W        W91388  26.160  28.540   1.521
18964W        W91389  39.091   2.413  13.953
18965W        W91390   7.771   0.858  12.978
18966W        W91391  24.427  24.101  13.622
18967W        W91392  27.602   7.409  13.495
18968W        W91393  23.454  31.523  11.638
18969W        W91394   2.148  13.758  11.123
18970W        W91395   2.461  37.313   2.765
18971W        W91396  43.142  39.204  12.663
18972W        W91397   8.863  13.784  12.937
18973W        W91398  27.194  24.565   2.027
18974W        W91399  44.221  34.676  11.546
18975W        W91400   7.283  12.868   2.785
18976W        W91401  26.639  34.657   2.245
18977W        W91402  20.228  27.698   4.683
18978W        W91403   5.224  20.713   4.047
18979W        W91404   5.616  44.307   3.919
18980W        W91405   6.269  27.142  14.352
18981W        W91406  36.353  24.968  14.924
18982W        W91407   2.497  25.696   3.179
18983W        W91408   0.725  35.062  12.963
18984W        W91409  26.463  38.954  14.763
18985W        W91410  13.661  43.240   0.156
18986W        W91411  27.420  24.018   2.770
18987W        W91412   4.458   8.237   1.605
18988W        W91413  43.998  40.681   3.363
18989W        W91414  36.535  15.608   3.721
18990W        W91415  18.248  38.612   3.271
18991W        W91416  38.581  32.492   0.252
18992W        W91417  30.575  32.755   2.200
18993W        W91418  13.088   5.431   4.187
18994W        W91419  32.508  32.677   0.383
18995W        W91420  43.721  14.089   0.030
18996W        W91421  16.648  17.863   1.322
18997W        W91422  19.225  20.008   3.173
18998W        W91423  17.925  11.197  12.876
18999W        W91424  25.935  31.029   1.625
19000W        W91425  44.992  37.059  11.061
19001W        W91426  23.537   0.612  14.294
19002W        W91427  17.981   1.178  12.254
19003W        W91428  37.482   8.393  11.574
19004W        W91429  42.373  24.812  11.857
19005W        W91430  36.408  25.051   0.771
19006W        W91431  14.337  22.047  14.339
19007W        W91432  25.266  11.644  11.818
19008W        W91433  15.749   5.915  10.124
19009W        W91434  43.252  18.690  11.536
19010W        W91435   0.265   6.195   2.314
19011W        W91436  10.255   4.808  14.920
19012W        W91437   7.954  41.017  14.143
19013W        W91438  37.389   3.604  11.230
19014W        W91439  20.579  31.553   3.190
19015W        W91440  31.496  16.141   9.850
19016W        W91441  10.246  19.948  14.823
19017W        W91442  13.829  36.558   3.180
19018W        W91443  30.514  21.726   4.597
19019W        W91444   7.235  43.565   2.768
19020W        W91445   4.822  38.740  10.629
19021W        W91446  32.129  34.457  12.917
19022W        W91447   4.489  13.182  12.180
19023W        W91448  33.577  36.995   3.204
19024W        W91449  43.114   4.221  14.493
19025W        W91450  16.587  42.838   0.419
19026W        W91451   5.841  26.043   4.053
19027W        W91452  17.969  36.824  11.603
19028W        W91453  42.195  18.050  11.208
19029W        W91454  15.731  16.501  12.122
19030W        W91455   4.690  19.448   5.104
19031W        W91456  40.194   1.681  11.946
19032W        W91457  37.429  34.427  12.023
19033W        W91458  20.701   9.836   1.275
19034W        W91459  33.514  33.352  12.533
19035W        W91460   2.023   9.389  14.454
19036W        W91461   2.819  12.810   4.888
19037W        W91462  36.517  40.994   3.178
19038W        W91463  24.731  17.177   0.752
19039W        W91464   8.253  29.120  11.499
19040W        W91465  22.663  24.663  14.981
19041W        W91466  31.584  34.441   4.961
19042W        W91467   7.265  35.923  13.015
19043W        W91468  30.174  22.392  11.129
19044W        W91469  33.555  14.183  10.186
19045W        W91470  42.110  23.858   3.281
19046W        W91471  11.225  31.718   4.705
19047W        W91472  26.176  12.094   3.347
19048W        W91473  26.566  30.657   2.120
19049W        W91474  10.191   3.370   2.729
19050W        W91475  40.955  24.930   4.831
19051W        W91476  19.734  26.866  11.044
19052W        W91477  39.394  26.998   0.788
19053W        W91478  23.550  29.930  14.803
19054W        W91479   0.912  39.718   2.622
19055W        W91480  39.804  15.023   2.380
19056W        W91481   2.404  21.008  14.121
19057W        W91482   3.457  44.365   2.431
19058W        W91483   2.206  14.131   4.504
19059W        W91484   7.303  12.108   1.462
19060W        W91485   6.407  34.544   2.858
19061W        W91486  26.154  42.205   0.420
19062W        W91487   9.752   6.420   3.598
19063W        W91488  10.919  13.338   4.035
19064W        W91489  37.856   9.035  11.907
19065W        W91490   5.347  43.322   0.644
19066W        W91491  40.176  34.874  11.282
19067W        W91492  11.990  40.466   0.241
19068W        W91493  34.468  29.244  10.405
19069W        W91494  25.158  38.064  11.687
19070W        W91495  12.107  23.491  11.051
19071W        W91496   4.743  39.796   0.638
19072W        W91497  44.250  10.183   5.061
19073W        W91498  36.430  21.722  13.417
19074W        W91499  27.687  24.525   2.190
19075W        W91500  34.607  42.013   0.847
19076W        W91501  24.846  24.929   3.384
19077W        W91502  27.927  33.985   3.217
19078W        W91503  42.027  29.598   2.188
19079W        W91504  28.848   6.751   0.848
19080W        W91505  29.216  19.457   2.239
19081W        W91506   8.084  40.539  10.793
19082W        W91507  32.514  33.167   0.531
19083W        W91508  12.234  30.924   2.589
19084W        W91509  16.583  29.954  10.561
19085W        W91510  26.288   3.212   0.101
19086W        W91511   6.217   1.528   0.842
19087W        W91512  29.968  41.350  14.919
19088W        W91513  22.052  27.450  14.813
19089W        W91514  20.303  20.507  10.696
19090W        W91515   4.798   9.636  12.122
19091W        W91516  41.456  18.645   2.598
19092W        W91517  29.670  11.463  14.419
19093W        W91518  30.358  29.108  14.890
19094W        W91519  40.307  33.444  11.263
19095W        W91520  30.488  36.554  14.997
19096W        W91521  16.551  15.634   1.728
19097W        W91522  25.970  29.912  14.098
19098W        W91523  42.083  40.040  13.997
19099W        W91524  11.733  20.832   4.765
19100W        W91525   2.343  25.127  12.655
19101W        W91526  14.127  43.369   1.018
19102W        W91527   5.819  16.917  13.815
19103W        W91528   4.437  39.362  11.150
19104W        W91529  28.077   4.969   1.742
19105W        W91530  24.169   9.850  12.650
19106W        W91531  41.043  32.019  13.937
19107W        W91532  36.842  25.534  12.098
19108W        W91533  22.734  16.679  11.677
19109W        W91534  44.015  27.553  11.488
19110W        W91535   1.372  19.831  10.547
19111W        W91536   8.833  33.153   1.711
19112W        W91537  35.561  11.580   1.845
19113W        W91538  20.654  12.791   2.318
19114W        W91539  27.194  41.269   0.248
19115W        W91540   0.268  33.195  11.078
19116W        W91541   0.323   7.423   1.908
19117W        W91542  39.572  16.063  11.225
19118W        W91543  40.972  22.189  14.639
19119W        W91544  37.878   3.156   3.786
19120W        W91545  23.625  25.720  14.955
19121W        W91546  23.552  15.804   2.852
19122W        W91547   2.556  44.304   3.203
19123W        W91548  10.689  43.722  12.801
19124W        W91549   7.944  24.941  14.920
19125W        W91550   1.047   0.897  12.129
19126W        W91551  15.449  26.607  11.225
19127W        W91552  29.646  24.242  14.231
19128W        W91553  12.784  22.789   3.269
19129W        W91554   3.305  30.896  14.930
19130W        W91555   1.842  27.659   1.075
19131W        W91556   5.965  39.306  13.046
19132W        W91557   4.207  40.424  10.797
19133W        W91558  36.386   5.770  14.354
19134W        W91559  40.454  35.699   2.083
19135W        W91560  31.462   1.397  13.857
19136W        W91561   2.870  21.697  14.501
19137W        W91562   5.315  38.837  12.654
19138W        W91563  40.502  40.478  14.422
19139W        W91564  10.233  31.974   1.722
19140W        W91565  27.462   2.508   0.896
19141W        W91566  34.990  43.813   1.307
19142W        W91567  23.596  11.688  10.503
19143W        W91568  31.035  20.560   1.460
19144W        W91569  17.252   6.297   2.080
19145W        W91570  18.158  19.994  13.402
19146W        W91571  13.717  25.929   0.209
19147W        W91572  17.691  29.645   2.441
19148W        W91573  41.299   8.734  11.891
19149W        W91574  14.175  37.754  11.474
19150W        W91575  44.735  18.571  14.699
19151W        W91576  34.506  41.942  14.312
19152W        W91577  26.786  18.662  11.383
19153W        W91578   7.146  34.969  10.680
19154W        W91579  30.733  42.826  14.405
19155W        W91580   7.273  33.339  14.306
19156W        W91581  25.461  11.637  10.744
19157W        W91582  36.421  27.505  12.130
19158W        W91583  39.546  29.097   4.947
19159W        W91584  31.414  35.373  14.847
19160W        W91585   6.288   9.827  13.837
19161W        W91586  34.124  25.521  14.307
19162W        W91587   9.201  10.578  10.477
19163W        W91588  35.367  18.772  11.264
19164W        W91589  29.683  27.212   2.686
19165W        W91590  30.416  37.455  11.615
19166W        W91591  42.288  34.994  12.551
19167W        W91592  17.159   5.354   3.620
19168W        W91593   2.490  43.061   0.089
19169W        W91594  36.642   5.883   0.852
19170W        W91595  19.834  41.428   1.761
19171W        W91596  42.407  42.351  14.468
19172W        W91597  18.172  16.767  11.932
19173W        W91598  21.379  30.206   1.293
19174W        W91599  27.621  10.862   2.743
19175W        W91600  23.633   2.619   0.826
19176W        W91601  32.603   5.390  14.397
19177W        W91602  35.148  11.937   1.865
19178W        W91603  12.721  34.372   2.204
19179W        W91604  16.543  33.006  13.780
19180W        W91605  22.240  38.302  11.012
19181W        W91606  33.533  40.011  12.029
19182W        W91607  27.848  23.090   2.995
19183W        W91608  20.573  27.921   0.210
19184W        W91609  19.609  11.924  13.557
19185W        W91610  25.761  36.618   2.139
19186W        W91611  34.448  43.514  13.368
19187W        W91612  19.468  34.590  12.845
19188W        W91613  34.630  20.281   0.335
19189W        W91614   4.717   4.359   3.344
19190W        W91615  39.032   8.271  12.905
19191W        W91616  26.855  38.378  12.587
19192W        W91617  36.372  29.941  14.021
19193W        W91618  22.223  44.829   3.352
19194W        W91619   8.184  41.558   4.679
19195W        W91620   9.541  42.499  13.416
19196W        W91621   9.203   8.428  11.714
19197W        W91622  10.365  14.452   4.388
19198W        W91623  17.019   0.946   1.302
19199W        W91624  36.629   0.841  11.172
19200W        W91625  10.685  41.044   2.415
19201W        W91626   2.687  24.904  13.397
19202W        W91627  18.772   6.442   4.131
19203W        W91628  36.653  39.078  12.555
19204W        W91629   6.898  22.213  10.795
19205W        W91630  33.486   3.211   1.264
19206W        W91631   0.072  31.569   2.863
19207W        W91632  22.495  11.737  10.626
19208W        W91633  41.243   8.156   0.153
19209W        W91634   4.036  37.910   3.716
19210W        W91635   7.422  27.510   2.256
19211W        W91636  13.690  24.159   2.794
19212W        W91637   9.845  40.925  11.564
19213W        W91638   0.117  28.646   4.641
19214W        W91639  29.162  30.700   4.956
19215W        W91640   4.409   9.902  13.961
19216W        W91641  25.436  12.341  13.856
19217W        W91642   2.758  41.294  14.380
19218W        W91643  20.914  40.497   4.232
19219W        W91644  28.912   8.277  13.571
19220W        W91645  41.505  41.067  14.945
19221W        W91646   2.681  28.557  14.753
19222W        W91647  39.343  30.205   4.166
19223W        W91648  14.771  27.557   4.777
19224W        W91649  29.221  24.061  11.460
19225W        W91650  30.673  40.558  14.420
19226W        W91651   7.707  34.534   1.811
19227W        W91652  34.446   1.804  10.771
19228W        W91653  14.271  39.784   2.818
19229W        W91654  23.636  20.922   2.997
19230W        W91655   9.853  32.143  12.483
19231W        W91656  19.010  38.579  12.553
19232W        W91657  21.754  11.200   3.325
19233W        W91658  36.320  30.139  13.086
19234W        W91659  37.969  26.780   0.902
19235W        W91660  34.538  38.279   2.266
19236W        W91661  16.028  10.158   3.610
19237W        W91662  11.873  29.616   1.416
19238W        W91663  42.165  35.213  11.148
19239W        W91664  44.914  36.204   3.648
19240W        W91665  30.645  10.869   2.294
19241W        W91666  38.362  11.549  11.390
19242W        W91667  22.776  25.182   2.721
19243W        W91668  26.001  26.668   1.944
19244W        W91669   2.238  36.499   1.176
19245W        W91670  28.707   6.620  13.069
19246W        W91671   1.317   4.739  12.852
19247W        W91672  33.058  43.259   3.850
19248W        W91673  15.346  29.060   4.218
19249W        W91674  13.634  20.235  11.050
19250W        W91675   1.562   4.770   2.300
19251W        W91676  14.414   3.240  13.528
19252W        W91677  23.714  40.649  11.692
19253W        W91678  32.635  21.005   1.196
19254W        W91679  11.928  42.818   1.869
19255W        W91680  10.652  34.803  11.575
19256W        W91681  44.271   7.489   3.177
19257W        W91682  32.601  22.802  12.672
19258W        W91683  28.443  41.022   3.858
19259W        W91684  37.946  22.271  13.543
19260W        W91685  25.126   2.736  11.827
19261W        W91686  37.368  14.320  14.401
19262W        W91687  14.579  12.741  13.328
19263W        W91688  25.465  27.659  13.937
19264W        W91689  29.461  10.355   5.046
19265W        W91690  43.851  42.243   0.332
19266W        W91691   3.949   5.561   2.183
19267W        W91692  36.371  28.768  14.964
19268W        W91693   7.298  17.828   4.052
19269W        W91694  28.444  42.259   3.053
19270W        W91695  28.793  41.310  14.492
19271W        W91696  44.453  18.019  12.478
19272W        W91697  29.461  23.644   4.860
19273W        W91698  38.510  38.928   0.786
19274W        W91699  41.806   4.861  11.154
19275W        W91700  36.752  44.974  11.624
19276W        W91701  10.810  31.435   4.760
19277W        W91702  28.002   6.207  11.164
19278W        W91703  10.814  27.635  13.469
19279W        W91704  12.875  20.213   3.839
19280W        W91705  13.952  23.551  10.682
19281W        W91706   3.153  42.287  14.985
19282W        W91707   3.467   7.069  14.518
19283W        W91708  41.783  29.447   3.116
19284W        W91709  28.214  10.675  11.211
19285W        W91710  16.831  31.941   1.347
19286W        W91711  24.517  37.050   4.548
19287W        W91712  12.449   3.635  12.643
19288W        W91713   6.129  11.695   0.425
19289W        W91714   6.067   4.671  14.014
19290W        W91715  16.270  27.658  14.542
19291W        W91716  37.383  27.021   4.059
19292W        W91717  19.053  18.733   2.724
19293W        W91718  10.832   4.437  11.140
19294W        W91719  32.875  36.180   4.625
19295W        W91720  21.941  17.091   1.241
19296W        W91721  39.584   1.493  12.962
19297W        W91722  21.265  36.352  13.500
19298W        W91723  39.993  34.003   1.344
19299W        W91724  44.989  33.371  13.512
19300W        W91725  34.827  36.295  13.780
19301W        W91726  16.519  30.023  13.288
19302W        W91727  33.422  31.315  10.788
19303W        W91728  14.809  28.525   3.640
19304W        W91729  36.051  25.687  13.992
19305W        W91730  15.901  12.203   4.339
19306W        W91731  28.506  22.613   0.768
19307W        W91732  30.178  29.378   3.002
19308W        W91733  14.459  16.242  13.868
19309W        W91734  14.429  28.604  10.722
19310W        W91735  14.089  18.237  14.400
19311W        W91736  29.403  38.900  10.633
19312W        W91737  21.587   1.131   0.144
19313W        W91738   0.501  17.197   4.108
19314W        W91739   6.847  23.194  11.404
19315W        W91740  20.707  31.167  12.875
19316W        W91741  38.431   5.127   1.453
19317W        W91742  31.492   7.780  12.181
19318W        W91743  35.994  20.693   0.070
19319W        W91744  20.968  15.463   0.894
19320W        W91745   3.180  16.740   2.725
19321W        W91746  30.402  23.264   4.040
19322W        W91747  36.597  27.140  12.458
19323W        W91748   1.950  44.021   4.492
19324W        W91749   1.339  18.114  12.081
19325W        W91750   7.042  29.533   4.117
19326W        W91751  31.875  16.383  11.515
19327W        W91752  41.388  25.257  11.802
19328W        W91753  36.043  32.150  13.411
19329W        W91754  28.719  11.511  14.936
19330W        W91755  21.001   7.896   1.725
19331W        W91756  23.577  26.265   2.847
19332W        W91757  17.210   2.481  14.533
19333W        W91758  40.678  13.184   2.656
19334W        W91759  14.491  16.071   1.594
19335W        W91760   4.868   0.210   1.609
19336W        W91761  35.085  16.182   2.950
19337W        W91762  27.824   5.093   3.242
19338W        W91763  19.950  36.186  10.991
19339W        W91764  29.472  28.508   4.203
19340W        W91765  28.476  11.782  13.423
19341W        W91766  10.100  25.240   2.853
19342W        W91767  39.563  30.704  13.988
19343W        W91768  33.844  22.411  13.621
19344W        W91769  33.436  26.753   2.268
19345W        W91770  22.067  33.609   1.335
19346W        W91771  38.035   8.851   1.481
19347W        W91772  16.277  41.288  11.566
19348W        W91773  12.174  31.113   1.644
19349W        W91774   0.545  43.223  11.125
19350W        W91775  39.118  40.260   2.783
19351W        W91776   6.233  23.428  11.125
19352W        W91777  41.288   4.717  12.020
19353W        W91778  25.514  23.951   4.897
19354W        W91779  37.530  42.759  13.999
19355W        W91780  15.009  35.400   4.645
19356W        W91781  23.517  19.805  10.918
19357W        W91782   0.729  37.035   1.936
19358W        W91783  34.309  44.761   0.480
19359W        W91784   2.033   1.035   4.923
19360W        W91785  12.883  24.853   5.120
19361W        W91786  16.937  43.872  11.125
19362W        W91787  40.031  37.953   3.413
19363W        W91788  30.356  37.454   1.962
19364W        W91789  43.903  31.186   0.402
19365W        W91790   0.435  14.386  13.359
19366W        W91791  24.798   2.186   2.983
19367W        W91792  30.011  12.190  12.123
19368W        W91793  14.142  39.111  11.696
19369W        W91794  31.520  11.160  13.500
19370W        W91795   4.819  11.573  10.878
19371W        W91796  26.787  19.777  14.426
19372W        W91797  19.203  11.888   1.769
19373W        W91798  14.791  37.046  12.376
19374W        W91799   6.737  12.976   2.694
19375W        W91800  31.633  25.516  14.915
19376W        W91801  38.637  27.709  11.689
19377W        W91802   7.981  19.473   4.177
19378W        W91803  28.993  36.115   0.628
19379W        W91804  17.271  15.853  11.119
19380W        W91805  26.042  32.448   4.211
19381W        W91806  32.986  34.717   1.212
19382W        W91807  37.838   5.282   1.709
19383W        W91808  27.227  13.877  11.145
19384W        W91809  16.128  39.865   1.413
19385W        W91810   1.712  44.391  12.020
19386W        W91811  22.234  30.546   4.604
19387W        W91812  33.507  13.867  12.044
19388W        W91813  17.118  40.765  14.807
19389W        W91814  18.823  25.619  13.787
19390W        W91815  14.113  40.738   0.091
19391W        W91816  11.847  21.697  12.509
19392W        W91817  15.110  39.514   4.232
19393W        W91818  18.594   4.139   4.949
19394W        W91819  35.028  22.243  13.887
19395W        W91820  31.178  14.830   2.790
19396W        W91821  34.614   1.759  14.088
19397W        W91822  22.638  37.980   0.687
19398W        W91823  17.030   3.803   0.996
19399W        W91824   7.461  36.483  14.752
19400W        W91825  25.509  43.473   0.798
19401W        W91826  41.811  21.165   0.696
19402W        W91827  20.341  30.704   2.203
19403W        W91828   6.663  27.686   3.343
19404W        W91829  15.717  21.335  13.313
19405W        W91830  35.425  29.195  10.833
19406W        W91831  29.712  32.141   1.234
19407W        W91832  21.170   4.252   4.608
19408W        W91833  13.807  18.459  12.449
19409W        W91834   4.287  43.457   1.289
19410W        W91835  30.653   4.647   1.734
19411W        W91836  17.802  43.918   2.755
19412W        W91837   1.691  38.414  14.581
19413W        W91838   7.801  37.864  13.149
19414W        W91839  25.197   9.849  14.736
19415W        W91840  27.514  26.947  14.838
19416W        W91841   1.977   6.433  12.100
19417W        W91842  12.228  33.689  14.242
19418W        W91843  16.707   0.542   0.926
19419W        W91844  36.294   9.165  12.958
19420W        W91845   3.430  38.161  12.686
19421W        W91846  21.892  13.807   0.389
19422W        W91847  38.557  43.855   2.345
19423W        W91848  43.426  39.122  13.804
19424W        W91849  26.043  32.496   3.410
19425W        W91850  43.342  15.377   0.905
19426W        W91851  31.390  18.646   2.506
19427W        W91852  42.921  22.266   1.276
19428W        W91853  35.355  34.051   4.576
19429W        W91854  27.643  16.304  10.608
19430W        W91855  19.308   6.306  11.903
19431W        W91856  24.940  14.550   3.786
19432W        W91857  23.136  20.726  12.925
19433W        W91858  33.107  15.579  11.153
19434W        W91859   3.299  16.602   4.178
19435W        W91860  41.581  44.878   1.742
19436W        W91861  13.866   6.452  12.403
19437W        W91862  32.517  32.634   2.696
19438W        W91863  18.617  23.760   0.775
19439W        W91864  38.162  15.664   4.512
19440W        W91865   9.590  28.394   0.766
19441W        W91866  12.454  40.381  14.314
19442W        W91867  19.222  22.269  10.721
19443W        W91868  22.586   9.423   2.245
19444W        W91869  15.888  38.613  10.195
19445W        W91870  22.910  41.547  12.955
19446W        W91871  38.919  42.141  11.482
19447W        W91872  15.038  36.415  12.588
19448W        W91873  30.255  23.756  14.944
19449W        W91874   2.324  44.103  11.427
19450W        W91875  40.588  19.505   1.833
19451W        W91876  30.136  15.611   0.893
19452W        W91877  16.824  34.315  13.691
19453W        W91878   9.693  35.876   1.772
19454W        W91879  18.713  15.773  12.420
19455W        W91880  13.357   0.962  12.893
19456W        W91881  13.892   4.984  13.885
19457W        W91882  20.686  40.910   4.503
19458W        W91883  44.010  19.663  13.814
19459W        W91884  21.661  30.409   2.201
19460W        W91885  10.815  14.605   3.599
19461W        W91886  11.153  34.322   4.115
19462W        W91887  27.041  44.199   1.007
19463W        W91888  23.580  30.339  11.908
19464W        W91889  31.396  16.101  10.676
19465W        W91890   3.894  28.962   1.304
19466W        W91891  11.756  22.157   4.650
19467W        W91892  10.822  32.483   3.796
19468W        W91893  11.222   8.664  10.049
19469W        W91894  29.051  20.620   4.662
19470W        W91895   3.612  13.849  14.276
19471W        W91896  30.190  31.100   0.329
19472W        W91897   3.314  29.116  10.098
19473W        W91898  14.731  23.222   1.460
19474W        W91899  23.143  24.762  12.444
19475W        W91900  26.130  37.364  10.016
19476W        W91901  39.080  43.201   2.856
19477W        W91902  15.507  32.535  11.571
19478W        W91903  42.670  35.332  11.044
19479W        W91904  30.957  43.432  11.148
19480W        W91905  19.880   5.292   1.776
19481W        W91906  19.070   0.236  14.054
19482W        W91907  17.560  38.632  12.085
19483W        W91908  27.625  11.699   0.934
19484W        W91909   7.673  17.788   3.340
19485W        W91910  17.867  43.992   2.228
19486W        W91911  24.193  13.203   0.411
19487W        W91912  12.722  26.470   3.187
19488W        W91913  13.700  26.660   0.723
19489W        W91914  22.215   5.373   3.383
19490W        W91915   8.778  35.777   0.765
19491W        W91916   7.684  13.438   0.280
19492W        W91917  12.030   8.798   3.674
19493W        W91918   2.374  38.942  13.953
19494W        W91919  36.943   5.311   4.146
19495W        W91920   1.185  23.207  10.776
19496W        W91921  10.286  34.330   2.214
19497W        W91922  32.407  18.931  12.424
19498W        W91923  42.575  19.186  14.758
19499W        W91924  44.843  39.584  12.429
19500W        W91925  37.880  23.270   2.142
19501W        W91926   5.963  41.028  12.432
19502W        W91927   2.972  32.426  14.635
19503W        W91928   1.340  23.658   1.014
19504W        W91929  23.220   0.299   0.192
19505W        W91930   0.716   2.102  11.038
19506W        W91931   1.367   4.861   1.025
19507W        W91932  15.588  35.994   1.227
19508W        W91933  14.738  26.541  10.967
19509W        W91934  29.074  42.160  14.395
19510W        W91935   1.738  43.848  14.830
19511W        W91936  26.564  38.394   4.438
19512W        W91937  42.488  43.875  14.869
19513W        W91938  12.771  16.694  12.357
19514W        W91939  18.790  40.247  12.850
19515W        W91940   9.600  14.598   2.453
19516W        W91941  15.144  34.135   1.736
19517W        W91942  19.717   1.805  10.653
19518W        W91943  25.409   6.547   2.897
19519W        W91944  44.376  14.614  12.036
19520W        W91945  19.699  12.147  10.804
19521W        W91946  27.781  24.215   0.905
19522W        W91947  37.793  11.299   2.949
19523W        W91948  21.608   8.778   4.422
19524W        W91949  16.843  27.575   3.575
19525W        W91950   6.475   0.284  12.803
19526W        W91951   3.879  10.196  14.756
19527W        W91952  32.783  30.492  14.833
19528W        W91953  24.369  22.189  12.517
19529W        W91954   1.654  42.993   3.627
19530W        W91955  44.998  14.107  13.313
19531W        W91956  17.645  35.522  11.619
19532W        W91957  22.062  10.647  14.494
19533W        W91958   9.713  13.760   3.649
19534W        W91959   6.731  20.543  12.499
19535W        W91960   2.514   4.362  12.855
19536W        W91961  16.853  35.011   3.311
19537W        W91962  26.866  37.547  13.437
19538W        W91963   5.737  42.760  13.327
19539W        W91964  21.634   0.029   1.932
19540W        W91965  17.862  43.960  12.569
19541W        W91966  41.102  28.128   3.215
19542W        W91967  42.703  41.867   4.431
19543W        W91968  38.353  40.079  12.431
19544W        W91969   8.157  33.868  14.386
19545W        W91970  29.005   8.865   3.139
19546W        W91971  13.235  10.373   3.042
19547W        W91972  38.417  17.659   3.819
19548W        W91973  12.673  14.088   2.898
19549W        W91974  15.366   6.777   1.219
19550W        W91975  41.028  41.129  11.061
19551W        W91976  39.764  29.612   2.802
19552W        W91977   8.053  25.150   0.957
19553W        W91978  17.707  14.375   2.854
19554W        W91979  36.060  36.082   4.938
19555W        W91980  35.145  28.137   0.032
19556W        W91981  26.876   0.504  12.133
19557W        W91982  16.899  10.152   0.964
19558W        W91983  26.667  16.507  11.658
19559W        W91984  32.941  16.285  11.032
19560W        W91985  39.106  26.289   1.926
19561W        W91986  39.776  33.814  14.431
19562W        W91987   4.851   4.723   5.194
19563W        W91988  13.577  21.602   4.607
19564W        W91989  25.677   3.752  13.445
19565W        W91990   6.726  27.162   3.230
19566W        W91991  17.733  19.678  11.590
19567W        W91992   5.294  32.389  14.310
19568W        W91993   3.734  29.360   3.285
19569W        W91994  32.465  11.854  12.971
19570W        W91995   0.844  39.912  13.853
19571W        W91996   4.389  37.610  13.998
19572W        W91997  27.219  39.970  13.011
19573W        W91998  39.367  32.462   0.934
19574W        W91999  21.062  28.506   2.270
19575W        W92000  40.458   6.635   0.130
19576W        W92001  29.201  30.582  11.186
19577W        W92002  19.161   9.387   2.809
19578W        W92003  24.515   6.973  11.696
19579W        W92004   2.521  19.060  14.321
19580W        W92005   0.373  44.719   0.278
19581W        W92006   7.806   8.695   0.067
19582W        W92007   1.427  28.742  13.396
19583W        W92008  36.184   5.510   4.596
19584W        W92009  16.279  33.112   4.170
19585W        W92010  34.073  11.682  12.030
19586W        W92011  41.228  22.278  14.152
19587W        W92012  39.526   0.982  12.872
19588W        W92013   4.452   9.673  12.551
19589W        W92014  23.861  10.485   2.406
19590W        W92015  39.403  31.002  11.845
19591W        W92016  29.517  25.226   1.729
19592W        W92017   8.620  29.183  14.247
19593W        W92018  27.846  26.976  11.074
19594W        W92019  40.371  10.262  12.488
19595W        W92020  28.122  16.409  10.233
19596W        W92021  44.197   6.795   4.169
19597W        W92022  40.579  23.249   4.724
19598W        W92023  42.485  14.545  10.751
19599W        W92024  42.093  33.931  14.276
19600W        W92025  30.477  34.039  14.525
19601W        W92026   2.246  19.765  10.137
19602W        W92027  27.274  24.227   4.071
19603W        W92028  27.137  17.239  13.905
19604W        W92029   3.506  34.428  12.044
19605W        W92030  32.138  18.301  14.909
19606W        W92031  35.641  17.265  13.608
19607W        W92032  26.713  28.084  10.723
19608W        W92033  28.531  21.983  14.934
19609W        W92034  19.999  32.600   2.244
19610W        W92035  19.791  22.602   1.947
19611W        W92036  12.111  22.116   3.351
19612W        W92037  33.492   8.485  12.024
19613W        W92038  21.217   3.970   2.860
19614W        W92039  26.188  10.476   0.145
19615W        W92040  32.620  42.623   1.878
19616W        W92041   2.258  24.554  14.330
19617W        W92042  13.700   7.062  12.109
19618W        W92043  17.131  36.883  13.585
19619W        W92044  27.721  35.738   1.286
19620W        W92045  25.103  16.397  13.066
19621W        W92046   5.177  37.406  12.049
19622W        W92047  44.355  11.123   2.936
19623W        W92048  18.488  13.127   2.733
19624W        W92049  10.157   7.415  13.816
19625W        W92050  23.974   4.511   4.197
19626W        W92051   9.094  22.088   1.208
19627W        W92052  34.416  10.837   0.467
19628W        W92053   3.282  21.223  14.047
19629W        W92054  38.877  40.785  11.569
19630W        W92055  32.726   1.547  12.358
19631W        W92056  44.294  32.045  14.785
19632W        W92057  38.994  20.548   4.558
19633W        W92058   7.858   8.424  13.007
19634W        W92059  31.086  21.211   3.111
19635W        W92060   1.494   7.022  12.983
19636W        W92061  12.572  10.894   3.240
19637W        W92062   4.713  36.149  10.262
19638W        W92063  19.064   6.011   4.159
19639W        W92064  24.989   7.433   0.808
19640W        W92065  37.337  18.943   1.383
19641W        W92066  27.783  37.572  12.504
19642W        W92067   6.863  31.263  11.934
19643W        W92068   8.512  39.905  10.672
19644W        W92069   4.354  29.815  14.575
19645W        W92070  31.194  39.816   1.341
19646W        W92071  23.161  33.909   1.476
19647W        W92072  44.838   5.455   4.298
19648W        W92073  30.901   1.543   2.654
19649W        W92074  12.320   8.140  13.206
19650W        W92075  44.497  37.579   3.326
19651W        W92076  34.484   6.299   3.177
19652W        W92077  23.651  12.828   2.362
19653W        W92078  12.587   3.360   2.659
19654W        W92079  28.049  13.254  11.470
19655W        W92080  34.384  39.384  12.605
19656W        W92081   0.917  32.650   1.970
19657W        W92082  26.612  30.764  12.552
19658W        W92083  33.185  16.938  12.495
19659W        W92084  13.401   8.989  13.802
19660W        W92085   9.191  35.019  10.862
19661W        W92086  35.668  37.944   2.771
19662W        W92087  21.564  26.575  14.603
19663W        W92088  35.748  26.575   1.140
19664W        W92089  38.175  35.147  13.420
19665W        W92090  30.213  30.733  13.368
19666W        W92091  38.299  10.414   2.821
19667W        W92092  21.758  14.278   0.251
19668W        W92093  12.056  44.236  13.875
19669W        W92094  23.270  30.073  14.366
19670W        W92095  19.702  31.815  13.466
19671W        W92096   3.931  30.100  13.775
19672W        W92097   7.922  40.649   0.328
19673W        W92098  10.743   8.582   0.937
19674W        W92099  19.361  41.067  12.274
19675W        W92100  30.473  23.292  14.946
19676W        W92101  18.744  32.191   1.453
19677W        W92102  18.552  30.028  14.080
19678W        W92103  24.589  13.515   3.817
19679W        W92104   1.671  41.367   4.243
19680W        W92105  10.648   9.521   4.253
19681W        W92106   2.210  29.532  10.343
19682W        W92107  13.996  16.239  11.948
19683W        W92108  40.830  43.779   1.607
19684W        W92109  12.101  27.642  14.430
19685W        W92110  26.996   9.312   1.183
19686W        W92111  34.086  17.841   1.783
19687W        W92112  17.599  16.127  11.404
19688W        W92113  44.550  10.014   4.215
19689W        W92114  29.885  38.805  12.048
19690W        W92115  20.390   6.666   1.645
19691W        W92116   5.048  41.735   3.187
19692W        W92117   0.351  21.996  10.633
19693W        W92118  13.176  40.476   1.328
19694W        W92119  42.603  11.746   4.142
19695W        W92120  36.073  37.834  11.405
19696W        W92121   2.269   1.738  12.436
19697W        W92122  30.478  41.316   3.682
19698W        W92123  27.073  33.180   4.687
19699W        W92124   7.652  10.352   2.711
19700W        W92125  15.079  41.351   0.926
19701W        W92126  41.868  11.026   2.682
19702W        W92127  23.171   5.772   2.239
19703W        W92128  16.670   4.482   0.784
19704W        W92129  15.432   2.178   3.280
19705W        W92130  32.170  40.367   0.240
19706W        W92131   9.421  14.565   1.489
19707W        W92132  11.822  11.865  12.412
19708W        W92133  38.748  10.111   1.510
19709W        W92134  27.491  44.680   1.247
19710W        W92135  39.505  11.201  10.939
19711W        W92136  36.848   3.443  12.614
19712W        W92137  14.275   4.225   3.124
19713W        W92138   4.762  16.065   0.503
19714W        W92139   7.674  21.605   4.707
19715W        W92140   6.752  11.949   1.720
19716W        W92141  31.030  37.355  11.143
19717W        W92142  42.488  20.116  13.306
19718W        W92143  29.869  42.148  12.615
19719W        W92144  26.728  40.402   1.427
19720W        W92145  30.533  37.502  13.586
19721W        W92146  41.937  44.789  14.754
19722W        W92147  15.575  42.852  12.896
19723W        W92148  26.899  34.034   4.241
19724W        W92149  41.483   3.402  11.988
19725W        W92150  17.734  42.358   0.723
19726W        W92151  16.555  12.641  13.339
19727W        W92152   4.502  34.702  12.876
19728W        W92153  11.220  42.508   0.785
19729W        W92154  27.598  24.514   4.737
19730W        W92155  43.919  33.677   3.805
19731W        W92156  29.390  19.368  14.878
19732W        W92157  38.154  20.549  11.401
19733W        W92158   5.309  21.395  12.555
19734W        W92159  31.680  22.703  14.775
19735W        W92160  21.700   9.278  14.405
19736W        W92161  23.707  26.693  11.866
19737W        W92162  41.878  27.907   0.283
19738W        W92163  14.757  11.258  11.480
19739W        W92164  16.205  27.070   0.780
19740W        W92165  16.973  18.794   0.601
19741W        W92166   9.168  30.591   4.860
19742W        W92167  20.746  31.069   3.013
19743W        W92168  39.616  13.804   1.335
19744W        W92169  22.142  15.477  11.448
19745W        W92170   0.799   3.095  12.628
19746W        W92171  44.043   9.718   3.158
19747W        W92172  39.060  17.062   2.125
19748W        W92173  36.908   2.738  14.177
19749W        W92174  32.076  21.622  10.414
19750W        W92175  25.624  30.683  12.654
19751W        W92176  17.542   1.246   0.480
19752W        W92177   3.744   7.928  12.697
19753W        W92178  41.374  36.196  10.647
19754W        W92179  18.714  35.323  10.803
19755W        W92180  27.196  29.028   0.427
19756W        W92181  36.618  33.962  14.128
19757W        W92182   2.435  34.641  13.455
19758W        W92183  16.152  17.815  13.797
19759W        W92184  25.117  17.847   1.703
19760W        W92185  16.821   7.713   1.406
19761W        W92186  39.983  37.338  10.654
19762W        W92187   4.622  30.839  13.562
19763W        W92188  14.574  22.986  11.535
19764W        W92189  21.039  44.213  14.872
19765W        W92190  18.176  17.841  14.469
19766W        W92191  41.212  27.572  11.478
19767W        W92192  16.145   5.047  10.935
19768W        W92193  34.525  10.423   4.645
19769W        W92194  30.049  26.592   2.375
19770W        W92195  14.491  14.219   0.218
19771W        W92196  14.112  23.387  13.327
19772W        W92197  23.242  21.783   0.933
19773W        W92198  11.318   4.298   1.631
19774W        W92199  25.176  44.859   3.985
19775W        W92200   8.450  11.314   1.389
19776W        W92201  37.794  10.642  11.164
19777W        W92202  31.029  29.543  14.908
19778W        W92203  23.078  37.923  12.439
19779W        W92204  34.295  40.122  11.341
19780W        W92205  44.517   7.589  12.928
19781W        W92206   2.669   4.912  14.972
19782W        W92207  14.791  32.754   2.926
19783W        W92208   1.366   0.472   2.170
19784W        W92209  42.741   8.204   1.429
19785W        W92210  43.721   9.217   3.710
19786W        W92211  41.205  28.027  11.221
19787W        W92212  24.678   1.318  10.793
19788W        W92213  37.017  30.511   1.343
19789W        W92214  14.171   3.687  13.648
19790W        W92215  32.445   7.269  13.311
19791W        W92216  33.860  44.818  11.506
19792W        W92217  31.903  21.168  14.339
19793W        W92218  44.327  31.162  13.492
19794W        W92219  42.825  13.175   3.772
19795W        W92220  43.231  38.009  12.116
19796W        W92221  22.630  33.196   2.230
19797W        W92222  38.150  16.368  12.427
19798W        W92223  10.782  10.922  12.425
19799W        W92224  11.838  12.566   0.743
19800W        W92225  19.112  14.441   0.522
19801W        W92226  23.713  23.650  12.761
19802W        W92227  10.688  29.921  11.614
19803W        W92228  19.441  16.695   4.928
19804W        W92229  44.913  27.459   2.173
19805W        W92230   9.592  33.896  10.430
19806W        W92231  20.351   3.044  10.596
19807W        W92232  11.897  41.217   0.951
19808W        W92233   9.762  15.156   3.243
19809W        W92234  25.216  41.283  14.284
19810W        W92235   5.354   2.739   0.875
19811W        W92236   5.977  43.820   0.276
19812W        W92237  13.137  41.436  14.429
19813W        W92238  42.591   1.360   4.639
19814W        W92239   5.689  15.653   2.131
19815W        W92240  24.057  18.223   3.081
19816W        W92241   0.421  25.491  10.784
19817W        W92242   9.403   0.721   0.310
19818W        W92243  44.646  17.558   1.397
19819W        W92244  42.882  15.523  14.715
19820W        W92245  11.986  34.710  12.496
19821W        W92246  27.640  33.470  11.374
19822W        W92247  41.217   3.496   4.287
19823W        W92248  28.416  24.842  13.419
19824W        W92249  30.000  29.091   3.758
19825W        W92250  20.643  40.948  13.363
19826W        W92251  41.269  38.963  14.813
19827W        W92252  40.061  34.432  10.924
19828W        W92253  24.671  14.189  12.427
19829W        W92254   5.923  32.324   4.189
19830W        W92255   9.728  30.181  11.113
19831W        W92256  25.045  44.967  14.896
19832W        W92257   5.870  39.829  13.808
19833W        W92258  43.332  34.963   2.853
19834W        W92259  31.789  14.435  12.822
19835W        W92260  34.516  23.085  13.437
19836W        W92261   7.222  37.741  11.547
19837W        W92262  26.868  30.084   1.497
19838W        W92263   0.735  40.788   0.857
19839W        W92264   4.973  39.329   1.808
19840W        W92265  40.809   2.153  11.102
19841W        W92266   4.912  14.900  14.024
19842W        W92267  26.851   8.333   2.185
19843W        W92268  35.157  11.404  11.070
19844W        W92269  33.859  11.543   2.769
19845W        W92270  37.888  38.041  11.222
19846W        W92271  40.342  43.799   3.745
19847W        W92272  22.352  20.099  14.428
19848W        W92273  20.289  30.134   2.151
19849W        W92274   1.791  25.443  13.474
19850W        W92275  43.899  18.690   0.311
19851W        W92276  42.455  38.869  13.457
19852W        W92277  38.765  40.917  11.084
19853W        W92278   9.331  30.119  10.679
19854W        W92279  28.555   6.334   4.079
19855W        W92280  13.014   3.361  12.974
19856W        W92281  41.227  36.822  14.490
19857W        W92282   0.509   9.479  13.606
19858W        W92283  38.051  31.696  11.254
19859W        W92284  22.117  29.146  11.373
19860W        W92285   4.913  31.308  13.556
19861W        W92286  18.049  37.505   1.265
19862W        W92287  15.692  44.962   4.593
19863W        W92288  27.627   3.384   4.316
19864W        W92289  21.177  23.638  14.431
19865W        W92290  25.763  42.546  11.114
19866W        W92291  36.159  25.456   0.494
19867W        W92292  43.372  11.397  13.440
19868W        W92293  38.531  35.779  10.792
19869W        W92294  17.164  27.693  10.918
19870W        W92295  35.144  23.171  12.022
19871W        W92296  33.874  19.690   2.841
19872W        W92297  40.401  39.235   3.231
19873W        W92298  39.501   7.992  13.866
19874W        W92299  33.946  23.838   3.755
19875W        W92300   2.239  22.143  11.994
19876W        W92301  32.925  33.957   3.203
19877W        W92302  17.290  33.961   4.763
19878W        W92303  18.327  15.657   4.372
19879W        W92304  23.714  10.804  14.899
19880W        W92305  28.705  13.588   4.045
19881W        W92306   0.379   6.350  13.939
19882W        W92307  36.069  39.106   2.810
19883W        W92308   7.333  37.910  12.915
19884W        W92309  15.776  40.967   0.036
19885W        W92310   7.414   2.043  14.930
19886W        W92311  12.048  29.058   2.737
19887W        W92312  33.806  32.121   0.741
19888W        W92313  15.065  25.425  11.932
19889W        W92314  16.116  44.841  12.016
19890W        W92315  35.171  32.130   1.718
19891W        W92316   6.094  36.359   1.287
19892W        W92317   4.745  34.552  14.212
19893W        W92318  38.009  16.024   0.722
19894W        W92319  28.167  44.463  13.581
19895W        W92320  17.271   6.458  11.040
19896W        W92321   8.235  21.040   0.708
19897W        W92322  40.980  31.184  11.364
19898W        W92323  38.489  19.799   2.375
19899W        W92324  30.992  44.014  11.865
19900W        W92325  30.398   1.538   0.176
19901W        W92326  30.545   2.353  14.568
19902W        W92327   2.308  24.994  10.117
19903W        W92328  39.959  44.313   1.460
19904W        W92329  34.375  36.985   0.295
19905W        W92330  26.126  44.347  10.689
19906W        W92331  18.710  37.316  11.537
19907W        W92332  39.439   3.598   0.359
19908W        W92333   6.166  32.146  11.046
19909W        W92334  34.357  33.730  12.415
19910W        W92335  33.456  21.419   2.708
19911W        W92336  17.678   9.344  14.225
19912W        W92337  23.563  32.645  11.187
19913W        W92338   7.088  26.997   0.463
19914W        W92339  17.728  18.671   2.300
19915W        W92340   7.752   9.859   2.751
19916W        W92341  23.540  24.997   3.179
19917W        W92342  20.129  10.395  13.106
19918W        W92343  16.841  41.498   3.576
19919W        W92344   5.772  32.500  11.699
19920W        W92345  14.080   2.335  14.845
19921W        W92346   7.974  26.461   1.339
19922W        W92347  21.557  37.313   1.491
19923W        W92348  25.861   9.682   0.618
19924W        W92349  20.469  12.683   4.199
19925W        W92350  18.107  36.091  14.001
19926W        W92351  19.245   2.544  14.381
19927W        W92352   5.238   1.818   2.729
19928W        W92353   4.986  33.351   3.283
19929W        W92354   3.252  41.212   2.172
19930W        W92355  20.633  11.843   3.747
19931W        W92356   6.202   4.879   4.210
19932W        W92357  11.864  25.471  11.563
19933W        W92358  38.078  22.514  11.679
19934W        W92359  26.335   2.414  14.232
19935W        W92360  29.197  40.015  11.683
19936W        W92361   7.699  11.197   3.333
19937W        W92362  32.423  19.315   0.233
19938W        W92363  33.860  39.629   3.685
19939W        W92364  34.573  15.854   3.318
19940W        W92365  22.062  39.877  14.049
19941W        W92366  29.856  43.984   2.820
19942W        W92367  30.369   7.187   3.106
19943W        W92368   3.541  36.034   2.139
19944W        W92369  16.308   2.005  14.445
19945W        W92370  31.605   0.250   3.100
19946W        W92371  43.848  38.067   2.631
19947W        W92372  28.370   0.191   2.294
19948W        W92373  40.426  27.033   4.551
19949W        W92374  28.216  11.229  13.098
19950W        W92375  20.313   0.909   2.574
19951W        W92376  10.721   6.950   1.163
19952W        W92377   0.504  20.067   4.241
19953W        W92378  28.596   6.252   4.585
19954W        W92379   6.212  19.240  11.545
19955W        W92380  18.535   7.851   0.676
19956W        W92381  43.242  31.102  14.010
19957W        W92382  24.440  38.976  11.817
19958W        W92383  32.224  16.982   2.852
19959W        W92384  24.858   9.527   4.115
19960W        W92385  10.643   5.284  12.425
19961W        W92386  30.978  11.784  11.139
19962W        W92387   8.202  36.475  13.724
19963W        W92388  14.161  31.915  14.344
19964W        W92389  31.916  38.095  14.857
19965W        W92390  38.339  30.058   0.467
19966W        W92391   7.798  25.817  12.555
19967W        W92392  22.510  11.318   3.737
19968W        W92393  10.358  22.646   2.169
19969W        W92394  29.495  17.779  13.982
19970W        W92395  31.409  10.765   0.815
19971W        W92396  38.922  38.219  11.169
19972W        W92397   5.755  11.952   3.380
19973W        W92398  25.070  13.775   2.769
19974W        W92399  16.156  17.531   2.757
19975W        W92400  40.560  25.206  14.957
19976W        W92401   6.659  14.073  12.100
19977W        W92402  10.268  13.355   2.227
19978W        W92403  34.095   7.682   0.459
19979W        W92404  36.485  42.548   2.208
19980W        W92405  15.950  15.646   2.439
19981W        W92406  30.885  20.870  13.490
19982W        W92407  20.130   0.948   0.851
19983W        W92408  43.506  25.386   0.880
19984W        W92409  26.361   9.040  13.327
19985W        W92410  29.362  26.015   3.683
19986W        W92411  34.605  43.003  13.381
19987W        W92412  41.466  34.055  11.115
19988W        W92413  10.725  13.322  14.480
19989W        W92414   7.872  19.189   0.756
19990W        W92415  12.626  44.325   0.403
19991W        W92416  18.978  20.315   1.284
19992W        W92417  41.399  32.912   0.268
19993W        W92418   7.331  41.331  12.929
19994W        W92419  13.856  18.782  11.953
19995W        W92420  22.699   7.432  12.990
19996W        W92421  25.615  30.020   4.397
19997W        W92422  27.347   6.462   1.626
19998W        W92423  12.243  15.700  11.954
19999W        W92424  43.240  14.856  12.836
20000W        W92425   1.660  34.893   3.725
20001W        W92426  26.955  13.710   4.655
20002W        W92427  30.255  40.534  10.709
20003W        W92428   4.848  37.883   1.987
20004W        W92429   9.366  27.720   2.831
20005W        W92430   8.332   5.127   0.312
20006W        W92431  27.761  25.628  12.041
20007W        W92432  33.608  24.183  12.393
20008W        W92433  30.661  39.542   0.831
20009W        W92434  25.608  22.505  12.528
20010W        W92435  35.626  32.495  14.799
20011W        W92436  26.662  29.474  12.987
20012W        W92437  29.782  19.657  10.778
20013W        W92438  17.749   5.255   0.212
20014W        W92439  41.118  17.040   3.580
20015W        W92440  13.581  30.158   0.994
20016W        W92441  24.237   7.639  12.457
20017W        W92442   7.299   0.536   4.092
20018W        W92443  28.011  31.379   4.699
20019W        W92444   9.965  39.011  11.138
20020W        W92445   5.954  38.969  13.459
20021W        W92446  21.908  37.510  11.423
20022W        W92447  39.290   3.244  12.360
20023W        W92448  39.393  16.799  14.521
20024W        W92449  37.026  40.840  11.547
20025W        W92450  44.838  13.235   1.477
20026W        W92451  27.906  14.662   3.572
20027W        W92452  24.550   0.973  11.168
20028W        W92453  25.978  18.024  12.582
20029W        W92454   6.631  23.083  14.802
20030W        W92455  30.850  11.935   2.776
20031W        W92456  40.144  43.493  12.546
20032W        W92457  18.202   4.565   4.243
20033W        W92458  19.422  19.392   2.271
20034W        W92459  31.089  19.160   2.184
20035W        W92460   1.768  39.341  11.516
20036W        W92461  15.647  18.635  10.994
20037W        W92462  20.504  39.953  12.898
20038W        W92463  24.233  11.184   4.333
20039W        W92464   7.809  18.093  14.286
20040W        W92465   6.107  18.152   2.382
20041W        W92466   1.212  23.336   0.238
20042W        W92467  18.767  30.432  14.364
20043W        W92468  25.485   2.526   4.184
20044W        W92469  22.706   7.891   3.117
20045W        W92470   5.216  41.005  12.883
20046W        W92471  31.597  22.246  14.986
20047W        W92472  42.000   1.407  10.685
20048W        W92473  33.364  34.085  11.214
20049W        W92474  13.686  13.931   1.932
20050W        W92475   9.664  18.217   4.645
20051W        W92476  23.296  14.305  14.170
20052W        W92477  23.112  22.140   3.249
20053W        W92478  26.590  29.999  12.844
20054W        W92479  27.135  23.954  13.086
20055W        W92480  20.391   9.221  12.703
20056W        W92481  41.011   1.908   2.692
20057W        W92482   3.227  39.842  11.011
20058W        W92483  10.322  14.115  11.532
20059W        W92484   3.649  21.447  11.119
20060W        W92485  28.940  24.485  11.381
20061W        W92486  34.090   4.118   3.725
20062W        W92487  12.753   8.018  12.017
20063W        W92488  42.702  25.687   1.165
20064W        W92489   0.850  15.563  11.485
20065W        W92490   8.186  19.411  13.345
20066W        W92491   3.754  30.779   1.367
20067W        W92492   7.917   9.289   4.218
20068W        W92493  38.085  18.059   3.905
20069W        W92494   0.733   9.797   3.713
20070W        W92495   0.152  34.020   0.755
20071W        W92496   3.992  19.438   4.183
20072W        W92497  31.148  24.226   3.689
20073W        W92498  30.190  34.552  10.602
20074W        W92499  21.796   7.939   4.117
20075W        W92500  12.792   5.212  10.720
20076W        W92501  29.145   3.608   3.201
20077W        W92502  13.823   1.410   4.563
20078W        W92503  42.342  20.391   4.620
20079W        W92504  29.998  37.782  11.106
20080W        W92505  28.640  13.234  12.137
20081W        W92506  25.267  31.970   3.844
20082W        W92507  13.194  44.299   0.388
20083W        W92508  39.328  29.786   3.884
20084W        W92509  44.871  32.539  10.587
20085W        W92510  29.908  43.598   1.910
20086W        W92511   0.692  12.370  14.289
20087W        W92512   9.072  25.953  11.580
20088W        W92513  41.070   4.320  13.473
20089W        W92514   5.328  14.461  14.373
20090W        W92515  20.473  25.828   1.849
20091W        W92516  15.716   8.751  14.811
20092W        W92517  11.820   0.528  12.718
20093W        W92518  42.499  33.872   4.135
20094W        W92519  24.099   3.871   1.984
20095W        W92520   8.294  13.678  10.887
20096W        W92521   9.888   5.824   2.242
20097W        W92522  19.502  44.829  13.372
20098W        W92523   0.219  25.173   2.693
20099W        W92524   9.175  10.816   0.565
20100W        W92525   1.332  32.493  14.461
20101W        W92526  29.438  36.598   3.997
20102W        W92527  37.599  30.782  13.970
20103W        W92528  30.164   9.468   4.098
20104W        W92529  24.926  14.713  14.043
20105W        W92530  10.309  22.940   4.128
20106W        W92531  33.541  10.348  11.687
20107W        W92532  38.266  18.617  13.071
20108W        W92533  17.627   9.938  12.477
20109W        W92534  24.574  32.846   0.718
20110W        W92535   1.472  40.919   4.039
20111W        W92536  12.070   8.302  14.035
20112W        W92537  27.844  14.825  14.009
20113W        W92538   6.397  23.467   4.629
20114W        W92539   9.119   9.878   3.848
20115W        W92540  18.159  32.307  12.139
20116W        W92541  42.359  19.832   0.875
20117W        W92542  36.593   3.357   0.301
20118W        W92543  44.875  12.497  11.163
20119W        W92544  27.967   3.640  12.541
20120W        W92545  10.183  25.495  14.802
20121W        W92546  32.005  10.410   3.334
20122W        W92547  28.450  37.868   0.813
20123W        W92548  18.273  21.265  12.722
20124W        W92549   5.979  27.925  12.657
20125W        W92550  39.243  12.270   0.192
20126W        W92551  28.218  13.716   4.209
20127W        W92552   2.207   2.326  10.620
20128W        W92553  13.082   2.351   3.716
20129W        W92554  23.554  12.812  12.503
20130W        W92555  33.081   2.746  11.834
20131W        W92556  32.850  43.965   2.136
20132W        W92557  23.295  20.177   3.685
20133W        W92558  14.892  32.607  13.434
20134W        W92559  18.272  15.136  10.589
20135W        W92560  36.434  28.993  13.145
20136W        W92561  36.615  18.677  12.020
20137W        W92562   8.037   1.291   1.931
20138W        W92563  44.358  13.128   1.324
20139W        W92564  34.353  13.628   4.133
20140W        W92565  31.473  17.864  13.085
20141W        W92566  30.657  41.441   3.201
20142W        W92567   8.678   6.741   1.851
20143W        W92568  36.847  37.373   4.956
20144W        W92569  15.739  14.054  14.521
20145W        W92570  19.790  41.301  12.492
20146W        W92571  33.511  36.898  12.481
20147W        W92572  37.384  42.888  14.959
20148W        W92573  36.347  33.939   2.728
20149W        W92574  15.162  16.737   4.172
20150W        W92575   1.331  44.029  12.835
20151W        W92576  23.774   0.459  13.008
20152W        W92577  42.981  11.405   4.218
20153W        W92578  17.565  29.517   4.656
20154W        W92579   3.339  24.710  13.894
20155W        W92580   9.878  26.881   2.389
20156W        W92581   7.129  19.247  14.431
20157W        W92582   3.266   4.724   2.750
20158W        W92583  43.323  38.932  10.124
20159W        W92584  21.622  34.591   2.205
20160W        W92585  44.354  34.308   2.140
20161W        W92586   6.464  33.428   4.084
20162W        W92587  13.713   4.463   2.288
20163W        W92588  26.980  30.327  13.996
20164W        W92589   0.267  44.900   1.655
20165W        W92590   4.393  16.250   1.773
20166W        W92591  38.047  34.085   5.052
20167W        W92592  36.892   6.821  11.213
20168W        W92593  31.375   6.293   4.869
20169W        W92594   2.157  24.622  13.489
20170W        W92595  25.099   7.201   2.700
20171W        W92596  39.581  32.020   3.992
20172W        W92597  25.185  30.559  14.520
20173W        W92598  30.421  43.324   1.707
20174W        W92599   3.684   3.837   2.228
20175W        W92600  18.638  10.160   2.477
20176W        W92601  21.921  17.835   3.708
20177W        W92602   2.816  41.987   4.856
20178W        W92603  30.826  24.541   2.737
20179W        W92604   7.606  14.333  11.048
20180W        W92605   4.781   8.114  11.174
20181W        W92606  12.572  29.605   0.728
20182W        W92607  33.548   0.980  11.705
20183W        W92608  33.156  10.581  13.349
20184W        W92609  25.668  43.951   0.256
20185W        W92610  31.719   8.217   0.196
20186W        W92611  39.027  13.816  10.512
20187W        W92612  30.300  14.036  11.642
20188W        W92613  19.494  36.069  12.547
20189W        W92614  43.629  27.601   1.966
20190W        W92615  35.048  30.031   2.636
20191W        W92616   1.741  20.142  10.767
20192W        W92617  24.025   5.744  12.534
20193W        W92618   4.511  31.450   2.202
20194W        W92619  15.036  30.397   2.801
20195W        W92620  31.377  32.730  12.835
20196W        W92621  10.296   0.290  13.476
20197W        W92622   5.815   6.087  10.895
20198W        W92623  29.504  19.985  11.096
20199W        W92624   2.671  43.870  14.441
20200W        W92625  43.895  44.723  10.292
20201W        W92626  40.974  40.373   0.011
20202W        W92627  38.452  32.542   4.354
20203W        W92628  35.074  40.983  12.054
20204W        W92629  24.725  25.239  12.196
20205W        W92630  10.254  10.864  11.185
20206W        W92631   7.438  44.997  11.159
20207W        W92632  41.347   2.394  12.603
20208W        W92633  43.385  31.431   0.697
20209W        W92634   9.667   6.270   4.136
20210W        W92635  18.498  40.058   3.031
20211W        W92636  30.229  44.004  12.489
20212W        W92637  24.022  21.479  10.920
20213W        W92638  26.885  34.267  11.871
20214W        W92639  44.514  16.295   1.639
20215W        W92640  38.714  15.672  13.735
20216W        W92641  10.345  14.112  10.684
20217W        W92642  40.396  19.459  12.086
20218W        W92643  26.994  26.613  10.584
20219W        W92644  11.423   4.989   3.089
20220W        W92645  43.870  19.534   3.729
20221W        W92646   4.701  11.385   0.468
20222W        W92647  41.398  13.627   1.250
20223W        W92648  36.419  34.638   0.828
20224W        W92649  43.953  38.306   3.697
20225W        W92650  19.811  38.069  11.653
20226W        W92651  15.120   6.492   0.810
20227W        W92652   8.877  29.859  10.844
20228W        W92653  44.778  38.405  11.575
20229W        W92654  13.658   4.201   0.009
20230W        W92655  11.735  32.064  12.795
20231W        W92656  33.847  22.752   1.419
20232W        W92657  30.453  36.063   1.968
20233W        W92658   9.163  43.176   4.191
20234W        W92659  23.109  11.874  10.576
20235W        W92660  19.828  15.539  12.562
20236W        W92661  38.853  19.489   3.758
20237W        W92662  22.522  44.736   3.760
20238W        W92663  31.992  31.936   0.329
20239W        W92664   5.897  39.422   1.872
20240W        W92665   1.392   3.125   1.625
20241W        W92666  28.422  34.558   4.524
20242W        W92667   1.743   6.321  13.441
20243W        W92668  21.065  36.526   0.327
20244W        W92669  40.988  13.181   4.628
20245W        W92670  41.291  11.925  13.972
20246W        W92671  40.593  37.219   1.682
20247W        W92672   2.690  39.100  13.560
20248W        W92673  38.943  37.934   4.658
20249W        W92674  25.486  25.632  14.849
20250W        W92675  18.497  14.314   3.287
20251W        W92676  34.288   9.487   1.620
20252W        W92677  32.348  15.948   0.781
20253W        W92678  21.816  42.462   4.231
20254W        W92679  26.903  32.420   1.189
20255W        W92680  37.248  28.841  12.244
20256W        W92681  17.327  30.481   4.549
20257W        W92682  21.174  27.486  10.219
20258W        W92683  16.845  16.414  10.718
20259W        W92684  37.276  43.355   4.581
20260W        W92685  30.220  15.265   1.264
20261W        W92686   5.356  10.540  11.141
20262W        W92687  13.356  12.846  14.763
20263W        W92688  14.222  20.559  12.244
20264W        W92689   0.529  20.974  12.687
20265W        W92690  25.467  20.049   4.187
20266W        W92691  26.572  25.818  13.817
20267W        W92692   9.821  18.832  13.379
20268W        W92693  40.379   0.826  12.844
20269W        W92694  20.056  44.404   2.763
20270W        W92695  19.630  36.039   1.006
20271W        W92696  14.170  14.612   0.326
20272W        W92697  16.770   3.272  12.132
20273W        W92698  14.497   8.285  11.990
20274W        W92699  22.999  22.036  12.575
20275W        W92700  10.144  20.160  12.376
20276W        W92701  26.513  27.092  12.862
20277W        W92702  19.967  38.950  11.743
20278W        W92703  16.836  37.312  10.058
20279W        W92704  35.099  24.018   0.550
20280W        W92705  31.803   8.691   4.606
20281W        W92706   3.892  21.332  12.336
20282W        W92707  21.116  27.215   0.835
20283W        W92708  36.594  34.269   3.851
20284W        W92709  26.245   5.838  14.766
20285W        W92710   7.861  26.904  14.924
20286W        W92711  28.060  12.842   2.840
20287W        W92712  33.984  33.474  12.709
20288W        W92713  23.560  25.120   4.167
20289W        W92714  37.568  16.777  12.032
20290W        W92715  13.628  22.152   0.425
20291W        W92716  25.915  11.341   0.221
20292W        W92717  23.581  36.609   2.654
20293W        W92718   6.931   4.190   1.235
20294W        W92719  13.620  38.949  14.926
20295W        W92720  42.456   4.403   3.308
20296W        W92721  41.957  21.019   1.212
20297W        W92722  12.572  34.441  13.362
20298W        W92723  38.728  27.500   3.201
20299W        W92724  11.654  29.405   2.681
20300W        W92725  13.614  17.147   0.084
20301W        W92726  33.444  30.514   2.670
20302W        W92727  31.569  36.015   1.684
20303W        W92728   8.190  34.043  11.134
20304W        W92729  10.688   1.540  13.692
20305W        W92730  26.000  18.483  14.264
20306W        W92731  25.773   8.981  11.415
20307W        W92732  11.304   1.002   3.824
20308W        W92733  16.705  21.154   2.126
20309W        W92734  12.737  33.645   3.069
20310W        W92735  21.150  12.807  11.582
20311W        W92736  31.476  35.697   2.529
20312W        W92737  34.987  19.018   1.207
20313W        W92738   5.350   6.272   4.202
20314W        W92739   7.124  32.550  11.541
20315W        W92740  15.088  43.794   3.137
20316W        W92741  33.563  29.166   2.619
20317W        W92742  31.411   9.418  11.230
20318W        W92743  37.820  33.624  12.372
20319W        W92744  13.459  19.802  11.280
20320W        W92745  20.059  17.071   3.153
20321W        W92746  34.924  10.597   2.608
20322W        W92747  36.417  11.196  13.406
20323W        W92748  27.368  20.950  11.625
20324W        W92749   4.872  12.390  11.543
20325W        W92750  24.884  37.653   5.140
20326W        W92751  16.298  33.875  12.800
20327W        W92752  10.733  12.870   1.744
20328W        W92753   0.708  11.190   1.594
20329W        W92754  37.648  10.196   9.977
20330W        W92755  31.208   0.388   4.547
20331W        W92756   3.744  26.579   0.585
20332W        W92757  16.809  24.090   3.136
20333W        W92758   6.243  26.453   1.068
20334W        W92759   7.142  21.533  12.593
20335W        W92760  20.573  24.007   3.287
20336W        W92761   5.635  43.383   1.075
20337W        W92762  34.171  19.079   3.487
20338W        W92763  35.826  40.005  11.856
20339W        W92764  27.305  44.808   3.960
20340W        W92765   5.431  22.958   1.876
20341W        W92766  18.323  12.218   3.297
20342W        W92767  44.480  31.469  14.809
20343W        W92768  14.329  17.124  13.817
20344W        W92769  29.983  30.094   2.365
20345W        W92770   2.116  28.096  12.595
20346W        W92771  42.483   8.218  13.508
20347W        W92772  40.613  19.297   3.309
20348W        W92773  28.516  15.240   3.570
20349W        W92774  15.712  43.401   3.646
20350W        W92775  39.283  44.042  10.546
20351W        W92776  28.458  11.854   0.715
20352W        W92777  28.033  15.259  11.428
20353W        W92778  36.623  15.260  14.438
20354W        W92779   4.899  18.577   3.593
20355W        W92780  30.959  32.468  12.650
20356W        W92781   2.024  11.753  13.244
20357W        W92782  36.414   1.941   0.821
20358W        W92783  41.749  23.124  13.881
20359W        W92784  30.562  18.250  10.296
20360W        W92785   8.933  12.127   4.609
20361W        W92786   2.245   9.776   4.549
20362W        W92787  34.661   0.681   1.339
20363W        W92788   5.673  29.651  13.364
20364W        W92789  20.711  11.903   2.782
20365W        W92790  30.763  12.144   1.507
20366W        W92791  26.284  31.596   2.961
20367W        W92792  14.077  28.990   1.420
20368W        W92793  43.779   8.282   4.300
20369W        W92794  18.302  30.503   3.777
20370W        W92795  36.446  34.755   3.861
20371W        W92796   2.848  16.040   2.162
20372W        W92797  26.525   5.907   2.236
20373W        W92798  21.673   5.368  12.549
20374W        W92799  42.882  16.172   1.697
20375W        W92800  44.052  30.005   2.560
20376W        W92801  21.498  25.138   4.983
20377W        W92802  27.209  20.703  12.582
20378W        W92803   2.418   3.021   0.964
20379W        W92804   8.669  39.016   3.045
20380W        W92805  41.757   0.709   0.856
20381W        W92806  14.644  10.721   4.560
20382W        W92807  36.651   9.679   3.291
20383W        W92808  37.646  27.065  14.470
20384W        W92809  14.522  19.633   2.826
20385W        W92810  17.807  35.127  14.843
20386W        W92811  31.447  11.863  10.966
20387W        W92812  15.214   5.410  12.589
20388W        W92813  29.203  34.860   0.727
20389W        W92814  24.245  28.381  13.745
20390W        W92815  37.229   0.024  12.582
20391W        W92816   6.292  43.406   0.265
20392W        W92817  41.953  44.008  14.275
20393W        W92818  33.173  36.410   3.763
20394W        W92819  37.577   5.702   2.422
20395W        W92820   2.418   5.798  12.626
20396W        W92821  27.977  40.790  13.835
20397W        W92822  16.129  37.797  14.491
20398W        W92823  39.049  19.749  10.167
20399W        W92824  36.568   6.118  11.866
20400W        W92825  37.168  42.546  14.307
20401W        W92826  24.385   3.823   0.504
20402W        W92827  15.604   7.629  10.734
20403W        W92828  38.098  26.223   2.764
20404W        W92829  25.158  35.515   0.755
20405W        W92830  41.503  39.623   3.714
20406W        W92831  18.769  37.587  13.433
20407W        W92832  22.573   9.139  10.579
20408W        W92833  36.890  16.969  10.717
20409W        W92834   7.148   5.218   3.068
20410W        W92835  43.442  13.076  14.239
20411W        W92836  44.260   9.406   1.437
20412W        W92837   9.194  25.145   3.312
20413W        W92838  41.507  37.966   0.374
20414W        W92839  22.191  44.894   1.909
20415W        W92840  36.022  44.527   3.687
20416W        W92841  24.059  18.642   3.832
20417W        W92842  15.219  29.890  12.978
20418W        W92843  28.551   8.907   2.898
20419W        W92844   0.839   1.882  10.578
20420W        W92845  43.261   3.400  10.650
20421W        W92846  14.599  22.310  11.087
20422W        W92847   9.792  25.204   0.460
20423W        W92848  35.894  15.038  11.185
20424W        W92849  31.630  39.590  12.562
20425W        W92850  34.005  22.054   0.770
20426W        W92851  34.506  13.588   2.635
20427W        W92852  19.629  43.276   1.451
20428W        W92853  35.843  13.062   4.157
20429W        W92854  41.752   1.031  12.532
20430W        W92855   3.712  39.900  11.921
20431W        W92856  17.059  17.780  11.994
20432W        W92857   9.630   8.615   4.673
20433W        W92858   0.202  36.232  14.260
20434W        W92859   8.381  32.459   4.575
20435W        W92860  34.637  16.887   1.625
20436W        W92861  28.980  26.145  14.514
20437W        W92862  12.279  12.663   3.618
20438W        W92863   8.113  14.487   2.316
20439W        W92864  43.718  11.210  12.115
20440W        W92865   9.754  11.049  11.172
20441W        W92866  29.180  21.122  14.141
20442W        W92867  14.287  36.846  13.858
20443W        W92868  23.525  32.037   2.357
20444W        W92869  17.589  28.514   1.273
20445W        W92870   4.865  41.372  11.559
20446W        W92871  15.647  28.524  11.199
20447W        W92872  30.858  32.514   1.842
20448W        W92873  39.440  13.510  10.626
20449W        W92874  13.776  25.180  10.326
20450W        W92875  44.358  36.906   2.763
20451W        W92876  20.187  39.397  11.481
20452W        W92877  15.354   8.876  10.598
20453W        W92878   7.952  30.130   1.422
20454W        W92879   8.777  24.976   2.173
20455W        W92880  24.404  14.104  12.871
20456W        W92881  41.522   3.821   0.499
20457W        W92882  39.909  10.743   3.275
20458W        W92883  30.855  23.615   0.153
20459W        W92884  42.550  19.559   4.360
20460W        W92885  18.121  22.098   4.845
20461W        W92886  11.367  28.292   0.526
20462W        W92887  30.096  17.934  10.748
20463W        W92888  17.247  24.611   1.930
20464W        W92889  39.344  12.522   3.235
20465W        W92890  24.169  33.636   0.879
20466W        W92891  15.172  10.650  13.832
20467W        W92892  42.004   4.641  10.695
20468W        W92893  39.182  25.169   4.664
20469W        W92894  22.589  35.013   1.479
20470W        W92895  36.464  23.243  11.049
20471W        W92896  31.722   9.647  14.784
20472W        W92897   2.712  16.046   2.664
20473W        W92898  22.683  14.494  14.823
20474W        W92899  31.517  36.193   2.702
20475W        W92900   2.305  21.686  11.106
20476W        W92901   6.832   0.619   3.879
20477W        W92902   4.412  27.373   4.152
20478W        W92903  37.859  16.166  12.050
20479W        W92904  23.252  35.077   1.774
20480W        W92905  25.609   7.199   2.275
20481W        W92906  18.723  20.829   1.284
20482W        W92907  15.043  13.348   1.859
20483W        W92908  12.244  28.780   1.450
20484W        W92909  12.756  16.223  12.689
20485W        W92910  18.180  28.674  11.565
20486W        W92911  32.709  27.473   1.864
20487W        W92912  31.137   4.122  13.957
20488W        W92913  14.784   6.219   1.434
20489W        W92914   7.244   0.239   2.162
20490W        W92915  37.944  21.996  11.889
20491W        W92916  22.680  31.138  14.260
20492W        W92917  42.164   4.548   5.125
20493W        W92918  33.298   6.365   0.530
20494W        W92919   7.803  16.258   4.102
20495W        W92920  23.762   5.339  10.254
20496W        W92921  10.349   6.000   0.455
20497W        W92922  36.132  41.845   3.187
20498W        W92923  17.204  16.036   1.387
20499W        W92924  42.326  23.288  14.865
20500W        W92925  36.819  12.170  13.829
20501W        W92926  25.088  21.108  10.642
20502W        W92927  19.805  11.642  11.875
20503W        W92928  34.943  21.766  13.103
20504W        W92929   9.741  43.552  11.638
20505W        W92930  22.333  14.831   2.103
20506W        W92931  24.592  44.297   0.353
20507W        W92932  32.930  22.255   1.310
20508W        W92933  23.736  37.475  10.624
20509W        W92934  30.815  14.209  11.587
20510W        W92935  13.847  23.111   3.880
20511W        W92936  41.602   8.433  13.151
20512W        W92937  39.002   6.844  13.115
20513W        W92938   6.659  25.509  11.586
20514W        W92939  16.303  29.351   0.216
20515W        W92940  37.535  44.786  12.904
20516W        W92941  37.365  23.636  11.339
20517W        W92942  14.162  22.989   2.059
20518W        W92943  20.413  33.580  14.986
20519W        W92944  44.147  11.748   5.130
20520W        W92945  33.928  30.952   2.725
20521W        W92946  10.986  36.297  14.201
20522W        W92947  10.079  11.165  10.791
20523W        W92948  16.103  18.539   3.760
20524W        W92949  16.040  13.307  14.086
20525W        W92950  24.048  12.700   3.808
20526W        W92951  41.306  13.259   0.908
20527W        W92952  37.987  28.253  13.049
20528W        W92953  16.543   8.703  11.175
20529W        W92954  41.769   9.891  10.719
20530W        W92955   1.558  37.935   4.815
20531W        W92956   5.688  39.355   0.858
20532W        W92957  10.394   9.153   5.518
20533W        W92958  29.473  28.005   2.236
20534W        W92959  15.024  32.677  11.418
20535W        W92960  42.625   8.728   2.404
20536W        W92961  34.626  32.934   0.304
20537W        W92962  22.805  44.573  11.190
20538W        W92963   6.258  40.764  10.748
20539W        W92964  23.770  18.858  10.921
20540W        W92965   0.737  25.814   0.325
20541W        W92966  44.404  26.411  11.567
20542W        W92967  31.016  41.550  10.695
20543W        W92968  31.387  38.894  11.172
20544W        W92969   5.312  12.680   3.773
20545W        W92970  26.768   9.439  12.054
20546W        W92971  44.545  20.208   4.110
20547W        W92972  25.043  42.769   0.498
20548W        W92973  20.181  42.289   0.156
20549W        W92974  24.110  15.144  10.559
20550W        W92975   8.865  33.215  12.485
20551W        W92976   1.710  28.577  14.953
20552W        W92977  22.515  17.631   4.521
20553W        W92978  41.017  14.948   3.744
20554W        W92979  26.310  14.061  11.076
20555W        W92980  40.112  31.982   4.068
20556W        W92981  21.769   8.163   0.843
20557W        W92982  13.291  43.085  12.965
20558W        W92983   1.399  10.843  12.230
20559W        W92984   0.624   1.451  10.797
20560W        W92985  33.469   4.763  11.596
20561W        W92986  21.151   0.457  10.177
20562W        W92987  19.205  14.950   3.581
20563W        W92988  15.234  41.449  13.978
20564W        W92989  12.226  22.794   1.150
20565W        W92990  24.684  10.326  11.062
20566W        W92991  42.854  15.277   0.711
20567W        W92992  41.263   7.922   2.426
20568W        W92993  22.020  40.457   0.765
20569W        W92994  39.977  14.787  14.542
20570W        W92995  33.645  44.288  14.382
20571W        W92996   0.833  20.751   2.720
20572W        W92997  17.906  41.939   1.932
20573W        W92998  16.621   0.293  13.836
20574W        W92999  22.688  41.329  11.224
20575W        W93000  42.847  42.024  13.694
20576W        W93001  35.449  11.160   4.491
20577W        W93002  33.505  40.172   1.965
20578W        W93003  32.368   9.806   1.758
20579W        W93004  17.730  19.529   1.765
20580W        W93005  15.022  21.161   2.427
20581W        W93006  41.926  27.576   4.913
20582W        W93007  42.911  20.048  13.919
20583W        W93008  23.259  31.398   2.146
20584W        W93009  36.164  13.232  10.844
20585W        W93010  11.151  33.685  11.989
20586W        W93011  28.897   5.942   3.085
20587W        W93012  35.832  30.513   4.648
20588W        W93013  14.224  11.897   3.238
20589W        W93014  44.564  43.498  11.087
20590W        W93015   3.795  26.739   1.106
20591W        W93016  15.086  25.015  10.601
20592W        W93017   5.496  31.133   1.758
20593W        W93018   2.844  15.847  11.017
20594W        W93019  13.579  30.539  10.830
20595W        W93020   0.418  19.318  14.988
20596W        W93021  12.656  31.912  12.112
20597W        W93022  23.486  31.081   2.831
20598W        W93023  18.580  44.334   0.497
20599W        W93024   6.850  41.767  14.958
20600W        W93025  23.489  34.442   2.930
20601W        W93026  24.710  21.027   1.311
20602W        W93027  30.504   4.697  10.710
20603W        W93028   7.842  42.077   3.044
20604W        W93029  38.637   3.387  14.836
20605W        W93030  43.562   8.572  10.726
20606W        W93031   7.160  23.684   0.344
20607W        W93032  36.275  29.383   3.208
20608W        W93033  32.689  41.160  11.115
20609W        W93034  34.859   8.150   4.703
20610W        W93035  23.048  18.640   4.819
20611W        W93036  43.473  14.625  13.718
20612W        W93037  32.876  41.409  12.829
20613W        W93038  42.020  38.745   4.596
20614W        W93039  39.588  16.241  12.549
20615W        W93040  32.167  24.513   3.680
20616W        W93041  28.972  10.134   1.809
20617W        W93042  30.640   3.474   4.140
20618W        W93043  38.793  22.057   3.702
20619W        W93044   2.361  14.571   4.274
20620W        W93045   5.768   1.791  13.392
20621W        W93046   6.355  40.856   2.288
20622W        W93047  29.426  42.416   2.261
20623W        W93048   2.956  33.802   0.977
20624W        W93049  39.618  28.024   1.126
20625W        W93050  10.092  43.760   1.831
20626W        W93051  25.222  37.482   1.418
20627W        W93052  39.611  15.312   0.925
20628W        W93053  11.904  18.373   5.023
20629W        W93054   6.806   1.061   3.394
20630W        W93055   0.964  15.765  11.946
20631W        W93056  32.635  15.285   4.531
20632W        W93057  30.742   8.128  14.336
20633W        W93058   6.256  42.570  14.916
20634W        W93059  32.216   3.184  13.896
20635W        W93060  20.528  36.576   1.830
20636W        W93061  23.710  44.776   1.256
20637W        W93062  13.841  29.227  10.446
20638W        W93063  18.733  35.822  10.763
20639W        W93064  12.218  31.345  12.698
20640W        W93065   5.214  32.879   0.076
20641W        W93066   1.149   9.332   4.963
20642W        W93067   3.359  37.733   0.838
20643W        W93068  14.658  40.073  14.749
20644W        W93069  19.064  44.959  11.154
20645W        W93070   4.200   3.034   3.154
20646W        W93071  13.788  31.903  13.998
20647W        W93072  40.623  22.341   2.873
20648W        W93073  37.080  19.207  10.740
20649W        W93074  24.796  35.543  14.831
20650W        W93075  19.229  40.853   2.274
20651W        W93076  30.411  16.777  12.082
20652W        W93077  26.018  13.935  14.460
20653W        W93078  18.068  30.137  13.374
20654W        W93079  32.454   9.047   0.368
20655W        W93080  44.925  15.485   1.525
20656W        W93081   4.950  42.868  12.911
20657W        W93082  22.243  32.291   3.107
20658W        W93083  11.397   7.381   1.491
20659W        W93084  38.746   8.813   3.335
20660W        W93085  15.918  42.195   3.695
20661W        W93086  34.075  19.654  13.472
20662W        W93087  17.618   4.657  13.087
20663W        W93088  19.625   1.320   0.237
20664W        W93089  16.717   4.337  10.934
20665W        W93090  30.899   3.894   1.300
20666W        W93091  39.347  27.584  10.888
20667W        W93092   8.959  28.349  13.840
20668W        W93093  32.039  35.058  11.237
20669W        W93094   0.868  24.190  10.673
20670W        W93095  43.851  22.982  11.956
20671W        W93096  36.796   4.725  13.468
20672W        W93097  16.730  37.452  11.386
20673W        W93098  40.538   5.305   4.319
20674W        W93099  27.426  29.393   0.839
20675W        W93100  13.196   0.585   2.451
20676W        W93101  32.041  38.492  13.798
20677W        W93102   0.495  24.924  12.077
20678W        W93103  41.102  36.009  11.784
20679W        W93104  32.266  31.930   3.660
20680W        W93105  20.915  31.688   3.624
20681W        W93106  34.843   9.614   4.891
20682W        W93107   6.679   8.567  14.105
20683W        W93108  24.129   1.808  14.751
20684W        W93109  21.696   1.358   1.702
20685W        W93110  25.091  40.825   1.614
20686W        W93111  38.632  10.703   0.374
20687W        W93112  21.471  16.525  11.086
20688W        W93113   4.752  26.944   4.889
20689W        W93114  32.832  41.988   4.903
20690W        W93115  36.235  44.145   2.415
20691W        W93116  36.320  36.170  14.928
20692W        W93117  41.506  17.772  14.431
20693W        W93118   7.350  37.901   3.388
20694W        W93119  38.521   4.692  14.882
20695W        W93120   0.490  19.625   1.795
20696W        W93121  13.340  40.047  11.634
20697W        W93122  17.932  26.686   3.305
20698W        W93123  29.897  11.570   4.814
20699W        W93124  26.800   7.456   1.207
20700W        W93125   5.108  44.903   2.826
20701W        W93126  24.945  39.103   4.119
20702W        W93127  41.307  13.176   1.440
20703W        W93128  36.508  30.845  10.784
20704W        W93129   5.352  33.874   2.109
20705W        W93130  26.461  21.048  11.554
20706W        W93131  19.165  40.499  11.498
20707W        W93132   9.238  13.867   3.840
20708W        W93133  35.912   6.759  14.923
20709W        W93134  28.633  43.185  11.422
20710W        W93135  18.156  12.787  11.232
20711W        W93136   3.792   3.293  12.559
20712W        W93137   5.289   1.232  12.854
20713W        W93138  33.442  19.399   2.251
20714W        W93139   4.356  13.862  14.854
20715W        W93140  44.408  42.509  13.808
20716W        W93141  36.197  23.819   4.584
20717W        W93142  20.734  17.645  12.887
20718W        W93143  25.190   1.395   4.687
20719W        W93144  25.611   2.726   3.718
20720W        W93145   5.452  40.866  11.035
20721W        W93146   6.339   5.413  13.099
20722W        W93147  32.621   4.756  13.856
20723W        W93148  20.315  15.254   2.709
20724W        W93149  21.538  29.356   2.207
20725W        W93150  16.577  10.357  13.006
20726W        W93151  25.476  38.881  14.805
20727W        W93152  26.131  19.204  11.703
20728W        W93153  21.110  22.236   4.324
20729W        W93154  44.480   3.752  14.442
20730W        W93155  14.845  22.182   1.719
20731W        W93156   2.763  18.836   1.229
20732W        W93157  32.058  17.355  11.625
20733W        W93158  23.974  20.019  10.795
20734W        W93159  39.297  19.291  13.479
20735W        W93160   7.668  36.466  10.430
20736W        W93161   2.762  23.456   1.597
20737W        W93162   1.534  18.033   0.066
20738W        W93163  36.038  27.439   2.571
20739W        W93164  37.705  43.272   0.196
20740W        W93165  31.452  19.985   1.827
20741W        W93166   0.744  20.808   1.349
20742W        W93167  10.647  16.082   0.883
20743W        W93168  22.416  39.272   2.285
20744W        W93169  28.055  20.588   0.504
20745W        W93170  15.138  10.798  11.917
20746W        W93171  44.147   4.160   0.871
20747W        W93172  42.358  29.222  13.408
20748W        W93173  39.085  20.784  11.890
20749W        W93174   1.615  24.984  11.274
20750W        W93175  35.721  24.517  12.412
20751W        W93176   7.337  12.122  12.517
20752W        W93177  43.707  43.360  11.416
20753W        W93178  22.434  28.487   3.714
20754W        W93179  32.188  43.864  13.435
20755W        W93180  13.930  30.400  12.951
20756W        W93181  24.007  36.348  14.392
20757W        W93182  26.511   8.676  12.972
20758W        W93183  37.739  22.461   0.450
20759W        W93184   2.760   2.680   3.269
20760W        W93185  27.734   6.253   2.813
20761W        W93186  29.007   4.294   4.137
20762W        W93187  22.742  42.786   4.574
20763W        W93188  44.242  14.779  12.505
20764W        W93189  23.983  29.974  11.238
20765W        W93190  40.349  25.212   9.697
20766W        W93191   2.415  17.190  12.085
20767W        W93192   4.322  34.048   1.188
20768W        W93193  22.436  38.867   1.947
20769W        W93194  14.752  23.652  11.574
20770W        W93195  37.488  20.212   3.650
20771W        W93196  16.719  23.451  11.524
20772W        W93197   4.488  27.910   0.051
20773W        W93198  33.528  26.324  12.558
20774W        W93199   1.540  25.183  12.212
20775W        W93200  36.492  32.639  11.393
20776W        W93201  35.118  36.971  14.012
20777W        W93202   5.413  32.821   2.821
20778W        W93203  20.487  27.959  14.296
20779W        W93204  38.547  10.074  13.704
20780W        W93205   4.626  21.462  11.096
20781W        W93206  10.104  32.437   1.026
20782W        W93207  18.640   9.226   2.913
20783W        W93208  35.579  21.693  11.495
20784W        W93209  34.960  30.473  13.995
20785W        W93210  17.431  11.300  12.982
20786W        W93211  12.335   6.779  12.132
20787W        W93212  14.828  24.550  13.816
20788W        W93213  23.031   5.362  14.986
20789W        W93214  35.620  12.297   3.250
20790W        W93215  42.711  36.403   1.710
20791W        W93216   7.242  13.156   3.206
20792W        W93217  44.244  38.563  13.396
20793W        W93218  22.038  25.155  13.483
20794W        W93219  44.253  39.465  14.375
20795W        W93220  13.425  33.423  14.949
20796W        W93221  25.261  31.472  12.068
20797W        W93222  38.117  44.497   5.442
20798W        W93223   0.715  37.442  10.756
20799W        W93224  11.651  43.453   3.651
20800W        W93225  39.142  38.924  11.472
20801W        W93226  25.470  20.633  14.511
20802W        W93227  31.087  31.047  14.771
20803W        W93228  24.562  20.681   4.547
20804W        W93229  25.695  34.836  11.626
20805W        W93230  25.631  28.721   0.361
20806W        W93231   1.008  22.528  10.183
20807W        W93232  24.066  36.524   3.340
20808W        W93233  11.852   0.893   0.026
20809W        W93234   2.986  30.109   2.925
20810W        W93235  21.517   3.308  10.239
20811W        W93236  42.429  28.955   4.554
20812W        W93237  23.470  44.269   0.276
20813W        W93238  13.817   8.868   0.022
20814W        W93239  24.706  15.240   1.772
20815W        W93240  40.800  18.857   4.156
20816W        W93241   7.234  42.298  11.224
20817W        W93242  12.173  36.778  13.029
20818W        W93243  28.715  35.139   1.841
20819W        W93244  28.160  17.330  14.523
20820W        W93245  29.874  12.898   4.671
20821W        W93246  22.997   8.100   2.292
20822W        W93247  43.060  32.485  12.913
20823W        W93248  38.114  36.842   1.457
20824W        W93249  30.531  31.190   1.723
20825W        W93250  27.009  42.436  11.644
20826W        W93251   8.452  15.129   0.835
20827W        W93252   8.720  32.179   2.800
20828W        W93253   7.810  17.494   2.409
20829W        W93254  41.190  43.102   2.774
20830W        W93255   7.038   3.785   0.893
20831W        W93256  33.832  41.434  11.994
20832W        W93257  11.119  44.277   2.236
20833W        W93258  21.489   1.412  11.772
20834W        W93259  42.242  19.122   0.182
20835W        W93260  10.998  28.118  10.401
20836W        W93261   6.976  10.018   1.261
20837W        W93262  31.998  23.710  12.502
20838W        W93263  26.611  32.072  13.406
20839W        W93264  23.242  14.517  12.571
20840W        W93265   4.500   6.740   1.298
20841W        W93266  33.908  43.266   1.905
20842W        W93267  34.384  41.199   4.145
20843W        W93268  29.877  22.040   0.352
20844W        W93269  21.750  16.243   0.327
20845W        W93270  21.509   2.287  12.019
20846W        W93271  18.690  38.552   3.721
20847W        W93272  18.242   8.203   0.976
20848W        W93273  39.867  40.509   1.409
20849W        W93274  18.197  12.338  12.359
20850W        W93275  10.822  21.093  11.736
20851W        W93276  36.368  36.961  11.971
20852W        W93277  23.412  27.631  14.720
20853W        W93278  26.546  44.329   2.248
20854W        W93279  34.995  23.515   0.777
20855W        W93280  21.833  41.848  11.157
20856W        W93281  41.391  23.576   3.869
20857W        W93282  20.606  29.391   0.189
20858W        W93283  30.566  42.925  12.932
20859W        W93284  36.069  39.306   4.596
20860W        W93285  22.651  17.002   1.975
20861W        W93286  12.692  28.502   1.452
20862W        W93287  38.381   7.982   2.745
20863W        W93288  30.005   4.930   3.662
20864W        W93289   3.539  34.596   1.806
20865W        W93290  32.783  16.138   9.956
20866W        W93291  16.515   9.096   0.274
20867W        W93292  40.277  38.925   1.588
20868W        W93293   8.031  26.990  13.073
20869W        W93294  36.083  19.564  13.610
20870W        W93295  42.326  14.363  12.968
20871W        W93296  44.577  30.973  14.989
20872W        W93297  36.834  32.037   3.919
20873W        W93298   7.204  18.781  12.931
20874W        W93299   8.210   8.584   5.513
20875W        W93300  16.604  30.392  12.279
20876W        W93301   0.252  30.989   0.643
20877W        W93302   8.698  18.716  13.024
20878W        W93303  25.954  33.827   4.758
20879W        W93304  44.790  27.589  14.555
20880W        W93305  44.658   8.271   4.048
20881W        W93306  37.005  43.078   1.730
20882W        W93307   5.629   3.482  13.459
20883W        W93308  35.796  44.409   2.355
20884W        W93309  26.089   0.931   3.178
20885W        W93310  34.027  42.533  12.928
20886W        W93311   9.285  44.561   2.480
20887W        W93312  29.724  35.037   4.235
20888W        W93313  27.687  13.747   3.340
20889W        W93314  42.251  36.163   0.854
20890W        W93315  40.335  22.667  11.399
20891W        W93316   4.925  27.320  12.918
20892W        W93317  38.421  32.548  12.222
20893W        W93318  23.495  27.590   4.880
20894W        W93319  34.057  39.047   1.314
20895W        W93320  26.481  16.147   2.888
20896W        W93321   1.318  38.011   1.529
20897W        W93322  23.065   8.671   5.005
20898W        W93323  11.809  38.616   1.830
20899W        W93324   7.814  37.981  10.203
20900W        W93325  30.319   8.283   4.586
20901W        W93326  15.923  33.530  13.569
20902W        W93327  11.394  43.554   0.517
20903W        W93328  16.786  40.607   4.068
20904W        W93329  10.342  41.418  13.511
20905W        W93330   5.685  14.661  12.795
20906W        W93331  38.260  21.384  12.905
20907W        W93332  31.596  16.001  12.360
20908W        W93333  12.269   4.274  10.827
20909W        W93334  18.644  14.249  11.581
20910W        W93335  41.015   5.160  13.141
20911W        W93336  36.958   5.414  12.314
20912W        W93337  21.620  16.526   3.091
20913W        W93338  28.510  32.411  10.277
20914W        W93339   9.434   6.509   4.574
20915W        W93340  31.007  18.369   3.306
20916W        W93341  34.990  32.633  10.690
20917W        W93342   4.300   4.910  12.525
20918W        W93343  37.157  32.355   4.693
20919W        W93344  30.446  13.617  12.406
20920W        W93345  24.027   9.785   3.131
20921W        W93346  25.483   1.102   2.729
20922W        W93347  44.983  12.455   4.241
20923W        W93348   1.242   7.666   4.601
20924W        W93349  35.854  25.689   0.910
20925W        W93350  13.904  25.985   2.316
20926W        W93351  38.383  27.968   1.324
20927W        W93352  36.772  38.226   4.244
20928W        W93353  10.111  15.233  12.149
20929W        W93354  18.026   4.784   1.831
20930W        W93355  40.787  18.859  14.269
20931W        W93356  27.197  27.752  14.732
20932W        W93357   4.558  15.651   2.845
20933W        W93358  26.596   4.777   1.849
20934W        W93359  23.049   7.170   2.459
20935W        W93360   8.410   8.141  12.046
20936W        W93361  12.894  16.512   0.217
20937W        W93362  30.891  33.849   3.512
20938W        W93363  42.503  32.043  13.581
20939W        W93364  23.104  43.405   2.156
20940W        W93365   6.273  22.161   2.131
20941W        W93366  20.092   5.502   2.348
20942W        W93367  38.148   7.911  14.924
20943W        W93368  25.432  14.720   4.542
20944W        W93369   2.004  30.220   4.536
20945W        W93370  26.476  22.383  10.225
20946W        W93371  35.679  26.488  11.961
20947W        W93372  42.897   6.898  10.994
20948W        W93373  17.943  40.014   2.928
20949W        W93374  16.288  14.824  13.534
20950W        W93375  17.526  20.538   0.855
20951W        W93376  12.633  28.968  14.900
20952W        W93377  26.591  26.347  14.735
20953W        W93378  42.976  32.781   2.161
20954W        W93379  12.281   0.685  14.774
20955W        W93380  12.566   2.480   3.763
20956W        W93381   8.139  14.263   2.782
20957W        W93382  22.641  26.612   2.607
20958W        W93383  38.464  23.538   1.451
20959W        W93384   7.232  20.621  13.121
20960W        W93385  42.181  36.249   3.195
20961W        W93386  21.246  26.379   2.237
20962W        W93387  10.935  23.528   3.082
20963W        W93388  40.641  10.622  11.584
20964W        W93389  32.598  44.862   1.695
20965W        W93390   6.874  20.498   1.376
20966W        W93391   9.379  32.073   1.114
20967W        W93392  10.877  26.715   4.641
20968W        W93393  29.643  23.769   2.377
20969W        W93394  24.471   4.323   2.151
20970W        W93395  29.340   1.014   0.834
20971W        W93396  32.334  11.242   4.555
20972W        W93397  20.595  26.448   1.014
20973W        W93398  40.631   6.769   0.877
20974W        W93399   1.717  18.693   1.300
20975W        W93400  24.279  19.193  10.949
20976W        W93401  35.993  14.882  13.105
20977W        W93402  32.917  35.943  11.637
20978W        W93403  28.371  27.005   3.717
20979W        W93404  37.941   5.772   1.637
20980W        W93405  10.470  16.815  13.452
20981W        W93406   2.714  28.483  11.096
20982W        W93407  20.074  41.198   3.343
20983W        W93408  38.132  11.286  14.552
20984W        W93409   1.403  42.475   2.197
20985W        W93410  10.411  17.610   2.619
20986W        W93411  43.469   5.498   0.754
20987W        W93412  24.166  11.205  13.634
20988W        W93413  38.397   4.111   1.617
20989W        W93414  30.907  26.178  13.405
20990W        W93415  37.409  38.883   1.672
20991W        W93416  25.278  19.992   1.398
20992W        W93417  42.831  28.193   3.665
20993W        W93418   0.490  25.926  12.044
20994W        W93419   3.513   6.188  14.687
20995W        W93420  43.964  14.223   3.255
20996W        W93421  22.222  34.417   4.463
20997W        W93422  33.529  13.340  12.976
20998W        W93423  36.262   2.458   4.272
20999W        W93424  39.404  17.488   0.326
21000W        W93425  26.018  39.297   2.681
21001W        W93426  11.969   1.602  11.859
21002W        W93427  26.928  38.070   0.480
21003W        W93428  31.996  41.676   1.442
21004W        W93429   6.555  44.128  10.270
21005W        W93430  14.566  34.953  13.727
21006W        W93431   8.859  20.969   3.665
21007W        W93432  26.839  16.001  11.641
21008W        W93433  34.911   6.758   1.509
21009W        W93434   0.518  32.077   1.735
21010W        W93435   9.808  24.820   2.879
21011W        W93436  25.242   4.288   4.691
21012W        W93437  16.650  28.551  12.852
21013W        W93438  17.821  44.273  13.091
21014W        W93439  20.646   3.379  12.149
21015W        W93440   7.507   8.755   1.457
21016W        W93441  21.273  25.309   4.532
21017W        W93442  28.278  33.253  12.145
21018W        W93443  23.614  18.003  13.521
21019W        W93444  44.758  44.778   1.486
21020W        W93445  43.897  31.355   0.892
21021W        W93446  24.324   9.319  10.131
21022W        W93447  28.989  42.412  13.959
21023W        W93448  21.933   7.882  11.544
21024W        W93449  27.101  40.565  14.917
21025W        W93450  22.743  39.891  11.770
21026W        W93451  27.603  41.493  12.124
21027W        W93452  37.846  37.940   0.518
21028W        W93453  18.382  15.859   3.360
21029W        W93454  13.973  41.403  12.787
21030W        W93455  23.576   8.937   4.203
21031W        W93456  15.855  25.664   0.847
21032W        W93457  36.275  38.093   4.236
21033W        W93458  28.270  14.698   2.618
21034W        W93459  31.427  19.139   3.353
21035W        W93460  29.906  25.212   0.046
21036W        W93461  23.647  40.428  12.134
21037W        W93462  44.373   4.919   0.000
21038W        W93463   5.309  32.864   0.883
21039W        W93464  40.764  27.046   1.459
21040W        W93465   1.699   0.966  13.422
21041W        W93466  38.875  10.234   4.993
21042W        W93467  35.118  39.093  14.918
21043W        W93468   8.441   0.147  12.535
21044W        W93469  16.115  42.521  12.087
21045W        W93470  41.991   5.313   4.876
21046W        W93471  36.489   4.873   1.757
21047W        W93472  36.057  32.143  12.511
21048W        W93473  37.777  22.696   1.750
21049W        W93474  26.737  16.558   2.786
21050W        W93475  15.606  10.723   0.539
21051W        W93476  34.504  16.384   1.719
21052W        W93477  37.497  19.855  13.336
21053W        W93478   3.745   6.903   0.868
21054W        W93479  42.021  19.549   3.658
21055W        W93480  34.547   4.394  13.697
21056W        W93481  27.668  33.450   4.308
21057W        W93482   2.694  28.123   4.157
21058W        W93483  28.106  21.170  14.924
21059W        W93484  29.491   1.295   3.311
21060W        W93485   4.840  41.034   1.815
21061W        W93486  19.207  36.548  14.979
21062W        W93487  43.140  34.590  12.153
21063W        W93488  42.958  11.949   0.303
21064W        W93489   8.419  30.827   0.938
21065W        W93490  37.820  42.299  12.043
21066W        W93491  39.519  38.348  12.400
21067W        W93492  33.152   2.933   4.841
21068W        W93493  29.938  36.025   3.207
21069W        W93494  12.341  34.860   0.551
21070W        W93495  23.148   5.595   0.417
21071W        W93496  10.657  42.716   4.071
21072W        W93497  20.476   6.388  11.014
21073W        W93498  19.072   4.078   3.181
21074W        W93499  38.511  42.863   3.645
21075W        W93500  37.937   8.149  10.407
21076W        W93501  21.202  12.435   0.260
21077W        W93502   8.761  31.982  12.942
21078W        W93503  32.003  11.679   2.212
21079W        W93504  18.044   7.760   1.654
21080W        W93505  20.193  18.751  12.077
21081W        W93506  41.426  36.526  12.322
21082W        W93507  32.110   0.299  13.072
21083W        W93508  12.848  41.134   1.821
21084W        W93509   1.147  26.943   2.002
21085W        W93510  25.088  15.887   0.420
21086W        W93511  34.001  42.357   2.185
21087W        W93512   8.054  29.263  12.790
21088W        W93513  34.474  27.738   4.900
21089W        W93514  41.876  39.486   2.167
21090W        W93515  28.605  18.109   4.717
21091W        W93516  16.324   1.930   5.048
21092W        W93517  33.952  15.175  14.028
21093W        W93518   0.183   5.832   4.614
21094W        W93519  19.625  25.591   4.582
21095W        W93520  26.939  23.349   1.790
21096W        W93521  14.171  15.890   4.109
21097W        W93522  13.972  22.961  13.039
21098W        W93523  37.457  27.874  13.734
21099W        W93524   4.838  10.300   4.072
21100W        W93525  34.835  15.622  12.534
21101W        W93526  12.671  39.313  14.924
21102W        W93527  29.858  21.590   1.200
21103W        W93528  40.020   5.034   3.144
21104W        W93529  18.081  22.447   0.860
21105W        W93530  12.739  22.056   3.783
21106W        W93531  13.737  44.765  14.906
21107W        W93532  33.573  35.345   2.540
21108W        W93533  25.013  40.420  11.220
21109W        W93534   6.820  31.314   4.664
21110W        W93535  14.511  30.482   2.795
21111W        W93536  42.519   8.179   3.778
21112W        W93537  41.462  13.252   4.860
21113W        W93538  37.470   7.587  12.039
21114W        W93539   0.439  13.357   3.718
21115W        W93540  40.140  17.221   3.815
21116W        W93541  10.255  10.406  13.704
21117W        W93542  25.068  19.174  11.684
21118W        W93543  39.831  21.284  13.810
21119W        W93544  28.210   2.307   4.117
21120W        W93545  29.644  26.027   0.345
21121W        W93546  27.070  30.134   1.007
21122W        W93547  30.153  11.168   4.570
21123W        W93548   3.918  32.954   3.478
21124W        W93549  39.834   9.134   0.974
21125W        W93550  15.291  44.832   3.586
21126W        W93551  33.874   4.534   3.985
21127W        W93552  26.139  33.365  10.326
21128W        W93553  19.215  12.077   0.817
21129W        W93554   6.314   6.153  14.774
21130W        W93555  39.571  25.550  11.618
21131W        W93556  40.344   7.861   4.043
21132W        W93557  35.508   7.113   2.138
21133W        W93558  32.137  35.147  14.543
21134W        W93559  27.047  40.771   3.542
21135W        W93560  30.627   6.896   3.925
21136W        W93561  32.436  12.666   3.863
21137W        W93562   8.127  27.498  12.505
21138W        W93563  20.939  16.258   4.139
21139W        W93564  36.328  37.767   0.527
21140W        W93565  12.767  18.394   2.191
21141W        W93566  11.296  25.456  12.593
21142W        W93567  16.286   8.059  12.926
21143W        W93568  36.364   8.869   1.735
21144W        W93569  11.895   1.363  14.785
21145W        W93570   6.318  42.098   1.258
21146W        W93571   6.775   4.034  12.423
21147W        W93572   0.376  11.849  13.403
21148W        W93573  32.123  12.294   1.575
21149W        W93574  22.334  29.083   0.986
21150W        W93575   7.935  29.855  14.648
21151W        W93576  22.288  38.518  11.486
21152W        W93577  35.680  14.604  11.001
21153W        W93578   4.856  24.851   3.464
21154W        W93579  22.501  11.770   1.295
21155W        W93580  39.094  40.551  12.448
21156W        W93581  17.639  17.609  11.939
21157W        W93582   4.710  26.521   3.250
21158W        W93583   1.388  30.449   2.292
21159W        W93584  37.036  42.495   4.603
21160W        W93585   5.950  31.474   0.325
21161W        W93586  39.501   5.735   3.322
21162W        W93587  23.443  14.470  10.499
21163W        W93588  37.091   9.991  13.025
21164W        W93589  33.569  25.592   2.276
21165W        W93590  41.326  12.165   1.387
21166W        W93591  14.605  11.360   0.399
21167W        W93592  15.208   7.240  12.535
21168W        W93593  12.258  18.271   0.837
21169W        W93594  30.359   0.841   2.133
21170W        W93595  36.600   0.050   3.278
21171W        W93596  14.687  28.663   1.283
21172W        W93597  29.337  22.962  12.900
21173W        W93598  24.595  37.795  14.701
21174W        W93599   9.610   9.775  13.081
21175W        W93600  28.100  39.879   1.347
21176W        W93601  32.113  34.788  14.178
21177W        W93602  38.409  27.893   0.390
21178W        W93603  21.070   8.953   1.867
21179W        W93604  40.590  25.015  13.691
21180W        W93605  30.618   2.427   0.063
21181W        W93606  14.678  42.844   0.507
21182W        W93607  27.073  38.022  13.532
21183W        W93608  33.640  37.838  10.692
21184W        W93609  25.741  23.571  10.682
21185W        W93610  33.458   4.644  13.380
21186W        W93611  34.027  20.200   2.122
21187W        W93612  31.035  28.104   1.340
21188W        W93613   6.987  28.535  11.025
21189W        W93614  39.339   2.067   0.179
21190W        W93615  13.566  10.382   1.882
21191W        W93616  17.200   2.728  10.153
21192W        W93617  17.524  18.783  13.463
21193W        W93618  31.451   6.165  13.931
21194W        W93619   9.002  29.427  11.116
21195W        W93620   0.915  39.752  10.549
21196W        W93621   4.821   4.170   2.864
21197W        W93622  14.311  13.891  14.824
21198W        W93623  23.015  37.180  12.962
21199W        W93624   7.241  40.625   1.192
21200W        W93625  12.864  16.613   4.667
21201W        W93626  23.990  31.632  14.233
21202W        W93627  44.840  40.782  10.722
21203W        W93628  17.527  34.998   0.772
21204W        W93629  21.446  16.083   3.324
21205W        W93630  43.138  24.054  12.936
21206W        W93631  15.711  30.922   1.712
21207W        W93632  25.048  10.122   4.667
21208W        W93633  11.070  33.902  11.513
21209W        W93634  44.376  26.509  13.087
21210W        W93635  21.746  17.608  14.094
21211W        W93636  10.620  17.716  11.580
21212W        W93637  35.830  35.396  12.497
21213W        W93638  35.423  20.317  14.499
21214W        W93639  28.602  42.360  14.295
21215W        W93640  28.534  25.406   2.966
21216W        W93641  43.226   1.959  14.788
21217W        W93642  30.907  37.765   0.276
21218W        W93643  41.030  28.979   2.570
21219W        W93644  18.104  28.252   0.236
21220W        W93645  17.674   2.277   5.701
21221W        W93646   0.731  44.557   4.197
21222W        W93647  17.714   8.875  14.476
21223W        W93648  39.465  35.674  13.041
21224W        W93649  44.979  20.025  13.970
21225W        W93650  41.608   1.075  10.614
21226W        W93651  41.007  29.665  12.467
21227W        W93652  42.291  36.994  14.246
21228W        W93653  33.346  42.799  13.043
21229W        W93654  39.853  17.773   0.269
21230W        W93655  16.776  13.459   3.454
21231W        W93656  31.629  33.423   0.916
21232W        W93657   8.623  34.730  14.437
21233W        W93658   4.917   2.100  14.835
21234W        W93659  42.905  13.799  11.691
21235W        W93660  18.363   7.370  14.329
21236W        W93661   6.101  19.223   3.359
21237W        W93662  11.859  25.476   2.870
21238W        W93663   5.446  10.188   3.414
21239W        W93664  10.131  41.027  13.805
21240W        W93665  31.461  24.742   0.955
21241W        W93666  20.988   5.896  12.676
21242W        W93667   5.997  15.628   2.718
21243W        W93668  36.529  33.674   0.675
21244W        W93669  44.749   8.227   3.144
21245W        W93670   5.159   4.821   1.027
21246W        W93671  39.118  35.019  12.454
21247W        W93672  24.306   4.241   1.673
21248W        W93673  10.817  22.818   3.800
21249W        W93674  19.677  28.683  14.380
21250W        W93675  21.219  42.315   0.271
21251W        W93676   8.171  32.136   1.367
21252W        W93677  39.780   5.131  13.825
21253W        W93678  11.552  42.905   5.044
21254W        W93679   5.860  37.051  12.519
21255W        W93680   1.303  32.896   1.301
21256W        W93681   4.808  10.083   2.658
21257W        W93682   1.094  30.140  12.465
21258W        W93683  30.555  41.396  10.509
21259W        W93684  23.523  17.043   0.217
21260W        W93685   9.162  14.690  14.519
21261W        W93686   1.305  13.749   4.547
21262W        W93687  19.551  18.983   1.491
21263W        W93688  25.050   4.255  14.435
21264W        W93689  41.234  21.229  13.845
21265W        W93690  18.267  36.008  10.599
21266W        W93691   6.734  42.340   4.035
21267W        W93692  17.342  24.604   0.014
21268W        W93693  14.687  25.636  13.324
21269W        W93694  10.413   1.928  13.885
21270W        W93695  11.016  28.185  11.580
21271W        W93696  14.149  10.839  14.428
21272W        W93697   7.340   8.570   3.349
21273W        W93698  39.119   6.755   2.296
21274W        W93699  20.133   2.476  12.908
21275W        W93700   9.130  42.929  10.727
21276W        W93701  18.474  26.107  14.556
21277W        W93702  37.153  28.201  13.458
21278W        W93703   8.882  28.569   4.583
21279W        W93704  10.649   3.993  12.054
21280W        W93705  37.021  20.073  10.581
21281W        W93706  42.065  27.968  10.635
21282W        W93707  36.978   1.451  14.345
21283W        W93708  28.148  35.562   0.293
21284W        W93709  24.174  16.276   3.430
21285W        W93710  34.879  32.576   1.752
21286W        W93711   6.990  38.776  11.444
21287W        W93712   2.791  17.282  14.813
21288W        W93713  19.872  33.961   1.361
21289W        W93714  19.627   5.290   2.237
21290W        W93715   4.064  10.271  13.285
21291W        W93716  19.977  14.093  14.476
21292W        W93717  26.708  16.808  14.486
21293W        W93718  22.169  34.881  14.071
21294W        W93719   5.246  10.466  13.992
21295W        W93720  34.830  44.519   3.252
21296W        W93721   1.788   2.519  14.463
21297W        W93722  39.313  14.734   3.294
21298W        W93723  16.773  25.799  12.953
21299W        W93724  39.416  18.507  12.560
21300W        W93725  16.198  10.894  13.352
21301W        W93726  39.935  22.781  12.550
21302W        W93727  10.005  19.977   4.581
21303W        W93728  21.461  40.163  11.092
21304W        W93729   0.296  10.887   4.232
21305W        W93730   1.420  14.879   0.312
21306W        W93731  25.754   5.655   0.417
21307W        W93732   7.434  35.467   5.081
21308W        W93733  14.062   2.087  11.432
21309W        W93734  10.353  14.835  11.240
21310W        W93735   4.911  15.918   0.974
21311W        W93736  39.216  18.332  12.097
21312W        W93737  37.124  21.853   4.550
21313W        W93738  35.420  43.707   0.307
21314W        W93739  13.308  28.546   0.323
21315W        W93740   7.048   1.061  12.300
21316W        W93741  42.375  37.600   3.687
21317W        W93742  34.575  25.721   3.721
21318W        W93743  18.015  40.129  12.379
21319W        W93744  10.738   6.323   2.500
21320W        W93745  36.345  33.859   3.656
21321W        W93746  15.952  42.693   3.883
21322W        W93747  22.968   6.254   2.147
21323W        W93748  15.050  11.595  13.544
21324W        W93749   0.166  18.850   1.444
21325W        W93750  29.068   5.711   4.568
21326W        W93751  27.156  32.893   2.323
21327W        W93752  35.905  36.102  14.173
21328W        W93753  31.000  43.448  13.334
21329W        W93754  17.527  42.994  14.926
21330W        W93755   2.348  27.607  11.698
21331W        W93756  25.198   8.614  12.511
21332W        W93757  36.849  42.224   2.437
21333W        W93758  30.421  38.086  11.022
21334W        W93759  35.084  39.369   2.698
21335W        W93760  15.290  31.056  13.726
21336W        W93761  15.625   2.040  14.866
21337W        W93762  26.470  10.843   4.549
21338W        W93763   3.096  38.384  13.560
21339W        W93764  26.523  33.088   1.578
21340W        W93765  24.050  25.087  11.185
21341W        W93766  18.618  13.656   2.682
21342W        W93767  32.843  22.647  10.353
21343W        W93768  17.774  13.880  12.406
21344W        W93769   4.690  27.815  12.760
21345W        W93770  18.298  28.175   0.700
21346W        W93771   5.311  29.670   4.385
21347W        W93772  16.413  35.655   2.188
21348W        W93773  40.329  39.628  14.836
21349W        W93774  12.682  27.207  13.545
21350W        W93775   6.834   0.387  14.333
21351W        W93776   6.367  41.561   4.104
21352W        W93777  43.901  11.869   3.272
21353W        W93778  16.098   1.822  12.617
21354W        W93779  20.292  20.060  12.920
21355W        W93780  13.352  30.086  10.670
21356W        W93781  21.775  17.761  10.423
21357W        W93782   9.370  22.101   2.612
21358W        W93783  19.862   3.776   3.119
21359W        W93784   4.191  19.744  11.047
21360W        W93785  15.123  28.209   3.264
21361W        W93786  43.948  39.917   1.820
21362W        W93787  26.398  28.728  13.679
21363W        W93788  29.684  34.356  11.507
21364W        W93789  40.290  40.434  11.697
21365W        W93790  41.994  41.079   2.698
21366W        W93791  12.600   3.933  11.252
21367W        W93792  29.422  36.986   1.229
21368W        W93793  42.036  10.834  14.382
21369W        W93794  10.316  11.461  13.949
21370W        W93795  30.677  36.099   1.510
21371W        W93796  28.080  17.513   4.133
21372W        W93797  23.993   2.944   0.666
21373W        W93798   8.184  35.619   3.737
21374W        W93799  31.081  19.031   4.133
21375W        W93800  13.490  21.546  11.511
21376W        W93801   2.266  33.908  14.429
21377W        W93802  10.222  21.704   1.256
21378W        W93803  24.501   4.392  11.971
21379W        W93804  41.784  16.084   3.592
21380W        W93805  34.070  25.114  12.265
21381W        W93806  19.673  17.063   0.372
21382W        W93807  26.549   2.711   3.803
21383W        W93808   9.322  33.668   0.352
21384W        W93809  20.656   8.361   3.565
21385W        W93810  29.915  10.509   1.890
21386W        W93811  25.604   7.433  10.177
21387W        W93812   7.603  20.011   0.584
21388W        W93813  27.489  11.175   3.688
21389W        W93814   4.838  41.012  11.150
21390W        W93815  35.790  21.616   0.520
21391W        W93816  25.161  21.228  14.983
21392W        W93817  12.155  35.886   0.313
21393W        W93818   1.032  11.899  14.823
21394W        W93819  20.580  26.057  11.425
21395W        W93820  11.722  34.531  11.657
21396W        W93821   6.145   9.898  11.933
21397W        W93822  44.772  36.653  11.924
21398W        W93823  34.482   9.406  11.846
21399W        W93824  29.629  36.357  10.574
21400W        W93825  32.084  29.664  13.961
21401W        W93826  13.439  42.803   0.450
21402W        W93827  37.934  17.120   3.333
21403W        W93828  12.897   9.756   3.691
21404W        W93829   3.801   3.316   3.313
21405W        W93830  41.264  38.444   3.311
21406W        W93831  23.910   7.059   3.544
21407W        W93832  11.340  11.829   1.867
21408W        W93833  13.449   3.433  14.761
21409W        W93834  11.636  39.912   3.690
21410W        W93835  31.299  16.286   0.473
21411W        W93836  35.223  15.265   3.877
21412W        W93837   4.703   5.878  13.437
21413W        W93838   6.301  37.881   2.266
21414W        W93839  41.396  31.483   1.152
21415W        W93840  26.784  31.126   2.136
21416W        W93841  26.980   9.419  13.968
21417W        W93842   0.392   1.380   0.063
21418W        W93843  16.184  22.214   2.766
21419W        W93844   6.385  10.287  10.670
21420W        W93845  22.743  44.101  13.024
21421W        W93846  17.058  12.573  10.727
21422W        W93847   3.746  33.527  13.560
21423W        W93848  42.993  22.073   1.761
21424W        W93849  35.856  10.754  13.957
21425W        W93850  26.088  38.899  12.604
21426W        W93851   7.947  25.308  12.498
21427W        W93852  18.028  41.826  11.506
21428W        W93853  39.990  19.147  12.139
21429W        W93854  41.712  35.919   0.902
21430W        W93855  20.578   4.223  11.585
21431W        W93856  32.678  19.036   2.100
21432W        W93857   6.741  26.193  13.609
21433W        W93858  20.579  38.505  11.869
21434W        W93859  26.682  16.166   4.695
21435W        W93860  20.048  18.672   1.860
21436W        W93861  36.758  15.475  11.196
21437W        W93862  25.130  24.745  12.182
21438W        W93863   7.676  44.468   2.354
21439W        W93864   7.817  28.134  14.332
21440W        W93865  37.528   5.370  13.526
21441W        W93866  21.823  10.728   3.733
21442W        W93867  18.149  33.010  13.838
21443W        W93868  19.562  11.645  13.981
21444W        W93869  38.906  34.987  13.302
21445W        W93870   7.826  17.636  14.009
21446W        W93871  15.562  34.743   3.544
21447W        W93872   8.254  20.404  13.235
21448W        W93873  32.400  39.131  10.336
21449W        W93874   8.217  42.581   2.577
21450W        W93875  36.593  42.834   0.837
21451W        W93876  13.328   8.609   3.993
21452W        W93877  11.146  32.978  12.386
21453W        W93878  16.659  21.954   2.243
21454W        W93879   9.905  33.658   4.641
21455W        W93880  11.709  42.688   0.961
21456W        W93881   9.312  23.670   4.207
21457W        W93882  28.138   2.121   1.396
21458W        W93883  19.427  18.273  12.333
21459W        W93884   3.115  17.708  14.841
21460W        W93885  26.426   1.778   2.250
21461W        W93886   3.275  40.285  14.599
21462W        W93887  14.302   0.588   1.852
21463W        W93888  36.200  16.178  12.982
21464W        W93889  32.850  36.765   3.314
21465W        W93890   2.888  22.646   1.294
21466W        W93891  37.377  41.366  14.113
21467W        W93892  44.620  33.576   1.751
21468W        W93893  42.972  15.270  13.834
21469W        W93894   5.762  40.821   2.934
21470W        W93895  16.506  28.414   3.850
21471W        W93896  12.319  14.264   2.262
21472W        W93897  43.662  13.120   4.235
21473W        W93898   9.883  26.036   0.532
21474W        W93899  34.199   6.365  11.842
21475W        W93900  30.184  11.371  14.445
21476W        W93901  34.949  28.738   1.400
21477W        W93902  29.249   7.411   4.541
21478W        W93903  41.545   4.809  13.066
21479W        W93904  32.710  28.856   2.576
21480W        W93905  29.663  16.634   4.085
21481W        W93906  41.053  23.474  13.431
21482W        W93907  16.338  27.870   1.219
21483W        W93908  18.746   8.768  14.254
21484W        W93909   7.045  44.093  11.137
21485W        W93910   2.264  31.379   2.739
21486W        W93911  19.048  22.964   3.275
21487W        W93912  22.445  35.998  14.855
21488W        W93913   6.235  17.663   1.278
21489W        W93914  10.850   0.005  11.413
21490W        W93915  32.407   7.757   4.619
21491W        W93916   0.429  31.648  14.031
21492W        W93917  44.097  11.658  13.943
21493W        W93918  43.271  15.141   1.374
21494W        W93919   3.967   0.400  13.954
21495W        W93920  15.657   2.532   3.959
21496W        W93921  29.933  38.636  13.087
21497W        W93922  17.242  22.749  10.557
21498W        W93923  27.898   1.232   0.491
21499W        W93924  10.784  41.501   2.199
21500W        W93925  13.644  40.783  14.298
21501W        W93926  14.211  20.664  11.593
21502W        W93927  37.430  21.631   4.933
21503W        W93928  20.219  40.994  12.455
21504W        W93929   1.360  40.558   3.325
21505W        W93930  11.216  24.913  14.820
21506W        W93931  32.300  13.479   4.461
21507W        W93932  24.589  13.342   1.203
21508W        W93933  39.470  16.348   1.030
21509W        W93934  39.941  24.843  11.103
21510W        W93935  37.430  41.903   1.522
21511W        W93936  39.522  23.600  14.836
21512W        W93937  36.783  36.167  11.808
21513W        W93938  34.208  32.085   3.489
21514W        W93939  44.372   0.564   4.593
21515W        W93940  12.152  10.418  11.146
21516W        W93941  22.164  15.570  14.227
21517W        W93942  43.199  22.051  13.979
21518W        W93943  41.231  12.643  11.454
21519W        W93944  12.667  42.301   3.140
21520W        W93945  41.973  35.540  13.164
21521W        W93946   3.716  17.320  11.408
21522W        W93947   7.433  38.140  13.374
21523W        W93948   8.711  37.187  10.618
21524W        W93949  23.999  37.572   2.773
21525W        W93950   4.961  24.176  14.233
21526W        W93951   6.930  18.060   4.322
21527W        W93952   5.830  32.903   3.128
21528W        W93953   1.472  15.353   5.415
21529W        W93954  20.244  39.989   0.848
21530W        W93955  22.540  41.887   3.763
21531W        W93956  16.176  22.031  12.372
21532W        W93957  26.135  25.490  12.151
21533W        W93958  38.404  30.259  12.581
21534W        W93959  37.545  35.496  13.414
21535W        W93960  15.350  35.483  12.671
21536W        W93961  13.202  15.809  14.528
21537W        W93962   6.486  17.791   2.382
21538W        W93963  41.408   8.555   4.223
21539W        W93964  19.156  16.481   2.825
21540W        W93965   2.392  26.270  13.971
21541W        W93966  35.035  36.510  13.362
21542W        W93967  25.527  23.261  13.541
21543W        W93968  15.282  43.304  12.941
21544W        W93969  22.617  32.989  11.531
21545W        W93970  40.378   5.382  11.224
21546W        W93971  29.503  35.512   0.254
21547W        W93972   4.644   8.032   5.015
21548W        W93973  21.792  24.475  12.006
21549W        W93974  22.018   5.279   0.726
21550W        W93975  27.433  40.924   3.866
21551W        W93976  12.894  38.478   4.365
21552W        W93977  21.589  33.376   1.321
21553W        W93978   4.400  10.251   4.736
21554W        W93979  26.997  35.968  14.939
21555W        W93980  10.626  27.131   0.383
21556W        W93981  31.626  21.733  14.100
21557W        W93982   6.893  21.462   0.089
21558W        W93983  39.582  43.939   1.444
21559W        W93984   0.895  40.087   0.294
21560W        W93985  28.671  16.209   1.881
21561W        W93986  21.088  41.570   1.304
21562W        W93987   7.114   1.753   1.396
21563W        W93988   2.766  40.999  12.075
21564W        W93989  40.299   4.201  13.946
21565W        W93990  44.467  22.237  14.786
21566W        W93991  28.784  17.742   0.375
21567W        W93992  10.179  21.046   3.834
21568W        W93993   1.298   0.837  10.577
21569W        W93994  38.821  44.388   9.918
21570W        W93995  27.457   0.723  11.463
21571W        W93996   3.676   8.351  14.752
21572W        W93997  10.227   6.703  10.451
21573W        W93998  41.395   1.351  12.352
21574W        W93999  18.987  12.708   3.122
21575W        W94000  35.783  14.015   4.141
21576W        W94001  10.719  16.655  10.700
21577W        W94002  40.327  24.583   1.969
21578W        W94003  34.911  32.345  11.972
21579W        W94004  40.020  15.823   2.816
21580W        W94005   9.675  32.184   2.497
21581W        W94006  27.005  41.871   1.801
21582W        W94007  24.874   9.875   0.740
21583W        W94008  37.016  18.232  13.037
21584W        W94009   6.430   5.451  14.213
21585W        W94010  11.875  34.120   0.538
21586W        W94011  20.263   9.828   3.768
21587W        W94012  42.120  22.491  13.020
21588W        W94013  30.215  30.342  11.034
21589W        W94014  38.490  40.403   0.491
21590W        W94015  33.073  28.174   4.306
21591W        W94016  17.438  27.514   1.532
21592W        W94017  16.545  12.279   1.364
21593W        W94018  17.067   1.406   0.382
21594W        W94019  36.275   7.355   4.803
21595W        W94020   1.500   8.302   2.334
21596W        W94021   7.284  12.366   3.737
21597W        W94022  15.509  10.146  14.847
21598W        W94023  12.333   8.365   1.942
21599W        W94024  25.021  13.110   2.289
21600W        W94025  27.130   1.605  12.913
21601W        W94026  14.849  15.882   4.675
21602W        W94027  13.378  37.525   5.141
21603W        W94028  16.692  15.807  11.541
21604W        W94029  44.655  10.263  13.830
21605W        W94030  29.396  15.679   9.655
21606W        W94031   4.695   7.487   2.801
21607W        W94032  16.632   1.020  12.044
21608W        W94033  44.348  43.482   4.580
21609W        W94034  37.605  43.948  14.876
21610W        W94035   3.152  31.740   3.015
21611W        W94036  31.940  44.849  12.859
21612W        W94037  27.133  10.139  12.688
21613W        W94038  29.413  21.982   0.100
21614W        W94039  21.994  18.802   2.331
21615W        W94040   6.366  42.460   0.400
21616W        W94041  26.447  23.265  11.064
21617W        W94042  33.840  24.123  13.781
21618W        W94043  22.807  28.450   1.502
21619W        W94044  22.271  37.776   4.313
21620W        W94045  25.914  24.089   3.722
21621W        W94046   3.487  28.207   0.958
21622W        W94047  20.677  43.968  11.186
21623W        W94048  31.109   1.431   0.962
21624W        W94049  24.504   7.703   3.966
21625W        W94050  23.706  25.239   2.735
21626W        W94051   0.295  36.484   2.952
21627W        W94052  16.634  11.123   4.604
21628W        W94053   6.808  26.974  12.909
21629W        W94054  17.737  29.050   1.155
21630W        W94055   3.261   6.797   0.928
21631W        W94056  30.927  44.837  10.625
21632W        W94057   8.079  11.281   1.029
21633W        W94058  25.088  30.982   3.385
21634W        W94059   8.748   5.687  13.611
21635W        W94060  30.000  24.081  10.574
21636W        W94061  12.863  44.782   3.199
21637W        W94062  12.621  21.576   2.729
21638W        W94063   3.350  34.008   2.852
21639W        W94064  10.478  31.822  14.264
21640W        W94065  22.494   6.104   2.911
21641W        W94066  10.884  20.185  13.045
21642W        W94067   0.429  29.122   3.723
21643W        W94068  42.955  18.736  11.953
21644W        W94069  15.240  12.714   3.616
21645W        W94070  25.569  34.605  12.102
21646W        W94071  40.750  10.835   3.513
21647W        W94072  26.624  20.793   5.082
21648W        W94073  29.362  43.850  13.947
21649W        W94074  14.896   1.439  11.915
21650W        W94075  21.988  16.463  11.164
21651W        W94076  37.719  29.898   1.158
21652W        W94077   9.187  31.428   0.353
21653W        W94078   7.228  37.652  10.707
21654W        W94079  25.267  29.232   0.338
21655W        W94080   3.125  31.349  11.837
21656W        W94081  44.156  29.719  13.359
21657W        W94082  30.434  23.818   1.350
21658W        W94083  42.261  30.688  10.940
21659W        W94084  42.310  28.417   1.933
21660W        W94085  39.376   1.465  10.957
21661W        W94086   3.391  42.925  14.025
21662W        W94087  36.955  27.899   3.321
21663W        W94088  10.354  37.809   3.402
21664W        W94089  36.012  28.432  14.802
21665W        W94090  27.871  35.545   3.548
21666W        W94091  39.508   9.484   2.655
21667W        W94092  23.859   4.860   2.812
21668W        W94093  13.377  10.347   1.213
21669W        W94094  11.195  23.721  13.391
21670W        W94095   3.994  32.098   0.879
21671W        W94096  22.012  35.581   4.091
21672W        W94097  41.549  40.876   2.498
21673W        W94098  26.502  27.648   3.736
21674W        W94099  18.690  22.328  10.798
21675W        W94100  38.573   6.139  11.481
21676W        W94101  44.530   9.851   1.564
21677W        W94102  14.670  11.163   1.857
21678W        W94103   2.366  16.741  14.588
21679W        W94104   2.140  22.184   4.225
21680W        W94105  20.166  20.295  12.015
21681W        W94106  10.351  15.776  10.584
21682W        W94107  26.055  42.301  10.702
21683W        W94108  36.585  43.947  14.872
21684W        W94109  28.796  11.932  14.640
21685W        W94110  29.012  29.066  13.968
21686W        W94111  39.011   3.922  12.615
21687W        W94112  41.772  29.033  14.136
21688W        W94113  10.866   4.056   4.209
21689W        W94114  39.988  24.922   2.189
21690W        W94115  15.763  12.024  11.942
21691W        W94116  42.208   4.316  12.436
21692W        W94117  11.741  19.760   5.267
21693W        W94118  28.693  31.545   0.295
21694W        W94119  25.386  42.785  13.470
21695W        W94120  22.680  16.140  13.239
21696W        W94121  10.393   2.079  12.002
21697W        W94122  40.250  14.576  14.018
21698W        W94123  30.462   4.953  12.965
21699W        W94124  34.381  39.175  11.143
21700W        W94125  44.479  12.244  10.951
21701W        W94126  17.638   1.868  12.522
21702W        W94127   8.959  35.557  12.825
21703W        W94128  26.151  10.406  11.027
21704W        W94129  32.400  14.223   2.695
21705W        W94130  19.805   2.241  11.576
21706W        W94131   0.368  15.814   0.685
21707W        W94132  21.038  15.770   2.600
21708W        W94133  33.953  28.897  13.573
21709W        W94134  44.570  21.485   3.592
21710W        W94135   9.319  20.878   2.360
21711W        W94136  40.925   3.983  14.344
21712W        W94137  19.625  11.652  10.961
21713W        W94138  18.641  10.606  11.987
21714W        W94139  38.118  28.599  13.416
21715W        W94140  39.985  34.190  14.015
21716W        W94141  13.670   3.618  13.798
21717W        W94142  43.564  16.016   3.690
21718W        W94143   2.424  10.954   2.243
21719W        W94144  27.986  24.669   3.701
21720W        W94145  42.612  28.607  14.543
21721W        W94146  44.888   6.292   4.656
21722W        W94147  41.993  34.513   3.663
21723W        W94148  15.224   1.995   2.439
21724W        W94149  13.276  21.995   4.063
21725W        W94150  15.639  22.616   0.812
21726W        W94151  25.658  29.339   2.034
21727W        W94152   5.408  44.170   0.001
21728W        W94153  29.086  25.561  14.443
21729W        W94154  31.737  25.984  13.923
21730W        W94155  20.555  34.384  12.049
21731W        W94156   7.217  18.928   4.133
21732W        W94157  43.018   9.289   0.502
21733W        W94158  29.568  10.582   3.722
21734W        W94159  19.498  22.039  11.095
21735W        W94160  14.215  32.182  14.977
21736W        W94161  25.287  27.076   3.675
21737W        W94162  12.611  29.849  12.795
21738W        W94163  31.878   8.828  12.963
21739W        W94164  44.222  26.178   3.247
21740W        W94165  35.666  39.433   3.395
21741W        W94166  26.631  38.026   0.080
21742W        W94167  44.074  39.967  14.382
21743W        W94168  33.420  15.733   4.003
21744W        W94169   6.705  22.952   2.303
21745W        W94170  23.668  14.701  12.357
21746W        W94171   3.727   7.320  13.388
21747W        W94172  24.930  43.757  13.965
21748W        W94173  10.256  31.344  12.115
21749W        W94174  28.143  39.082  11.084
21750W        W94175  35.470   7.842   0.802
21751W        W94176  38.136  35.446   3.480
21752W        W94177   4.210  21.532  14.962
21753W        W94178  34.136  28.484   4.604
21754W        W94179  33.349  35.316   0.364
21755W        W94180  21.186  30.660   5.007
21756W        W94181  29.180   6.385   3.823
21757W        W94182  25.864  25.756   0.242
21758W        W94183  39.473  36.847   1.376
21759W        W94184  40.088   1.044  13.493
21760W        W94185  28.639  34.851   3.608
21761W        W94186   3.637  44.820  12.372
21762W        W94187  34.013   8.751  13.003
21763W        W94188  44.022  25.233  14.908
21764W        W94189   4.254  25.178  11.964
21765W        W94190  29.645  30.875   0.734
21766W        W94191   3.937  14.588  13.827
21767W        W94192  33.648  20.606   2.201
21768W        W94193  32.288  44.212   3.999
21769W        W94194  39.568  39.630  13.585
21770W        W94195  35.355  15.002   0.084
21771W        W94196  31.414  29.519   0.259
21772W        W94197  12.747  16.700  12.866
21773W        W94198  41.019  36.472  14.840
21774W        W94199   0.366  28.154   4.735
21775W        W94200  44.428  18.074   2.021
21776W        W94201  23.365  40.532  14.951
21777W        W94202   8.751  10.224   3.568
21778W        W94203  10.398  13.603  10.631
21779W        W94204  37.960  35.082  12.007
21780W        W94205  27.592  43.555   3.620
21781W        W94206  33.861   2.804  13.065
21782W        W94207  27.697   4.539  14.424
21783W        W94208  33.001  33.627  10.639
21784W        W94209  23.467  37.335  14.454
21785W        W94210  27.321  34.507   2.077
21786W        W94211   4.793  23.747  13.983
21787W        W94212   0.037  18.997  14.757
21788W        W94213  42.524  25.101  13.867
21789W        W94214  23.471  35.304   2.457
21790W        W94215  14.902   5.781  10.943
21791W        W94216  38.857  15.571  11.134
21792W        W94217  10.145  44.602  13.132
21793W        W94218   4.798  34.783   0.925
21794W        W94219  27.678   8.594   2.365
21795W        W94220  20.772  13.026  13.912
21796W        W94221  28.711  31.037  12.066
21797W        W94222  25.922  31.134  12.299
21798W        W94223  26.513  10.833  12.023
21799W        W94224   5.945  19.508  14.478
21800W        W94225  12.565  33.606  11.276
21801W        W94226  23.473   5.802   4.112
21802W        W94227  42.040  11.641   0.486
21803W        W94228  41.741  25.634   0.786
21804W        W94229  43.947  11.145   3.674
21805W        W94230   8.753  21.974  12.571
21806W        W94231  43.722  21.482  11.034
21807W        W94232   2.707   7.574  11.608
21808W        W94233  42.882  23.106   4.921
21809W        W94234  21.365  17.534  11.128
21810W        W94235   2.913  26.317   4.948
21811W        W94236  21.095  36.534   3.115
21812W        W94237  37.142  22.063  10.260
21813W        W94238   2.699  41.516   3.505
21814W        W94239  28.016   9.779  13.784
21815W        W94240   5.670  43.275  11.165
21816W        W94241   6.432   9.416  12.571
21817W        W94242  33.927  42.360  11.502
21818W        W94243  28.082  14.538   0.342
21819W        W94244  20.204  31.465   4.157
21820W        W94245  14.358  13.281  13.919
21821W        W94246   7.343  13.365   4.539
21822W        W94247   6.298  10.134  11.179
21823W        W94248   8.813   5.393  11.030
21824W        W94249  11.915  34.953   0.253
21825W        W94250  20.202  16.895  11.472
21826W        W94251  23.454   4.049  14.821
21827W        W94252  29.126  30.972   1.441
21828W        W94253   8.838  40.468   0.698
21829W        W94254  15.599  20.567   0.809
21830W        W94255   7.446  34.637  10.426
21831W        W94256   4.196  26.801  11.193
21832W        W94257  10.565   2.111  12.890
21833W        W94258  14.866  13.790   0.822
21834W        W94259  39.484   6.176  11.559
21835W        W94260  19.441  29.596   5.517
21836W        W94261   5.336   8.079   1.575
21837W        W94262  24.141  19.349   2.313
21838W        W94263  35.834  15.487  10.307
21839W        W94264  25.714  28.039  11.580
21840W        W94265  25.543  18.720  14.021
21841W        W94266  32.948  43.074  13.508
21842W        W94267  11.697  35.158  10.735
21843W        W94268  42.530  44.942  14.860
21844W        W94269  25.673   9.227   2.229
21845W        W94270  25.132  26.515  11.224
21846W        W94271  37.491  27.968  14.255
21847W        W94272   1.364  44.299   1.676
21848W        W94273  23.427  42.960  11.652
21849W        W94274   7.470  16.053   2.726
21850W        W94275   4.839  44.389  14.803
21851W        W94276  23.015  39.798   0.281
21852W        W94277  18.258   0.400   1.283
21853W        W94278  16.603  34.565  14.702
21854W        W94279  38.430  42.354  11.420
21855W        W94280  31.485  38.322   3.277
21856W        W94281  34.971  34.795  11.494
21857W        W94282  18.374  14.628   4.635
21858W        W94283  28.049   5.931   3.108
21859W        W94284  14.165  22.745   1.085
21860W        W94285  19.680  39.353   1.193
21861W        W94286  41.016   2.923   3.951
21862W        W94287  40.045  15.807  13.370
21863W        W94288   2.301  33.625  13.435
21864W        W94289   9.208  10.874   1.085
21865W        W94290  28.689  16.360   4.708
21866W        W94291  30.567  37.281   3.387
21867W        W94292   8.641   1.994   1.055
21868W        W94293   2.687  20.528  14.957
21869W        W94294  22.628  33.049  14.150
21870W        W94295  32.920   7.169   0.745
21871W        W94296  42.850  17.761  10.777
21872W        W94297  13.332  12.625   3.643
21873W        W94298  38.830  39.985  11.129
21874W        W94299  29.310  11.790  13.058
21875W        W94300  11.418  23.581  12.938
21876W        W94301  10.154  42.488  14.082
21877W        W94302  38.035  10.234  10.959
21878W        W94303  12.885  31.865  10.787
21879W        W94304  35.392  30.933  13.816
21880W        W94305  15.341  24.993  13.450
21881W        W94306  40.415  44.732   3.242
21882W        W94307   6.229   1.793   1.602
21883W        W94308  37.103   0.685  14.735
21884W        W94309  19.677  26.937  12.617
21885W        W94310  38.315  37.055   0.444
21886W        W94311  33.929   0.222  12.943
21887W        W94312   3.310  20.067   2.328
21888W        W94313  18.944  35.346   3.089
21889W        W94314  35.276  44.883  12.063
21890W        W94315   4.325  44.766   4.602
21891W        W94316   5.361  22.704   2.330
21892W        W94317  29.144   7.614   2.610
21893W        W94318  24.253   9.419   1.754
21894W        W94319  12.192   0.257  14.454
21895W        W94320  12.199  20.746   3.593
21896W        W94321  44.398   5.793  13.861
21897W        W94322  40.401  14.377  13.566
21898W        W94323  20.227  20.549  11.576
21899W        W94324  18.197  18.612  14.935
21900W        W94325  42.711  10.784  13.567
21901W        W94326   0.508  14.838   4.142
21902W        W94327  29.858  22.078  12.163
21903W        W94328  14.219  27.166   1.835
21904W        W94329   1.233  44.670  13.487
21905W        W94330   7.239  29.633  14.997
21906W        W94331  38.350  10.121  10.572
21907W        W94332  44.266  21.042  13.329
21908W        W94333  37.211  20.086  11.074
21909W        W94334  14.310  28.300  13.896
21910W        W94335  16.065   2.105   5.462
21911W        W94336  26.581   2.195  10.611
21912W        W94337   5.632  44.545  12.893
21913W        W94338  27.942   1.359   0.990
21914W        W94339  25.929   0.881   3.677
21915W        W94340  21.009  36.435  11.228
21916W        W94341  35.820  42.296   3.153
21917W        W94342  39.594  39.721   3.601
21918W        W94343  18.299  21.958   4.388
21919W        W94344  20.757   8.003  13.362
21920W        W94345  14.529   7.090  11.089
21921W        W94346  13.039  24.482  11.976
21922W        W94347   0.262  20.717  11.395
21923W        W94348  16.027  43.953   3.171
21924W        W94349  17.049  29.475   4.673
21925W        W94350  10.506  10.700  12.868
21926W        W94351   9.743  33.118   3.980
21927W        W94352   1.919  33.334   4.324
21928W        W94353  21.084   2.289  13.092
21929W        W94354  15.495   8.975  12.639
21930W        W94355  38.079  26.964   3.498
21931W        W94356  27.694  18.286   0.919
21932W        W94357  22.470  33.860  14.817
21933W        W94358  23.239  12.968  13.843
21934W        W94359  17.050  19.288  14.259
21935W        W94360  12.386   1.920   2.737
21936W        W94361  13.889  34.012   2.195
21937W        W94362  26.580  14.334   3.199
21938W        W94363  31.988   7.049   3.569
21939W        W94364   3.252  22.568  13.044
21940W        W94365  10.880  26.921  13.822
21941W        W94366   4.330   0.915  12.638
21942W        W94367   7.348  28.023   1.465
21943W        W94368  25.970   1.908   3.179
21944W        W94369  41.380  34.581   4.921
21945W        W94370  30.060  40.250   3.944
21946W        W94371  41.944   3.875  14.273
21947W        W94372  13.346  32.902  11.201
21948W        W94373  15.279  24.625  12.482
21949W        W94374  11.740   6.307   2.190
21950W        W94375  42.267  13.533  11.880
21951W        W94376  24.982  26.369   1.708
21952W        W94377   1.525  28.126   3.589
21953W        W94378  21.417  14.142  10.302
21954W        W94379  29.433  27.731  14.704
21955W        W94380  22.903   6.270  12.622
21956W        W94381  26.027  30.205   4.678
21957W        W94382  25.487  40.238  11.357
21958W        W94383  28.459  38.361  13.620
21959W        W94384  36.495  23.746  11.849
21960W        W94385  34.329  39.860  14.274
21961W        W94386  20.146   5.107   4.145
21962W        W94387   9.651  26.704  14.323
21963W        W94388  40.942  39.835   0.018
21964W        W94389  41.567  16.312   4.703
21965W        W94390  11.056  11.175  11.537
21966W        W94391  40.547  17.228  11.847
21967W        W94392  44.434  41.307  12.959
21968W        W94393   5.664   0.821   2.843
21969W        W94394   3.761  23.467   2.088
21970W        W94395  33.419  12.039  14.701
21971W        W94396   2.250  12.094  14.582
21972W        W94397   2.154  18.333  10.193
21973W        W94398   6.850  23.953   1.397
21974W        W94399  40.914   9.877   2.287
21975W        W94400  20.550  41.081   3.182
21976W        W94401  19.752  33.131   3.693
21977W        W94402  27.314   5.478   3.709
21978W        W94403  12.697  28.814  12.205
21979W        W94404  16.762  39.552   2.593
21980W        W94405  38.922  10.458   3.286
21981W        W94406  41.927  39.681   1.370
21982W        W94407  39.959  26.317   2.832
21983W        W94408  14.103  21.578  14.356
21984W        W94409  39.476  40.223   3.613
21985W        W94410  38.407  11.724   1.326
21986W        W94411  33.038  19.211   9.721
21987W        W94412  14.245   9.675  10.756
21988W        W94413  18.554  13.708   0.509
21989W        W94414   5.814  25.080   4.397
21990W        W94415  26.952  40.610   2.687
21991W        W94416  44.820  13.586   2.847
21992W        W94417  18.355   6.286  14.922
21993W        W94418   0.072  40.498  14.338
21994W        W94419   2.513   6.327   4.592
21995W        W94420   9.655  18.757   2.806
21996W        W94421  43.387   2.401   0.045
21997W        W94422   4.137  38.929  12.048
21998W        W94423  12.844  24.191   1.966
21999W        W94424  26.663  35.345  12.114
22000W        W94425  11.759  36.938  11.321
22001W        W94426  33.686   8.253   9.970
22002W        W94427   8.887   7.242  12.977
22003W        W94428  20.133   1.066  14.924
22004W        W94429  34.217  38.402  14.242
22005W        W94430  11.609  37.558   0.386
22006W        W94431  12.730   1.972   3.708
22007W        W94432  15.495  13.117   0.365
22008W        W94433  30.882  32.508   2.895
22009W        W94434   2.241   4.134   1.797
22010W        W94435  27.209   2.957   0.830
22011W        W94436  29.222  23.930  14.965
22012W        W94437  16.681  10.956   2.802
22013W        W94438  38.242  27.658   3.103
22014W        W94439  24.758  27.942  11.649
22015W        W94440  20.108  23.021   1.413
22016W        W94441  41.260  44.535  10.434
22017W        W94442   9.660   7.893  12.087
22018W        W94443  40.974  30.257  11.209
22019W        W94444   5.987  36.192  11.412
22020W        W94445  26.511  40.493   1.912
22021W        W94446  10.009   5.092   1.705
22022W        W94447  30.528   0.347   2.378
22023W        W94448   3.745   2.018  12.574
22024W        W94449  20.278  33.538  14.474
22025W        W94450  27.696  28.616   1.313
22026W        W94451  34.243  35.848   0.737
22027W        W94452  36.848  26.438  12.074
22028W        W94453  22.007   7.698   2.642
22029W        W94454  28.624  31.730   3.182
22030W        W94455   6.240  35.195   1.642
22031W        W94456  33.026  18.328   0.569
22032W        W94457  38.344  35.502  14.920
22033W        W94458   1.141   8.188  13.421
22034W        W94459   6.748   8.775  11.129
22035W        W94460  13.917  34.946  13.430
22036W        W94461  11.557  39.270   2.898
22037W        W94462  34.659  18.822  11.630
22038W        W94463  32.100  16.721  13.341
22039W        W94464   9.670   6.042   1.612
22040W        W94465   5.153  34.398  13.893
22041W        W94466  34.335  12.908  11.538
22042W        W94467  11.349  16.287   4.139
22043W        W94468  27.985  33.959  10.581
22044W        W94469  21.979  20.847   1.310
22045W        W94470   4.885  43.807   2.297
22046W        W94471  44.916  43.313   2.159
22047W        W94472  23.597   8.211  14.382
22048W        W94473  26.471  22.158   0.505
22049W        W94474  38.024  40.475   0.730
22050W        W94475  23.621   0.878  11.690
22051W        W94476  30.944   9.888  11.196
22052W        W94477  39.008   5.850   2.287
22053W        W94478   4.814   1.884  13.489
22054W        W94479   4.529   1.769   0.429
22055W        W94480   4.085  17.821   0.016
22056W        W94481  16.173  26.084   0.974
22057W        W94482  41.380   2.218  11.695
22058W        W94483  14.771   2.777  13.758
22059W        W94484  10.154  34.393   1.709
22060W        W94485  38.353  24.671  13.987
22061W        W94486  16.512  28.689  12.374
22062W        W94487   1.958  24.390  13.894
22063W        W94488  21.726  40.447  11.442
22064W        W94489  37.961  44.957   2.117
22065W        W94490  33.529   6.908  12.988
22066W        W94491  27.427   2.336   2.911
22067W        W94492  27.978   6.251  13.431
22068W        W94493  39.867  27.176   4.115
22069W        W94494   0.781  35.434  12.563
22070W        W94495  12.394   3.422   0.548
22071W        W94496  14.326  22.109   1.721
22072W        W94497  38.538   1.948  11.471
22073W        W94498  19.785  32.630  11.236
22074W        W94499  14.336  14.574  11.173
22075W        W94500  31.836  15.109   0.803
22076W        W94501  40.044  36.733  13.436
22077W        W94502  16.238  10.899   2.500
22078W        W94503  30.099  11.951  13.559
22079W        W94504  11.004   6.308   5.499
22080W        W94505  33.019  36.162  14.346
22081W        W94506  23.526  36.940  12.324
22082W        W94507  40.743  26.196  13.551
22083W        W94508   4.440   5.466  11.024
22084W        W94509  27.123  41.990   1.303
22085W        W94510  15.126  23.968   1.633
22086W        W94511  13.136  44.845  10.688
22087W        W94512  31.904  37.056   1.334
22088W        W94513   4.168   1.954  11.461
22089W        W94514  40.265  35.409  11.948
22090W        W94515  30.250  26.599  14.391
22091W        W94516  31.442  20.232  14.086
22092W        W94517  22.928   6.782  14.008
22093W        W94518  20.302   8.056  12.701
22094W        W94519  23.186  31.955   0.182
22095W        W94520   9.952   0.696   0.541
22096W        W94521  39.084  19.501   3.302
22097W        W94522  25.588  35.690  13.855
22098W        W94523  42.045  19.811   4.133
22099W        W94524  20.964  33.178   4.342
22100W        W94525  44.280   3.812   4.132
22101W        W94526  38.512   1.318   1.001
22102W        W94527  23.704   2.364  12.933
22103W        W94528   6.376  40.090   1.468
22104W        W94529  27.630   4.904  11.859
22105W        W94530   0.764  22.330   2.376
22106W        W94531  21.517  23.556   2.185
22107W        W94532  28.526  17.248   4.182
22108W        W94533   4.622  28.646   0.292
22109W        W94534   7.789  17.040   2.172
22110W        W94535  10.998  36.687  14.544
22111W        W94536   8.735   0.056   4.252
22112W        W94537  26.787  16.603   1.834
22113W        W94538   2.943  41.938  10.683
22114W        W94539  39.131   2.078   1.379
22115W        W94540   6.266  43.049   2.403
22116W        W94541  37.468  28.190  12.842
22117W        W94542   5.850   6.129  14.435
22118W        W94543  42.815  30.517   0.682
22119W        W94544  40.710  27.783   3.134
22120W        W94545   8.294  38.794  12.898
22121W        W94546   8.451  16.295  14.365
22122W        W94547  13.926  17.588   2.256
22123W        W94548  37.599  12.578  14.889
22124W        W94549  42.758  22.957  13.563
22125W        W94550   2.210  20.635  13.411
22126W        W94551  31.188  16.633  14.886
22127W        W94552   8.241   2.023  12.583
22128W        W94553  23.028  27.691   0.080
22129W        W94554  12.707  21.447  14.343
22130W        W94555   9.270  20.054  14.894
22131W        W94556   5.958   8.422  10.719
22132W        W94557  23.139  23.453  12.446
22133W        W94558  44.395  22.565   2.410
22134W        W94559  41.073  21.218  12.888
22135W        W94560   3.367  21.080   4.615
22136W        W94561  17.598  27.026   3.569
22137W        W94562  12.182  37.068   3.701
22138W        W94563  22.524  27.339  10.679
22139W        W94564  35.458  44.002   1.481
22140W        W94565   7.126  35.952   0.953
22141W        W94566  15.644   2.567  13.519
22142W        W94567   8.154  43.221   0.491
22143W        W94568   3.316  44.748  14.208
22144W        W94569  39.604   9.798  11.902
22145W        W94570  29.563  17.229   1.320
22146W        W94571   1.981  32.464  14.925
22147W        W94572   1.222  24.794   3.692
22148W        W94573  34.934  15.691   2.628
22149W        W94574  29.707  20.520  12.934
22150W        W94575  20.093   9.638  13.586
22151W        W94576  37.938   9.575   3.137
22152W        W94577  29.780  41.815  13.353
22153W        W94578  14.892  31.413  10.230
22154W        W94579  16.991  33.017  14.738
22155W        W94580  34.330  38.026  12.887
22156W        W94581  23.537  39.365  12.151
22157W        W94582  30.652  16.090   4.712
22158W        W94583  21.584  30.937  10.620
22159W        W94584  35.058   6.847  10.720
22160W        W94585   5.330  29.054  12.142
22161W        W94586   6.178  33.653  11.939
22162W        W94587  19.978  42.650   4.126
22163W        W94588  15.101  23.512   4.207
22164W        W94589  22.682   1.756   4.568
22165W        W94590  30.314  17.693  11.915
22166W        W94591  15.693  24.197   0.981
22167W        W94592   5.491  42.311   3.248
22168W        W94593  40.903   2.221   1.407
22169W        W94594  32.008  13.905  13.548
22170W        W94595   2.959   2.337   4.415
22171W        W94596  41.358  28.448  12.492
22172W        W94597   6.647  22.261   2.821
22173W        W94598  14.268  34.238  12.100
22174W        W94599  42.794  15.693  12.096
22175W        W94600  25.723  11.925  14.051
22176W        W94601  13.911  21.985   2.708
22177W        W94602  39.310  19.144  14.758
22178W        W94603  32.413  33.945   4.627
22179W        W94604  14.228  16.301  11.490
22180W        W94605  10.494  40.357  13.330
22181W        W94606  29.518  28.466   0.372
22182W        W94607  24.726  40.339  13.901
22183W        W94608   4.900  40.839  13.822
22184W        W94609  32.768   0.466  13.572
22185W        W94610  22.283   8.345  10.320
22186W        W94611  27.672  22.268   4.376
22187W        W94612   1.631   9.401  10.743
22188W        W94613  28.993   2.432   1.658
22189W        W94614   0.235  26.063  11.519
22190W        W94615  10.217   2.744  14.420
22191W        W94616  42.907  29.901  14.347
22192W        W94617  30.729   8.647   3.773
22193W        W94618   6.741  32.574   3.735
22194W        W94619  16.796  31.140  11.053
22195W        W94620  24.903  31.558  13.274
22196W        W94621  18.871  31.531  14.907
22197W        W94622   3.592  15.026   2.055
22198W        W94623  42.032  27.021  13.546
22199W        W94624  34.263  21.371   4.132
22200W        W94625   2.923  41.054   1.408
22201W        W94626  29.683  27.550  12.879
22202W        W94627   3.471   5.188   4.581
22203W        W94628  24.551  38.945   2.872
22204W        W94629  11.609  18.711  12.868
22205W        W94630  42.913  20.587  12.861
22206W        W94631  18.584   3.374   0.339
22207W        W94632  28.855  18.584   4.149
22208W        W94633   5.639  22.808   3.149
22209W        W94634   0.618  27.479   4.638
22210W        W94635  42.626  15.335  12.916
22211W        W94636  11.405  38.337  11.591
22212W        W94637  14.082  41.974   2.272
22213W        W94638  26.586  11.676  12.616
22214W        W94639  28.103   8.190  12.356
22215W        W94640   3.889  32.660  13.785
22216W        W94641  20.674   7.396   0.396
22217W        W94642   7.372   7.692   2.891
22218W        W94643  42.934  11.865  13.679
22219W        W94644  34.239   2.839   3.128
22220W        W94645  26.515  23.963   2.498
22221W        W94646  27.875   3.463  14.254
22222W        W94647  40.782  39.626   4.120
22223W        W94648  14.036   6.061   0.124
22224W        W94649  28.501   4.556  10.761
22225W        W94650  36.140  37.243   3.815
22226W        W94651  35.444  18.043  13.919
22227W        W94652   0.776  32.138  11.924
22228W        W94653   8.015  13.741   1.930
22229W        W94654  14.691  30.024   3.433
22230W        W94655  15.336  16.030   3.610
22231W        W94656   8.180   6.451   0.883
22232W        W94657   7.169  35.026   5.050
22233W        W94658  24.205  44.022   3.638
22234W        W94659  20.224  18.999   3.288
22235W        W94660  23.592  23.519  11.703
22236W        W94661  32.137  10.751   0.522
22237W        W94662  31.621   5.717   0.210
22238W        W94663   5.004  20.865  10.363
22239W        W94664  12.362  22.294   4.619
22240W        W94665  42.397  24.436   5.036
22241W        W94666   2.689  39.051   1.701
22242W        W94667  41.810  32.163  11.296
22243W        W94668  24.609  33.042  11.713
22244W        W94669   3.409  24.545   0.827
22245W        W94670   1.935  27.028  11.208
22246W        W94671  22.637  32.701  12.896
22247W        W94672  41.396  44.837  12.238
22248W        W94673  18.995  30.262  12.017
22249W        W94674  13.530  38.183  13.054
22250W        W94675   9.794  15.279  14.831
22251W        W94676  12.771  18.114   0.848
22252W        W94677  28.121  28.876  10.206
22253W        W94678  34.835  32.051   5.089
22254W        W94679  24.106  10.886   2.211
22255W        W94680  27.507  23.061  10.814
22256W        W94681   2.783  34.481   2.269
22257W        W94682  22.277   8.869   9.679
22258W        W94683  44.854  34.479   4.196
22259W        W94684  40.871  17.584   4.913
22260W        W94685  18.181  42.080  14.687
22261W        W94686  26.279  30.741  12.167
22262W        W94687  10.943  31.186   2.344
22263W        W94688  24.718  34.554  12.160
22264W        W94689  29.708   9.708   2.524
22265W        W94690  24.455  36.562   1.682
22266W        W94691  35.049  24.618  14.965
22267W        W94692   9.222  43.898  14.084
22268W        W94693   1.990  39.297   1.476
22269W        W94694  32.941  22.130  11.157
22270W        W94695  41.411  13.503  14.421
22271W        W94696  22.042  21.717  14.997
22272W        W94697  32.693   5.141   4.742
22273W        W94698  44.917   7.899  12.789
22274W        W94699  23.599  39.876  12.199
22275W        W94700  40.186  38.123   2.935
22276W        W94701  42.009  37.067   4.139
22277W        W94702  24.075  15.761   2.773
22278W        W94703  25.645  40.746   3.223
22279W        W94704  12.608  23.308  10.975
22280W        W94705  16.061  44.395   4.308
22281W        W94706  37.428  33.596  12.684
22282W        W94707   3.342  11.257  13.926
22283W        W94708   1.080  39.006  13.494
22284W        W94709  34.016  15.303  11.277
22285W        W94710  22.819  10.715  11.076
22286W        W94711  11.328  44.428   0.810
22287W        W94712  39.489   4.184  12.546
22288W        W94713  22.558   6.150  11.907
22289W        W94714  10.451  42.819   0.004
22290W        W94715  38.978  29.514   3.314
22291W        W94716  38.066  28.954  10.649
22292W        W94717  30.618  44.787   3.093
22293W        W94718   5.654   6.360  10.492
22294W        W94719  35.137  31.872   1.243
22295W        W94720  16.861  30.941  10.567
22296W        W94721  37.614  17.069  13.347
22297W        W94722   8.242  26.722   0.281
22298W        W94723  26.521  35.861  10.076
22299W        W94724  13.625  14.711  14.951
22300W        W94725  30.421  39.094   3.464
22301W        W94726   1.178  28.085  13.440
22302W        W94727  32.150  42.228   2.424
22303W        W94728  16.032   2.516  13.868
22304W        W94729  42.645  39.277  12.538
22305W        W94730  12.246   4.677   1.437
22306W        W94731  17.221  20.502   2.606
22307W        W94732  24.209  32.749   4.944
22308W        W94733   6.113  11.912   4.202
22309W        W94734   0.206  16.657   0.376
22310W        W94735  25.189  27.680  11.606
22311W        W94736  43.870   5.888   2.863
22312W        W94737  35.486  42.844  12.009
22313W        W94738  41.156  25.904   0.508
22314W        W94739  19.656   9.411  13.448
22315W        W94740   0.439   2.762   2.121
22316W        W94741  18.203  37.736   0.348
22317W        W94742  33.022  35.995  10.667
22318W        W94743  16.123  33.890   2.781
22319W        W94744  14.310  38.355   0.710
22320W        W94745   2.876   4.759  11.524
22321W        W94746   8.931  10.223   4.600
22322W        W94747  40.342  18.586  14.283
22323W        W94748  25.591  42.050  13.946
22324W        W94749   9.414  15.060   1.291
22325W        W94750  26.625  21.257  14.392
22326W        W94751  29.568  24.636   2.363
22327W        W94752  43.574  41.967  12.556
22328W        W94753  20.634  24.430  12.474
22329W        W94754  34.087   7.687  12.945
22330W        W94755  16.864  11.361   3.115
22331W        W94756  15.399  25.952  14.372
22332W        W94757  24.958  29.028  14.353
22333W        W94758  44.746  10.588  11.544
22334W        W94759  24.752  14.594  14.921
22335W        W94760  16.691  34.454   1.186
22336W        W94761  31.565  25.257  13.407
22337W        W94762   9.134  13.577   3.208
22338W        W94763  26.055  22.041   3.130
22339W        W94764  17.835  14.105   0.971
22340W        W94765   4.238  30.299   2.776
22341W        W94766  36.283  43.880  10.736
22342W        W94767  20.697  29.000   3.888
22343W        W94768   9.465   6.744   3.299
22344W        W94769   7.253  17.612  10.755
22345W        W94770   4.555  20.046   4.094
22346W        W94771  36.043  39.621   4.183
22347W        W94772   0.325  38.369   2.829
22348W        W94773  38.167   6.346   3.113
22349W        W94774  37.977  11.635  10.277
22350W        W94775  26.451  13.735   3.552
22351W        W94776  18.370  25.155   3.278
22352W        W94777   3.534  35.079   1.308
22353W        W94778  35.065  19.340   4.291
22354W        W94779  42.321  19.753  11.691
22355W        W94780  31.469  16.772   0.337
22356W        W94781   0.319  15.827  11.271
22357W        W94782  17.237  30.061  10.992
22358W        W94783  41.244  14.710  12.893
22359W        W94784  36.665  44.735  13.871
22360W        W94785  22.198  38.988  12.765
22361W        W94786   1.815   4.476  13.488
22362W        W94787  19.688  28.711  10.653
22363W        W94788  25.495  40.331  12.617
22364W        W94789  27.349  27.992  13.858
22365W        W94790  29.697  31.880  10.121
22366W        W94791  40.700  15.500   4.335
22367W        W94792  38.118  25.777  10.326
22368W        W94793  26.549  15.895   2.457
22369W        W94794  20.032  40.370  13.543
22370W        W94795  25.778   7.262   1.151
22371W        W94796  12.610  37.360  13.983
22372W        W94797   2.004  31.341   3.663
22373W        W94798  29.593   0.967  11.581
22374W        W94799   5.396  26.397  14.052
22375W        W94800   9.845  30.699   3.806
22376W        W94801  29.296  43.306   2.457
22377W        W94802   9.500  17.126   4.478
22378W        W94803  44.341  34.385  12.756
22379W        W94804  29.615  12.059   3.645
22380W        W94805  23.372  29.177   1.335
22381W        W94806  33.090  42.596  14.374
22382W        W94807   7.013  39.808   3.179
22383W        W94808  34.180  37.407  14.495
22384W        W94809  40.657  26.118   1.230
22385W        W94810  19.183  16.855  14.478
22386W        W94811  41.496  29.835  14.608
22387W        W94812   6.927  33.130   0.581
22388W        W94813  22.217   1.265  10.666
22389W        W94814  11.293   1.526  11.126
22390W        W94815  21.020  35.983  14.033
22391W        W94816  44.252  38.942   3.334
22392W        W94817  27.542  42.884   1.808
22393W        W94818  43.364  42.523   3.182
22394W        W94819  24.557   4.262   3.646
22395W        W94820   5.826  29.301  12.048
22396W        W94821  11.337  32.584   4.804
22397W        W94822  40.870   8.842   0.829
22398W        W94823  43.782  38.089   0.405
22399W        W94824  17.232  44.212  10.177
22400W        W94825  19.851  43.928  10.786
22401W        W94826  14.596  38.431   4.998
22402W        W94827   0.744  13.070   1.917
22403W        W94828   3.529  14.040   0.945
22404W        W94829  15.192  25.673   4.149
22405W        W94830  32.620  13.810   2.441
22406W        W94831  16.287  30.487   2.173
22407W        W94832  21.674   3.393   3.273
22408W        W94833  37.992   1.419  11.971
22409W        W94834  33.567  25.975   1.302
22410W        W94835   5.563  22.229   1.444
22411W        W94836   0.872  32.005  12.822
22412W        W94837  35.977   1.680   0.823
22413W        W94838  24.707  34.757   1.884
22414W        W94839  44.816  39.921   0.964
22415W        W94840  30.583  17.602  12.866
22416W        W94841  21.519  22.492  11.493
22417W        W94842  14.562  12.198  14.466
22418W        W94843   8.355  42.921   1.297
22419W        W94844  18.379   6.492  13.368
22420W        W94845   0.461   5.930  10.659
22421W        W94846   6.421  35.534  10.840
22422W        W94847   7.358  14.266  12.069
22423W        W94848  41.197   7.647  14.023
22424W        W94849  12.920  26.255  10.667
22425W        W94850  32.223  14.318  13.776
22426W        W94851  40.674  19.586  14.506
22427W        W94852  39.344  36.938   4.086
22428W        W94853   8.080  38.792   3.937
22429W        W94854  13.218   4.312   0.788
22430W        W94855  37.360  15.019  11.754
22431W        W94856  35.395  22.082   3.418
22432W        W94857  30.925  13.353   0.718
22433W        W94858  17.024  30.514  11.268
22434W        W94859  33.396  14.057   4.061
22435W        W94860   0.319  22.513   2.161
22436W        W94861  44.836   7.014  13.214
22437W        W94862  28.676  10.204  14.142
22438W        W94863  33.155  11.243   4.181
22439W        W94864   7.012  27.109  14.005
22440W        W94865  28.058   8.422  10.574
22441W        W94866  10.717  11.179  13.741
22442W        W94867  24.477  44.846   4.579
22443W        W94868  31.513  18.965   3.848
22444W        W94869  21.959  19.115  12.543
22445W        W94870  15.643  19.033  11.570
22446W        W94871   2.903  35.006   2.519
22447W        W94872   9.893  42.391  10.916
22448W        W94873   5.180  35.653   4.224
22449W        W94874  23.505  40.978  13.511
22450W        W94875   3.491  33.496  11.572
22451W        W94876  29.531  22.139  10.934
22452W        W94877  33.140  14.533   1.368
22453W        W94878  43.064  32.472  14.297
22454W        W94879   5.297  41.340   3.445
22455W        W94880  15.130  33.699   4.444
22456W        W94881  25.086  11.959   0.353
22457W        W94882  20.878   3.282   1.715
22458W        W94883   0.011   3.772  14.473
22459W        W94884   0.235  19.308  14.379
22460W        W94885   9.289   0.808   1.714
22461W        W94886  16.373  35.437  10.622
22462W        W94887  39.125  41.670  13.062
22463W        W94888   7.832  44.783  11.463
22464W        W94889   3.999  40.323  11.792
22465W        W94890  23.151  11.002   5.467
22466W        W94891   5.645  25.165   4.882
22467W        W94892  11.770   5.928   3.851
22468W        W94893  29.730   2.413   0.268
22469W        W94894  26.001  23.416   4.757
22470W        W94895  35.115  13.701  11.190
22471W        W94896  24.064   9.381  13.422
22472W        W94897   7.922  33.849  10.711
22473W        W94898  44.596  34.555  13.221
22474W        W94899  44.020  25.512  11.704
22475W        W94900  15.621  12.744  10.798
22476W        W94901  42.832   6.447   1.196
22477W        W94902   6.291  21.147   0.772
22478W        W94903   9.681   0.976  12.454
22479W        W94904  11.856  32.634   4.066
22480W        W94905  34.186  41.752   1.121
22481W        W94906  17.573  11.650   0.292
22482W        W94907  36.641  37.800   4.568
22483W        W94908  21.716  14.646   3.382
22484W        W94909   5.327  38.590   1.937
22485W        W94910  13.205  19.753  12.900
22486W        W94911   0.108  31.795  13.641
22487W        W94912  33.474  26.156   1.797
22488W        W94913  13.337  40.810   3.217
22489W        W94914  25.159  43.086   4.681
22490W        W94915  26.601   3.692   0.846
22491W        W94916  17.718  11.239  10.702
22492W        W94917  40.903  29.570  11.956
22493W        W94918  29.646  28.248  11.539
22494W        W94919  41.962  22.642  12.049
22495W        W94920  14.193   7.846   2.879
22496W        W94921  32.858  27.777   0.601
22497W        W94922  15.353   3.442  12.113
22498W        W94923  14.724  19.051  11.476
22499W        W94924  14.774  14.282   3.643
22500W        W94925  13.969  22.488   3.613
22501W        W94926  41.892  43.346  11.525
22502W        W94927  17.348  30.153  11.489
22503W        W94928  33.455  42.678  10.895
22504W        W94929   0.203   7.835  10.703
22505W        W94930   9.012  25.325   5.081
22506W        W94931  25.599  43.403   1.754
22507W        W94932  12.656   5.345   4.607
22508W        W94933  12.156  15.259   1.723
22509W        W94934  13.957  14.766   3.859
22510W        W94935  33.003   6.179   2.867
22511W        W94936   6.451  44.279  14.062
22512W        W94937  12.836  37.555  11.630
22513W        W94938   2.883  23.863   1.264
22514W        W94939  25.197   8.114   2.481
22515W        W94940  19.698  19.943  11.900
22516W        W94941  25.358  12.177  14.362
22517W        W94942  32.103  16.051  11.883
22518W        W94943  41.848  15.348   1.342
22519W        W94944  11.401  17.860   1.725
22520W        W94945  17.188  21.506  11.013
22521W        W94946  15.748  20.725   3.858
22522W        W94947  27.006  13.079   4.076
22523W        W94948  24.138   1.807   1.274
22524W        W94949   6.247  19.166   2.307
22525W        W94950   5.271  21.881  14.256
22526W        W94951  29.301  42.944   5.074
22527W        W94952  21.620  23.985   0.930
22528W        W94953   3.799  35.305  12.746
22529W        W94954   4.423  12.309  10.646
22530W        W94955  42.201   5.260  13.758
22531W        W94956  11.024  14.157   3.747
22532W        W94957   2.341  20.643   1.359
22533W        W94958   7.435  38.654  11.648
22534W        W94959  13.299  36.156  11.850
22535W        W94960  43.375   1.001  12.009
22536W        W94961  33.525  11.047  12.760
22537W        W94962  15.264   3.896  11.186
22538W        W94963  27.587   2.064  13.774
22539W        W94964  18.298  43.791   1.995
22540W        W94965   2.861   0.249   0.046
22541W        W94966  20.401  40.616   4.124
22542W        W94967  40.859  44.284  11.233
22543W        W94968  13.155  40.792  13.083
22544W        W94969  25.995  32.665  13.388
22545W        W94970  17.599  44.917   0.868
22546W        W94971   3.894  18.114  11.249
22547W        W94972   5.186  12.215  14.901
22548W        W94973  22.746  16.177   0.739
22549W        W94974  43.135   4.155   2.731
22550W        W94975  36.447  16.305  14.333
22551W        W94976  42.415  29.364  10.928
22552W        W94977  32.396   0.268   1.454
22553W        W94978  42.836  13.674  13.591
22554W        W94979  16.676  27.697  12.648
22555W        W94980  32.914   1.686  14.407
22556W        W94981  23.126  43.825  12.346
22557W        W94982  30.237  24.479  12.389
22558W        W94983  34.146  44.567   0.017
22559W        W94984  16.143  26.081   1.483
22560W        W94985  34.575   8.180   2.884
22561W        W94986   1.846  21.060  12.503
22562W        W94987  14.544  12.821  12.335
22563W        W94988   0.869  11.698   1.503
22564W        W94989  21.236   0.332   4.107
22565W        W94990  25.103   6.479   0.744
22566W        W94991  21.544  19.102   2.394
22567W        W94992  21.150  13.189   1.707
22568W        W94993  43.416  19.793   0.095
22569W        W94994   1.298  44.253   0.630
22570W        W94995   7.791  26.625  12.815
22571W        W94996  19.187  34.937   4.346
22572W        W94997   5.752   4.412   3.339
22573W        W94998   7.651  18.866   2.456
22574W        W94999   8.638  31.314  14.869
22575W        W95000  17.785  22.674   3.666
22576W        W95001  13.804  26.670  12.879
22577W        W95002  30.446  38.814  11.523
22578W        W95003   1.114   9.594  12.618
22579W        W95004  36.559  18.643   0.235
22580W        W95005  27.905  33.269   2.274
22581W        W95006  32.085  36.621  11.238
22582W        W95007  36.062  29.462  13.938
22583W        W95008  29.443  40.709  12.273
22584W        W95009  38.459  10.281  11.839
22585W        W95010   5.985  15.244   3.391
22586W        W95011  43.067  28.729   0.919
22587W        W95012  20.166  42.887   0.693
22588W        W95013   9.619  22.196   3.396
22589W        W95014  17.759  24.699   4.068
22590W        W95015  44.241  21.091   2.167
22591W        W95016  42.297   6.411  11.546
22592W        W95017  19.228   4.868   2.694
22593W        W95018  13.284  37.297  14.517
22594W        W95019  19.881   2.145   4.898
22595W        W95020  42.757  43.396  14.986
22596W        W95021  18.568   9.757  14.200
22597W        W95022  11.747  40.088  12.942
22598W        W95023   8.209  42.332  13.792
22599W        W95024  19.628  40.426  11.292
22600W        W95025  20.649  43.917  13.113
22601W        W95026  27.435  30.215   2.763
22602W        W95027   9.304   6.352   9.768
22603W        W95028  20.541  23.588  11.991
22604W        W95029  24.796  38.411   1.313
22605W        W95030  12.890  10.202   1.359
22606W        W95031   6.447  26.583   2.557
22607W        W95032  43.403  34.840  11.180
22608W        W95033  26.478   3.841   3.151
22609W        W95034  15.622  44.249   1.167
22610W        W95035  44.810  29.695   0.308
22611W        W95036  14.674  33.815   1.858
22612W        W95037   0.848  40.105   1.227
22613W        W95038  22.945   9.651  11.014
22614W        W95039   5.374  13.020  12.218
22615W        W95040  23.050  42.394   4.734
22616W        W95041   4.296  20.372   4.421
22617W        W95042   6.493  32.945   4.812
22618W        W95043  42.319  30.371  13.967
22619W        W95044  14.582  31.103   2.299
22620W        W95045   6.357  37.012   3.001
22621W        W95046  40.786   8.056   0.394
22622W        W95047   9.686  42.840  10.702
22623W        W95048   4.143  15.595   3.654
22624W        W95049  26.066   6.196   2.929
22625W        W95050  17.714  36.654  12.039
22626W        W95051   1.841  19.338   3.710
22627W        W95052  33.719  33.102  14.893
22628W        W95053  38.899  25.845   1.733
22629W        W95054  31.106  20.525  13.833
22630W        W95055  37.041  17.221  11.617
22631W        W95056  43.137  16.602  12.154
22632W        W95057  32.473  29.272  12.332
22633W        W95058  31.390   9.752  13.846
22634W        W95059  43.471  26.890   0.133
22635W        W95060  26.531  26.193   5.018
22636W        W95061  29.175  21.286  11.048
22637W        W95062  23.555   6.001   1.294
22638W        W95063  43.130  31.031  11.196
22639W        W95064  40.206   0.031   5.061
22640W        W95065   7.285  10.117  13.935
22641W        W95066  26.062  24.653   1.347
22642W        W95067   1.944  29.167   3.650
22643W        W95068  30.532   2.890  12.880
22644W        W95069   3.978  21.011   0.553
22645W        W95070  28.411  18.541   0.530
22646W        W95071  34.313  35.054  11.066
22647W        W95072   0.973  41.495  14.473
22648W        W95073  43.551  31.558   3.657
22649W        W95074   7.347   2.414  11.258
22650W        W95075  16.827   3.869   1.957
22651W        W95076  22.746  22.998  13.027
22652W        W95077  42.912   5.949  10.875
22653W        W95078  43.275  28.436   2.800
22654W        W95079  29.959  22.255  13.122
22655W        W95080  21.813  34.135  11.954
22656W        W95081  36.384  19.391   1.400
22657W        W95082  41.362   0.795  10.966
22658W        W95083  13.271  27.536  14.293
22659W        W95084  36.077  11.228   0.736
22660W        W95085  38.795   9.214  13.984
22661W        W95086   0.073  31.257  13.886
22662W        W95087  38.312   6.173  14.131
22663W        W95088  23.052  30.899  12.370
22664W        W95089   7.110  36.510   3.608
22665W        W95090  28.467   9.838  14.432
22666W        W95091  27.603  10.346   2.777
22667W        W95092  13.165  10.185   0.237
22668W        W95093   1.822  29.553  11.648
22669W        W95094  25.971  17.140   2.367
22670W        W95095  38.558  17.325  10.817
22671W        W95096  28.313  17.563  12.456
22672W        W95097  20.741  25.456  12.428
22673W        W95098  13.301  10.676  12.850
22674W        W95099  29.174   2.768  14.820
22675W        W95100   1.473  21.995  12.665
22676W        W95101  42.338  28.476   3.779
22677W        W95102  25.108   2.235  12.011
22678W        W95103   9.853  36.474  10.627
22679W        W95104  32.668  30.340  11.000
22680W        W95105  19.653  33.414  13.477
22681W        W95106  14.265  25.538  10.861
22682W        W95107   9.796   1.673   0.301
22683W        W95108   9.955  18.707   1.356
22684W        W95109  21.067   7.189   4.672
22685W        W95110  28.271   2.640   1.415
22686W        W95111  12.217  13.386   2.399
22687W        W95112   7.094  38.987  10.609
22688W        W95113  16.737  10.410   1.446
22689W        W95114   1.415  33.518  14.256
22690W        W95115  11.232  34.564  13.806
22691W        W95116   9.892  39.922  11.660
22692W        W95117  10.320  27.384  14.189
22693W        W95118   1.901   1.417   3.612
22694W        W95119   2.347   7.333   1.355
22695W        W95120  11.575   9.501  10.943
22696W        W95121  41.840  40.245  14.885
22697W        W95122  38.940  18.295   0.475
22698W        W95123   2.229   4.676   3.658
22699W        W95124  27.211  42.292  12.118
22700W        W95125  28.247  41.240   2.767
22701W        W95126  15.759  27.647   0.421
22702W        W95127  29.198  29.511  13.799
22703W        W95128  12.078  17.312  10.472
22704W        W95129  20.465  25.188  11.133
22705W        W95130  11.718   1.427  13.266
22706W        W95131  43.237  31.388  14.792
22707W        W95132  38.779   6.705   0.589
22708W        W95133  19.749  39.784  12.173
22709W        W95134   7.684  11.747   1.444
22710W        W95135  19.017  42.574   3.408
22711W        W95136  17.258  24.554   0.885
22712W        W95137   3.977  29.065   4.565
22713W        W95138  10.788  19.181   1.001
22714W        W95139  14.261  30.608  12.010
22715W        W95140   8.413  35.573  13.840
22716W        W95141  12.761  38.987   3.121
22717W        W95142  28.061  28.220  12.332
22718W        W95143  33.359  11.260  10.498
22719W        W95144   8.901  12.409  11.081
22720W        W95145  36.544  38.587   0.049
22721W        W95146   4.952  39.438   2.738
22722W        W95147   6.052  26.508   1.706
22723W        W95148  36.099  34.125   2.223
22724W        W95149  25.566  16.482  14.709
22725W        W95150  44.011  30.546  13.016
22726W        W95151  12.146  38.404   2.785
22727W        W95152  34.535  22.095   0.912
22728W        W95153   8.780  31.876  13.432
22729W        W95154  35.034  33.436   4.576
22730W        W95155  17.194   4.284   0.853
22731W        W95156  24.464  28.977   0.203
22732W        W95157  20.215   8.882  10.009
22733W        W95158   5.671  22.923  12.917
22734W        W95159  12.741  31.205   2.255
22735W        W95160  44.390   8.142  13.525
22736W        W95161  37.122  27.624   1.575
22737W        W95162   8.225  32.042   2.689
22738W        W95163  23.498  22.402   1.744
22739W        W95164  33.099   5.400   4.512
22740W        W95165  42.426  32.439   1.302
22741W        W95166   0.997  13.658   3.344
22742W        W95167  38.384  40.999   3.206
22743W        W95168  19.023  27.436   4.145
22744W        W95169  19.845  18.178   0.726
22745W        W95170  15.211  41.400  14.974
22746W        W95171   2.572  23.552  13.461
22747W        W95172  29.700  31.923  12.417
22748W        W95173   7.248   6.952   0.670
22749W        W95174  12.843  13.873   0.295
22750W        W95175  42.545  13.220   1.883
22751W        W95176  13.837   8.905  11.643
22752W        W95177  43.404   3.056  13.855
22753W        W95178  43.918  14.596   4.718
22754W        W95179  11.682  43.183  10.154
22755W        W95180   2.812  15.651   0.798
22756W        W95181   8.817   9.540   5.337
22757W        W95182  40.399   5.433   1.300
22758W        W95183  38.219  13.324  14.814
22759W        W95184  16.670  15.094  14.647
22760W        W95185   3.969  18.059   1.742
22761W        W95186  38.101  20.267   2.790
22762W        W95187  21.240   7.285   2.882
22763W        W95188   7.817   3.930   2.000
22764W        W95189  41.980   4.890   1.409
22765W        W95190  24.202  23.390  14.153
22766W        W95191  12.680  20.761  12.930
22767W        W95192  19.558  12.928   0.742
22768W        W95193  22.430  15.522   5.149
22769W        W95194   0.504  30.891  11.153
22770W        W95195  18.830  38.705  10.408
22771W        W95196  39.933  44.907  14.423
22772W        W95197  36.842   0.556   2.025
22773W        W95198  17.258  26.144  11.199
22774W        W95199  22.323   4.571   3.154
22775W        W95200  40.068   2.258   1.366
22776W        W95201   5.392  25.472   2.818
22777W        W95202   6.463  10.378   4.088
22778W        W95203  23.660  44.517  11.100
22779W        W95204  40.413   8.734   3.148
22780W        W95205  39.886  10.834  13.471
22781W        W95206  12.081   8.825   1.873
22782W        W95207  27.545  36.334   2.892
22783W        W95208  19.666  26.455  11.431
22784W        W95209  18.839  35.487  12.905
22785W        W95210  42.749  40.520  10.605
22786W        W95211  10.085   5.221   0.812
22787W        W95212  41.381  29.670  11.693
22788W        W95213  36.329   8.731   4.677
22789W        W95214  41.725  13.707   3.280
22790W        W95215  42.578  30.953   2.960
22791W        W95216   1.226  19.586   2.291
22792W        W95217  16.129  39.823  11.740
22793W        W95218  29.772   4.494  11.176
22794W        W95219  41.927  35.621  10.291
22795W        W95220  25.487  29.033  13.827
22796W        W95221  31.469  35.552   3.913
22797W        W95222  18.101  30.981  13.098
22798W        W95223  33.582  34.093   0.776
22799W        W95224  11.887  14.077  11.618
22800W        W95225  11.516  39.329   0.912
22801W        W95226  22.512   2.695   2.603
22802W        W95227  11.081  18.129  12.088
22803W        W95228  14.777  44.711  11.591
22804W        W95229  12.817  22.304  10.951
22805W        W95230  40.882   6.416  12.472
22806W        W95231  42.550  23.905   3.661
22807W        W95232  19.474  15.775  11.682
22808W        W95233   3.790  33.470  10.150
22809W        W95234  19.633  37.270  14.429
22810W        W95235  44.323  16.188   3.320
22811W        W95236  14.820  23.588   3.219
22812W        W95237   0.951  23.105   3.923
22813W        W95238  36.338  19.831  12.626
22814W        W95239   7.924  22.364  13.552
22815W        W95240  11.036   0.504  11.260
22816W        W95241  25.187  42.843  11.609
22817W        W95242  25.613  12.430  11.310
22818W        W95243  31.351   4.758  14.565
22819W        W95244  16.588  39.433  13.013
22820W        W95245  14.625   2.574   2.955
22821W        W95246  34.458  19.386   1.195
22822W        W95247  32.243  26.269  12.017
22823W        W95248  34.578  14.433   0.319
22824W        W95249  40.721   7.794  13.985
22825W        W95250   8.268  28.563   3.202
22826W        W95251   7.716  13.413   3.236
22827W        W95252   4.150  22.012  12.092
22828W        W95253   2.947  36.167  13.103
22829W        W95254  10.612  33.013  12.402
22830W        W95255  43.589   8.253   1.974
22831W        W95256  16.657  29.522   1.511
22832W        W95257   3.988   4.631   4.127
22833W        W95258   6.876  42.931   0.789
22834W        W95259  29.404  43.261   0.481
22835W        W95260  42.779  43.293  11.724
22836W        W95261  23.176   7.394   1.485
22837W        W95262  19.845  35.936  11.456
22838W        W95263  25.602  21.099  10.379
22839W        W95264   8.671  10.652  14.979
22840W        W95265   0.228  15.413  11.556
22841W        W95266  37.479  25.195  13.021
22842W        W95267   0.953  35.427   1.429
22843W        W95268   5.359  29.642   3.874
22844W        W95269   5.362  41.258  10.726
22845W        W95270  23.625  25.816   1.910
22846W        W95271  28.426  43.068   2.821
22847W        W95272  24.003  43.708  11.361
22848W        W95273   4.936  31.445   3.312
22849W        W95274   7.161  31.050  13.959
22850W        W95275   1.991  17.072  12.999
22851W        W95276   5.520  22.990  10.558
22852W        W95277  12.517  38.133   4.459
22853W        W95278   8.740  10.660  14.009
22854W        W95279   8.814  36.653   3.733
22855W        W95280  13.695  39.012   0.420
22856W        W95281  18.853  28.261  13.909
22857W        W95282  23.935  19.242   1.434
22858W        W95283  36.594  39.431  13.417
22859W        W95284  34.706  37.856   1.244
22860W        W95285  42.813  35.821  14.575
22861W        W95286   6.691  10.340  14.382
22862W        W95287  33.596  41.596   0.432
22863W        W95288  34.046  15.375   4.001
22864W        W95289  42.376  15.584  10.726
22865W        W95290   7.260  19.761  13.790
22866W        W95291  10.098  40.925   1.754
22867W        W95292   1.414  30.117  10.616
22868W        W95293  30.464  18.494   0.755
22869W        W95294   1.436  11.280  11.927
22870W        W95295  10.703   9.185  11.020
22871W        W95296   8.788   2.736   0.365
22872W        W95297  29.495  25.784   0.848
22873W        W95298  38.112  16.744  10.764
22874W        W95299   7.860  27.890   0.766
22875W        W95300  20.812  26.113  10.429
22876W        W95301   7.876  27.533  11.143
22877W        W95302  12.647  17.018  11.119
22878W        W95303  16.037  38.974   0.299
22879W        W95304   9.962  39.972   2.336
22880W        W95305  32.072   8.820   0.897
22881W        W95306  42.665  24.449  13.566
22882W        W95307  40.232  28.097  12.983
22883W        W95308  26.006  12.561   3.188
22884W        W95309   2.835  21.273  13.250
22885W        W95310  34.611  43.735  11.995
22886W        W95311   0.431  27.883   2.654
22887W        W95312  25.601   9.273  12.470
22888W        W95313  34.563  34.374  13.269
22889W        W95314  16.071  14.981   3.276
22890W        W95315   4.396  41.477  12.868
22891W        W95316  29.866  14.333  14.455
22892W        W95317  29.704  35.925   2.662
22893W        W95318  11.528  20.657   0.714
22894W        W95319  18.315  29.764  10.762
22895W        W95320  16.616  20.020  11.541
22896W        W95321   9.225  26.689  14.019
22897W        W95322  17.843  29.451  11.624
22898W        W95323  40.812   2.138  14.303
22899W        W95324  40.840  18.314   4.113
22900W        W95325  30.580  44.708   1.696
22901W        W95326  23.461   6.156  13.327
22902W        W95327   2.212   6.280   2.300
22903W        W95328  44.461  14.666   0.456
22904W        W95329   3.252  33.045  11.415
22905W        W95330  44.375  28.893   0.264
22906W        W95331   5.830  23.633   3.694
22907W        W95332  13.760  17.389   3.162
22908W        W95333  21.862  35.897   4.988
22909W        W95334  43.017  17.484  11.166
22910W        W95335  18.602  26.558   2.626
22911W        W95336   1.459  29.680  14.439
22912W        W95337  13.371   3.015  14.421
22913W        W95338   2.696  11.054   3.824
22914W        W95339  13.813   3.720  13.285
22915W        W95340  35.497  37.914  14.251
22916W        W95341   1.270  42.420   4.485
22917W        W95342  33.661   7.874   1.741
22918W        W95343   3.794  39.587  14.922
22919W        W95344  39.365  34.567   0.361
22920W        W95345  26.968  21.088   3.236
22921W        W95346  15.232  44.713  11.989
22922W        W95347   2.224  44.785  14.390
22923W        W95348  33.107   3.292   0.887
22924W        W95349  29.518  32.556   1.498
22925W        W95350  34.994  21.467   3.238
22926W        W95351  29.872  18.285  11.044
22927W        W95352  29.953   4.911  13.892
22928W        W95353  24.151  19.569  10.634
22929W        W95354  31.517  25.930  12.020
22930W        W95355   7.838  22.879  13.569
22931W        W95356   5.700  32.484  13.949
22932W        W95357  37.945  40.754  11.693
22933W        W95358   2.666   8.741   2.790
22934W        W95359   5.757   1.407   0.625
22935W        W95360  20.970  32.518  13.991
22936W        W95361  33.872  37.001  12.011
22937W        W95362  26.155  19.569   3.572
22938W        W95363   7.293  23.404  12.564
22939W        W95364  26.772  12.187   0.707
22940W        W95365   8.055  13.219   1.268
22941W        W95366  19.766  44.250  10.377
22942W        W95367  40.561  41.065   4.799
22943W        W95368  24.421   1.508  10.369
22944W        W95369  17.718  16.487   2.389
22945W        W95370  43.934  42.945   1.920
22946W        W95371  10.052  38.432  14.266
22947W        W95372   8.887  37.914  11.920
22948W        W95373   0.642  10.869   4.627
22949W        W95374  42.727  38.606  11.486
22950W        W95375  28.071  42.313  10.705
22951W        W95376  18.390   2.214   5.431
22952W        W95377   2.888   8.309   4.874
22953W        W95378  10.289  37.046  14.332
22954W        W95379  43.053  43.906  12.994
22955W        W95380   8.711  22.612   3.740
22956W        W95381   4.344  35.979   4.149
22957W        W95382  17.118  23.108  12.451
22958W        W95383   9.132  26.952  12.263
22959W        W95384  15.212  38.626  13.953
22960W        W95385  16.610  21.625   1.837
22961W        W95386  35.016   8.370   0.774
22962W        W95387  19.162  40.375   3.153
22963W        W95388  43.059   2.191  11.224
22964W        W95389  23.541   9.821   0.263
22965W        W95390  15.525   9.078   5.076
22966W        W95391  38.591  32.051  12.174
22967W        W95392  34.460  14.366   1.523
22968W        W95393  42.238  19.881   4.630
22969W        W95394  44.019  12.402  11.088
22970W        W95395  21.511  38.107   3.209
22971W        W95396   7.598  22.785   2.828
22972W        W95397  14.226  11.754  14.540
22973W        W95398  10.753  11.760   4.482
22974W        W95399  34.541  29.015   3.878
22975W        W95400   2.256  32.188   0.873
22976W        W95401  32.810  23.701   4.754
22977W        W95402  44.838  16.655  13.376
22978W        W95403  31.451  17.126  11.514
22979W        W95404  25.057  24.358   1.362
22980W        W95405  24.125  40.449   0.725
22981W        W95406  34.302  20.553  10.946
22982W        W95407   8.815  23.515   4.387
22983W        W95408  26.941   0.850  10.663
22984W        W95409  27.098  41.903   0.784
22985W        W95410  19.089   2.311   3.801
22986W        W95411  14.085   4.802  10.700
22987W        W95412  12.749  44.048   1.292
22988W        W95413  29.736  39.998  12.319
22989W        W95414  18.112   0.295  12.244
22990W        W95415  28.969  16.163   0.766
22991W        W95416  42.051  41.726  13.054
22992W        W95417   0.596   3.054  11.009
22993W        W95418  15.849   7.486   0.887
22994W        W95419  30.591  21.479  12.461
22995W        W95420  26.637  20.259   3.078
22996W        W95421   4.966  32.030   0.833
22997W        W95422  15.161  35.069   5.044
22998W        W95423  36.674  33.709   3.050
22999W        W95424  39.785  21.042  10.905
23000W        W95425  42.713  31.060   1.776
23001W        W95426   9.726  27.596   4.565
23002W        W95427  35.039   0.751   0.759
23003W        W95428   1.976  13.252  12.506
23004W        W95429   9.351  34.117  14.452
23005W        W95430  20.475  35.131  11.926
23006W        W95431   8.969  26.577  11.061
23007W        W95432   9.777   0.731  13.902
23008W        W95433  12.649  29.695   3.029
23009W        W95434   6.697  38.009   4.098
23010W        W95435  32.533  38.993   4.013
23011W        W95436  37.863  13.707  14.756
23012W        W95437   0.586  39.771  12.008
23013W        W95438   7.771  31.652   4.518
23014W        W95439  11.049   4.242   3.604
23015W        W95440  42.584   9.679  12.957
23016W        W95441  33.988  18.856  11.098
23017W        W95442  42.518  43.204  14.412
23018W        W95443  36.981  22.390   2.802
23019W        W95444  44.029  15.561   1.319
23020W        W95445  19.499  25.927  13.601
23021W        W95446  28.406  40.134  10.695
23022W        W95447   7.024  38.198   1.379
23023W        W95448  32.494  37.112  11.936
23024W        W95449  36.807  35.001  12.940
23025W        W95450  23.467  44.350  11.538
23026W        W95451  11.152  31.859  11.138
23027W        W95452   5.065  26.292  13.048
23028W        W95453  24.445   7.725  11.948
23029W        W95454  30.500  33.013  11.439
23030W        W95455  25.854   4.277  11.803
23031W        W95456   0.406  42.960  11.581
23032W        W95457  32.037  34.210   1.246
23033W        W95458  31.019  25.682   3.944
23034W        W95459   9.096  39.279  12.600
23035W        W95460  40.640  15.051  11.171
23036W        W95461   8.860   8.519   9.684
23037W        W95462  17.096   2.842   3.634
23038W        W95463   4.420  18.502   3.397
23039W        W95464   9.136  26.058   2.632
23040W        W95465  25.502  33.120  12.789
23041W        W95466   3.475  14.852  12.975
23042W        W95467   1.939  31.501  12.346
23043W        W95468  26.923   9.271  11.146
23044W        W95469  23.965  33.323   3.296
23045W        W95470  19.863  33.292   2.672
23046W        W95471   9.321  32.521   4.432
23047W        W95472   7.753  30.828  14.840
23048W        W95473  18.823  17.335   1.788
23049W        W95474  19.679  15.674   0.332
23050W        W95475  30.411  36.908   0.667
23051W        W95476  38.940  30.995   3.329
23052W        W95477  17.588   4.038   3.764
23053W        W95478  29.857  24.403   1.708
23054W        W95479  25.318  19.708  14.327
23055W        W95480  38.928  14.404   0.498
23056W        W95481  37.386  44.734  14.007
23057W        W95482   1.448  12.894   3.350
23058W        W95483  38.586  38.917   2.273
23059W        W95484  35.783  34.432  12.550
23060W        W95485  39.601  34.391   4.053
23061W        W95486  10.332  18.833   2.158
23062W        W95487  26.491  26.156   0.946
23063W        W95488  35.066  35.778   4.225
23064W        W95489  17.248   0.241   0.072
23065W        W95490  42.305  40.902  12.946
23066W        W95491  27.601  25.687  13.003
23067W        W95492  19.494  16.639  11.719
23068W        W95493  22.519  43.589   0.996
23069W        W95494  42.265  22.605   1.595
23070W        W95495  18.101  43.892  12.096
23071W        W95496  17.567  25.303  12.678
23072W        W95497   1.814  42.817   3.183
23073W        W95498   2.983  44.006  11.141
23074W        W95499   8.733  16.741   4.088
23075W        W95500  19.643  33.535   0.759
23076W        W95501  17.021  21.054   4.252
23077W        W95502  30.081  13.218  10.703
23078W        W95503  40.607  41.758  10.542
23079W        W95504   2.154  44.979  12.717
23080W        W95505  40.607  43.251  12.495
23081W        W95506  25.423  43.993  11.098
23082W        W95507   7.770  19.611  11.617
23083W        W95508  23.030  19.765   0.186
23084W        W95509  42.760  22.185  14.236
23085W        W95510  40.864  30.905  11.804
23086W        W95511  18.622  33.969  12.678
23087W        W95512  23.274  42.010  11.332
23088W        W95513  31.191  10.425   0.332
23089W        W95514  34.725  23.530  10.298
23090W        W95515  43.044  43.823  14.898
23091W        W95516  13.347  11.374   1.237
23092W        W95517  33.360  17.306  13.482
23093W        W95518  25.621   1.970  13.056
23094W        W95519  13.671  34.780   3.215
23095W        W95520  14.381  30.143  10.768
23096W        W95521  31.372  28.432   4.698
23097W        W95522  12.853  14.666   2.101
23098W        W95523  41.465  38.343   1.695
23099W        W95524  33.902  41.453  10.631
23100W        W95525  33.383   0.610  12.066
23101W        W95526  14.736  22.787  14.019
23102W        W95527   9.121  37.618  14.214
23103W        W95528   0.420  32.525  14.532
23104W        W95529  28.022  21.865  13.956
23105W        W95530  17.254  40.079   0.894
23106W        W95531  31.366  21.433   0.771
23107W        W95532  12.844  22.207   1.253
23108W        W95533  10.707  28.079   4.108
23109W        W95534  24.171  10.305   4.384
23110W        W95535  12.106  18.043   2.317
23111W        W95536  29.867  20.057   2.680
23112W        W95537  37.358  17.561  13.351
23113W        W95538  10.124  39.988  13.016
23114W        W95539   2.509   7.667   3.222
23115W        W95540   4.430  32.290  14.733
23116W        W95541  24.891  39.657  11.653
23117W        W95542  41.013  40.847   4.362
23118W        W95543   3.406  16.372  14.062
23119W        W95544  12.310   1.153  14.500
23120W        W95545  34.594  31.613   4.739
23121W        W95546  25.157  41.180   3.605
23122W        W95547  15.295  32.533  14.194
23123W        W95548  28.036  16.742   1.582
23124W        W95549  17.440  28.111  12.664
23125W        W95550  34.976  29.167   1.084
23126W        W95551  34.039  38.868  14.063
23127W        W95552   0.903  30.427   1.776
23128W        W95553   5.178  40.063  10.752
23129W        W95554  24.460  23.790  11.187
23130W        W95555   5.609  21.763  11.115
23131W        W95556  17.687  12.358  10.659
23132W        W95557  41.735  30.981  11.612
23133W        W95558  17.627   3.022  10.884
23134W        W95559  27.264   0.821  11.933
23135W        W95560  16.330   0.339  14.824
23136W        W95561  39.962  37.790   2.598
23137W        W95562  37.756  10.382   3.639
23138W        W95563  23.517  44.066   4.745
23139W        W95564  21.635  15.929  13.939
23140W        W95565  10.188  16.144   2.606
23141W        W95566  43.984  43.449  10.556
23142W        W95567  42.406   7.424   0.017
23143W        W95568   6.916  40.753  12.649
23144W        W95569  12.091  22.228   5.029
23145W        W95570  26.110  18.459   3.690
23146W        W95571   1.345  18.062   3.690
23147W        W95572  44.818  39.978  11.653
23148W        W95573  32.991  26.162  13.880
23149W        W95574  34.587   8.840   0.316
23150W        W95575  11.933   7.506   0.020
23151W        W95576  19.759  23.401   1.642
23152W        W95577  40.850  28.535  10.645
23153W        W95578  24.146  17.316   4.968
23154W        W95579  19.145   2.297   2.257
23155W        W95580  18.082  33.399   0.201
23156W        W95581   6.982  16.364  14.825
23157W        W95582  39.873   7.798   4.252
23158W        W95583  14.633   2.802  11.854
23159W        W95584  25.206  39.114  12.114
23160W        W95585  32.610  25.131  14.625
23161W        W95586  43.038  10.147   0.772
23162W        W95587  24.072  19.698   0.732
23163W        W95588  22.688   8.316   3.860
23164W        W95589  39.297  14.036   0.512
23165W        W95590   4.971  11.911  13.070
23166W        W95591  14.508  21.209   5.092
23167W        W95592  17.720  37.179  11.861
23168W        W95593   4.189  13.057   0.142
23169W        W95594  29.158  10.592  13.507
23170W        W95595  36.594  35.987   4.671
23171W        W95596  27.231  24.653   4.401
23172W        W95597   6.992  26.500   1.314
23173W        W95598  19.077  11.645  14.331
23174W        W95599  19.610  10.233  13.014
23175W        W95600   2.926   6.938  12.982
23176W        W95601  22.757  35.922   4.060
23177W        W95602  10.840  29.153   3.602
23178W        W95603  42.278  36.029  12.538
23179W        W95604  25.695  28.548  14.433
23180W        W95605  43.398  34.286   1.478
23181W        W95606  34.817  36.156  11.034
23182W        W95607  26.960  19.266   3.211
23183W        W95608  13.722  23.989  11.135
23184W        W95609   4.018  24.554  12.490
23185W        W95610  42.454  19.665   1.371
23186W        W95611  11.116   2.143  11.896
23187W        W95612   3.435  21.189  14.984
23188W        W95613  12.151  20.647   2.545
23189W        W95614  21.126  27.550  10.748
23190W        W95615  41.984   3.404  11.963
23191W        W95616  43.384  28.342  11.673
23192W        W95617  23.051  26.069  11.385
23193W        W95618   9.664  23.106   3.319
23194W        W95619  17.571  11.774  13.368
23195W        W95620  36.345  18.202   2.891
23196W        W95621   8.781  29.310  11.580
23197W        W95622  29.398  31.536  12.294
23198W        W95623  35.022  43.324  14.497
23199W        W95624  37.631  11.872   0.616
23200W        W95625  17.219  30.531   2.147
23201W        W95626  40.071  14.881   3.494
23202W        W95627   1.669  27.925   0.330
23203W        W95628   2.836  38.956   3.567
23204W        W95629  10.221  31.905   4.244
23205W        W95630  14.259   2.255   2.786
23206W        W95631   1.662  43.871  11.851
23207W        W95632  27.433   3.174  14.282
23208W        W95633  29.091  20.106  13.331
23209W        W95634  23.077   6.748  12.446
23210W        W95635  32.132  24.452   4.573
23211W        W95636   7.026  35.510   0.702
23212W        W95637  31.319  18.092  14.596
23213W        W95638  21.661  30.923   2.229
23214W        W95639  10.224   5.359   1.293
23215W        W95640  16.161  12.768   3.549
23216W        W95641  26.645  37.510   4.490
23217W        W95642  39.970  41.377   2.893
23218W        W95643  19.656  24.625  11.615
23219W        W95644  37.574  14.554  11.936
23220W        W95645  31.076   4.271  14.466
23221W        W95646  17.206  38.868   3.818
23222W        W95647  25.975  19.976  13.571
23223W        W95648   9.720   8.197   2.821
23224W        W95649  16.561  31.898   4.404
23225W        W95650  17.032  38.130  10.118
23226W        W95651  10.074  22.870   1.740
23227W        W95652  10.596   8.275  11.418
23228W        W95653  27.209   8.147  11.564
23229W        W95654  18.739   1.950   1.215
23230W        W95655  43.952  18.913   0.901
23231W        W95656  22.122   8.128   2.322
23232W        W95657  44.813  39.405   0.172
23233W        W95658  36.702  36.156   2.756
23234W        W95659  37.917   0.251  13.483
23235W        W95660  35.467  26.137   1.013
23236W        W95661  16.774  14.101   2.809
23237W        W95662  12.437  38.666   4.530
23238W        W95663   9.215  43.364  13.929
23239W        W95664  26.603  24.026   1.268
23240W        W95665  10.368  30.530  12.456
23241W        W95666  21.814  17.624  13.416
23242W        W95667   1.360   1.441   2.159
23243W        W95668  12.309  32.629   4.599
23244W        W95669   8.265  43.041   3.371
23245W        W95670   2.487  34.343   2.825
23246W        W95671   7.703  42.721   4.190
23247W        W95672   3.130  23.695   4.934
23248W        W95673   4.331  31.937   4.361
23249W        W95674  25.437  17.016   1.491
23250W        W95675  39.943   4.491  12.614
23251W        W95676  13.586  38.875  12.483
23252W        W95677  35.028   7.791  11.124
23253W        W95678  43.250   6.186   3.622
23254W        W95679  12.249  22.164  13.589
23255W        W95680  14.388  18.378   4.206
23256W        W95681  14.370   6.900   3.854
23257W        W95682  41.563  19.200   4.242
23258W        W95683  13.900  31.430   4.415
23259W        W95684  36.924  19.518  11.679
23260W        W95685  15.115  23.782  14.633
23261W        W95686  34.554   4.814  10.533
23262W        W95687  12.816  31.857  11.615
23263W        W95688  12.869  39.100   1.776
23264W        W95689  21.300  24.554  11.930
23265W        W95690  37.396  39.764   4.920
23266W        W95691   7.279  22.558   1.595
23267W        W95692  39.773  25.094  10.691
23268W        W95693  33.183  18.530  10.234
23269W        W95694  19.222   2.879  12.309
23270W        W95695   1.728  27.128   2.686
23271W        W95696  27.063  32.333   4.536
23272W        W95697  37.971  10.614  13.011
23273W        W95698   9.662  22.458   2.872
23274W        W95699  34.712  35.600   0.861
23275W        W95700  17.706  40.506   4.140
23276W        W95701  44.530   3.871   4.944
23277W        W95702  21.071  36.886   4.912
23278W        W95703  44.226  18.260  12.044
23279W        W95704   9.619   8.166  14.873
23280W        W95705  28.401  21.261   4.597
23281W        W95706  37.805   0.850  12.793
23282W        W95707  31.986  33.970  14.772
23283W        W95708  39.786   0.440   4.163
23284W        W95709  40.441   0.248   2.487
23285W        W95710   6.303  27.909   1.697
23286W        W95711  14.854  30.383   4.165
23287W        W95712  12.376  43.789  13.839
23288W        W95713  11.420  35.932   3.739
23289W        W95714  21.622  10.686  12.564
23290W        W95715  28.227  28.166  13.870
23291W        W95716  29.321  10.306   3.259
23292W        W95717  21.151   4.248  11.670
23293W        W95718  22.789  17.967  12.747
23294W        W95719  43.859  38.055   4.157
23295W        W95720   8.150  19.883  12.414
23296W        W95721  22.207   2.288  11.102
23297W        W95722  41.018  12.848  12.939
23298W        W95723  25.634   4.649   1.223
23299W        W95724   5.046  18.097   3.765
23300W        W95725  41.426  29.475  14.259
23301W        W95726   2.809  32.056   3.386
23302W        W95727  27.337  23.960   0.897
23303W        W95728  25.619   6.014   1.353
23304W        W95729   0.249  36.345   0.149
23305W        W95730  40.354  27.204   2.819
23306W        W95731  17.870  40.866   4.476
23307W        W95732  33.544  41.531   2.356
23308W        W95733  10.183  37.888   4.978
23309W        W95734  23.793  11.416   3.173
23310W        W95735  17.136  38.086  11.073
23311W        W95736   8.601  13.817  12.457
23312W        W95737  37.839   4.344  14.366
23313W        W95738  36.946  43.333  13.630
23314W        W95739  38.813  33.042   0.184
23315W        W95740  31.628  23.084   1.016
23316W        W95741  12.370   1.918  12.834
23317W        W95742  22.995  44.555  10.563
23318W        W95743  16.662  28.224   2.761
23319W        W95744  22.660  18.898  13.879
23320W        W95745  10.798  26.452  10.997
23321W        W95746   2.584  24.937   0.262
23322W        W95747  34.193   8.223  11.690
23323W        W95748  31.208  17.044  11.066
23324W        W95749  44.764  38.893   1.655
23325W        W95750  34.109   5.454  12.871
23326W        W95751   4.797  37.806  14.305
23327W        W95752   1.998   0.500   4.210
23328W        W95753  23.080  24.516  10.602
23329W        W95754   8.915  25.589  11.992
23330W        W95755  37.052  11.916  13.415
23331W        W95756  42.886  23.674  14.046
23332W        W95757  25.397  23.513   1.311
23333W        W95758  28.371  17.612  13.409
23334W        W95759  30.160   2.173   2.348
23335W        W95760  22.164  33.832   2.359
23336W        W95761   1.183  16.594  12.099
23337W        W95762  21.097  31.672   1.422
23338W        W95763  22.223  11.208  11.962
23339W        W95764  10.553  35.935   5.208
23340W        W95765  28.138  27.422   4.236
23341W        W95766   2.559   7.351   3.870
23342W        W95767  35.446  25.724   1.337
23343W        W95768  43.633  20.644   1.479
23344W        W95769  25.928  10.796   1.791
23345W        W95770   1.719  38.309   2.322
23346W        W95771  28.891   3.443   1.856
23347W        W95772  33.103  39.404  13.372
23348W        W95773   0.733   5.845  14.868
23349W        W95774  34.068  36.826   3.078
23350W        W95775  15.592  24.962  10.536
23351W        W95776  24.647  41.885  12.212
23352W        W95777  44.546   5.987   3.815
23353W        W95778  32.621  32.533  11.154
23354W        W95779   9.188  35.472   4.093
23355W        W95780  11.285   7.776  11.418
23356W        W95781  32.570  40.435   2.261
23357W        W95782  25.524  42.851  14.360
23358W        W95783  43.811  44.569  13.849
23359W        W95784  15.282  35.369  12.179
23360W        W95785   0.573  41.370  12.959
23361W        W95786  39.622   1.179   2.806
23362W        W95787   1.387  17.720   5.113
23363W        W95788  30.667  17.638   0.324
23364W        W95789  42.373   1.893   3.024
23365W        W95790  42.471  40.362   2.343
23366W        W95791   3.092  40.264  11.396
23367W        W95792  33.020   9.481  12.048
23368W        W95793  28.576   8.524   3.781
23369W        W95794  20.156  24.428  11.528
23370W        W95795  29.687  35.859  12.995
23371W        W95796  26.070  13.709   4.804
23372W        W95797  37.832  15.238   4.603
23373W        W95798  34.049   4.420  10.804
23374W        W95799  31.380  14.169   2.770
23375W        W95800  12.749  37.704  13.105
23376W        W95801  38.790  26.067  12.811
23377W        W95802  19.724  41.681   5.082
23378W        W95803  13.120  30.553  13.375
23379W        W95804  12.866  40.048   4.184
23380W        W95805  16.991  31.719   4.172
23381W        W95806  25.177  11.624   2.273
23382W        W95807   1.827  16.646   2.273
23383W        W95808  43.820   8.710   3.600
23384W        W95809  42.340  14.777  11.570
23385W        W95810  34.377   8.514  14.957
23386W        W95811   7.577   8.676  14.597
23387W        W95812   5.997  31.676  12.129
23388W        W95813  14.060  37.483   3.854
23389W        W95814   3.815  43.530   4.483
23390W        W95815  42.733  21.472  12.107
23391W        W95816  15.334  44.733   4.926
23392W        W95817   3.829  30.510   3.479
23393W        W95818  12.378  25.796  13.372
23394W        W95819  35.611  33.414   0.981
23395W        W95820  42.518   0.701   0.264
23396W        W95821   0.201  15.539  12.078
23397W        W95822  27.828  24.070   2.404
23398W        W95823  17.688  16.293  12.333
23399W        W95824   6.434  44.546   0.870
23400W        W95825  34.500   1.234   1.370
23401W        W95826  13.704  14.656   2.354
23402W        W95827  34.390   0.370  12.817
23403W        W95828  26.041  29.908  12.459
23404W        W95829  25.218  25.195  12.402
23405W        W95830  33.361  35.988   4.784
23406W        W95831  23.161   9.661   3.227
23407W        W95832  23.750  35.502  12.018
23408W        W95833  15.667  18.384   0.279
23409W        W95834  27.364  36.422  12.544
23410W        W95835  36.922  25.104   3.062
23411W        W95836   4.382  20.611   0.291
23412W        W95837  23.012  29.568  12.052
23413W        W95838   4.150   8.163  12.438
23414W        W95839   0.997  27.173  11.551
23415W        W95840   2.004  33.533  12.537
23416W        W95841  13.066   4.391   3.695
23417W        W95842  21.458  14.157   5.106
23418W        W95843   1.962  40.033   1.926
23419W        W95844  37.996  36.494   4.905
23420W        W95845  29.390   6.576   5.028
23421W        W95846  35.055  24.515  12.399
23422W        W95847  19.695  41.387  11.458
23423W        W95848  39.913  22.729   1.338
23424W        W95849  36.586   3.676  10.710
23425W        W95850  17.986   5.322  11.619
23426W        W95851  18.144  33.869   2.922
23427W        W95852   0.786  13.607   2.444
23428W        W95853  19.077   3.257   1.607
23429W        W95854  15.217  23.012   2.243
23430W        W95855  14.307  24.557  13.888
23431W        W95856  28.807  35.827   2.454
23432W        W95857  43.012  27.949  10.638
23433W        W95858  12.088  33.560   2.375
23434W        W95859  22.084  41.900  10.708
23435W        W95860  24.008  31.515   3.568
23436W        W95861   4.282   0.174   0.754
23437W        W95862  28.895  15.216   0.798
23438W        W95863   1.932   9.902   1.828
23439W        W95864   7.317   6.732   2.621
23440W        W95865  26.325  30.674  14.349
23441W        W95866   9.183  31.007   2.615
23442W        W95867  42.277  42.502   1.822
23443W        W95868  30.785  29.104  13.610
23444W        W95869  11.288  34.877   0.947
23445W        W95870  40.778  22.651   1.802
23446W        W95871  16.648  27.418   4.018
23447W        W95872  25.507  26.683  14.308
23448W        W95873  13.884  19.923   3.602
23449W        W95874  24.183   7.875   4.758
23450W        W95875  40.457  35.942   2.954
23451W        W95876   3.285  30.493   0.316
23452W        W95877  27.072  36.415   2.613
23453W        W95878   6.634  42.232   1.761
23454W        W95879  44.923  28.559   3.216
23455W        W95880  17.548  17.138  12.423
23456W        W95881  26.464  18.564  13.961
23457W        W95882   1.006  30.772   2.231
23458W        W95883  23.372  42.439   2.853
23459W        W95884  23.719  33.911   0.939
23460W        W95885  39.417  24.673   2.345
23461W        W95886  31.477  25.025   4.399
23462W        W95887  33.056  37.783   0.680
23463W        W95888  13.707   2.832   1.227
23464W        W95889  32.511  27.041  10.424
23465W        W95890  42.812   6.692   1.799
23466W        W95891   1.992  42.972  14.251
23467W        W95892  16.513  31.466   0.656
23468W        W95893   0.303  10.762   0.724
23469W        W95894  31.160  12.374   2.907
23470W        W95895  28.196   9.177   4.133
23471W        W95896  39.457  44.849  10.134
23472W        W95897  39.772  42.921  13.004
23473W        W95898   7.260   4.796  11.616
23474W        W95899   0.783  14.843  12.078
23475W        W95900  21.099  41.899  12.683
23476W        W95901  14.704  10.495  13.746
23477W        W95902  34.965  17.531   3.705
23478W        W95903  16.206  31.446  10.900
23479W        W95904  13.788   5.864   4.624
23480W        W95905  43.092  21.715  12.389
23481W        W95906   7.262  19.014  13.389
23482W        W95907  34.449  19.566   0.712
23483W        W95908  25.563   9.436  14.848
23484W        W95909   7.281  37.446   3.167
23485W        W95910   3.428   7.227  12.915
23486W        W95911  26.072  29.947   0.484
23487W        W95912  38.205  30.445  11.661
23488W        W95913  36.785  34.061  13.636
23489W        W95914   0.438  34.944   3.712
23490W        W95915  28.172  15.172   4.282
23491W        W95916   6.157  33.291   3.071
23492W        W95917  11.627  30.993  13.413
23493W        W95918  10.213   8.672   5.450
23494W        W95919  19.325  19.975   4.255
23495W        W95920   6.723  17.512   0.138
23496W        W95921  26.630  39.244  13.217
23497W        W95922  43.811  25.982   4.307
23498W        W95923  28.913  22.565   1.197
23499W        W95924   2.876  35.461   1.752
23500W        W95925  27.511  14.969   1.713
23501W        W95926  23.729  41.137  14.607
23502W        W95927   1.960  13.289  14.824
23503W        W95928  14.125  42.450   0.616
23504W        W95929  10.382  33.330  10.568
23505W        W95930  21.131  21.438  13.860
23506W        W95931   8.840  21.004   4.602
23507W        W95932  13.566  17.784   4.071
23508W        W95933  15.390  14.716   1.856
23509W        W95934  22.266   1.695  14.471
23510W        W95935  13.246  12.318  14.654
23511W        W95936  38.306  33.796   0.916
23512W        W95937  34.839  18.540  14.256
23513W        W95938  15.595  20.451  12.217
23514W        W95939  44.971  39.551   1.886
23515W        W95940   8.196   4.866  10.028
23516W        W95941  37.994  14.685  14.399
23517W        W95942   9.033  27.244   1.330
23518W        W95943  39.037  36.103   4.195
23519W        W95944  38.617  37.521  13.873
23520W        W95945  43.549  29.976   2.646
23521W        W95946  27.702   1.469  10.731
23522W        W95947  40.450  41.494   5.083
23523W        W95948  28.719  12.088  13.803
23524W        W95949   8.836  34.234  14.432
23525W        W95950   6.840  26.255   2.424
23526W        W95951   2.955  13.314  12.089
23527W        W95952   4.617  32.051  13.103
23528W        W95953  27.561  23.214   3.974
23529W        W95954  17.800  21.813   2.162
23530W        W95955  21.636   9.816   1.727
23531W        W95956  34.351  25.912  14.890
23532W        W95957   2.040  15.076  13.927
23533W        W95958  24.165  29.594  11.546
23534W        W95959  20.937  13.801   0.303
23535W        W95960  17.723   9.327  14.751
23536W        W95961  39.325  38.146   2.690
23537W        W95962   8.262  44.219  12.442
23538W        W95963   3.246  24.045   1.581
23539W        W95964   7.065   4.225   2.076
23540W        W95965  26.132  32.442  10.055
23541W        W95966  31.350   7.340  14.422
23542W        W95967  17.552  40.359  12.543
23543W        W95968  37.016  32.620  14.333
23544W        W95969  18.189   2.023  12.397
23545W        W95970  44.345  17.198   1.171
23546W        W95971  32.690  37.089   3.684
23547W        W95972  30.910  17.670  14.857
23548W        W95973   8.395   0.973   2.682
23549W        W95974  35.499  31.060   2.018
23550W        W95975  28.923  43.112   2.822
23551W        W95976  29.227   0.839   3.335
23552W        W95977  13.109  44.988   0.711
23553W        W95978  30.188  38.041   1.957
23554W        W95979   9.082  15.556  14.945
23555W        W95980  39.527  16.242   4.558
23556W        W95981  26.048  24.946   4.542
23557W        W95982   1.671   1.441   1.727
23558W        W95983  18.755   6.799  13.566
23559W        W95984   2.833  16.982  12.408
23560W        W95985   7.739  19.658   0.943
23561W        W95986  39.332  14.307   3.802
23562W        W95987  43.958   4.153  14.984
23563W        W95988  19.541  14.389  11.092
23564W        W95989  20.460  10.623   1.924
23565W        W95990  15.103  39.165  12.349
23566W        W95991  40.337  16.882   2.286
23567W        W95992   8.328  13.003  13.921
23568W        W95993  38.603  33.856   3.204
23569W        W95994  20.000   8.338   4.223
23570W        W95995  20.182  12.633   2.476
23571W        W95996   7.449  38.573  12.574
23572W        W95997  27.682  22.608  12.200
23573W        W95998   9.440  10.141  13.462
23574W        W95999  26.463   4.937   3.147
23575W        W96000  26.985  29.610  12.616
23576W        W96001  33.954  21.531  12.986
23577W        W96002   8.189  27.731   3.787
23578W        W96003   7.941  34.379   3.766
23579W        W96004  16.325  42.054   0.970
23580W        W96005   6.878  26.521   1.822
23581W        W96006   7.292   8.783  13.739
23582W        W96007   4.695  28.982  13.869
23583W        W96008  29.937   5.274  14.853
23584W        W96009  33.578  31.332   3.848
23585W        W96010  33.061  10.402  10.564
23586W        W96011  29.361   9.379   4.332
23587W        W96012  29.163  14.202   4.694
23588W        W96013  24.885  30.543  11.921
23589W        W96014  44.364  32.611  10.717
23590W        W96015  30.911  30.380   5.077
23591W        W96016   8.155  37.907   0.463
23592W        W96017  18.193   1.287  13.032
23593W        W96018  26.503  36.875  12.478
23594W        W96019  34.424  30.327   3.186
23595W        W96020  36.781  11.149   2.484
23596W        W96021  24.217  34.921   3.163
23597W        W96022  19.656  24.267  10.552
23598W        W96023  11.618  26.968  11.162
23599W        W96024  32.021  44.323  13.826
23600W        W96025  40.392   1.545   4.348
23601W        W96026  43.844   2.267  14.235
23602W        W96027  34.480   7.399  11.827
23603W        W96028   2.768  24.643  10.575
23604W        W96029   7.137  26.423  14.536
23605W        W96030  16.897   8.869  14.484
23606W        W96031  39.476  37.856  13.844
23607W        W96032  22.042  23.667   2.132
23608W        W96033  15.849  28.877   2.752
23609W        W96034  18.674  29.215   1.673
23610W        W96035   2.454  29.006  14.879
23611W        W96036   8.530  41.438  12.661
23612W        W96037  44.425  30.342   2.603
23613W        W96038  25.316  21.511  13.093
23614W        W96039  39.329   2.676  11.504
23615W        W96040  15.279  12.062  13.691
23616W        W96041   7.300   1.509  10.891
23617W        W96042   0.288  11.327  11.371
23618W        W96043  24.399  12.175   0.871
23619W        W96044  30.088  26.265   2.810
23620W        W96045  36.665  42.766   4.144
23621W        W96046  21.723   3.056   0.538
23622W        W96047  39.416  22.990   0.696
23623W        W96048  23.673  12.159  10.300
23624W        W96049  21.962  30.011  13.882
23625W        W96050  37.375  38.694  11.081
23626W        W96051  38.755  33.963  13.503
23627W        W96052  27.518   2.988   4.002
23628W        W96053   9.288  23.069   0.921
23629W        W96054  22.214  24.654   2.386
23630W        W96055  33.092  29.107  11.255
23631W        W96056   7.713  14.852  12.401
23632W        W96057  37.964  29.659  13.074
23633W        W96058  17.502  18.109   0.288
23634W        W96059  12.718   1.868   2.287
23635W        W96060   7.627  31.005  10.321
23636W        W96061  30.103   9.683  10.878
23637W        W96062  18.358  30.016   1.949
23638W        W96063  10.189   4.616   1.894
23639W        W96064  36.997   5.018  10.573
23640W        W96065   6.621   4.168   0.320
23641W        W96066  27.951  15.227  14.323
23642W        W96067   6.460  12.868   3.664
23643W        W96068  42.494  25.013   1.819
23644W        W96069  16.258  24.394   2.318
23645W        W96070  26.180  30.161   2.167
23646W        W96071  25.096  15.218   0.540
23647W        W96072  14.460  38.530   2.543
23648W        W96073   9.067  27.286  13.921
23649W        W96074  13.954   5.114   4.122
23650W        W96075  22.235  12.180  10.495
23651W        W96076   4.463  37.249   4.293
23652W        W96077   3.460  36.081   0.395
23653W        W96078   9.787  20.276  13.163
23654W        W96079  23.946  17.212  12.489
23655W        W96080  41.064  16.099  13.440
23656W        W96081   8.257  24.885   3.021
23657W        W96082  15.326  29.921  14.415
23658W        W96083  13.524   8.471   2.809
23659W        W96084  18.804  18.266   2.623
23660W        W96085  16.310  13.778  10.934
23661W        W96086  13.617   2.867  11.967
23662W        W96087  26.611  24.587  12.113
23663W        W96088   1.254  14.289  13.029
23664W        W96089  15.197   1.471   0.450
23665W        W96090  21.470  29.105  14.027
23666W        W96091  30.629  27.164  13.243
23667W        W96092  20.224  24.277   0.791
23668W        W96093  27.995  26.650   3.689
23669W        W96094  31.616  10.206  13.998
23670W        W96095  22.201  39.451  14.769
23671W        W96096   0.026  19.054   0.279
23672W        W96097   9.700  12.229   2.232
23673W        W96098   7.251  35.997   3.915
23674W        W96099  43.068  27.965  14.754
23675W        W96100  41.833  24.149  14.377
23676W        W96101   3.393  26.021   1.413
23677W        W96102   5.705   8.246  12.523
23678W        W96103   1.318  32.837  12.146
23679W        W96104  39.576  21.518  12.557
23680W        W96105  40.436  18.817   0.772
23681W        W96106   7.216  44.698  10.797
23682W        W96107  31.997  44.007  14.830
23683W        W96108  17.986  41.697  14.396
23684W        W96109  17.048   0.797  11.849
23685W        W96110  15.694   5.851   1.750
23686W        W96111  22.106  30.682   0.942
23687W        W96112   5.278  28.203  13.987
23688W        W96113  42.888  11.892  14.509
23689W        W96114  14.873  12.120   0.797
23690W        W96115  15.607  21.704  14.865
23691W        W96116   2.197  26.846   2.864
23692W        W96117  29.112  20.751  13.776
23693W        W96118  13.847   5.425   1.276
23694W        W96119  33.582  36.258   2.279
23695W        W96120  17.379  20.850  12.582
23696W        W96121  16.308  16.034  13.975
23697W        W96122   6.847  38.456   3.076
23698W        W96123   8.649  30.895  13.393
23699W        W96124  35.442   5.087  10.307
23700W        W96125  17.607   1.069  11.031
23701W        W96126  17.226  19.303   1.900
23702W        W96127  40.502   5.952   1.271
23703W        W96128  28.411  40.013  12.532
23704W        W96129  29.447  42.271  11.406
23705W        W96130  19.809  27.322  12.309
23706W        W96131  22.107   0.299   3.188
23707W        W96132  34.306  19.823  12.559
23708W        W96133   9.250  33.752   3.762
23709W        W96134  14.236   7.626   3.366
23710W        W96135  31.919  13.017   2.378
23711W        W96136  40.265  42.910  11.577
23712W        W96137  10.247  42.091   0.450
23713W        W96138  19.258  42.007  11.951
23714W        W96139  24.839  30.282   4.371
23715W        W96140  44.075   5.874   9.944
23716W        W96141   0.805   7.341   1.276
23717W        W96142  32.964  41.004  10.696
23718W        W96143  18.598  19.598   1.788
23719W        W96144   1.817  18.597  12.621
23720W        W96145  12.973  42.849  11.638
23721W        W96146  33.789  22.695   2.827
23722W        W96147  30.837  38.932  11.184
23723W        W96148  39.576  25.425   1.891
23724W        W96149   9.788  23.135  13.342
23725W        W96150  24.771  41.084   0.855
23726W        W96151  14.262  39.817   3.871
23727W        W96152  30.348  21.710  11.544
23728W        W96153   8.438   9.217  10.246
23729W        W96154  30.961   5.990  13.900
23730W        W96155  43.592  44.963   2.552
23731W        W96156  36.651   2.732   3.702
23732W        W96157  38.617  16.157  13.535
23733W        W96158   6.670  33.555  12.113
23734W        W96159  40.050  33.112   1.753
23735W        W96160   6.276  13.252   4.493
23736W        W96161  10.722  16.102   2.685
23737W        W96162  35.619  20.853   2.810
23738W        W96163  10.332  28.188   2.213
23739W        W96164  10.180  39.298   2.112
23740W        W96165  33.104  29.495  10.387
23741W        W96166  35.532  25.625  10.564
23742W        W96167   3.852  16.065   0.274
23743W        W96168  13.560  22.355   1.660
23744W        W96169  30.134  38.538   2.783
23745W        W96170   5.442  31.587   0.371
23746W        W96171  41.739  32.412  12.893
23747W        W96172  42.434  24.561   2.937
23748W        W96173  37.262  25.033   2.677
23749W        W96174  37.469   3.977  14.996
23750W        W96175   2.760  31.158   4.643
23751W        W96176   3.312  42.801   2.735
23752W        W96177  35.415   1.733   5.080
23753W        W96178  39.188   2.275   0.916
23754W        W96179  12.330  44.385  14.302
23755W        W96180  12.765  23.613  12.162
23756W        W96181  18.760  16.769   0.294
23757W        W96182   3.301  12.825  13.862
23758W        W96183  29.734  44.987  12.557
23759W        W96184  39.361   9.882   3.570
23760W        W96185  29.439  37.263  11.585
23761W        W96186  29.221  32.853   3.742
23762W        W96187   4.456  43.756  14.531
23763W        W96188  27.980  11.798  14.289
23764W        W96189   3.530   2.303  13.499
23765W        W96190   9.593  40.470  11.596
23766W        W96191  20.734   0.955  12.435
23767W        W96192  12.112  39.595   1.689
23768W        W96193  32.000  25.271   3.225
23769W        W96194   3.043   1.810   0.345
23770W        W96195   1.263   9.837  11.397
23771W        W96196   9.784  18.275  11.552
23772W        W96197  19.533  22.692  12.532
23773W        W96198  30.484  32.508  11.563
23774W        W96199  20.746   1.739   0.826
23775W        W96200  44.792  24.242   1.609
23776W        W96201  35.520   5.276  12.281
23777W        W96202   1.931  36.814  13.885
23778W        W96203  22.135   7.011   0.408
23779W        W96204  34.697  42.952   0.840
23780W        W96205  13.773   5.933   1.313
23781W        W96206  10.706  38.893   1.885
23782W        W96207  38.796  29.118  12.005
23783W        W96208  17.767  29.965  12.492
23784W        W96209   4.234  42.472   3.992
23785W        W96210  28.746   5.820  12.083
23786W        W96211  17.665  30.476   4.145
23787W        W96212  26.032  38.093  14.314
23788W        W96213  13.174  31.886  12.936
23789W        W96214  15.212  36.610   4.298
23790W        W96215  16.855  39.237  12.572
23791W        W96216  33.267  18.666  12.155
23792W        W96217  41.949  29.453  14.379
23793W        W96218  26.915  33.039   3.337
23794W        W96219   1.833  17.215  14.934
23795W        W96220  28.790  33.150   5.077
23796W        W96221  25.471  21.517  10.681
23797W        W96222  20.211  11.057   4.579
23798W        W96223  15.720  41.832  10.994
23799W        W96224  21.289  31.079  14.053
23800W        W96225  30.487  13.415   0.439
23801W        W96226  32.402  36.230  13.746
23802W        W96227  43.374  18.137   3.210
23803W        W96228  23.182  41.936   1.367
23804W        W96229  24.931   1.677   3.291
23805W        W96230  25.991  17.716   0.632
23806W        W96231  44.376  26.484   3.735
23807W        W96232  30.092   4.259   3.904
23808W        W96233  31.916  34.371  13.389
23809W        W96234  32.261   0.295  13.565
23810W        W96235  23.261   7.624   2.324
23811W        W96236  12.438  23.072   3.591
23812W        W96237   3.426  28.593  11.485
23813W        W96238  17.762  37.074  12.345
23814W        W96239  29.592  24.211   2.632
23815W        W96240   7.887  35.315   4.107
23816W        W96241  10.835  15.595   0.836
23817W        W96242  27.989  23.986   1.311
23818W        W96243  11.182  31.030   0.586
23819W        W96244  12.463  41.962  10.784
23820W        W96245   4.439   2.120   0.813
23821W        W96246   4.318  11.380  10.747
23822W        W96247  16.173  10.290  11.201
23823W        W96248  40.380  38.950   2.566
23824W        W96249  21.584  44.032   3.279
23825W        W96250   7.403   8.581   5.083
23826W        W96251  17.813  11.202   0.349
23827W        W96252  29.244  14.508  11.085
23828W        W96253  25.665  21.067   3.989
23829W        W96254  39.535  37.845   2.284
23830W        W96255  42.326   6.727  13.763
23831W        W96256  10.746  26.361   0.095
23832W        W96257   9.183  14.989  14.034
23833W        W96258  27.198   1.416   4.311
23834W        W96259  43.183  44.392   3.633
23835W        W96260   3.176  37.833  11.562
23836W        W96261  29.633   1.140   1.246
23837W        W96262  36.991  25.601   9.798
23838W        W96263  25.215  20.549  14.031
23839W        W96264  28.582  32.712   4.543
23840W        W96265  13.704  17.026   0.964
23841W        W96266  23.743  27.402   4.468
23842W        W96267   3.386  11.399   2.765
23843W        W96268  32.519   9.184  13.585
23844W        W96269  26.465  41.623  14.100
23845W        W96270  34.848  39.446  12.447
23846W        W96271  34.498   9.380   0.171
23847W        W96272   8.157  44.913  10.676
23848W        W96273   7.152  20.635   2.371
23849W        W96274  40.836   6.221   0.330
23850W        W96275   1.843  36.578  11.943
23851W        W96276  39.450  38.155  11.227
23852W        W96277  16.326  24.819  13.477
23853W        W96278   8.797  43.112  13.012
23854W        W96279  16.617  42.519  11.585
23855W        W96280  44.937  33.302   0.794
23856W        W96281   5.927  36.815   4.257
23857W        W96282   9.883  43.676  14.237
23858W        W96283   8.955   3.947  11.114
23859W        W96284   2.967  11.592   0.804
23860W        W96285  10.136  16.782   1.422
23861W        W96286   2.264  39.417  12.278
23862W        W96287  16.238   3.268  11.042
23863W        W96288  33.443  30.124  11.392
23864W        W96289  29.181  12.390  10.867
23865W        W96290  15.226  20.313  11.431
23866W        W96291  15.155  22.632  10.651
23867W        W96292  37.834   8.889   4.625
23868W        W96293   7.813  34.961  14.983
23869W        W96294  33.002  29.914   0.341
23870W        W96295  34.628   3.491   3.397
23871W        W96296   1.925   1.215  14.348
23872W        W96297  28.248  38.495  10.037
23873W        W96298   9.793  29.896  10.638
23874W        W96299  42.403  14.329   3.682
23875W        W96300  14.349  28.422  12.995
23876W        W96301  12.443   1.306  10.651
23877W        W96302  26.230   0.975   1.130
23878W        W96303  14.196   8.212   2.311
23879W        W96304  36.299  34.794  12.939
23880W        W96305  30.097  42.883  13.099
23881W        W96306  33.969  36.660  12.409
23882W        W96307  38.229  28.962  12.009
23883W        W96308  10.866  24.169  11.855
23884W        W96309  43.299   7.261  13.524
23885W        W96310  30.980   9.166  14.205
23886W        W96311   0.302  38.216  14.960
23887W        W96312  11.830  17.875  11.977
23888W        W96313  25.283  21.321   2.397
23889W        W96314  11.270  23.678  10.523
23890W        W96315  18.648  38.313  14.863
23891W        W96316  43.495  40.865   1.742
23892W        W96317  35.105   2.694  12.569
23893W        W96318  33.343   7.203  10.509
23894W        W96319   0.839  34.437   2.642
23895W        W96320  43.520  38.423  14.097
23896W        W96321  13.818  24.170  11.619
23897W        W96322  12.192  37.994  14.781
23898W        W96323  42.220  22.000  11.015
23899W        W96324  22.761  36.456  12.426
23900W        W96325  25.497  18.067  10.569
23901W        W96326   9.992   1.737  13.270
23902W        W96327  21.543  30.504  14.692
23903W        W96328  44.859  44.048  11.656
23904W        W96329  34.860  24.705  12.894
23905W        W96330  37.823  11.862   4.518
23906W        W96331   5.663  38.493   4.655
23907W        W96332   8.219  32.887  12.017
23908W        W96333  18.653  32.809   2.402
23909W        W96334  36.606  23.472   4.047
23910W        W96335  28.656  38.084  14.873
23911W        W96336  24.446  36.738  13.887
23912W        W96337  32.102   2.473   1.261
23913W        W96338  13.831   3.863  12.795
23914W        W96339  17.049  37.889   1.412
23915W        W96340  33.018  16.568   0.983
23916W        W96341   4.235   0.777   1.862
23917W        W96342  13.139   8.708  13.464
23918W        W96343  27.052  39.945   4.925
23919W        W96344  27.540  11.790   0.403
23920W        W96345  29.612  22.333   2.361
23921W        W96346  36.523  21.447   3.436
23922W        W96347  34.887  40.529   0.302
23923W        W96348  13.399  44.465   4.156
23924W        W96349  29.053  11.566   1.444
23925W        W96350   4.283   4.311   1.028
23926W        W96351   8.171  28.276  13.498
23927W        W96352   7.270  39.092   1.266
23928W        W96353   5.274  38.343  12.614
23929W        W96354  10.643  41.972  14.822
23930W        W96355  27.948  41.175  12.351
23931W        W96356  32.576  40.908   4.293
23932W        W96357  18.586  19.825   9.978
23933W        W96358  38.865  14.563  14.419
23934W        W96359  42.775  10.375  10.696
23935W        W96360   7.323   4.196  13.238
23936W        W96361  21.630  34.573  14.604
23937W        W96362   0.814  23.187  13.905
23938W        W96363  22.796  12.700   1.933
23939W        W96364  35.037   7.528   3.549
23940W        W96365  12.663  39.446  11.488
23941W        W96366  31.677  32.082  10.718
23942W        W96367   6.179  19.046   1.426
23943W        W96368  44.712  40.273  10.645
23944W        W96369  28.183  13.395  10.997
23945W        W96370   1.931   5.840   2.302
23946W        W96371  17.108  19.611  10.571
23947W        W96372  35.182  36.622   3.866
23948W        W96373   0.673  27.724  10.728
23949W        W96374  24.959  26.947   3.194
23950W        W96375  41.852  28.917  11.390
23951W        W96376   9.673  21.571  14.592
23952W        W96377  26.511  39.503  12.225
23953W        W96378  39.973  42.587   3.742
23954W        W96379  29.553  41.519   3.841
23955W        W96380  33.054   4.655   2.688
23956W        W96381  33.871  34.012  11.082
23957W        W96382  36.538  28.780   1.975
23958W        W96383  14.656  44.803   2.952
23959W        W96384  43.310   4.421   1.692
23960W        W96385  14.581  14.062  14.332
23961W        W96386  34.094  29.083   2.758
23962W        W96387   0.835  22.510   3.286
23963W        W96388  29.960   3.002   3.007
23964W        W96389   4.637  18.836   0.459
23965W        W96390  22.529  18.480   3.051
23966W        W96391   8.800  38.413  12.022
23967W        W96392   1.860  17.120   1.029
23968W        W96393  27.164  25.521   1.835
23969W        W96394  23.679  26.037  13.181
23970W        W96395  39.871  33.696  11.453
23971W        W96396  11.357  41.010   1.149
23972W        W96397  35.056  34.967  14.498
23973W        W96398  35.728  28.424   2.466
23974W        W96399  38.021   9.635   4.038
23975W        W96400  27.627   1.998  10.740
23976W        W96401   6.174  27.017   2.698
23977W        W96402  24.680  36.346   0.724
23978W        W96403  41.872  20.163  10.501
23979W        W96404  30.436  38.094   3.634
23980W        W96405  13.371  16.704  13.481
23981W        W96406  39.630  26.463   2.023
23982W        W96407  22.997  14.906  14.958
23983W        W96408  29.776  30.986  14.421
23984W        W96409  42.577  27.030   5.096
23985W        W96410   3.286  43.343  12.717
23986W        W96411   7.177  11.641  13.885
23987W        W96412   5.857  13.737  12.879
23988W        W96413   6.990  44.251   1.561
23989W        W96414  43.287  27.511  11.915
23990W        W96415  25.717   8.686  12.463
23991W        W96416  32.974  41.492  13.314
23992W        W96417  20.617  42.552  11.657
23993W        W96418  32.188  11.518  10.252
23994W        W96419   3.483   5.218  14.829
23995W        W96420  22.692  29.180   2.798
23996W        W96421  13.844   8.178   0.432
23997W        W96422  44.316  10.572  12.970
23998W        W96423  21.878  23.723   4.143
23999W        W96424  29.424  35.892   3.082
24000W        W96425  17.815  24.843  13.329
24001W        W96426   8.789  22.946   0.838
24002W        W96427   6.708   1.179  13.785
24003W        W96428   8.150  25.985   1.474
24004W        W96429  37.861   9.044   3.210
24005W        W96430   1.871  21.512  10.428
24006W        W96431  24.617  37.918   1.463
24007W        W96432  26.342  35.458   3.928
24008W        W96433  44.897   8.476   2.718
24009W        W96434  10.725  43.800   3.848
24010W        W96435  18.767  28.746  14.946
24011W        W96436  17.120  38.068   4.127
24012W        W96437  42.421  29.093   1.318
24013W        W96438  14.637   9.009   1.733
24014W        W96439  12.097   0.313   0.385
24015W        W96440   4.984  29.693  14.059
24016W        W96441   4.290  15.829   1.455
24017W        W96442  16.623   8.858  13.506
24018W        W96443  26.850  14.153   1.366
24019W        W96444   5.306   0.398   1.371
24020W        W96445   0.974  20.604   1.767
24021W        W96446  30.873  39.764  11.063
24022W        W96447   0.590   9.606  12.556
24023W        W96448   1.429  17.539  14.901
24024W        W96449  41.112  13.680   2.407
24025W        W96450  18.459  25.110  11.258
24026W        W96451   9.759   7.868  10.233
24027W        W96452   1.424  23.526   3.244
24028W        W96453  38.868  18.231   1.315
24029W        W96454   6.576   8.323   2.770
24030W        W96455   7.915  42.536  12.852
24031W        W96456  28.632  40.488  13.933
24032W        W96457   3.792  44.737   2.275
24033W        W96458  10.427   7.858  14.046
24034W        W96459   0.386  41.188  13.826
24035W        W96460   8.821   8.751   2.043
24036W        W96461   8.218  42.830   4.181
24037W        W96462  13.843  37.049   3.380
24038W        W96463   9.665  35.925   3.758
24039W        W96464  34.087   2.333  14.449
24040W        W96465  41.369  30.936  13.503
24041W        W96466  39.539  25.975  11.896
24042W        W96467  41.729  35.410  10.742
24043W        W96468  11.085  36.098   1.424
24044W        W96469  12.165  10.622  13.875
24045W        W96470  44.472  10.303  12.518
24046W        W96471   9.273  41.394   4.520
24047W        W96472   4.607   0.840  10.392
24048W        W96473  44.778  38.314  14.353
24049W        W96474  35.360  42.377   2.780
24050W        W96475  37.879  15.389   1.295
24051W        W96476  21.388  11.700  14.524
24052W        W96477   2.779  33.265   2.800
24053W        W96478   3.366  32.079  13.360
24054W        W96479  17.734   8.778  11.431
24055W        W96480  34.520  27.704  14.403
24056W        W96481  32.634  22.457   4.811
24057W        W96482  35.428  18.654   1.366
24058W        W96483  34.003  29.029  12.210
24059W        W96484  27.015  42.926   0.883
24060W        W96485  22.756  42.996  12.851
24061W        W96486  29.191  13.424   2.085
24062W        W96487  37.603   9.205  12.852
24063W        W96488   3.689   5.027   2.906
24064W        W96489  21.261  15.156   2.317
24065W        W96490  29.939   8.428  14.323
24066W        W96491  22.045  34.612  11.874
24067W        W96492  15.474  18.093  11.582
24068W        W96493  30.466   9.346  13.027
24069W        W96494  31.176  15.122   0.169
24070W        W96495   8.299  18.193  13.207
24071W        W96496  17.112   0.666   2.234
24072W        W96497  37.840  26.041  14.959
24073W        W96498   6.687  27.973   4.829
24074W        W96499  27.650  26.445  14.847
24075W        W96500  39.423  34.112   0.858
24076W        W96501  42.463  24.423   3.814
24077W        W96502  15.163  22.193  10.340
24078W        W96503  23.952  42.225   2.708
24079W        W96504   8.064  18.583   5.123
24080W        W96505  11.267   4.987   4.647
24081W        W96506  37.108   7.839   2.928
24082W        W96507  32.140  18.280  11.082
24083W        W96508  20.608  29.834  10.787
24084W        W96509   1.251  35.593  13.467
24085W        W96510  43.992   9.699  14.816
24086W        W96511  44.098  13.604   1.316
24087W        W96512  32.806   6.783  11.168
24088W        W96513  33.067  31.728   4.654
24089W        W96514  38.981  40.741   3.025
24090W        W96515  17.170  34.184   1.335
24091W        W96516  17.411  14.597  11.600
24092W        W96517  21.598  39.438  10.623
24093W        W96518  11.946  10.454   9.953
24094W        W96519   6.675  21.146   4.089
24095W        W96520  23.942  14.356   2.899
24096W        W96521  19.441   5.701  13.937
24097W        W96522   2.289  32.713  11.263
24098W        W96523   5.437  38.511   1.439
24099W        W96524  41.762   6.361  12.081
24100W        W96525  34.479  34.118   2.632
24101W        W96526  43.361   5.263   3.150
24102W        W96527  15.218   2.962   2.277
24103W        W96528  15.833  37.950   0.381
24104W        W96529  17.959  18.695   1.810
24105W        W96530  39.853  38.336  14.922
24106W        W96531  23.673  30.937  13.217
24107W        W96532  36.650  25.060   5.123
24108W        W96533  39.966   7.728  13.849
24109W        W96534  40.713  36.041   5.045
24110W        W96535  22.962  40.710   2.199
24111W        W96536  13.930  22.483   5.003
24112W        W96537  25.957  25.688   2.581
24113W        W96538   5.478  26.025  11.122
24114W        W96539  12.406  35.704   3.921
24115W        W96540  39.478  13.307  12.825
24116W        W96541  36.584   9.725   2.755
24117W        W96542  38.766   0.250   4.188
24118W        W96543  29.487  17.503   3.870
24119W        W96544   0.854   4.915   0.881
24120W        W96545  42.006   0.529   0.269
24121W        W96546   3.852  31.211  13.824
24122W        W96547  24.160  32.552   0.052
24123W        W96548   3.863  33.068  14.813
24124W        W96549   3.830  34.181  12.378
24125W        W96550  43.211  15.264  10.674
24126W        W96551   8.950  42.931  10.244
24127W        W96552   0.428  14.298   4.093
24128W        W96553  12.087   2.677   3.877
24129W        W96554  43.057  24.928   0.989
24130W        W96555  19.155  23.085  12.508
24131W        W96556  37.064   9.424  13.038
24132W        W96557  11.540  41.135  12.089
24133W        W96558  43.201   1.467   0.366
24134W        W96559   8.172  22.146   1.643
24135W        W96560  44.571  16.290   2.626
24136W        W96561  41.533  28.192   1.375
24137W        W96562  14.645  11.458  11.959
24138W        W96563  26.611  43.575   0.381
24139W        W96564  18.658  28.512   0.898
24140W        W96565  41.826  39.392  11.507
24141W        W96566   8.869  40.516  13.236
24142W        W96567  15.600  34.881  13.998
24143W        W96568  10.675   0.465  14.705
24144W        W96569  31.207  34.961   1.129
24145W        W96570  39.712  31.459   3.639
24146W        W96571  21.988  12.850   0.430
24147W        W96572  16.310  19.361   0.332
24148W        W96573  24.565  15.019  14.324
24149W        W96574  23.665  32.897   0.804
24150W        W96575   5.197  21.182   3.324
24151W        W96576  20.166  21.282  14.341
24152W        W96577  14.245  33.137  11.881
24153W        W96578  39.554  16.746   1.369
24154W        W96579   9.781  29.517   1.479
24155W        W96580  25.225  11.860  13.953
24156W        W96581  34.798  40.795  10.703
24157W        W96582  16.627  44.995  12.024
24158W        W96583  13.582   9.686   1.358
24159W        W96584  30.140   6.614   0.432
24160W        W96585  10.711  39.570  14.959
24161W        W96586  13.105  25.648  14.478
24162W        W96587  29.654  43.812   2.368
24163W        W96588  13.655  17.826   1.290
24164W        W96589   8.358  10.222   4.228
24165W        W96590  14.044  12.059   2.399
24166W        W96591  41.883  24.274   4.876
24167W        W96592  31.130  14.612   0.231
24168W        W96593  27.207  10.274  12.178
24169W        W96594  29.505  22.689   4.999
24170W        W96595   1.732  29.516  13.970
24171W        W96596  21.746  11.781   2.668
24172W        W96597  22.700  36.105   0.855
24173W        W96598  43.465  17.689  13.706
24174W        W96599   9.523  18.036   4.164
24175W        W96600   2.360   4.248  11.402
24176W        W96601  39.450  35.261  10.688
24177W        W96602  37.996   5.015   2.784
24178W        W96603  15.009  30.378  13.090
24179W        W96604  20.923  29.819   0.263
24180W        W96605  13.663   8.816   1.468
24181W        W96606  14.546  40.159   2.594
24182W        W96607  43.251  23.610   2.690
24183W        W96608  39.338  38.451  11.628
24184W        W96609  38.582  38.466   2.562
24185W        W96610  20.275  38.978  10.258
24186W        W96611  32.542   8.128   3.724
24187W        W96612  16.147  35.393  12.042
24188W        W96613  31.111   0.218  12.391
24189W        W96614  36.364  34.864  13.743
24190W        W96615  42.609   2.361   3.791
24191W        W96616   7.587  13.113  11.612
24192W        W96617   0.462  15.097   3.687
24193W        W96618  37.443  18.866  11.597
24194W        W96619  27.639   0.593   4.195
24195W        W96620  22.099  36.390   3.416
24196W        W96621   6.736   7.378  10.828
24197W        W96622   2.216  29.162   2.385
24198W        W96623  43.129  26.040  12.009
24199W        W96624  21.190  35.854  14.523
24200W        W96625   8.741  20.603   1.058
24201W        W96626  32.705  27.031   2.633
24202W        W96627  15.031   8.124   2.593
24203W        W96628   8.063  10.821  11.070
24204W        W96629   1.942  26.219  10.587
24205W        W96630   2.891  13.762   3.386
24206W        W96631  20.089  25.142   4.151
24207W        W96632  12.551  29.183   2.662
24208W        W96633  27.919  14.815  10.638
24209W        W96634  36.454   3.421   4.139
24210W        W96635  30.678  13.904  11.203
24211W        W96636   2.585  38.607  13.470
24212W        W96637  10.341  39.602   9.900
24213W        W96638  14.582  14.722   4.607
24214W        W96639  17.515   0.397  11.625
24215W        W96640  23.604  33.149  11.283
24216W        W96641  32.440  42.893  13.422
24217W        W96642  17.242  43.800   1.041
24218W        W96643  16.250  37.364   1.115
24219W        W96644  13.367  24.946   2.771
24220W        W96645  40.926   3.165   4.756
24221W        W96646  27.075   0.700  11.120
24222W        W96647  33.029  22.613  12.398
24223W        W96648  35.029  42.431  10.762
24224W        W96649  16.354  20.196  10.686
24225W        W96650   9.664  19.590   2.480
24226W        W96651  12.256   5.366   0.796
24227W        W96652  42.065  20.436  13.391
24228W        W96653  43.079   7.955  12.072
24229W        W96654  33.580  27.044  11.370
24230W        W96655  33.526  25.979   2.650
24231W        W96656  40.758  35.432  11.917
24232W        W96657  43.484  28.846  11.454
24233W        W96658  10.911  32.092  10.738
24234W        W96659  31.721   0.320   4.515
24235W        W96660  30.654  11.729   1.815
24236W        W96661  32.338  17.824   2.632
24237W        W96662   2.463  11.338  11.982
24238W        W96663  30.824  33.107  11.031
24239W        W96664  36.896  11.830   1.850
24240W        W96665   1.262  19.194   0.924
24241W        W96666  15.211  13.564  11.611
24242W        W96667  27.169  29.557  10.698
24243W        W96668  44.277  28.623   4.293
24244W        W96669   6.246  19.662   4.633
24245W        W96670  13.579  38.085   0.971
24246W        W96671  17.077  13.877  12.973
24247W        W96672   5.395  40.495   4.165
24248W        W96673   3.721  32.560   3.814
24249W        W96674  16.078  20.353  11.526
24250W        W96675  15.564  19.737   0.976
24251W        W96676  43.127  43.198  12.534
24252W        W96677  10.287  15.614   0.280
24253W        W96678  35.978   8.784  10.854
24254W        W96679  23.587  38.577  14.544
24255W        W96680   4.829  23.545   0.971
24256W        W96681  30.149  28.558  10.845
24257W        W96682  12.219   3.744   2.752
24258W        W96683   9.644  42.547  11.380
24259W        W96684  16.614  32.003   1.807
24260W        W96685   4.787  38.421   1.180
24261W        W96686  35.001   6.301   4.530
24262W        W96687   6.172   7.709  13.972
24263W        W96688  43.329  18.555  14.267
24264W        W96689   2.435  22.181  12.965
24265W        W96690   6.762  37.833   5.361
24266W        W96691  18.349  26.939   3.414
24267W        W96692  19.706  32.098  13.031
24268W        W96693  42.934  38.981   2.403
24269W        W96694  11.773   2.062  10.760
24270W        W96695  26.229  35.464  14.954
24271W        W96696  27.931  32.129  13.903
24272W        W96697  35.115  19.642  10.702
24273W        W96698   6.695  34.922  11.558
24274W        W96699   4.374   8.624   4.300
24275W        W96700  25.761   8.491   5.032
24276W        W96701  33.297   2.824  10.692
24277W        W96702   4.376  21.203   2.751
24278W        W96703   2.341  19.417  11.659
24279W        W96704   8.384  10.991  10.715
24280W        W96705   0.714  43.938  12.023
24281W        W96706  20.696   6.895   0.295
24282W        W96707  24.644  32.981  13.339
24283W        W96708  30.158  15.343  10.625
24284W        W96709  38.798   7.170   2.198
24285W        W96710  15.698  25.664   2.832
24286W        W96711  40.875  33.727   4.827
24287W        W96712  42.772  31.453  12.017
24288W        W96713  29.727  18.719  12.995
24289W        W96714  43.238  22.974  10.340
24290W        W96715   0.888  17.736   1.433
24291W        W96716  19.096  31.734  10.627
24292W        W96717  20.176  18.285  11.204
24293W        W96718  24.078  15.103   1.893
24294W        W96719  11.635   9.386  12.767
24295W        W96720  16.980  42.321  11.981
24296W        W96721  30.642  22.155  11.627
24297W        W96722  33.390  44.535  10.681
24298W        W96723  30.630   9.775  12.135
24299W        W96724  12.047  39.583  14.338
24300W        W96725  42.270  32.093  11.547
24301W        W96726   3.659  15.206  14.249
24302W        W96727  21.398  34.802  13.620
24303W        W96728  36.094   1.990   4.948
24304W        W96729  35.214  44.990   3.323
24305W        W96730  21.390  44.800  13.292
24306W        W96731  19.946  14.118   0.004
24307W        W96732  26.439  18.786  13.489
24308W        W96733  16.146  12.563   0.631
24309W        W96734  31.155   7.569   2.447
24310W        W96735   3.695   3.739  12.346
24311W        W96736  11.381  16.241   3.298
24312W        W96737  14.500  16.251  11.017
24313W        W96738  27.972  42.035   2.172
24314W        W96739  10.155  32.381   2.488
24315W        W96740   6.398   9.466   1.343
24316W        W96741  27.671  42.748   1.308
24317W        W96742  28.517  20.150  12.983
24318W        W96743  12.668  38.254  10.836
24319W        W96744  38.556  34.972   1.390
24320W        W96745  37.041  33.619   4.203
24321W        W96746  31.903  37.540   3.576
24322W        W96747  37.849   9.094  14.144
24323W        W96748  13.549  11.341   4.655
24324W        W96749  13.849   6.832   3.812
24325W        W96750   6.224  38.933  12.786
24326W        W96751  42.318  25.129  12.564
24327W        W96752  37.048  15.166   4.207
24328W        W96753   3.739  21.171  13.464
24329W        W96754  29.234  11.936  10.618
24330W        W96755  39.953  16.760  11.750
24331W        W96756  35.545  35.094  12.082
24332W        W96757  44.968  37.063   3.609
24333W        W96758  25.587  16.515   4.339
24334W        W96759   3.074  11.624  12.352
24335W        W96760  23.999  22.438  12.234
24336W        W96761  18.267   5.042   4.028
24337W        W96762  42.406   4.028   3.848
24338W        W96763  44.902   8.424   3.602
24339W        W96764  43.268  18.222   4.729
24340W        W96765   1.869  11.406   3.804
24341W        W96766  24.203   4.810   2.405
24342W        W96767   0.489  32.872   0.288
24343W        W96768  18.077  13.852   4.150
24344W        W96769  14.305  38.321  14.849
24345W        W96770  37.329  33.512  11.007
24346W        W96771  13.056  26.194   4.900
24347W        W96772   6.292  33.347   3.579
24348W        W96773  40.544   2.757  11.652
24349W        W96774  30.725  19.294   5.159
24350W        W96775  17.146   5.711   4.496
24351W        W96776  39.575  42.645  12.468
24352W        W96777  29.755   5.981   2.766
24353W        W96778  20.090   4.708  14.308
24354W        W96779  23.426  17.606   4.840
24355W        W96780  40.399  23.613  13.817
24356W        W96781   7.723   0.925   1.040
24357W        W96782  21.573   2.239  11.109
24358W        W96783  21.137  18.760  11.143
24359W        W96784   0.440  26.931  12.331
24360W        W96785  28.073  26.158   2.450
24361W        W96786  15.377   1.296  12.867
24362W        W96787  36.332   6.727   1.130
24363W        W96788  43.283  19.098   3.680
24364W        W96789  29.520  35.811  11.745
24365W        W96790   4.673  34.002  12.424
24366W        W96791  36.565  40.486   3.833
24367W        W96792  25.148  27.912  10.748
24368W        W96793  44.201   9.400  13.888
24369W        W96794  34.973  11.648   0.073
24370W        W96795  17.539  20.368   4.585
24371W        W96796  16.730  32.937   1.334
24372W        W96797   8.454  33.571   2.744
24373W        W96798  11.219  18.254   3.652
24374W        W96799  12.354  38.920   0.894
24375W        W96800  17.621  33.118   3.583
24376W        W96801  20.200  11.752  12.545
24377W        W96802  18.819  36.951   3.821
24378W        W96803  41.542   3.649   2.325
24379W        W96804  26.064   6.678   4.677
24380W        W96805  42.003  25.580   4.101
24381W        W96806  35.426   2.242  11.178
24382W        W96807   6.285  29.083  11.997
24383W        W96808  13.580   3.967   2.118
24384W        W96809  22.083  30.434   1.854
24385W        W96810  43.620  15.612   3.322
24386W        W96811  22.209  27.218   2.058
24387W        W96812  43.103   9.736  11.112
24388W        W96813   9.511  15.112   0.248
24389W        W96814  20.129  18.810   3.744
24390W        W96815  43.403  12.736   4.545
24391W        W96816  19.330  42.891   4.607
24392W        W96817  40.807  28.910  13.070
24393W        W96818  31.170  31.488  11.449
24394W        W96819  27.209  17.354  12.530
24395W        W96820  25.960   0.939   2.667
24396W        W96821   9.822  26.458  11.366
24397W        W96822  33.477   4.319   0.938
24398W        W96823  15.516  24.794  12.980
24399W        W96824  39.259   8.707  11.837
24400W        W96825  11.637  11.295  14.634
24401W        W96826  28.849  31.397   2.808
24402W        W96827  17.775  36.016  11.532
24403W        W96828  17.105  41.808   2.350
24404W        W96829  12.749  40.653  11.071
24405W        W96830   4.668   7.664   3.792
24406W        W96831  12.847  39.344   4.594
24407W        W96832   3.708  41.805  12.133
24408W        W96833  15.136  28.990   0.482
24409W        W96834  14.789  21.706  13.413
24410W        W96835  10.358  43.348  11.988
24411W        W96836  34.777  38.277   0.381
24412W        W96837  23.981   9.830  13.732
24413W        W96838  29.609  25.502   0.408
24414W        W96839  12.322  37.497  11.584
24415W        W96840  19.721  24.744   2.365
24416W        W96841  16.744  24.308  11.909
24417W        W96842   5.928  15.562   1.210
24418W        W96843  22.497  19.166  14.344
24419W        W96844   3.749  40.670  10.824
24420W        W96845  43.696  10.613   3.673
24421W        W96846  31.955  14.615   0.793
24422W        W96847  39.983  12.762  14.364
24423W        W96848  12.659  13.905  11.954
24424W        W96849  24.489   8.155  13.796
24425W        W96850  27.522   1.521   0.717
24426W        W96851  16.202  20.405   1.665
24427W        W96852  31.385   5.782  11.584
24428W        W96853  27.160  23.994  14.011
24429W        W96854   3.038  16.333  13.112
24430W        W96855  28.986  25.678  13.535
24431W        W96856  18.269  35.631   1.014
24432W        W96857   6.987  14.730   2.218
24433W        W96858  33.445   7.073   3.718
24434W        W96859  14.560  28.014   1.477
24435W        W96860  31.180   5.449   0.326
24436W        W96861  40.685   4.865   0.405
24437W        W96862  28.053  25.586   0.028
24438W        W96863  28.622  24.974   3.246
24439W        W96864  21.139   1.908   0.485
24440W        W96865   5.035  28.491  13.185
24441W        W96866  23.907  43.351  14.166
24442W        W96867  39.589   9.200  13.615
24443W        W96868  17.800  29.022  12.193
24444W        W96869  11.750  44.036  14.988
24445W        W96870  25.531   5.630  14.309
24446W        W96871   5.934   6.822  12.401
24447W        W96872  40.103  16.023   0.548
24448W        W96873  36.324  21.378  10.775
24449W        W96874  32.306  37.480  11.646
24450W        W96875  44.628  28.413  12.994
24451W        W96876  34.509  33.127   2.815
24452W        W96877  29.463  18.870  14.885
24453W        W96878  17.011  16.066   0.033
24454W        W96879   8.317  27.581   0.710
24455W        W96880  36.917  28.472   2.169
24456W        W96881  24.359  11.625   0.814
24457W        W96882  34.667  35.984  14.520
24458W        W96883   9.991  34.464  11.029
24459W        W96884  37.632  21.680   1.791
24460W        W96885   0.928  18.187   2.725
24461W        W96886  10.141  11.692  10.767
24462W        W96887  13.888  35.002  14.595
24463W        W96888  29.439  34.162  12.736
24464W        W96889  42.793   4.365   3.699
24465W        W96890  29.926  15.873   0.485
24466W        W96891  37.187   4.254   3.371
24467W        W96892   6.813  19.136   2.673
24468W        W96893  41.414  19.699   0.463
24469W        W96894  31.361  29.530  13.027
24470W        W96895   5.343  12.607   2.833
24471W        W96896  23.586  39.084   0.450
24472W        W96897   8.871  26.220  13.798
24473W        W96898  33.657  44.408   0.065
24474W        W96899  36.077   5.859  13.115
24475W        W96900  43.056   8.430  11.220
24476W        W96901   0.709  35.538  13.162
24477W        W96902   2.083  12.107   0.325
24478W        W96903  35.442  14.101   0.009
24479W        W96904  16.902   1.486  12.972
24480W        W96905  14.066  28.660  11.539
24481W        W96906  28.351  12.308  13.532
24482W        W96907  33.024  15.804   0.374
24483W        W96908   6.835  35.843  12.380
24484W        W96909   5.411  32.092  13.506
24485W        W96910  37.416  42.370   0.177
24486W        W96911  26.706  25.075  12.415
24487W        W96912   6.920  30.037   4.124
24488W        W96913   1.826  37.800  13.167
24489W        W96914  22.215  29.135  13.738
24490W        W96915  20.233  28.401  14.153
24491W        W96916  42.729  18.117   2.567
24492W        W96917   5.555  12.520   4.179
24493W        W96918   1.257   8.855   4.601
24494W        W96919  43.932  24.820   1.982
24495W        W96920  26.269  23.049  14.919
24496W        W96921  39.299  39.927  13.247
24497W        W96922  19.883  40.024  14.886
24498W        W96923   7.930  18.232  11.878
24499W        W96924  17.726  16.203  10.408
24500W        W96925  43.106  27.423   2.002
24501W        W96926  43.979  31.072  11.586
24502W        W96927  25.094   6.997  14.293
24503W        W96928  44.899  21.703   0.832
24504W        W96929  43.869   0.990  13.405
24505W        W96930  40.604  10.254  13.448
24506W        W96931   2.882  21.194  11.569
24507W        W96932  37.371   9.599   4.677
24508W        W96933  22.972   4.188  11.825
24509W        W96934   8.676  21.526   2.581
24510W        W96935   1.262  33.425   3.223
24511W        W96936  21.719   5.004   4.517
24512W        W96937   1.512  23.617  11.511
24513W        W96938  27.591   6.030  10.268
24514W        W96939  41.492   6.265   5.083
24515W        W96940  41.526  39.308  11.123
24516W        W96941  20.964  32.107   4.282
24517W        W96942  27.987  38.301   5.011
24518W        W96943   8.718  40.752   1.917
24519W        W96944  10.607  26.194   3.904
24520W        W96945  44.206  44.771   2.406
24521W        W96946  24.019  17.596  10.642
24522W        W96947  25.114  27.929   4.176
24523W        W96948  41.920   6.643   4.346
24524W        W96949  32.864  36.733  13.487
24525W        W96950  18.119  19.191  13.969
24526W        W96951   6.356  23.236  11.612
24527W        W96952  27.171   9.919   2.314
24528W        W96953   3.233  27.442  14.714
24529W        W96954  27.651  24.939  14.004
24530W        W96955  30.663   7.745   2.346
24531W        W96956  43.926  30.463  13.911
24532W        W96957  43.005  20.706  10.638
24533W        W96958  11.855  11.773  11.901
24534W        W96959  21.120  11.504  12.029
24535W        W96960  11.250  22.589   0.944
24536W        W96961   1.975  42.898  12.277
24537W        W96962  25.571  17.713  13.055
24538W        W96963  29.112  40.002   4.617
24539W        W96964  43.491  33.184  13.011
24540W        W96965  17.603   8.889   1.866
24541W        W96966  30.563  27.232   2.157
24542W        W96967  40.742  42.376   1.858
24543W        W96968  14.888  14.215  12.590
24544W        W96969  24.122  42.735  13.311
24545W        W96970  16.244  37.362  11.576
24546W        W96971  41.368  31.308   1.647
24547W        W96972  13.784  18.137   0.189
24548W        W96973  13.156  19.827  13.802
24549W        W96974  29.468  19.156  12.843
24550W        W96975  12.313  10.704  14.824
24551W        W96976  11.217   2.275  13.926
24552W        W96977  35.606  27.038   1.298
24553W        W96978   3.171  22.756   0.883
24554W        W96979   7.263  11.343  12.047
24555W        W96980  18.248  44.414   3.779
24556W        W96981  27.277  17.194  10.756
24557W        W96982   2.976  34.423  14.469
24558W        W96983  13.933  42.071  11.072
24559W        W96984  26.185   6.742  11.182
24560W        W96985   4.214  24.206   0.522
24561W        W96986  43.339  44.134  12.580
24562W        W96987  38.597  26.711  14.761
24563W        W96988  20.721   7.699   1.325
24564W        W96989   5.025  27.556  11.192
24565W        W96990  37.450   8.883  12.468
24566W        W96991  30.665  15.381   3.648
24567W        W96992  24.651   7.283  10.681
24568W        W96993  29.045  24.850  11.713
24569W        W96994  31.818  12.638  14.799
24570W        W96995   0.488  40.729  14.098
24571W        W96996  15.169  34.058   3.024
24572W        W96997  24.995  34.952   3.669
24573W        W96998  32.377   9.756  12.518
24574W        W96999  11.164   5.537  13.881
24575W        W97000  31.675   3.682   1.429
24576W        W97001   5.127  41.516  14.446
24577W        W97002  16.338   5.558   4.883
24578W        W97003  17.792  43.482  13.971
24579W        W97004   3.812  42.252   1.150
24580W        W97005  17.245  20.073   0.877
24581W        W97006  23.502  19.682   3.713
24582W        W97007  20.218  26.725  14.999
24583W        W97008   9.336  27.690   3.585
24584W        W97009  37.635  38.411  13.850
24585W        W97010  11.400  21.688   1.284
24586W        W97011  34.145  44.347   2.690
24587W        W97012  32.918  19.330   4.322
24588W        W97013  37.471  32.653  12.112
24589W        W97014  14.202  44.372   2.385
24590W        W97015  15.250  36.004  14.392
24591W        W97016  30.061   8.788   3.394
24592W        W97017  28.934  26.447  14.927
24593W        W97018  18.447  42.611  12.019
24594W        W97019  43.797  16.622   3.160
24595W        W97020   4.942   8.194  12.151
24596W        W97021  43.726  36.085  14.288
24597W        W97022   9.676  28.011  13.421
24598W        W97023  19.619  16.727  14.950
24599W        W97024  30.032   2.358  12.414
24600W        W97025   6.784  37.359   9.800
24601W        W97026  42.933   7.390   3.993
24602W        W97027  38.996  31.446  13.640
24603W        W97028   7.122   0.463   1.709
24604W        W97029  43.935  42.840   3.622
24605W        W97030  24.163   6.249   4.546
24606W        W97031  31.479  23.955  13.759
24607W        W97032  30.029  17.218  13.187
24608W        W97033  15.451  25.471   4.533
24609W        W97034   3.317   9.358   1.870
24610W        W97035  18.683   5.303   0.347
24611W        W97036  12.037   5.129   2.673
24612W        W97037  23.981  29.828   5.003
24613W        W97038   9.193  12.641   3.397
24614W        W97039   4.728  26.769   2.374
24615W        W97040   6.741  29.710   0.155
24616W        W97041  21.220  10.861  13.982
24617W        W97042  28.060  20.841  12.987
24618W        W97043  36.607  34.626  13.340
24619W        W97044  13.218   3.845   4.927
24620W        W97045  32.215  44.483  11.503
24621W        W97046  42.490  36.547  14.549
24622W        W97047  15.743   8.770   0.838
24623W        W97048  22.267  44.073   0.922
24624W        W97049  15.400  43.211   4.403
24625W        W97050   3.890   9.256  14.298
24626W        W97051  37.224  29.062   3.245
24627W        W97052  33.358  25.018   3.715
24628W        W97053   6.374  18.279  10.738
24629W        W97054  44.624  15.049  11.958
24630W        W97055  24.163  30.860  12.393
24631W        W97056   9.712  17.304  14.423
24632W        W97057  27.435  19.061   2.302
24633W        W97058  13.134  24.958  12.881
24634W        W97059  13.117  30.909   3.173
24635W        W97060  31.136  10.842  12.459
24636W        W97061  32.149  37.282  10.951
24637W        W97062  34.799   1.747  12.757
24638W        W97063  20.051  31.162   2.360
24639W        W97064  25.972  39.569  11.076
24640W        W97065  41.822  42.325   3.703
24641W        W97066  43.935   5.468   0.415
24642W        W97067  21.116  13.046  11.116
24643W        W97068  20.651  43.591   2.712
24644W        W97069  39.014  38.984   5.157
24645W        W97070   1.238  10.659   2.785
24646W        W97071   8.748   2.230   0.298
24647W        W97072   7.947   3.504  12.442
24648W        W97073  39.921   6.458   4.148
24649W        W97074  23.614   9.239   0.981
24650W        W97075  15.116  22.616   0.904
24651W        W97076  31.015  19.433  13.896
24652W        W97077  34.905   4.320   0.190
24653W        W97078   5.854  37.627   0.391
24654W        W97079  38.641  26.544  12.405
24655W        W97080  21.496  31.669   2.911
24656W        W97081  42.204  24.683  13.652
24657W        W97082  37.590  42.260  14.157
24658W        W97083  40.967  40.292  12.901
24659W        W97084  16.735  26.668  11.157
24660W        W97085  15.238  32.288  12.390
24661W        W97086  20.062  40.896   0.662
24662W        W97087   2.602   4.768   3.236
24663W        W97088  29.688  30.599  12.032
24664W        W97089   3.365  27.228   2.581
24665W        W97090  10.537  10.790  12.005
24666W        W97091  16.249  19.162  13.543
24667W        W97092   9.359  36.316   2.863
24668W        W97093  22.448  12.126   0.903
24669W        W97094  12.712   2.569   5.019
24670W        W97095  10.384  42.492  11.018
24671W        W97096   9.848  17.759  14.942
24672W        W97097  14.606  30.952   1.648
24673W        W97098  32.165   5.830   3.007
24674W        W97099  26.467   5.466  12.857
24675W        W97100  38.174  22.063   2.840
24676W        W97101  43.523   1.737   1.808
24677W        W97102  35.667  27.192  12.076
24678W        W97103   0.332  44.043  11.474
24679W        W97104  14.363  38.243  13.987
24680W        W97105  23.593  43.761  12.141
24681W        W97106  19.948  31.188  10.769
24682W        W97107  43.486  11.753   1.292
24683W        W97108   3.168   2.230   2.753
24684W        W97109  21.068  37.524  11.196
24685W        W97110  18.228  29.223   1.343
24686W        W97111   9.672  38.171  11.617
24687W        W97112   0.467   3.562  13.968
24688W        W97113  44.213  29.416   1.336
24689W        W97114  26.721  42.407  12.103
24690W        W97115  18.349  26.986  13.885
24691W        W97116  44.271  23.421   4.483
24692W        W97117  19.725   6.192   4.477
24693W        W97118  37.388   1.183  11.928
24694W        W97119  19.746  12.762  10.984
24695W        W97120  30.516   5.618   2.810
24696W        W97121  28.549   2.908  13.995
24697W        W97122  15.033  23.513   2.297
24698W        W97123  39.954  42.944   4.787
24699W        W97124  11.556  29.958  13.708
24700W        W97125  10.576  21.592  11.642
24701W        W97126  26.931   3.126   5.113
24702W        W97127  29.673  16.302   4.828
24703W        W97128  43.373  11.715  14.382
24704W        W97129  23.057  33.971   0.632
24705W        W97130  26.103  10.709  13.594
24706W        W97131  26.076  31.094  14.545
24707W        W97132  33.837  16.761  14.253
24708W        W97133  29.159  19.673   3.806
24709W        W97134   2.209  21.204   3.078
24710W        W97135  17.703  17.279  14.868
24711W        W97136   5.510  31.452   1.326
24712W        W97137  20.253  43.264   0.347
24713W        W97138   8.740  23.309  12.190
24714W        W97139  13.686   8.657   0.476
24715W        W97140  34.737  32.006   2.700
24716W        W97141  41.856  11.439   3.569
24717W        W97142  32.323  27.089  14.489
24718W        W97143  25.247  43.019   0.992
24719W        W97144   3.982  26.373  10.766
24720W        W97145  34.495  41.393   0.167
24721W        W97146  43.297  35.602  11.855
24722W        W97147   3.670  17.312   1.443
24723W        W97148   9.742  20.219  12.656
24724W        W97149  25.464  14.607  10.785
24725W        W97150  39.498  24.918   1.899
24726W        W97151  23.895  13.766  14.519
24727W        W97152   9.132  42.437  11.355
24728W        W97153   7.954  36.626  12.447
24729W        W97154  22.718  26.122  12.185
24730W        W97155   7.960  24.028   2.414
24731W        W97156  44.283   3.680  12.959
24732W        W97157  24.877  33.384   3.427
24733W        W97158  21.255  11.389   4.194
24734W        W97159  19.190  16.761  13.547
24735W        W97160  31.226  18.064  14.081
24736W        W97161   9.892   6.248   4.617
24737W        W97162  44.364   3.189  13.039
24738W        W97163  29.509   7.682   2.991
24739W        W97164  18.347  43.922   4.666
24740W        W97165  27.890  42.438  13.123
24741W        W97166   1.983   2.302   2.010
24742W        W97167  13.778  21.139  14.963
24743W        W97168  25.047  24.492  11.719
24744W        W97169  32.987   8.363   3.414
24745W        W97170  24.483  39.833  11.925
24746W        W97171   5.216  39.971   2.068
24747W        W97172  23.244  33.172  13.333
24748W        W97173   3.232   1.834  11.198
24749W        W97174   6.474   0.100   0.877
24750W        W97175  20.840   4.831  14.736
24751W        W97176  15.606  31.828   0.947
24752W        W97177  25.098  31.085   3.910
24753W        W97178  26.113  29.173   0.898
24754W        W97179  42.962  36.660   2.232
24755W        W97180  29.094  18.664   2.846
24756W        W97181  44.856  13.179   2.428
24757W        W97182  42.357  27.575   1.503
24758W        W97183  27.668  32.241  11.548
24759W        W97184  32.245  35.434  10.534
24760W        W97185  33.539  16.936   0.343
24761W        W97186  30.687  35.493   0.854
24762W        W97187  31.083  27.697  11.117
24763W        W97188  15.762   1.879  10.131
24764W        W97189   3.215  19.352  12.764
24765W        W97190  13.215  22.571  12.869
24766W        W97191  12.123   1.658  10.894
24767W        W97192  25.057   5.824  11.144
24768W        W97193  13.377  21.064  11.493
24769W        W97194   0.745  34.112  14.613
24770W        W97195  23.832  14.012  12.974
24771W        W97196  17.387  37.521  13.203
24772W        W97197   9.546  38.081  14.854
24773W        W97198  14.906  34.111  13.005
24774W        W97199  36.028  40.813   3.220
24775W        W97200  22.761  14.608   3.145
24776W        W97201  33.888  23.941   3.251
24777W        W97202  36.642   1.857  13.825
24778W        W97203  33.624  18.880   4.980
24779W        W97204  44.857  29.083   1.889
24780W        W97205   4.487  25.609  13.215
24781W        W97206  44.499  33.287   2.265
24782W        W97207  14.756   1.534  11.143
24783W        W97208  13.281  30.818  11.169
24784W        W97209   0.773   1.717   0.732
24785W        W97210  23.144  20.636   3.254
24786W        W97211  31.366  21.273  11.617
24787W        W97212  24.102  39.061   4.161
24788W        W97213  38.202  38.286   0.691
24789W        W97214  30.946  16.051   2.239
24790W        W97215   0.412  27.437   2.925
24791W        W97216   0.836  34.113  12.979
24792W        W97217  31.447  11.213   2.695
24793W        W97218  19.227  22.781  10.781
24794W        W97219  14.355  32.419   2.896
24795W        W97220  26.010  17.028  12.913
24796W        W97221  25.846  26.164   1.880
24797W        W97222  24.734  32.873   3.783
24798W        W97223  27.184   7.939  11.094
24799W        W97224  41.410  33.569   4.145
24800W        W97225  15.337  27.497   4.855
24801W        W97226  25.164   7.317  12.844
24802W        W97227  32.071  36.320  12.731
24803W        W97228  30.006  29.419   4.200
24804W        W97229  39.345   9.394   3.698
24805W        W97230  21.958   4.065  11.079
24806W        W97231  44.520  36.549   1.932
24807W        W97232  17.149  31.183  14.306
24808W        W97233  29.688  34.521  12.998
24809W        W97234  35.192  40.869  12.540
24810W        W97235  20.241  32.523   2.719
24811W        W97236  13.133  43.763  14.026
24812W        W97237  11.752  15.746   4.623
24813W        W97238  30.749  18.544   0.295
24814W        W97239  15.120  41.331  14.460
24815W        W97240  41.891  14.847   1.275
24816W        W97241   1.856  36.843   2.006
24817W        W97242   4.727  38.405  14.822
24818W        W97243  28.689   7.185  10.653
24819W        W97244  21.253  28.489  13.013
24820W        W97245   2.188  12.827   3.752
24821W        W97246   2.310  33.169   0.618
24822W        W97247  26.154   1.814   4.887
24823W        W97248  11.333  42.998   0.683
24824W        W97249   5.924  42.806  11.164
24825W        W97250  24.616  31.375   4.794
24826W        W97251  31.908  40.014   3.685
24827W        W97252  35.977  32.320  14.265
24828W        W97253  40.254  11.144   2.236
24829W        W97254  22.006   3.245  12.812
24830W        W97255  17.730   5.939  14.523
24831W        W97256  33.468  25.259   3.257
24832W        W97257  25.141  41.900  11.947
24833W        W97258   3.799  15.290  11.825
24834W        W97259  35.152  37.625   2.242
24835W        W97260  13.260  36.628   2.303
24836W        W97261  37.584  26.878   3.607
24837W        W97262  17.200  14.570   3.723
24838W        W97263   7.419  28.743  11.521
24839W        W97264  42.709  11.001  12.960
24840W        W97265  28.426  42.582  10.428
24841W        W97266  39.976  36.601   1.212
24842W        W97267  11.864  17.340  11.017
24843W        W97268  23.127  38.034  11.048
24844W        W97269  11.432  10.120  14.601
24845W        W97270  13.414  25.239   4.262
24846W        W97271  24.705  12.405  12.850
24847W        W97272  39.278  18.031  13.938
24848W        W97273  20.322  22.620   2.869
24849W        W97274   1.049  15.568   3.128
24850W        W97275   8.628  14.158   4.591
24851W        W97276  13.151  42.810   3.522
24852W        W97277  15.388  28.614   2.794
24853W        W97278  21.602  44.198  14.883
24854W        W97279  38.597  18.984   4.529
24855W        W97280  41.866  40.247  12.469
24856W        W97281   4.715   6.514  10.051
24857W        W97282  25.614  32.961  13.584
24858W        W97283   6.659   7.634  13.881
24859W        W97284  18.111  21.025   1.059
24860W        W97285  43.934   3.813  14.504
24861W        W97286   4.300  21.008   0.954
24862W        W97287   4.782  14.349  11.545
24863W        W97288  30.906  32.223  11.641
24864W        W97289   8.237  10.180   3.713
24865W        W97290   7.848  30.039   1.963
24866W        W97291  13.163  44.689   2.758
24867W        W97292  28.132  22.127   4.599
24868W        W97293  37.073   8.387   4.674
24869W        W97294  37.045  15.708   3.664
24870W        W97295  19.123  36.634   1.367
24871W        W97296  23.560  39.320  14.971
24872W        W97297  26.990  29.723  14.851
24873W        W97298  21.886  23.124  11.180
24874W        W97299  14.601  37.305  12.989
24875W        W97300  33.103   4.371   3.194
24876W        W97301  42.443   4.289   4.297
24877W        W97302   3.614  25.367   0.751
24878W        W97303  32.027   1.755  12.889
24879W        W97304  43.387  28.335   3.713
24880W        W97305  29.951  17.901  11.548
24881W        W97306  11.114  36.948   2.770
24882W        W97307  27.863  43.130   4.331
24883W        W97308  26.614   7.647  11.904
24884W        W97309   7.140  28.459  11.919
24885W        W97310  16.659   0.458   2.840
24886W        W97311  19.522  30.538   3.043
24887W        W97312  30.948  30.916   2.245
24888W        W97313  33.445  32.113   4.606
24889W        W97314  39.383  32.538   4.080
24890W        W97315   0.722   6.866  12.039
24891W        W97316  34.156  24.569  11.192
24892W        W97317  23.103  15.300  12.115
24893W        W97318  23.297  14.058   4.220
24894W        W97319  13.229  34.334  14.029
24895W        W97320  37.342   9.205   1.843
24896W        W97321  42.726  16.093   2.236
24897W        W97322   9.063  39.075   1.423
24898W        W97323  13.723  27.494  11.103
24899W        W97324  30.098  43.745   0.721
24900W        W97325  17.024  18.825   1.594
24901W        W97326  16.585  11.414   1.353
24902W        W97327   5.697   7.104  14.209
24903W        W97328  15.310  40.984   4.858
24904W        W97329   7.810  42.150  11.155
24905W        W97330  13.236  25.236  11.485
24906W        W97331   8.627  19.828  13.989
24907W        W97332   9.711  15.106   1.955
24908W        W97333   3.291   5.666  14.500
24909W        W97334   8.607  33.470  13.883
24910W        W97335  24.483  43.486   2.519
24911W        W97336  43.439   2.348  14.529
24912W        W97337   5.900   4.130  14.054
24913W        W97338   7.377  38.581   1.280
24914W        W97339  16.688   5.671  13.571
24915W        W97340  16.773  27.296   1.734
24916W        W97341  36.575  19.713   3.605
24917W        W97342   0.960  40.330   0.758
24918W        W97343   0.254  38.568  11.520
24919W        W97344  43.994  39.479  11.531
24920W        W97345   0.896   8.675  11.605
24921W        W97346   7.729   0.509  12.035
24922W        W97347  20.815  16.604   2.383
24923W        W97348  28.709  36.116  12.111
24924W        W97349  12.561  27.668  13.412
24925W        W97350  25.247  43.358   3.889
24926W        W97351  18.004  22.310  10.997
24927W        W97352  22.265  37.789  14.739
24928W        W97353  38.329   2.659   0.798
24929W        W97354  36.940  37.846  12.144
24930W        W97355   5.391  41.083   2.656
24931W        W97356  38.304  37.262  11.155
24932W        W97357  21.024  10.232   2.364
24933W        W97358  12.422  40.370  11.944
24934W        W97359   1.563   2.004  14.390
24935W        W97360  25.174  16.825   3.744
24936W        W97361  25.262  13.768   0.848
24937W        W97362   1.265  36.307   1.308
24938W        W97363  44.574  25.734  12.146
24939W        W97364   6.089  34.060   2.806
24940W        W97365  10.654  16.836   1.374
24941W        W97366  12.238  24.758  12.650
24942W        W97367  22.291   4.822  12.085
24943W        W97368   9.956  11.555  12.997
24944W        W97369  11.501   3.837  10.458
24945W        W97370  41.999  17.533   2.638
24946W        W97371  36.937  16.406  10.811
24947W        W97372   5.902  28.661  13.400
24948W        W97373  33.262  38.122  14.489
24949W        W97374  30.574  30.503   3.907
24950W        W97375  25.269  37.175  12.929
24951W        W97376  44.329   0.488   3.728
24952W        W97377   7.423  15.456   3.768
24953W        W97378  32.492  16.143   4.137
24954W        W97379  37.107   1.259   4.255
24955W        W97380  17.010  26.114  14.327
24956W        W97381  10.783  38.179   1.345
24957W        W97382  37.510  36.924  13.283
24958W        W97383  37.498  35.405   1.444
24959W        W97384  34.855  23.630   5.000
24960W        W97385   9.701  36.878  10.327
24961W        W97386   3.492   3.537   0.789
24962W        W97387  37.593  44.793  14.796
24963W        W97388  15.834  40.022   1.828
24964W        W97389  34.807  14.002  11.937
24965W        W97390   9.430  22.854   3.733
24966W        W97391  36.443   8.916  14.819
24967W        W97392   7.282  10.804  10.940
24968W        W97393  35.090  22.346  12.032
24969W        W97394  32.344  36.139   1.223
24970W        W97395  42.647  12.131  14.902
24971W        W97396  38.758   3.837  14.515
24972W        W97397  34.860  25.155  14.977
24973W        W97398   0.341   9.085  10.940
24974W        W97399  27.068   4.804  11.691
24975W        W97400  19.320   6.256  14.555
24976W        W97401   0.776  43.244  12.911
24977W        W97402  39.942  13.658  13.604
24978W        W97403  18.996  41.412   5.131
24979W        W97404  23.543   5.006  12.914
24980W        W97405  33.391  16.245   3.388
24981W        W97406   7.092  39.970  13.617
24982W        W97407   6.226  11.362   3.802
24983W        W97408  25.142  28.996   2.287
24984W        W97409  34.940  33.402   2.810
24985W        W97410  44.002   9.924   4.187
24986W        W97411  42.475  17.371  12.487
24987W        W97412  15.246   3.957  12.068
24988W        W97413   8.641  40.617  11.842
24989W        W97414  43.341  29.241   2.409
24990W        W97415  40.515   7.484   3.660
24991W        W97416  20.317   4.006   3.202
24992W        W97417  10.246   3.888   4.950
24993W        W97418  28.485  44.223   1.251
24994W        W97419  14.254  20.799  12.720
24995W        W97420  33.236  38.014  10.427
24996W        W97421   4.146  37.015   0.863
24997W        W97422   3.258  23.073  14.618
24998W        W97423  36.499  38.209   0.996
24999W        W97424  27.118   6.162  13.843
25000W        W97425  31.504  42.552  14.253
25001W        W97426   2.256   6.406  13.401
25002W        W97427  20.491  23.732   2.224
25003W        W97428  11.132  24.564   0.441
25004W        W97429  35.550  20.892   5.121
25005W        W97430  30.982   1.284  12.876
25006W        W97431  41.533  40.399   3.263
25007W        W97432   5.145  43.353  11.242
25008W        W97433  42.306  35.109  12.063
25009W        W97434  39.921   9.618   2.361
25010W        W97435  26.212  33.915  10.540
25011W        W97436  40.651   9.820  14.768
25012W        W97437  44.023  33.119   0.841
25013W        W97438  16.356  21.516   2.262
25014W        W97439  26.013  16.534   0.715
25015W        W97440  23.177  26.315  10.473
25016W        W97441  15.610   8.423   4.920
25017W        W97442   5.891  31.291  12.486
25018W        W97443  11.578  18.269   2.162
25019W        W97444   8.837  19.367   3.577
25020W        W97445   1.243  16.683  10.740
25021W        W97446   5.758  36.392  11.008
25022W        W97447  16.458  30.904   1.357
25023W        W97448  34.379  29.674   2.151
25024W        W97449  40.309  20.014  13.868
25025W        W97450  23.445  40.093   0.243
25026W        W97451  38.094  16.722  12.056
25027W        W97452  17.128  15.731  14.213
25028W        W97453  28.784  11.668  10.586
25029W        W97454   9.024  18.679  14.793
25030W        W97455  21.837  23.843  12.509
25031W        W97456  14.620   9.351  11.485
25032W        W97457  21.487  18.683  14.996
25033W        W97458  43.459  37.858   2.345
25034W        W97459  26.002  39.745   1.728
25035W        W97460  34.952  42.866   3.175
25036W        W97461   4.284   3.431   0.052
25037W        W97462  23.974  24.824  12.067
25038W        W97463  18.515  37.618  11.914
25039W        W97464  29.107   4.777  10.660
25040W        W97465  31.508  17.492  12.381
25041W        W97466  37.884  30.525   4.869
25042W        W97467   1.771  32.309   4.607
25043W        W97468  34.155  40.592   2.021
25044W        W97469  11.844  15.090  11.600
25045W        W97470  39.270  11.171  10.448
25046W        W97471   0.903  31.609  10.667
25047W        W97472   6.130  22.774  10.789
25048W        W97473  25.354  29.897   1.280
25049W        W97474   6.295  39.305   3.636
25050W        W97475  34.140   1.479   1.880
25051W        W97476  13.915  14.106   3.343
25052W        W97477   1.494  22.188   1.406
25053W        W97478  27.936  41.814  10.698
25054W        W97479  24.842  38.443  11.046
25055W        W97480  31.138   7.015   0.281
25056W        W97481  34.969  34.813  12.922
25057W        W97482  40.854  22.734   3.143
25058W        W97483  30.185  33.361  12.611
25059W        W97484  41.564   2.883   0.430
25060W        W97485  40.825  31.630  11.087
25061W        W97486  19.112  30.041  10.282
25062W        W97487   4.390  39.269  12.630
25063W        W97488  28.086  33.617   0.557
25064W        W97489  19.153  35.918   0.825
25065W        W97490  10.644  35.817  12.457
25066W        W97491  15.867   9.329  14.842
25067W        W97492  29.101   0.638  14.876
25068W        W97493  41.374  31.387  12.325
25069W        W97494  29.719  34.928   0.715
25070W        W97495  13.064  33.287   2.890
25071W        W97496   8.891  25.037   0.758
25072W        W97497   8.052   7.950  12.381
25073W        W97498   8.372   2.308  14.914
25074W        W97499  41.020  43.912  13.106
25075W        W97500  42.579  41.330  11.159
25076W        W97501   3.769  13.887   4.555
25077W        W97502  16.766  31.390  12.534
25078W        W97503  21.245  22.547  11.028
25079W        W97504  36.983  32.056  14.891
25080W        W97505  28.307   8.898  14.111
25081W        W97506  38.388  22.278  12.018
25082W        W97507  41.232  22.126   0.072
25083W        W97508  13.414  44.837  13.454
25084W        W97509  29.170  29.687  11.193
25085W        W97510  10.629  19.671  12.982
25086W        W97511  18.941   5.318  14.279
25087W        W97512   1.293  43.007  12.949
25088W        W97513  40.982  35.343   1.952
25089W        W97514  14.772  19.488   4.959
25090W        W97515  28.584  33.123  11.286
25091W        W97516  10.125  40.089   4.494
25092W        W97517  15.783  42.823  14.300
25093W        W97518  38.102  18.493   4.655
25094W        W97519  35.735  10.876   1.469
25095W        W97520  35.163   4.902   4.089
25096W        W97521   1.817  33.797   4.503
25097W        W97522   1.128   2.338   2.378
25098W        W97523  44.417  33.671   4.977
25099W        W97524   0.908  22.671  13.736
25100W        W97525   2.214  25.739   4.228
25101W        W97526  38.873  22.983   2.260
25102W        W97527  22.476  35.351   4.015
25103W        W97528  26.965   6.793  12.998
25104W        W97529  19.723  11.520   2.868
25105W        W97530  21.786  14.087   4.143
25106W        W97531  13.663  35.807  10.572
25107W        W97532   3.183  12.821  12.069
25108W        W97533  43.484  12.930   2.124
25109W        W97534  23.235  44.859   1.463
25110W        W97535  35.918   9.664   2.787
25111W        W97536  42.613  22.274   4.524
25112W        W97537  18.761  36.460   1.931
25113W        W97538   0.408  36.525   0.754
25114W        W97539  32.354  44.424   1.510
25115W        W97540   6.372  22.055  12.498
25116W        W97541  39.060  42.199  10.616
25117W        W97542  18.274  23.035  14.022
25118W        W97543  25.696  35.936   4.160
25119W        W97544  10.860  22.551   2.281
25120W        W97545  34.835  30.853  11.140
25121W        W97546  37.517  38.917   0.824
25122W        W97547   8.351  16.614  14.957
25123W        W97548   0.780  27.710   2.104
25124W        W97549  12.728   3.250   0.885
25125W        W97550   4.200  11.303  12.664
25126W        W97551  20.243  31.735  12.358
25127W        W97552  20.502  24.924  10.139
25128W        W97553  17.602  33.989   2.089
25129W        W97554  17.279   0.946   1.771
25130W        W97555  24.129   3.072  12.072
25131W        W97556  24.266   7.649   3.135
25132W        W97557  28.024  14.649   1.332
25133W        W97558  12.815   6.402  14.553
25134W        W97559  37.136   7.855   1.314
25135W        W97560  10.441  37.935   4.003
25136W        W97561  27.090  31.034   4.662
25137W        W97562  23.529  42.447   4.281
25138W        W97563  12.295   8.294  12.719
25139W        W97564  19.097   1.440  13.368
25140W        W97565  23.902  13.178  14.911
25141W        W97566  16.158  43.863  12.009
25142W        W97567  20.873  14.565   4.141
25143W        W97568  27.936  42.354   0.908
25144W        W97569  22.302  41.457  14.520
25145W        W97570  42.396  35.508  14.480
25146W        W97571  43.784  38.713   1.296
25147W        W97572   7.450  44.958   3.676
25148W        W97573   1.654  27.519   4.608
25149W        W97574   9.129   5.018  12.932
25150W        W97575  38.804  24.517  12.066
25151W        W97576  19.195  41.682   0.381
25152W        W97577   4.810  34.032  10.863
25153W        W97578  27.568  37.880  13.523
25154W        W97579  40.268  30.649  12.564
25155W        W97580  31.685  35.548   1.491
25156W        W97581  27.700  40.986   4.350
25157W        W97582  12.365   2.945   4.758
25158W        W97583  38.050  39.382  13.020
25159W        W97584  21.763   3.901   3.287
25160W        W97585   6.675  17.633  12.048
25161W        W97586  25.140   4.497   1.335
25162W        W97587  40.819   5.407  14.394
25163W        W97588  32.928  27.741   1.132
25164W        W97589  40.893  28.192   0.913
25165W        W97590  36.382  21.610   1.412
25166W        W97591  13.127   3.809   1.959
25167W        W97592  34.374   9.010  14.836
25168W        W97593  10.780   3.374  14.563
25169W        W97594  41.577  13.005  11.655
25170W        W97595  32.495  42.305  13.335
25171W        W97596  36.370  24.530   4.175
25172W        W97597  35.328  10.708   0.797
25173W        W97598   9.183  22.681  14.041
25174W        W97599  19.198  41.836   2.296
25175W        W97600   6.976  37.048  11.088
25176W        W97601  33.856  31.035   0.078
25177W        W97602  17.930  41.179  10.949
25178W        W97603  18.755  33.511   4.752
25179W        W97604  35.739   0.050  11.828
25180W        W97605  15.328  13.717  13.736
25181W        W97606  31.827  13.260   4.429
25182W        W97607  18.017  32.565   2.232
25183W        W97608  37.448  17.811   4.291
25184W        W97609  23.884   7.232  10.633
25185W        W97610  11.424   6.490  14.836
25186W        W97611  27.016  35.792  10.705
25187W        W97612  42.068  25.936   1.919
25188W        W97613  17.318  21.134  10.682
25189W        W97614  14.772  28.105   2.493
25190W        W97615  10.860  12.010  12.427
25191W        W97616  22.789  16.768   3.731
25192W        W97617  25.797  12.377  10.311
25193W        W97618  43.396  15.619   2.846
25194W        W97619  15.616  41.967  14.819
25195W        W97620  36.981  16.717  11.648
25196W        W97621  34.137  32.675  13.328
25197W        W97622   3.743  36.685  12.192
25198W        W97623  24.763   3.409   3.188
25199W        W97624   2.167  21.403  12.802
25200W        W97625  11.433  15.672   5.071
25201W        W97626  22.645  32.593  11.201
25202W        W97627  43.335   7.393   0.228
25203W        W97628  44.066   2.439   3.827
25204W        W97629  43.864   7.741  14.364
25205W        W97630  21.719  37.571  10.694
25206W        W97631  18.549  32.366   4.606
25207W        W97632   7.353  25.498   0.676
25208W        W97633  25.546  39.196  11.158
25209W        W97634  19.785   8.662  14.763
25210W        W97635   1.537  21.311   1.349
25211W        W97636   2.685  37.717  14.601
25212W        W97637   0.429  17.016   4.589
25213W        W97638  20.242  15.623   4.157
25214W        W97639  24.937  10.724  13.570
25215W        W97640  33.436   8.465   4.010
25216W        W97641  22.718   9.320  14.103
25217W        W97642  29.408  12.432   3.351
25218W        W97643  20.824  22.041  11.988
25219W        W97644  37.413  41.369  14.790
25220W        W97645  34.929   8.494   1.263
25221W        W97646  15.519  31.928   1.862
25222W        W97647  10.684   7.520   0.947
25223W        W97648  34.436  40.875   0.967
25224W        W97649  27.559  38.305   1.559
25225W        W97650  27.095  17.760   1.948
25226W        W97651  11.753  43.325  10.714
25227W        W97652  31.393   7.415  12.635
25228W        W97653  35.217   4.281  14.353
25229W        W97654  30.702   3.801  12.435
25230W        W97655  37.864  43.967   1.834
25231W        W97656  25.245  15.159  11.881
25232W        W97657  20.859  36.036  10.892
25233W        W97658   4.861  34.541  14.713
25234W        W97659  42.951  38.329  14.365
25235W        W97660  29.271  36.664  13.950
25236W        W97661  27.998   0.836  13.821
25237W        W97662   8.644  36.551  11.977
25238W        W97663   3.353  17.336  14.060
25239W        W97664   1.748  23.732   1.850
25240W        W97665   2.983   5.930   4.112
25241W        W97666  30.860  24.684   3.751
25242W        W97667  21.736  10.332   2.853
25243W        W97668   8.176  27.084  12.044
25244W        W97669  36.818   2.876   2.355
25245W        W97670  33.079  39.065   2.539
25246W        W97671  32.045  36.344  12.217
25247W        W97672   6.583  27.653   3.989
25248W        W97673  43.080   4.899  13.944
25249W        W97674  35.284  15.965  10.959
25250W        W97675  13.107   6.204   3.513
25251W        W97676   2.790  29.043   0.321
25252W        W97677  36.328   2.045  11.454
25253W        W97678  28.143   2.654  14.272
25254W        W97679  15.819   9.279   4.566
25255W        W97680   2.653  42.004   2.808
25256W        W97681  24.681   4.800  12.989
25257W        W97682  24.770  31.336  11.213
25258W        W97683  23.046  27.886  12.041
25259W        W97684  33.831  23.557  14.271
25260W        W97685  21.404  29.372   3.870
25261W        W97686  34.582   0.968   0.917
25262W        W97687  10.710   6.307   5.061
25263W        W97688  14.978   5.295   4.201
25264W        W97689  44.336  25.753  13.464
25265W        W97690   0.462   4.413  14.930
25266W        W97691   6.191   9.847  12.822
25267W        W97692   6.185  16.660  13.369
25268W        W97693   1.822  37.284  13.072
25269W        W97694  23.292  13.618   1.278
25270W        W97695  14.374  20.637   0.391
25271W        W97696   3.021  30.358   1.579
25272W        W97697  39.472  13.502   1.994
25273W        W97698  23.047  11.081   4.552
25274W        W97699  27.997  32.552  12.443
25275W        W97700  31.158   4.950   0.863
25276W        W97701  13.303  42.166  13.509
25277W        W97702  33.907   9.746   4.941
25278W        W97703   7.710  34.032  14.616
25279W        W97704  38.036  22.485  14.030
25280W        W97705  33.434   0.460   2.455
25281W        W97706  32.008  27.444   4.154
25282W        W97707  27.440   0.342  14.916
25283W        W97708   6.222  34.180  11.066
25284W        W97709   0.902  27.014   3.368
25285W        W97710   3.300   5.468   3.313
25286W        W97711  17.204  26.858   2.875
25287W        W97712  34.010   2.462   1.334
25288W        W97713  19.359  20.924   2.301
25289W        W97714  42.254  31.179   3.342
25290W        W97715  33.378  34.362  14.464
25291W        W97716  13.473  26.388   2.725
25292W        W97717  42.487  25.956   0.721
25293W        W97718   7.470  32.353  14.221
25294W        W97719  34.462  44.947  13.090
25295W        W97720   3.188  24.178  12.323
25296W        W97721   6.295  40.565  11.637
25297W        W97722  31.985  36.802   1.767
25298W        W97723   7.082  13.886   2.821
25299W        W97724   5.297  28.360  12.755
25300W        W97725  33.050   2.015   4.546
25301W        W97726  31.706  10.224  10.165
25302W        W97727   9.303  16.716   3.684
25303W        W97728  40.015  20.981   2.582
25304W        W97729  33.543  18.060   5.442
25305W        W97730   0.716  17.741   2.848
25306W        W97731  35.912  22.617  13.497
25307W        W97732  26.714  33.455   2.313
25308W        W97733  23.121  29.963   4.231
25309W        W97734  44.939  28.485   2.249
25310W        W97735  18.091  43.482  12.433
25311W        W97736  35.984  38.530  12.636
25312W        W97737   9.737   0.400   3.093
25313W        W97738  36.066  33.916  14.434
25314W        W97739   8.916  23.157  13.412
25315W        W97740  43.546  27.273  11.049
25316W        W97741  27.979   9.874   0.747
25317W        W97742  27.655  33.861  14.847
25318W        W97743  38.456   5.316   0.980
25319W        W97744  27.132  26.262   2.188
25320W        W97745  42.475   3.781   2.431
25321W        W97746   5.213  41.757  13.982
25322W        W97747  19.676   6.594  11.119
25323W        W97748  41.310  25.500  11.138
25324W        W97749  15.566   6.223  12.981
25325W        W97750  44.278   8.717   0.902
25326W        W97751  40.441  43.127   4.235
25327W        W97752  42.490  38.460  13.144
25328W        W97753  11.961   2.577  11.541
25329W        W97754  39.255   6.337   0.309
25330W        W97755   2.927   4.433  14.763
25331W        W97756   4.539   1.773  13.905
25332W        W97757  30.100  34.091   4.881
25333W        W97758  21.692  37.508   4.580
25334W        W97759  36.442  11.875  14.564
25335W        W97760  44.504  32.498  14.563
25336W        W97761  39.001  13.287  10.480
25337W        W97762  36.539  25.568  12.528
25338W        W97763  37.653   0.977   4.554
25339W        W97764  26.179  37.896  11.343
25340W        W97765  35.144  25.444   0.290
25341W        W97766   0.804  24.744   4.635
25342W        W97767  39.381  39.388   3.252
25343W        W97768  30.035   0.327  13.144
25344W        W97769  12.276  17.818  11.656
25345W        W97770  12.864  12.405  12.505
25346W        W97771  15.376  25.445  10.592
25347W        W97772  16.695  43.182  14.734
25348W        W97773  35.383  39.022   3.528
25349W        W97774  43.113  11.462   0.344
25350W        W97775  31.847  29.443  13.534
25351W        W97776  35.548   5.266   2.370
25352W        W97777  44.973  23.511  13.533
25353W        W97778  40.408   0.735   2.333
25354W        W97779  25.680   7.382  12.962
25355W        W97780  43.056   9.534  13.097
25356W        W97781  15.558   2.463  10.912
25357W        W97782  19.557  11.321  12.572
25358W        W97783   9.110   8.427  13.984
25359W        W97784  18.684  44.923  10.811
25360W        W97785  16.213   8.972  14.878
25361W        W97786  44.928  14.617   4.587
25362W        W97787  37.354  28.508  14.952
25363W        W97788  29.641   7.681   2.491
25364W        W97789  33.603   0.404   0.773
25365W        W97790  30.539  37.825  10.606
25366W        W97791  21.410  24.659  12.969
25367W        W97792   0.693  24.237   3.939
25368W        W97793  41.486  21.351   1.955
25369W        W97794  19.782  34.978   2.590
25370W        W97795  33.537  16.114   4.340
25371W        W97796  15.111  37.412  13.067
25372W        W97797  32.586  14.457  11.986
25373W        W97798  15.509  25.096  12.480
25374W        W97799  44.868  31.544   4.800
25375W        W97800   0.307  41.062  13.325
25376W        W97801  29.461  21.989  14.566
25377W        W97802  15.569   0.857   5.574
25378W        W97803  10.391   0.552  13.923
25379W        W97804  31.372   2.318   1.716
25380W        W97805   2.817   4.937   1.787
25381W        W97806   1.195  29.321  10.314
25382W        W97807   5.907  39.817  12.937
25383W        W97808  44.680  12.239  11.823
25384W        W97809  42.373  20.511  12.955
25385W        W97810  24.775  40.146  11.602
25386W        W97811   0.994  25.128   1.341
25387W        W97812  42.112   5.406   2.433
25388W        W97813  37.653  29.604  12.679
25389W        W97814  12.490  11.862   0.347
25390W        W97815  40.234  11.524   3.607
25391W        W97816  23.927  24.083  13.801
25392W        W97817  24.210   8.851   2.764
25393W        W97818  11.139  10.193  13.630
25394W        W97819  33.889   4.393   2.262
25395W        W97820  15.151  41.933   0.085
25396W        W97821  35.068   1.254  14.557
25397W        W97822  35.894   3.974  14.633
25398W        W97823  33.757  17.394   0.241
25399W        W97824  35.546  10.136   4.704
25400W        W97825  17.675  43.977  14.858
25401W        W97826   0.745  20.100  10.776
25402W        W97827  16.387   4.291   4.104
25403W        W97828  44.186  38.826  10.710
25404W        W97829  21.073  34.348  12.023
25405W        W97830  36.094  18.237  11.028
25406W        W97831  24.660  35.897   2.222
25407W        W97832   9.213  35.126  10.359
25408W        W97833  22.776  40.030  10.768
25409W        W97834  15.467  14.380  12.452
25410W        W97835  17.310  33.394   1.903
25411W        W97836  38.940   0.397   0.921
25412W        W97837   8.775   6.359  14.433
25413W        W97838  42.756   0.885   0.863
25414W        W97839  34.003   2.967   4.050
25415W        W97840   3.686  28.887   3.114
25416W        W97841  14.718   6.817  13.256
25417W        W97842  24.108  12.308  10.585
25418W        W97843  37.425   7.325  11.600
25419W        W97844  11.291  37.014  10.555
25420W        W97845   2.305  36.495  11.664
25421W        W97846  14.913  19.055   4.217
25422W        W97847  43.129  33.149  11.637
25423W        W97848  36.043  23.211   1.828
25424W        W97849   1.768  24.837  10.570
25425W        W97850  10.424  11.191   1.187
25426W        W97851  39.574  11.600   4.165
25427W        W97852  37.371   0.890   2.783
25428W        W97853  36.123  16.111  12.347
25429W        W97854  37.767  26.506  12.183
25430W        W97855  38.822  25.048   2.847
25431W        W97856   3.753  26.409  12.590
25432W        W97857  19.627  29.178  12.373
25433W        W97858  21.607  34.906   3.773
25434W        W97859  29.208  23.127  11.485
25435W        W97860  26.786  39.062   2.325
25436W        W97861  27.127  10.776   2.560
25437W        W97862   8.203   4.178   4.100
25438W        W97863   1.781   4.425   3.743
25439W        W97864  38.791  33.873  12.087
25440W        W97865  19.666   0.099   0.787
25441W        W97866   3.185   5.016   3.608
25442W        W97867  23.588  16.632   1.042
25443W        W97868  13.392   2.947   3.592
25444W        W97869  21.768  21.566   1.832
25445W        W97870   2.066  42.161   2.837
25446W        W97871  18.314  21.921   0.792
25447W        W97872  13.184  36.813  11.057
25448W        W97873  14.887  24.012   0.831
25449W        W97874   7.986  23.939  13.861
25450W        W97875  31.227  34.910   4.292
25451W        W97876  35.055  10.362  13.389
25452W        W97877  25.646  12.573   1.033
25453W        W97878  36.911  26.001   4.928
25454W        W97879   2.819  25.018  11.328
25455W        W97880  43.298  20.214  11.012
25456W        W97881  38.098   9.940  11.886
25457W        W97882  25.890  35.020  14.368
25458W        W97883  19.517  22.782   4.156
25459W        W97884  18.901  20.132  12.547
25460W        W97885   3.899  20.061   2.271
25461W        W97886  15.114  31.569   1.904
25462W        W97887  21.139  43.541  11.011
25463W        W97888  19.790  35.995   4.587
25464W        W97889  31.765  29.550  14.355
25465W        W97890   4.643  31.826  12.087
25466W        W97891  25.191   4.848  13.122
25467W        W97892  41.924  25.039  14.933
25468W        W97893  33.604  42.232   2.875
25469W        W97894   9.654  44.989   2.762
25470W        W97895   6.412  14.644  12.510
25471W        W97896  39.150  23.143  12.810
25472W        W97897  17.020   5.264  11.496
25473W        W97898   6.846   6.706   2.312
25474W        W97899   0.860  12.287  13.790
25475W        W97900  18.027  42.033  12.385
25476W        W97901  17.787  29.456  12.519
25477W        W97902   6.661   6.424   1.882
25478W        W97903  10.320   7.198  13.319
25479W        W97904  41.321   7.792  13.543
25480W        W97905   5.976   1.951  11.047
25481W        W97906   1.388  13.836  13.735
25482W        W97907   6.798  32.866  13.613
25483W        W97908  37.458  44.416   4.116
25484W        W97909   1.321   3.350   3.193
25485W        W97910  10.855  41.491  13.514
25486W        W97911  29.981   6.433   1.877
25487W        W97912  28.655  13.456   3.489
25488W        W97913  15.781  24.735   1.016
25489W        W97914  11.665   2.815  12.341
25490W        W97915  23.526   9.344   1.478
25491W        W97916  16.069   4.589  11.219
25492W        W97917   5.538   2.763  14.931
25493W        W97918  43.374  25.718  14.275
25494W        W97919  31.312  25.380   3.335
25495W        W97920  41.033  17.764  10.656
25496W        W97921  27.111  34.516   4.338
25497W        W97922  18.093  29.597  13.339
25498W        W97923   4.398  41.397   3.923
25499W        W97924  43.435   1.537   1.335
25500W        W97925  41.548  16.079  14.477
25501W        W97926  14.526   5.845   2.498
25502W        W97927  44.333  31.172  10.585
25503W        W97928   8.265  15.871   2.564
25504W        W97929  27.193  26.408  12.082
25505W        W97930  29.886  27.784   2.457
25506W        W97931  41.771  25.639  13.550
25507W        W97932  26.527  18.922   3.270
25508W        W97933  12.873  41.732   0.766
25509W        W97934  40.907  23.696  13.883
25510W        W97935   0.203  16.593  12.108
25511W        W97936  29.632   8.753   3.928
25512W        W97937   3.231  19.848  12.665
25513W        W97938  34.074  11.801  14.877
25514W        W97939  26.547  15.167   1.726
25515W        W97940  19.825  30.171  11.544
25516W        W97941  35.566  44.760   1.744
25517W        W97942  27.341  16.699   2.358
25518W        W97943   9.346  18.100  12.345
25519W        W97944  26.397  14.672   3.708
25520W        W97945  25.871  11.868   0.945
25521W        W97946  17.542  29.607   3.273
25522W        W97947  34.450  29.326   3.082
25523W        W97948  13.159  34.328   1.200
25524W        W97949  15.895   4.839  10.506
25525W        W97950  11.819  10.775  14.605
25526W        W97951  30.035  35.335  11.588
25527W        W97952  21.578  28.064   3.896
25528W        W97953   2.274  14.984   3.963
25529W        W97954   7.904  32.830  10.526
25530W        W97955   1.707   2.432   4.759
25531W        W97956  41.053   4.506   0.257
25532W        W97957   0.840  29.964   3.671
25533W        W97958  41.090   7.585   2.824
25534W        W97959  13.451  31.337  11.189
25535W        W97960  12.353  30.358   4.235
25536W        W97961   3.235  30.517   2.740
25537W        W97962  36.925  32.380  11.501
25538W        W97963  31.214  36.998   4.143
25539W        W97964   4.797  15.883  12.904
25540W        W97965  22.990  11.822   3.299
25541W        W97966  11.902  17.329   2.156
25542W        W97967  32.585  38.508   3.840
25543W        W97968  23.900  39.189   5.042
25544W        W97969  24.240  21.184   2.138
25545W        W97970   1.161  33.163  12.510
25546W        W97971  40.663  29.561  11.248
25547W        W97972  29.706   2.854  10.293
25548W        W97973  25.211   1.728   1.247
25549W        W97974  28.335   1.366   0.240
25550W        W97975  38.481  26.433   3.275
25551W        W97976  33.142  16.832   0.001
25552W        W97977  18.051  20.536   0.904
25553W        W97978  37.454  34.488  11.043
25554W        W97979   8.154  12.453   2.337
25555W        W97980  34.502  29.885   3.723
25556W        W97981  20.167  10.941   0.341
25557W        W97982   3.536  18.601   4.690
25558W        W97983  17.357  22.556   4.605
25559W        W97984  25.508   9.623  13.389
25560W        W97985  44.715  20.030   1.364
25561W        W97986   4.434   3.428   2.938
25562W        W97987  15.282  42.634   4.221
25563W        W97988   3.217  21.746   3.612
25564W        W97989  18.774   2.763  12.571
25565W        W97990  30.086  35.913   3.718
25566W        W97991   7.001   7.633   3.291
25567W        W97992  38.358  12.567  14.001
25568W        W97993  24.957  25.113   1.885
25569W        W97994   7.622  26.197   3.797
25570W        W97995  43.481  26.438   2.742
25571W        W97996  43.899  22.117   1.293
25572W        W97997   2.258  14.816  12.515
25573W        W97998  30.495  13.109  12.455
25574W        W97999  34.413  37.163   3.595
25575W        W98000  30.909   9.183  14.797
25576W        W98001   8.267  32.894   0.911
25577W        W98002   9.335  26.999  13.529
25578W        W98003  11.922  22.286  10.030
25579W        W98004  31.404   5.417   0.835
25580W        W98005  20.873   6.823   1.846
25581W        W98006   7.827   8.719   0.584
25582W        W98007  40.525  25.796  14.323
25583W        W98008  38.320  27.874  12.985
25584W        W98009  15.108  25.683   3.303
25585W        W98010  19.717  37.080   3.655
25586W        W98011  33.064   0.426  13.983
25587W        W98012  23.749  10.704   3.701
25588W        W98013  36.435  38.891   4.646
25589W        W98014  27.917  15.696  11.685
25590W        W98015  44.312  39.360   0.303
25591W        W98016  37.265   1.664  13.043
25592W        W98017  24.510   2.621  12.582
25593W        W98018   0.758  41.580   2.754
25594W        W98019  43.827  13.068  14.927
25595W        W98020   2.361  39.960   3.118
25596W        W98021  23.651   6.415  14.296
25597W        W98022  41.258  23.304  14.397
25598W        W98023  20.560  24.147  14.434
25599W        W98024  12.130  21.280  11.190
25600W        W98025   2.330  23.733   0.031
25601W        W98026  13.874   1.896  13.749
25602W        W98027  11.758  44.715   4.143
25603W        W98028  11.194   6.913  10.136
25604W        W98029   7.961  12.020  11.092
25605W        W98030   9.347  42.432  14.592
25606W        W98031  43.336  11.964   0.838
25607W        W98032   5.819  39.756   2.855
25608W        W98033   8.664  19.477  14.933
25609W        W98034  25.518  14.386   3.625
25610W        W98035  33.615  34.549   1.804
25611W        W98036   6.439  20.460  11.104
25612W        W98037  30.019  18.966  13.336
25613W        W98038  10.281  17.672   3.523
25614W        W98039  34.473  42.452   3.770
25615W        W98040  21.656  30.999  14.808
25616W        W98041  41.502  17.342   3.690
25617W        W98042  29.687  39.842  11.812
25618W        W98043  26.063   7.760  10.992
25619W        W98044   1.293  17.041  14.233
25620W        W98045   4.451  32.211  10.757
25621W        W98046  24.237  38.691  10.792
25622W        W98047  28.029  23.856   5.083
25623W        W98048   4.221  22.560   3.697
25624W        W98049   9.600  31.242   2.169
25625W        W98050  19.627   7.466  14.268
25626W        W98051  27.940   9.830  14.328
25627W        W98052   6.769  44.449  14.540
25628W        W98053  25.374  36.989   5.043
25629W        W98054   7.600  13.737   3.865
25630W        W98055  42.830  28.712   1.420
25631W        W98056  23.701  26.819   1.908
25632W        W98057  15.194   5.843  14.577
25633W        W98058  16.136  26.630  12.400
25634W        W98059  40.517  42.585   5.572
25635W        W98060  13.073  13.375   1.455
25636W        W98061  14.339  13.784   0.929
25637W        W98062  10.081  11.257   3.667
25638W        W98063  25.209  41.307   4.088
25639W        W98064  10.943  37.836   0.462
25640W        W98065  14.542  26.810  10.008
25641W        W98066   5.498  27.438  11.050
25642W        W98067  11.322  44.833  11.572
25643W        W98068  35.932  23.487  14.615
25644W        W98069  12.146  11.143  13.870
25645W        W98070  10.440  32.720  12.825
25646W        W98071  26.130  36.973   1.404
25647W        W98072   9.360  30.856  14.032
25648W        W98073  26.117  32.001   3.592
25649W        W98074   4.208   3.815  12.596
25650W        W98075  10.629   6.923   3.878
25651W        W98076  40.067   2.257   4.577
25652W        W98077  15.777  27.161   2.825
25653W        W98078  18.575  33.882   2.133
25654W        W98079  30.478  43.412  10.849
25655W        W98080   0.727   7.927  13.532
25656W        W98081  19.579  35.512   3.891
25657W        W98082  16.527   0.344  14.349
25658W        W98083  40.061  32.928   2.678
25659W        W98084  31.032  16.468   9.795
25660W        W98085  32.084  40.765   3.328
25661W        W98086  18.718  19.186  11.560
25662W        W98087  43.019  34.137  14.207
25663W        W98088   4.949  18.558   1.710
25664W        W98089  15.320  41.951   3.028
25665W        W98090   0.754  43.766   4.447
25666W        W98091   8.294  13.192   1.897
25667W        W98092  36.439  28.209   5.020
25668W        W98093   8.455  21.398  13.387
25669W        W98094  43.903  39.585   2.709
25670W        W98095  33.354   7.746  11.616
25671W        W98096  31.506  37.554   0.537
25672W        W98097   4.678  42.665   3.273
25673W        W98098   3.291  41.882  13.324
25674W        W98099  14.090  28.241  12.554
25675W        W98100  15.595   3.953  11.607
25676W        W98101  26.616  38.838  12.842
25677W        W98102  32.078  28.497   0.676
25678W        W98103  39.516   1.859  10.610
25679W        W98104  21.048  38.865  14.290
25680W        W98105  17.558  38.961   1.427
25681W        W98106  11.373   9.878   3.777
25682W        W98107   9.249  25.238  14.940
25683W        W98108  11.964  35.840   3.677
25684W        W98109  38.381  18.294  11.577
25685W        W98110  27.649  18.342  14.023
25686W        W98111   8.158  20.619   2.576
25687W        W98112   6.397  10.245   0.512
25688W        W98113   6.770  27.194  14.496
25689W        W98114   2.859   4.389   2.597
25690W        W98115  36.172   5.571  13.616
25691W        W98116  22.970   4.442   1.869
25692W        W98117  12.647  13.232   0.598
25693W        W98118  36.843  22.964   0.430
25694W        W98119  26.839   5.374  13.986
25695W        W98120  37.300  22.155   1.107
25696W        W98121  43.615  41.579   4.232
25697W        W98122  28.922  20.508  11.091
25698W        W98123  17.087  31.722  13.387
25699W        W98124  15.053  37.329   0.344
25700W        W98125  18.160  10.905  13.969
25701W        W98126   5.523  35.290   4.341
25702W        W98127  30.454  43.754   0.311
25703W        W98128  22.796  42.525  10.571
25704W        W98129  35.109  16.757   0.718
25705W        W98130  17.773   1.900  10.229
25706W        W98131  11.198  42.338   4.634
25707W        W98132   1.654  32.667   2.747
25708W        W98133  32.392  24.325   3.195
25709W        W98134  30.654   4.310   0.453
25710W        W98135  41.001  10.726   0.379
25711W        W98136  25.697   2.932  12.136
25712W        W98137  40.097  41.931  10.601
25713W        W98138  30.980  42.499  10.694
25714W        W98139  14.384   1.452   1.100
25715W        W98140  10.710  32.783  14.414
25716W        W98141  22.190  10.180  14.327
25717W        W98142  38.091   1.707  11.564
25718W        W98143  21.352   5.589  11.973
25719W        W98144   4.285  13.708   0.795
25720W        W98145   9.565  14.496  11.629
25721W        W98146  13.163  24.490   1.414
25722W        W98147  34.324   6.451   1.861
25723W        W98148  44.376  31.676  10.390
25724W        W98149  43.958  44.184  11.418
25725W        W98150   0.615  36.735   2.352
25726W        W98151  11.701  39.394   3.653
25727W        W98152  25.937  12.123  12.166
25728W        W98153   3.578  12.492   3.299
25729W        W98154  18.776   4.892   3.877
25730W        W98155  26.085  40.003  12.902
25731W        W98156   6.682   8.670   4.076
25732W        W98157   4.753  14.597   2.955
25733W        W98158  38.618  32.330   2.382
25734W        W98159  37.617  42.623  13.509
25735W        W98160  25.567   2.677   1.263
25736W        W98161   3.831  34.165   3.298
25737W        W98162   8.746  31.703  14.404
25738W        W98163   4.277  37.430  13.530
25739W        W98164  36.033  35.467   2.477
25740W        W98165   8.674  28.860  11.352
25741W        W98166  33.561  12.173   1.498
25742W        W98167   5.422  15.820   2.895
25743W        W98168   5.186  23.658  11.106
25744W        W98169  30.474   4.995   4.044
25745W        W98170  31.955   4.417  12.251
25746W        W98171  24.681  31.737  14.581
25747W        W98172   9.280  20.091   1.443
25748W        W98173   4.488  38.494   2.024
25749W        W98174  29.134  30.643   2.241
25750W        W98175   9.182  10.731   1.578
25751W        W98176  11.806  34.226  12.594
25752W        W98177  33.168  44.068  13.348
25753W        W98178   1.187  41.999   2.794
25754W        W98179  21.937  34.203  12.936
25755W        W98180  44.580  16.356  14.777
25756W        W98181  10.295  39.577   3.661
25757W        W98182  37.366   1.995  14.272
25758W        W98183  32.649  36.979   2.347
25759W        W98184  24.629  17.248  12.298
25760W        W98185   5.958  40.876   3.396
25761W        W98186  11.487  44.370   4.687
25762W        W98187  21.731  16.873   0.244
25763W        W98188  16.067  18.760   0.199
25764W        W98189  18.000  16.362   1.004
25765W        W98190   9.316   8.243   0.461
25766W        W98191  37.597  34.809  11.664
25767W        W98192  12.607  26.167   2.001
25768W        W98193  29.398   2.224   3.297
25769W        W98194  31.835  38.191  10.769
25770W        W98195  26.659  24.683  10.795
25771W        W98196  42.219  10.651   2.738
25772W        W98197  12.076  29.592  10.798
25773W        W98198  35.012  43.803  11.692
25774W        W98199   6.220  11.626  10.988
25775W        W98200  16.109  44.542   2.860
25776W        W98201  14.184  24.194   4.849
25777W        W98202  21.190  37.451  14.181
25778W        W98203  42.352  26.180  11.649
25779W        W98204  14.995  15.941   0.493
25780W        W98205   6.745  35.145  12.032
25781W        W98206  22.945  26.611  11.243
25782W        W98207  24.952   6.099  12.572
25783W        W98208  33.573  41.507  10.214
25784W        W98209  41.780  16.358   1.143
25785W        W98210   4.459  28.098   1.377
25786W        W98211  17.162  27.879   0.733
25787W        W98212  12.265  33.568   2.887
25788W        W98213  13.829  22.184  11.022
25789W        W98214   3.133  23.968   2.069
25790W        W98215  32.480  19.141  11.539
25791W        W98216  25.599  26.120   3.868
25792W        W98217   0.760   0.283  11.008
25793W        W98218   9.755  41.535  12.086
25794W        W98219  42.595   3.158  11.158
25795W        W98220  29.022  38.833   1.700
25796W        W98221   0.020  38.438  13.907
25797W        W98222  29.092   2.457   1.149
25798W        W98223  30.760   3.408   2.727
25799W        W98224  38.566  11.442   0.943
25800W        W98225  37.464  13.833  14.409
25801W        W98226  31.733  25.699   3.253
25802W        W98227  10.314  42.260   3.156
25803W        W98228  31.892  30.624  11.466
25804W        W98229  23.139  35.875  13.970
25805W        W98230  18.177  19.268   1.910
25806W        W98231  37.537  20.651   3.367
25807W        W98232  36.793  10.840   1.776
25808W        W98233  26.245  22.780  11.119
25809W        W98234  32.225   7.934  13.838
25810W        W98235  28.059  15.661   2.819
25811W        W98236  37.337  21.518   2.359
25812W        W98237  36.972  23.609  10.066
25813W        W98238  25.572  17.524   1.451
25814W        W98239  10.539   1.469   3.830
25815W        W98240  27.552  11.382   4.160
25816W        W98241  14.427  10.912   3.303
25817W        W98242  18.395  17.699   1.874
25818W        W98243  20.960   8.428  13.549
25819W        W98244  30.338  36.081   0.212
25820W        W98245  38.841   4.136  12.149
25821W        W98246  35.946   7.216  13.412
25822W        W98247  40.917  23.242   1.722
25823W        W98248   6.377  31.664  14.394
25824W        W98249  25.785  10.865   3.647
25825W        W98250  13.424  23.264   0.581
25826W        W98251  15.113  19.600  14.804
25827W        W98252  20.508  37.140   0.275
25828W        W98253   8.834  37.573  12.780
25829W        W98254  19.603   0.842  11.201
25830W        W98255  23.639  22.924   1.622
25831W        W98256  10.305  44.113  12.971
25832W        W98257  16.205  11.379   2.694
25833W        W98258  17.118   4.865  13.300
25834W        W98259   8.165  16.125   2.100
25835W        W98260  37.071  30.585  14.392
25836W        W98261  23.032  40.962   3.641
25837W        W98262  43.428  39.431   0.992
25838W        W98263  20.515   7.673   1.817
25839W        W98264  25.138  27.210  12.550
25840W        W98265  20.549  14.526  12.656
25841W        W98266  36.381  26.634   5.024
25842W        W98267  23.952  25.544  13.147
25843W        W98268  37.760  38.946  12.879
25844W        W98269  41.299  31.132  10.537
25845W        W98270  33.630   9.472  13.814
25846W        W98271  22.266  16.589  10.740
25847W        W98272  42.922   5.886  14.267
25848W        W98273   0.766   0.066   4.211
25849W        W98274  13.890  30.341   0.035
25850W        W98275   7.057  25.158  14.433
25851W        W98276  31.108  16.071  11.859
25852W        W98277  30.091  21.046  14.445
25853W        W98278  32.458  22.564  12.246
25854W        W98279  34.892  22.222  12.882
25855W        W98280  43.859  11.276  13.597
25856W        W98281  19.287  39.769  11.940
25857W        W98282  27.698  31.485  13.886
25858W        W98283  25.637  43.267   1.246
25859W        W98284  40.081   2.153   2.777
25860W        W98285  28.921  11.862  12.077
25861W        W98286   6.223   4.790  11.529
25862W        W98287  35.565  27.684   2.411
25863W        W98288  14.445  23.012  13.259
25864W        W98289  21.602   0.897  13.607
25865W        W98290  40.092  31.665   0.819
25866W        W98291   7.048   7.005  12.033
25867W        W98292  14.649  41.322   1.188
25868W        W98293  10.344   2.348  12.473
25869W        W98294  31.122   2.185  11.076
25870W        W98295  32.181  41.887  13.020
25871W        W98296  23.268   1.219   1.272
25872W        W98297  20.126  17.992   3.251
25873W        W98298  22.063  41.008   4.309
25874W        W98299  35.271  30.176  11.593
25875W        W98300   9.153  39.157   4.257
25876W        W98301  28.995  35.879   4.847
25877W        W98302  44.200  23.726   1.363
25878W        W98303   6.903  44.839   0.947
25879W        W98304   9.072  31.932   3.123
25880W        W98305  12.172   8.650  14.967
25881W        W98306  23.489  20.059  13.551
25882W        W98307  11.973  22.026   0.856
25883W        W98308  34.805  33.831  13.008
25884W        W98309  39.388  44.892   5.568
25885W        W98310  27.190  28.705  12.514
25886W        W98311  22.408  16.582  14.915
25887W        W98312  31.489  43.553   0.922
25888W        W98313  27.228  33.457   5.095
25889W        W98314  21.506  35.293  11.219
25890W        W98315  21.693  22.517  12.867
25891W        W98316  19.119  19.165  13.934
25892W        W98317  40.800  25.563   2.808
25893W        W98318  25.727  36.603  12.477
25894W        W98319  20.261  26.740   4.748
25895W        W98320  29.172  34.411   3.102
25896W        W98321   0.701   5.923   4.992
25897W        W98322  10.936  34.129   3.674
25898W        W98323  16.516   5.287  11.286
25899W        W98324   2.770  24.321  11.115
25900W        W98325  19.306  22.034  13.220
25901W        W98326  21.624  30.933  11.566
25902W        W98327   3.063  39.037   5.124
25903W        W98328   2.887  34.624   4.416
25904W        W98329  41.308  18.706   4.141
25905W        W98330  29.435  34.630   2.703
25906W        W98331  24.032  35.535  12.547
25907W        W98332  22.065  15.320  13.378
25908W        W98333   7.189  13.010  12.591
25909W        W98334   1.433  34.090  13.576
25910W        W98335  12.084  16.125  12.320
25911W        W98336  23.688  19.091   1.891
25912W        W98337   1.494   6.752   0.428
25913W        W98338  42.277  26.586  13.921
25914W        W98339  34.166  31.032   3.207
25915W        W98340  30.367  21.576   4.134
25916W        W98341  33.993   0.988   3.222
25917W        W98342   2.043   0.998  11.904
25918W        W98343  11.399  20.371   3.683
25919W        W98344  34.372  35.049  14.786
25920W        W98345  41.720  16.578  11.944
25921W        W98346  14.766  44.871  13.889
25922W        W98347  11.774  35.085   1.828
25923W        W98348  31.491  35.628  11.986
25924W        W98349  23.111  23.378   0.102
25925W        W98350   7.797  30.044   4.901
25926W        W98351  44.385  29.608  12.452
25927W        W98352  36.914  42.312   1.302
25928W        W98353  21.779  18.320   4.664
25929W        W98354  38.096  17.864  12.567
25930W        W98355  26.391  34.944   0.651
25931W        W98356  31.695   2.210  12.971
25932W        W98357  12.821  13.078  13.057
25933W        W98358   3.758  13.219  14.920
25934W        W98359  31.479  27.491  10.533
25935W        W98360  29.565  32.167  13.565
25936W        W98361  10.142  33.334  13.603
25937W        W98362  32.667   4.379   0.280
25938W        W98363  16.225  20.560  14.887
25939W        W98364  34.280  30.130  12.010
25940W        W98365  43.536  10.329   0.795
25941W        W98366  27.581  26.575   4.176
25942W        W98367  29.010  19.917   2.142
25943W        W98368  34.502   4.854   4.646
25944W        W98369  13.416  18.957  14.933
25945W        W98370  32.057  37.288   4.013
25946W        W98371  17.514   5.349   4.581
25947W        W98372   1.977   7.239  11.779
25948W        W98373  32.675  24.691   1.461
25949W        W98374  21.549   7.471  14.045
25950W        W98375  40.433  22.944   0.910
25951W        W98376  14.806  14.559  14.479
25952W        W98377  27.519  24.657  11.141
25953W        W98378   0.036  40.805   3.758
25954W        W98379  39.491   4.666   0.810
25955W        W98380  21.650  44.298   3.714
25956W        W98381   0.281  31.460  12.458
25957W        W98382   7.575  42.503  11.554
25958W        W98383   9.991   7.305  11.070
25959W        W98384  11.128  27.068   3.628
25960W        W98385  11.284  31.595  13.989
25961W        W98386  18.573  29.972  11.144
25962W        W98387   3.744  25.746  11.570
25963W        W98388   3.395  16.854  14.248
25964W        W98389  19.230   7.196   2.031
25965W        W98390  39.572  23.554  13.441
25966W        W98391  30.464   4.281  13.349
25967W        W98392  35.540  42.171   0.222
25968W        W98393  25.709  13.307   3.640
25969W        W98394  24.829  39.060  14.939
25970W        W98395  26.437  34.794   1.729
25971W        W98396  26.001  20.135  11.145
25972W        W98397   4.614  19.513   2.228
25973W        W98398  32.019  37.925  11.680
25974W        W98399  23.727  31.962  11.657
25975W        W98400  28.247  28.048  13.359
25976W        W98401  39.318  16.775   4.480
25977W        W98402  38.240  21.231   2.935
25978W        W98403  31.018  10.356  14.843
25979W        W98404  44.282  34.988   2.835
25980W        W98405  28.618   4.718  14.447
25981W        W98406  32.051  23.003  10.700
25982W        W98407  13.180  22.063  13.081
25983W        W98408  20.276  23.409   1.680
25984W        W98409  36.803  37.918   0.295
25985W        W98410   1.568   3.654  10.570
25986W        W98411  16.421  36.132  13.773
25987W        W98412  38.359  44.371   9.683
25988W        W98413  23.577  25.473   0.412
25989W        W98414  38.790  43.957   1.886
25990W        W98415   8.491   3.668  11.949
25991W        W98416   1.110  16.778  11.259
25992W        W98417  30.560  20.505   3.209
25993W        W98418   4.147  10.595   1.407
25994W        W98419  24.484  36.020  13.397
25995W        W98420  32.594  22.005  14.025
25996W        W98421  35.048   7.269  11.037
25997W        W98422  22.631  19.679   0.490
25998W        W98423  27.244   7.188  11.472
25999W        W98424  28.253  26.795  13.042
26000W        W98425  32.640  14.796  12.388
26001W        W98426  27.080   8.929  13.791
26002W        W98427  40.444   7.652  13.560
26003W        W98428  41.917  42.745   1.489
26004W        W98429  37.458  29.025  10.202
26005W        W98430  43.206  42.410  11.429
26006W        W98431  17.365  43.284   2.126
26007W        W98432  44.921  25.586   2.610
26008W        W98433  40.422  21.468   0.988
26009W        W98434  25.827  41.012  11.064
26010W        W98435   9.140  42.214   0.826
26011W        W98436  16.308  13.513   0.709
26012W        W98437  37.926  27.637   2.184
26013W        W98438   5.352  44.544   3.164
26014W        W98439  41.277   2.630  12.080
26015W        W98440  35.336  44.222   0.215
26016W        W98441  22.682   3.782  10.364
26017W        W98442   2.810  37.102  11.205
26018W        W98443  35.376  18.810  14.377
26019W        W98444   6.170  39.574  10.741
26020W        W98445  11.712  36.799   3.658
26021W        W98446   1.252   8.447   4.191
26022W        W98447  44.418  28.390   1.246
26023W        W98448  22.163  40.821  10.571
26024W        W98449  38.505  13.029   0.168
26025W        W98450  11.200  37.917  14.985
26026W        W98451  12.343   0.811   0.300
26027W        W98452  28.974   4.165   2.329
26028W        W98453   6.198  12.055   3.158
26029W        W98454  26.028  33.116  11.468
26030W        W98455  30.940  40.604  14.866
26031W        W98456   0.315  34.768   1.366
26032W        W98457   6.975  38.052  10.999
26033W        W98458   1.417  41.283  12.665
26034W        W98459  37.078  38.921  11.498
26035W        W98460   7.892  42.970  12.076
26036W        W98461  36.718   2.391   2.520
26037W        W98462  26.807   9.284  13.492
26038W        W98463  26.248  14.929  11.169
26039W        W98464  38.088  36.589  10.723
26040W        W98465  40.976   3.765   3.758
26041W        W98466  32.400  16.112  10.299
26042W        W98467  42.529  10.785  11.795
26043W        W98468  44.336  24.042   1.745
26044W        W98469  40.783  15.920  11.578
26045W        W98470  10.067  28.487  11.582
26046W        W98471   7.714  37.797   0.204
26047W        W98472  19.808  24.501  11.115
26048W        W98473  13.873  26.747  13.406
26049W        W98474   7.030  32.049  14.889
26050W        W98475  15.842  21.292   4.775
26051W        W98476  43.826  26.227   0.824
26052W        W98477  37.960  15.711  14.502
26053W        W98478   5.347   5.260  14.699
26054W        W98479   8.240  36.080   3.464
26055W        W98480  38.514  39.837  10.603
26056W        W98481   8.930  19.886   3.551
26057W        W98482  37.274  21.185  13.438
26058W        W98483  25.330  41.268   1.455
26059W        W98484  39.661  37.337   4.201
26060W        W98485  10.275   9.805  10.644
26061W        W98486  10.845   4.926   3.109
26062W        W98487  15.219   9.884   2.414
26063W        W98488   9.052  42.453  10.506
26064W        W98489  42.299   1.396  14.106
26065W        W98490  23.938  13.107  13.658
26066W        W98491  27.536  27.936  10.998
26067W        W98492  18.313  31.107   0.938
26068W        W98493   8.194  17.589   0.003
26069W        W98494  19.244   3.545  14.841
26070W        W98495  38.428  33.571   4.426
26071W        W98496  15.592  12.164  11.468
26072W        W98497  26.192  40.363  12.563
26073W        W98498  37.795  44.299  11.203
26074W        W98499  23.690   7.829  14.768
26075W        W98500  35.353  38.346  12.478
26076W        W98501  37.854  44.546   2.795
26077W        W98502  12.169  16.636   3.195
26078W        W98503   8.787  35.460   5.031
26079W        W98504   3.456  22.942   2.753
26080W        W98505   2.830   3.480  14.508
26081W        W98506  29.179   1.676  11.130
26082W        W98507  40.826  26.604  12.818
26083W        W98508  24.786   8.254  11.377
26084W        W98509  35.904  34.818   0.879
26085W        W98510  41.008  36.780  12.156
26086W        W98511  41.821   1.554  14.285
26087W        W98512  17.119  36.447   2.108
26088W        W98513  27.630  22.968  12.571
26089W        W98514  28.534   9.872  13.762
26090W        W98515  10.950  28.025  13.084
26091W        W98516   2.220  14.874   1.706
26092W        W98517  33.128   4.251   4.302
26093W        W98518  14.800  40.914   1.931
26094W        W98519  25.916  14.602  13.952
26095W        W98520  14.808  17.277  11.941
26096W        W98521   1.307  29.478  11.626
26097W        W98522   0.658  29.077  11.153
26098W        W98523   5.896  40.312   1.367
26099W        W98524  36.820  34.619   4.186
26100W        W98525  24.716  22.283   0.248
26101W        W98526  39.263   0.863  14.959
26102W        W98527   6.012  44.233   4.231
26103W        W98528  15.536  38.527  11.154
26104W        W98529  14.142  27.120  11.611
26105W        W98530  27.056  21.218  13.799
26106W        W98531   2.708   1.946  12.592
26107W        W98532  29.435  36.889  10.691
26108W        W98533  32.282  44.301  10.264
26109W        W98534  40.068  19.640  12.462
26110W        W98535  34.511   9.718  11.001
26111W        W98536  29.575  13.194  12.876
26112W        W98537   1.951   0.002   0.393
26113W        W98538  34.594   3.665  12.591
26114W        W98539   3.195  41.930   2.712
26115W        W98540  11.226  26.875  10.708
26116W        W98541  32.757   6.331  10.549
26117W        W98542  26.541  29.427  14.976
26118W        W98543   7.945  44.248  10.152
26119W        W98544   1.247  25.713   0.302
26120W        W98545  27.866  18.857   2.066
26121W        W98546   8.683   1.977   4.150
26122W        W98547  24.214  39.533   1.692
26123W        W98548   8.966  11.282   1.336
26124W        W98549  40.980   0.231   4.742
26125W        W98550  38.164  44.688  10.623
26126W        W98551  41.484   6.688  13.771
26127W        W98552  44.282  35.503   2.900
26128W        W98553  26.954  36.014   0.972
26129W        W98554  30.757  36.740   4.128
26130W        W98555  41.195  37.847   1.830
26131W        W98556  18.000  37.460   4.521
26132W        W98557  42.739  24.021  14.456
26133W        W98558   9.321   3.686  13.352
26134W        W98559  23.968  18.333   0.847
26135W        W98560   9.103   8.386   0.022
26136W        W98561  11.216   8.367  12.929
26137W        W98562  30.408  24.219  11.228
26138W        W98563  36.107  22.557   0.507
26139W        W98564  17.277  12.589   0.884
26140W        W98565  31.601  34.446   2.921
26141W        W98566   2.180  20.113  12.325
26142W        W98567   1.158  12.240  12.400
26143W        W98568  13.397   9.054  14.718
26144W        W98569  40.073  35.126   0.465
26145W        W98570  35.101  17.946   1.803
26146W        W98571   3.877  38.509  13.813
26147W        W98572  21.045   9.071  14.562
26148W        W98573   3.748   9.607  12.038
26149W        W98574   2.300  23.406   3.202
26150W        W98575   9.244  16.612  11.178
26151W        W98576  26.661  38.187   1.413
26152W        W98577  41.326   0.999  13.158
26153W        W98578   0.436  16.909  14.956
26154W        W98579  21.081  22.685   2.243
26155W        W98580  23.133  17.736  11.997
26156W        W98581  17.443  22.986  13.429
26157W        W98582   3.339   2.837   0.495
26158W        W98583  19.654  38.348  10.686
26159W        W98584  37.051   8.382  11.260
26160W        W98585  24.072  33.170   2.633
26161W        W98586  30.649  22.243   2.353
26162W        W98587  23.434  10.870  13.382
26163W        W98588   5.623  10.959   2.369
26164W        W98589  23.169  37.531  13.912
26165W        W98590  10.215  14.067  14.216
26166W        W98591  29.952  42.563   1.460
26167W        W98592   3.790  30.344   3.969
26168W        W98593   4.394  40.954   3.075
26169W        W98594  37.452  19.240   0.458
26170W        W98595   4.442  40.347  14.757
26171W        W98596   2.960   1.869   4.188
26172W        W98597  36.941  33.137  14.171
26173W        W98598  19.544   3.685  12.915
26174W        W98599  14.582  42.529  12.154
26175W        W98600  32.673  25.084   2.187
26176W        W98601  32.424  34.977  10.716
26177W        W98602  37.752  13.806   2.954
26178W        W98603  33.858  31.136   1.522
26179W        W98604   5.821   2.744  10.600
26180W        W98605  29.729  24.409   0.369
26181W        W98606  34.040  36.285  11.460
26182W        W98607  24.606   7.750   0.547
26183W        W98608   0.032  12.755   1.254
26184W        W98609  37.934  11.841  11.523
26185W        W98610  17.580  31.714  12.245
26186W        W98611  43.483  27.051  10.605
26187W        W98612  34.821  30.443   2.845
26188W        W98613  23.687  19.848  11.915
26189W        W98614  28.912   4.229  11.620
26190W        W98615  19.174   6.966  12.194
26191W        W98616  21.778  26.118  14.379
26192W        W98617  41.227   9.369  14.586
26193W        W98618   9.527  20.427   2.239
26194W        W98619  15.207   1.731   3.466
26195W        W98620  32.593   0.436  11.590
26196W        W98621  43.260  25.125  11.536
26197W        W98622  42.540  11.072   3.614
26198W        W98623  43.249  28.335   0.087
26199W        W98624   9.855  35.330   0.908
26200W        W98625  10.920   0.840   1.501
26201W        W98626  10.185  17.821   2.211
26202W        W98627  27.516  21.730  12.001
26203W        W98628  10.814  22.661   3.299
26204W        W98629   8.595   8.266   1.233
26205W        W98630  20.219  21.931  12.841
26206W        W98631  23.246  39.834   4.266
26207W        W98632   7.740   8.730   4.689
26208W        W98633   8.444  37.377   1.264
26209W        W98634  37.602  22.803   4.276
26210W        W98635  18.525  11.323  11.197
26211W        W98636  32.648   2.886  13.479
26212W        W98637   5.893  41.000   0.018
26213W        W98638  18.837  17.768  10.996
26214W        W98639  17.772  11.708  13.840
26215W        W98640  34.783  38.130   4.148
26216W        W98641  41.362  17.190   1.353
26217W        W98642  37.937  32.164  10.624
26218W        W98643  17.062  36.276   4.565
26219W        W98644  32.142  24.892   0.761
26220W        W98645  20.065   7.374  14.016
26221W        W98646  21.206   0.835   5.209
26222W        W98647  39.274  41.508   3.262
26223W        W98648  37.319  15.571  13.620
26224W        W98649   1.245  15.664  10.035
26225W        W98650  35.877  39.185  11.180
26226W        W98651  15.191  28.567   4.183
26227W        W98652   4.004  36.438   4.760
26228W        W98653   9.610  19.721  12.845
26229W        W98654  26.596  21.901   3.122
26230W        W98655  30.467  21.008  12.275
26231W        W98656  21.105  38.955   2.678
26232W        W98657  17.299  19.020   0.220
26233W        W98658  27.536  29.167   1.755
26234W        W98659  32.217  11.404  12.991
26235W        W98660   9.996   2.009   0.630
26236W        W98661  14.567  26.905   4.129
26237W        W98662  18.125  30.777   4.185
26238W        W98663  32.952  20.052   3.165
26239W        W98664  41.972  13.327  10.498
26240W        W98665   5.226  43.861  11.253
26241W        W98666  24.323  40.327  11.743
26242W        W98667  11.717  37.103   1.679
26243W        W98668  37.348  34.876   3.629
26244W        W98669   9.856  29.224   2.742
26245W        W98670  17.486   3.978  14.785
26246W        W98671  14.143  10.196  14.532
26247W        W98672   2.784  19.298   2.169
26248W        W98673  27.777   5.159  14.783
26249W        W98674  38.894  20.120   0.967
26250W        W98675  15.191   0.118   4.578
26251W        W98676  22.696  22.585   2.828
26252W        W98677  31.255   8.744   4.632
26253W        W98678  20.346  17.788  13.789
26254W        W98679  24.083  31.089   0.825
26255W        W98680  36.372  10.384   4.994
26256W        W98681   5.324  40.660  14.665
26257W        W98682   5.979  39.333   0.433
26258W        W98683   5.920  42.616   4.598
26259W        W98684  10.872  37.521  14.756
26260W        W98685  30.938  39.066   2.762
26261W        W98686   7.876  41.989   4.878
26262W        W98687   4.144  22.446   0.767
26263W        W98688  15.592  27.439   3.256
26264W        W98689   6.130  44.783   0.418
26265W        W98690  29.590  22.192   1.467
26266W        W98691  28.481  28.314  14.330
26267W        W98692  28.323   5.779  11.234
26268W        W98693  25.173   4.927   4.953
26269W        W98694  20.230  13.619  12.301
26270W        W98695  33.462  10.252   1.709
26271W        W98696  32.769  39.589   4.683
26272W        W98697  32.678  15.165  12.740
26273W        W98698  18.250   8.882  14.395
26274W        W98699  11.694  21.601   0.887
26275W        W98700  41.046   5.455  13.581
26276W        W98701  10.863  26.473  12.512
26277W        W98702  18.800  37.021  11.144
26278W        W98703  36.530  19.514  14.332
26279W        W98704  19.989  28.622   2.315
26280W        W98705  33.036  33.917  12.004
26281W        W98706   5.241  16.311   0.376
26282W        W98707  23.067  39.345   4.967
26283W        W98708   6.400  29.869   3.481
26284W        W98709  15.233  11.105  10.711
26285W        W98710  11.587   5.380   2.725
26286W        W98711  15.079  15.614   0.876
26287W        W98712  24.490  17.612   0.937
26288W        W98713  23.240  13.696   3.861
26289W        W98714  15.754   9.418   3.174
26290W        W98715  25.438  41.662  12.332
26291W        W98716  19.789   3.417  14.939
26292W        W98717  25.835  35.452   4.067
26293W        W98718   9.257   0.798  13.761
26294W        W98719   0.288   7.204   4.867
26295W        W98720  40.043  25.940  14.302
26296W        W98721   8.306  14.198  10.722
26297W        W98722  10.595  39.592  11.451
26298W        W98723  19.270  22.042  11.966
26299W        W98724  10.202  35.117   4.826
26300W        W98725  20.132  41.527  11.718
26301W        W98726  28.676  19.731   2.540
26302W        W98727  18.753  16.583  14.296
26303W        W98728  15.184  35.386   1.208
26304W        W98729   2.165  11.763   1.150
26305W        W98730  11.272  26.577  11.133
26306W        W98731  17.006  31.195   3.332
26307W        W98732  33.669  32.320  12.477
26308W        W98733   6.824   2.776  14.939
26309W        W98734   1.948  14.142   4.978
26310W        W98735  38.734  41.118  14.313
26311W        W98736  10.341  31.568   4.591
26312W        W98737  20.746  32.536  12.645
26313W        W98738  28.702  43.488   2.541
26314W        W98739  34.430  40.932   0.421
26315W        W98740  29.200  37.008   1.762
26316W        W98741   3.903   9.363   3.612
26317W        W98742  30.102   3.882  10.698
26318W        W98743  24.469  34.081  10.844
26319W        W98744  16.123  41.370  13.541
26320W        W98745  18.726  29.699   1.765
26321W        W98746  22.046   9.855   4.551
26322W        W98747  25.184  15.202   1.574
26323W        W98748  19.339  34.002   1.441
26324W        W98749   3.687  15.611  12.599
26325W        W98750   8.694   3.783  14.499
26326W        W98751  28.084   0.025  10.353
26327W        W98752  24.289  38.731   3.330
26328W        W98753  12.635  44.529  13.908
26329W        W98754  10.449  19.128   3.840
26330W        W98755  41.529  41.295   2.820
26331W        W98756  33.179  44.983   4.524
26332W        W98757  23.101  18.044  10.692
26333W        W98758  43.273  30.383   0.933
26334W        W98759  36.316  33.769  12.012
26335W        W98760  33.471  17.219  14.843
26336W        W98761   0.010   6.812  11.515
26337W        W98762  27.678  17.548  14.550
26338W        W98763  19.068  27.911   3.310
26339W        W98764  32.985  37.813   4.175
26340W        W98765  12.461  30.221  11.919
26341W        W98766  25.099  24.071   5.176
26342W        W98767  29.534  12.922   2.475
26343W        W98768   1.992   1.705  14.456
26344W        W98769  24.151   6.475  13.565
26345W        W98770  43.032  11.749  12.690
26346W        W98771   3.188  28.577  11.940
26347W        W98772   0.289  23.634   2.086
26348W        W98773  11.900  32.885  13.993
26349W        W98774  39.011   3.657  12.154
26350W        W98775  17.232  35.879  11.624
26351W        W98776   8.471  19.445   4.327
26352W        W98777  34.447  17.679  12.898
26353W        W98778   3.408  12.609  13.391
26354W        W98779  26.678  10.802   0.205
26355W        W98780   6.228  17.274   3.189
26356W        W98781  31.686  34.790   4.120
26357W        W98782  35.674  13.527   3.971
26358W        W98783   1.687  38.722  10.370
26359W        W98784  13.157  21.516   1.797
26360W        W98785  11.422  14.840  12.090
26361W        W98786  31.694  29.925   2.308
26362W        W98787  40.338  25.514   1.723
26363W        W98788  40.055  10.304   4.675
26364W        W98789  27.140  27.701   4.648
26365W        W98790   0.671  34.078   0.896
26366W        W98791  42.745   8.965  10.551
26367W        W98792  24.783  37.543  11.501
26368W        W98793  10.441  31.811  12.895
26369W        W98794  24.439  31.355  13.397
26370W        W98795  35.458  42.702   3.406
26371W        W98796  30.811  18.098  14.559
26372W        W98797   5.781  41.635   4.676
26373W        W98798   2.941  30.626  13.043
26374W        W98799   5.702  21.035   3.380
26375W        W98800   9.224   1.539   1.977
26376W        W98801   2.777  16.825   1.305
26377W        W98802  43.107  15.819   0.064
26378W        W98803  42.285   1.879  13.445
26379W        W98804   8.291  22.291  12.442
26380W        W98805  31.383  15.011   4.049
26381W        W98806  36.010   6.231  13.464
26382W        W98807  17.316  21.319  12.778
26383W        W98808   0.472   4.708   1.187
26384W        W98809  44.735  15.667  12.613
26385W        W98810   4.518  30.125  14.956
26386W        W98811   8.480  23.607   3.083
26387W        W98812  39.164  11.100  14.509
26388W        W98813  16.504   1.591   3.766
26389W        W98814  40.896   0.399   4.212
26390W        W98815  39.529   6.242   1.960
26391W        W98816  10.763  23.662   0.204
26392W        W98817  33.119   4.420  10.615
26393W        W98818  19.648  19.414  11.969
26394W        W98819   9.146   0.013   3.654
26395W        W98820  38.865  33.970  14.760
26396W        W98821  14.614  21.262   0.243
26397W        W98822  16.056  10.437  13.960
26398W        W98823   2.676   8.209  13.407
26399W        W98824  19.635  21.464   0.287
26400W        W98825  11.761  43.768   2.770
26401W        W98826  15.757  23.488  11.549
26402W        W98827   6.948   7.375   0.719
26403W        W98828  20.566  29.495  12.416
26404W        W98829  14.460   7.219  14.279
26405W        W98830  27.193  16.292   4.848
26406W        W98831  21.797   7.389  12.671
26407W        W98832   8.439   8.940  11.609
26408W        W98833  25.269  16.109   4.291
26409W        W98834   6.437   8.434   2.288
26410W        W98835   5.314   3.591   1.195
26411W        W98836  26.394  31.533  10.074
26412W        W98837  39.552   4.100   0.306
26413W        W98838  18.145  30.461  12.990
26414W        W98839  22.625  12.464  12.060
26415W        W98840   9.719  18.731   0.434
26416W        W98841  22.718   6.312   4.283
26417W        W98842  12.283  31.840  12.511
26418W        W98843  14.855  14.530  11.169
26419W        W98844   8.194  37.184   1.767
26420W        W98845  29.634   3.019   2.151
26421W        W98846  27.138  31.320   3.266
26422W        W98847  31.374  36.577  12.923
26423W        W98848  43.815  36.688   4.467
26424W        W98849  31.527   9.456   1.372
26425W        W98850  22.101   7.731  13.615
26426W        W98851  29.607   9.806  10.846
26427W        W98852  14.860  24.647  10.868
26428W        W98853  31.150  28.544  12.415
26429W        W98854  26.609  35.200   4.323
26430W        W98855  23.073  24.416  12.067
26431W        W98856   9.809  14.286  13.991
26432W        W98857  13.260  38.556  14.824
26433W        W98858  23.042  10.431  11.438
26434W        W98859   8.945  33.959  11.633
26435W        W98860   6.473  21.659   0.915
26436W        W98861  42.039  24.784   5.042
26437W        W98862  12.523  41.877  11.639
26438W        W98863  26.103   4.677   2.845
26439W        W98864  37.306   6.339   4.983
26440W        W98865  18.676  21.355  11.908
26441W        W98866  37.625   2.386  14.541
26442W        W98867  10.959   8.879   2.825
26443W        W98868  40.408  13.856  13.521
26444W        W98869   1.222   1.846   1.888
26445W        W98870  31.849   8.639   1.419
26446W        W98871   8.876  32.480  13.889
26447W        W98872   0.849   9.683  11.775
26448W        W98873  18.800  38.123  11.716
26449W        W98874  13.357  33.141  11.667
26450W        W98875   3.306   0.925  12.667
26451W        W98876  28.832  15.193   2.170
26452W        W98877  25.505  10.289  12.860
26453W        W98878  19.969  39.418   4.554
26454W        W98879   9.401  44.385   1.515
26455W        W98880  27.035   7.939  12.007
26456W        W98881  22.952  21.710  14.934
26457W        W98882   1.546  31.994  14.372
26458W        W98883   4.198  14.307   1.107
26459W        W98884   7.957  36.093  12.034
26460W        W98885   5.787  13.786   2.756
26461W        W98886  42.741  37.386  10.756
26462W        W98887  32.440   9.579   0.315
26463W        W98888  43.779  12.712   1.761
26464W        W98889  11.024  16.044   0.537
26465W        W98890  10.119   5.764  13.703
26466W        W98891   4.253   2.942   0.332
26467W        W98892  14.765  15.249  11.614
26468W        W98893  41.450  31.871   0.274
26469W        W98894  28.204  30.501   9.607
26470W        W98895  32.407  42.334  11.886
26471W        W98896  15.001  40.834  14.387
26472W        W98897  26.669  22.811  11.426
26473W        W98898  11.870  38.854   2.738
26474W        W98899  19.901  25.974   4.846
26475W        W98900  33.484  11.807   4.023
26476W        W98901  28.020  14.109  14.984
26477W        W98902  44.575  36.485   1.010
26478W        W98903   9.268   1.267  13.513
26479W        W98904  22.504  38.352   1.604
26480W        W98905  41.688  18.331   3.357
26481W        W98906  42.419  32.051   4.327
26482W        W98907   5.878  21.725   3.005
26483W        W98908  15.463  13.908   2.729
26484W        W98909  15.652  32.479   3.316
26485W        W98910  21.885  16.571  14.844
26486W        W98911  44.202  21.758   3.346
26487W        W98912   7.331  44.999   1.712
26488W        W98913  19.180  44.731  13.932
26489W        W98914  44.983  19.676   3.158
26490W        W98915  32.847  39.355   4.192
26491W        W98916  39.041   0.860  13.054
26492W        W98917  32.218  27.158   2.485
26493W        W98918  33.141   5.232  12.871
26494W        W98919  10.380  22.017  11.176
26495W        W98920  44.835  15.524   0.009
26496W        W98921  36.730  20.184   3.273
26497W        W98922  30.524  19.273   3.764
26498W        W98923  28.183  16.737   3.535
26499W        W98924  13.298  20.225  10.651
26500W        W98925  31.362  12.752   1.299
26501W        W98926  37.838   7.511   2.332
26502W        W98927  11.177  25.051  10.949
26503W        W98928  15.476  37.392  14.968
26504W        W98929  31.654  21.543   0.339
26505W        W98930   0.855  14.326  14.215
26506W        W98931   1.672  11.269  13.898
26507W        W98932   4.314  44.263  14.453
26508W        W98933  27.872  37.085   4.672
26509W        W98934  42.545   8.249  11.176
26510W        W98935  19.860  35.036  13.472
26511W        W98936  34.862  16.918   4.201
26512W        W98937  26.966  20.029  13.735
26513W        W98938  37.885  19.754  14.286
26514W        W98939  29.845  25.672   1.230
26515W        W98940  39.862  23.058  12.025
26516W        W98941  33.156   0.029  13.567
26517W        W98942   0.456  12.506   4.007
26518W        W98943  32.481  12.368  12.079
26519W        W98944  23.406  21.276   4.473
26520W        W98945  13.786   9.663  12.013
26521W        W98946   2.599   8.778  11.979
26522W        W98947  38.792  32.655   1.427
26523W        W98948   8.247  20.276  11.516
26524W        W98949  33.381   7.103   0.945
26525W        W98950  30.948  42.440   0.979
26526W        W98951  24.436  22.233  13.709
26527W        W98952   0.750  28.648  14.793
26528W        W98953  19.026  12.802  12.413
26529W        W98954  17.396   0.980  10.582
26530W        W98955  18.692  36.862   3.325
26531W        W98956  30.795  18.058  12.658
26532W        W98957  21.277  35.524  10.428
26533W        W98958  10.105  16.709   3.941
26534W        W98959  18.494  43.283   1.923
26535W        W98960  44.788   8.783  10.831
26536W        W98961  33.966  43.708   0.466
26537W        W98962  29.136   6.289   0.846
26538W        W98963  27.557  44.621   9.974
26539W        W98964  23.224  36.477  11.954
26540W        W98965  16.928  12.318  14.268
26541W        W98966   7.241   3.740  12.435
26542W        W98967  36.544   1.750  12.420
26543W        W98968  35.127   6.391  11.433
26544W        W98969   0.266   7.329   0.382
26545W        W98970  18.673  26.158  13.463
26546W        W98971  15.386  15.325  10.797
26547W        W98972  30.464  10.893  13.822
26548W        W98973  41.376  36.880   3.975
26549W        W98974   9.051  34.603   3.989
26550W        W98975  39.582  27.486  12.623
26551W        W98976  39.890  43.431  12.984
26552W        W98977  26.413  17.126  11.093
26553W        W98978   3.603  17.239   0.943
26554W        W98979  28.586  43.424  11.880
26555W        W98980  43.485   2.843   2.810
26556W        W98981   8.236  21.564  12.927
26557W        W98982  20.294  30.360   2.622
26558W        W98983  18.334  31.176  10.510
26559W        W98984  23.003  41.006  13.607
26560W        W98985   5.150  41.059  13.417
26561W        W98986   8.697  44.562  13.888
26562W        W98987   9.103  30.908   0.411
26563W        W98988  30.468  44.474   5.067
26564W        W98989  28.212  36.639   4.060
26565W        W98990  19.415  18.923  14.281
26566W        W98991  20.968   9.328   5.077
26567W        W98992  33.174  12.611   0.911
26568W        W98993   0.483  44.266   1.264
26569W        W98994  21.378  16.650  13.888
26570W        W98995   0.479  42.253   0.794
26571W        W98996  34.636  29.463  13.806
26572W        W98997   0.352   1.955  13.674
26573W        W98998  10.117  21.430   5.083
26574W        W98999   9.975  44.342  11.106
26575W        W99000  22.700  28.642   2.817
26576W        W99001  40.715   3.341   0.800
26577W        W99002  41.667  15.285   4.221
26578W        W99003  40.434  28.182   2.955
26579W        W99004  31.591  34.865  11.085
26580W        W99005  37.336  14.943  12.970
26581W        W99006  20.475  38.829   4.935
26582W        W99007   3.903  43.741  10.930
26583W        W99008   7.749  41.631  13.015
26584W        W99009  35.874  12.560  13.744
26585W        W99010   8.906   9.781   2.926
26586W        W99011  16.104  34.427  14.530
26587W        W99012  28.441  24.978  14.841
26588W        W99013  10.636  24.365   3.296
26589W        W99014  41.198  14.753   4.628
26590W        W99015  40.222  28.941  13.228
26591W        W99016  20.134  21.159   1.160
26592W        W99017  35.495   1.495  14.392
26593W        W99018  41.313  43.179  10.763
26594W        W99019  15.397  18.179  11.079
26595W        W99020   5.855  34.079  13.456
26596W        W99021   0.221  10.392  12.975
26597W        W99022  43.350  19.642  12.160
26598W        W99023   4.403  30.699   1.694
26599W        W99024  25.550  15.315  14.459
26600W        W99025   8.171  37.333   3.067
26601W        W99026   7.800  10.712  14.880
26602W        W99027  18.692  28.940   1.244
26603W        W99028   2.779  14.815  12.527
26604W        W99029  38.438  17.794  13.506
26605W        W99030  43.853  33.462   4.299
26606W        W99031  22.322  12.092   3.825
26607W        W99032  34.885  12.910   2.055
26608W        W99033  40.707  43.424   0.870
26609W        W99034  17.562  12.778   4.808
26610W        W99035  16.595  25.963   1.247
26611W        W99036  25.702  16.838  14.283
26612W        W99037   1.379  35.026   4.197
26613W        W99038  19.784  31.218   0.892
26614W        W99039  37.963  34.543  11.916
26615W        W99040   1.034  40.605   3.761
26616W        W99041  38.578  13.887  13.395
26617W        W99042  37.400   3.415  12.583
26618W        W99043  22.317  44.128  12.275
26619W        W99044  16.565  31.367  13.009
26620W        W99045  25.043   7.825  11.240
26621W        W99046  43.371  43.888  10.837
26622W        W99047  42.473  40.048  11.911
26623W        W99048  18.119  12.771  12.633
26624W        W99049  10.311   0.878  11.619
26625W        W99050  32.165   6.873  14.473
26626W        W99051  13.629  28.084   1.032
26627W        W99052   3.372  38.492  13.992
26628W        W99053  29.380  35.090   2.425
26629W        W99054  19.228  24.466   0.045
26630W        W99055   3.192  39.173   3.860
26631W        W99056  40.823  10.783  11.115
26632W        W99057   3.484  35.087  10.471
26633W        W99058   2.420   0.877   4.632
26634W        W99059   1.814  42.911   2.318
26635W        W99060  41.667   9.685  13.964
26636W        W99061  11.267  14.462   1.423
26637W        W99062   5.764  20.949  10.547
26638W        W99063  23.144  25.205   2.301
26639W        W99064  29.824   0.497  11.490
26640W        W99065   9.362   2.969   4.876
26641W        W99066  28.621  15.534  11.149
26642W        W99067  26.065  37.040   3.411
26643W        W99068   4.485  14.548  13.939
26644W        W99069  19.152   9.080  13.335
26645W        W99070  27.477  21.858   0.610
26646W        W99071  14.414  22.501   0.112
26647W        W99072  32.621  13.910  12.061
26648W        W99073   5.776  11.197  11.509
26649W        W99074   4.754  41.955   2.748
26650W        W99075   9.927  16.654   0.942
26651W        W99076  17.576  37.626  10.639
26652W        W99077  10.618  37.107   1.460
26653W        W99078  25.719  23.451  13.071
26654W        W99079   4.422  21.110   2.247
26655W        W99080   3.354  32.432  10.711
26656W        W99081  26.001  29.677   1.821
26657W        W99082  35.099  12.128  13.778
26658W        W99083  23.940   7.354   0.712
26659W        W99084  27.165  28.397  10.731
26660W        W99085   8.997  19.630   1.263
26661W        W99086  14.147  25.061  11.044
26662W        W99087  44.538  32.485   3.567
26663W        W99088  44.886  26.648   1.692
26664W        W99089   7.118  34.510   2.318
26665W        W99090  17.184  34.161   2.367
26666W        W99091  13.089   1.148   2.726
26667W        W99092  39.210  42.381   1.542
26668W        W99093   5.359   0.372   2.866
26669W        W99094  22.533  42.689   3.043
26670W        W99095  36.511   4.327  14.086
26671W        W99096   5.466  15.589  11.987
26672W        W99097  18.907  29.226   5.472
26673W        W99098  22.115  42.945   0.737
26674W        W99099  24.616  12.279  11.502
26675W        W99100   3.000  38.071   0.935
26676W        W99101  32.258  42.593  11.460
26677W        W99102  19.669  22.309  13.462
26678W        W99103   5.532  31.967   5.078
26679W        W99104  13.407  14.254   3.391
26680W        W99105  41.069  37.130   3.184
26681W        W99106  32.787  36.224  13.401
26682W        W99107  27.652  33.013   0.313
26683W        W99108  21.323  12.279  11.426
26684W        W99109  39.894  25.584   0.561
26685W        W99110  33.114   5.156   2.557
26686W        W99111  43.847  44.528  12.437
26687W        W99112  21.997  37.347  14.818
26688W        W99113  37.622  11.742   3.159
26689W        W99114  33.012  18.341   9.734
26690W        W99115  12.116  23.335   1.193
26691W        W99116  38.775  17.106  11.574
26692W        W99117  20.057  17.139  13.843
26693W        W99118   2.248  36.491   4.351
26694W        W99119  10.008  22.381  11.408
26695W        W99120  31.658  24.971  12.493
26696W        W99121  13.615  21.203   4.941
26697W        W99122  25.136  25.432  11.950
26698W        W99123   2.251   0.885   2.733
26699W        W99124  33.650  27.360  12.414
26700W        W99125  31.902   7.654  12.504
26701W        W99126  26.762  14.181  11.701
26702W        W99127  19.767  32.588   0.841
26703W        W99128  36.647   6.976  13.557
26704W        W99129  25.121  30.979  12.063
26705W        W99130   8.123  35.590  13.346
26706W        W99131  24.959  21.606  10.701
26707W        W99132  10.474  32.527  12.325
26708W        W99133  13.358  40.356   5.044
26709W        W99134  16.102  24.161   4.729
26710W        W99135   5.464  16.223  11.737
26711W        W99136   1.301   4.297  11.042
26712W        W99137   8.174  38.978   2.362
26713W        W99138  25.362   4.105  11.183
26714W        W99139  13.049  11.331  11.232
26715W        W99140  15.265  31.441   4.694
26716W        W99141  31.910   9.243  11.292
26717W        W99142   2.301  37.757  10.798
26718W        W99143  16.372  28.414   0.297
26719W        W99144  34.110   0.583   0.347
26720W        W99145  44.313  39.986  11.905
26721W        W99146   7.858  35.071   4.565
26722W        W99147   4.188  19.061  11.986
26723W        W99148   8.187   1.874   4.100
26724W        W99149  31.745  36.477   3.629
26725W        W99150  23.946   1.437  12.929
26726W        W99151   4.229  41.595  14.237
26727W        W99152  31.604  44.043   0.831
26728W        W99153  13.341  26.123   3.436
26729W        W99154  20.753   2.694  10.588
26730W        W99155  33.961  17.607  12.651
26731W        W99156  16.608   5.383   0.847
26732W        W99157   0.010  33.646  12.021
26733W        W99158   8.896  33.489  10.003
26734W        W99159  40.489   2.922   3.912
26735W        W99160  39.579  39.158   2.722
26736W        W99161   6.012  34.426  13.802
26737W        W99162  23.038  30.019   2.701
26738W        W99163   0.802  42.373  12.596
26739W        W99164  42.893   9.653  12.537
26740W        W99165  17.725  38.390   0.281
26741W        W99166   4.471  37.964  11.205
26742W        W99167  44.284  41.883  14.497
26743W        W99168   2.987   7.125  11.552
26744W        W99169  17.173  32.695   4.229
26745W        W99170  33.499  28.864  14.931
26746W        W99171  23.601  17.944   0.104
26747W        W99172  22.255  38.451   2.846
26748W        W99173  41.295  14.316  13.245
26749W        W99174  38.195  32.785  14.994
26750W        W99175  32.216  16.601  14.795
26751W        W99176  29.591  13.840   0.882
26752W        W99177   4.957  17.922  11.048
26753W        W99178   1.668   7.799   4.196
26754W        W99179  22.226  10.125   0.297
26755W        W99180  38.840  42.827  12.104
26756W        W99181   6.679  43.479   3.669
26757W        W99182  21.159  24.691  11.461
26758W        W99183  35.369  23.007   3.883
26759W        W99184  38.984  30.201   3.783
26760W        W99185  33.946   6.973   3.100
26761W        W99186   1.779  27.304  13.359
26762W        W99187   4.783  34.038  11.911
26763W        W99188  27.985   6.351   2.368
26764W        W99189  22.587  42.151  12.300
26765W        W99190   3.736  21.488  12.851
26766W        W99191   0.950   6.324  14.807
26767W        W99192  21.007  16.979   1.523
26768W        W99193  10.328   2.410   3.870
26769W        W99194  11.164  36.403  12.226
26770W        W99195  10.253  43.870  11.061
26771W        W99196  10.601  33.823  10.684
26772W        W99197   6.262  21.967   1.299
26773W        W99198   5.832  18.064   1.960
26774W        W99199  42.544  36.600   3.681
26775W        W99200  15.746  23.126   0.144
26776W        W99201  25.759  12.088  10.744
26777W        W99202  13.824   6.499   2.650
26778W        W99203  32.161  34.342   1.722
26779W        W99204  43.945  23.953   4.605
26780W        W99205  33.129  12.569  13.946
26781W        W99206   9.834  34.619  13.563
26782W        W99207  12.210  43.381  14.108
26783W        W99208  14.416  26.675  13.555
26784W        W99209  15.871  38.154   3.211
26785W        W99210  39.262  17.523   3.169
26786W        W99211  22.186  19.245  14.797
26787W        W99212  13.033  22.462   4.024
26788W        W99213  10.188  34.024  14.719
26789W        W99214  11.440  33.929  12.364
26790W        W99215   6.870   4.580   4.833
26791W        W99216  10.343   5.688   4.579
26792W        W99217  12.183  44.014   1.764
26793W        W99218   0.665  13.120  12.525
26794W        W99219  41.247  32.200  12.011
26795W        W99220  20.292  27.851  13.830
26796W        W99221  41.319   1.513   3.808
26797W        W99222  40.981  25.669  12.450
26798W        W99223  31.099   5.665   3.628
26799W        W99224  29.440  36.016   0.380
26800W        W99225  15.585   0.577   9.847
26801W        W99226  43.562  32.124   2.404
26802W        W99227   4.107  20.207   1.304
26803W        W99228  25.940  16.193   1.222
26804W        W99229  28.110  44.300  12.241
26805W        W99230  18.520  30.861  10.109
26806W        W99231   2.345  25.086  10.633
26807W        W99232   2.029  30.679   0.822
26808W        W99233  15.039  44.062  11.663
26809W        W99234  29.593  39.344  11.698
26810W        W99235  27.804   5.543   3.868
26811W        W99236  35.656  12.071  11.493
26812W        W99237   3.890  15.717  12.129
26813W        W99238  44.709  34.078   0.479
26814W        W99239   8.921  19.077   4.011
26815W        W99240  17.279   4.133   2.910
26816W        W99241  33.317  41.868   1.953
26817W        W99242  15.884  23.248  12.033
26818W        W99243  38.881  44.464  12.753
26819W        W99244  40.364  40.414   3.711
26820W        W99245  12.742  20.100  13.064
26821W        W99246   7.684  30.580  11.169
26822W        W99247  10.159  17.429  11.570
26823W        W99248  30.337   2.225   2.849
26824W        W99249  14.244  19.002   3.655
26825W        W99250  27.907  29.775   5.112
26826W        W99251   1.270  26.197  14.859
26827W        W99252  27.917  44.676   0.904
26828W        W99253  10.357   7.301   1.288
26829W        W99254   5.234  40.454   1.872
26830W        W99255  11.891  29.207  13.166
26831W        W99256  11.321  11.701  11.656
26832W        W99257  36.322  29.475  11.103
26833W        W99258   2.968   6.345  11.948
26834W        W99259  42.731  44.934   4.059
26835W        W99260   7.773   3.436   4.562
26836W        W99261  37.431   9.935  12.640
26837W        W99262  14.141  26.417   3.816
26838W        W99263  32.627   2.263  10.582
26839W        W99264  13.461   3.901   3.484
26840W        W99265  25.090  37.852   3.310
26841W        W99266  22.658  27.571  14.034
26842W        W99267  19.634  27.456  12.771
26843W        W99268  39.290  15.738   3.744
26844W        W99269  42.536  12.858   0.295
26845W        W99270   8.908  13.274   0.972
26846W        W99271  29.017   2.743   4.089
26847W        W99272  38.867   8.630  12.182
26848W        W99273   0.548   1.751  12.821
26849W        W99274  43.297  24.398   2.932
26850W        W99275  28.873  16.081   2.693
26851W        W99276  32.146  19.229  10.302
26852W        W99277  42.555  14.349   0.360
26853W        W99278  28.962  24.169   1.275
26854W        W99279  18.568  30.451   4.215
26855W        W99280  44.569  12.231   4.050
26856W        W99281  14.594  14.097  11.122
26857W        W99282  40.459  33.059  10.951
26858W        W99283   9.088  19.208  11.921
26859W        W99284   6.581  33.838   0.780
26860W        W99285   4.148   0.461  11.058
26861W        W99286  41.022   4.939  10.615
26862W        W99287  35.797  44.402   0.088
26863W        W99288  18.073  29.799  13.823
26864W        W99289  35.540   1.542  10.548
26865W        W99290  13.905   1.407   1.336
26866W        W99291  37.884  28.934  12.415
26867W        W99292  41.849  40.604   2.848
26868W        W99293  20.175  22.456  12.880
26869W        W99294   5.301  32.870  11.687
26870W        W99295  38.967  24.607   4.075
26871W        W99296   9.725  23.759   1.729
26872W        W99297   8.822  10.700   3.392
26873W        W99298  12.308   5.162  13.400
26874W        W99299   3.835  13.029   3.345
26875W        W99300  42.338  18.573   0.840
26876W        W99301   7.609  35.318   0.367
26877W        W99302  25.169  16.007   4.826
26878W        W99303   5.979  40.507   2.310
26879W        W99304   4.780  34.918  10.364
26880W        W99305   5.834  23.695  13.485
26881W        W99306  18.123  16.032  12.192
26882W        W99307   0.295   2.853  13.549
26883W        W99308  11.311  29.600   2.351
26884W        W99309  38.551  26.224   1.887
26885W        W99310   1.168   8.259  14.984
26886W        W99311  14.620  20.523   2.122
26887W        W99312  30.662   7.299   4.628
26888W        W99313  10.440  27.122  14.608
26889W        W99314  39.616  10.214   4.394
26890W        W99315  11.106  30.021   1.715
26891W        W99316  42.082  33.050   2.529
26892W        W99317  28.583  18.639   4.628
26893W        W99318  10.315   4.339   1.416
26894W        W99319  11.051  17.471   0.507
26895W        W99320  22.977   1.261  14.237
26896W        W99321   7.647   8.850  14.121
26897W        W99322  38.385  16.330   1.341
26898W        W99323  37.762   8.807  13.170
26899W        W99324   3.993  17.686   4.459
26900W        W99325  21.885  16.260  13.010
26901W        W99326  40.839   1.740   3.158
26902W        W99327  41.544   7.346   0.343
26903W        W99328  32.213  32.089   1.816
26904W        W99329  42.943  20.237  14.438
26905W        W99330   7.236  40.834  14.844
26906W        W99331  34.520   9.652  13.929
26907W        W99332  28.014   9.310  14.024
26908W        W99333  24.124  37.959   4.501
26909W        W99334  29.113  36.546   3.584
26910W        W99335   5.931  39.260   2.865
26911W        W99336  18.153  37.907  12.829
26912W        W99337  10.302  26.936   2.722
26913W        W99338  23.537  44.270   3.151
26914W        W99339  41.689   2.436   0.807
26915W        W99340  17.255  17.573  10.727
26916W        W99341  23.727  11.826  13.446
26917W        W99342  15.546  11.687  13.474
26918W        W99343  38.017  34.901   1.669
26919W        W99344  20.561   5.215  11.545
26920W        W99345  13.588  16.207  10.699
26921W        W99346  40.417  15.086  10.717
26922W        W99347  40.796  26.956   2.873
26923W        W99348  16.816  10.126  14.384
26924W        W99349  29.220  35.140  11.215
26925W        W99350  32.475  44.469   0.528
26926W        W99351  14.876  29.555  12.862
26927W        W99352  32.870  34.065  11.554
26928W        W99353   4.894  20.114   0.893
26929W        W99354  17.202  25.476   1.335
26930W        W99355  25.621  14.154  13.089
26931W        W99356  27.137  30.551  10.243
26932W        W99357   5.388  42.114   1.293
26933W        W99358  24.245   1.188   0.677
26934W        W99359  27.156   4.960   3.767
26935W        W99360  36.544  22.537  11.447
26936W        W99361  43.918  24.237  13.750
26937W        W99362   5.904  23.176   1.750
26938W        W99363  31.273  13.621   2.345
26939W        W99364  18.648  12.908  14.307
26940W        W99365  20.728   0.984   0.276
26941W        W99366  12.070   3.321   0.167
26942W        W99367  41.764  26.487  13.146
26943W        W99368  41.012  25.494  11.552
26944W        W99369   0.461   6.132   3.205
26945W        W99370   4.956  17.253   4.607
26946W        W99371  41.915  19.089   1.754
26947W        W99372  36.324  42.346  12.024
26948W        W99373  11.260  42.909  10.274
26949W        W99374  11.772  29.187  12.143
26950W        W99375  26.240  44.642  11.150
26951W        W99376  35.914  28.162   0.275
26952W        W99377   3.659  32.213  12.869
26953W        W99378   7.287  39.538   1.793
26954W        W99379  40.187  21.139   4.121
26955W        W99380  28.827  19.045   4.383
26956W        W99381  29.577   9.848   3.448
26957W        W99382  27.411   9.069  14.841
26958W        W99383  13.144  40.634  10.740
26959W        W99384  34.043  37.981  11.558
26960W        W99385  40.423   7.696  12.207
26961W        W99386   9.223  15.301  10.714
26962W        W99387  21.174  18.134  11.615
26963W        W99388  10.721  34.593  13.502
26964W        W99389  36.582  12.716   2.327
26965W        W99390  31.977  14.263  14.376
26966W        W99391  36.560   8.421   2.817
26967W        W99392  26.972  13.508  13.386
26968W        W99393  41.893  18.349   0.994
26969W        W99394  15.375  20.922  12.137
26970W        W99395  14.705   4.719  11.995
26971W        W99396   8.658   8.677   3.698
26972W        W99397  34.107  14.076   3.327
26973W        W99398  12.219  30.679   2.082
26974W        W99399  13.305  18.569  14.377
26975W        W99400  30.009  10.291   5.050
26976W        W99401  26.191  29.465   1.366
26977W        W99402  36.629  37.425  10.679
26978W        W99403  24.938  19.083   1.404
26979W        W99404  11.133  35.354  14.287
26980W        W99405  13.290  22.647  12.348
26981W        W99406  37.459   8.744  14.135
26982W        W99407  23.734  34.099  13.485
26983W        W99408  39.850   8.225  10.704
26984W        W99409  37.587   1.578  11.634
26985W        W99410  35.826  40.054   4.415
26986W        W99411  25.237  34.879  12.410
26987W        W99412  22.551  41.917  13.706
26988W        W99413  41.919  11.914   1.400
26989W        W99414  27.474   1.666  13.315
26990W        W99415  44.521  20.086  14.321
26991W        W99416  16.207  17.552   4.595
26992W        W99417   8.090   5.170   2.295
26993W        W99418   4.352   7.183   2.511
26994W        W99419  31.029  41.554   0.854
26995W        W99420   7.908   0.295   0.311
26996W        W99421  36.531  34.190   0.548
26997W        W99422  22.705  36.852  14.352
26998W        W99423  30.197  40.025   1.248
26999W        W99424  39.220   4.369   3.070
27000W        W99425   6.744  33.627   2.398
27001W        W99426  40.804   5.526   2.903
27002W        W99427  27.539  42.284   1.492
27003W        W99428  34.511  19.304   2.182
27004W        W99429  28.647  44.589   4.571
27005W        W99430  27.701  15.853   1.899
27006W        W99431  33.243  15.959  14.877
27007W        W99432  32.119  42.848  14.652
27008W        W99433  31.064  22.730  12.472
27009W        W99434  14.561   8.970   4.611
27010W        W99435  18.978  33.323  14.778
27011W        W99436  33.357  26.317   4.071
27012W        W99437  16.620  20.490   1.357
27013W        W99438  29.458  39.677  11.330
27014W        W99439  35.779  31.453   4.083
27015W        W99440   0.505  29.141   2.815
27016W        W99441  15.630  22.639   1.787
27017W        W99442  25.712  22.212   2.762
27018W        W99443  30.029  44.045   1.682
27019W        W99444  11.348  33.634  12.784
27020W        W99445  14.706  21.736  12.910
27021W        W99446  25.092  20.008  11.517
27022W        W99447   9.244  35.036   3.795
27023W        W99448  16.711  22.972  10.600
27024W        W99449   4.870  14.878  11.610
27025W        W99450  19.102  39.005  12.830
27026W        W99451  33.189   5.748  14.347
27027W        W99452   9.074  16.042  12.330
27028W        W99453  30.115  28.667  12.584
27029W        W99454  21.641  31.692   2.003
27030W        W99455  16.636  25.725  11.689
27031W        W99456  26.189  12.619  13.986
27032W        W99457  40.355  31.416  10.665
27033W        W99458  16.458   5.721   4.006
27034W        W99459  21.732  44.299  11.135
27035W        W99460  18.219  36.121   2.339
27036W        W99461  17.020  30.059   2.104
27037W        W99462  18.485  37.260  12.399
27038W        W99463  33.932  43.900   1.263
27039W        W99464  32.356  37.113   1.955
27040W        W99465   4.382  13.153   2.091
27041W        W99466  35.479  36.402  14.311
27042W        W99467  28.430  31.106   2.751
27043W        W99468  28.658  44.534   1.627
27044W        W99469  29.147  40.068  11.174
27045W        W99470   8.261  37.957   2.376
27046W        W99471   6.265  40.947   1.785
27047W        W99472  40.941  27.445  13.857
27048W        W99473   4.101  25.105   3.657
27049W        W99474   5.634  35.960  12.793
27050W        W99475   1.356  22.492  14.955
27051W        W99476  16.681  38.002   1.052
27052W        W99477   4.637  15.902  11.528
27053W        W99478  41.824  40.821  11.097
27054W        W99479  43.808  30.732  12.520
27055W        W99480  43.801  40.975  11.591
27056W        W99481  41.786  29.792  12.949
27057W        W99482  31.748  29.038  10.692
27058W        W99483  22.008  36.113  13.026
27059W        W99484  43.541  39.824   0.685
27060W        W99485  30.145  37.350   3.684
27061W        W99486  39.965   7.231  12.986
27062W        W99487   3.178  27.418  10.518
27063W        W99488  11.520  22.156   4.179
27064W        W99489   1.672  30.284  11.802
27065W        W99490  38.019  20.776   2.833
27066W        W99491  44.866  29.524   2.164
27067W        W99492  35.637  11.908  10.647
27068W        W99493   5.403  25.676  12.370
27069W        W99494   0.428   5.398  10.673
27070W        W99495  29.540  41.006  14.970
27071W        W99496  33.989  35.895  13.099
27072W        W99497  10.502  28.477   2.885
27073W        W99498   7.748  30.579   0.326
27074W        W99499  23.261   5.837  14.959
27075W        W99500  13.248  39.802  12.155
27076W        W99501  37.061  36.150   3.705
27077W        W99502  12.694  24.630   1.166
27078W        W99503  18.960  39.146   3.162
27079W        W99504  15.648   7.849  14.886
27080W        W99505  34.464   3.450   4.912
27081W        W99506  34.333  35.997  11.937
27082W        W99507   7.310  20.526   2.849
27083W        W99508  14.727  29.914   0.091
27084W        W99509  14.005   0.785  14.803
27085W        W99510  40.457  17.775   4.520
27086W        W99511  34.358  41.012   2.275
27087W        W99512  39.753  22.225  13.010
27088W        W99513   8.265   0.264   4.099
27089W        W99514   4.687  29.176  14.838
27090W        W99515  36.255  42.508  13.896
27091W        W99516  18.013  18.195  10.687
27092W        W99517  12.625  32.837  12.091
27093W        W99518  30.177  34.906   3.302
27094W        W99519  18.096  14.075   3.066
27095W        W99520  39.967   3.985  12.694
27096W        W99521  39.640  12.246   1.948
27097W        W99522  43.919  35.998  10.619
27098W        W99523  41.395  37.895   0.884
27099W        W99524  31.501  14.107   4.179
27100W        W99525  39.302  40.602  11.788
27101W        W99526  22.279   3.959  14.602
27102W        W99527   8.159  11.644   4.355
27103W        W99528  20.995  38.732   5.040
27104W        W99529  42.965   4.824   0.991
27105W        W99530   5.790  42.501  10.737
27106W        W99531  28.401   0.931  13.423
27107W        W99532  16.761   7.773  14.578
27108W        W99533  32.825   0.723   4.029
27109W        W99534   6.803  39.017   0.284
27110W        W99535  36.025  11.170  11.200
27111W        W99536  30.933  25.202  13.625
27112W        W99537  15.173   9.391   3.657
27113W        W99538  21.448  23.978   4.546
27114W        W99539   3.324  17.780   0.363
27115W        W99540   4.347  29.738   1.350
27116W        W99541  31.190   0.021   3.697
27117W        W99542  23.109  22.227  12.062
27118W        W99543  14.108  17.747   3.177
27119W        W99544  24.110  42.386  11.167
27120W        W99545   3.677  25.992   3.863
27121W        W99546  43.222   2.532  13.122
27122W        W99547  44.450  39.407  12.882
27123W        W99548   5.398  16.268   3.810
27124W        W99549   6.149  14.009  12.083
27125W        W99550  26.493  29.730   1.969
27126W        W99551  29.369  33.646   0.693
27127W        W99552  31.241   8.272  14.288
27128W        W99553  28.883   5.174  14.841
27129W        W99554  39.480  39.566   1.236
27130W        W99555   4.947   0.816   0.008
27131W        W99556  22.685  43.677   2.804
27132W        W99557  34.382  30.736  10.384
27133W        W99558  10.355  18.390   3.236
27134W        W99559  38.983  33.838   0.837
27135W        W99560   1.593  39.103  13.390
27136W        W99561  29.553   0.476  13.245
27137W        W99562  39.791  30.465  11.068
27138W        W99563  18.253  17.092  11.523
27139W        W99564  28.895  24.060  11.839
27140W        W99565  40.552   2.483  12.070
27141W        W99566  33.575   3.386  12.946
27142W        W99567  12.089   7.713  12.470
27143W        W99568  38.059  40.286   3.377
27144W        W99569  23.941   0.652   5.034
27145W        W99570  37.247  14.332  10.189
27146W        W99571   1.781  30.122   2.262
27147W        W99572  18.554  15.983   4.692
27148W        W99573   5.939   5.186  12.339
27149W        W99574  36.351  23.112  14.566
27150W        W99575  24.826  26.765   2.580
27151W        W99576   9.618   9.835   1.288
27152W        W99577   6.964  43.718  11.977
27153W        W99578  38.062   5.678  14.383
27154W        W99579  12.751  30.896  14.742
27155W        W99580   7.911  35.259   5.058
27156W        W99581  34.565  16.847   3.239
27157W        W99582   6.388   6.229  13.068
27158W        W99583   1.078  41.301  13.081
27159W        W99584  40.408  29.563  12.084
27160W        W99585  28.369   0.815  14.245
27161W        W99586  26.519   1.017  13.032
27162W        W99587  29.537  30.146   3.941
27163W        W99588   2.175  28.103   0.316
27164W        W99589  41.777  16.736   0.270
27165W        W99590  21.215  38.432   0.825
27166W        W99591  18.301  43.427   2.375
27167W        W99592  10.062  19.137   5.018
27168W        W99593  33.398   1.569  12.841
27169W        W99594  16.053  33.592   4.364
27170W        W99595  17.800  24.793   0.132
27171W        W99596   4.252  34.982  12.098
27172W        W99597  24.788  11.631  11.653
27173W        W99598  13.338  27.919  10.104
27174W        W99599  23.006   7.261   5.071
27175W        W99600   8.740  28.911   2.441
27176W        W99601   3.224  23.555  12.591
27177W        W99602  14.315   1.828  14.032
27178W        W99603  33.622  38.534   3.658
27179W        W99604  26.419  24.518  13.517
27180W        W99605   6.266   8.713  14.723
27181W        W99606   5.979  31.042   1.573
27182W        W99607  20.613  40.926  14.325
27183W        W99608  10.462  17.632   1.832
27184W        W99609  22.459   8.337   0.209
27185W        W99610  21.787  25.640   2.859
27186W        W99611  29.617  40.936  11.333
27187W        W99612   9.296  23.617  11.160
27188W        W99613   2.358  40.327   1.216
27189W        W99614   4.997  42.717  11.985
27190W        W99615  17.121  13.154  10.774
27191W        W99616  31.569  28.579   0.802
27192W        W99617  16.752  26.587  13.353
27193W        W99618   9.768  20.616   0.896
27194W        W99619  20.223  44.426   0.964
27195W        W99620  13.811  29.913  11.544
27196W        W99621  34.423  26.662  14.326
27197W        W99622   4.616  16.783  12.671
27198W        W99623  40.847  14.073  12.528
27199W        W99624   7.926  32.491   4.844
27200W        W99625  17.680  10.311  13.264
27201W        W99626  23.733   1.070   4.117
27202W        W99627   9.327   0.404   2.778
27203W        W99628  29.193  24.704   0.422
27204W        W99629  26.003  44.469   5.007
27205W        W99630  21.615  15.067  13.518
27206W        W99631  32.680   7.317  12.291
27207W        W99632   3.326  17.098  12.318
27208W        W99633  16.697  28.402  14.275
27209W        W99634  14.783  26.890   2.721
27210W        W99635  32.908   4.294  12.786
27211W        W99636  39.358   1.554  14.348
27212W        W99637  13.790   1.278  11.203
27213W        W99638   9.318   9.562  10.519
27214W        W99639   5.972   0.007   0.862
27215W        W99640  25.153  25.968  14.162
27216W        W99641   9.732  32.542  11.586
27217W        W99642  11.692  16.628  13.879
27218W        W99643   8.854  12.639   4.629
27219W        W99644   7.714  15.771  13.831
27220W        W99645  37.489  10.182   0.354
27221W        W99646  32.688   2.834  12.202
27222W        W99647  29.386  22.992   0.889
27223W        W99648   7.530  10.056  13.475
27224W        W99649  28.388  21.281  10.718
27225W        W99650  32.594  32.947  10.741
27226W        W99651  19.751  12.675  12.340
27227W        W99652  17.183  22.711   1.739
27228W        W99653   4.248   4.877  13.529
27229W        W99654  21.163   8.681   2.728
27230W        W99655  26.565   9.645  11.622
27231W        W99656  38.781  41.761   1.513
27232W        W99657   1.245  28.882   2.324
27233W        W99658  39.525  35.537   0.342
27234W        W99659  20.064  10.369   1.586
27235W        W99660   9.651  25.557  14.824
27236W        W99661  11.474  18.051   0.374
27237W        W99662  14.964  29.917   4.419
27238W        W99663  16.799  41.008   0.809
27239W        W99664  23.739   5.038  11.590
27240W        W99665  24.086  28.383  14.236
27241W        W99666  32.691  33.608   0.703
27242W        W99667  28.096  44.009   4.106
27243W        W99668  26.330  17.987   3.677
27244W        W99669   7.799  29.217   1.321
27245W        W99670  25.247   1.961  14.767
27246W        W99671  21.568  29.514  14.395
27247W        W99672  10.263  14.343   1.947
27248W        W99673   5.353  29.908  14.366
27249W        W99674  44.227  38.820   4.130
27250W        W99675  34.850   5.423   1.765
27251W        W99676  18.397  10.805  11.076
27252W        W99677  24.140  25.626   1.925
27253W        W99678  40.457  10.670   1.176
27254W        W99679   9.411  42.883  13.780
27255W        W99680  12.148   4.226   1.202
27256W        W99681  41.650   2.977   1.452
27257W        W99682  34.438  12.149  12.711
27258W        W99683   5.827  38.488  12.081
27259W        W99684  28.430  31.573  14.288
27260W        W99685  37.834   0.915  14.268
27261W        W99686  24.665  28.017   0.305
27262W        W99687  44.036  12.946  14.455
27263W        W99688  14.088   6.514  14.814
27264W        W99689  43.770  40.069   2.852
27265W        W99690   4.848  15.158   3.755
27266W        W99691  10.343  42.062   2.677
27267W        W99692  17.704  41.658  13.969
27268W        W99693  34.785  33.174   2.351
27269W        W99694  25.731   8.265  14.384
27270W        W99695  22.299  16.266   0.981
27271W        W99696  23.856   0.259   2.781
27272W        W99697  30.004   0.189  14.515
27273W        W99698  20.556  21.958  12.426
27274W        W99699  40.329  42.045   3.100
27275W        W99700  42.686  28.005   2.358
27276W        W99701   7.201  32.872   1.859
27277W        W99702  22.468  17.384  14.016
27278W        W99703  12.022  17.552   4.786
27279W        W99704  10.533  22.747  13.712
27280W        W99705  21.624  29.379  11.582
27281W        W99706  29.958  23.824   3.197
27282W        W99707  37.152   1.348   0.804
27283W        W99708  16.016  15.269   4.283
27284W        W99709  29.319  34.049   0.362
27285W        W99710   6.443   9.369  13.586
27286W        W99711  12.808   1.403  12.267
27287W        W99712  39.104  21.612  11.615
27288W        W99713  22.093  25.422  10.781
27289W        W99714  24.514  30.368   0.098
27290W        W99715   6.750  36.854   3.333
27291W        W99716  30.440  15.578   3.234
27292W        W99717  12.224  43.172   1.567
27293W        W99718  38.197  28.161  10.318
27294W        W99719  35.341   2.184  13.933
27295W        W99720  40.239  34.532  12.157
27296W        W99721   1.270  10.999  13.642
27297W        W99722  41.010  30.143   2.841
27298W        W99723  33.651  41.323  13.428
27299W        W99724   9.025  14.820   4.134
27300W        W99725  15.250  10.235  12.328
27301W        W99726  39.674  25.077   4.544
27302W        W99727  20.764  24.703  14.905
27303W        W99728  11.596   3.200   0.354
27304W        W99729  33.939  23.590   4.543
27305W        W99730  40.571  10.232   2.107
27306W        W99731  31.077  19.329  14.413
27307W        W99732  39.335  20.121  12.349
27308W        W99733  18.403  27.601   1.391
27309W        W99734  22.010   6.783  13.921
27310W        W99735  34.923  16.751   1.215
27311W        W99736  36.735  16.067  14.692
27312W        W99737  20.948  18.173   1.666
27313W        W99738   2.375   8.937  12.436
27314W        W99739  19.756  27.596   0.491
27315W        W99740   7.478  12.072   0.215
27316W        W99741  37.370  24.300  13.608
27317W        W99742  15.875  26.869   1.769
27318W        W99743  26.963  27.069  14.282
27319W        W99744   3.541  12.356  12.906
27320W        W99745  27.702   5.583  13.025
27321W        W99746  32.479  28.633   3.374
27322W        W99747  24.627  41.240   0.358
27323W        W99748  13.445  30.960   1.447
27324W        W99749  32.394  24.431   1.867
27325W        W99750   9.905  23.810  10.470
27326W        W99751  35.616  38.986  14.891
27327W        W99752  14.828  12.674  11.401
27328W        W99753  24.476  33.848   4.130
27329W        W99754  21.667  39.634   1.798
27330W        W99755  18.087  34.845   2.742
27331W        W99756  39.790  30.135   2.240
27332W        W99757   1.301  40.983   2.174
27333W        W99758  29.913  38.057  10.685
27334W        W99759  30.541   2.996   4.309
27335W        W99760  30.120  17.242   5.025
27336W        W99761   6.810  11.316   0.329
27337W        W99762  36.457  15.565   2.828
27338W        W99763  16.061   4.140  11.488
27339W        W99764  23.205   2.115   2.368
27340W        W99765  22.959  24.170  13.583
27341W        W99766  16.862  44.266  13.562
27342W        W99767  37.886  19.618  11.628
27343W        W99768  41.222  32.539  14.303
27344W        W99769  24.029  27.459   3.178
27345W        W99770  14.640  29.674  14.318
27346W        W99771  20.147   4.895  10.704
27347W        W99772  36.151  44.269   3.238
27348W        W99773   1.888  23.430   3.843
27349W        W99774  44.799   1.845  10.710
27350W        W99775  24.551  12.492  13.324
27351W        W99776  19.197  33.686   0.973
27352W        W99777  32.028  21.630  11.433
27353W        W99778  44.898   0.241  13.997
27354W        W99779  41.109  20.468  13.368
27355W        W99780  21.575  44.027  10.742
27356W        W99781  31.378  42.669  12.864
27357W        W99782  43.156  27.941   2.786
27358W        W99783   3.622   6.980   0.036
27359W        W99784  27.219  43.535   3.264
27360W        W99785  37.615  16.599  10.750
27361W        W99786  11.913  42.352  12.937
27362W        W99787  25.069  30.169  13.499
27363W        W99788  21.164  33.382  10.411
27364W        W99789   1.444  39.319  12.871
27365W        W99790  32.200  11.766   0.086
27366W        W99791  43.223   4.853   1.929
27367W        W99792  18.097  33.998   1.891
27368W        W99793  17.249  43.386  14.714
27369W        W99794   6.621   0.655  13.755
27370W        W99795  23.975   6.747   1.787
27371W        W99796  13.838  20.687  14.423
27372W        W99797  27.270  44.049   4.743
27373W        W99798  25.899   0.569   1.214
27374W        W99799  11.688   0.437   1.828
27375W        W99800  24.466  20.907  11.446
27376W        W99801  34.561   7.316   0.356
27377W        W99802   0.878  36.503  13.391
27378W        W99803   7.181  31.365  14.515
27379W        W99804  36.250  33.861   1.409
27380W        W99805   2.524   7.142   0.682
27381W        W99806  32.732  37.861  13.133
27382W        W99807  34.388  34.294  14.222
27383W        W99808  18.620  17.540  11.680
27384W        W99809  36.039  42.029  13.963
27385W        W99810  28.880  30.413   0.903
27386W        W99811  20.019  15.297   3.560
27387W        W99812  34.138  40.814  13.139
27388W        W99813  38.564  39.568  11.040
27389W        W99814   6.562  25.492   3.714
27390W        W99815  37.364  44.895   0.253
27391W        W99816  10.071  11.935  11.531
27392W        W99817  14.707   6.317  12.357
27393W        W99818   2.204  10.613  13.516
27394W        W99819   9.045  10.382  12.459
27395W        W99820  15.700  27.928  13.566
27396W        W99821  38.326  39.749   4.271
27397W        W99822  37.763  21.490   0.291
27398W        W99823  18.728  29.877   4.971
27399W        W99824  20.654  13.297  14.368
27400W        W99825  22.272  42.387  10.678
27401W        W99826  28.472  44.359   2.696
27402W        W99827  43.445   4.983   0.775
27403W        W99828  12.276  40.990   3.131
27404W        W99829  30.489  25.493   1.811
27405W        W99830   7.441  18.862  14.319
27406W        W99831  11.756   0.052  11.321
27407W        W99832   8.084  32.886   3.756
27408W        W99833   4.235  28.232   4.233
27409W        W99834  43.849  24.979  12.376
27410W        W99835   8.257  10.317   0.911
27411W        W99836  10.692  23.582   4.795
27412W        W99837  34.331   3.088   0.300
27413W        W99838  19.961  13.313  14.376
27414W        W99839  13.886  30.460   3.393
27415W        W99840  38.281   3.583   4.988
27416W        W99841   9.730  17.804  12.525
27417W        W99842  28.093  17.304   0.845
27418W        W99843   0.895  14.327  10.790
27419W        W99844  24.507  17.544  13.061
27420W        W99845  21.705  39.887   3.466
27421W        W99846   3.454  18.340   1.701
27422W        W99847   0.809  12.800   0.860
27423W        W99848  43.557  14.840  11.864
27424W        W99849  24.948  18.190   2.346
27425W        W99850  21.155  12.553  11.028
27426W        W99851  31.915  42.060   2.850
27427W        W99852  31.095  25.133   4.749
27428W        W99853  11.809  41.317  10.674
27429W        W99854   4.620  25.954  12.357
27430W        W99855  27.591  18.047  11.258
27431W        W99856   4.453  22.597   1.179
27432W        W99857  42.616   5.209   1.071
27433W        W99858  32.787  37.015  13.939
27434W        W99859  36.912  24.152  10.831
27435W        W99860   7.469  26.137   0.271
27436W        W99861  22.606   5.490  12.540
27437W        W99862  40.937  36.937  13.704
27438W        W99863  38.014  27.181   4.360
27439W        W99864  33.403  12.645  11.051
27440W        W99865  24.841  30.642   0.446
27441W        W99866  36.974  33.839  12.605
27442W        W99867  19.118  31.481   4.682
27443W        W99868  26.333  39.750   3.375
27444W        W99869  29.050  44.005  14.337
27445W        W99870  44.028   7.289   2.269
27446W        W99871   5.225  24.312  12.264
27447W        W99872  26.777  24.504   4.202
27448W        W99873   9.821  14.709   0.355
27449W        W99874   6.804  37.467  13.433
27450W        W99875  13.310  24.777   2.285
27451W        W99876  16.194   9.034  12.149
27452W        W99877  11.847  34.577   1.835
27453W        W99878  41.592  23.054   4.637
27454W        W99879  34.819  26.019  14.011
27455W        W99880  43.077  29.716   1.217
27456W        W99881  36.647  37.414   1.351
27457W        W99882  41.818  27.144   2.202
27458W        W99883  37.277  12.720  12.100
27459W        W99884  18.099  15.131  12.565
27460W        W99885  18.459   3.827  10.733
27461W        W99886  10.217  12.976   1.685
27462W        W99887  42.949  10.135   3.734
27463W        W99888  22.214  32.143   3.607
27464W        W99889  37.014  28.222  12.046
27465W        W99890  10.806  33.718   2.794
27466W        W99891   0.493  31.952   0.277
27467W        W99892   8.446  31.833   1.808
27468W        W99893  31.613  15.125   2.724
27469W        W99894  28.620  27.236   0.380
27470W        W99895  27.134   2.876   2.859
27471W        W99896  16.959  44.159   3.245
27472W        W99897  19.426  25.631  11.329
27473W        W99898  35.110  14.545  14.946
27474W        W99899  17.303  36.483  12.795
27475W        W99900  42.407  44.724   3.182
27476W        W99901  30.980  28.757  10.252
27477W        W99902  44.738  15.711   4.547
27478W        W99903  30.401   0.354   1.387
27479W        W99904   7.805  10.560  14.372
27480W        W99905  43.998   5.755  13.502
27481W        W99906  31.329  24.621   2.727
27482W        W99907   5.279   7.641   1.879
27483W        W99908  19.301  34.306  12.380
27484W        W99909  22.846  18.476  14.827
27485W        W99910  32.305  36.440  10.653
27486W        W99911  10.526  13.108   3.804
27487W        W99912   6.957  12.213   0.276
27488W        W99913  39.871  30.048   1.492
27489W        W99914  16.482  30.474  11.375
27490W        W99915  32.285  35.726  13.790
27491W        W99916  22.295  12.280  12.420
27492W        W99917   2.300  37.150   0.206
27493W        W99918  44.179  10.244   4.556
27494W        W99919  11.893  23.101   4.943
27495W        W99920  44.846  43.173  14.390
27496W        W99921   9.443  20.984   0.728
27497W        W99922  24.991  41.864  12.602
27498W        W99923   3.536   1.902  10.710
27499W        W99924   1.815  17.225  14.006
27500W        W99925  10.609  22.332   4.972
27501W        W99926  30.594  32.206  11.117
27502W        W99927   2.315  33.639   4.021
27503W        W99928  26.641  11.254   4.865
27504W        W99929   8.347  20.606  11.107
27505W        W99930  11.160  35.935  12.461
27506W        W99931  10.934  35.013  13.824
27507W        W99932   5.313  43.156   1.423
27508W        W99933  35.833  15.072  14.875
27509W        W99934  25.454  27.654   0.703
27510W        W99935  28.056  14.073  12.514
27511W        W99936  13.060  39.930   3.324
27512W        W99937  14.337  33.055  10.860
27513W        W99938   0.828  29.178  14.864
27514W        W99939   0.675   3.742  11.527
27515W        W99940   2.541   9.624  13.966
27516W        W99941  24.378  11.015   5.034
27517W        W99942  28.992  29.381   2.848
27518W        W99943  27.419   2.397   4.625
27519W        W99944  35.735  31.093  14.244
27520W        W99945  19.613   1.736  12.978
27521W        W99946  11.849  36.791   0.194
27522W        W99947  26.973  26.509   3.594
27523W        W99948  27.786   8.282  12.969
27524W        W99949  15.047  35.705   1.880
27525W        W99950  19.628  42.330   3.897
27526W        W99951  36.277  28.556   0.795
27527W        W99952  37.086  43.383  12.020
27528W        W99953  26.280  21.151   0.473
27529W        W99954  27.618  30.940  14.056
27530W        W99955  21.471  34.620   3.261
27531W        W99956  17.636  22.968   0.354
27532W        W99957   9.943   4.413  14.804
27533W        W99958   0.489  34.175  13.398
27534W        W99959  29.852  12.402  13.483
27535W        W99960  42.824  24.888  11.627
27536W        W99961  30.008  30.677   4.690
27537W        W99962   7.912  21.939  12.752
27538W        W99963  34.598  29.166   2.440
27539W        W99964   9.171  27.555  10.527
27540W        W99965  28.207   3.382   2.420
27541W        W99966  19.476  44.565  14.336
27542W        W99967  39.758  12.683   0.234
27543W        W99968  18.343  26.681  12.601
27544W        W99969  23.953  25.083  10.092
27545W        W99970  20.271  26.128   3.110
27546W        W99971  15.046  10.736  10.384
27547W        W99972  29.665  30.429   0.428
27548W        W99973  21.654  44.238  10.292
27549W        W99974  32.158   1.328  10.677
27550W        W99975  12.219   9.216  14.001
27551W        W99976   0.211  34.963  12.968
27552W        W99977  29.310  13.609  11.629
27553W        W99978  37.676  43.580   1.483
27554W        W99979  33.424  15.043  14.806
27555W        W99980   4.664  17.250  12.871
27556W        W99981  23.277  41.240  11.538
27557W        W99982  16.655  29.940  14.650
27558W        W99983  24.987   1.210  12.087
27559W        W99984  32.400  44.732   4.111
27560W        W99985  17.843  43.982  10.985
27561W        W99986  38.097   2.448  13.771
27562W        W99987  15.367   6.277   0.389
27563W        W99988   8.489  18.464  13.633
27564W        W99989  18.496  12.008  12.619
27565W        W99990  23.136   1.439   3.706
27566W        W99991  18.161  27.846  14.909
27567W        W99992  14.553  41.781   1.426
27568W        W99993  34.615  29.320  13.029
27569W        W99994  35.097  40.257  10.723
27570W        W99995  38.096   8.651   1.968
27571W        W99996  33.578  41.376  14.944
27572W        W99997   4.927   9.221   2.873
27573W        W99998  36.552  27.362   2.295
27574W        W99999  16.612  41.320   4.644
27575W        W    0  38.540  24.517   1.773
27576W        W    1  38.012  25.517   3.400
27577W        W    2  31.835   5.488  13.893
27578W        W    3  21.693   1.343   1.163
27579W        W    4   5.900  19.140  11.073
27580W        W    5  18.447   8.111   3.595
27581W        W    6  30.612  27.119   0.188
27582W        W    7   8.795  23.747  14.596
27583W        W    8  44.726  27.501   1.321
27584W        W    9  28.097   5.897   2.601
27585W        W   10  15.975  26.170  10.557
27586W        W   11  10.865   7.238   1.571
27587W        W   12  41.067  23.794   1.776
27588W        W   13  11.794  39.565   1.275
27589W        W   14   6.274  30.265  12.037
27590W        W   15  17.758  32.438   0.792
27591W        W   16  25.146  38.564  14.121
27592W        W   17  37.934  19.340  13.976
27593W        W   18  21.640   5.469  14.004
27594W        W   19   7.218  26.625  14.013
27595W        W   20  27.692   8.361  11.636
27596W        W   21  43.508  26.085   1.227
27597W        W   22   1.961  19.578   4.150
27598W        W   23  21.180  14.782  13.597
27599W        W   24   2.918  24.449  14.000
27600W        W   25  38.424  13.154   4.204
27601W        W   26  23.613   9.432  13.678
27602W        W   27  39.096   4.210   2.391
27603W        W   28  22.099  29.441   2.024
27604W        W   29  35.445  40.007   2.265
27605W        W   30  38.788  37.018  12.475
27606W        W   31  25.221  43.477   3.350
27607W        W   32  34.098  32.157   1.213
27608W        W   33  20.067   9.344   3.379
27609W        W   34  27.870   7.102   0.959
27610W        W   35  31.865  32.940  13.362
27611W        W   36  42.458   7.388   2.924
27612W        W   37   5.363  32.476  12.058
27613W        W   38   5.092  32.074  13.906
27614W        W   39  38.039  12.129   3.821
27615W        W   40  12.095  12.647  11.204
27616W        W   41   0.790  42.391  14.811
27617W        W   42  18.398  32.514  13.843
27618W        W   43   1.418  23.846   0.020
27619W        W   44  21.018  40.222  13.699
27620W        W   45  36.061   5.924  12.585
27621W        W   46  28.485   5.651   2.378
27622W        W   47  18.160  22.137   1.263
27623W        W   48  37.820  35.046   0.745
27624W        W   49  25.153  11.373  14.122
27625W        W   50   3.012  33.853   0.459
27626W        W   51  18.989  38.831  13.846
27627W        W   52  33.072  33.362   0.420
27628W        W   53  26.978   3.704   2.362
27629W        W   54   3.936  40.826   1.804
27630W        W   55  28.228  42.419   1.871
27631W        W   56  36.411  15.736  14.452
27632W        W   57   1.400  29.156   3.599
27633W        W   58  38.352  26.975  13.785
27634W        W   59   7.696  15.315   3.123
27635W        W   60  42.922  43.211  13.564
27636W        W   61   8.667  23.394   1.454
27637W        W   62  30.117  44.523   3.407
27638W        W   63   3.958  41.596  12.531
27639W        W   64  43.869  10.826  12.902
27640W        W   65  24.975  12.239  11.966
27641W        W   66  12.929  27.449  12.099
27642W        W   67  25.058   2.451  10.991
27643W        W   68  24.130  19.752  14.197
27644W        W   69  12.124   7.412  10.936
27645W        W   70  38.977  17.051  10.905
27646W        W   71  17.525   7.314  13.178
27647W        W   72  41.284  24.101   2.630
27648W        W   73  30.516  17.130  12.500
27649W        W   74  22.766  11.854   1.723
27650W        W   75  27.483  19.310   4.134
27651W        W   76  37.521  38.575  13.161
27652W        W   77  30.136  10.957  13.400
27653W        W   78   2.238  18.174  11.011
27654W        W   79   3.849  19.294  14.408
27655W        W   80  13.780   6.638  13.108
27656W        W   81   3.449  44.069   3.321
27657W        W   82  20.803  25.170   0.173
27658W        W   83   4.210  35.772   1.515
27659W        W   84  22.285  14.521  11.713
27660W        W   85  17.967  33.379  14.687
27661W        W   86  23.210   5.452  10.971
27662W        W   87   2.297  15.186   2.428
27663W        W   88  31.417   8.343  12.406
27664W        W   89  31.030  41.819   2.848
27665W        W   90  12.350  20.236   0.195
27666W        W   91  31.914  14.121   1.823
27667W        W   92  30.585  35.701  14.874
27668W        W   93  43.021  19.777   4.230
27669W        W   94  11.614  37.002  14.789
27670W        W   95  29.746  42.885  14.817
27671W        W   96  22.254   4.359   2.321
27672W        W   97  38.857  21.547   3.751
27673W        W   98  14.360  42.515  12.674
27674W        W   99  27.751  14.813   2.585
27675W        W  100  37.566  23.277   4.490
27676W        W  101  44.500  42.079   1.962
27677W        W  102  19.685  34.959  14.363
27678W        W  103   3.643  22.130   1.906
27679W        W  104  30.500  14.862  10.735
27680W        W  105  35.596  12.007   0.920
27681W        W  106   7.443  11.681   0.564
27682W        W  107  24.020  41.847   1.771
27683W        W  108  14.689  28.610  11.161
27684W        W  109  28.024   4.940   4.660
27685W        W  110  32.179  11.720   0.929
27686W        W  111  41.869  32.129   0.452
27687W        W  112  26.051  32.551  14.330
27688W        W  113  31.604  40.481  14.322
27689W        W  114   5.789  30.145  11.201
27690W        W  115  27.617  13.837  13.900
27691W        W  116  22.825  27.138  12.410
27692W        W  117  26.223  19.202   0.363
27693W        W  118  21.008  33.829  13.661
27694W        W  119  27.418  28.916  13.102
27695W        W  120  30.425  43.266  14.431
27696W        W  121  26.237  22.547   2.254
27697W        W  122  20.173   5.730  13.391
27698W        W  123  29.044  39.589  10.435
27699W        W  124  15.192  33.955  14.339
27700W        W  125  30.990  13.051   0.293
27701W        W  126   0.238   3.425   3.318
27702W        W  127   3.218  28.620  11.013
27703W        W  128  33.193   1.398   1.830
27704W        W  129  25.944   2.900   3.314
27705W        W  130  33.402  11.272   1.405
27706W        W  131   0.928   2.859   0.868
27707W        W  132   5.225   8.597   2.322
27708W        W  133  36.790  29.306   2.503
27709W        W  134   1.196  34.518   4.920
27710W        W  135  39.943   8.125  14.848
27711W        W  136  31.948  39.878  14.320
27712W        W  137  31.139  31.078   0.775
27713W        W  138  38.150   6.084  12.668
27714W        W  139  16.986  18.992  10.420
27715W        W  140  10.660  17.155  10.869
27716W        W  141  25.636  35.491  14.347
27717W        W  142  19.941   1.752  13.409
27718W        W  143  24.181  44.935   1.079
27719W        W  144  12.238  12.715   3.052
27720W        W  145  13.197  21.415  10.637
27721W        W  146  38.022  31.559   3.157
27722W        W  147   9.584   1.445  11.622
27723W        W  148  15.696  35.971  14.079
27724W        W  149  11.176  40.145   3.644
27725W        W  150  29.677  11.309   4.419
27726W        W  151  31.476   8.784  12.010
27727W        W  152  19.497  12.052   1.298
27728W        W  153  37.813  15.164   3.169
27729W        W  154  15.159   2.705  14.754
27730W        W  155  37.849   0.928   5.051
27731W        W  156  16.779  30.421  10.492
27732W        W  157  23.378   2.728   3.232
27733W        W  158  20.305  31.866  13.823
27734W        W  159  38.840  26.362   4.029
27735W        W  160   1.813  41.476  12.307
27736W        W  161  10.089  27.965   1.806
27737W        W  162  21.763   8.755  12.429
27738W        W  163  24.516  30.548  11.550
27739W        W  164  39.997  22.971  11.141
27740W        W  165  44.767  33.073   2.674
27741W        W  166  28.673  43.590  10.551
27742W        W  167   2.791  33.691   4.823
27743W        W  168  25.470  14.805  11.596
27744W        W  169  33.533  22.689  13.312
27745W        W  170   3.039  22.138  11.308
27746W        W  171  25.716  26.449   2.332
27747W        W  172  38.032  14.689  11.640
27748W        W  173  26.377   0.386   2.154
27749W        W  174  18.230  16.470   2.271
27750W        W  175  33.619  33.575   0.818
27751W        W  176  11.878  40.097   1.222
27752W        W  177  19.922  12.424   3.711
27753W        W  178  13.322  28.177  13.656
27754W        W  179  20.517  28.405   0.434
27755W        W  180  35.801  37.577  12.538
27756W        W  181   6.239  23.747  11.681
27757W        W  182  22.230  19.966   3.411
27758W        W  183  32.974  41.262   3.427
27759W        W  184   1.469  36.367  11.633
27760W        W  185  21.194   0.756  12.424
27761W        W  186  43.046  35.766   1.345
27762W        W  187   6.258  32.427   0.549
27763W        W  188  22.147  15.267   2.307
27764W        W  189  26.137  40.205   3.539
27765W        W  190  37.838  24.232  11.866
27766W        W  191   7.901  23.205   2.719
27767W        W  192  20.623   9.199   1.848
27768W        W  193  11.769  21.497  13.963
27769W        W  194  42.687  19.175  11.995
27770W        W  195  12.360  11.602  13.967
27771W        W  196  36.243  27.949   4.602
27772W        W  197  20.554  28.013  10.531
27773W        W  198  30.011  29.372  13.066
27774W        W  199  23.669   2.992  14.886
27775W        W  200  18.662   0.190   1.768
27776W        W  201  33.903  43.786   2.069
27777W        W  202  39.882  31.561  12.547
27778W        W  203   7.282   1.078  11.177
27779W        W  204  22.556  27.564  12.638
27780W        W  205  31.673   7.629   3.650
27781W        W  206  14.294   1.274  11.143
27782W        W  207  11.367  30.375   0.046
27783W        W  208  12.025  19.628  14.450
27784W        W  209   7.291  28.941  11.073
27785W        W  210  17.194  12.754   1.741
27786W        W  211  16.429  38.336   0.278
27787W        W  212  36.106  31.914  12.963
27788W        W  213  42.447   5.788   2.297
27789W        W  214  44.357  37.719   5.166
27790W        W  215  42.270  14.290   4.512
27791W        W  216  24.965  34.974  11.986
27792W        W  217   0.838  28.096   2.439
27793W        W  218  20.702  27.745  10.970
27794W        W  219  25.176  26.693   1.331
27795W        W  220  31.564  29.151  12.009
27796W        W  221  26.654   9.837  13.892
27797W        W  222   6.961  37.854   3.038
27798W        W  223   8.440  38.076  10.996
27799W        W  224  37.062  27.072  14.515
27800W        W  225  43.360  31.386   4.636
27801W        W  226  23.213  21.521  12.613
27802W        W  227   2.243   0.053   4.207
27803W        W  228   8.271  20.294  14.906
27804W        W  229  35.652  40.530   4.551
27805W        W  230   9.430  17.422   4.052
27806W        W  231  43.412   4.903   2.395
27807W        W  232  13.177  28.025  12.111
27808W        W  233  43.701   5.730   3.985
27809W        W  234  30.374  40.876   1.052
27810W        W  235   2.232   8.099   3.123
27811W        W  236  41.588  21.071  11.957
27812W        W  237   7.754  31.122  12.331
27813W        W  238   8.369  19.296   3.815
27814W        W  239   2.695  42.278  14.699
27815W        W  240  41.280   3.811  12.961
27816W        W  241  39.270  14.632  12.989
27817W        W  242  31.706  19.584   3.246
27818W        W  243  12.154   5.397  12.958
27819W        W  244  37.037  28.458  10.751
27820W        W  245  36.164  10.331   2.163
27821W        W  246  25.824  23.569   3.678
27822W        W  247  10.794  25.371   3.285
27823W        W  248   1.023  16.896   4.995
27824W        W  249   1.856   2.478   0.399
27825W        W  250  21.025  27.174   2.639
27826W        W  251  31.554  11.610  13.852
27827W        W  252   0.493  39.566  12.876
27828W        W  253   3.447  24.293  14.165
27829W        W  254  13.504  35.265  10.979
27830W        W  255  25.190   2.038  10.720
27831W        W  256   3.422  18.218   4.044
27832W        W  257  12.570  44.553   1.278
27833W        W  258  27.067  15.479  12.943
27834W        W  259  36.763   3.149   0.952
27835W        W  260  29.474  10.247   1.821
27836W        W  261  18.835   5.361  11.975
27837W        W  262  10.046   8.624   3.770
27838W        W  263  41.811   4.348  12.109
27839W        W  264  32.079  41.769   0.416
27840W        W  265  19.866  44.250  14.220
27841W        W  266   2.892  15.928   0.303
27842W        W  267  35.090  32.071  12.719
27843W        W  268  38.215   5.175   2.306
27844W        W  269   5.339  13.558  12.567
27845W        W  270  28.298   3.393  11.166
27846W        W  271  35.597  31.520   0.777
27847W        W  272   2.343  34.376  13.938
27848W        W  273  34.976   5.300  14.321
27849W        W  274  24.530  35.368   3.097
27850W        W  275  29.044  44.608  14.985
27851W        W  276  38.874  38.351  13.404
27852W        W  277   5.032  27.523  11.796
27853W        W  278   2.264  33.027  11.658
27854W        W  279  10.256  34.282  13.366
27855W        W  280   6.961  37.871   9.806
27856W        W  281  21.868  10.918   4.973
27857W        W  282  18.947  16.600  11.160
27858W        W  283   6.077  35.922   1.022
27859W        W  284  34.156  20.129  13.275
27860W        W  285  39.617  29.780   1.901
27861W        W  286  43.371  29.538   4.143
27862W        W  287  33.430  17.495   4.716
27863W        W  288  21.943  44.427   3.176
27864W        W  289  38.089  38.974  11.535
27865W        W  290  25.658   2.838  11.603
27866W        W  291  13.051  40.450  14.073
27867W        W  292  18.047  11.315   2.292
27868W        W  293  41.076  25.204  13.674
27869W        W  294   3.964  41.072   3.299
27870W        W  295  33.812   5.010  13.629
27871W        W  296  12.727  24.617   1.683
27872W        W  297  21.060  38.104  10.367
27873W        W  298  17.479   6.936   1.696
27874W        W  299  41.597   1.882  13.964
27875W        W  300  32.297   8.367   0.718
27876W        W  301  42.098  25.168  13.493
27877W        W  302  32.134  29.123   3.804
27878W        W  303  10.883  20.451   4.202
27879W        W  304  32.132  34.069  12.116
27880W        W  305  35.921  26.779  10.659
27881W        W  306  28.217  23.983   0.704
27882W        W  307  24.987  35.555  10.752
27883W        W  308   1.638  39.567   2.613
27884W        W  309   8.846  44.386   5.220
27885W        W  310  32.328  33.425  12.876
27886W        W  311  28.607   2.480  11.001
27887W        W  312  21.006  23.156  11.208
27888W        W  313  16.518  22.533  11.510
27889W        W  314  38.393  13.886   3.806
27890W        W  315   3.464  27.582  13.465
27891W        W  316  38.434   5.788   2.759
27892W        W  317  21.200  21.289   3.181
27893W        W  318  15.250  41.839  14.484
27894W        W  319  15.478  18.206  14.074
27895W        W  320  21.708  34.070  14.471
27896W        W  321  11.673  28.471   2.119
27897W        W  322   8.205  30.637   0.063
27898W        W  323   0.225   4.765   0.198
27899W        W  324   0.290  13.862  12.984
27900W        W  325   2.012  30.258   1.174
27901W        W  326  39.601  38.917   3.208
27902W        W  327  12.671  14.091  11.087
27903W        W  328   3.094  16.518   3.186
27904W        W  329  17.666  44.944   2.404
27905W        W  330  27.493  22.655   2.774
27906W        W  331   7.304  15.044  11.599
27907W        W  332  31.330   9.375  10.719
27908W        W  333   9.362  31.419   1.683
27909W        W  334   7.342  15.084   0.063
27910W        W  335  29.236  35.500  10.789
27911W        W  336  35.070  13.739  14.419
27912W        W  337   5.355  40.959   1.743
27913W        W  338  21.501  21.085   0.870
27914W        W  339  43.314  10.363   0.312
27915W        W  340   2.315  33.104  13.392
27916W        W  341  11.428  32.426   4.281
27917W        W  342  42.818  37.871  11.121
27918W        W  343   2.084  21.347  13.891
27919W        W  344  35.136  30.437  11.138
27920W        W  345  37.370   1.518   1.310
27921W        W  346  31.901  38.402  11.931
27922W        W  347  11.605  37.592  10.584
27923W        W  348  12.328  24.023   0.737
27924W        W  349  10.455  25.513  11.209
27925W        W  350  11.346  11.514  11.198
27926W        W  351  28.916  36.947   1.192
27927W        W  352  29.343  12.421  13.384
27928W        W  353  42.561  41.862   4.936
27929W        W  354  40.495  40.606   4.514
27930W        W  355  35.749  33.749   5.227
27931W        W  356  15.290   8.571   2.700
27932W        W  357  23.017  14.097  14.618
27933W        W  358  24.577  25.607   2.241
27934W        W  359  10.134  24.477  12.351
27935W        W  360  32.945  24.461   4.282
27936W        W  361  37.367  26.098   0.886
27937W        W  362  13.366  43.291   1.345
27938W        W  363   5.228  19.057  11.573
27939W        W  364  41.341  37.340  14.316
27940W        W  365  16.780  29.048   4.521
27941W        W  366  25.075  19.703   0.788
27942W        W  367  40.991  20.688  13.825
27943W        W  368  26.906  37.936  14.026
27944W        W  369  10.887  36.086   2.201
27945W        W  370   5.147  12.413  13.747
27946W        W  371   9.259   3.295  10.601
27947W        W  372   5.747  22.221   2.888
27948W        W  373  40.463  17.696   3.614
27949W        W  374  23.984   6.431  11.573
27950W        W  375   0.751  14.893  13.518
27951W        W  376  13.284  13.539   1.904
27952W        W  377   8.257  14.097   3.243
27953W        W  378   6.768  28.906   1.182
27954W        W  379  40.473   5.932  12.072
27955W        W  380  14.484   7.072  13.746
27956W        W  381   7.512  39.605  13.531
27957W        W  382  35.051   0.722  13.279
27958W        W  383   0.822  34.656  12.078
27959W        W  384  39.200  44.859   5.079
27960W        W  385  29.947  25.829  11.588
27961W        W  386  37.008  39.455  14.747
27962W        W  387   6.090  44.477   3.750
27963W        W  388  21.373  12.731   1.851
27964W        W  389  31.205  42.565   1.919
27965W        W  390  23.647  27.939   0.928
27966W        W  391  39.890  26.865   2.781
27967W        W  392  40.738  25.566  11.979
27968W        W  393  18.376  10.761   2.686
27969W        W  394  23.433  22.013   1.400
27970W        W  395  43.143  40.645  13.544
27971W        W  396  28.781  10.662   1.235
27972W        W  397  32.154  36.622   1.304
27973W        W  398  33.530  37.960  12.512
27974W        W  399  12.239  38.219  11.131
27975W        W  400  39.519  44.569   3.200
27976W        W  401  26.321  42.115  14.326
27977W        W  402  19.054  28.063  14.357
27978W        W  403  41.242  23.162   2.370
27979W        W  404  35.817  11.556   1.271
27980W        W  405   1.955  21.306   4.974
27981W        W  406  33.837  44.367  12.685
27982W        W  407  27.098  37.400   3.764
27983W        W  408  21.533  42.765   5.042
27984W        W  409   5.252   3.042  13.703
27985W        W  410  10.243  25.130   0.172
27986W        W  411   9.212  38.047  13.878
27987W        W  412   1.466  41.821   4.122
27988W        W  413  39.649  29.656   0.422
27989W        W  414  37.157  39.751  12.145
27990W        W  415  39.598  30.640   0.836
27991W        W  416  44.858  35.615   2.764
27992W        W  417  23.126  38.162   3.652
27993W        W  418  28.751  41.993   0.439
27994W        W  419   7.390  29.530   1.446
27995W        W  420  30.508   9.927  14.043
27996W        W  421  42.973  35.584   0.863
27997W        W  422  33.892  30.534  14.918
27998W        W  423  30.536  27.717  13.971
27999W        W  424   5.197  18.739   0.410
28000W        W  425  28.413  34.494  11.102
28001W        W  426   0.917  28.804  12.640
28002W        W  427  17.618  39.820  14.243
28003W        W  428  38.483  21.027  13.963
28004W        W  429  12.942  26.911  13.841
28005W        W  430  30.612   8.306  11.019
28006W        W  431  19.828   9.258  12.544
28007W        W  432   8.845  35.404  14.871
28008W        W  433  28.268  26.880   0.304
28009W        W  434  12.349   0.755   2.427
28010W        W  435   2.533  44.817  11.959
28011W        W  436   2.293  18.425   0.466
28012W        W  437   9.047  17.242   2.021
28013W        W  438  44.356  35.923   0.360
28014W        W  439  18.236  44.422  13.874
28015W        W  440  37.119  22.584   5.085
28016W        W  441  34.451  27.355  12.875
28017W        W  442  41.301  11.169   1.244
28018W        W  443  37.280   8.278  12.779
28019W        W  444   4.831  11.895   0.477
28020W        W  445  18.168  15.079   0.423
28021W        W  446   6.898   7.935   2.874
28022W        W  447  20.568   7.741   2.771
28023W        W  448  40.897  32.951  13.051
28024W        W  449   6.899   2.392   4.529
28025W        W  450  22.260  28.869  12.253
28026W        W  451  31.980  43.984   3.297
28027W        W  452  44.645  23.771   0.077
28028W        W  453  15.794  43.104  12.455
28029W        W  454  19.554  25.203   4.173
28030W        W  455  12.132  28.673   2.370
28031W        W  456  25.522  21.725  13.512
28032W        W  457   0.115  39.941  13.009
28033W        W  458  22.554  39.440  12.047
28034W        W  459  41.760  36.887  14.263
28035W        W  460  16.911  36.606  14.397
28036W        W  461  27.084  28.199  12.406
28037W        W  462  24.070  25.979  12.869
28038W        W  463  43.017  33.954  12.000
28039W        W  464  12.326  36.161   0.754
28040W        W  465  41.423  18.039  13.951
28041W        W  466  17.103  23.441  12.047
28042W        W  467  15.378  11.981   2.659
28043W        W  468  41.106  26.111   0.990
28044W        W  469  38.909   9.797  11.222
28045W        W  470  32.644  35.392  13.962
28046W        W  471  19.232  34.267   4.012
28047W        W  472  40.939   8.749   5.074
28048W        W  473   4.837  26.540  13.435
28049W        W  474  16.197  41.066  14.313
28050W        W  475  37.490  30.948   2.328
28051W        W  476   7.396   9.262  11.474
28052W        W  477   3.484   5.947   3.209
28053W        W  478  24.933  24.997  14.583
28054W        W  479  41.418  17.692   4.188
28055W        W  480  24.986  32.960  14.741
28056W        W  481  40.401  19.978   1.752
28057W        W  482  18.022  39.274   0.366
28058W        W  483  29.884  37.594   1.871
28059W        W  484  26.021  20.130  14.064
28060W        W  485  22.180  19.109   3.603
28061W        W  486  44.756  21.168  13.185
28062W        W  487  25.000  21.176   4.661
28063W        W  488  36.615  28.773   2.476
28064W        W  489  23.935  20.567   1.492
28065W        W  490  44.271  12.657   1.952
28066W        W  491  16.673  34.470  13.218
28067W        W  492  25.100  13.846   3.279
28068W        W  493   2.809  18.283   0.318
28069W        W  494  32.506  16.349  12.731
28070W        W  495  20.195  18.327   2.216
28071W        W  496  28.680  35.504   2.827
28072W        W  497  12.656  41.112   4.040
28073W        W  498  12.754   5.547   2.384
28074W        W  499  24.159   0.085  11.569
28075W        W  500  29.827  23.726   0.793
28076W        W  501   8.496   9.713  14.275
28077W        W  502  20.099  34.407   0.475
28078W        W  503  36.421  14.800   3.298
28079W        W  504  15.831  28.325  10.757
28080W        W  505  40.860  11.892   2.875
28081W        W  506  23.932   6.738  13.954
28082W        W  507   5.540   1.304  12.371
28083W        W  508  18.832   8.496   3.656
28084W        W  509  36.796  11.705   0.342
28085W        W  510   5.367  26.217   3.441
28086W        W  511  38.797  13.596   0.348
28087W        W  512   4.129  42.320   4.909
28088W        W  513  44.804  22.567   1.348
28089W        W  514  15.148   3.956  12.584
28090W        W  515   0.824  34.932   0.164
28091W        W  516  39.571  20.323  14.357
28092W        W  517  22.237  28.070  11.516
28093W        W  518   8.138  36.090   0.035
28094W        W  519  19.052   8.203   4.986
28095W        W  520  17.031  20.815   2.968
28096W        W  521  41.031  24.875   0.655
28097W        W  522  35.834  42.329  11.197
28098W        W  523  21.206  14.602   0.019
28099W        W  524  10.944   7.915  12.946
28100W        W  525  11.157   4.516   4.032
28101W        W  526  32.393  20.287  13.024
28102W        W  527  38.713  14.564  10.544
28103W        W  528  40.419  39.383   2.301
28104W        W  529   9.248  44.653   0.418
28105W        W  530  35.300  37.477   3.238
28106W        W  531  16.368  31.694  12.628
28107W        W  532  19.930  28.703  11.497
28108W        W  533   7.377  37.388  11.157
28109W        W  534  21.573  42.730   0.975
28110W        W  535   8.280   7.900  13.730
28111W        W  536  37.119   8.404   1.280
28112W        W  537  40.329   7.001   4.410
28113W        W  538  29.107  38.966   2.212
28114W        W  539  38.494  12.354   0.940
28115W        W  540  16.516  26.800  12.949
28116W        W  541  31.538  41.602  10.715
28117W        W  542  39.287  30.477   4.607
28118W        W  543  34.554  31.368   1.389
28119W        W  544  25.641  41.469   5.016
28120W        W  545  27.544  39.202   5.040
28121W        W  546  28.000  14.393   0.902
28122W        W  547  17.039  35.365   4.712
28123W        W  548   9.095   1.969   1.744
28124W        W  549   1.429   8.118   3.762
28125W        W  550  27.596   3.253  13.761
28126W        W  551  43.840   6.362  14.401
28127W        W  552   5.030  18.583  12.441
28128W        W  553  37.885   0.028   2.626
28129W        W  554   5.744  12.070  13.037
28130W        W  555   3.664   3.179   4.715
28131W        W  556  11.855  36.713  12.620
28132W        W  557  39.310  43.752  10.995
28133W        W  558  31.959  31.115   3.591
28134W        W  559  39.899  27.673  11.079
28135W        W  560  19.896  20.309   3.720
28136W        W  561  18.280  26.724  11.679
28137W        W  562  37.421  23.159  13.763
28138W        W  563  37.903  11.861   1.793
28139W        W  564  33.827   6.323  14.809
28140W        W  565   9.827  30.574   1.894
28141W        W  566  23.779  43.867   0.473
28142W        W  567   6.840  37.363   5.572
28143W        W  568  35.587  26.053  11.670
28144W        W  569  27.411   4.391   1.261
28145W        W  570  26.289   3.455  13.766
28146W        W  571  32.131  17.902   3.257
28147W        W  572  24.836   6.798   2.438
28148W        W  573  35.763  16.076  11.099
28149W        W  574  22.101  30.187   2.347
28150W        W  575  10.303  41.417  14.974
28151W        W  576   0.224  33.010   3.154
28152W        W  577   2.781  25.991   1.974
28153W        W  578  10.775  15.992  11.575
28154W        W  579  12.188  27.244   1.519
28155W        W  580  16.375  44.415  13.564
28156W        W  581  36.063  27.420  13.642
28157W        W  582  18.951   7.953   3.644
28158W        W  583  27.598  39.540  14.059
28159W        W  584  20.452   0.306   0.396
28160W        W  585  24.706   1.237   3.646
28161W        W  586  11.632   7.921  14.989
28162W        W  587  17.942  13.160  14.281
28163W        W  588  36.118  16.588   3.468
28164W        W  589  12.960  42.809   2.213
28165W        W  590  37.549   8.243  14.328
28166W        W  591   9.832   5.698   4.583
28167W        W  592   9.275  27.808  11.944
28168W        W  593  11.254   2.714   4.036
28169W        W  594  43.907  23.017  12.943
28170W        W  595  44.232  14.341  10.888
28171W        W  596  27.770  14.346  11.810
28172W        W  597  13.439  11.195  10.888
28173W        W  598  21.505  12.172   2.156
28174W        W  599  23.073  25.864  10.728
28175W        W  600  27.590  27.742   3.132
28176W        W  601  21.059  28.631   1.139
28177W        W  602  11.325  25.044   1.716
28178W        W  603  41.527   0.460   0.061
28179W        W  604  39.392  33.859   2.155
28180W        W  605  10.015  32.032  14.236
28181W        W  606  25.061   3.305  10.170
28182W        W  607   7.757  35.595   4.661
28183W        W  608   3.471  25.628  14.013
28184W        W  609  16.153  43.133   4.609
28185W        W  610   4.737  19.657  11.172
28186W        W  611  15.979   5.997  12.713
28187W        W  612  12.594   8.580  11.124
28188W        W  613  20.311  23.773  14.985
28189W        W  614   1.425  13.269   2.596
28190W        W  615  22.121  14.884  12.077
28191W        W  616  14.563  29.500   5.332
28192W        W  617  25.867  31.962   1.848
28193W        W  618   1.449   8.641  14.792
28194W        W  619  39.509  22.705  13.859
28195W        W  620  17.403  34.009   0.897
28196W        W  621  37.435  41.841  13.853
28197W        W  622  33.262  36.827  13.877
28198W        W  623  17.183  20.683  10.369
28199W        W  624  16.593   6.441   2.863
28200W        W  625  44.012   8.210   2.295
28201W        W  626  12.172  16.747   0.103
28202W        W  627  26.260  14.851   0.658
28203W        W  628  13.154  28.072   3.198
28204W        W  629  35.831  35.444  11.616
28205W        W  630  13.780  21.129   3.877
28206W        W  631   8.145  41.936   1.306
28207W        W  632  14.933  42.492  13.928
28208W        W  633  42.514  15.647   0.878
28209W        W  634   5.684  39.829  10.781
28210W        W  635   2.051   0.530   4.743
28211W        W  636  37.572   5.509  14.992
28212W        W  637   2.199  24.312  11.431
28213W        W  638   9.316  27.563  11.034
28214W        W  639  14.859  12.387   0.329
28215W        W  640  41.351  40.383  12.536
28216W        W  641  34.370  26.553  10.652
28217W        W  642  14.446  18.091   5.039
28218W        W  643  21.588  18.710  11.422
28219W        W  644  31.464  15.018  14.196
28220W        W  645  32.971  13.778  10.648
28221W        W  646  20.096   7.763   4.973
28222W        W  647  38.982   6.222   0.709
28223W        W  648  43.444  24.467  12.922
28224W        W  649  39.411  10.388  12.640
28225W        W  650  15.791   6.840  14.446
28226W        W  651  21.131  30.929  13.529
28227W        W  652   6.267   6.647  13.894
28228W        W  653  16.197   2.792   5.146
28229W        W  654  34.064  35.260  11.459
28230W        W  655  13.842  23.045  12.157
28231W        W  656  38.513  42.600   0.271
28232W        W  657   6.714   9.633  12.054
28233W        W  658  39.989  31.630   3.168
28234W        W  659  20.187  18.893   2.307
28235W        W  660  28.346   6.958   0.731
28236W        W  661  44.218   7.410   1.313
28237W        W  662   8.694  42.462   2.796
28238W        W  663   4.981  43.871  13.095
28239W        W  664  42.845  31.982  12.129
28240W        W  665   9.445  44.936  11.495
28241W        W  666  36.522  15.697  14.996
28242W        W  667  41.052  26.683  11.979
28243W        W  668  20.340  19.775   5.166
28244W        W  669   2.803  25.112  10.312
28245W        W  670   3.283  25.610  11.394
28246W        W  671  15.116  34.991  13.816
28247W        W  672  12.555  39.467   4.196
28248W        W  673  21.559   1.380   4.108
28249W        W  674  12.307  22.844   1.675
28250W        W  675  17.655  28.699   0.784
28251W        W  676  37.006  23.471   2.738
28252W        W  677  43.680  21.804   0.115
28253W        W  678  16.946  32.510   0.064
28254W        W  679   3.613  16.626  12.515
28255W        W  680  43.570  29.462   0.126
28256W        W  681  43.781  10.725  14.318
28257W        W  682  11.656  20.849  12.825
28258W        W  683   2.675   7.660  13.986
28259W        W  684  33.134  38.488  14.831
28260W        W  685  11.662  40.807   4.168
28261W        W  686  35.110  44.462  10.281
28262W        W  687  13.152  35.642   0.709
28263W        W  688  38.566  33.030   2.751
28264W        W  689  40.338  41.891  10.117
28265W        W  690   9.674  43.040   3.298
28266W        W  691  11.834  43.310   1.890
28267W        W  692  41.958  30.653  11.956
28268W        W  693   8.198  34.681  14.734
28269W        W  694  23.298  33.656  10.727
28270W        W  695   2.449  24.625  12.573
28271W        W  696   8.418  42.395   1.322
28272W        W  697   2.735  12.604  13.871
28273W        W  698  33.109  39.529   0.334
28274W        W  699  19.657  27.233   2.844
28275W        W  700   7.720  29.622  10.752
28276W        W  701  15.236   1.011  12.465
28277W        W  702  30.463  16.335  14.819
28278W        W  703  36.077   8.274   2.723
28279W        W  704   5.174  39.701  13.269
28280W        W  705   4.650  25.516   1.160
28281W        W  706  37.921  25.598   2.477
28282W        W  707  30.805   9.720   4.650
28283W        W  708  15.719  37.518  12.092
28284W        W  709  31.103   8.926  10.937
28285W        W  710  27.550  20.631  12.978
28286W        W  711  39.525  27.447  12.108
28287W        W  712  31.480  30.481  12.497
28288W        W  713  32.666  19.547  13.812
28289W        W  714  40.056  11.944  13.084
28290W        W  715  37.045   2.974  12.499
28291W        W  716  32.458  15.435   0.908
28292W        W  717  11.147  26.027  13.299
28293W        W  718  15.854  37.659   3.314
28294W        W  719  15.795  13.363   4.093
28295W        W  720  21.819   1.517  11.400
28296W        W  721   2.277  36.970   4.568
28297W        W  722   6.912  15.360   0.008
28298W        W  723  27.273  19.521  10.012
28299W        W  724  43.872   8.716  14.469
28300W        W  725   7.193  17.284  14.991
28301W        W  726  38.124  43.965   5.520
28302W        W  727  41.741   0.569  11.227
28303W        W  728   2.725  40.590   3.713
28304W        W  729  20.221  34.373  14.063
28305W        W  730  10.185  32.266  12.933
28306W        W  731  13.593  30.511   1.674
28307W        W  732  17.795  28.245   1.911
28308W        W  733  34.293  17.136  13.739
28309W        W  734   7.686  25.448   4.697
28310W        W  735  24.116   0.237   4.235
28311W        W  736  37.066  33.251  12.552
28312W        W  737  10.316  16.963  12.453
28313W        W  738  12.829  18.198  10.646
28314W        W  739  37.551  34.374   2.419
28315W        W  740  13.113  35.410  13.482
28316W        W  741  44.960   9.761   0.305
28317W        W  742  30.037  25.150   3.871
28318W        W  743  17.380   0.727  12.814
28319W        W  744   2.744   7.627   2.190
28320W        W  745  33.906   0.921  12.779
28321W        W  746  16.440  30.584  14.577
28322W        W  747  36.797  11.853   4.487
28323W        W  748  40.084  20.684   0.918
28324W        W  749  22.143  23.534  13.357
28325W        W  750  16.585  19.247  14.879
28326W        W  751  36.424   7.647  14.335
28327W        W  752  10.702  27.877  14.975
28328W        W  753  41.468  24.854  12.087
28329W        W  754  22.698  12.197   3.098
28330W        W  755  26.972  35.029   1.336
28331W        W  756  28.580   3.934  13.833
28332W        W  757   9.203  31.528   2.429
28333W        W  758  21.953  12.214  13.472
28334W        W  759  36.023   9.406  11.052
28335W        W  760  15.064  27.225  14.840
28336W        W  761   9.091  40.328   4.918
28337W        W  762  26.518   7.904   2.885
28338W        W  763  30.030  28.955  11.214
28339W        W  764  28.417  44.588  10.462
28340W        W  765  14.879  31.352  13.921
28341W        W  766  32.648  31.442  11.844
28342W        W  767   0.500  14.603   1.380
28343W        W  768   9.880  42.336   3.833
28344W        W  769  13.396  11.113  10.303
28345W        W  770  15.388   6.878   2.134
28346W        W  771  27.936   7.763  13.010
28347W        W  772  33.049  19.590   1.327
28348W        W  773  19.940  10.550   1.118
28349W        W  774  23.031  17.727   4.516
28350W        W  775  42.331   6.888  12.750
28351W        W  776  43.557  28.465  14.293
28352W        W  777  34.045   5.023  14.467
28353W        W  778  35.904  40.151   0.150
28354W        W  779  10.817   1.733  11.692
28355W        W  780  22.646  10.853   1.240
28356W        W  781  15.614  17.838   4.509
28357W        W  782  13.335  40.369   4.186
28358W        W  783  36.056  10.241  14.885
28359W        W  784  11.271  35.063   3.727
28360W        W  785  36.033   1.492   4.588
28361W        W  786  40.885  28.376  11.531
28362W        W  787  25.928   6.876  13.970
28363W        W  788  15.165  33.949  13.837
28364W        W  789   9.777  25.204  13.674
28365W        W  790  38.802  19.749   0.231
28366W        W  791  13.877  34.312   2.884
28367W        W  792  40.249  27.608   2.218
28368W        W  793  34.912   6.779  11.200
28369W        W  794  27.639  10.851   4.100
28370W        W  795  44.877   8.316  13.595
28371W        W  796  14.026  15.156  14.449
28372W        W  797   6.361  37.307  14.972
28373W        W  798  25.323  41.114  11.014
28374W        W  799   4.225  34.810   0.508
28375W        W  800  30.091  21.047   2.262
28376W        W  801  30.475  39.298   0.042
28377W        W  802  33.412   9.307   3.687
28378W        W  803  32.618  18.826   0.244
28379W        W  804  42.511  32.071   0.010
28380W        W  805  24.095  15.252   2.918
28381W        W  806  31.425   4.768   0.441
28382W        W  807  13.179   5.941  12.910
28383W        W  808   3.724  44.063  12.723
28384W        W  809  21.098  32.990  11.219
28385W        W  810   3.799   6.961  12.630
28386W        W  811  29.966  15.711   4.240
28387W        W  812   0.683   4.585  10.970
28388W        W  813  37.173  41.566   4.694
28389W        W  814   3.189   1.412   1.305
28390W        W  815  30.145  42.604   1.930
28391W        W  816   9.490  27.611  13.821
28392W        W  817  10.367  44.693   4.193
28393W        W  818  33.353  29.234   0.264
28394W        W  819  36.888  34.913  11.130
28395W        W  820  25.447  12.205   2.832
28396W        W  821   7.210  28.459  12.460
28397W        W  822  33.689   0.313   0.269
28398W        W  823  10.928  40.298  13.001
28399W        W  824  28.561   5.220  14.281
28400W        W  825  12.861  27.601   0.836
28401W        W  826  34.885  11.060  10.048
28402W        W  827  28.386  41.504  14.756
28403W        W  828  35.604   9.174  14.748
28404W        W  829  20.632   8.187   0.001
28405W        W  830  39.451  22.405   4.410
28406W        W  831  18.353   6.913  12.051
28407W        W  832  25.091  16.487  12.092
28408W        W  833  17.749  21.228  14.605
28409W        W  834  43.044  10.882   2.178
28410W        W  835  43.760   8.522  13.585
28411W        W  836  29.158   8.948   4.128
28412W        W  837  31.912  13.411  13.707
28413W        W  838  20.144   8.461   1.883
28414W        W  839  37.806  27.560  14.380
28415W        W  840   3.274  16.564  11.062
28416W        W  841  35.070  38.855   2.795
28417W        W  842  30.397  20.775  10.658
28418W        W  843  31.576  38.721   1.836
28419W        W  844  15.098   0.448   1.423
28420W        W  845   0.575  10.994  13.455
28421W        W  846  15.066   7.207   4.897
28422W        W  847  29.529  18.556  14.483
28423W        W  848  14.864  26.346   4.148
28424W        W  849  16.794  19.500   5.052
28425W        W  850  25.758  13.540   0.765
28426W        W  851  37.420   6.626  12.936
28427W        W  852   2.796  14.896  13.383
28428W        W  853  16.105  25.673   0.374
28429W        W  854   4.613   7.092  12.525
28430W        W  855  31.439   3.347   1.962
28431W        W  856  16.989   9.124   1.549
28432W        W  857   5.291  38.549   0.903
28433W        W  858   7.771  25.175   0.463
28434W        W  859  38.961  29.628   4.694
28435W        W  860  25.477  42.962  10.822
28436W        W  861  30.999  26.671  10.609
28437W        W  862  32.182  25.735   1.274
28438W        W  863   2.017  36.278   2.151
28439W        W  864  17.931  25.538   0.731
28440W        W  865  18.729  44.296  12.519
28441W        W  866  22.767  37.719   3.268
28442W        W  867  39.045  20.096   1.587
28443W        W  868  40.148   6.629   0.696
28444W        W  869   8.417  35.328   2.854
28445W        W  870  13.354  24.497  12.873
28446W        W  871  44.112  35.476   0.251
28447W        W  872  30.484  30.101   3.092
28448W        W  873  25.518  20.041  14.753
28449W        W  874  40.065  21.153   2.115
28450W        W  875  22.150   1.381  13.084
28451W        W  876  43.391   6.952  12.153
28452W        W  877   9.728  44.027  11.888
28453W        W  878   7.280  35.857  13.972
28454W        W  879  16.000   8.877  12.616
28455W        W  880  20.711  42.649   2.004
28456W        W  881   2.351  15.325  13.157
28457W        W  882  15.238  13.791  12.554
28458W        W  883  34.471  38.325   1.362
28459W        W  884   9.349  31.828  11.941
28460W        W  885   7.747  44.920   1.228
28461W        W  886  36.122  19.069  13.784
28462W        W  887   4.960  17.438   1.139
28463W        W  888   4.758  33.175  11.978
28464W        W  889  20.301  44.008   3.627
28465W        W  890  33.681  23.661  11.092
28466W        W  891   9.929  30.978  13.142
28467W        W  892  12.784  23.182  14.938
28468W        W  893  13.941  10.285   4.192
28469W        W  894  33.920   8.313  13.958
28470W        W  895  38.032   2.261   4.582
28471W        W  896   7.103  36.411   1.216
28472W        W  897   5.343   2.068   3.166
28473W        W  898  29.135  25.205  10.779
28474W        W  899  38.429  24.483   1.233
28475W        W  900  28.599  20.323   4.242
28476W        W  901  19.006  11.280  11.431
28477W        W  902  42.914  16.545  10.721
28478W        W  903  22.194  11.188  11.071
28479W        W  904  39.373   9.332  12.606
28480W        W  905  10.788   6.708   1.643
28481W        W  906  40.868  27.400  14.349
28482W        W  907  34.436  37.719  10.747
28483W        W  908   4.235  15.528  12.962
28484W        W  909  35.865  32.275   2.404
28485W        W  910   7.357  17.143   3.572
28486W        W  911  36.036   2.802   2.007
28487W        W  912   4.739  41.781   0.947
28488W        W  913  40.852  38.612   2.271
28489W        W  914  22.452  36.617  11.514
28490W        W  915  27.073  28.911   1.800
28491W        W  916   4.808   7.335   2.306
28492W        W  917  19.599   7.171   4.757
28493W        W  918   2.052   5.766   4.193
28494W        W  919  40.967   9.952   0.883
28495W        W  920   2.669  18.992  11.623
28496W        W  921  41.975  28.463  10.621
28497W        W  922  43.257   7.639   0.745
28498W        W  923  23.475   7.295   1.069
28499W        W  924  42.936  20.158   3.266
28500W        W  925  18.385  11.935  12.100
28501W        W  926  43.861  32.858   3.444
28502W        W  927  23.216  34.891   3.198
28503W        W  928   0.722  27.612   1.370
28504W        W  929  40.537   3.510  10.306
28505W        W  930  23.054  33.880  11.121
28506W        W  931  35.945  32.915   4.584
28507W        W  932  25.482  35.727   3.712
28508W        W  933  18.891  32.503   3.749
28509W        W  934  39.787  31.084  12.791
28510W        W  935  25.355   3.282  11.560
28511W        W  936   2.495  11.588   4.082
28512W        W  937  22.665  17.242  10.614
28513W        W  938   6.378   0.323   3.359
28514W        W  939  27.743  35.198   1.462
28515W        W  940  10.726  42.550   3.322
28516W        W  941  30.429  36.310   4.109
28517W        W  942  34.116  21.508  11.577
28518W        W  943  33.292  15.576  10.289
28519W        W  944   9.288  10.524   3.208
28520W        W  945  36.474  44.788   3.713
28521W        W  946  10.040   3.661  14.487
28522W        W  947  25.822  35.749  14.767
28523W        W  948  33.369  37.039  12.008
28524W        W  949  28.143  42.865   1.098
28525W        W  950  38.838  16.318   0.388
28526W        W  951  23.168   2.220  14.298
28527W        W  952  30.991  42.998   0.281
28528W        W  953   7.779  33.989   5.518
28529W        W  954  24.254   9.928   1.843
28530W        W  955  18.235   9.352  14.706
28531W        W  956  17.203  11.106  14.542
28532W        W  957  35.651  20.150  11.934
28533W        W  958   3.264   9.173   4.542
28534W        W  959  25.087  33.159   1.064
28535W        W  960  28.560   3.396  10.722
28536W        W  961  25.566  24.453  12.239
28537W        W  962  27.025  42.242   2.756
28538W        W  963  41.755  23.474   4.277
28539W        W  964  35.374   6.276   1.725
28540W        W  965   5.555   0.565   3.289
28541W        W  966  37.126  17.670  11.403
28542W        W  967  24.944  32.965   4.251
28543W        W  968   3.482   6.872  13.321
28544W        W  969   3.199   9.314   0.916
28545W        W  970   7.564   8.915   4.250
28546W        W  971  19.980  15.751  10.809
28547W        W  972   5.945   6.459   3.479
28548W        W  973   4.267  23.116  11.592
28549W        W  974  14.103  36.365  13.886
28550W        W  975   4.921  13.690   1.427
28551W        W  976  39.474  29.503   3.474
28552W        W  977  17.098  42.959   5.019
28553W        W  978  28.924  30.061  10.781
28554W        W  979  33.150  44.345   0.202
28555W        W  980   3.286  17.069   2.317
28556W        W  981  18.690  24.478   3.188
28557W        W  982   6.114  28.904  12.433
28558W        W  983  16.213  23.416   4.419
28559W        W  984  15.882   6.584  13.943
28560W        W  985  33.478  24.767  12.910
28561W        W  986  44.321  33.655  10.812
28562W        W  987  37.147  19.841   1.591
28563W        W  988   1.943   3.775  13.843
28564W        W  989  40.534  33.363   3.534
28565W        W  990  35.339   3.185  11.612
28566W        W  991  38.569   0.237  12.658
28567W        W  992  27.900  30.617   1.943
28568W        W  993  35.631  39.402  10.712
28569W        W  994  35.551  12.201  14.093
28570W        W  995  40.964  19.804  14.108
28571W        W  996  12.571  17.761  13.462
28572W        W  997  17.668  42.768   2.878
28573W        W  998  31.526  13.777   4.577
28574W        W  999   5.168  14.838   4.225
28575W        W 1000  35.653  10.904   3.230
28576W        W 1001   3.169  30.447  13.482
28577W        W 1002  11.732  16.541   0.793
28578W        W 1003  39.603  43.626  10.550
28579W        W 1004  11.730  44.517  14.789
28580W        W 1005  42.295   4.521   3.793
28581W        W 1006  28.629  12.610  11.044
28582W        W 1007  33.907   0.194   3.698
28583W        W 1008  29.560  31.565  10.505
28584W        W 1009  29.954  20.629  10.917
28585W        W 1010  30.112  36.479  10.656
28586W        W 1011  24.742  33.085   2.422
28587W        W 1012  29.974  29.702  13.459
28588W        W 1013  37.330   5.226   1.760
28589W        W 1014  15.520  36.873   1.177
28590W        W 1015  39.175  12.017   3.295
28591W        W 1016  24.626  43.114  10.573
28592W        W 1017  27.695   5.142   0.564
28593W        W 1018  24.968   3.336  11.210
28594W        W 1019  38.025  34.590   3.321
28595W        W 1020  42.687  24.384  11.651
28596W        W 1021  33.650  37.323  10.722
28597W        W 1022  24.123   0.201   0.243
28598W        W 1023  24.266   7.689  13.955
28599W        W 1024   2.044  24.608   1.921
28600W        W 1025  40.294  25.201  10.789
28601W        W 1026  14.152  21.990  13.027
28602W        W 1027   2.873  27.308  11.636
28603W        W 1028   7.468  40.830  14.009
28604W        W 1029  22.575  24.515  10.482
28605W        W 1030  27.361  10.731   4.529
28606W        W 1031  37.871  32.776   3.752
28607W        W 1032  42.437  39.426   3.337
28608W        W 1033  29.141   9.742  11.199
28609W        W 1034  43.519  33.954  14.319
28610W        W 1035  34.318   6.303  14.119
28611W        W 1036  29.582  39.998  14.723
28612W        W 1037   6.643  14.328  10.496
28613W        W 1038  21.485  43.279   0.027
28614W        W 1039  39.065  44.695   1.363
28615W        W 1040   6.000   0.192  11.992
28616W        W 1041  27.266   8.236   4.847
28617W        W 1042   4.486  23.279  13.841
28618W        W 1043   8.290   7.367  10.660
28619W        W 1044  12.982  16.065  14.968
28620W        W 1045  24.622   8.982  10.694
28621W        W 1046   3.273  35.588  14.427
28622W        W 1047   1.767  20.562   1.269
28623W        W 1048  13.062  25.424  11.944
28624W        W 1049  27.142  22.830   4.457
28625W        W 1050  27.123  30.664  12.517
28626W        W 1051   9.839   9.701   2.845
28627W        W 1052  44.413   3.663  12.165
28628W        W 1053   2.781   1.634   5.166
28629W        W 1054  30.677  22.557   1.853
28630W        W 1055   6.245  12.610  12.445
28631W        W 1056   6.176   3.296   2.327
28632W        W 1057  29.953  34.972   3.772
28633W        W 1058  20.765  36.142   3.207
28634W        W 1059  28.949  20.781   1.892
28635W        W 1060   4.207   3.793  13.129
28636W        W 1061   2.535  36.060  12.591
28637W        W 1062  15.714  16.054  14.439
28638W        W 1063   3.357  29.610   4.573
28639W        W 1064  10.877  31.226   1.386
28640W        W 1065  43.006  44.248   0.959
28641W        W 1066  28.852  37.491   0.012
28642W        W 1067  33.683  23.589   1.164
28643W        W 1068  33.077   0.003  14.272
28644W        W 1069  42.900  20.399   2.242
28645W        W 1070  27.236  14.383  11.029
28646W        W 1071  44.341  33.857   2.752
28647W        W 1072  36.562  40.939  14.898
28648W        W 1073  35.521   3.288  14.052
28649W        W 1074  34.647   1.367  11.919
28650W        W 1075  42.729   6.794  11.494
28651W        W 1076  35.035  28.981   2.620
28652W        W 1077  37.032  37.598   0.628
28653W        W 1078   4.699  37.613   0.294
28654W        W 1079  42.059  10.112  14.822
28655W        W 1080  23.951   5.424   4.564
28656W        W 1081   4.218  43.866   0.918
28657W        W 1082  11.113  20.087  12.561
28658W        W 1083   3.244  40.133  11.864
28659W        W 1084  12.415  14.263   3.346
28660W        W 1085   0.307  39.212   3.521
28661W        W 1086  11.096  19.676  14.330
28662W        W 1087   7.292   8.257   4.675
28663W        W 1088  42.418   7.308  13.049
28664W        W 1089   2.118  23.869   0.811
28665W        W 1090  35.903  34.966  14.954
28666W        W 1091  31.638  36.139  11.896
28667W        W 1092  19.882  37.830   5.055
28668W        W 1093  25.515  10.225  10.180
28669W        W 1094  33.609   1.762   2.671
28670W        W 1095  34.495  13.390   1.035
28671W        W 1096   9.544  21.663   2.845
28672W        W 1097  17.048  14.045  10.993
28673W        W 1098  38.961  20.598  10.926
28674W        W 1099   9.274  27.808   4.466
28675W        W 1100   0.674  18.338  14.932
28676W        W 1101  34.101  20.453   3.544
28677W        W 1102  11.602  38.559  12.869
28678W        W 1103  15.469  28.804  11.597
28679W        W 1104  35.467  38.460   4.615
28680W        W 1105  34.527  15.240   1.405
28681W        W 1106  20.113  16.218  14.437
28682W        W 1107  13.656  35.834  13.386
28683W        W 1108  28.631  36.912   4.324
28684W        W 1109  11.408  17.683   2.746
28685W        W 1110   9.595  19.574  10.991
28686W        W 1111  13.759   2.183   2.723
28687W        W 1112  33.925  40.042   4.566
28688W        W 1113  29.815  18.167  14.277
28689W        W 1114  23.310  25.604   1.295
28690W        W 1115  15.134  34.553   0.327
28691W        W 1116  12.550  26.220   4.845
28692W        W 1117  33.150   0.337   4.161
28693W        W 1118  10.336  41.068   0.436
28694W        W 1119   3.056   4.379  12.853
28695W        W 1120  16.335  14.851   4.330
28696W        W 1121  24.046  19.675  11.613
28697W        W 1122  18.938  16.075  14.853
28698W        W 1123  22.851  14.284  12.115
28699W        W 1124  37.377  14.139  12.188
28700W        W 1125   7.751   6.495   1.885
28701W        W 1126  20.042  14.095   3.234
28702W        W 1127  22.763  18.177   2.708
28703W        W 1128  10.743  17.665   4.341
28704W        W 1129  19.490   5.324   3.803
28705W        W 1130  44.951   0.289   3.124
28706W        W 1131  26.729  24.055  13.414
28707W        W 1132  24.617   4.626   0.277
28708W        W 1133  16.346  43.310   0.541
28709W        W 1134  36.445  15.639  10.827
28710W        W 1135  29.592  43.440  14.141
28711W        W 1136  15.157  36.432  13.131
28712W        W 1137   4.940  39.427  12.893
28713W        W 1138  29.389  10.203   0.830
28714W        W 1139  33.728  34.708   4.574
28715W        W 1140  37.763  17.104  10.594
28716W        W 1141  32.604   6.843  13.034
28717W        W 1142  41.513  35.901   4.418
28718W        W 1143  21.721  10.436   1.154
28719W        W 1144   2.428   3.476  11.867
28720W        W 1145  38.869  44.509  13.792
28721W        W 1146  20.501  19.165   1.276
28722W        W 1147  37.416  21.157   4.668
28723W        W 1148  22.309  16.128  10.374
28724W        W 1149  34.571  34.028   4.097
28725W        W 1150  43.944  15.098   2.059
28726W        W 1151  16.500  42.185  12.114
28727W        W 1152  19.136  29.424   1.523
28728W        W 1153  15.202  12.105  10.643
28729W        W 1154  42.391  41.293   3.861
28730W        W 1155   8.410  35.045   0.595
28731W        W 1156  42.488  44.999  13.045
28732W        W 1157  44.692  34.080   2.430
28733W        W 1158  32.683  34.363   1.907
28734W        W 1159  12.151   5.450   3.226
28735W        W 1160  30.101  22.282   3.265
28736W        W 1161  34.493  24.527  10.770
28737W        W 1162  20.795  27.819   4.646
28738W        W 1163  21.099  11.876   4.135
28739W        W 1164  19.137  22.043   0.698
28740W        W 1165  14.256  41.841  13.630
28741W        W 1166  27.979  31.929   0.205
28742W        W 1167  26.486  42.097  10.441
28743W        W 1168  12.842  33.076   4.194
28744W        W 1169  40.343  22.656  10.894
28745W        W 1170  22.758  34.388   3.733
28746W        W 1171   9.695  34.029  10.918
28747W        W 1172  36.940   1.176  13.895
28748W        W 1173  44.572   0.223   1.708
28749W        W 1174   0.949  22.171   3.654
28750W        W 1175  21.728  40.087   4.253
28751W        W 1176  30.018  10.929   2.810
28752W        W 1177  32.039  13.883   1.359
28753W        W 1178   7.352   3.662   1.861
28754W        W 1179   0.176   6.233  14.425
28755W        W 1180  17.376  34.898   4.630
28756W        W 1181  40.893   5.141   3.504
28757W        W 1182  11.264  15.315   1.020
28758W        W 1183  23.075  40.150  13.991
28759W        W 1184  25.296  24.973  13.102
28760W        W 1185  38.621  30.353   9.582
28761W        W 1186   8.402  16.826   3.700
28762W        W 1187  36.471  43.930  13.080
28763W        W 1188  43.027   9.400  11.497
28764W        W 1189  40.741  43.745  13.636
28765W        W 1190   5.484   4.365  12.483
28766W        W 1191  30.447  35.792  12.398
28767W        W 1192  16.651  24.814  13.886
28768W        W 1193  40.000  33.225  11.647
28769W        W 1194  44.177   8.846  13.481
28770W        W 1195  19.304  26.290   1.391
28771W        W 1196   4.449   6.961  13.009
28772W        W 1197  18.660  27.216  11.403
28773W        W 1198  35.006   3.452  12.886
28774W        W 1199  22.255  41.855   2.483
28775W        W 1200  24.421  33.672  12.923
28776W        W 1201  23.939  37.541  12.785
28777W        W 1202   2.860  30.962   1.976
28778W        W 1203  29.625   7.858   0.749
28779W        W 1204  40.018  18.737  13.394
28780W        W 1205  12.073   6.241   4.540
28781W        W 1206  43.373  40.908  12.069
28782W        W 1207  23.446  21.937  12.877
28783W        W 1208  33.167  25.647   1.258
28784W        W 1209  44.321   5.123  14.519
28785W        W 1210  25.862  40.842  14.807
28786W        W 1211  20.560  19.608   3.688
28787W        W 1212  44.755  16.327  11.958
28788W        W 1213  25.536  13.538   4.053
28789W        W 1214  40.118   3.736  14.105
28790W        W 1215  29.369  24.185  12.456
28791W        W 1216  41.045  32.037   2.854
28792W        W 1217   8.601  16.765  12.083
28793W        W 1218  36.500  11.314  10.494
28794W        W 1219   9.498   1.736  13.442
28795W        W 1220  13.914  17.697   4.462
28796W        W 1221   1.719   2.202   4.296
28797W        W 1222  44.520  11.320  10.865
28798W        W 1223  23.645   8.635  11.720
28799W        W 1224  13.360  12.737  11.633
28800W        W 1225  43.885  14.842  13.976
28801W        W 1226  13.899  13.683   0.592
28802W        W 1227  14.995  29.490  13.768
28803W        W 1228  26.554  44.837   2.417
28804W        W 1229  42.708  39.288  11.182
28805W        W 1230  21.442  28.531   4.141
28806W        W 1231  42.292  39.932  10.900
28807W        W 1232  11.865  36.488  14.780
28808W        W 1233   2.300   1.233  12.281
28809W        W 1234  35.973  30.154   2.255
28810W        W 1235  10.674  36.981   0.963
28811W        W 1236  13.707   5.688  12.891
28812W        W 1237  21.077  42.962  12.410
28813W        W 1238  30.925   5.934  12.943
28814W        W 1239  16.255   0.856  13.324
28815W        W 1240   7.191  36.894  14.895
28816W        W 1241   9.773  43.966  12.398
28817W        W 1242  32.683  26.563   0.912
28818W        W 1243  23.277  42.305  14.260
28819W        W 1244  39.366  15.831  10.775
28820W        W 1245  11.665  14.637   0.704
28821W        W 1246  38.907  27.553   4.525
28822W        W 1247  10.374   8.236   2.253
28823W        W 1248  14.504  28.706  14.667
28824W        W 1249  34.045  30.535   4.423
28825W        W 1250   5.683  11.390   1.868
28826W        W 1251   7.073  12.541  12.387
28827W        W 1252  21.649  20.694  10.998
28828W        W 1253  15.607  12.605   4.262
28829W        W 1254  22.261  36.434   0.084
28830W        W 1255   9.247  42.391   3.213
28831W        W 1256  40.080  19.782  14.835
28832W        W 1257  19.445  40.901  11.281
28833W        W 1258  13.791  36.328  13.471
28834W        W 1259  16.167   4.825  14.872
28835W        W 1260  11.262   1.911   3.566
28836W        W 1261  20.487  10.699   1.429
28837W        W 1262  25.958  21.735  14.834
28838W        W 1263  37.896  10.293   1.404
28839W        W 1264  12.188   7.178   3.071
28840W        W 1265  43.943   9.761   4.670
28841W        W 1266  22.731  27.121   0.180
28842W        W 1267  36.520  26.607  12.455
28843W        W 1268  39.545  23.448   2.834
28844W        W 1269  33.650  33.453  14.481
28845W        W 1270  12.758  22.599  14.321
28846W        W 1271   9.852  33.529   3.164
28847W        W 1272   4.800  18.241  10.681
28848W        W 1273  28.582  31.534  11.960
28849W        W 1274  40.900  40.301   3.726
28850W        W 1275   1.454   5.148   1.983
28851W        W 1276  34.113  33.707  14.455
28852W        W 1277  26.338  21.680   0.291
28853W        W 1278  13.240  14.396   2.855
28854W        W 1279   3.839  28.126   2.267
28855W        W 1280  21.287  21.191   4.846
28856W        W 1281  34.482  38.520   3.910
28857W        W 1282  18.140  32.635   4.157
28858W        W 1283   6.666  33.520  12.633
28859W        W 1284  28.008   2.453   1.002
28860W        W 1285   4.914  11.860   2.348
28861W        W 1286  42.508   0.375   1.026
28862W        W 1287   8.580  16.341   0.326
28863W        W 1288   3.736  32.774  12.159
28864W        W 1289  15.225   0.276  14.922
28865W        W 1290  34.016  27.999  11.175
28866W        W 1291  17.947   6.369   3.910
28867W        W 1292  39.428  35.477   4.220
28868W        W 1293  42.090  14.249  13.461
28869W        W 1294  25.655  13.235  14.236
28870W        W 1295  42.989  28.950  14.392
28871W        W 1296  22.652  44.521   0.837
28872W        W 1297  39.572  17.427  12.689
28873W        W 1298  17.988  37.831   1.826
28874W        W 1299  33.932  27.179   3.663
28875W        W 1300  21.490  18.189   1.593
28876W        W 1301  22.796   7.761   4.292
28877W        W 1302  22.200  35.885   0.479
28878W        W 1303  13.398  34.845  13.433
28879W        W 1304   5.828  15.847   0.774
28880W        W 1305  36.354   3.870  11.125
28881W        W 1306  36.018   3.195  14.822
28882W        W 1307  32.547   7.414   2.964
28883W        W 1308  10.420  30.863  12.090
28884W        W 1309  20.124  32.139  13.351
28885W        W 1310  20.701  30.457  11.517
28886W        W 1311  40.921  39.318   4.495
28887W        W 1312  18.039  26.955   3.836
28888W        W 1313   7.438  20.641  14.977
28889W        W 1314  22.538  40.848   0.366
28890W        W 1315   0.271  21.230   0.325
28891W        W 1316  14.860  32.159  13.167
28892W        W 1317  23.768  41.139  11.564
28893W        W 1318  35.324   2.870   3.895
28894W        W 1319  41.533  38.375  12.297
28895W        W 1320  11.420  28.805  14.009
28896W        W 1321  26.138   6.441  10.714
28897W        W 1322  36.361  21.569   4.773
28898W        W 1323  34.063  27.723   1.293
28899W        W 1324  39.331  20.794  10.632
28900W        W 1325  12.834  41.533  12.393
28901W        W 1326  15.264  16.607  10.377
28902W        W 1327  41.423  10.234   0.680
28903W        W 1328  26.679  36.575   3.400
28904W        W 1329   9.823  16.754   2.757
28905W        W 1330   7.727  40.474   1.312
28906W        W 1331  34.544  23.217  14.498
28907W        W 1332  31.876   8.685   2.815
28908W        W 1333  29.600  40.616   1.524
28909W        W 1334  39.148  24.031   3.788
28910W        W 1335  38.517  28.207   4.682
28911W        W 1336  23.632  23.667   3.716
28912W        W 1337  20.020  35.796   0.365
28913W        W 1338  29.655  18.620   4.524
28914W        W 1339  43.871  42.947  13.032
28915W        W 1340  43.548  36.150   3.079
28916W        W 1341  44.941  29.570   3.180
28917W        W 1342  16.395   3.047   0.509
28918W        W 1343  18.318  25.688  14.270
28919W        W 1344  26.739  19.202   4.685
28920W        W 1345  11.434  31.305   1.465
28921W        W 1346   7.520  16.655   3.498
28922W        W 1347  30.963  33.181  13.017
28923W        W 1348  27.216  23.723  12.043
28924W        W 1349  36.873  43.823  13.849
28925W        W 1350  44.457   6.888  12.405
28926W        W 1351  41.361  17.313   3.180
28927W        W 1352  31.148  13.314   2.776
28928W        W 1353  25.954  21.344  10.699
28929W        W 1354  20.246  30.916  11.887
28930W        W 1355  43.845  27.913  13.105
28931W        W 1356  40.078  10.702   1.999
28932W        W 1357  42.910   3.758  14.413
28933W        W 1358  43.742  10.310   1.283
28934W        W 1359   2.216  19.693   1.414
28935W        W 1360  35.868  33.071  10.702
28936W        W 1361  14.201  33.244  14.186
28937W        W 1362  29.521  28.439  12.873
28938W        W 1363  34.298  43.009  14.928
28939W        W 1364  42.338  27.546  10.791
28940W        W 1365   6.683  36.708   3.840
28941W        W 1366   6.875   3.758   2.181
28942W        W 1367  34.653  42.290  14.981
28943W        W 1368  18.947  18.742  14.335
28944W        W 1369   2.224  13.882   2.355
28945W        W 1370  31.342   4.342  14.926
28946W        W 1371  37.210  25.180   5.358
28947W        W 1372  34.552  18.116  11.061
28948W        W 1373   5.831   6.656   1.159
28949W        W 1374  36.230   8.079  10.687
28950W        W 1375  39.876   1.508  10.716
28951W        W 1376  17.712   4.434   2.835
28952W        W 1377  38.018  13.121  10.488
28953W        W 1378  20.205  23.618  13.968
28954W        W 1379   6.798  11.764   1.233
28955W        W 1380  18.735  28.044  11.058
28956W        W 1381   4.261  43.544  12.468
28957W        W 1382   7.323  40.508   1.705
28958W        W 1383  28.157  42.119  13.505
28959W        W 1384  38.026  41.728  14.881
28960W        W 1385  43.284  28.105   3.266
28961W        W 1386   5.290  35.371   2.228
28962W        W 1387  36.101   7.214   3.261
28963W        W 1388  21.501  41.046  14.543
28964W        W 1389  20.955  36.894   4.393
28965W        W 1390  36.380  18.048  11.414
28966W        W 1391  34.501  12.839  14.357
28967W        W 1392  29.948  35.793  12.519
28968W        W 1393  34.598  13.350  11.409
28969W        W 1394  27.282  29.102   4.419
28970W        W 1395  32.089   3.195   2.236
28971W        W 1396  33.976  21.991   3.876
28972W        W 1397  41.742  34.362  11.746
28973W        W 1398  44.236   8.502   4.238
28974W        W 1399  21.184  43.980  13.917
28975W        W 1400  23.237  44.405   4.424
28976W        W 1401  35.466  24.610   1.331
28977W        W 1402  29.654  20.673   1.421
28978W        W 1403   5.998   8.761   3.221
28979W        W 1404   3.755  10.713  13.104
28980W        W 1405   9.880  33.920  12.949
28981W        W 1406   4.945  43.880  12.078
28982W        W 1407  20.673  13.363   0.396
28983W        W 1408  40.047  29.496   3.775
28984W        W 1409  19.107  10.314   4.214
28985W        W 1410  22.709  10.997  11.959
28986W        W 1411   3.770   2.414  13.996
28987W        W 1412  10.719   2.896  13.264
28988W        W 1413  24.676  17.633   2.398
28989W        W 1414   9.203   2.772   3.541
28990W        W 1415   8.061  11.230  13.804
28991W        W 1416  41.017  29.157   4.586
28992W        W 1417   0.512  22.604  10.426
28993W        W 1418   6.403  21.134  12.685
28994W        W 1419  33.490   6.835   4.181
28995W        W 1420   8.243  33.563   0.318
28996W        W 1421  33.437   1.554  11.648
28997W        W 1422  19.127  31.911  13.955
28998W        W 1423  20.834  26.014   1.523
28999W        W 1424  39.591  13.157   0.226
29000W        W 1425  33.089  16.885  13.322
29001W        W 1426  44.904  18.185  14.419
29002W        W 1427   5.777   0.195   1.299
29003W        W 1428  41.431  18.208   2.934
29004W        W 1429  34.835  17.676  12.130
29005W        W 1430   6.664  31.513  14.810
29006W        W 1431  29.660  19.463   0.767
29007W        W 1432  13.375   1.801  13.885
29008W        W 1433  39.108  37.471   0.969
29009W        W 1434   6.645  15.326  10.755
29010W        W 1435  36.423  31.587  12.639
29011W        W 1436  19.403  10.906   4.201
29012W        W 1437  40.734  32.630  11.069
29013W        W 1438  21.352  24.461   4.363
29014W        W 1439  27.382  37.764   2.800
29015W        W 1440  44.933  37.140  12.989
29016W        W 1441  16.109   1.284   3.688
29017W        W 1442  10.984   3.865   0.258
29018W        W 1443  27.048   4.545  14.975
29019W        W 1444   3.360   9.967  14.507
29020W        W 1445   8.166   1.977  13.880
29021W        W 1446  30.984  42.817  11.085
29022W        W 1447  29.970  17.434  10.693
29023W        W 1448  30.083  12.255   3.573
29024W        W 1449  19.113  20.137  10.757
29025W        W 1450   3.610  44.542  12.890
29026W        W 1451  29.155  16.873  11.600
29027W        W 1452  14.841  12.641   0.790
29028W        W 1453   8.400   9.370   4.404
29029W        W 1454  38.841  38.170   1.382
29030W        W 1455  16.370  28.067  13.860
29031W        W 1456  37.376  39.825  14.865
29032W        W 1457   1.914  19.496   0.933
29033W        W 1458  38.977  35.483  10.733
29034W        W 1459  20.095   3.680  11.108
29035W        W 1460  21.531   5.832  11.526
29036W        W 1461  16.106  18.050   2.839
29037W        W 1462  36.681  36.989  11.576
29038W        W 1463  22.070  43.970   3.914
29039W        W 1464  12.127   3.749   3.703
29040W        W 1465   4.900  24.614  14.958
29041W        W 1466  26.528  21.917  11.137
29042W        W 1467  13.355  30.039  14.404
29043W        W 1468  35.085   9.834   2.156
29044W        W 1469  43.326  39.489   1.512
29045W        W 1470  36.663  34.151   3.339
29046W        W 1471   3.489  37.943  14.416
29047W        W 1472  33.465  23.530  14.819
29048W        W 1473  13.557  20.457  13.414
29049W        W 1474  15.541  10.652  12.204
29050W        W 1475  24.053  42.924   4.192
29051W        W 1476  25.484  20.735   3.621
29052W        W 1477  30.977  34.984  12.490
29053W        W 1478  42.034   6.205  12.509
29054W        W 1479  20.187   9.906   1.371
29055W        W 1480  36.448   9.795   1.896
29056W        W 1481   5.444  26.226   2.262
29057W        W 1482   9.942  38.681   4.762
29058W        W 1483   7.378  27.014   4.532
29059W        W 1484   4.414   0.041   3.201
29060W        W 1485  31.410  24.539  10.750
29061W        W 1486  31.544   7.108  10.930
29062W        W 1487  39.834  38.842  12.435
29063W        W 1488   4.466  21.225   3.872
29064W        W 1489  35.667  44.003   3.268
29065W        W 1490  15.327  35.426  14.001
29066W        W 1491  30.540  19.154   3.261
29067W        W 1492  18.154  14.534  13.893
29068W        W 1493  29.546  12.877   0.507
29069W        W 1494  32.094  41.122  14.883
29070W        W 1495  31.185  43.925  13.508
29071W        W 1496  10.551  33.391  13.000
29072W        W 1497  38.838  29.712   3.767
29073W        W 1498  41.408  23.619   4.851
29074W        W 1499   7.600   1.481  10.417
29075W        W 1500   8.181  44.473  13.922
29076W        W 1501  13.639  28.105  12.890
29077W        W 1502  39.388   1.351   1.873
29078W        W 1503  26.040  30.482  13.951
29079W        W 1504   3.257  17.319  13.068
29080W        W 1505   1.874  30.992  14.130
29081W        W 1506  14.387   2.682   3.414
29082W        W 1507  22.525  20.370  11.435
29083W        W 1508  25.831  38.456  14.698
29084W        W 1509   2.236  37.262   5.290
29085W        W 1510  13.282  28.853   4.583
29086W        W 1511  31.961  42.465   0.962
29087W        W 1512   9.266  34.948  11.364
29088W        W 1513  16.796  20.239   2.779
29089W        W 1514  23.575  11.131   1.220
29090W        W 1515  42.931   1.288  11.062
29091W        W 1516  41.192  15.844   0.304
29092W        W 1517  33.541  12.246  11.388
29093W        W 1518  39.871  40.887   3.113
29094W        W 1519   4.673  34.520  13.709
29095W        W 1520  18.972  36.409   0.930
29096W        W 1521  23.602  26.557  10.690
29097W        W 1522  25.275   8.577  14.287
29098W        W 1523   0.581  23.722   9.862
29099W        W 1524  20.210  17.774  11.242
29100W        W 1525  13.686  18.189   1.690
29101W        W 1526  14.571  10.395   3.316
29102W        W 1527  15.621  34.316   0.393
29103W        W 1528   4.306   2.916  11.053
29104W        W 1529   0.684  21.467   4.148
29105W        W 1530  24.301  14.593   0.174
29106W        W 1531  42.612  30.248  13.518
29107W        W 1532   1.846  26.134   2.441
29108W        W 1533  39.001   5.958  12.446
29109W        W 1534  34.119  11.712  14.333
29110W        W 1535   7.503   6.235   2.314
29111W        W 1536  22.733  41.447  13.537
29112W        W 1537   8.250   1.819   0.744
29113W        W 1538  14.497   1.801  11.528
29114W        W 1539  32.789  23.762  14.405
29115W        W 1540  21.709  26.700  11.570
29116W        W 1541  38.962  32.456  13.342
29117W        W 1542  44.029   7.832   2.665
29118W        W 1543  24.696  26.549   4.655
29119W        W 1544  38.248  38.421   4.566
29120W        W 1545   7.956   9.196  11.453
29121W        W 1546   5.968  24.907  14.972
29122W        W 1547  37.504  36.557   4.558
29123W        W 1548  12.799   9.578   0.742
29124W        W 1549   4.717  42.555   0.229
29125W        W 1550  10.304  30.039  14.495
29126W        W 1551  18.325  29.526   0.797
29127W        W 1552  31.547  24.186   2.415
29128W        W 1553   6.892  44.354   4.434
29129W        W 1554  20.042   7.741   3.594
29130W        W 1555  43.960  12.270  13.421
29131W        W 1556  34.344  21.012  10.727
29132W        W 1557  18.540  21.058   2.753
29133W        W 1558  20.227  32.367   3.749
29134W        W 1559  15.773  18.036  14.540
29135W        W 1560   8.243   7.002  14.762
29136W        W 1561  21.031  13.554  11.040
29137W        W 1562   2.394  31.133  12.446
29138W        W 1563  15.097  33.790  13.362
29139W        W 1564  12.064  36.856   2.822
29140W        W 1565  21.143  43.486  12.399
29141W        W 1566  41.725  20.937  14.849
29142W        W 1567   4.965   9.593  14.808
29143W        W 1568  32.601  19.030   9.516
29144W        W 1569  28.494  36.085   0.760
29145W        W 1570  41.573  40.060  13.969
29146W        W 1571  34.500  32.052  14.511
29147W        W 1572  18.052  36.352  11.790
29148W        W 1573   0.917  15.637  10.458
29149W        W 1574  20.973  29.650   5.019
29150W        W 1575  14.046  42.328   3.177
29151W        W 1576  30.529   1.142  10.586
29152W        W 1577  36.147  23.052  12.879
29153W        W 1578  37.980   5.275  14.738
29154W        W 1579  38.729  23.052  11.495
29155W        W 1580   5.985  38.012  14.661
29156W        W 1581  32.180  17.060  12.039
29157W        W 1582   2.198  28.523  12.892
29158W        W 1583   0.514   7.340   0.843
29159W        W 1584  11.307  10.567   4.761
29160W        W 1585   7.918  26.529   4.053
29161W        W 1586  18.511  28.664   4.016
29162W        W 1587   2.449   4.213   1.320
29163W        W 1588  24.104  33.530   2.277
29164W        W 1589  24.586  24.847   4.275
29165W        W 1590  31.963  16.738   4.556
29166W        W 1591   9.618   6.506   0.734
29167W        W 1592  15.820  40.534   2.129
29168W        W 1593   4.011   1.267   1.909
29169W        W 1594  42.068  19.311   4.154
29170W        W 1595  38.550  20.955  13.027
29171W        W 1596  27.003  17.747  11.661
29172W        W 1597  34.642   5.921  14.953
29173W        W 1598  26.562  13.204  10.962
29174W        W 1599  30.373  25.710   2.263
29175W        W 1600   4.335  23.466  14.815
29176W        W 1601   9.390  10.818  10.887
29177W        W 1602   4.436  12.577  14.363
29178W        W 1603  28.396   0.895  10.663
29179W        W 1604  25.086  12.520  11.552
29180W        W 1605  10.861  37.938   3.682
29181W        W 1606  25.986  30.640  11.701
29182W        W 1607  33.394  11.142  12.288
29183W        W 1608  42.811  39.500   4.641
29184W        W 1609   4.316  20.795   3.586
29185W        W 1610  15.749  42.895   3.460
29186W        W 1611   9.183  39.114   0.925
29187W        W 1612  31.014  34.450   2.577
29188W        W 1613  33.591  21.213   2.262
29189W        W 1614  23.143  27.320   0.457
29190W        W 1615  10.854  14.135  11.596
29191W        W 1616  12.199  27.795   1.480
29192W        W 1617  25.537   0.239   1.443
29193W        W 1618  12.102   2.160  11.145
29194W        W 1619   5.620  21.088  13.924
29195W        W 1620  19.438   0.943   4.606
29196W        W 1621  30.019   7.567  13.571
29197W        W 1622  39.606  12.795   3.792
29198W        W 1623  21.242  26.927  13.027
29199W        W 1624  31.345   5.302   4.839
29200W        W 1625  38.054  12.809  11.250
29201W        W 1626  41.007  33.547   1.734
29202W        W 1627   0.264  35.397  14.409
29203W        W 1628   4.379   2.739   0.834
29204W        W 1629  37.833  36.513  13.339
29205W        W 1630  29.520   3.745  11.963
29206W        W 1631  23.339   9.737   2.741
29207W        W 1632  42.730  13.217   1.402
29208W        W 1633  32.132  22.490   0.753
29209W        W 1634  35.393  22.300  12.925
29210W        W 1635   8.847  17.027   2.823
29211W        W 1636  18.751   9.287  13.956
29212W        W 1637  40.484  43.506  10.088
29213W        W 1638   9.132  27.029  11.257
29214W        W 1639  25.314  35.900   1.692
29215W        W 1640  35.063  18.812  12.945
29216W        W 1641  19.782  38.115   4.664
29217W        W 1642  18.831  16.685  10.659
29218W        W 1643  23.427  16.586   0.008
29219W        W 1644   7.365   6.357   1.295
29220W        W 1645  24.989  43.901  12.024
29221W        W 1646  21.676  27.660  13.943
29222W        W 1647  24.664  21.510   0.829
29223W        W 1648  13.283  25.132   0.366
29224W        W 1649   0.318  25.246   0.757
29225W        W 1650  34.433  30.669  13.790
29226W        W 1651  31.151  11.829  12.448
29227W        W 1652  25.692  21.030  11.995
29228W        W 1653  27.434  41.432  13.843
29229W        W 1654  16.060  23.975  10.685
29230W        W 1655   6.394  15.820  11.613
29231W        W 1656  10.690  25.076   0.970
29232W        W 1657  38.938  27.947  12.492
29233W        W 1658   5.479   6.791   2.437
29234W        W 1659  18.745   1.992   3.604
29235W        W 1660  20.998  33.316   5.006
29236W        W 1661  18.679  39.616  14.341
29237W        W 1662  24.183  31.829  13.344
29238W        W 1663  18.616  31.375   4.592
29239W        W 1664   8.106  11.663   1.764
29240W        W 1665   7.127   0.872   2.645
29241W        W 1666  19.976  16.340  14.921
29242W        W 1667  44.938  43.028   2.865
29243W        W 1668   8.948  11.802  12.120
29244W        W 1669   1.969  14.585  10.561
29245W        W 1670   8.267   6.870  13.378
29246W        W 1671   3.744  40.455   0.510
29247W        W 1672   1.878   4.469  14.902
29248W        W 1673  43.963   0.652  13.816
29249W        W 1674  42.194  25.484  14.461
29250W        W 1675  43.213  41.883   4.601
29251W        W 1676  30.386   4.485   2.167
29252W        W 1677  37.881  38.343   4.904
29253W        W 1678  26.145  39.287   3.574
29254W        W 1679  34.014  16.662  13.758
29255W        W 1680  42.982  31.824  11.244
29256W        W 1681  10.528   6.615  14.361
29257W        W 1682  18.977  25.746  11.143
29258W        W 1683  27.195  14.506   1.735
29259W        W 1684   0.312  23.455  11.549
29260W        W 1685  15.396  17.100  14.992
29261W        W 1686  39.805  10.120   1.039
29262W        W 1687  12.949   8.584   9.918
29263W        W 1688   1.703  35.847  13.438
29264W        W 1689  15.431  40.089   2.891
29265W        W 1690  14.878  23.192  11.883
29266W        W 1691  18.022  18.729  13.401
29267W        W 1692  20.258  43.912   4.553
29268W        W 1693  12.112  33.064   4.849
29269W        W 1694  39.980  36.602   0.658
29270W        W 1695  38.017  42.312  13.370
29271W        W 1696  16.507  29.883   3.212
29272W        W 1697   4.549  10.943   2.786
29273W        W 1698  13.033   9.231  12.283
29274W        W 1699  12.808   9.826   0.289
29275W        W 1700  12.842  41.440  11.634
29276W        W 1701  18.077  33.175   4.156
29277W        W 1702  14.873  25.569  10.695
29278W        W 1703  24.418  19.520  11.313
29279W        W 1704  17.313  27.051  13.888
29280W        W 1705   2.814  25.741   4.096
29281W        W 1706  26.546  29.029   4.567
29282W        W 1707   3.252   4.887  12.491
29283W        W 1708  31.839  31.134  11.327
29284W        W 1709   3.980   7.680   0.024
29285W        W 1710  35.150  23.063  11.501
29286W        W 1711  35.746  36.035   1.883
29287W        W 1712   1.863  34.881   3.236
29288W        W 1713  42.256  26.578  13.395
29289W        W 1714   8.764   8.138  11.658
29290W        W 1715  32.749  21.140   2.259
29291W        W 1716  33.030  44.785   0.832
29292W        W 1717  19.238   6.908   0.308
29293W        W 1718   9.720   4.649   4.554
29294W        W 1719  44.003  37.269   0.758
29295W        W 1720  40.044  23.504   0.284
29296W        W 1721   3.840  26.028  12.918
29297W        W 1722   9.783  35.873   5.022
29298W        W 1723  43.601  20.451  13.914
29299W        W 1724  22.846   7.247   4.185
29300W        W 1725  15.561  39.405  12.633
29301W        W 1726  12.455  25.532  14.712
29302W        W 1727  23.762  36.550  12.681
29303W        W 1728  16.043  16.049   2.134
29304W        W 1729  23.632   6.447  12.936
29305W        W 1730  13.534  26.611  14.373
29306W        W 1731   7.530  30.504   4.648
29307W        W 1732  42.914  19.570   1.736
29308W        W 1733   1.852  13.857  12.416
29309W        W 1734   0.273   3.835  10.572
29310W        W 1735   7.160  33.427   4.719
29311W        W 1736  10.676  11.912   3.459
29312W        W 1737  25.761   3.460  10.042
29313W        W 1738   3.689   4.308  11.064
29314W        W 1739   1.952  36.935   4.170
29315W        W 1740  24.665  30.439  13.706
29316W        W 1741  32.881  27.218   1.234
29317W        W 1742  18.677   1.768   4.542
29318W        W 1743  23.995  27.169   4.065
29319W        W 1744   1.776  41.382   0.393
29320W        W 1745  16.537   8.701  10.638
29321W        W 1746  14.142  10.673   2.394
29322W        W 1747   6.677  22.104  14.430
29323W        W 1748   8.178  29.660   2.825
29324W        W 1749  42.493   1.933  10.500
29325W        W 1750  30.087  33.883  13.414
29326W        W 1751  18.192  35.051  10.757
29327W        W 1752   7.888  32.602   4.324
29328W        W 1753  29.948  36.980  10.584
29329W        W 1754  16.008  13.173   0.958
29330W        W 1755  29.778  14.546  11.089
29331W        W 1756   6.650   5.654   3.086
29332W        W 1757  21.058  11.629   4.602
29333W        W 1758  29.565  37.237   2.145
29334W        W 1759   2.689  10.592   3.594
29335W        W 1760  29.510  26.667  13.814
29336W        W 1761  43.029  30.198   1.391
29337W        W 1762  19.118   1.001   1.817
29338W        W 1763   1.278  39.610   3.007
29339W        W 1764  36.871  29.894   1.176
29340W        W 1765  35.776  42.908  11.606
29341W        W 1766  23.038  14.277   4.611
29342W        W 1767  29.723  21.821   2.314
29343W        W 1768  21.166  15.586  14.356
29344W        W 1769  30.661   1.111  13.847
29345W        W 1770  12.812  31.131  13.258
29346W        W 1771   2.332  16.248  14.400
29347W        W 1772  28.151  24.201   1.770
29348W        W 1773  15.850  43.984   1.821
29349W        W 1774  33.992  16.589  10.730
29350W        W 1775  30.115  23.046  14.412
29351W        W 1776  19.579  21.245  12.805
29352W        W 1777  24.020  39.808   2.108
29353W        W 1778   0.263  31.490   0.405
29354W        W 1779  42.958  28.698   3.652
29355W        W 1780  33.348  36.193   2.780
29356W        W 1781  42.013   7.715  11.418
29357W        W 1782  30.184  43.890  10.763
29358W        W 1783  33.030  32.650   1.418
29359W        W 1784  15.517  39.087   4.777
29360W        W 1785  37.984  32.408   4.134
29361W        W 1786  28.022  32.176  14.741
29362W        W 1787  12.325   0.645  12.756
29363W        W 1788  21.838  22.394   2.800
29364W        W 1789  18.470  28.477  12.371
29365W        W 1790  41.417  31.957   3.813
29366W        W 1791  17.808   3.398   2.895
29367W        W 1792  39.984  30.074   2.733
29368W        W 1793   7.919  22.556  11.535
29369W        W 1794   5.900  36.842  14.421
29370W        W 1795   8.815  30.102  14.056
29371W        W 1796  30.976  31.094   4.063
29372W        W 1797  24.229  34.515  10.619
29373W        W 1798  18.915  10.666   5.087
29374W        W 1799  27.987  39.954  10.085
29375W        W 1800   9.824  38.252  10.441
29376W        W 1801  40.643  38.982  14.010
29377W        W 1802  25.489  23.170   0.936
29378W        W 1803  22.539  39.790   3.787
29379W        W 1804  22.712   8.757   0.391
29380W        W 1805  39.778  43.500  12.156
29381W        W 1806   1.828   4.844   4.082
29382W        W 1807   5.734  30.336  14.443
29383W        W 1808   7.667  31.605  11.453
29384W        W 1809   5.937  22.808  13.319
29385W        W 1810  37.033  17.711   3.095
29386W        W 1811   4.154  37.539   2.451
29387W        W 1812   3.878   9.752  13.100
29388W        W 1813  33.313   2.898  14.362
29389W        W 1814  41.873  29.147   4.243
29390W        W 1815  40.839  43.195   2.320
29391W        W 1816  44.800  32.091   1.775
29392W        W 1817  13.572  28.570  13.434
29393W        W 1818  40.852  23.948  10.715
29394W        W 1819  43.184  17.683  12.672
29395W        W 1820  13.156  34.610   0.726
29396W        W 1821  43.494  15.655   4.063
29397W        W 1822  23.203   4.738   2.373
29398W        W 1823  15.014  42.982   2.233
29399W        W 1824  32.432  19.568   4.358
29400W        W 1825   5.505  21.603   4.330
29401W        W 1826   5.363  36.077   3.373
29402W        W 1827  36.285  28.356   3.393
29403W        W 1828  40.013  21.056   3.639
29404W        W 1829  13.148  17.309   1.849
29405W        W 1830  40.207  30.093   3.219
29406W        W 1831  26.265  43.938  14.340
29407W        W 1832  33.332  22.567  10.513
29408W        W 1833  33.196  24.563  12.488
29409W        W 1834   9.848   0.865   0.021
29410W        W 1835  38.946  33.321   3.776
29411W        W 1836  36.933  10.771  14.896
29412W        W 1837  39.524   5.363   4.598
29413W        W 1838  42.433  41.781   3.061
29414W        W 1839  40.629  22.840   2.675
29415W        W 1840   3.444   5.705  13.021
29416W        W 1841  35.595  43.387  12.009
29417W        W 1842   2.837  26.658  13.836
29418W        W 1843  15.656  10.451   3.243
29419W        W 1844  16.906  16.261  12.309
29420W        W 1845  23.650  19.653  14.361
29421W        W 1846  31.955  26.304   2.626
29422W        W 1847  11.584  20.191   4.657
29423W        W 1848  21.357  39.002  10.732
29424W        W 1849  42.662  22.213  13.749
29425W        W 1850  17.404  14.666   1.690
29426W        W 1851  43.291   8.062  11.608
29427W        W 1852  29.374  25.703  10.705
29428W        W 1853  13.687  19.721  14.539
29429W        W 1854   4.842  38.533  12.838
29430W        W 1855  39.586  39.130  11.695
29431W        W 1856  33.482  38.915   3.977
29432W        W 1857  17.317   2.551   1.879
29433W        W 1858  32.849  22.045   2.841
29434W        W 1859  11.550   2.354  14.544
29435W        W 1860   3.648  22.233   0.861
29436W        W 1861  16.212  30.136  14.451
29437W        W 1862   1.883  16.166   2.074
29438W        W 1863  23.074  35.035  13.667
29439W        W 1864  30.623  20.047  13.110
29440W        W 1865  29.007  21.751  14.885
29441W        W 1866  38.098   5.562  11.042
29442W        W 1867  16.355   4.309   1.350
29443W        W 1868  39.647   4.299   3.374
29444W        W 1869   5.742  39.128  12.606
29445W        W 1870  37.752  25.195   2.767
29446W        W 1871  14.052  26.659  14.316
29447W        W 1872   8.193  34.898  12.069
29448W        W 1873   3.910   7.431   2.654
29449W        W 1874   2.422   9.811   0.314
29450W        W 1875  30.543  34.567  14.571
29451W        W 1876  32.387  11.450  10.936
29452W        W 1877  41.506  11.627   0.526
29453W        W 1878  11.639  26.193  12.891
29454W        W 1879  36.027  24.972   2.561
29455W        W 1880  21.181  18.580  13.799
29456W        W 1881   6.937  15.729   3.674
29457W        W 1882  12.157  10.241  10.652
29458W        W 1883  35.519  24.972   0.306
29459W        W 1884  22.272  41.249   1.265
29460W        W 1885   2.479  23.141   1.931
29461W        W 1886   0.153  21.724   0.377
29462W        W 1887   9.209  37.063   2.091
29463W        W 1888  44.419  15.224   2.235
29464W        W 1889  14.758  27.583   1.263
29465W        W 1890   5.336  17.267   2.091
29466W        W 1891   3.148   5.847  11.920
29467W        W 1892   7.816  41.955  12.200
29468W        W 1893   5.400  15.571  14.879
29469W        W 1894  10.663  38.047   4.962
29470W        W 1895   1.680  18.089   3.264
29471W        W 1896  24.079  29.397  14.401
29472W        W 1897  26.094  37.691   0.889
29473W        W 1898   1.392   7.198  10.694
29474W        W 1899  18.307   5.221   1.841
29475W        W 1900  39.755  15.566  12.913
29476W        W 1901  32.413   1.935  11.588
29477W        W 1902  41.569  42.382  11.513
29478W        W 1903  17.342  39.315  12.436
29479W        W 1904   8.369  42.291  12.883
29480W        W 1905   8.719  17.292   2.417
29481W        W 1906  35.026  39.181   5.347
29482W        W 1907   0.260   1.079  14.256
29483W        W 1908  29.266   3.721   4.798
29484W        W 1909  25.663  11.259   1.832
29485W        W 1910  11.730   9.295  13.798
29486W        W 1911  19.100  39.612   4.181
29487W        W 1912  13.402  14.692  13.295
29488W        W 1913  35.855  38.924   3.281
29489W        W 1914  17.890  19.229  11.408
29490W        W 1915   3.315  28.223   0.292
29491W        W 1916  40.464  18.297   4.497
29492W        W 1917  32.653   8.354  12.930
29493W        W 1918  13.970  31.571   0.491
29494W        W 1919  14.787  26.075   0.241
29495W        W 1920  11.916  33.734  12.481
29496W        W 1921  31.376   0.496   0.313
29497W        W 1922  25.646  22.491   0.285
29498W        W 1923  10.408  26.846   0.026
29499W        W 1924   8.059   7.608   1.860
29500W        W 1925  12.795   3.440   2.203
29501W        W 1926  31.584  26.439   1.140
29502W        W 1927   3.967   7.735  13.673
29503W        W 1928  10.834  41.092  14.356
29504W        W 1929   1.481   9.331  14.513
29505W        W 1930  27.573  20.297   2.718
29506W        W 1931  41.810  11.608   1.836
29507W        W 1932  13.872  32.458   0.935
29508W        W 1933  13.236  26.715   0.471
29509W        W 1934  27.958   5.265  12.061
29510W        W 1935  19.783  31.468   1.342
29511W        W 1936  20.566  37.446   2.289
29512W        W 1937  28.066   9.833   1.863
29513W        W 1938  31.594   0.740   3.267
29514W        W 1939  12.720  43.298   1.738
29515W        W 1940  31.491   6.892   4.139
29516W        W 1941  30.768   2.257   3.738
29517W        W 1942  41.445  12.141   0.453
29518W        W 1943  26.853  44.566   0.083
29519W        W 1944   7.578  19.423   1.406
29520W        W 1945   6.361  25.781  12.891
29521W        W 1946  28.746   5.318   4.123
29522W        W 1947  10.661   7.404  13.929
29523W        W 1948  21.134   8.869  10.532
29524W        W 1949  31.654  22.204  10.965
29525W        W 1950  27.254  33.563   1.600
29526W        W 1951  12.391  28.435  14.024
29527W        W 1952   8.253  39.730   5.012
29528W        W 1953   7.442  34.827   0.381
29529W        W 1954  37.379  13.592  13.065
29530W        W 1955  12.601  18.668  10.737
29531W        W 1956  25.743  27.229  12.050
29532W        W 1957  44.494  29.897   2.878
29533W        W 1958  14.687   3.647   1.003
29534W        W 1959   6.294  14.051   0.673
29535W        W 1960  38.053  39.521  11.085
29536W        W 1961  34.846   6.387  14.810
29537W        W 1962  12.286   8.142   2.398
29538W        W 1963  18.582  18.545   4.494
29539W        W 1964   0.372  36.007   3.426
29540W        W 1965  33.761  28.163   2.155
29541W        W 1966   7.806   5.625   1.032
29542W        W 1967  15.082   4.317   3.587
29543W        W 1968   6.844  19.040   0.357
29544W        W 1969  14.595  38.332   4.477
29545W        W 1970  11.744  23.693  13.325
29546W        W 1971  43.553  32.320  13.353
29547W        W 1972  33.786  25.668  12.914
29548W        W 1973  34.380  20.706   0.480
29549W        W 1974   0.471  35.844  14.544
29550W        W 1975  42.322  25.283  13.049
29551W        W 1976  30.574  29.544   4.865
29552W        W 1977  19.751  37.870   1.418
29553W        W 1978  17.108  30.446  12.151
29554W        W 1979  37.646  34.987  13.429
29555W        W 1980  39.100  16.157   1.994
29556W        W 1981  34.619   2.848   1.744
29557W        W 1982   6.833   3.210   0.220
29558W        W 1983  16.768  35.617  14.918
29559W        W 1984  35.945  41.464   2.704
29560W        W 1985  14.808  36.341   3.083
29561W        W 1986  20.264   6.303   3.224
29562W        W 1987  18.044  13.636  10.596
29563W        W 1988  32.643  10.641  12.677
29564W        W 1989   7.638   3.437  14.785
29565W        W 1990  39.350  42.375   1.037
29566W        W 1991   5.858  41.446  14.714
29567W        W 1992  14.299   9.126   0.808
29568W        W 1993  24.310  36.999  11.149
29569W        W 1994  11.228  18.705   3.920
29570W        W 1995  34.972  36.367   0.311
29571W        W 1996  36.400  10.266   0.324
29572W        W 1997  35.040  16.046  14.032
29573W        W 1998  31.446  25.239  11.068
29574W        W 1999   3.372  22.422   2.865
29575W        W 2000  37.541  10.393  12.827
29576W        W 2001  42.067  16.183  13.316
29577W        W 2002   8.709  10.157  10.590
29578W        W 2003  27.900  15.577   2.277
29579W        W 2004  23.724  12.126   1.443
29580W        W 2005  27.603   1.931  12.877
29581W        W 2006  26.267  16.082   0.756
29582W        W 2007  24.134  12.086  11.551
29583W        W 2008  25.637  25.438  12.012
29584W        W 2009  44.250  16.767   3.441
29585W        W 2010  15.005  41.765   2.392
29586W        W 2011  30.712  40.533   0.808
29587W        W 2012  39.831   5.387  10.705
29588W        W 2013   7.214  38.800  13.803
29589W        W 2014  40.468   2.271   0.572
29590W        W 2015  41.090  21.138   5.066
29591W        W 2016  19.654  17.377  11.999
29592W        W 2017  44.276   6.763   2.859
29593W        W 2018  22.140  10.310   3.682
29594W        W 2019  12.090   0.568   3.353
29595W        W 2020  27.479  41.924   2.844
29596W        W 2021  30.021   0.931  10.642
29597W        W 2022  36.991   7.704  13.492
29598W        W 2023  14.720  27.753  14.541
29599W        W 2024  23.969  30.374  11.573
29600W        W 2025  11.198  39.374   4.289
29601W        W 2026  20.854  35.179  11.077
29602W        W 2027  11.844  44.978   0.017
29603W        W 2028  10.175  20.264  14.316
29604W        W 2029  14.103   7.919   3.789
29605W        W 2030  14.685  20.173   4.151
29606W        W 2031  25.287  41.033   0.606
29607W        W 2032  38.609   0.828   0.860
29608W        W 2033  24.651  36.996   1.441
29609W        W 2034  35.329  18.704  10.765
29610W        W 2035  16.087  41.207   4.574
29611W        W 2036  44.598   8.925  12.159
29612W        W 2037  15.697  44.334  13.923
29613W        W 2038  29.502   5.672  12.585
29614W        W 2039  12.276  17.316   1.807
29615W        W 2040  30.562   4.178  10.811
29616W        W 2041  23.286  11.449  10.824
29617W        W 2042  26.768  30.407  14.496
29618W        W 2043  32.912  41.616  11.848
29619W        W 2044  32.536   3.520   2.252
29620W        W 2045  10.586   1.512   2.143
29621W        W 2046   0.825  36.890  12.876
29622W        W 2047  34.985   5.226   0.160
29623W        W 2048  23.034  25.115  11.363
29624W        W 2049  22.070   2.799   2.312
29625W        W 2050  30.751   4.760  13.364
29626W        W 2051  33.830  31.425   4.309
29627W        W 2052  29.310  12.779  12.234
29628W        W 2053   9.858  13.308   1.885
29629W        W 2054   4.993  37.164  12.466
29630W        W 2055  27.174  21.230   1.836
29631W        W 2056  32.272  26.149  10.628
29632W        W 2057   6.369   7.604   0.274
29633W        W 2058  29.941  12.626  13.928
29634W        W 2059  43.833   1.958   3.717
29635W        W 2060   6.180  28.130  13.928
29636W        W 2061   3.312   6.750   3.633
29637W        W 2062  39.116   3.975   4.610
29638W        W 2063  36.635  34.911  10.663
29639W        W 2064  28.823   4.917   1.271
29640W        W 2065  32.941   7.793  13.070
29641W        W 2066  41.281  35.889  13.427
29642W        W 2067   0.211  32.019  14.842
29643W        W 2068  18.134  41.795  10.651
29644W        W 2069  35.593   2.769  12.459
29645W        W 2070  32.857   7.440  10.606
29646W        W 2071  20.804  28.905   0.295
29647W        W 2072  27.434  32.532   9.554
29648W        W 2073  15.021  26.547   0.753
29649W        W 2074  25.308  36.758   2.300
29650W        W 2075   5.267  40.107  11.640
29651W        W 2076  29.289  16.751  12.931
29652W        W 2077  15.799   6.717  12.097
29653W        W 2078  33.303  19.983  13.210
29654W        W 2079   6.715  37.303   4.749
29655W        W 2080   5.976   9.988   4.084
29656W        W 2081  30.056  27.136   1.015
29657W        W 2082  18.225  15.417   3.555
29658W        W 2083  20.210  32.201  10.593
29659W        W 2084   3.201  15.697  12.465
29660W        W 2085  43.982   2.688   2.961
29661W        W 2086  36.134  22.523  14.991
29662W        W 2087  12.884  40.618   0.455
29663W        W 2088  24.422  34.520   2.904
29664W        W 2089  10.827  36.663   0.084
29665W        W 2090  19.300  39.473  12.924
29666W        W 2091  39.303   7.484  11.072
29667W        W 2092   4.936  42.062   0.184
29668W        W 2093  44.911  16.682   2.292
29669W        W 2094   3.195  42.551  12.044
29670W        W 2095  28.074  24.293  14.006
29671W        W 2096   6.118  24.258  11.558
29672W        W 2097   0.066   0.497  14.897
29673W        W 2098  12.598  10.198   3.666
29674W        W 2099  10.125  21.499   4.138
29675W        W 2100  42.347  37.730  11.270
29676W        W 2101  14.398  24.270  10.173
29677W        W 2102  18.818  14.038  10.070
29678W        W 2103   5.245  21.273   1.993
29679W        W 2104  32.666  20.017  14.755
29680W        W 2105  25.475  42.739   2.251
29681W        W 2106  15.668  14.266   0.744
29682W        W 2107  38.873  35.694  11.198
29683W        W 2108  23.017  11.826   2.209
29684W        W 2109  43.280  29.495   1.640
29685W        W 2110   0.432  22.631   4.481
29686W        W 2111  12.920  24.671  11.033
29687W        W 2112  13.426  16.266   4.203
29688W        W 2113   1.384  31.657   2.684
29689W        W 2114  37.468  19.799   3.310
29690W        W 2115   4.863  31.727  10.245
29691W        W 2116  24.568  11.027  13.355
29692W        W 2117  21.904  12.786  12.539
29693W        W 2118  33.721  26.362  10.423
29694W        W 2119   0.296  38.309   3.688
29695W        W 2120  14.682  39.471   3.924
29696W        W 2121  35.464   7.583  13.123
29697W        W 2122  17.009  19.614  11.576
29698W        W 2123  33.474  37.608   1.709
29699W        W 2124  41.935  25.471   2.325
29700W        W 2125   3.454  10.850   4.031
29701W        W 2126  29.590  31.749  14.838
29702W        W 2127  44.518  16.177  14.290
29703W        W 2128  33.635  43.705  10.126
29704W        W 2129  30.018   0.695  12.361
29705W        W 2130   9.081   9.053   0.801
29706W        W 2131  43.193  42.110   3.709
29707W        W 2132  29.085  31.864   3.885
29708W        W 2133  42.329  14.610   4.115
29709W        W 2134  33.362  18.008   4.613
29710W        W 2135  19.661   2.682   4.134
29711W        W 2136  25.419   3.170   2.643
29712W        W 2137  23.772  22.255  10.471
29713W        W 2138   2.174  31.916   3.614
29714W        W 2139   3.207  16.573   1.463
29715W        W 2140  16.640   6.777   1.801
29716W        W 2141  11.790  17.128  11.519
29717W        W 2142  40.423  10.745  13.346
29718W        W 2143  13.589  22.912  12.678
29719W        W 2144  11.052  29.390  10.697
29720W        W 2145   3.381   7.090   2.308
29721W        W 2146   5.362  35.466  13.830
29722W        W 2147  35.103   0.809  14.816
29723W        W 2148  22.550  40.967   3.770
29724W        W 2149   5.618  16.777  12.494
29725W        W 2150  18.784   8.889  11.994
29726W        W 2151  15.639  33.873  14.023
29727W        W 2152  35.975  23.035  10.276
29728W        W 2153  37.784  39.176   0.476
29729W        W 2154  23.687  42.190   3.589
29730W        W 2155  15.828   3.266   4.050
29731W        W 2156  19.293  41.045  10.756
29732W        W 2157  42.137  44.440  10.354
29733W        W 2158  23.523  14.101  14.760
29734W        W 2159   3.463   5.167  12.976
29735W        W 2160   8.577  38.581  11.101
29736W        W 2161  15.664  32.905   4.058
29737W        W 2162  42.281  15.205   1.004
29738W        W 2163  30.234  26.211  10.808
29739W        W 2164  23.750  24.554  13.976
29740W        W 2165   6.505  20.803   1.734
29741W        W 2166  15.094  20.600  11.855
29742W        W 2167  30.664  32.183  14.354
29743W        W 2168   9.726  44.443  12.223
29744W        W 2169  39.387  30.295  12.436
29745W        W 2170   9.913  22.727  11.041
29746W        W 2171  11.697  37.951   1.178
29747W        W 2172  27.269   3.532  11.098
29748W        W 2173  30.457  11.372  12.563
29749W        W 2174  28.915   5.289  13.311
29750W        W 2175  16.086  40.498  13.157
29751W        W 2176  38.964   5.349   0.851
29752W        W 2177  18.003  23.044  14.976
29753W        W 2178  43.882  35.006   1.400
29754W        W 2179  41.762   6.395   2.384
29755W        W 2180  13.832  42.861  14.811
29756W        W 2181  14.715   8.126  13.913
29757W        W 2182  27.458  26.478   3.186
29758W        W 2183  10.978  38.914  14.795
29759W        W 2184  38.002  27.984  14.583
29760W        W 2185   8.471  25.347   0.704
29761W        W 2186  14.052  13.676   2.360
29762W        W 2187  18.973   3.284   3.780
29763W        W 2188  10.684  21.989   0.479
29764W        W 2189  40.544  36.027  13.855
29765W        W 2190  19.538  43.511  10.761
29766W        W 2191  23.286   5.278  11.471
29767W        W 2192  43.508   8.652   0.873
29768W        W 2193  29.111  29.129   2.425
29769W        W 2194   5.685  28.599   0.219
29770W        W 2195  35.562  26.543  13.967
29771W        W 2196  25.554  35.821  11.568
29772W        W 2197  21.562   8.771  14.323
29773W        W 2198  35.073  39.335  13.401
29774W        W 2199   6.766  44.319   0.505
29775W        W 2200  13.581  43.381   2.700
29776W        W 2201   7.204   7.073  11.538
29777W        W 2202   7.729  37.855   3.726
29778W        W 2203  41.326  18.941  11.155
29779W        W 2204   3.874   2.822   3.840
29780W        W 2205  11.053  24.217  11.294
29781W        W 2206  27.223  26.032  13.123
29782W        W 2207  30.460   5.898  13.159
29783W        W 2208  40.148  38.282  13.676
29784W        W 2209  26.000  13.430  11.568
29785W        W 2210  38.497  33.080   1.373
29786W        W 2211  32.228  26.861  14.045
29787W        W 2212  23.025  14.076   3.108
29788W        W 2213  35.654  13.070  14.335
29789W        W 2214  17.795  26.804   2.363
29790W        W 2215  38.163  35.783   2.236
29791W        W 2216  17.375  14.494   4.477
29792W        W 2217   1.898   0.937   4.446
29793W        W 2218  43.085  13.638   2.115
29794W        W 2219   8.694  15.268  10.495
29795W        W 2220   1.516  44.001   4.131
29796W        W 2221  34.049  25.185  12.779
29797W        W 2222  33.095  39.800   4.256
29798W        W 2223   9.060   8.363   3.714
29799W        W 2224  41.290   0.429  14.294
29800W        W 2225  14.721  27.806  12.134
29801W        W 2226   7.711  21.756   4.206
29802W        W 2227   8.842  43.468   1.790
29803W        W 2228  15.206  24.164   1.180
29804W        W 2229  32.576  13.919  13.778
29805W        W 2230  11.895   4.124  12.960
29806W        W 2231  25.062  31.151   4.960
29807W        W 2232  39.956  27.956  12.466
29808W        W 2233   5.817  19.922   2.306
29809W        W 2234  19.428   5.888   0.716
29810W        W 2235  38.738   5.985  14.860
29811W        W 2236  12.812  25.415   0.525
29812W        W 2237  11.162  33.798  10.778
29813W        W 2238  10.352  13.371   1.019
29814W        W 2239  16.699  39.059  12.091
29815W        W 2240  28.912  32.714   5.485
29816W        W 2241  18.269  41.595   4.362
29817W        W 2242  25.664  17.991   1.197
29818W        W 2243  29.064   0.374  11.950
29819W        W 2244  29.396  35.581   5.020
29820W        W 2245  13.601  30.109   0.454
29821W        W 2246   7.597  13.097   3.606
29822W        W 2247  32.673  10.049   0.388
29823W        W 2248   6.856  21.548   3.648
29824W        W 2249  15.239  35.929  10.894
29825W        W 2250  28.711  14.601  11.142
29826W        W 2251  18.275  43.843  13.578
29827W        W 2252  40.136  26.128   1.315
29828W        W 2253  26.800  11.884  11.862
29829W        W 2254   0.493  40.893   4.257
29830W        W 2255  18.376  14.130   2.634
29831W        W 2256  13.657  25.656  12.066
29832W        W 2257  10.079  42.314   2.302
29833W        W 2258  36.081   4.003  12.364
29834W        W 2259  38.469  29.335   0.082
29835W        W 2260  42.576  42.008   0.556
29836W        W 2261  14.275  28.601   3.704
29837W        W 2262  14.685  25.550  11.177
29838W        W 2263  19.783  13.643   1.862
29839W        W 2264  17.519  39.574  12.018
29840W        W 2265  14.835  13.209   2.332
29841W        W 2266  28.270   5.310   0.669
29842W        W 2267  44.811  18.591   0.208
29843W        W 2268  26.428  34.162   4.094
29844W        W 2269  38.467  41.234   4.609
29845W        W 2270  10.453  40.341  12.811
29846W        W 2271   8.986  38.894   0.083
29847W        W 2272  31.197  29.938   2.218
29848W        W 2273  27.618  42.947  12.878
29849W        W 2274  35.992   3.629  13.771
29850W        W 2275  38.400  29.718   2.185
29851W        W 2276  15.062  12.831  13.424
29852W        W 2277   0.239   8.133   3.323
29853W        W 2278  39.284  13.749   2.818
29854W        W 2279  24.230  13.652   4.584
29855W        W 2280  21.031  12.305   2.709
29856W        W 2281  26.562  41.305   2.375
29857W        W 2282   4.401  19.718   0.551
29858W        W 2283  28.110   6.147  10.268
29859W        W 2284  21.289  30.230   4.436
29860W        W 2285  10.092  11.644   1.229
29861W        W 2286  26.433   0.239  13.996
29862W        W 2287  36.972  38.621  13.259
29863W        W 2288  16.776  11.622  13.985
29864W        W 2289  39.420  22.495  11.435
29865W        W 2290  20.522  35.496   1.875
29866W        W 2291   6.622   5.928   3.522
29867W        W 2292  13.720  22.748   1.925
29868W        W 2293   7.469   8.799   1.979
29869W        W 2294  30.160  26.525   3.717
29870W        W 2295  11.266   6.615   1.821
29871W        W 2296  40.244   5.472  12.048
29872W        W 2297  20.567  17.829   0.299
29873W        W 2298  40.355  41.382  13.538
29874W        W 2299  12.808  39.367  12.810
29875W        W 2300  23.520   2.994   2.199
29876W        W 2301  37.838  19.697   1.248
29877W        W 2302  13.588  34.526  14.353
29878W        W 2303  13.520  36.558   2.741
29879W        W 2304  22.650   5.022   3.546
29880W        W 2305   6.484  15.516   4.057
29881W        W 2306  34.939   7.445   4.054
29882W        W 2307  27.756   2.320  11.144
29883W        W 2308  21.650   7.302  10.357
29884W        W 2309  28.190   1.360  10.714
29885W        W 2310  13.791  20.594  10.710
29886W        W 2311  14.679  42.061  14.840
29887W        W 2312  27.019  32.491  10.256
29888W        W 2313  35.089  25.725   3.735
29889W        W 2314  25.062  36.027   0.705
29890W        W 2315  16.809  12.130  10.869
29891W        W 2316  37.336   7.144  12.978
29892W        W 2317  41.927  23.129  11.139
29893W        W 2318  22.554  16.791  10.358
29894W        W 2319  43.495  35.514  12.893
29895W        W 2320   9.027   2.491   4.871
29896W        W 2321  31.827  30.463  14.324
29897W        W 2322  35.552  44.231   3.740
29898W        W 2323  38.926  18.297  11.440
29899W        W 2324  25.631  14.587   0.791
29900W        W 2325  16.773   8.836   4.501
29901W        W 2326   4.862   7.815   0.303
29902W        W 2327  44.781  28.650   2.716
29903W        W 2328  25.747   6.229   0.902
29904W        W 2329  41.578  10.339  11.935
29905W        W 2330  38.572  18.826   2.888
29906W        W 2331  31.140  38.128  11.375
29907W        W 2332  15.666   3.808   1.449
29908W        W 2333   6.397  12.343  14.389
29909W        W 2334  44.786   0.288   1.237
29910W        W 2335  27.038  10.111   0.943
29911W        W 2336  34.596  28.542  11.581
29912W        W 2337  34.085  41.274   0.940
29913W        W 2338  33.104  13.730   2.687
29914W        W 2339  16.736   6.404  10.950
29915W        W 2340  25.054  44.794  11.876
29916W        W 2341  26.481  30.492  12.977
29917W        W 2342  39.849  16.708  13.538
29918W        W 2343   3.779  37.988   0.999
29919W        W 2344  37.537  25.500  10.199
29920W        W 2345  40.889  34.702  11.470
29921W        W 2346  13.736  29.692   1.247
29922W        W 2347  33.232  29.143   4.759
29923W        W 2348   0.281   4.367   2.922
29924W        W 2349   4.658  10.600   1.418
29925W        W 2350   7.261  36.039  12.128
29926W        W 2351   3.672   7.925   4.125
29927W        W 2352   8.514  11.820   0.335
29928W        W 2353  21.113  17.673  13.264
29929W        W 2354  17.275   7.309   4.623
29930W        W 2355   2.218  13.866   1.853
29931W        W 2356  18.405  31.222   4.163
29932W        W 2357   1.890  24.535  14.759
29933W        W 2358   9.881   7.426  13.174
29934W        W 2359  35.858   9.323   3.159
29935W        W 2360  39.689  40.198  13.472
29936W        W 2361  13.564  20.030  14.085
29937W        W 2362  14.867  39.463  10.531
29938W        W 2363   6.687  36.275  10.711
29939W        W 2364  37.368  44.621  12.247
29940W        W 2365  10.965   7.687  10.648
29941W        W 2366  44.416  33.883   3.655
29942W        W 2367   8.422   9.666  11.966
29943W        W 2368  18.355  32.058   5.002
29944W        W 2369  21.205  28.480  11.133
29945W        W 2370  19.655   2.004  11.139
29946W        W 2371  14.717  26.008  10.940
29947W        W 2372  21.852   5.659  12.035
29948W        W 2373   4.182  43.366  14.258
29949W        W 2374  10.197  40.583   1.345
29950W        W 2375  20.084  10.059   0.833
29951W        W 2376  21.289  17.255   1.914
29952W        W 2377  34.468  24.652   1.161
29953W        W 2378   2.979  12.314  13.494
29954W        W 2379  16.790   3.949   4.143
29955W        W 2380  43.465  34.106   0.142
29956W        W 2381  14.338  42.746   3.089
29957W        W 2382  29.537   8.317   4.208
29958W        W 2383  22.905  30.181  11.419
29959W        W 2384  13.121  24.540   4.764
29960W        W 2385  34.474  40.530   3.447
29961W        W 2386   0.602  18.563   0.920
29962W        W 2387  31.100  34.586  13.220
29963W        W 2388  16.132  28.894   0.330
29964W        W 2389  32.805  17.424  14.071
29965W        W 2390  11.117  13.893  14.062
29966W        W 2391  14.231  35.917  13.102
29967W        W 2392  42.001  36.166  11.159
29968W        W 2393  18.067  37.431   3.603
29969W        W 2394  36.472  26.385  10.707
29970W        W 2395   9.023  14.847  10.506
29971W        W 2396  10.521   3.795  14.308
29972W        W 2397  38.323  37.717   3.196
29973W        W 2398  28.651   2.849  10.606
29974W        W 2399  35.524   7.178   3.276
29975W        W 2400   2.975   8.678   4.085
29976W        W 2401  42.414  38.901   3.286
29977W        W 2402  29.103  20.791   0.091
29978W        W 2403  13.701  37.527   0.406
29979W        W 2404  26.498  43.712  12.545
29980W        W 2405  11.816   0.444  14.763
29981W        W 2406  32.415  33.577   0.242
29982W        W 2407  27.997  27.806   3.914
29983W        W 2408  41.909  38.823   1.188
29984W        W 2409  19.025   6.619   0.963
29985W        W 2410  40.054  16.609   1.199
29986W        W 2411  27.954  19.796   1.820
29987W        W 2412  28.415   1.421  13.916
29988W        W 2413  24.793  25.379   3.633
29989W        W 2414  43.941   6.012   0.428
29990W        W 2415  29.861  25.597   2.196
29991W        W 2416  13.984  13.635  10.458
29992W        W 2417  10.708  12.314   0.792
29993W        W 2418  35.429  39.818   3.141
29994W        W 2419   7.779  24.146  13.411
29995W        W 2420  40.960  18.068   0.822
29996W        W 2421  23.384  24.347   1.909
29997W        W 2422  24.570   9.792  10.147
29998W        W 2423  14.813  20.021   3.065
29999W        W 2424  39.546  35.366   1.229
30000W        W 2425  15.266  32.584   1.830
30001W        W 2426  35.581   5.749   1.808
30002W        W 2427  35.567  19.193  11.539
30003W        W 2428  29.055  10.192   1.302
30004W        W 2429  30.372   4.197   1.726
30005W        W 2430  38.334  16.573   1.862
30006W        W 2431  36.404  23.021   5.181
30007W        W 2432  25.132  21.220   0.876
30008W        W 2433   0.008   3.398  12.527
30009W        W 2434   3.144   4.372   0.653
30010W        W 2435   5.819  14.878  13.247
30011W        W 2436  40.677  10.997  14.118
30012W        W 2437  21.033  12.505  12.394
30013W        W 2438   7.738  32.631  13.290
30014W        W 2439  28.796  24.470   3.024
30015W        W 2440  40.113   9.767   2.794
30016W        W 2441  31.298  25.022  10.598
30017W        W 2442  42.411   8.628  11.991
30018W        W 2443   5.894  24.698  14.309
30019W        W 2444  19.975   5.095   3.646
30020W        W 2445   1.311  20.129   3.185
30021W        W 2446  13.342  37.032   1.745
30022W        W 2447   9.543  16.640  10.757
30023W        W 2448  10.605  35.640   1.329
30024W        W 2449  16.973  34.931   1.766
30025W        W 2450   0.617  15.307  11.887
30026W        W 2451   7.978  37.872   4.177
30027W        W 2452  14.684   1.943   1.651
30028W        W 2453  43.977   5.128   0.813
30029W        W 2454  31.214  35.900  13.152
30030W        W 2455  35.369  13.746   4.340
30031W        W 2456  31.635   5.273   4.405
30032W        W 2457  15.612  37.504  13.080
30033W        W 2458  43.836  29.418  13.640
30034W        W 2459  39.973  38.120   2.178
30035W        W 2460  13.104  43.862  11.578
30036W        W 2461  40.430   2.039   3.261
30037W        W 2462   9.830   0.778   3.499
30038W        W 2463  44.476   3.259  13.910
30039W        W 2464  22.591  36.175  13.449
30040W        W 2465  39.615  29.526   1.454
30041W        W 2466  38.899  43.121  13.099
30042W        W 2467  36.621  43.304  12.817
30043W        W 2468  37.993  23.219  14.961
30044W        W 2469  13.113  18.248  14.005
30045W        W 2470   4.976   0.270  12.840
30046W        W 2471  38.948  25.185  10.288
30047W        W 2472  26.012  16.709   1.198
30048W        W 2473  10.073  31.543  14.484
30049W        W 2474  18.252  32.650  12.536
30050W        W 2475  23.810  37.884   0.668
30051W        W 2476  17.206  43.109   4.501
30052W        W 2477  42.260   5.842   3.712
30053W        W 2478  24.789  26.268   4.219
30054W        W 2479  43.841   9.492  12.425
30055W        W 2480  41.983  33.871   4.180
30056W        W 2481  24.518  33.153   1.135
30057W        W 2482  19.957  43.037  11.932
30058W        W 2483  33.326  31.191  13.775
30059W        W 2484  42.849  37.980   0.384
30060W        W 2485  14.106  24.542  14.386
30061W        W 2486  15.681   6.579  14.885
30062W        W 2487  16.731  15.080   0.652
30063W        W 2488  13.695  39.444  13.716
30064W        W 2489  22.563  26.566  12.479
30065W        W 2490   9.265  41.351  11.197
30066W        W 2491  27.300  38.259   2.630
30067W        W 2492  31.146  15.103  10.590
30068W        W 2493  15.852  13.170   2.351
30069W        W 2494  28.970  16.537   2.916
30070W        W 2495  28.467  24.945   3.782
30071W        W 2496  44.811   1.831  13.558
30072W        W 2497  26.935  25.707   1.415
30073W        W 2498  29.969  17.299   4.523
30074W        W 2499  14.086   8.732  11.222
30075W        W 2500  25.051  30.697  11.465
30076W        W 2501  40.554  43.743  12.346
30077W        W 2502  32.516   5.294  13.660
30078W        W 2503  19.838  19.130   4.049
30079W        W 2504  10.083  30.953  12.641
30080W        W 2505  43.473  37.492   3.230
30081W        W 2506  10.933  13.310  14.948
30082W        W 2507  35.805   2.177   4.162
30083W        W 2508   5.486  25.411  12.795
30084W        W 2509  15.266  17.590  10.637
30085W        W 2510  23.153  25.771  12.561
30086W        W 2511  22.749  18.693   1.648
30087W        W 2512  42.810   2.876   2.248
30088W        W 2513   9.365   3.768  11.975
30089W        W 2514   9.083   5.881   0.955
30090W        W 2515  39.773  40.451   2.347
30091W        W 2516   7.770  25.077  11.266
30092W        W 2517  21.699  34.302   0.038
30093W        W 2518  39.147   1.845   1.849
30094W        W 2519  39.402   3.972   1.295
30095W        W 2520  24.140  36.500  11.081
30096W        W 2521  22.647  39.453  10.730
30097W        W 2522  24.532   0.848   2.685
30098W        W 2523  18.697  39.041  14.422
30099W        W 2524  18.216   3.531   4.185
30100W        W 2525  24.683  17.772   2.899
30101W        W 2526   9.751  20.456  14.538
30102W        W 2527   0.237  11.530  12.058
30103W        W 2528   6.884  36.070   2.304
30104W        W 2529  30.443   7.877   1.442
30105W        W 2530   6.165  10.336  12.195
30106W        W 2531  20.096  21.748   1.899
30107W        W 2532  20.967  11.588   0.453
30108W        W 2533  32.592  30.809   2.392
30109W        W 2534  32.285  24.618   2.735
30110W        W 2535  35.605  40.834  12.841
30111W        W 2536  25.487  27.975  11.140
30112W        W 2537   9.671  35.142  11.076
30113W        W 2538  30.036  22.520   0.406
30114W        W 2539  20.548  30.935  14.437
30115W        W 2540  10.992  20.576  13.428
30116W        W 2541   7.357  15.754  12.916
30117W        W 2542  22.795  43.748   0.089
30118W        W 2543  28.399  30.644   1.877
30119W        W 2544   6.409  26.923  13.369
30120W        W 2545   5.654  44.023   2.862
30121W        W 2546  13.237   0.740   2.996
30122W        W 2547  36.092  13.646  10.291
30123W        W 2548  35.936  37.226   4.841
30124W        W 2549   1.430  15.621   4.100
30125W        W 2550  43.011   5.956   4.331
30126W        W 2551  37.737  16.000  11.586
30127W        W 2552  26.148  40.748   3.570
30128W        W 2553   0.756  39.816  12.490
30129W        W 2554   8.827   1.446   3.455
30130W        W 2555  22.967  33.259  12.465
30131W        W 2556   0.320  28.736  12.144
30132W        W 2557  41.700  44.896   3.744
30133W        W 2558  23.763  16.244   1.710
30134W        W 2559   2.477  34.864   2.769
30135W        W 2560  11.777   2.176   4.672
30136W        W 2561  40.025  35.636   0.437
30137W        W 2562  19.749  20.491   2.827
30138W        W 2563  20.584  33.909  12.381
30139W        W 2564  20.648  12.618   1.274
30140W        W 2565  27.246  37.595  13.831
30141W        W 2566  26.225  35.650  13.160
30142W        W 2567  20.807  14.691  13.240
30143W        W 2568  12.607  37.358   0.382
30144W        W 2569  26.374  31.437  14.834
30145W        W 2570  29.638  24.975   0.454
30146W        W 2571   0.803  31.631   1.738
30147W        W 2572  25.910  25.246  13.730
30148W        W 2573  25.633  20.502  11.030
30149W        W 2574   4.812   6.702  13.845
30150W        W 2575  27.625  42.290  14.351
30151W        W 2576  22.923  38.883  10.666
30152W        W 2577  19.143   6.165  10.641
30153W        W 2578   2.733  10.512  13.460
30154W        W 2579  44.876  11.194   3.638
30155W        W 2580   9.968   7.216   1.829
30156W        W 2581   6.738  42.877  10.696
30157W        W 2582  10.781   9.218  13.806
30158W        W 2583  30.537  37.379   0.419
30159W        W 2584  32.380  26.740   4.144
30160W        W 2585  44.750  11.393   2.699
30161W        W 2586  26.268  24.506   0.897
30162W        W 2587  18.141   3.471  12.426
30163W        W 2588  11.297  14.298   1.940
30164W        W 2589  28.511  36.175  14.896
30165W        W 2590  12.762  35.148  13.949
30166W        W 2591   1.306  26.899   3.039
30167W        W 2592  40.958  22.929  12.124
30168W        W 2593  36.538  31.202   0.815
30169W        W 2594  10.875  28.992  14.106
30170W        W 2595  36.645  32.978   4.151
30171W        W 2596  42.171  14.193   2.933
30172W        W 2597  33.637  44.542  10.131
30173W        W 2598  10.171  19.559   0.277
30174W        W 2599   0.595  26.491  14.090
30175W        W 2600  22.146  44.473   2.186
30176W        W 2601  10.347   2.248   0.946
30177W        W 2602  19.279  23.704  12.588
30178W        W 2603  10.300   6.143  10.602
30179W        W 2604  33.629  14.851   4.544
30180W        W 2605  32.951   0.681   2.321
30181W        W 2606   1.258  16.847  12.553
30182W        W 2607  38.794   5.452   4.010
30183W        W 2608   9.922  21.219   0.815
30184W        W 2609  30.557  38.552   5.183
30185W        W 2610  19.634  22.038   3.950
30186W        W 2611  23.100   4.709  12.829
30187W        W 2612  42.108   3.934   1.466
30188W        W 2613  14.060   3.233   1.924
30189W        W 2614  19.569  29.008   1.560
30190W        W 2615  42.277  12.266   1.165
30191W        W 2616  30.144  16.136  13.426
30192W        W 2617   4.442  11.276  14.879
30193W        W 2618   1.391   3.869   0.515
30194W        W 2619  40.350  10.880   4.279
30195W        W 2620  20.284  32.732  12.454
30196W        W 2621  42.881   0.057   4.708
30197W        W 2622  23.315  11.941   3.684
30198W        W 2623  35.584  37.877   3.825
30199W        W 2624   1.744   2.742   4.284
30200W        W 2625  34.528  27.975   1.174
30201W        W 2626  20.145   0.452   2.786
30202W        W 2627  31.986  40.255   4.130
30203W        W 2628  23.705  25.692  13.576
30204W        W 2629  35.043  13.625   2.782
30205W        W 2630   4.004   3.755  10.449
30206W        W 2631  16.223   8.770   2.443
30207W        W 2632  14.262   4.504  14.375
30208W        W 2633  25.385   0.713   0.235
30209W        W 2634  44.823  30.276  12.388
30210W        W 2635  40.034  44.271  13.419
30211W        W 2636   1.089  32.158  11.493
30212W        W 2637  13.169  11.219   2.859
30213W        W 2638  34.184  12.497   4.563
30214W        W 2639  39.415  43.489  12.540
30215W        W 2640   4.936  31.148   0.831
30216W        W 2641  39.319   8.400   0.862
30217W        W 2642  42.391   8.757   2.899
30218W        W 2643  13.548  36.516  12.162
30219W        W 2644  13.793  41.378  10.627
30220W        W 2645  21.160  39.805  13.972
30221W        W 2646  19.730  25.123  11.958
30222W        W 2647  25.126  33.118  11.537
30223W        W 2648  14.151  41.406   4.882
30224W        W 2649  18.344  27.925   4.564
30225W        W 2650  20.449  18.771   4.524
30226W        W 2651   7.702  12.102  14.729
30227W        W 2652  31.251  18.200   3.719
30228W        W 2653   2.685  22.246   2.389
30229W        W 2654   0.969  37.306   0.560
30230W        W 2655  31.555   5.902   1.893
30231W        W 2656  32.238  28.940   2.359
30232W        W 2657   0.950  10.562   3.234
30233W        W 2658  15.650  14.119  13.635
30234W        W 2659  12.133  39.430   3.922
30235W        W 2660   3.439  26.856  12.979
30236W        W 2661  41.919   1.224   1.977
30237W        W 2662  40.048  30.395  12.027
30238W        W 2663  43.825  22.172  14.771
30239W        W 2664  33.764  11.136   0.384
30240W        W 2665  40.994  34.664  13.701
30241W        W 2666  21.622  26.250   1.386
30242W        W 2667  11.194   7.437  13.834
30243W        W 2668  39.413  28.956   0.023
30244W        W 2669  39.439  26.959   3.426
30245W        W 2670   5.695  18.471   3.167
30246W        W 2671  20.429   3.582  10.699
30247W        W 2672  30.959  41.981   3.990
30248W        W 2673  12.341  43.901  11.131
30249W        W 2674   4.699   9.141  13.887
30250W        W 2675  17.776  24.347  12.445
30251W        W 2676  27.078  18.678   2.098
30252W        W 2677  16.774  25.299  13.830
30253W        W 2678  37.245  23.299  10.579
30254W        W 2679   8.900  40.440   1.222
30255W        W 2680   8.198   1.396   0.009
30256W        W 2681  11.048  22.054   1.362
30257W        W 2682   0.943  21.540   1.854
30258W        W 2683  30.135   0.275   0.907
30259W        W 2684  31.787  18.344  12.423
30260W        W 2685  26.637   3.448  14.157
30261W        W 2686  26.576  31.462   2.546
30262W        W 2687   0.843  10.033   3.267
30263W        W 2688  26.446  22.668   5.113
30264W        W 2689   2.507  43.252   3.484
30265W        W 2690  26.094  16.587  11.056
30266W        W 2691   9.789   3.996  12.204
30267W        W 2692  41.142  37.228  11.458
30268W        W 2693  16.185  25.717  12.493
30269W        W 2694   3.437  44.940   0.217
30270W        W 2695  26.509   9.852  12.615
30271W        W 2696  43.811   6.980  13.073
30272W        W 2697  12.714  10.766   1.890
30273W        W 2698  24.514   9.115  13.354
30274W        W 2699  29.443  42.453  14.222
30275W        W 2700  41.305  10.664  12.257
30276W        W 2701  15.835   7.815   1.301
30277W        W 2702  44.872  42.130  14.878
30278W        W 2703  12.691  27.952  10.764
30279W        W 2704  29.035  21.759   1.800
30280W        W 2705  24.003  43.977  12.378
30281W        W 2706  19.296  25.252  12.553
30282W        W 2707  30.413  19.485  12.483
30283W        W 2708   8.634   8.657   0.045
30284W        W 2709  44.854  32.684  13.822
30285W        W 2710  17.162   1.302  10.260
30286W        W 2711  42.832  13.721   0.928
30287W        W 2712  24.916   2.730   0.301
30288W        W 2713  10.737  36.946  13.729
30289W        W 2714  21.720   3.501   0.137
30290W        W 2715   2.439   6.376   0.686
30291W        W 2716   3.891  20.470  12.914
30292W        W 2717  37.084  29.437   1.340
30293W        W 2718  31.912  42.458  11.944
30294W        W 2719   4.316  12.843  13.529
30295W        W 2720   0.646  44.040   3.711
30296W        W 2721  22.107  22.520   3.269
30297W        W 2722  27.475  31.044  10.765
30298W        W 2723  37.091  23.983   2.735
30299W        W 2724   7.597   0.796  13.476
30300W        W 2725  44.927   4.317   2.550
30301W        W 2726  19.735  28.979   4.331
30302W        W 2727  37.721  25.508   1.648
30303W        W 2728   2.592  33.452   1.398
30304W        W 2729  22.508  33.496  12.374
30305W        W 2730   8.235  43.753   0.502
30306W        W 2731   7.541  23.230  14.488
30307W        W 2732  26.941  13.208   3.219
30308W        W 2733  30.011   0.471   3.370
30309W        W 2734  12.273  32.922  10.374
30310W        W 2735   5.654  34.246  12.130
30311W        W 2736  40.337  21.354  11.503
30312W        W 2737  41.405  32.989  12.993
30313W        W 2738   9.778  18.107  12.961
30314W        W 2739  44.462  14.533  14.558
30315W        W 2740  16.828  42.425   4.281
30316W        W 2741  30.761  23.699  13.520
30317W        W 2742  42.230  30.510  14.807
30318W        W 2743  19.616   2.762   3.291
30319W        W 2744  44.388  36.250   4.209
30320W        W 2745  21.492  14.187  12.332
30321W        W 2746   2.865  38.724  13.898
30322W        W 2747  27.427  12.974  10.572
30323W        W 2748  28.062  12.208  13.972
30324W        W 2749   8.432  29.967   1.292
30325W        W 2750  42.539   4.344  13.325
30326W        W 2751  19.166  25.095  12.048
30327W        W 2752  22.092  15.972  11.333
30328W        W 2753  30.377  20.056   0.380
30329W        W 2754  40.944  13.930  14.821
30330W        W 2755  42.517  26.098  13.336
30331W        W 2756  43.823  12.218   0.256
30332W        W 2757  30.366  10.854  12.939
30333W        W 2758  42.028  39.384   2.773
30334W        W 2759  36.531  27.621  11.632
30335W        W 2760   4.037  10.859  12.421
30336W        W 2761  39.515  32.103   2.199
30337W        W 2762  22.593  36.573   0.480
30338W        W 2763  29.058  25.036  14.385
30339W        W 2764  37.414  31.519  14.445
30340W        W 2765   8.394  32.831  11.504
30341W        W 2766  43.372   9.907  13.505
30342W        W 2767   0.534  39.689   0.287
30343W        W 2768   7.415  18.104  11.994
30344W        W 2769  32.915  15.542   3.334
30345W        W 2770   5.726  43.778  13.402
30346W        W 2771  13.386  10.746  13.350
30347W        W 2772  35.421  33.136   2.835
30348W        W 2773  14.610  26.109   4.561
30349W        W 2774  25.688   3.407   2.269
30350W        W 2775  34.983  36.599   0.798
30351W        W 2776  29.844  42.786   4.155
30352W        W 2777  44.931  11.346  10.570
30353W        W 2778   3.835  17.006  12.218
30354W        W 2779  12.429  16.064   1.281
30355W        W 2780  11.133  37.974   4.749
30356W        W 2781  41.587  34.533  11.213
30357W        W 2782  20.688  39.829  13.761
30358W        W 2783  30.904   1.856  14.387
30359W        W 2784  24.484  23.299   1.235
30360W        W 2785  14.332  38.402  13.471
30361W        W 2786  18.217  18.799  12.143
30362W        W 2787  19.751  26.092   4.340
30363W        W 2788  22.759  44.499  13.348
30364W        W 2789  20.899  43.475   1.215
30365W        W 2790  41.409   9.674   0.986
30366W        W 2791  14.664  40.318   0.810
30367W        W 2792   7.599   5.690   3.221
30368W        W 2793  23.748  13.608   1.511
30369W        W 2794   8.226   8.156  11.136
30370W        W 2795  28.777  30.032   1.842
30371W        W 2796   6.408  13.349   3.453
30372W        W 2797  37.398  15.125   1.965
30373W        W 2798  33.641  20.672  13.997
30374W        W 2799   5.129   5.206  13.855
30375W        W 2800  27.617  32.637   2.908
30376W        W 2801  14.199   1.893   1.454
30377W        W 2802  16.089   8.885  13.924
30378W        W 2803  16.063   7.682   3.935
30379W        W 2804  29.618   6.665   0.384
30380W        W 2805  23.142  31.848  10.883
30381W        W 2806   9.922  41.532   1.306
30382W        W 2807   2.850  26.752   1.657
30383W        W 2808  40.505  32.140   2.187
30384W        W 2809   3.044  31.027  11.009
30385W        W 2810   4.943  36.435  11.653
30386W        W 2811  41.763   9.011  11.016
30387W        W 2812  11.482   9.074  14.459
30388W        W 2813  41.833   2.080  14.382
30389W        W 2814  39.220  15.703  13.746
30390W        W 2815  19.022   5.364   1.398
30391W        W 2816   2.961  36.926  13.832
30392W        W 2817   5.986   0.893   4.897
30393W        W 2818   5.405  17.735  12.984
30394W        W 2819  11.387   0.780   2.392
30395W        W 2820  15.676  22.632  13.403
30396W        W 2821  33.019  43.962  14.798
30397W        W 2822  26.108   8.098   0.804
30398W        W 2823  42.763  11.271   2.342
30399W        W 2824  42.517  42.885   0.691
30400W        W 2825   2.823  27.457   3.328
30401W        W 2826   1.722  11.134  11.520
30402W        W 2827  21.003   7.248  13.108
30403W        W 2828  44.522  29.513  13.052
30404W        W 2829   2.876   2.770  12.915
30405W        W 2830  30.949  28.506   4.309
30406W        W 2831  25.150  15.293  11.217
30407W        W 2832  43.541  40.951  11.124
30408W        W 2833  41.255  29.694  12.988
30409W        W 2834  14.207  26.139   0.367
30410W        W 2835  17.265  25.468  14.053
30411W        W 2836  21.729  30.486   4.544
30412W        W 2837  13.645  38.319   3.468
30413W        W 2838  37.606   8.741   1.761
30414W        W 2839  23.936  19.568  11.115
30415W        W 2840  39.882  15.322   2.864
30416W        W 2841  18.352  15.536  11.055
30417W        W 2842  20.114  36.647  13.942
30418W        W 2843  30.217  18.504   5.468
30419W        W 2844  38.910   7.788  13.101
30420W        W 2845  10.263  15.046  13.035
30421W        W 2846  36.789  16.734  14.049
30422W        W 2847   6.310  13.698   3.914
30423W        W 2848   0.232  39.965  12.474
30424W        W 2849  10.523  40.639  10.728
30425W        W 2850  37.494   0.735   3.607
30426W        W 2851  35.821   6.281   2.676
30427W        W 2852  11.398   0.781  13.884
30428W        W 2853  40.120   7.013  10.606
30429W        W 2854  18.538  18.203  12.858
30430W        W 2855  33.562  32.296  10.802
30431W        W 2856  34.355   9.460   4.869
30432W        W 2857  34.700  13.259  13.389
30433W        W 2858   8.903  11.647  11.223
30434W        W 2859  39.861  25.645   1.508
30435W        W 2860  26.894  31.632  10.885
30436W        W 2861  32.398  44.785  11.872
30437W        W 2862  37.106   2.301  10.814
30438W        W 2863  21.638   1.241   0.657
30439W        W 2864  43.345  43.500  13.453
30440W        W 2865  36.165  18.030   3.916
30441W        W 2866  36.055   1.932  12.245
30442W        W 2867  15.348  10.335  14.204
30443W        W 2868  41.517  42.092  10.622
30444W        W 2869  19.060  29.333  12.143
30445W        W 2870  44.272  20.012  10.725
30446W        W 2871   1.477  34.518  12.889
30447W        W 2872   3.370   3.231  10.623
30448W        W 2873  36.638  19.689   4.577
30449W        W 2874  17.859  39.996   2.418
30450W        W 2875  40.376  23.009  12.368
30451W        W 2876  23.036  23.682   3.094
30452W        W 2877  16.679  18.480  14.362
30453W        W 2878  28.924  24.624  14.093
30454W        W 2879   4.622  40.799  10.693
30455W        W 2880  23.821  12.684  12.940
30456W        W 2881  43.740  42.778   4.584
30457W        W 2882  28.610   4.779  12.614
30458W        W 2883  10.780   2.897   4.211
30459W        W 2884  43.961  44.511  11.837
30460W        W 2885   3.760  34.413  11.595
30461W        W 2886  10.187  32.846   0.755
30462W        W 2887  11.134   1.326   0.462
30463W        W 2888  34.334   4.990   3.255
30464W        W 2889  43.992   9.682   1.808
30465W        W 2890  19.816   4.813  14.771
30466W        W 2891  32.432  38.237   4.719
30467W        W 2892  23.899  21.120  14.306
30468W        W 2893  25.961  12.885   4.705
30469W        W 2894  19.144   5.159   3.114
30470W        W 2895   7.799  10.460   3.611
30471W        W 2896  20.627  17.152  13.059
30472W        W 2897   3.257  43.897   1.873
30473W        W 2898  24.387  40.710  13.494
30474W        W 2899  31.970  44.473  11.973
30475W        W 2900  36.602  34.605   5.123
30476W        W 2901   3.719  32.265  11.197
30477W        W 2902  43.898  33.379   3.372
30478W        W 2903  23.746   1.832  13.282
30479W        W 2904  38.568  31.689  11.280
30480W        W 2905  27.197   0.359   1.716
30481W        W 2906  16.572   2.136   4.631
30482W        W 2907  32.538  31.357   0.785
30483W        W 2908  10.348  41.901  14.306
30484W        W 2909   1.408  19.439  11.497
30485W        W 2910   4.011  18.303  13.447
30486W        W 2911  28.201  12.884  10.977
30487W        W 2912  12.097  25.925  11.616
30488W        W 2913  15.585  27.969   3.255
30489W        W 2914  23.501  27.066  11.577
30490W        W 2915  23.703  26.695  13.955
30491W        W 2916  23.073  12.106  12.891
30492W        W 2917  16.590   6.962   2.762
30493W        W 2918  31.526   8.845   4.194
30494W        W 2919  29.932   0.457   4.329
30495W        W 2920  24.086  19.803  14.716
30496W        W 2921  31.634  39.787   1.029
30497W        W 2922  29.349   6.497  14.718
30498W        W 2923  36.672  41.303   3.876
30499W        W 2924  11.273  44.557   4.250
30500W        W 2925  18.498  39.894  12.465
30501W        W 2926  16.050  21.711  14.554
30502W        W 2927   8.674  15.347  11.889
30503W        W 2928  15.627  15.054  14.258
30504W        W 2929   8.813  40.368  14.760
30505W        W 2930  10.131   4.880  11.195
30506W        W 2931  23.888  41.942   3.168
30507W        W 2932  38.359  13.174  11.618
30508W        W 2933   6.658  39.340  10.695
30509W        W 2934   4.646   1.376   1.246
30510W        W 2935   9.864  32.596   1.693
30511W        W 2936   9.553  40.530   3.189
30512W        W 2937  33.887   2.997  11.583
30513W        W 2938  38.251  44.980  12.341
30514W        W 2939  43.920  22.334   1.776
30515W        W 2940  24.584   9.492  10.574
30516W        W 2941  10.936  33.350   9.891
30517W        W 2942  37.334  25.930  10.388
30518W        W 2943  19.791  13.229  14.855
30519W        W 2944  28.212   3.886   3.561
30520W        W 2945  12.319  19.524   4.857
30521W        W 2946   6.934  12.326  14.377
30522W        W 2947  33.028   9.511  14.414
30523W        W 2948  25.916  18.681  13.360
30524W        W 2949  30.452   9.815  14.543
30525W        W 2950  11.257   0.999  12.665
30526W        W 2951  40.697  40.235  13.511
30527W        W 2952   7.458  15.576   4.515
30528W        W 2953  39.968  26.023  11.079
30529W        W 2954  11.277  18.306   3.091
30530W        W 2955  26.673  11.340  14.033
30531W        W 2956  15.050  25.898  13.994
30532W        W 2957  33.078   0.365  11.465
30533W        W 2958  14.871  34.497   2.909
30534W        W 2959  14.329  19.106   2.660
30535W        W 2960   9.911  15.307   2.386
30536W        W 2961  38.383  17.763  11.792
30537W        W 2962  19.083  38.327  10.722
30538W        W 2963  13.771  43.663   3.693
30539W        W 2964  28.393  24.964   2.728
30540W        W 2965  32.772   3.227   2.615
30541W        W 2966  42.929   2.818  14.363
30542W        W 2967  43.675  29.526  11.934
30543W        W 2968  31.563  27.728   4.175
30544W        W 2969   5.953  29.042   0.403
30545W        W 2970  23.232   8.506   1.384
30546W        W 2971   7.253  21.760   0.275
30547W        W 2972  30.646   4.979   2.156
30548W        W 2973  40.878  38.808   4.492
30549W        W 2974  37.443  23.650  14.963
30550W        W 2975  37.859  25.612  11.976
30551W        W 2976  24.762  15.577   1.358
30552W        W 2977   8.112  23.591  11.046
30553W        W 2978  41.214  28.018  11.741
30554W        W 2979  38.532  22.704   3.886
30555W        W 2980   8.163  21.238  14.921
30556W        W 2981  27.124  10.836  12.984
30557W        W 2982  31.480  33.905   2.841
30558W        W 2983   7.532  13.132   1.236
30559W        W 2984   4.325  11.580   4.200
30560W        W 2985   0.742  23.673  12.954
30561W        W 2986  42.417  28.431   4.612
30562W        W 2987  19.138   6.924   4.711
30563W        W 2988  21.740  32.246  11.064
30564W        W 2989  19.992   2.523  11.979
30565W        W 2990   2.293  34.218   2.030
30566W        W 2991  19.054  14.466  14.973
30567W        W 2992  44.936  19.873   5.001
30568W        W 2993  25.915  35.942   4.657
30569W        W 2994  37.358  42.785   1.980
30570W        W 2995   2.890  22.239   2.891
30571W        W 2996  24.007  39.583  12.036
30572W        W 2997  22.728  13.841  10.611
30573W        W 2998  17.301  44.838   4.651
30574W        W 2999  25.368  33.449   1.422
30575W        W 3000  33.880  33.089   1.518
30576W        W 3001   0.033   3.782   4.825
30577W        W 3002   4.368  10.922  13.856
30578W        W 3003   8.016  17.311   5.093
30579W        W 3004  17.198   0.351   3.710
30580W        W 3005   5.851  23.400  11.712
30581W        W 3006  10.707  37.885  13.430
30582W        W 3007  43.517   4.341  14.785
30583W        W 3008  36.212  31.149   1.267
30584W        W 3009  34.954  29.133   3.116
30585W        W 3010  19.207  16.281  10.852
30586W        W 3011  42.323  43.652  14.263
30587W        W 3012  11.086  37.547  14.276
30588W        W 3013  29.544  44.076   1.406
30589W        W 3014  21.316  39.344  13.778
30590W        W 3015  26.273  22.137  14.818
30591W        W 3016  12.117  22.736  11.778
30592W        W 3017   2.721  13.886  14.295
30593W        W 3018  43.034   3.088   2.677
30594W        W 3019  15.284  18.731   4.565
30595W        W 3020   5.213  36.907   1.404
30596W        W 3021  31.266   4.182   2.227
30597W        W 3022   9.418  22.575   2.416
30598W        W 3023  17.270  15.372  12.066
30599W        W 3024  27.509  26.712  13.511
30600W        W 3025  34.938  36.374  11.970
30601W        W 3026  34.719  30.681   2.345
30602W        W 3027  11.864   3.893  11.503
30603W        W 3028  26.256  26.688  14.953
30604W        W 3029  40.551  42.887   1.850
30605W        W 3030  22.561  22.601   4.562
30606W        W 3031  37.941  16.415   1.066
30607W        W 3032   4.798  27.941   0.541
30608W        W 3033  38.578  10.301   2.391
30609W        W 3034   3.274  22.549   1.813
30610W        W 3035  25.563  11.135  10.621
30611W        W 3036  33.880  40.362   0.081
30612W        W 3037  12.278   0.766   1.334
30613W        W 3038   2.373  26.139  11.576
30614W        W 3039  16.201   8.088   0.307
30615W        W 3040  37.529  43.058   5.058
30616W        W 3041  14.419  20.504  13.134
30617W        W 3042  30.677  16.892  13.991
30618W        W 3043  30.654  19.751  11.504
30619W        W 3044   5.696   8.205   3.011
30620W        W 3045  41.057  41.931  14.895
30621W        W 3046  22.627  39.575  14.363
30622W        W 3047  13.148  16.394  13.112
30623W        W 3048  10.377   4.428  12.940
30624W        W 3049   3.181   0.769   3.643
30625W        W 3050   1.685  37.297   3.152
30626W        W 3051   5.805   3.983   0.549
30627W        W 3052  32.997   6.709   4.277
30628W        W 3053  17.776  22.053  10.607
30629W        W 3054  43.842  43.280   4.536
30630W        W 3055  16.781  18.692  13.906
30631W        W 3056  15.919   9.967  10.057
30632W        W 3057  10.617   4.481   0.476
30633W        W 3058  17.854  22.526   2.745
30634W        W 3059  10.679  39.365  13.305
30635W        W 3060  15.906  29.491   0.499
30636W        W 3061   2.787  32.691  13.087
30637W        W 3062  16.105  35.939   0.468
30638W        W 3063   4.952  13.367  13.067
30639W        W 3064  37.135  18.223  13.928
30640W        W 3065  42.526  17.743  11.528
30641W        W 3066  16.134  34.473  11.648
30642W        W 3067  15.123   4.286   0.527
30643W        W 3068  20.678  29.151  12.000
30644W        W 3069  11.906  26.138  14.807
30645W        W 3070  15.904  17.675   2.120
30646W        W 3071  30.847  16.594  10.994
30647W        W 3072   7.585  15.914   0.139
30648W        W 3073  23.170  24.800  14.119
30649W        W 3074  28.610   3.421  13.893
30650W        W 3075  31.563  20.077  11.751
30651W        W 3076   3.396  31.383  13.593
30652W        W 3077  34.367   6.363  14.624
30653W        W 3078  42.749  21.738   3.694
30654W        W 3079  10.135  43.300  12.460
30655W        W 3080  11.361   5.438   4.910
30656W        W 3081  37.942  37.806  13.449
30657W        W 3082  37.862   7.024  13.850
30658W        W 3083  38.955  12.461   4.524
30659W        W 3084  10.277  33.817   1.113
30660W        W 3085  30.121   9.248   4.708
30661W        W 3086  34.916  39.033  12.106
30662W        W 3087  27.853  14.580  14.862
30663W        W 3088  40.935  42.467  10.459
30664W        W 3089  11.899   4.881   2.143
30665W        W 3090  20.942   4.259   4.157
30666W        W 3091  24.013  34.604  14.985
30667W        W 3092   1.232  11.335  10.653
30668W        W 3093  40.121  19.668  13.381
30669W        W 3094  14.759  19.570  11.550
30670W        W 3095  26.259  32.050  14.371
30671W        W 3096  13.064  10.565  13.725
30672W        W 3097  27.160   3.311   3.118
30673W        W 3098  35.558  18.478  12.062
30674W        W 3099  32.668   3.934  14.976
30675W        W 3100   0.486  15.226  13.841
30676W        W 3101  28.567  25.485  14.922
30677W        W 3102  40.922   2.654  14.962
30678W        W 3103  33.404   4.957  11.124
30679W        W 3104   6.330  14.533   1.784
30680W        W 3105  34.172  36.915  14.362
30681W        W 3106  30.954  12.116   4.127
30682W        W 3107  42.912  13.590  12.621
30683W        W 3108  21.473  14.281  10.802
30684W        W 3109  27.533   2.747  11.436
30685W        W 3110  12.295  18.962   0.067
30686W        W 3111  25.686  36.052  11.116
30687W        W 3112   6.410  33.652   2.812
30688W        W 3113  17.839  35.343   1.022
30689W        W 3114  30.024  32.401   0.898
30690W        W 3115  42.012  23.245  11.992
30691W        W 3116  34.317  14.935   2.290
30692W        W 3117  19.479   7.575   2.493
30693W        W 3118  15.636  19.381  12.431
30694W        W 3119  19.768  15.334   2.649
30695W        W 3120   0.967   0.252  11.464
30696W        W 3121   7.150  22.201   1.980
30697W        W 3122  38.465  23.597  13.986
30698W        W 3123   0.214  12.928   3.882
30699W        W 3124  38.045   4.513   2.802
30700W        W 3125   1.484  24.944  13.044
30701W        W 3126  37.997  20.898   3.728
30702W        W 3127  34.773  10.630  13.984
30703W        W 3128   1.344  30.677   0.339
30704W        W 3129  22.700   8.038  14.823
30705W        W 3130  36.469   5.687   0.372
30706W        W 3131  12.370  40.771   2.195
30707W        W 3132  15.068   0.030  14.476
30708W        W 3133  41.554  42.752   3.619
30709W        W 3134  39.431  15.113  11.554
30710W        W 3135  24.997   6.903  11.964
30711W        W 3136   9.266  21.264  13.129
30712W        W 3137   2.433  36.004  11.569
30713W        W 3138  41.376  10.840  13.571
30714W        W 3139  38.274   3.740  14.814
30715W        W 3140  11.564  11.221  11.617
30716W        W 3141  26.831   5.891   2.865
30717W        W 3142  17.743   4.374  10.740
30718W        W 3143  17.271  14.831  11.165
30719W        W 3144   5.617  30.366  10.750
30720W        W 3145  16.007   4.366  12.910
30721W        W 3146  40.762  25.748   0.840
30722W        W 3147  17.548  26.164  12.883
30723W        W 3148   6.612  41.295   3.729
30724W        W 3149  22.829  10.440  12.623
30725W        W 3150  18.631  37.348   3.147
30726W        W 3151  20.625  41.408   4.148
30727W        W 3152   7.647   5.083   4.269
30728W        W 3153  28.967  31.980  10.666
30729W        W 3154  18.843  17.091  14.858
30730W        W 3155  36.434  10.693  13.620
30731W        W 3156  38.465   4.630   1.574
30732W        W 3157  38.033   7.229  13.397
30733W        W 3158   2.938  39.319  11.495
30734W        W 3159  38.346  24.929  13.508
30735W        W 3160  21.248  35.823  13.491
30736W        W 3161  37.458   3.328   0.898
30737W        W 3162   5.411   4.493  13.412
30738W        W 3163  10.389   1.418   1.535
30739W        W 3164  26.599  28.750   1.708
30740W        W 3165  36.076   5.410   2.392
30741W        W 3166  29.580  15.767   4.693
30742W        W 3167  31.058  44.179  12.370
30743W        W 3168   6.799  23.204   0.740
30744W        W 3169   3.487  25.841   2.457
30745W        W 3170  43.877   6.327   4.793
30746W        W 3171   2.831  39.266  13.053
30747W        W 3172  42.686  33.071   0.533
30748W        W 3173  21.177  42.908   1.860
30749W        W 3174   8.881  16.413  14.665
30750W        W 3175   5.740  23.075  14.306
30751W        W 3176  40.631  34.933  14.173
30752W        W 3177  36.518  32.904  13.256
30753W        W 3178  27.440  30.075   1.405
30754W        W 3179  38.390  12.571   0.465
30755W        W 3180  10.946  16.668  13.318
30756W        W 3181  41.823  13.666  13.531
30757W        W 3182  39.762   9.650  12.386
30758W        W 3183  15.708  11.243  12.860
30759W        W 3184  28.676  36.180   2.109
30760W        W 3185  39.494  20.619  12.174
30761W        W 3186  35.311  12.491   0.754
30762W        W 3187  13.242  27.730  12.909
30763W        W 3188  24.221  38.086  14.883
30764W        W 3189  39.518  12.885   2.685
30765W        W 3190  36.074  23.338   1.333
30766W        W 3191  30.090  14.100  14.864
30767W        W 3192  32.509  31.658   3.186
30768W        W 3193  40.406  11.073  11.919
30769W        W 3194   4.422  17.381   4.435
30770W        W 3195  10.126  28.078  12.110
30771W        W 3196  38.951   6.774  14.521
30772W        W 3197   1.935   3.231   4.363
30773W        W 3198  16.279  22.114   4.177
30774W        W 3199   5.120  36.787   0.670
30775W        W 3200  31.683  24.268   3.776
30776W        W 3201   7.665  34.806   5.015
30777W        W 3202  16.040  16.769   4.110
30778W        W 3203  24.185  26.982  11.952
30779W        W 3204  41.780  27.512   3.384
30780W        W 3205  23.632   9.580   3.428
30781W        W 3206  30.134  32.164   0.367
30782W        W 3207   0.232   6.660   0.917
30783W        W 3208  29.027  43.637  12.992
30784W        W 3209   7.250  33.148   1.010
30785W        W 3210  22.080   6.915   4.147
30786W        W 3211   8.872  30.422  12.723
30787W        W 3212  32.377  34.959  11.630
30788W        W 3213  20.797  26.975   3.064
30789W        W 3214  28.484   9.422  10.735
30790W        W 3215   2.027   6.854  13.585
30791W        W 3216   3.308  43.523   4.196
30792W        W 3217  30.637  31.179   0.999
30793W        W 3218  27.975  41.998   1.646
30794W        W 3219  38.043  38.063  10.731
30795W        W 3220  35.264   8.688  10.176
30796W        W 3221  10.759  14.161   0.923
30797W        W 3222  24.020  43.345   2.184
30798W        W 3223  29.960  19.970  13.302
30799W        W 3224  34.639  44.424   2.742
30800W        W 3225   8.643  20.787   4.116
30801W        W 3226  23.021  23.893   0.048
30802W        W 3227  44.355  21.687  13.902
30803W        W 3228  35.311  19.193  10.981
30804W        W 3229   6.619  39.886  10.732
30805W        W 3230  43.845   5.111   3.306
30806W        W 3231  41.505   0.071   1.252
30807W        W 3232  18.671  29.492   1.235
30808W        W 3233  10.825  40.308  11.160
30809W        W 3234  21.777  27.200  11.030
30810W        W 3235  41.245  18.084  11.020
30811W        W 3236  20.164  41.295  11.258
30812W        W 3237  10.335  14.544  12.909
30813W        W 3238  16.576  19.202   4.686
30814W        W 3239  25.180  31.205  11.600
30815W        W 3240  15.845   4.943  11.549
30816W        W 3241  21.402  25.722   4.175
30817W        W 3242  20.537   9.693   4.620
30818W        W 3243  14.065  26.398  11.020
30819W        W 3244  41.565  38.813  11.091
30820W        W 3245  14.630  37.255  14.264
30821W        W 3246   1.260   9.059   0.744
30822W        W 3247   2.350   7.886  14.361
30823W        W 3248  19.812  32.578  12.246
30824W        W 3249  26.506  17.093   4.597
30825W        W 3250  21.700   2.202   2.599
30826W        W 3251   2.460  41.934   0.462
30827W        W 3252  14.276  20.016   4.433
30828W        W 3253  42.611  32.131   0.919
30829W        W 3254  22.643   3.639  14.417
30830W        W 3255  16.832  26.182  10.902
30831W        W 3256   1.923  17.624  11.472
30832W        W 3257  41.857  38.402   4.147
30833W        W 3258  37.115  10.875   1.356
30834W        W 3259   3.889  14.481   1.483
30835W        W 3260  19.093   4.806   1.709
30836W        W 3261   6.997  20.274   3.641
30837W        W 3262  36.160  27.423   4.612
30838W        W 3263   9.367  16.210   0.003
30839W        W 3264  16.289  14.157   3.034
30840W        W 3265  40.650  33.623   0.755
30841W        W 3266   9.689   7.522  12.710
30842W        W 3267   8.685   7.185  13.866
30843W        W 3268  40.834  38.812   2.747
30844W        W 3269  17.688   0.253   2.853
30845W        W 3270  27.831  36.135  11.653
30846W        W 3271  41.089   8.860   1.333
30847W        W 3272   5.659  36.386  14.451
30848W        W 3273  35.288  16.458  11.079
30849W        W 3274  24.114  24.936  13.889
30850W        W 3275  27.692  29.109  14.510
30851W        W 3276  40.403  11.492   1.849
30852W        W 3277  14.929  32.306   0.853
30853W        W 3278  15.774  14.839   2.842
30854W        W 3279  29.538  13.598  13.983
30855W        W 3280  10.019  29.198   5.028
30856W        W 3281   6.223   1.336   1.847
30857W        W 3282  24.884  41.573  13.013
30858W        W 3283  18.104  39.121   3.274
30859W        W 3284  28.064  40.049  11.569
30860W        W 3285  21.206   3.751  13.526
30861W        W 3286   8.952  40.805   2.375
30862W        W 3287  27.559  18.260  12.608
30863W        W 3288   0.305  36.771  12.984
30864W        W 3289  32.351   1.902  13.596
30865W        W 3290  31.676  39.100  12.403
30866W        W 3291  39.515  33.933  14.008
30867W        W 3292  33.496   5.289  11.609
30868W        W 3293  34.933  19.509   0.988
30869W        W 3294   4.624  30.424  11.534
30870W        W 3295  31.672  13.295  10.639
30871W        W 3296  20.798   9.164   4.226
30872W        W 3297  37.557  43.494   2.315
30873W        W 3298  17.075  19.752   3.191
30874W        W 3299  12.720  37.411  12.671
30875W        W 3300   6.379  37.270   2.557
30876W        W 3301  11.758  42.026   2.376
30877W        W 3302  32.485   8.624   0.059
30878W        W 3303   3.109  32.698   0.995
30879W        W 3304  14.642  39.399  12.553
30880W        W 3305  16.305  38.377  12.465
30881W        W 3306  40.973   1.227   4.667
30882W        W 3307  32.532  23.836   3.385
30883W        W 3308   4.643  28.154  13.171
30884W        W 3309  11.367  42.963   3.674
30885W        W 3310  25.753  21.120   0.424
30886W        W 3311  33.788  14.684  14.934
30887W        W 3312  35.357  16.823   4.082
30888W        W 3313  27.757  26.475  13.961
30889W        W 3314   2.545  14.504   4.781
30890W        W 3315  36.548  33.828   2.236
30891W        W 3316  22.927   2.390  13.370
30892W        W 3317  40.831   6.686   2.942
30893W        W 3318  42.920  23.940   1.369
30894W        W 3319  43.786  26.821  11.027
30895W        W 3320  13.549  27.069   4.139
30896W        W 3321  29.673  37.075   2.673
30897W        W 3322  15.254   1.740  11.112
30898W        W 3323  12.800  39.242  12.311
30899W        W 3324  42.446   1.152   0.481
30900W        W 3325  13.123  23.781   2.320
30901W        W 3326  12.871  11.532  13.929
30902W        W 3327  42.114  36.372  11.620
30903W        W 3328  10.975  42.464  13.358
30904W        W 3329  17.782   8.880  14.999
30905W        W 3330  25.939  39.512   3.146
30906W        W 3331  21.345  42.939   4.578
30907W        W 3332  21.540  42.066   1.760
30908W        W 3333  12.416  16.801   2.719
30909W        W 3334  22.532   5.294  14.963
30910W        W 3335  37.957   5.010   0.816
30911W        W 3336   3.458   7.726   3.221
30912W        W 3337  27.446  14.666   2.180
30913W        W 3338  29.750  14.246  13.640
30914W        W 3339   3.903  10.527  10.475
30915W        W 3340  44.713  12.661  10.693
30916W        W 3341   9.222   8.269  13.048
30917W        W 3342  21.638  24.612  11.545
30918W        W 3343  20.000  20.175  13.326
30919W        W 3344   4.951   9.110   4.739
30920W        W 3345   7.254  27.246  13.183
30921W        W 3346  44.096  28.379  12.916
30922W        W 3347  10.938  16.474  11.516
30923W        W 3348  15.578  15.852   2.821
30924W        W 3349   6.669  20.020   1.314
30925W        W 3350  10.907   0.608  13.856
30926W        W 3351  21.631  24.490   0.797
30927W        W 3352  37.475  32.158   0.752
30928W        W 3353  32.427   4.764   3.810
30929W        W 3354  25.520   6.145   4.144
30930W        W 3355  27.971  22.206   1.423
30931W        W 3356   3.806   6.774  11.699
30932W        W 3357  16.252   6.681  12.991
30933W        W 3358  25.966  41.272   1.780
30934W        W 3359  20.093  16.666   2.803
30935W        W 3360  22.271  17.815   4.104
30936W        W 3361  14.232  26.032  10.695
30937W        W 3362  40.374  22.227  11.673
30938W        W 3363  29.927  20.495  13.429
30939W        W 3364  27.875  33.855  13.806
30940W        W 3365  37.590  42.803   0.437
30941W        W 3366   2.963  36.688  14.911
30942W        W 3367  42.449  32.146  10.688
30943W        W 3368  34.528  10.240  14.778
30944W        W 3369   5.565  30.489   0.333
30945W        W 3370  29.212  18.118  11.911
30946W        W 3371  22.761  40.298  12.597
30947W        W 3372   1.878  25.658   4.617
30948W        W 3373  36.114  24.627  11.634
30949W        W 3374  10.215  21.114   2.879
30950W        W 3375  41.354   5.662  14.844
30951W        W 3376  28.036  32.879   1.283
30952W        W 3377  40.675  18.542   2.241
30953W        W 3378  30.802  34.901   2.798
30954W        W 3379   9.307  16.142  11.380
30955W        W 3380  17.301  41.505   4.070
30956W        W 3381   3.263  33.185   2.210
30957W        W 3382  33.580  42.062   2.373
30958W        W 3383  22.707  40.167  14.432
30959W        W 3384  40.009  37.618   2.056
30960W        W 3385  30.094  14.166   4.166
30961W        W 3386  11.336   3.150  11.239
30962W        W 3387  11.871  28.583  14.740
30963W        W 3388  30.976  37.808  14.761
30964W        W 3389  23.625   4.462   3.683
30965W        W 3390   6.321   2.341  12.398
30966W        W 3391  24.696  29.672  12.446
30967W        W 3392  10.794  35.308  11.620
30968W        W 3393  39.804  20.630   2.240
30969W        W 3394   2.220   6.287  14.299
30970W        W 3395   1.997   2.519  11.030
30971W        W 3396  31.044  39.822  14.393
30972W        W 3397  15.591  40.744   0.486
30973W        W 3398  34.960  24.887   4.732
30974W        W 3399   7.744  39.254   1.864
30975W        W 3400  29.178  17.057  12.505
30976W        W 3401  20.787  13.289   3.977
30977W        W 3402  10.836   8.793  10.681
30978W        W 3403  25.889  39.533   2.191
30979W        W 3404  14.006  13.042  12.118
30980W        W 3405  33.464   1.041   3.164
30981W        W 3406  17.891  26.169  11.971
30982W        W 3407  22.410  37.509   0.968
30983W        W 3408  33.310  10.166   2.765
30984W        W 3409   7.785  10.583  11.945
30985W        W 3410   7.463   2.736  13.549
30986W        W 3411  44.026  14.565   2.798
30987W        W 3412  19.184  21.508   4.424
30988W        W 3413   6.253  43.968   2.036
30989W        W 3414   3.715  22.727  10.815
30990W        W 3415   9.355  15.949  10.107
30991W        W 3416   4.182   0.837  13.748
30992W        W 3417  21.571   9.777  14.305
30993W        W 3418  14.236  14.858   1.287
30994W        W 3419   8.210  42.652   1.729
30995W        W 3420  32.520  23.109  10.381
30996W        W 3421  38.005  20.173  14.029
30997W        W 3422  20.105  20.762   3.858
30998W        W 3423  14.291  44.952   4.242
30999W        W 3424  24.624  14.526   2.705
31000W        W 3425  23.482  11.752  14.532
31001W        W 3426  22.602  10.654  11.609
31002W        W 3427   5.662  27.867  14.437
31003W        W 3428  23.888  31.417  13.263
31004W        W 3429  43.546  14.094   0.531
31005W        W 3430  17.763  15.843  12.539
31006W        W 3431  34.995  12.823   4.271
31007W        W 3432  39.443  13.061  11.556
31008W        W 3433  20.022  10.857   1.735
31009W        W 3434  42.469  40.130   0.179
31010W        W 3435  38.631  14.872  12.117
31011W        W 3436   6.439  26.360  14.068
31012W        W 3437  32.899  15.605  12.930
31013W        W 3438  20.094  44.330  12.474
31014W        W 3439  38.018  41.144   0.477
31015W        W 3440  36.541  40.436   1.903
31016W        W 3441  23.904  26.895  13.058
31017W        W 3442   8.776  30.162   0.862
31018W        W 3443  33.503   2.975   0.788
31019W        W 3444  28.736  23.633  12.085
31020W        W 3445  20.090  21.018  14.780
31021W        W 3446   6.252  42.604   1.291
31022W        W 3447  12.606   8.796   1.860
31023W        W 3448  35.814  44.866   0.374
31024W        W 3449  41.119  27.091  11.668
31025W        W 3450  27.113  35.485  12.499
31026W        W 3451   9.910  10.750   3.761
31027W        W 3452   6.900  38.730   1.457
31028W        W 3453  33.566  32.626   1.871
31029W        W 3454  41.454  34.964  10.647
31030W        W 3455  17.615  34.019   1.574
31031W        W 3456  43.047  22.551  10.627
31032W        W 3457  22.791  40.772   0.823
31033W        W 3458  40.549  44.702  13.335
31034W        W 3459   2.476  36.953  10.659
31035W        W 3460  10.425  24.556  12.754
31036W        W 3461   0.088  25.427   2.169
31037W        W 3462  35.063  27.072  13.259
31038W        W 3463  37.114  26.461   4.782
31039W        W 3464  21.383  19.234  10.938
31040W        W 3465  25.046  32.476   1.672
31041W        W 3466  16.762  37.298   1.783
31042W        W 3467   4.528  14.030  13.048
31043W        W 3468  25.957  32.936  10.987
31044W        W 3469   0.241  37.542   2.440
31045W        W 3470  14.381  41.835   4.700
31046W        W 3471  41.840  27.753   1.455
31047W        W 3472   7.485  25.685   3.408
31048W        W 3473  42.764  29.939   2.430
31049W        W 3474  38.671  39.874  12.054
31050W        W 3475  11.130  41.630   0.537
31051W        W 3476   2.995   7.504   3.086
31052W        W 3477  23.796  31.075  12.727
31053W        W 3478   7.317   3.855   1.326
31054W        W 3479  18.588  30.714   0.284
31055W        W 3480   7.425   6.742  12.469
31056W        W 3481  14.563  43.431  14.828
31057W        W 3482  41.393   5.329   3.656
31058W        W 3483  36.887   7.863  11.269
31059W        W 3484  44.909  38.891   0.710
31060W        W 3485  19.336  29.519  14.499
31061W        W 3486  23.222  15.702   3.245
31062W        W 3487   1.453   2.736  12.602
31063W        W 3488  30.557  24.674   0.057
31064W        W 3489   8.796  23.885   1.315
31065W        W 3490  44.712   2.868  14.824
31066W        W 3491  21.236  10.344  13.950
31067W        W 3492   9.382   0.704  12.064
31068W        W 3493   6.822  21.796   2.709
31069W        W 3494  24.976  31.306   0.913
31070W        W 3495  13.419  43.276   3.517
31071W        W 3496  29.688  39.035  13.333
31072W        W 3497  12.333   4.349   0.180
31073W        W 3498   0.646  38.522   2.393
31074W        W 3499  20.182  15.565   0.258
31075W        W 3500  31.382  15.618  12.689
31076W        W 3501   3.815  30.029   0.649
31077W        W 3502  41.883  42.120   2.329
31078W        W 3503   2.482  44.322  14.295
31079W        W 3504  22.105  26.631   0.637
31080W        W 3505  10.176   2.841   5.273
31081W        W 3506  18.571  18.051  12.368
31082W        W 3507  14.231  31.473   0.947
31083W        W 3508  38.615   7.939  11.464
31084W        W 3509  44.039   6.454  13.932
31085W        W 3510  17.204   9.658   1.293
31086W        W 3511  40.709   9.371  14.481
31087W        W 3512  43.960  24.643  11.134
31088W        W 3513  18.305  16.142  11.262
31089W        W 3514  41.714  18.623  12.581
31090W        W 3515  23.986  14.859   1.423
31091W        W 3516  28.386   9.709  12.354
31092W        W 3517  29.299   8.959  11.143
31093W        W 3518  23.645  17.503   0.409
31094W        W 3519  15.349  32.356  13.263
31095W        W 3520  37.633  28.459   2.782
31096W        W 3521  26.218   0.709  13.979
31097W        W 3522  23.568   2.860  13.096
31098W        W 3523  35.443   8.010   1.943
31099W        W 3524  11.159   2.745   1.388
31100W        W 3525  21.252  20.818   4.419
31101W        W 3526  44.886  25.075   1.407
31102W        W 3527  15.506  23.826  12.962
31103W        W 3528   4.771  37.497  14.742
31104W        W 3529  34.790  31.344  14.281
31105W        W 3530  19.034  37.550   3.425
31106W        W 3531  42.062  44.440   2.606
31107W        W 3532  24.783  26.771   4.176
31108W        W 3533  33.064  17.489  10.283
31109W        W 3534  22.142  28.787  14.527
31110W        W 3535   0.005  38.136   1.231
31111W        W 3536  16.471  16.841   0.519
31112W        W 3537  30.677   7.802   3.861
31113W        W 3538  25.614  38.026   3.259
31114W        W 3539  38.964  22.291  12.643
31115W        W 3540  31.212  42.037   0.808
31116W        W 3541  24.925  21.136  14.512
31117W        W 3542   3.233  41.280   4.278
31118W        W 3543  32.821  12.418  10.727
31119W        W 3544  38.901  36.171   0.323
31120W        W 3545  33.816  10.297  12.116
31121W        W 3546   7.453  19.415   4.081
31122W        W 3547  23.993  11.905  14.451
31123W        W 3548  23.456  24.761  12.002
31124W        W 3549  16.889   4.425  14.494
31125W        W 3550   2.019  24.843  12.341
31126W        W 3551  29.841  20.178   1.330
31127W        W 3552  14.249  12.155  10.725
31128W        W 3553  36.487  25.579   1.433
31129W        W 3554  24.183  24.256  11.409
31130W        W 3555  16.546  10.558  12.101
31131W        W 3556  18.258   0.317  14.918
31132W        W 3557  30.500   0.849   3.568
31133W        W 3558  20.714   6.260  13.992
31134W        W 3559  27.352  14.087   1.429
31135W        W 3560   5.248  16.279   2.312
31136W        W 3561  39.099  19.096   4.664
31137W        W 3562   3.325   6.645  14.820
31138W        W 3563  39.944  11.755  10.660
31139W        W 3564  22.048   8.755  11.987
31140W        W 3565  27.287  14.971   2.814
31141W        W 3566   3.775  40.607  13.522
31142W        W 3567  25.597  38.883  12.411
31143W        W 3568   6.473  40.378  10.478
31144W        W 3569  31.892  25.897   0.881
31145W        W 3570   1.960  36.989  10.542
31146W        W 3571   8.857  19.207   2.717
31147W        W 3572  34.893  30.390   4.329
31148W        W 3573  19.267   1.299   3.430
31149W        W 3574  16.578  31.821   3.867
31150W        W 3575  36.520  44.261   2.840
31151W        W 3576  29.975  42.815  11.866
31152W        W 3577  25.414  26.177   0.871
31153W        W 3578   4.872  40.866   2.305
31154W        W 3579  10.374  10.219   0.405
31155W        W 3580  40.530  28.707  12.280
31156W        W 3581   7.598  17.018   0.302
31157W        W 3582  22.959  41.270   4.713
31158W        W 3583  14.624  31.266  11.197
31159W        W 3584   3.935  12.715  12.869
31160W        W 3585   7.986  30.447  12.988
31161W        W 3586  20.610  10.827  12.401
31162W        W 3587  38.996  27.007   4.630
31163W        W 3588  10.773  26.681   3.668
31164W        W 3589   6.912   9.510   1.270
31165W        W 3590  21.596  40.349   4.707
31166W        W 3591  13.141  32.619  13.717
31167W        W 3592  21.086   3.372  11.712
31168W        W 3593  37.689  22.449   2.234
31169W        W 3594   2.326  21.106   0.505
31170W        W 3595  29.868  43.930  13.976
31171W        W 3596  30.215  31.582   4.196
31172W        W 3597  31.488  43.482   2.803
31173W        W 3598  42.553   9.815   4.176
31174W        W 3599  10.235  22.390   1.719
31175W        W 3600  42.298  30.552   2.654
31176W        W 3601  28.652  12.908   1.685
31177W        W 3602  17.254  10.364   4.190
31178W        W 3603   3.411   6.583  14.276
31179W        W 3604  21.088   7.287   1.280
31180W        W 3605   2.325  26.646   0.761
31181W        W 3606   1.785  32.050  12.157
31182W        W 3607  44.601  31.852   4.483
31183W        W 3608  29.064  35.514  14.926
31184W        W 3609  21.156  20.094   2.393
31185W        W 3610  38.053  35.462  12.421
31186W        W 3611  17.980  36.542   0.047
31187W        W 3612  21.753  18.061   1.151
31188W        W 3613  26.525  10.841  11.086
31189W        W 3614  26.070  11.620  13.374
31190W        W 3615  24.255   1.918   0.388
31191W        W 3616   9.268  12.677  13.338
31192W        W 3617  25.599  18.235  12.852
31193W        W 3618  11.766  31.446  14.123
31194W        W 3619   9.624  18.285   1.269
31195W        W 3620  22.573   6.997   3.210
31196W        W 3621   5.763   1.700   2.655
31197W        W 3622  43.797  13.422  12.105
31198W        W 3623  17.044  32.826   5.378
31199W        W 3624  21.348  31.522   0.492
31200W        W 3625  25.083  10.812   9.688
31201W        W 3626  12.910  11.556   0.994
31202W        W 3627  14.760  17.614  12.961
31203W        W 3628  25.665  19.968   4.674
31204W        W 3629  24.599  38.472   0.795
31205W        W 3630  36.057  13.725  13.514
31206W        W 3631   2.344   7.887   0.482
31207W        W 3632  20.437  19.978  11.642
31208W        W 3633  12.591  34.898  14.481
31209W        W 3634  16.767   3.502  14.280
31210W        W 3635  13.561  10.036   2.272
31211W        W 3636  25.675   4.748  12.925
31212W        W 3637  29.412   2.904   0.377
31213W        W 3638  44.336  11.849  13.507
31214W        W 3639  35.943  11.421   0.247
31215W        W 3640  20.198  41.956   4.631
31216W        W 3641   1.732  22.201  14.359
31217W        W 3642  12.836   2.442  14.374
31218W        W 3643  44.712   6.238   1.879
31219W        W 3644  32.580  38.798   1.675
31220W        W 3645   0.931   5.215   0.476
31221W        W 3646  37.298  29.920   4.749
31222W        W 3647   4.204  28.819  11.156
31223W        W 3648   9.672  13.471  12.567
31224W        W 3649  14.206  31.481   4.858
31225W        W 3650  30.951  29.865  12.958
31226W        W 3651   1.030   7.287  12.911
31227W        W 3652  20.510  11.266   0.884
31228W        W 3653   8.751  27.977  11.121
31229W        W 3654  20.735   2.529  12.505
31230W        W 3655  32.013  31.389  14.317
31231W        W 3656  27.733   5.793  14.852
31232W        W 3657   4.110  28.653   0.506
31233W        W 3658  13.058  39.069  10.683
31234W        W 3659  41.615  28.613  12.959
31235W        W 3660  29.366   1.365   0.449
31236W        W 3661  42.200  38.368   2.312
31237W        W 3662  28.971  28.098   1.533
31238W        W 3663   4.313   1.626   0.911
31239W        W 3664  20.649  38.406   2.138
31240W        W 3665  35.491  41.354   4.164
31241W        W 3666  12.189  44.258  14.777
31242W        W 3667  13.258  42.611  12.743
31243W        W 3668  26.705   7.285   0.373
31244W        W 3669   6.533  34.880  14.854
31245W        W 3670  26.604   0.948  11.147
31246W        W 3671  22.983  40.483  11.060
31247W        W 3672  27.862  26.206   3.383
31248W        W 3673  25.786  19.141  13.126
31249W        W 3674  42.495  17.309   2.676
31250W        W 3675   4.435  35.733  11.620
31251W        W 3676   8.643  37.688  10.690
31252W        W 3677   4.194  27.963  12.043
31253W        W 3678  10.435  44.392  10.881
31254W        W 3679  20.326   5.975  10.646
31255W        W 3680   0.209  34.280  13.856
31256W        W 3681  41.508   8.280  12.034
31257W        W 3682   3.003  22.602  13.520
31258W        W 3683  26.043  22.954   0.398
31259W        W 3684  34.179   9.432  12.769
31260W        W 3685  43.332   9.715  11.736
31261W        W 3686  18.302  20.441  12.464
31262W        W 3687  35.168   8.783   0.419
31263W        W 3688  22.754  33.187  11.990
31264W        W 3689  27.929  41.267  11.364
31265W        W 3690  14.637   2.831  10.583
31266W        W 3691  31.347  39.637   1.826
31267W        W 3692  28.348  33.575   2.566
31268W        W 3693  10.203  29.161  12.324
31269W        W 3694   2.470  29.139   3.655
31270W        W 3695  29.121   6.464  14.259
31271W        W 3696  38.003  44.970   4.614
31272W        W 3697  32.316  40.860   2.381
31273W        W 3698  41.034  19.522  14.889
31274W        W 3699   4.704  25.787   2.417
31275W        W 3700  17.481   8.756  12.415
31276W        W 3701   4.348  11.800   2.298
31277W        W 3702   8.178  29.546   4.998
31278W        W 3703   7.628  30.187   2.865
31279W        W 3704  35.703  44.494   4.503
31280W        W 3705  11.713   3.361   1.382
31281W        W 3706   2.345  24.779  13.044
31282W        W 3707  34.917  29.442  14.562
31283W        W 3708   8.143  12.994   2.401
31284W        W 3709  16.402  25.659  13.953
31285W        W 3710   0.710  21.814   2.288
31286W        W 3711  29.679   6.355   0.808
31287W        W 3712  30.840  42.834  13.382
31288W        W 3713  30.952  39.246   3.237
31289W        W 3714  37.111   8.010  14.137
31290W        W 3715   2.017  13.214   4.073
31291W        W 3716  42.060  43.737  13.820
31292W        W 3717   0.890  39.318   0.879
31293W        W 3718  11.824   9.738   2.148
31294W        W 3719  21.260  19.819   4.616
31295W        W 3720  20.436  27.064  10.514
31296W        W 3721  19.687  39.751  12.687
31297W        W 3722  41.276  31.404  10.995
31298W        W 3723   4.337  43.299  14.740
31299W        W 3724  12.619  15.795   4.195
31300W        W 3725   6.817   8.442  10.736
31301W        W 3726  22.123  36.391   4.408
31302W        W 3727   9.615   1.695   3.222
31303W        W 3728   5.658  13.213   3.829
31304W        W 3729   3.467   1.257   2.845
31305W        W 3730  10.307  44.312   2.019
31306W        W 3731   6.331  20.045   2.846
31307W        W 3732  15.657  44.690   4.126
31308W        W 3733  16.176  17.312  13.105
31309W        W 3734  40.383  24.264   0.365
31310W        W 3735  33.387   0.109   3.604
31311W        W 3736  17.130   7.464  11.114
31312W        W 3737  38.489  33.585   3.898
31313W        W 3738  12.653  29.181   4.517
31314W        W 3739  33.094  32.658  13.326
31315W        W 3740  40.305  41.397  10.306
31316W        W 3741  12.584  13.641  13.464
31317W        W 3742  30.798  27.501   0.521
31318W        W 3743  13.949  24.529  11.163
31319W        W 3744   5.795  44.331  14.393
31320W        W 3745  31.697  42.598   1.754
31321W        W 3746  43.622   1.928   3.182
31322W        W 3747  26.515  36.486  13.788
31323W        W 3748  39.611   7.403   4.018
31324W        W 3749  23.111  30.562   2.408
31325W        W 3750   5.773   2.176   2.856
31326W        W 3751   6.894  33.838   0.311
31327W        W 3752   4.780  23.252  14.634
31328W        W 3753  20.076   7.942   1.752
31329W        W 3754  18.586  28.213   3.177
31330W        W 3755  16.074  38.887  13.669
31331W        W 3756  44.056  19.704   0.283
31332W        W 3757  17.191   3.502   1.406
31333W        W 3758  24.536  21.596   0.300
31334W        W 3759  36.212  44.014  11.507
31335W        W 3760  22.825   5.864  14.658
31336W        W 3761  44.959  10.556  11.092
31337W        W 3762  37.840  10.958  12.022
31338W        W 3763  30.448  42.819   1.548
31339W        W 3764  44.319  33.374   3.672
31340W        W 3765  27.972  19.259   4.900
31341W        W 3766  24.772  19.166   2.695
31342W        W 3767  30.335  44.873   1.258
31343W        W 3768   6.075  39.911   1.062
31344W        W 3769  42.734   6.784  14.093
31345W        W 3770  14.069   6.357  11.499
31346W        W 3771  27.962  32.684  14.834
31347W        W 3772   4.845  36.985  12.923
31348W        W 3773  14.562  24.627   0.469
31349W        W 3774  31.180  22.713  14.908
31350W        W 3775   2.441   9.921   3.175
31351W        W 3776  33.127  31.974  12.917
31352W        W 3777   6.242  12.129   1.676
31353W        W 3778  13.257  39.540   3.637
31354W        W 3779  30.917   0.223  14.411
31355W        W 3780  17.037   3.570  11.792
31356W        W 3781  11.348  25.293   3.233
31357W        W 3782  39.477  32.591   2.393
31358W        W 3783  14.832   6.265   0.454
31359W        W 3784  35.096  32.083   3.151
31360W        W 3785  26.493  23.006   4.101
31361W        W 3786  11.977   7.627   3.255
31362W        W 3787   2.850  14.833   0.339
31363W        W 3788  26.609  22.199  13.580
31364W        W 3789  25.530   1.463  11.980
31365W        W 3790  44.984  36.138   2.688
31366W        W 3791  38.810  13.811  14.404
31367W        W 3792  38.593  26.277  11.923
31368W        W 3793  16.153   7.237   3.681
31369W        W 3794  12.842  10.660   3.659
31370W        W 3795   7.723  14.593   4.745
31371W        W 3796  14.555  28.087  11.181
31372W        W 3797  41.281  12.647   1.626
31373W        W 3798  10.822  37.540   2.319
31374W        W 3799  19.678   5.908  14.375
31375W        W 3800  40.569  36.675  10.725
31376W        W 3801  41.475   5.508   4.134
31377W        W 3802  32.618  30.951  14.388
31378W        W 3803   6.380  15.756  12.601
31379W        W 3804  24.472  35.495   4.231
31380W        W 3805  44.081  22.572  14.948
31381W        W 3806  11.605  26.969  13.349
31382W        W 3807  13.366   0.756   1.452
31383W        W 3808  17.341  30.928  13.901
31384W        W 3809  21.078   7.682  11.874
31385W        W 3810  12.834  29.103   0.932
31386W        W 3811  41.882  15.533   2.182
31387W        W 3812  15.079   6.352   4.673
31388W        W 3813  31.148   6.470  14.933
31389W        W 3814  19.712  38.925   2.462
31390W        W 3815   0.576  28.030   1.734
31391W        W 3816   7.685  42.570  12.384
31392W        W 3817  11.379   4.812  14.387
31393W        W 3818  40.978  10.611   1.778
31394W        W 3819   7.311  15.662   0.523
31395W        W 3820  38.931   1.262  14.353
31396W        W 3821  16.827  13.440   4.015
31397W        W 3822   6.089  21.982  11.170
31398W        W 3823  28.703  34.841   1.397
31399W        W 3824  36.523  14.012   3.632
31400W        W 3825  19.152  17.126  12.985
31401W        W 3826  32.954  31.392  12.851
31402W        W 3827  19.608  33.716   1.794
31403W        W 3828  12.357   9.316  14.517
31404W        W 3829   6.816  43.417  10.692
31405W        W 3830  41.494   0.062  12.685
31406W        W 3831   0.689   5.856   4.468
31407W        W 3832  26.680   4.223  11.133
31408W        W 3833  43.429   2.319  12.441
31409W        W 3834   9.360  41.080  11.632
31410W        W 3835  40.937   7.529   2.256
31411W        W 3836   9.277  29.654   3.240
31412W        W 3837  21.345   9.537   2.861
31413W        W 3838  32.037   8.296   4.300
31414W        W 3839  34.797  23.637   9.795
31415W        W 3840  20.856  16.371   1.754
31416W        W 3841  38.602  10.684  12.481
31417W        W 3842  24.498  31.563  11.588
31418W        W 3843  37.129  33.684  13.494
31419W        W 3844  33.636  12.870   0.975
31420W        W 3845  21.695  16.793  11.464
31421W        W 3846  17.120  16.532  14.799
31422W        W 3847  34.422  39.746   4.619
31423W        W 3848   5.820  30.524  12.853
31424W        W 3849  19.472   9.230   1.720
31425W        W 3850  15.398  42.352  14.250
31426W        W 3851   9.896   6.665  12.606
31427W        W 3852   4.684  25.941   0.374
31428W        W 3853   1.299  20.843   1.268
31429W        W 3854  14.192  43.048   2.692
31430W        W 3855  11.221  13.326  13.632
31431W        W 3856   0.845  40.762   3.307
31432W        W 3857  44.697  29.242  10.989
31433W        W 3858   1.247   4.311   3.226
31434W        W 3859  11.599  44.472   0.302
31435W        W 3860  22.011  29.498   1.017
31436W        W 3861  15.530   6.078  11.911
31437W        W 3862  12.135   2.726  11.088
31438W        W 3863  21.835  39.944  11.624
31439W        W 3864  11.842  37.098  10.488
31440W        W 3865   3.556  10.473   0.893
31441W        W 3866  38.836  24.994   3.732
31442W        W 3867  23.565  38.331   3.132
31443W        W 3868  39.992  26.055   4.655
31444W        W 3869   5.707  41.559   3.729
31445W        W 3870  12.884  22.071   2.693
31446W        W 3871   6.632  41.746  11.637
31447W        W 3872  32.024   7.223   1.534
31448W        W 3873  30.673  29.052  10.544
31449W        W 3874  41.616  19.131  13.101
31450W        W 3875  22.722  38.686   3.018
31451W        W 3876  38.881  19.286   4.234
31452W        W 3877  30.589   5.809   4.713
31453W        W 3878  42.617  40.076   3.942
31454W        W 3879  21.131   6.850  10.944
31455W        W 3880  12.528  17.815  10.439
31456W        W 3881  17.465  12.771  14.951
31457W        W 3882  44.706  28.046  10.454
31458W        W 3883  35.453  39.624  12.554
31459W        W 3884   3.408  44.750  13.486
31460W        W 3885   1.463  29.084  13.946
31461W        W 3886  37.952  35.743  14.252
31462W        W 3887  15.114  34.454  14.505
31463W        W 3888  23.504  18.674   3.872
31464W        W 3889  29.965  21.463  10.340
31465W        W 3890   4.515  16.396   3.398
31466W        W 3891  41.348  29.285   1.705
31467W        W 3892  30.387  35.038   0.750
31468W        W 3893  16.190   9.417  13.982
31469W        W 3894  23.014  17.186   4.573
31470W        W 3895  29.192  18.707   0.280
31471W        W 3896  25.278  13.657  11.119
31472W        W 3897  18.317  25.536  12.923
31473W        W 3898  27.908   9.748  12.551
31474W        W 3899  10.361  31.147   1.281
31475W        W 3900  13.611  18.072   4.623
31476W        W 3901  44.580  24.732  12.950
31477W        W 3902  12.340   7.296  13.253
31478W        W 3903  32.983  33.087   3.236
31479W        W 3904  33.421   7.676  10.716
31480W        W 3905  33.469  11.101  14.613
31481W        W 3906  21.411  33.042  11.614
31482W        W 3907   5.371  17.821   1.937
31483W        W 3908  42.038   8.710  12.856
31484W        W 3909  12.761  29.631  11.502
31485W        W 3910  41.252   5.170  13.961
31486W        W 3911  26.857  10.430   1.337
31487W        W 3912  10.974   8.954   4.968
31488W        W 3913  35.648  23.621   1.399
31489W        W 3914  40.528  28.034   4.964
31490W        W 3915  30.662  22.819   4.112
31491W        W 3916  18.190  20.907  10.239
31492W        W 3917  36.980  43.770   4.564
31493W        W 3918   5.382  41.303  13.814
31494W        W 3919  42.196  39.983  13.093
31495W        W 3920  35.093  44.744   2.855
31496W        W 3921   9.404  37.105   2.570
31497W        W 3922  43.971  44.433   0.326
31498W        W 3923  42.460  16.789   3.735
31499W        W 3924  41.773  18.094  10.942
31500W        W 3925   5.718  39.829   4.276
31501W        W 3926   6.136  26.157   0.328
31502W        W 3927  28.047   5.928  12.860
31503W        W 3928  36.873  27.208  10.775
31504W        W 3929   9.114  33.935   0.730
31505W        W 3930  43.378  39.165  11.401
31506W        W 3931  35.371   7.915  10.754
31507W        W 3932  34.211  13.271  13.556
31508W        W 3933  20.444  43.241   2.407
31509W        W 3934  32.112  21.613  14.494
31510W        W 3935  43.844  27.429  14.990
31511W        W 3936  33.456  13.419   0.861
31512W        W 3937  39.905  11.813   1.902
31513W        W 3938   0.907  28.104  12.060
31514W        W 3939   7.958  25.614  11.194
31515W        W 3940  13.135  35.593  14.756
31516W        W 3941   5.324  36.798  11.716
31517W        W 3942  31.685  16.793  11.154
31518W        W 3943   7.891  15.758   3.342
31519W        W 3944  29.192  32.291   5.107
31520W        W 3945  10.048  14.851  10.838
31521W        W 3946  35.586  11.803  11.941
31522W        W 3947  14.800   0.428  12.514
31523W        W 3948  15.852  38.584  12.588
31524W        W 3949  33.421  37.994   1.359
31525W        W 3950  42.749   3.541  14.829
31526W        W 3951  44.366  35.503   2.026
31527W        W 3952  32.084   3.645  11.441
31528W        W 3953  12.815   5.764  12.573
31529W        W 3954  13.195  17.562   1.385
31530W        W 3955  36.867  10.871   3.615
31531W        W 3956   8.300  12.687   4.570
31532W        W 3957  29.425  13.853  13.554
31533W        W 3958  44.126   0.566  13.324
31534W        W 3959  35.547  16.749  13.527
31535W        W 3960  38.439  26.745   1.908
31536W        W 3961   0.815  12.623   5.040
31537W        W 3962  28.204  10.336  11.601
31538W        W 3963  41.018   6.203   3.713
31539W        W 3964  19.666  42.906   0.514
31540W        W 3965  24.658   1.314   2.421
31541W        W 3966  39.621  16.268  13.402
31542W        W 3967  23.022   4.945   3.188
31543W        W 3968   4.880   7.829   2.150
31544W        W 3969  15.283  22.005   5.134
31545W        W 3970  11.061  44.941   2.527
31546W        W 3971  36.056  22.602   4.222
31547W        W 3972  14.430  14.880  13.846
31548W        W 3973  40.088  44.335  12.002
31549W        W 3974   3.305  16.274  13.543
31550W        W 3975  24.616  25.268   3.039
31551W        W 3976  24.066  42.814   2.262
31552W        W 3977  12.443  41.997   4.439
31553W        W 3978   2.835  11.807   0.348
31554W        W 3979  17.717  27.471   0.625
31555W        W 3980  16.794  17.613   0.874
31556W        W 3981   3.865  33.905   0.460
31557W        W 3982  24.423  26.909  11.480
31558W        W 3983  10.806  37.080  14.232
31559W        W 3984  35.337   6.216   2.829
31560W        W 3985  14.178  19.112  13.448
31561W        W 3986  43.791  40.827   2.172
31562W        W 3987  41.633  39.083  13.909
31563W        W 3988  43.347  42.703  11.876
31564W        W 3989  21.177   2.442  10.779
31565W        W 3990  42.757  42.518  12.090
31566W        W 3991  21.765  16.133   0.858
31567W        W 3992  32.034  29.044  12.462
31568W        W 3993  18.442  27.470   0.143
31569W        W 3994  21.714   0.594  14.403
31570W        W 3995  25.228   8.209   3.853
31571W        W 3996   7.184  40.021   0.288
31572W        W 3997  44.075   7.800   3.576
31573W        W 3998  21.816  35.077  13.434
31574W        W 3999  22.731  28.633   4.588
31575W        W 4000  14.529  20.727   4.884
31576W        W 4001   0.200  24.167   3.861
31577W        W 4002  32.898  25.827  14.321
31578W        W 4003   0.307  38.716   3.356
31579W        W 4004   3.418  12.036  12.480
31580W        W 4005  26.976  40.269   0.419
31581W        W 4006  17.316  42.381   3.783
31582W        W 4007  35.364  29.714   2.866
31583W        W 4008   3.539   6.345  11.501
31584W        W 4009  37.583  42.029  12.422
31585W        W 4010  27.860   8.163   0.752
31586W        W 4011  42.373  30.369  12.643
31587W        W 4012  13.799  26.741  10.655
31588W        W 4013  40.829   1.527   3.651
31589W        W 4014  31.589  10.780  11.467
31590W        W 4015  44.986  14.540   1.404
31591W        W 4016  11.626  36.846  13.959
31592W        W 4017  35.098  12.118  11.507
31593W        W 4018  22.039  13.433   3.192
31594W        W 4019  34.684  31.471  12.034
31595W        W 4020  33.466  42.374   3.361
31596W        W 4021  31.125  13.431   3.506
31597W        W 4022  12.325  36.150   2.242
31598W        W 4023   7.815  31.684  12.958
31599W        W 4024  21.963  11.246   0.745
31600W        W 4025  23.432  23.394  14.386
31601W        W 4026   9.819  27.473   3.615
31602W        W 4027  35.600  42.441  11.632
31603W        W 4028  14.138  11.145  14.838
31604W        W 4029  18.170  38.831  14.422
31605W        W 4030  13.426   4.808  14.027
31606W        W 4031  30.492  13.575  11.563
31607W        W 4032   6.895  17.273   4.678
31608W        W 4033   0.923  21.503   3.231
31609W        W 4034  39.407   8.919   0.793
31610W        W 4035   8.239  28.067  13.020
31611W        W 4036  35.992   2.987  11.971
31612W        W 4037  31.346  25.239   0.277
31613W        W 4038  20.631  27.059   0.692
31614W        W 4039  27.237   2.906  13.563
31615W        W 4040  23.999  43.457  12.337
31616W        W 4041  43.025  13.741   2.631
31617W        W 4042   5.574  42.298   1.732
31618W        W 4043  15.229   7.385   3.888
31619W        W 4044   4.618   0.600  11.911
31620W        W 4045  31.725  18.687  12.836
31621W        W 4046  21.187   1.407   1.901
31622W        W 4047  15.296   5.162  13.399
31623W        W 4048  30.510  24.746   0.644
31624W        W 4049  37.111  42.396  10.639
31625W        W 4050   9.718  29.882  12.458
31626W        W 4051  44.832  26.434   1.196
31627W        W 4052   4.618  43.090   0.404
31628W        W 4053  14.862  25.567   3.769
31629W        W 4054  23.567  43.524   2.364
31630W        W 4055  10.750  42.276   2.877
31631W        W 4056  28.136  19.780  14.357
31632W        W 4057  11.556   4.325   3.641
31633W        W 4058  26.604  44.761  14.002
31634W        W 4059  13.553   0.327   3.326
31635W        W 4060  28.944   3.214   0.942
31636W        W 4061  43.723  34.541  11.512
31637W        W 4062  35.580   1.318  12.384
31638W        W 4063  17.060  21.337   2.891
31639W        W 4064  28.656  12.135   3.120
31640W        W 4065  33.125   0.833  14.315
31641W        W 4066  41.616  14.128   3.865
31642W        W 4067  12.377  25.452  11.467
31643W        W 4068  29.357  35.354   0.729
31644W        W 4069  43.683  22.070  13.011
31645W        W 4070  32.686   4.456   3.485
31646W        W 4071  34.891   4.908   1.363
31647W        W 4072  14.038  38.836  10.800
31648W        W 4073  29.170  11.084  11.508
31649W        W 4074  11.190   2.454  13.432
31650W        W 4075  20.849  25.093   2.191
31651W        W 4076  25.184   0.303  12.670
31652W        W 4077  34.075  30.989  11.628
31653W        W 4078  30.033  29.447  11.039
31654W        W 4079  36.869  40.784  13.401
31655W        W 4080  40.772  32.595   4.481
31656W        W 4081   3.915  12.849  10.730
31657W        W 4082  30.686  34.123   0.566
31658W        W 4083  19.527  25.688   1.345
31659W        W 4084  41.970  18.072  13.236
31660W        W 4085  22.736  34.743   3.349
31661W        W 4086  33.240   6.134   0.976
31662W        W 4087  31.390  32.190   3.130
31663W        W 4088  34.975  31.935  14.710
31664W        W 4089  34.436  16.575  11.911
31665W        W 4090  10.609  29.028  12.055
31666W        W 4091  26.647  34.997  13.370
31667W        W 4092  22.758  32.634  12.063
31668W        W 4093  12.614  21.016  13.478
31669W        W 4094  28.663  36.525   1.327
31670W        W 4095   9.441  42.730  11.977
31671W        W 4096  23.729  41.420  13.295
31672W        W 4097  29.642  11.298  11.631
31673W        W 4098  13.508  33.342   2.615
31674W        W 4099   0.988  24.984  14.315
31675W        W 4100  42.199  16.341   4.939
31676W        W 4101   6.891   0.441   2.900
31677W        W 4102  42.258  15.682   3.274
31678W        W 4103  18.776  35.889  14.322
31679W        W 4104  43.012  16.557  11.237
31680W        W 4105  41.827  18.165  12.338
31681W        W 4106   0.474  18.488  13.027
31682W        W 4107   0.380  11.233  10.867
31683W        W 4108  30.856   3.602  11.939
31684W        W 4109   7.310  28.292   2.849
31685W        W 4110  10.214  10.055  14.081
31686W        W 4111  17.862  29.497  14.380
31687W        W 4112  14.459  24.550  12.095
31688W        W 4113  14.700  39.954   3.649
31689W        W 4114  34.013  11.043   2.870
31690W        W 4115  25.702  42.827   3.237
31691W        W 4116  23.894   4.935  13.900
31692W        W 4117   7.147  38.886   0.776
31693W        W 4118  24.003  19.784  12.886
31694W        W 4119  24.502  28.645   2.366
31695W        W 4120  43.783  32.884  13.869
31696W        W 4121  30.496  12.614   3.555
31697W        W 4122  14.320   9.874   1.890
31698W        W 4123  22.697  31.677  12.843
31699W        W 4124  31.731  29.063   2.278
31700W        W 4125  18.552  28.574   2.281
31701W        W 4126   8.217   8.973  14.907
31702W        W 4127  31.886  30.142   4.326
31703W        W 4128  35.375  31.017  12.972
31704W        W 4129  19.609  44.349   0.264
31705W        W 4130  13.357   3.324  13.455
31706W        W 4131  27.244  12.075   2.603
31707W        W 4132  23.219   7.060  13.586
31708W        W 4133  13.182  17.005   0.856
31709W        W 4134  33.321   2.814   0.316
31710W        W 4135   0.183   5.152   3.388
31711W        W 4136  13.196   8.695   0.650
31712W        W 4137  30.153  13.671  11.974
31713W        W 4138   5.263  34.633  10.319
31714W        W 4139  35.343  25.680  12.032
31715W        W 4140   3.808  10.106  12.047
31716W        W 4141  27.425   4.973   2.264
31717W        W 4142  25.867   0.007  13.458
31718W        W 4143   3.002  40.786   2.418
31719W        W 4144  42.273  31.628  13.336
31720W        W 4145  16.238  35.333  12.545
31721W        W 4146  28.731  11.152   3.174
31722W        W 4147  34.519  30.708   4.161
31723W        W 4148  15.609  35.042  11.123
31724W        W 4149  42.423  20.888   4.530
31725W        W 4150  21.093  31.666  12.826
31726W        W 4151  39.353  38.333  14.831
31727W        W 4152  37.862  22.903   1.278
31728W        W 4153  37.892   9.775  13.370
31729W        W 4154  15.871  43.928  14.839
31730W        W 4155  41.961  11.138  14.821
31731W        W 4156  15.566  29.678  11.999
31732W        W 4157  29.614  23.596   4.258
31733W        W 4158  17.366  32.006   2.306
31734W        W 4159  22.011   6.777  14.778
31735W        W 4160   5.818  20.940  11.055
31736W        W 4161  12.021  36.406  14.016
31737W        W 4162  25.699  12.794  13.960
31738W        W 4163   8.857  44.782  13.451
31739W        W 4164  15.582  15.594   2.082
31740W        W 4165   6.836  20.138   4.131
31741W        W 4166  12.394   4.827  12.087
31742W        W 4167  24.978  35.076  10.557
31743W        W 4168  43.185  31.903   2.811
31744W        W 4169  17.412  41.074   1.572
31745W        W 4170  42.245   8.960  10.707
31746W        W 4171   4.672  38.997  13.015
31747W        W 4172  21.560   7.623   1.718
31748W        W 4173  10.961  12.377  13.491
31749W        W 4174  20.152  14.879  12.100
31750W        W 4175  40.126  38.271   0.822
31751W        W 4176   9.960  26.572  12.862
31752W        W 4177  13.197  21.478  14.563
31753W        W 4178  26.549   5.859   0.437
31754W        W 4179  34.145  35.745  12.602
31755W        W 4180  17.487   6.745  11.651
31756W        W 4181  32.644  30.533   4.605
31757W        W 4182  34.933  20.955   3.172
31758W        W 4183  35.785  14.305  14.202
31759W        W 4184  16.167  35.847  12.367
31760W        W 4185  44.279  24.304  12.878
31761W        W 4186  29.401  23.991  11.970
31762W        W 4187   8.648  40.782  12.359
31763W        W 4188  43.711  12.414   0.751
31764W        W 4189  28.187  29.067   0.816
31765W        W 4190   4.538  41.907   1.410
31766W        W 4191  29.943  40.710  14.793
31767W        W 4192  14.298   9.418   0.309
31768W        W 4193  18.559  42.400   4.725
31769W        W 4194  29.876  29.264   1.789
31770W        W 4195  41.346  44.344  11.464
31771W        W 4196  17.464  27.732   4.674
31772W        W 4197  33.315  41.818   4.740
31773W        W 4198   0.386   9.793  11.535
31774W        W 4199  43.765  28.273   2.713
31775W        W 4200  21.245   7.722   2.138
31776W        W 4201  18.860  38.367  13.017
31777W        W 4202  21.100  37.078   3.943
31778W        W 4203  18.820  28.639  13.580
31779W        W 4204  30.059  34.359  14.352
31780W        W 4205  40.267  26.467   0.548
31781W        W 4206  35.346  44.962   1.311
31782W        W 4207   6.824   0.274  13.452
31783W        W 4208  21.589  13.708  12.026
31784W        W 4209  15.394  14.065  14.103
31785W        W 4210  19.749  10.923  13.538
31786W        W 4211  22.963  40.497   3.457
31787W        W 4212  31.659  22.379   0.962
31788W        W 4213  27.515  37.958  11.731
31789W        W 4214  12.924  16.703   2.779
31790W        W 4215   9.409   7.024   2.296
31791W        W 4216  32.033  34.550  10.896
31792W        W 4217  25.545  43.021  13.027
31793W        W 4218  36.501   0.330   3.720
31794W        W 4219  14.334  10.681  13.078
31795W        W 4220  19.054  28.993  11.166
31796W        W 4221  43.526   4.298   1.245
31797W        W 4222  37.279  39.151   0.381
31798W        W 4223  13.141  44.017  14.955
31799W        W 4224  15.437  32.334   2.307
31800W        W 4225  42.080  27.111  11.612
31801W        W 4226  40.162  41.026   2.141
31802W        W 4227   4.734  15.103   0.325
31803W        W 4228  22.110  13.380   3.710
31804W        W 4229   2.591  22.563   4.915
31805W        W 4230  42.629  39.250   5.108
31806W        W 4231  13.011  22.193  14.158
31807W        W 4232  15.349   9.062   4.063
31808W        W 4233   7.325  21.524  14.793
31809W        W 4234   8.589  32.434   1.191
31810W        W 4235  10.622   3.316  12.487
31811W        W 4236  44.792  37.875  11.621
31812W        W 4237  12.087  29.732  14.237
31813W        W 4238  24.105  16.681  11.222
31814W        W 4239  24.185  35.019  12.528
31815W        W 4240  30.418  38.110   2.600
31816W        W 4241  36.506  31.092   2.269
31817W        W 4242   0.762  19.361   2.216
31818W        W 4243  35.715  38.175  11.181
31819W        W 4244   2.932  38.533  14.789
31820W        W 4245   4.967  12.782   1.489
31821W        W 4246  44.452  41.551   3.862
31822W        W 4247  22.499   6.245  14.823
31823W        W 4248  33.046  36.461  13.028
31824W        W 4249  22.749  17.982  11.106
31825W        W 4250  16.080  16.637   2.782
31826W        W 4251  37.518  40.809  14.035
31827W        W 4252  37.774  34.059   0.929
31828W        W 4253  12.767   7.912  14.561
31829W        W 4254  27.515  11.663  11.303
31830W        W 4255  40.021  15.711   1.933
31831W        W 4256  18.095  10.347   3.736
31832W        W 4257  12.248  29.464   3.747
31833W        W 4258   8.494  17.286  11.995
31834W        W 4259  20.105  44.000   3.146
31835W        W 4260   4.124  43.801   0.414
31836W        W 4261  17.767  26.210   3.233
31837W        W 4262  13.328  25.837   0.834
31838W        W 4263  43.916  18.830  14.806
31839W        W 4264  10.101  39.415  12.371
31840W        W 4265  11.210  36.006   0.583
31841W        W 4266  25.971  10.113   4.037
31842W        W 4267  33.564   6.397  13.012
31843W        W 4268  27.466   9.720  11.701
31844W        W 4269  13.659  21.240   3.158
31845W        W 4270  39.766  34.525  10.293
31846W        W 4271  35.518  21.729  14.665
31847W        W 4272  14.640  29.558   4.200
31848W        W 4273  34.326  30.893   1.373
31849W        W 4274  41.748   5.270   2.785
31850W        W 4275  10.090  30.139   2.009
31851W        W 4276   6.203  18.461  10.274
31852W        W 4277  37.299   2.842   0.847
31853W        W 4278  13.633  13.811  11.374
31854W        W 4279  13.144  37.664   3.724
31855W        W 4280  36.095   4.690  10.665
31856W        W 4281   7.858  27.614  14.373
31857W        W 4282  32.845  36.498  10.651
31858W        W 4283  35.487  28.696   2.836
31859W        W 4284  21.182  30.124   4.937
31860W        W 4285  10.808  42.298   3.796
31861W        W 4286  30.021  38.291  13.466
31862W        W 4287  42.345  42.983  12.792
31863W        W 4288  13.636  24.675  11.648
31864W        W 4289  26.213   2.960  11.982
31865W        W 4290  27.721  26.146   4.680
31866W        W 4291  31.476  18.623   0.993
31867W        W 4292   0.033  13.736  12.427
31868W        W 4293  38.365  41.833   1.904
31869W        W 4294  42.108  29.608   4.127
31870W        W 4295   6.346   5.381   4.222
31871W        W 4296  42.945  23.730  11.189
31872W        W 4297  11.153  33.872   0.839
31873W        W 4298  34.409  39.569   0.487
31874W        W 4299  26.217   1.867  14.257
31875W        W 4300   2.530   5.906   0.494
31876W        W 4301  18.500  23.432  11.107
31877W        W 4302  26.547  21.801  14.330
31878W        W 4303  15.179  41.008  13.359
31879W        W 4304  39.091  32.148  12.303
31880W        W 4305   5.709  37.088  14.015
31881W        W 4306  28.557  28.032   3.283
31882W        W 4307  32.004  26.772  13.185
31883W        W 4308  22.053  31.007   2.714
31884W        W 4309  38.043   4.295  11.028
31885W        W 4310  14.624   6.197  10.923
31886W        W 4311  24.005  40.617  12.699
31887W        W 4312   3.431   2.574   4.529
31888W        W 4313  16.180  16.522  11.892
31889W        W 4314  15.255  18.609  12.690
31890W        W 4315   7.628  25.561  10.346
31891W        W 4316  11.352  31.638   1.842
31892W        W 4317   0.684  10.555  11.532
31893W        W 4318  12.564   6.910   3.663
31894W        W 4319  28.273  36.341  13.788
31895W        W 4320  13.217  16.878  12.988
31896W        W 4321  14.124  29.165   0.391
31897W        W 4322  33.534   3.290  10.639
31898W        W 4323   0.298  28.717  14.537
31899W        W 4324  19.205  37.113   2.315
31900W        W 4325  38.829  12.378   3.174
31901W        W 4326  38.967  38.103   4.131
31902W        W 4327  21.742  17.526   2.005
31903W        W 4328  36.732  40.263   2.407
31904W        W 4329  18.639  33.866  10.649
31905W        W 4330  21.401  42.584  13.391
31906W        W 4331  25.066  41.634   1.156
31907W        W 4332  19.073  43.051   4.194
31908W        W 4333   7.526  22.289  12.928
31909W        W 4334  37.306   9.637   1.383
31910W        W 4335  14.443  24.048   0.457
31911W        W 4336  39.411  11.157   3.130
31912W        W 4337  36.566  42.808   1.737
31913W        W 4338  18.197  41.153   4.070
31914W        W 4339  44.952  23.568   0.512
31915W        W 4340  42.439  10.298  11.881
31916W        W 4341  13.183  44.310   4.632
31917W        W 4342  22.650  12.690  13.029
31918W        W 4343  26.165  24.235   0.458
31919W        W 4344  44.815  31.664   0.188
31920W        W 4345   0.798   7.644   0.491
31921W        W 4346  30.484   9.126  12.487
31922W        W 4347  36.602  37.631   2.272
31923W        W 4348  29.842   5.393   0.831
31924W        W 4349  15.724  30.165  13.829
31925W        W 4350   6.970  17.681  13.033
31926W        W 4351  29.228  21.021   2.259
31927W        W 4352  24.293   5.850   0.903
31928W        W 4353  28.086  33.054  10.560
31929W        W 4354  32.554  26.087   1.387
31930W        W 4355  35.286  42.879  14.777
31931W        W 4356  37.084  11.732  10.951
31932W        W 4357   8.320  39.423   2.698
31933W        W 4358   5.505  44.817   0.775
31934W        W 4359  44.766   3.825  13.412
31935W        W 4360  24.620   6.591  13.378
31936W        W 4361  27.437  21.672  10.689
31937W        W 4362  30.391  22.104   0.346
31938W        W 4363  30.006   5.845  10.416
31939W        W 4364  18.119   4.908  11.959
31940W        W 4365  14.310  44.603   0.396
31941W        W 4366  25.283  19.205   2.742
31942W        W 4367  16.433  39.411   4.776
31943W        W 4368  24.618  41.439  14.858
31944W        W 4369  14.471  33.662  14.056
31945W        W 4370  11.266  26.986   1.709
31946W        W 4371  19.427  41.235   0.516
31947W        W 4372   2.670  35.790   0.793
31948W        W 4373  41.551  26.987   0.982
31949W        W 4374  33.952   2.221   3.651
31950W        W 4375  42.271  21.542   3.831
31951W        W 4376  19.157   1.453   0.046
31952W        W 4377  16.332  16.634  12.826
31953W        W 4378  23.275  12.509  14.143
31954W        W 4379  37.354  10.095   1.835
31955W        W 4380  32.289  19.600  11.448
31956W        W 4381  26.824  22.632  13.811
31957W        W 4382   5.259  22.072   4.252
31958W        W 4383  29.392  12.719  12.942
31959W        W 4384  32.069  38.875   1.838
31960W        W 4385  19.768   7.185   2.754
31961W        W 4386  42.156  29.992   3.783
31962W        W 4387  25.005   3.354  10.695
31963W        W 4388  43.041  25.583   4.189
31964W        W 4389  28.394  37.812   4.163
31965W        W 4390   5.889  12.989   4.253
31966W        W 4391  42.557   7.441  10.661
31967W        W 4392  33.689  28.590   1.838
31968W        W 4393  17.109  42.953  10.331
31969W        W 4394  40.752   9.673  10.748
31970W        W 4395  21.138  43.405   0.764
31971W        W 4396  26.110  31.211   4.641
31972W        W 4397   8.210  34.852   3.067
31973W        W 4398   2.272   1.748   2.893
31974W        W 4399   3.967  20.571  11.644
31975W        W 4400  23.447  19.549   2.796
31976W        W 4401  28.331  14.524  13.025
31977W        W 4402   4.017  33.117  13.039
31978W        W 4403  39.145  15.102  11.095
31979W        W 4404   9.216  21.782  13.935
31980W        W 4405  32.186   3.885  10.627
31981W        W 4406  44.370  41.742  10.689
31982W        W 4407  22.768   3.267   1.735
31983W        W 4408  37.911  16.816  11.232
31984W        W 4409  29.127   3.906   3.636
31985W        W 4410  10.817   9.787   4.685
31986W        W 4411   5.878  17.568  12.862
31987W        W 4412  43.985   9.790  10.935
31988W        W 4413   7.021  34.473  10.712
31989W        W 4414  19.488   2.552  12.002
31990W        W 4415  15.258  34.317  13.501
31991W        W 4416   9.265  33.710  10.776
31992W        W 4417  27.612  31.741  12.469
31993W        W 4418   9.964   4.745   3.305
31994W        W 4419   3.856  17.196   4.497
31995W        W 4420  18.022   4.833   0.379
31996W        W 4421  33.774  34.418   4.134
31997W        W 4422  24.898  15.668   0.853
31998W        W 4423  20.603   0.319  14.891
31999W        W 4424  31.021  40.861   3.859
32000W        W 4425   4.877  31.949  10.720
32001W        W 4426   3.532   6.214   4.855
32002W        W 4427  34.423  26.767   1.457
32003W        W 4428  33.481  31.866   2.340
32004W        W 4429  12.141  14.658   1.958
32005W        W 4430  39.508  15.721  12.484
32006W        W 4431  28.971  30.497  11.656
32007W        W 4432   9.731  24.211   1.964
32008W        W 4433   6.233  28.023  12.117
32009W        W 4434   6.861  39.875   4.250
32010W        W 4435  38.919   3.698  14.044
32011W        W 4436  20.496  40.298   3.258
32012W        W 4437  43.734   6.193   0.869
32013W        W 4438   8.436  37.531  11.149
32014W        W 4439  19.099  31.527   3.750
32015W        W 4440  26.000  27.534   3.870
32016W        W 4441  20.121  38.750   4.105
32017W        W 4442   6.808  26.009  13.100
32018W        W 4443  42.538  30.152   2.861
32019W        W 4444   1.862  22.562   2.528
32020W        W 4445  36.481  40.389   0.887
32021W        W 4446  24.911   2.845  14.038
32022W        W 4447   6.679   7.875  11.571
32023W        W 4448  10.755  15.737  11.148
32024W        W 4449  30.529   1.294  12.095
32025W        W 4450  36.927  11.993  14.345
32026W        W 4451  29.480  42.308  11.944
32027W        W 4452  32.663  36.666   4.657
32028W        W 4453  37.392  20.563  11.002
32029W        W 4454  24.971  10.894  14.469
32030W        W 4455  28.078  36.393  14.695
32031W        W 4456  13.796  22.409  10.052
32032W        W 4457  33.280  24.689   0.412
32033W        W 4458  32.576  33.476  10.895
32034W        W 4459  19.192  20.117  13.929
32035W        W 4460  20.840  32.169  13.019
32036W        W 4461   0.620  32.699   3.312
32037W        W 4462  22.870   5.126   2.253
32038W        W 4463   0.214   9.858  12.897
32039W        W 4464  42.469  40.909   4.968
32040W        W 4465   9.881  28.439  13.946
32041W        W 4466   3.571  42.914  10.354
32042W        W 4467  25.980  23.065  10.487
32043W        W 4468  44.637  30.670   4.935
32044W        W 4469  22.772  16.690   2.878
32045W        W 4470   1.178  38.954  11.998
32046W        W 4471  29.095  28.930  10.655
32047W        W 4472  11.722  30.982  14.353
32048W        W 4473   9.637   7.720  14.597
32049W        W 4474   6.200  23.062  14.503
32050W        W 4475  38.849  40.780   0.376
32051W        W 4476  39.581  15.791  11.653
32052W        W 4477  25.432   8.563  12.047
32053W        W 4478  44.319   6.325   0.203
32054W        W 4479  34.373   9.112  13.259
32055W        W 4480   6.781  33.722   1.348
32056W        W 4481  35.418  38.083   2.320
32057W        W 4482  36.936  40.641  14.623
32058W        W 4483  40.354   7.766   4.992
32059W        W 4484  38.663  15.993   2.852
32060W        W 4485  39.668   4.978   0.101
32061W        W 4486  25.746  25.002   0.444
32062W        W 4487   6.361  30.305   2.684
32063W        W 4488  18.559  23.481  13.058
32064W        W 4489  44.279  24.040   0.270
32065W        W 4490  32.495  43.469   4.605
32066W        W 4491  40.086  42.705  11.131
32067W        W 4492  20.168  36.916   4.681
32068W        W 4493  18.096  12.642  13.552
32069W        W 4494  21.285  31.747  11.827
32070W        W 4495  36.201  40.552  14.910
32071W        W 4496  18.819  26.319  11.545
32072W        W 4497  24.212  16.374  13.027
32073W        W 4498   9.914  12.072  11.057
32074W        W 4499  12.856  26.898  12.170
32075W        W 4500  38.187  18.717  11.126
32076W        W 4501   3.274  30.044  14.288
32077W        W 4502  17.222  28.673  10.674
32078W        W 4503   5.183  10.874   4.537
32079W        W 4504  24.866   5.908  11.634
32080W        W 4505   5.441   5.346   2.756
32081W        W 4506   4.333  35.160  14.368
32082W        W 4507  24.198   4.617  10.752
32083W        W 4508  26.483  32.093   9.863
32084W        W 4509  20.677  31.511  12.496
32085W        W 4510  28.701   5.690   1.328
32086W        W 4511  21.776   6.007   1.844
32087W        W 4512  27.525  24.593   1.179
32088W        W 4513  20.659   8.050   0.920
32089W        W 4514   7.163  32.083  10.343
32090W        W 4515   9.672  24.600   0.149
32091W        W 4516  14.122   6.914  11.520
32092W        W 4517  16.067  13.001  13.106
32093W        W 4518  18.310  17.406   1.291
32094W        W 4519  11.248  20.614   4.545
32095W        W 4520  26.406  19.762   0.443
32096W        W 4521  40.596  39.397   3.685
32097W        W 4522  13.603  38.266   2.933
32098W        W 4523  41.845  32.652  11.035
32099W        W 4524  21.471  23.011  11.447
32100W        W 4525  23.311  10.273   0.198
32101W        W 4526  27.575  32.245  12.368
32102W        W 4527  22.682  31.824   2.705
32103W        W 4528  28.082  21.471   4.079
32104W        W 4529   6.888  38.781   4.804
32105W        W 4530  37.857  12.213   2.179
32106W        W 4531  38.619   2.554   3.732
32107W        W 4532  13.201  43.509   0.013
32108W        W 4533  10.787   8.160   4.725
32109W        W 4534   5.920  30.342   1.312
32110W        W 4535  44.056  16.158  11.071
32111W        W 4536   1.160  38.677   0.246
32112W        W 4537  16.314  11.772  11.892
32113W        W 4538  38.858  41.921  13.663
32114W        W 4539  12.621  18.321  11.113
32115W        W 4540  15.643  21.587  10.339
32116W        W 4541  42.251  42.316  11.197
32117W        W 4542  21.166  42.101   1.358
32118W        W 4543  16.309  42.869   4.201
32119W        W 4544  23.144   2.389   1.930
32120W        W 4545   8.435  23.039   3.645
32121W        W 4546   7.945  16.762  10.794
32122W        W 4547  32.380  10.269   2.586
32123W        W 4548  41.521   5.893  12.127
32124W        W 4549  28.324  32.497  13.854
32125W        W 4550  38.272  31.070  13.000
32126W        W 4551  22.040  33.362   4.186
32127W        W 4552  31.080  40.590   4.642
32128W        W 4553  15.588  37.776   0.830
32129W        W 4554  17.233  35.897   3.342
32130W        W 4555   1.900  21.192   2.622
32131W        W 4556  33.574  10.251   2.304
32132W        W 4557   4.257  34.734  14.017
32133W        W 4558  36.462  44.345  12.374
32134W        W 4559  34.064  21.962  14.292
32135W        W 4560  37.276  20.731  12.621
32136W        W 4561  13.524  22.759   3.621
32137W        W 4562  19.576  44.734  10.486
32138W        W 4563   7.991   1.267  14.545
32139W        W 4564  39.432   3.377   4.678
32140W        W 4565   4.698  12.701   4.671
32141W        W 4566  10.213   1.307   0.545
32142W        W 4567   3.572  18.295  13.705
32143W        W 4568  21.986  40.106  11.150
32144W        W 4569   7.835  44.897   1.753
32145W        W 4570  43.403  14.824  14.845
32146W        W 4571  33.197  43.791  10.911
32147W        W 4572  16.719  43.196   3.243
32148W        W 4573   5.305  39.471   4.340
32149W        W 4574   8.332  34.581  11.006
32150W        W 4575   2.194   9.305   4.230
32151W        W 4576  18.098   3.277  14.361
32152W        W 4577  35.506  10.135  13.470
32153W        W 4578  35.055  14.170   0.926
32154W        W 4579  39.345   6.908  13.535
32155W        W 4580  21.794   5.761   1.348
32156W        W 4581  25.678  42.067   1.259
32157W        W 4582  22.440  11.617  13.039
32158W        W 4583   9.590   6.624  13.497
32159W        W 4584  14.786  15.626   1.692
32160W        W 4585  33.449  20.276   0.470
32161W        W 4586  14.441  33.629   1.418
32162W        W 4587  12.770  21.879  12.420
32163W        W 4588  17.248   0.490  13.293
32164W        W 4589   6.786  23.555   3.702
32165W        W 4590  19.219  32.806  12.863
32166W        W 4591  16.380  30.150   1.700
32167W        W 4592  28.098  30.784  14.257
32168W        W 4593  27.853   0.286  13.751
32169W        W 4594  38.834  27.330   4.053
32170W        W 4595  23.738  13.285  12.416
32171W        W 4596   8.589  33.698  11.933
32172W        W 4597  35.958  18.991   3.888
32173W        W 4598  18.200  26.463   3.689
32174W        W 4599  23.177  29.106   2.653
32175W        W 4600  37.250  17.051   1.398
32176W        W 4601   5.690  42.106  12.729
32177W        W 4602  21.701  44.249   0.832
32178W        W 4603  43.904  14.757   4.238
32179W        W 4604  22.526  25.639   4.161
32180W        W 4605  43.044  38.325  11.196
32181W        W 4606  38.636   3.346  11.595
32182W        W 4607   2.752   4.882   2.738
32183W        W 4608  21.457  44.557   3.301
32184W        W 4609  44.023  16.310  14.250
32185W        W 4610  23.519   6.711   3.577
32186W        W 4611  20.735  29.652  14.753
32187W        W 4612  38.565  19.279   0.326
32188W        W 4613  25.112   5.147  12.261
32189W        W 4614  25.175   8.956   2.285
32190W        W 4615  33.983  43.747   3.761
32191W        W 4616  32.346   8.057   1.494
32192W        W 4617  25.735  33.415  14.544
32193W        W 4618   7.389   0.678   1.340
32194W        W 4619   7.548  41.428   0.567
32195W        W 4620   3.352  18.549   1.117
32196W        W 4621  23.990  14.257  14.921
32197W        W 4622  12.883   2.206  10.728
32198W        W 4623  43.934  17.554   4.323
32199W        W 4624  41.314  19.720  14.501
32200W        W 4625  26.612  31.172   0.236
32201W        W 4626  42.111   0.804  13.397
32202W        W 4627  39.258  43.872  11.803
32203W        W 4628  16.133  31.509   2.488
32204W        W 4629   1.817  26.581  14.479
32205W        W 4630  14.826   5.895   4.690
32206W        W 4631  25.212  28.718   3.639
32207W        W 4632  29.540  39.540  12.196
32208W        W 4633  24.011  38.828   2.919
32209W        W 4634  11.741   0.805   4.052
32210W        W 4635  22.910  34.902  11.963
32211W        W 4636  34.062   9.730   2.095
32212W        W 4637  27.215   0.397   0.379
32213W        W 4638  10.299   0.944   3.293
32214W        W 4639  26.276   1.408   1.449
32215W        W 4640  25.505  25.906  12.932
32216W        W 4641  27.577  22.242  11.836
32217W        W 4642   8.282  28.018   1.060
32218W        W 4643  24.188  19.019  13.748
32219W        W 4644  28.480  39.481  13.808
32220W        W 4645  42.793   7.591   4.554
32221W        W 4646  39.849  38.903   1.884
32222W        W 4647  28.525  36.542   4.904
32223W        W 4648  25.382  24.018   1.135
32224W        W 4649   5.863  26.254  13.831
32225W        W 4650   5.414  21.182   2.464
32226W        W 4651  16.343  22.291   0.781
32227W        W 4652   3.330  27.229   3.239
32228W        W 4653  13.290   2.918   0.292
32229W        W 4654  26.931   8.130   1.691
32230W        W 4655  39.746  16.271   1.481
32231W        W 4656  27.566  37.381  13.403
32232W        W 4657   1.254  17.639   0.372
32233W        W 4658  10.041  28.418   2.586
32234W        W 4659  44.300  25.944  11.752
32235W        W 4660  34.083  14.519   3.612
32236W        W 4661  33.401  23.214  14.391
32237W        W 4662  19.567  33.343   4.132
32238W        W 4663  41.818  36.981  10.805
32239W        W 4664   6.974  30.160  11.613
32240W        W 4665  39.868   0.554   1.817
32241W        W 4666  14.025  30.937   1.646
32242W        W 4667  17.633  23.052  10.695
32243W        W 4668   1.234  27.570  12.740
32244W        W 4669  34.388  43.739  10.978
32245W        W 4670  11.760  24.265  11.411
32246W        W 4671  38.788  43.479   0.745
32247W        W 4672  14.938   0.317  11.173
32248W        W 4673  24.710  19.664  12.303
32249W        W 4674  18.607   5.802   2.947
32250W        W 4675  26.089   5.264   1.347
32251W        W 4676  30.023  26.575  10.462
32252W        W 4677  12.345  29.102   0.755
32253W        W 4678   6.830  42.560   3.226
32254W        W 4679  12.703  29.696   2.524
32255W        W 4680   1.262  36.116  13.466
32256W        W 4681  37.047  27.129   1.366
32257W        W 4682  14.259  13.732   4.539
32258W        W 4683  18.322  30.611   5.101
32259W        W 4684  36.825   1.833  10.910
32260W        W 4685  32.856  19.294   1.706
32261W        W 4686  16.832  33.975   4.525
32262W        W 4687  34.545  37.589  13.069
32263W        W 4688  11.779  11.129  12.589
32264W        W 4689  11.875  18.669  11.550
32265W        W 4690  39.430  26.722   4.820
32266W        W 4691  10.208  23.827   0.324
32267W        W 4692  23.595   3.954  13.014
32268W        W 4693  40.306  39.820   5.085
32269W        W 4694   2.710  28.506  12.886
32270W        W 4695  40.248   1.458  11.085
32271W        W 4696  18.646  28.210   1.834
32272W        W 4697  10.333  38.911  12.916
32273W        W 4698   9.961  16.298   1.427
32274W        W 4699   6.231  21.020   0.267
32275W        W 4700  41.513  25.377   4.183
32276W        W 4701  21.607  33.805  12.916
32277W        W 4702  28.124  23.401   3.920
32278W        W 4703   9.634  33.251   4.469
32279W        W 4704  37.279   4.169   3.865
32280W        W 4705  15.176  21.002   1.437
32281W        W 4706   3.940  37.091  11.920
32282W        W 4707   8.196   6.743   1.701
32283W        W 4708  37.322   6.519  10.976
32284W        W 4709   2.410  28.869   2.828
32285W        W 4710  36.971  30.985  10.609
32286W        W 4711  23.802  11.681  11.512
32287W        W 4712   1.076  14.354  12.050
32288W        W 4713  43.745  16.658   0.678
32289W        W 4714  19.074  10.842   1.413
32290W        W 4715  23.670  36.367  11.639
32291W        W 4716   3.916   2.536   2.873
32292W        W 4717  12.303  24.698   3.832
32293W        W 4718  20.241  13.318  12.728
32294W        W 4719  40.408  13.409   0.948
32295W        W 4720   8.817  44.249   0.852
32296W        W 4721  21.460  40.087  12.554
32297W        W 4722  35.109   4.279  12.356
32298W        W 4723  25.610  44.674  12.522
32299W        W 4724  22.499   6.646   3.615
32300W        W 4725  44.381  27.141   4.553
32301W        W 4726  31.000  41.198  10.286
32302W        W 4727   9.863  31.154  14.831
32303W        W 4728  13.614   1.443  12.986
32304W        W 4729   8.245  16.370  12.001
32305W        W 4730  28.055  30.118  10.803
32306W        W 4731  18.741  44.884   4.322
32307W        W 4732  11.396  19.354  12.743
32308W        W 4733   6.355   4.652   1.287
32309W        W 4734  25.047  26.053  11.543
32310W        W 4735   9.621  22.174   2.156
32311W        W 4736   8.848  38.403  10.705
32312W        W 4737  33.038  30.436   1.243
32313W        W 4738  19.775   3.658   2.618
32314W        W 4739  11.316  39.029  10.802
32315W        W 4740  12.207  33.189  14.299
32316W        W 4741  24.528  14.608  12.879
32317W        W 4742  10.271  38.497  12.091
32318W        W 4743  10.785   2.695   0.183
32319W        W 4744  27.209  40.823  14.470
32320W        W 4745   2.752  19.209   3.713
32321W        W 4746  22.352   7.993   4.121
32322W        W 4747  37.970  30.035   4.664
32323W        W 4748   7.691   2.711   1.881
32324W        W 4749  40.461  27.332   1.778
32325W        W 4750  23.284  11.823  10.080
32326W        W 4751  34.612   7.831  14.376
32327W        W 4752  16.809  14.246   4.597
32328W        W 4753  34.543   1.745   0.046
32329W        W 4754  23.213  39.452   2.887
32330W        W 4755  29.430  15.354   3.992
32331W        W 4756  25.265  14.557  14.960
32332W        W 4757   6.271  33.539   1.302
32333W        W 4758   2.031  32.860   2.457
32334W        W 4759   8.821  20.057   2.699
32335W        W 4760   9.315  34.811   2.767
32336W        W 4761   0.245  11.121  13.883
32337W        W 4762   3.651  30.520  14.948
32338W        W 4763  24.659  13.149  10.944
32339W        W 4764   4.380  15.625   4.122
32340W        W 4765  11.117   6.455  13.910
32341W        W 4766   7.956  44.969  12.498
32342W        W 4767   8.070  11.145  14.682
32343W        W 4768  26.234  39.075   2.271
32344W        W 4769  19.314  19.204  12.414
32345W        W 4770  28.448  39.343   4.567
32346W        W 4771  16.123  40.423  14.941
32347W        W 4772  40.903  42.329   5.847
32348W        W 4773  35.133  42.456   0.073
32349W        W 4774  36.534  14.547  11.947
32350W        W 4775  39.048  42.293   2.384
32351W        W 4776  10.113   5.241  10.538
32352W        W 4777   0.051  12.225  14.958
32353W        W 4778  26.535  13.513   4.928
32354W        W 4779  22.261  18.637  10.719
32355W        W 4780   0.752   9.914  10.943
32356W        W 4781  14.341  27.721  11.481
32357W        W 4782  21.614  30.522  10.266
32358W        W 4783  13.629  24.725   1.599
32359W        W 4784   7.356  17.150   1.387
32360W        W 4785   5.959  25.106  12.013
32361W        W 4786  28.466  36.703  14.804
32362W        W 4787   0.895   3.761  10.614
32363W        W 4788  29.479  24.719   1.830
32364W        W 4789  11.743   9.778  12.006
32365W        W 4790  15.311  11.286  12.196
32366W        W 4791   7.671  19.736  13.078
32367W        W 4792  39.188   0.407   3.300
32368W        W 4793  34.062  25.775   3.707
32369W        W 4794  20.609  39.932   3.627
32370W        W 4795   1.853   9.415  12.038
32371W        W 4796  44.688  21.162  10.888
32372W        W 4797  10.278  18.251  12.991
32373W        W 4798  44.311  21.446  11.495
32374W        W 4799  13.764   0.347   4.258
32375W        W 4800  10.791   9.713  13.012
32376W        W 4801   7.542  38.726  10.687
32377W        W 4802   0.210  19.670   2.221
32378W        W 4803  40.404  32.637  14.916
32379W        W 4804  40.557  43.838  14.228
32380W        W 4805  40.015  34.853   2.246
32381W        W 4806   3.011  11.480   1.462
32382W        W 4807  29.233  15.716   2.742
32383W        W 4808  24.527  37.777  13.813
32384W        W 4809  34.589  16.890  14.596
32385W        W 4810  44.302  21.014   1.658
32386W        W 4811  26.104   5.927   2.514
32387W        W 4812  30.453  34.994   3.728
32388W        W 4813  26.563   9.868   4.824
32389W        W 4814  23.957  19.752   0.222
32390W        W 4815  30.483  35.968   4.634
32391W        W 4816  37.355  43.543  10.702
32392W        W 4817  24.331  44.922   3.722
32393W        W 4818  37.284  28.018   2.604
32394W        W 4819  40.329  20.999  13.189
32395W        W 4820  10.902   1.741  14.547
32396W        W 4821  14.193   6.526   3.534
32397W        W 4822   7.182  34.090  11.024
32398W        W 4823  18.552  34.564   2.815
32399W        W 4824  21.480  18.814   0.513
32400W        W 4825  31.499  43.424  10.439
32401W        W 4826   0.835  41.446   1.690
32402W        W 4827  27.595  18.296   3.882
32403W        W 4828   0.336  41.279   1.438
32404W        W 4829  29.400   3.526   0.919
32405W        W 4830  32.346  30.555  10.668
32406W        W 4831   9.440  19.727   4.374
32407W        W 4832  24.534   7.109  12.559
32408W        W 4833  32.660   0.925   0.417
32409W        W 4834  36.970  41.076   1.853
32410W        W 4835   3.695   9.161  10.603
32411W        W 4836   5.340  19.012   4.566
32412W        W 4837  24.050  29.890  13.407
32413W        W 4838  40.531  11.881   0.788
32414W        W 4839  39.517   9.411  10.712
32415W        W 4840  17.448  24.268   4.115
32416W        W 4841  21.654  42.763   2.846
32417W        W 4842  30.840  40.432   3.656
32418W        W 4843   5.043  34.357   0.697
32419W        W 4844  17.473  37.454  12.566
32420W        W 4845  35.988   5.426   0.442
32421W        W 4846  35.074   8.936   2.373
32422W        W 4847  16.637  15.521   0.871
32423W        W 4848  15.135  20.513  14.934
32424W        W 4849   5.485  23.221   3.738
32425W        W 4850   0.064  27.748   3.217
32426W        W 4851  20.515  38.046   3.426
32427W        W 4852  39.064  33.671  13.936
32428W        W 4853  14.808  22.449   3.293
32429W        W 4854   7.094  14.648   3.756
32430W        W 4855  23.178  40.512  12.814
32431W        W 4856  41.269  32.473  13.790
32432W        W 4857   2.674  37.629   4.130
32433W        W 4858  20.370  36.884   2.588
32434W        W 4859  16.770  16.312   1.330
32435W        W 4860  29.393  34.102  11.046
32436W        W 4861  16.778   3.130  13.923
32437W        W 4862  10.076  27.732   3.087
32438W        W 4863  27.491   5.424  12.362
32439W        W 4864  13.121  32.932  12.095
32440W        W 4865  27.688  21.139   1.659
32441W        W 4866   9.938  19.654  13.641
32442W        W 4867   8.205  40.275   1.460
32443W        W 4868  37.793  12.673  13.057
32444W        W 4869  38.029   2.299  10.416
32445W        W 4870  12.321  26.557   0.936
32446W        W 4871  39.972   6.233  13.077
32447W        W 4872  23.111   2.645   1.478
32448W        W 4873   6.441   5.242   2.811
32449W        W 4874   0.448  31.893   1.224
32450W        W 4875  23.454  28.122   2.818
32451W        W 4876   0.793  24.743   4.057
32452W        W 4877   8.400   6.949  12.433
32453W        W 4878  40.117  39.363   2.791
32454W        W 4879  27.572  31.012   1.693
32455W        W 4880  27.196   7.100   0.320
32456W        W 4881   3.957  37.083  10.597
32457W        W 4882   9.448  38.868  12.540
32458W        W 4883  17.734  19.145  10.935
32459W        W 4884   1.978  36.039   1.301
32460W        W 4885  36.158  31.407  13.035
32461W        W 4886  38.555  12.345  12.635
32462W        W 4887  19.111  10.905   0.150
32463W        W 4888  33.316  29.077   9.867
32464W        W 4889  27.232  44.028  14.310
32465W        W 4890  31.882  22.555   0.284
32466W        W 4891  30.046  15.146   1.743
32467W        W 4892  20.023  21.713   4.825
32468W        W 4893  17.323  27.636  14.339
32469W        W 4894   9.867  36.455  11.506
32470W        W 4895  42.472  12.364   1.888
32471W        W 4896  27.527  31.237   2.648
32472W        W 4897   4.818  44.800  13.037
32473W        W 4898   7.311  43.949  13.949
32474W        W 4899  15.839   7.243   0.421
32475W        W 4900   9.976  11.184   1.437
32476W        W 4901   4.613   3.069  10.219
32477W        W 4902  26.997  40.239   3.634
32478W        W 4903  44.943  42.335   2.142
32479W        W 4904  41.476  36.465   0.709
32480W        W 4905  11.270  34.948  12.362
32481W        W 4906  10.925  19.677   0.723
32482W        W 4907  28.614  15.843   4.720
32483W        W 4908  19.854  39.006   4.872
32484W        W 4909  37.391  41.616  13.245
32485W        W 4910  18.111  31.674   4.128
32486W        W 4911  11.811  42.771   2.875
32487W        W 4912   3.169  26.204   2.301
32488W        W 4913  36.080   3.361   0.340
32489W        W 4914  41.552  32.187   1.911
32490W        W 4915  23.095  36.042  13.475
32491W        W 4916   5.139   0.764  13.007
32492W        W 4917  43.167  25.685   2.121
32493W        W 4918  38.347  37.036   3.860
32494W        W 4919  44.544  20.686  14.862
32495W        W 4920  33.399   2.485   4.753
32496W        W 4921  22.340   7.376   4.174
32497W        W 4922   2.755  20.782  13.513
32498W        W 4923  38.918  20.943  14.752
32499W        W 4924  30.857  38.395  11.058
32500W        W 4925  43.744  17.642   2.262
32501W        W 4926   3.889   7.873  11.259
32502W        W 4927   1.370  33.093   2.809
32503W        W 4928  40.485  11.061  14.677
32504W        W 4929  32.912  35.859   5.023
32505W        W 4930  43.803  37.630   2.869
32506W        W 4931  40.505  32.389  13.554
32507W        W 4932  13.904  16.212  13.920
32508W        W 4933   4.638   9.026  12.944
32509W        W 4934   2.909  35.494   3.765
32510W        W 4935  24.260  30.064  14.735
32511W        W 4936  22.039  40.077   3.828
32512W        W 4937   2.659   7.192  12.453
32513W        W 4938  14.596  26.758   0.925
32514W        W 4939   1.867  23.886  13.909
32515W        W 4940   1.398   4.348  11.566
32516W        W 4941   6.995  29.034  10.648
32517W        W 4942   5.297  40.899   3.159
32518W        W 4943  37.049  12.366   2.881
32519W        W 4944  19.238  33.593   4.965
32520W        W 4945  19.070  44.809  12.108
32521W        W 4946  18.980  21.302  13.452
32522W        W 4947  37.379   8.886   3.129
32523W        W 4948  30.852  24.169   1.434
32524W        W 4949  26.643  29.566   2.888
32525W        W 4950   8.792  32.384   3.709
32526W        W 4951  42.874  27.567  14.504
32527W        W 4952   1.528  29.028  11.594
32528W        W 4953  10.209  21.074  12.420
32529W        W 4954  29.838   8.635  13.502
32530W        W 4955  34.609  18.645  12.114
32531W        W 4956  28.030  36.150   4.218
32532W        W 4957  10.297  25.995   0.853
32533W        W 4958   8.053  26.960  13.987
32534W        W 4959  43.413  43.565   4.564
32535W        W 4960  33.481   4.178  12.465
32536W        W 4961  27.128  33.689  10.178
32537W        W 4962  34.667  23.964   4.599
32538W        W 4963  20.709  39.423  11.073
32539W        W 4964  28.158  16.589   4.425
32540W        W 4965   1.454  27.463  12.251
32541W        W 4966  37.377  16.380  11.652
32542W        W 4967  44.886   0.695  11.143
32543W        W 4968  11.342  44.064   2.782
32544W        W 4969  20.250  28.330  13.630
32545W        W 4970   0.428  35.972  13.083
32546W        W 4971   8.882  32.989   2.243
32547W        W 4972  25.339  10.755   5.121
32548W        W 4973  19.047   5.461  12.443
32549W        W 4974  25.733  20.668  14.011
32550W        W 4975  23.524   6.419  14.817
32551W        W 4976  16.190  29.640   1.723
32552W        W 4977  14.061  24.163  12.131
32553W        W 4978  18.595   4.807  13.450
32554W        W 4979  34.355  42.264  11.871
32555W        W 4980   0.424  33.147   1.809
32556W        W 4981   0.028  23.473  14.982
32557W        W 4982  33.958  27.267  11.660
32558W        W 4983  25.493  31.361   4.695
32559W        W 4984  36.053  20.576   2.791
32560W        W 4985  11.599  30.691   4.594
32561W        W 4986   1.643  16.235   0.187
32562W        W 4987  26.323  11.120  13.393
32563W        W 4988  28.842   9.145  14.829
32564W        W 4989  24.199  41.559   0.397
32565W        W 4990  40.406  15.119  11.625
32566W        W 4991  28.771  25.083  12.918
32567W        W 4992   0.612  30.440  13.851
32568W        W 4993  13.740   8.362  11.585
32569W        W 4994  44.177  28.412   1.827
32570W        W 4995   3.608   7.884   0.933
32571W        W 4996  17.866  34.019  13.416
32572W        W 4997  26.994  24.610  11.252
32573W        W 4998  17.648   4.155  13.100
32574W        W 4999   1.654   5.331  14.382
32575W        W 5000   1.241  22.218  14.518
32576W        W 5001  33.006  24.616   4.786
32577W        W 5002  30.473  37.092  14.821
32578W        W 5003  19.964   8.577  13.554
32579W        W 5004  29.060  11.862  12.570
32580W        W 5005   9.063  27.921   3.216
32581W        W 5006  25.624  37.836   1.494
32582W        W 5007  39.317  39.867   0.811
32583W        W 5008   2.703  42.323  12.857
32584W        W 5009  32.363  17.825   2.118
32585W        W 5010  21.253  23.022  12.980
32586W        W 5011  34.647   0.479  12.417
32587W        W 5012  11.407   7.497   4.930
32588W        W 5013  20.833  17.827   1.054
32589W        W 5014  35.401  31.752  12.481
32590W        W 5015   3.862   7.394   3.214
32591W        W 5016   1.245   4.765   0.543
32592W        W 5017   8.588   1.028   3.736
32593W        W 5018  32.892   2.191  14.404
32594W        W 5019  31.525   2.693   4.825
32595W        W 5020  39.814   5.370   2.174
32596W        W 5021   2.847   7.906  10.814
32597W        W 5022  27.484   9.857   0.455
32598W        W 5023  35.478  28.929   2.367
32599W        W 5024  17.287  23.092   1.064
32600W        W 5025  41.850  32.435   3.229
32601W        W 5026  36.519  23.726  12.883
32602W        W 5027  30.907  33.371  12.136
32603W        W 5028  39.938  33.335  14.504
32604W        W 5029  35.553   5.744  14.047
32605W        W 5030  33.533  27.686   4.434
32606W        W 5031   7.225  32.398  13.003
32607W        W 5032   3.325  16.032  11.080
32608W        W 5033  16.007  20.882  14.076
32609W        W 5034   9.834  11.495  13.591
32610W        W 5035  16.254   9.587  13.031
32611W        W 5036  40.501  34.424   1.898
32612W        W 5037  30.098  22.891  11.208
32613W        W 5038  35.111   7.287  11.921
32614W        W 5039  29.911  32.638  13.860
32615W        W 5040  25.529  39.924   1.868
32616W        W 5041  23.487  36.121   2.769
32617W        W 5042  31.955  23.067   4.748
32618W        W 5043  15.053  34.115  11.382
32619W        W 5044  24.658  44.954   2.729
32620W        W 5045  26.955   9.775  12.382
32621W        W 5046  14.675   2.372  12.579
32622W        W 5047   6.373  33.984   2.373
32623W        W 5048  34.721  28.638   4.688
32624W        W 5049  32.856  41.503  12.336
32625W        W 5050  10.898  41.961   1.909
32626W        W 5051  35.473  20.624  13.836
32627W        W 5052   0.933  20.570   0.494
32628W        W 5053  28.004  24.217   3.427
32629W        W 5054  22.000  15.800   2.659
32630W        W 5055  19.370  20.372   5.194
32631W        W 5056  23.134  19.404   1.045
32632W        W 5057  41.834  15.148  12.510
32633W        W 5058  24.532  43.514   1.811
32634W        W 5059   8.969   8.056   2.148
32635W        W 5060   6.457  20.231   0.880
32636W        W 5061  35.911   4.373   0.459
32637W        W 5062  14.559   9.706   1.217
32638W        W 5063  32.779  12.569   1.264
32639W        W 5064  38.437  35.788  12.995
32640W        W 5065  38.419  25.081   5.105
32641W        W 5066  31.074  16.415   1.349
32642W        W 5067  28.898   3.719   0.795
32643W        W 5068   7.892  31.412   1.387
32644W        W 5069  13.597  22.610  13.932
32645W        W 5070   9.717  40.088  11.209
32646W        W 5071  21.739  42.492   3.349
32647W        W 5072  40.914  20.152   4.659
32648W        W 5073  28.608  17.258  10.399
32649W        W 5074  40.857  13.672   1.961
32650W        W 5075  30.136   8.281   1.348
32651W        W 5076  32.345  36.540  13.315
32652W        W 5077  31.608  29.659  12.121
32653W        W 5078  41.490  25.029   3.763
32654W        W 5079  33.191  38.361  12.513
32655W        W 5080   1.414   1.617   4.788
32656W        W 5081  41.887   7.603   4.115
32657W        W 5082  24.702  27.074  14.859
32658W        W 5083  20.696  39.141  13.005
32659W        W 5084  29.422  37.045   4.717
32660W        W 5085  39.783  19.731   3.096
32661W        W 5086  27.157   2.994  11.154
32662W        W 5087  37.389  14.113   1.656
32663W        W 5088  24.058  31.526  12.795
32664W        W 5089  11.509   8.355   1.277
32665W        W 5090  29.762   3.037   3.646
32666W        W 5091  11.184  11.697   4.178
32667W        W 5092  40.942   7.115   2.626
32668W        W 5093  42.100  12.710  12.124
32669W        W 5094  37.067  22.627  11.455
32670W        W 5095  29.556  14.177  10.811
32671W        W 5096  44.296  16.739   0.934
32672W        W 5097  25.316  29.215   3.758
32673W        W 5098  38.118  15.828   2.236
32674W        W 5099  42.797  13.376  10.359
32675W        W 5100  28.578   1.840   1.950
32676W        W 5101  31.932   9.177   2.669
32677W        W 5102  19.972   6.903   4.499
32678W        W 5103  42.313  13.298   0.433
32679W        W 5104  26.666  12.408   3.276
32680W        W 5105  34.375  11.138   1.240
32681W        W 5106  20.067  13.731   1.411
32682W        W 5107  36.696  41.633  11.406
32683W        W 5108  31.973  33.675   5.119
32684W        W 5109   6.851  13.598  13.930
32685W        W 5110   3.924  27.242   4.305
32686W        W 5111  33.623  38.701  12.604
32687W        W 5112  34.216  19.564   3.829
32688W        W 5113  10.475   6.278   5.522
32689W        W 5114  13.212  19.942  14.718
32690W        W 5115  15.923  20.825   1.757
32691W        W 5116   4.278   3.874   3.714
32692W        W 5117  37.909   6.989   2.290
32693W        W 5118  14.159  37.939   1.429
32694W        W 5119  34.627  39.532  13.574
32695W        W 5120  22.130  18.909  13.606
32696W        W 5121  12.793  16.572  11.376
32697W        W 5122  16.292  34.470   2.827
32698W        W 5123  25.375   6.931  10.774
32699W        W 5124  40.354   3.855  13.583
32700W        W 5125  30.210   6.861   3.577
32701W        W 5126   9.845  32.546  14.202
32702W        W 5127  10.831  22.777  14.889
32703W        W 5128  12.715   7.163   3.226
32704W        W 5129   6.419  12.108  13.508
32705W        W 5130  35.602  29.866   4.326
32706W        W 5131   4.813  28.030  14.155
32707W        W 5132  21.430  23.518  12.900
32708W        W 5133  34.514  32.965   1.781
32709W        W 5134  41.170  22.074  10.816
32710W        W 5135  30.770  40.542  10.768
32711W        W 5136  20.266  39.539   3.629
32712W        W 5137  27.437  21.740   2.785
32713W        W 5138  43.435  15.415  13.518
32714W        W 5139  43.956   9.823   1.309
32715W        W 5140  11.595  27.920   3.295
32716W        W 5141   0.832   1.846  11.455
32717W        W 5142  28.995  43.993  10.592
32718W        W 5143  43.950  41.452   0.873
32719W        W 5144  16.330  39.693  13.899
32720W        W 5145   1.311  44.298  10.776
32721W        W 5146   7.687  12.234  13.938
32722W        W 5147  18.012   4.832   2.728
32723W        W 5148  42.923   1.908   3.869
32724W        W 5149  41.118  16.882  12.853
32725W        W 5150  43.748  28.951  12.599
32726W        W 5151   0.510  14.650  10.652
32727W        W 5152  32.634  39.353  10.748
32728W        W 5153  39.533  14.760   2.808
32729W        W 5154  11.644  34.286   2.761
32730W        W 5155   1.408   8.713   2.000
32731W        W 5156   8.859  26.871   2.854
32732W        W 5157  38.784  29.896  10.793
32733W        W 5158  22.241  34.846   3.246
32734W        W 5159  36.529  16.381   0.579
32735W        W 5160   0.530  36.622   4.851
32736W        W 5161   8.477  38.442  12.450
32737W        W 5162   8.406   4.005   3.564
32738W        W 5163  33.378  26.029  14.472
32739W        W 5164  35.867  18.708  11.104
32740W        W 5165   7.741  33.438   0.282
32741W        W 5166  32.634  42.656  11.114
32742W        W 5167  38.992  32.372  14.508
32743W        W 5168  13.254  37.890   2.407
32744W        W 5169  19.244  42.479  11.713
32745W        W 5170  15.304  38.878  12.754
32746W        W 5171  29.943  38.172   2.400
32747W        W 5172   5.268  38.121   3.210
32748W        W 5173  10.152  41.429  11.072
32749W        W 5174  38.758  12.423   2.220
32750W        W 5175   8.642  13.827  10.550
32751W        W 5176  15.272  19.062   0.959
32752W        W 5177  40.352  31.410  11.560
32753W        W 5178  29.954  13.902   3.285
32754W        W 5179   5.383   4.267   4.149
32755W        W 5180   4.699  37.968  11.669
32756W        W 5181  38.360   4.855   3.129
32757W        W 5182  29.975  21.558   2.732
32758W        W 5183  37.983   3.785  11.114
32759W        W 5184  38.836  42.019   1.972
32760W        W 5185  25.967  20.046   2.191
32761W        W 5186  42.807  44.044   3.638
32762W        W 5187  13.629  16.152  12.329
32763W        W 5188  26.134  21.334   3.589
32764W        W 5189  24.733  19.060  11.222
32765W        W 5190  18.642  37.908  13.006
32766W        W 5191  36.505  16.852   2.261
32767W        W 5192  39.609   3.486   1.874
32768W        W 5193   4.451  11.605  14.454
32769W        W 5194  24.127  30.859   1.301
32770W        W 5195  22.998   4.882  12.352
32771W        W 5196  30.194   3.383   3.846
32772W        W 5197  18.360  10.631   0.778
32773W        W 5198   7.071  29.551   1.885
32774W        W 5199  40.527   1.816  14.817
32775W        W 5200  11.957  27.493   1.137
32776W        W 5201  34.373  14.897  11.120
32777W        W 5202  27.425   3.901   1.458
32778W        W 5203   0.711  34.467   0.426
32779W        W 5204  21.960   4.820  10.583
32780W        W 5205  22.199  11.784  12.452
32781W        W 5206   3.181   8.204  13.345
32782W        W 5207  43.467  40.833  10.626
32783W        W 5208  44.981   1.777   2.781
32784W        W 5209  28.891  12.058   4.124
32785W        W 5210   6.402   5.119   3.775
32786W        W 5211  43.865   3.205   2.959
32787W        W 5212  39.855  26.948   0.306
32788W        W 5213  33.106  16.423  14.688
32789W        W 5214  14.714  32.673   1.211
32790W        W 5215  40.580  16.293  13.514
32791W        W 5216  38.076  39.405   3.781
32792W        W 5217  19.969  43.696   0.467
32793W        W 5218  24.776  27.473  14.464
32794W        W 5219   2.295   3.896  12.805
32795W        W 5220  24.051   9.543  14.528
32796W        W 5221  42.785   6.316  11.696
32797W        W 5222  38.442   4.775   2.604
32798W        W 5223  25.542  14.004   2.699
32799W        W 5224  28.225  20.876  13.907
32800W        W 5225  25.549   0.790   3.217
32801W        W 5226  19.971  21.396  11.927
32802W        W 5227  38.890  42.577  12.999
32803W        W 5228  23.772   5.481  11.877
32804W        W 5229  31.704  38.463   2.776
32805W        W 5230   1.213  23.997   3.227
32806W        W 5231  44.424  44.397  11.595
32807W        W 5232   1.122  27.100  12.079
32808W        W 5233  29.020  12.296  11.826
32809W        W 5234   7.513  14.640  10.652
32810W        W 5235  37.461  36.729  12.400
32811W        W 5236   1.082  25.703  12.982
32812W        W 5237   4.900  11.978   4.993
32813W        W 5238  30.266  33.531  10.381
32814W        W 5239   6.143   2.244   0.380
32815W        W 5240  33.503  39.735   4.590
32816W        W 5241  14.562  40.013  13.457
32817W        W 5242  17.611  15.734  14.883
32818W        W 5243  23.558  13.161   1.304
32819W        W 5244  14.826  26.246   2.214
32820W        W 5245  21.494  42.395  14.814
32821W        W 5246  44.937  31.390   3.324
32822W        W 5247  30.656   6.840  13.982
32823W        W 5248  23.632  16.306   2.683
32824W        W 5249   4.068   2.789  11.507
32825W        W 5250  43.200  19.169  12.075
32826W        W 5251   5.776  16.822  11.068
32827W        W 5252  43.052  23.119  11.214
32828W        W 5253  18.359  30.083   0.930
32829W        W 5254   6.863  19.177  11.014
32830W        W 5255  32.119  40.028  13.277
32831W        W 5256   9.176   6.327   4.974
32832W        W 5257  38.094   5.706  13.371
32833W        W 5258   8.469  44.263  13.509
32834W        W 5259  10.325  21.885   1.765
32835W        W 5260  21.163  26.373  14.882
32836W        W 5261  33.281  26.818   4.826
32837W        W 5262   0.347  41.642   2.257
32838W        W 5263  43.522   2.998  13.054
32839W        W 5264  29.100   5.499  14.481
32840W        W 5265  43.370  22.060   0.472
32841W        W 5266   0.874   4.381   3.626
32842W        W 5267  30.894  21.275  13.164
32843W        W 5268  38.973  40.326   4.340
32844W        W 5269  19.961  12.701   4.153
32845W        W 5270   8.900  26.958   4.617
32846W        W 5271  42.904  27.973   4.974
32847W        W 5272  42.387  12.748   4.592
32848W        W 5273  39.569   0.363   2.674
32849W        W 5274  10.350  22.916  12.526
32850W        W 5275  30.056   8.629   2.221
32851W        W 5276   7.140  38.660   5.231
32852W        W 5277  43.322  31.179   3.367
32853W        W 5278  23.756  13.087  10.799
32854W        W 5279  14.910  21.302  13.109
32855W        W 5280  33.968   5.330   2.272
32856W        W 5281   6.125   4.807   2.666
32857W        W 5282  39.392   4.622   4.044
32858W        W 5283  17.344  37.158   0.022
32859W        W 5284  24.663   9.355  12.010
32860W        W 5285   9.641  36.786   5.078
32861W        W 5286  31.426  13.788  13.769
32862W        W 5287   7.815   4.483  11.437
32863W        W 5288  14.823  14.607  13.529
32864W        W 5289  38.681  32.024  13.195
32865W        W 5290  26.667  25.682   3.737
32866W        W 5291  31.473  34.407   4.414
32867W        W 5292  44.232   5.926  12.374
32868W        W 5293  27.532  32.604   4.061
32869W        W 5294  16.269  34.375   1.538
32870W        W 5295  42.401  14.209   1.248
32871W        W 5296  42.219  40.732  13.447
32872W        W 5297  41.252  14.552   3.176
32873W        W 5298  31.848  35.965   1.240
32874W        W 5299  26.996  19.561  13.505
32875W        W 5300  13.582  40.045  13.073
32876W        W 5301   8.294   8.901   0.398
32877W        W 5302  30.347  33.220   0.887
32878W        W 5303  21.108  41.065   4.895
32879W        W 5304  14.409  32.388   0.908
32880W        W 5305  12.689  43.598  11.449
32881W        W 5306  29.085  29.028  12.422
32882W        W 5307  24.971   8.860  13.350
32883W        W 5308   2.928  17.269  11.977
32884W        W 5309  20.076  18.217  13.892
32885W        W 5310   3.915  38.941  12.576
32886W        W 5311  39.918  31.005   4.216
32887W        W 5312  42.730  18.137   4.049
32888W        W 5313   3.913  24.881  10.537
32889W        W 5314  16.054   7.867  10.812
32890W        W 5315  37.721  20.173  11.097
32891W        W 5316  11.866  18.141  11.533
32892W        W 5317  12.669   9.208  12.705
32893W        W 5318  20.725  31.050   4.388
32894W        W 5319  21.306  24.077   5.088
32895W        W 5320  29.988   7.173  10.843
32896W        W 5321  37.580   3.953  13.434
32897W        W 5322  15.820  42.777   2.945
32898W        W 5323  20.547  40.311  11.796
32899W        W 5324   0.881  15.256   1.888
32900W        W 5325  40.952  11.036  13.217
32901W        W 5326  29.946  19.712  12.440
32902W        W 5327  19.082   7.031  13.953
32903W        W 5328  32.617  41.450  10.693
32904W        W 5329  43.447  39.570  12.446
32905W        W 5330  30.465  20.862  14.805
32906W        W 5331  43.551  19.240   0.911
32907W        W 5332  31.383  24.089   4.185
32908W        W 5333  31.111  33.202  10.618
32909W        W 5334  29.669  17.175  11.804
32910W        W 5335   2.046  20.345   3.656
32911W        W 5336   8.904  18.615  12.547
32912W        W 5337  28.976   9.812   2.830
32913W        W 5338  37.952  20.647  10.919
32914W        W 5339  18.847  41.176  11.000
32915W        W 5340   7.395  25.469  14.169
32916W        W 5341   0.267   2.967  11.768
32917W        W 5342  10.873  10.303   4.622
32918W        W 5343   4.211  33.984  12.648
32919W        W 5344  14.364  37.899  13.601
32920W        W 5345   4.864   7.471   1.252
32921W        W 5346  40.477  14.634  11.399
32922W        W 5347  41.017   6.783  10.795
32923W        W 5348   6.727   0.054  11.609
32924W        W 5349  16.597   2.794  10.456
32925W        W 5350  30.016  21.181  12.021
32926W        W 5351  16.311  14.064   2.548
32927W        W 5352  44.368  28.201   2.273
32928W        W 5353  29.059  37.592  11.594
32929W        W 5354  20.459  33.381   4.317
32930W        W 5355  26.005  42.607   2.311
32931W        W 5356   0.509  15.849   2.143
32932W        W 5357  10.673  28.392  14.894
32933W        W 5358  32.363  29.027   1.846
32934W        W 5359  44.401  36.419   0.515
32935W        W 5360  21.681   7.009   1.653
32936W        W 5361  13.946  32.732   1.832
32937W        W 5362  14.207   2.713  10.848
32938W        W 5363  37.052  24.461  12.626
32939W        W 5364  44.974  37.308   5.063
32940W        W 5365  40.393  41.701   3.494
32941W        W 5366  20.683  10.748  13.882
32942W        W 5367  35.023  13.803  13.464
32943W        W 5368  28.069   3.451   1.927
32944W        W 5369  10.189   5.875   1.352
32945W        W 5370  36.327  40.109   2.733
32946W        W 5371  11.138  10.338   3.614
32947W        W 5372  42.138  25.233   3.262
32948W        W 5373  43.143  18.874   1.416
32949W        W 5374  31.080  24.471  12.001
32950W        W 5375  30.600  21.867   0.779
32951W        W 5376  35.467  10.327   2.874
32952W        W 5377  16.179   0.606  13.781
32953W        W 5378  27.538   0.221  11.490
32954W        W 5379   2.775  31.686  12.922
32955W        W 5380  10.710  36.929   2.434
32956W        W 5381  24.398   6.495   1.951
32957W        W 5382  12.778  17.178  13.057
32958W        W 5383  25.597  12.668  14.483
32959W        W 5384  40.429   5.808   2.608
32960W        W 5385  40.330   5.640  10.786
32961W        W 5386  18.108  24.068  14.830
32962W        W 5387  10.743  21.251  10.803
32963W        W 5388  36.541  30.283  13.632
32964W        W 5389  38.928  19.133   1.280
32965W        W 5390  12.731  32.357   2.838
32966W        W 5391  22.703  26.396  11.654
32967W        W 5392  33.421  39.876   3.595
32968W        W 5393  27.390  24.720  14.401
32969W        W 5394  20.352  24.643   4.141
32970W        W 5395   1.363  18.019  14.055
32971W        W 5396  33.884  29.552  10.421
32972W        W 5397  40.220  19.693  14.303
32973W        W 5398  17.314  33.415  14.074
32974W        W 5399  39.308  43.917   1.863
32975W        W 5400  37.524   4.720   4.443
32976W        W 5401   1.225  31.919   0.708
32977W        W 5402  23.300  30.927  12.835
32978W        W 5403  16.188  22.531  13.531
32979W        W 5404  30.996  25.052   4.201
32980W        W 5405   5.704  10.690  13.928
32981W        W 5406   1.284  35.900  11.709
32982W        W 5407  24.310  17.573  12.578
32983W        W 5408  16.918  17.660   1.739
32984W        W 5409  36.620  35.935  10.591
32985W        W 5410  38.971  15.793  13.271
32986W        W 5411  16.824  16.763  12.985
32987W        W 5412   6.769  15.137   4.736
32988W        W 5413  12.962  12.163  11.088
32989W        W 5414  30.933   8.193   3.639
32990W        W 5415  22.192  43.528   2.673
32991W        W 5416  29.556  16.356  11.262
32992W        W 5417  35.290  24.501   0.418
32993W        W 5418  14.838  44.411   4.690
32994W        W 5419  12.623  23.716  10.685
32995W        W 5420   2.059  14.162   3.506
32996W        W 5421  35.011  20.791  14.081
32997W        W 5422  24.569  43.870  11.617
32998W        W 5423   1.182  36.489   0.466
32999W        W 5424  15.777  27.107   0.462
33000W        W 5425  36.353  31.495   2.724
33001W        W 5426  30.616  29.067  13.131
33002W        W 5427  40.963  41.400   4.966
33003W        W 5428   5.147  33.833  13.955
33004W        W 5429  11.263   4.302  10.382
33005W        W 5430   4.978  13.700   3.921
33006W        W 5431  25.565  16.450   2.845
33007W        W 5432   3.324  38.810   1.941
33008W        W 5433  14.869  14.804   1.857
33009W        W 5434  21.022  38.487  12.119
33010W        W 5435   5.717   2.898   3.178
33011W        W 5436  36.165   5.764   0.802
33012W        W 5437  29.904   5.280  10.698
33013W        W 5438  30.731  37.751   4.291
33014W        W 5439  36.887  39.527  11.244
33015W        W 5440  32.651  19.752  14.304
33016W        W 5441   7.907  35.941   1.646
33017W        W 5442   5.994  21.669   1.615
33018W        W 5443  38.507  21.058   0.500
33019W        W 5444  31.183  33.560   3.884
33020W        W 5445  24.546  18.730   2.908
33021W        W 5446  18.301  22.725  10.755
33022W        W 5447  28.635  41.014   0.469
33023W        W 5448  31.897  35.288   3.742
33024W        W 5449  35.155  17.541   3.197
33025W        W 5450  35.868  20.216  14.780
33026W        W 5451  27.667  33.500   1.885
33027W        W 5452  34.472   1.374  12.916
33028W        W 5453  34.131  38.526  10.373
33029W        W 5454  24.277  28.611   3.686
33030W        W 5455   5.826   0.359   2.631
33031W        W 5456  22.709  31.691  13.936
33032W        W 5457  34.554  42.549  13.624
33033W        W 5458   0.928   1.796   4.758
33034W        W 5459  19.675  21.545   1.730
33035W        W 5460  18.590  36.464  13.511
33036W        W 5461  44.728  32.150   4.070
33037W        W 5462   3.680  43.614   0.213
33038W        W 5463  40.971  17.041   0.807
33039W        W 5464  23.138  42.908  10.388
33040W        W 5465  22.243  21.678  12.049
33041W        W 5466  15.841   1.892   1.184
33042W        W 5467   8.797  28.616   1.993
33043W        W 5468  34.041  22.991   3.672
33044W        W 5469   0.864  30.694  10.726
33045W        W 5470  34.013  11.323  13.473
33046W        W 5471  35.339  13.842   1.262
33047W        W 5472   5.221   5.881  12.860
33048W        W 5473  39.305  38.022   1.830
33049W        W 5474  29.912   3.516  13.863
33050W        W 5475  27.188   5.238   0.521
33051W        W 5476  38.536  13.486  11.206
33052W        W 5477  40.881  41.327   4.458
33053W        W 5478  30.653  44.762  11.061
33054W        W 5479  11.267  19.854   3.825
33055W        W 5480   8.639  18.681  12.110
33056W        W 5481   2.806  13.344  12.569
33057W        W 5482   2.860  31.551  10.589
33058W        W 5483   0.067  27.515  14.995
33059W        W 5484  27.522  44.121   1.246
33060W        W 5485  25.779  22.508   3.207
33061W        W 5486  20.352  30.800  13.952
33062W        W 5487  30.005  18.699   1.710
33063W        W 5488   5.670  33.128   1.690
33064W        W 5489  42.428  17.769  14.876
33065W        W 5490   0.182  21.800   2.895
33066W        W 5491  24.507  42.772   0.480
33067W        W 5492  40.148  35.209  12.438
33068W        W 5493  28.000  41.432   0.915
33069W        W 5494  27.811  25.167  12.229
33070W        W 5495  30.525   2.402  13.586
33071W        W 5496  34.902  39.384  11.725
33072W        W 5497  34.341  40.975   4.622
33073W        W 5498  27.316  38.064  11.228
33074W        W 5499  38.026  34.455  12.882
33075W        W 5500  36.147   7.820   5.107
33076W        W 5501  23.864   1.008  14.355
33077W        W 5502  39.026   1.741  10.647
33078W        W 5503  30.044   4.964  14.416
33079W        W 5504   7.442  23.249   3.638
33080W        W 5505  37.488  43.339  14.698
33081W        W 5506  27.237  21.112   0.202
33082W        W 5507  33.060  41.413  11.425
33083W        W 5508   6.708  15.848   2.241
33084W        W 5509   0.320  17.242  14.462
33085W        W 5510  41.959  22.167   3.418
33086W        W 5511   2.824   8.415  10.678
33087W        W 5512  13.288  11.828   4.592
33088W        W 5513  15.701  17.543  14.503
33089W        W 5514  37.561  24.620   3.929
33090W        W 5515  44.002   3.477   4.433
33091W        W 5516  22.128  35.044   3.754
33092W        W 5517   6.361  42.863  13.995
33093W        W 5518  35.021  31.099   0.091
33094W        W 5519   1.348   0.023  13.141
33095W        W 5520  32.440  23.617  14.817
33096W        W 5521  18.919  26.258  14.772
33097W        W 5522   7.488  20.022  10.474
33098W        W 5523   1.789  44.493   0.531
33099W        W 5524   3.862  38.865  10.660
33100W        W 5525  15.478  20.677   2.661
33101W        W 5526  17.213   2.679  12.681
33102W        W 5527   0.776  16.605  10.532
33103W        W 5528  16.004  20.341   0.325
33104W        W 5529   6.760  28.613   0.307
33105W        W 5530  31.935   9.465   1.725
33106W        W 5531   7.359   3.354   1.420
33107W        W 5532   5.440  43.389  11.660
33108W        W 5533  23.716   3.207   1.734
33109W        W 5534  20.754  26.105   0.052
33110W        W 5535  35.313  42.788   4.730
33111W        W 5536   3.667   7.822  11.725
33112W        W 5537  31.071   1.814   0.174
33113W        W 5538  43.385  13.897   4.300
33114W        W 5539  18.293  41.604  11.893
33115W        W 5540  23.508  19.790  12.918
33116W        W 5541  21.617  37.077   1.956
33117W        W 5542  30.524  42.381  14.969
33118W        W 5543  15.748  35.420   3.440
33119W        W 5544   5.772  29.154  13.392
33120W        W 5545  41.442  22.929  11.284
33121W        W 5546   6.444  32.474  12.365
33122W        W 5547  16.632  35.802  11.556
33123W        W 5548  36.947  22.491   0.601
33124W        W 5549  41.533  40.373  11.182
33125W        W 5550  42.432  29.645  14.379
33126W        W 5551  36.972  18.319  12.141
33127W        W 5552   8.248  31.788   4.202
33128W        W 5553  41.607   3.986  11.412
33129W        W 5554  23.686  13.321  11.248
33130W        W 5555   1.893   4.363   2.359
33131W        W 5556   6.678   5.633   2.227
33132W        W 5557  26.453   2.760   3.281
33133W        W 5558  37.907  15.867  14.004
33134W        W 5559  19.188  19.769   3.628
33135W        W 5560  15.898  16.348  14.027
33136W        W 5561  35.722  23.445  10.572
33137W        W 5562  41.651  12.473  14.495
33138W        W 5563  20.076  24.884   2.730
33139W        W 5564  35.674  14.140  12.805
33140W        W 5565  30.201  10.264   3.075
33141W        W 5566  44.975  28.804   0.866
33142W        W 5567   0.751  37.422   1.004
33143W        W 5568  11.719  32.617   3.566
33144W        W 5569  37.367   3.148   0.434
33145W        W 5570  20.711  44.040   2.301
33146W        W 5571  26.295  21.408   4.512
33147W        W 5572  44.832  13.068  11.989
33148W        W 5573  42.700  41.275   0.381
33149W        W 5574  35.310   8.956  11.514
33150W        W 5575   9.003  17.664   1.684
33151W        W 5576  18.518  15.934   2.382
33152W        W 5577  35.323  37.844  12.393
33153W        W 5578  21.301  39.051  12.931
33154W        W 5579  15.758  12.185  13.470
33155W        W 5580  29.229  32.515  11.718
33156W        W 5581   2.372  24.750   1.541
33157W        W 5582   7.038  36.414   3.097
33158W        W 5583   6.955   7.240  14.017
33159W        W 5584   9.174   1.272   1.474
33160W        W 5585  26.368  33.638   0.385
33161W        W 5586  29.394  32.592  13.836
33162W        W 5587  43.375  25.224  10.258
33163W        W 5588  34.884  36.875  12.066
33164W        W 5589  34.568  29.219   0.784
33165W        W 5590  41.470  42.861   9.888
33166W        W 5591  39.300  12.611   4.164
33167W        W 5592  30.364  24.565   3.775
33168W        W 5593  12.662   3.672   1.770
33169W        W 5594   5.884   9.694  14.761
33170W        W 5595   5.174   9.650  13.489
33171W        W 5596  24.747  29.426   3.372
33172W        W 5597  11.778  39.874  10.643
33173W        W 5598   1.401  31.716  13.942
33174W        W 5599  22.615  34.608  11.080
33175W        W 5600  20.580  21.922  14.935
33176W        W 5601   4.778  14.564  14.397
33177W        W 5602  37.896  27.553   4.725
33178W        W 5603  34.889   3.875  14.455
33179W        W 5604  30.447   2.991   2.213
33180W        W 5605  11.636  21.474   0.400
33181W        W 5606  29.986   6.317   4.898
33182W        W 5607   0.948  20.465   4.188
33183W        W 5608  12.395  17.613   3.321
33184W        W 5609  28.565  35.104  14.149
33185W        W 5610  42.848  19.747  14.502
33186W        W 5611  32.004   9.504  12.254
33187W        W 5612  12.752  19.520  10.693
33188W        W 5613  22.529  25.619   0.900
33189W        W 5614   7.234  16.679   1.739
33190W        W 5615  27.148  11.145   1.740
33191W        W 5616  38.343  26.300  14.542
33192W        W 5617  40.142   5.513   4.027
33193W        W 5618  30.920   0.838   4.860
33194W        W 5619  12.808   1.209   4.536
33195W        W 5620   8.584   2.944   0.795
33196W        W 5621  16.588  11.899  14.399
33197W        W 5622  22.491  40.778   1.345
33198W        W 5623  40.096  16.227   3.681
33199W        W 5624  34.298   1.731  12.590
33200W        W 5625   8.931  42.911   4.549
33201W        W 5626  24.607  18.298   0.360
33202W        W 5627  31.931  29.449   0.370
33203W        W 5628  27.791  12.177  10.691
33204W        W 5629  35.065  37.484  12.910
33205W        W 5630  16.712  14.163  14.366
33206W        W 5631   3.106  29.725   2.219
33207W        W 5632  13.347  39.985   2.892
33208W        W 5633  43.734   5.746  13.061
33209W        W 5634  11.732  43.041   1.419
33210W        W 5635  34.193  11.795   1.804
33211W        W 5636  18.552  26.762  12.140
33212W        W 5637  44.515  17.130  12.304
33213W        W 5638  11.264  15.812   1.914
33214W        W 5639   7.360   4.461   1.320
33215W        W 5640  19.291   4.017   4.202
33216W        W 5641  25.265   1.464  12.473
33217W        W 5642  43.183  14.819   4.081
33218W        W 5643  15.293  42.089  11.136
33219W        W 5644  36.603   4.793  11.554
33220W        W 5645  37.350  24.204   0.332
33221W        W 5646  24.879  25.945   0.171
33222W        W 5647  40.372   8.347   1.849
33223W        W 5648  40.314  25.760  12.170
33224W        W 5649  18.031  31.622   0.296
33225W        W 5650   9.405   7.825   1.385
33226W        W 5651  33.003  43.345   0.799
33227W        W 5652  22.977  25.720   3.177
33228W        W 5653  15.550  21.211   0.547
33229W        W 5654  19.070  21.645   3.906
33230W        W 5655   3.393  39.212  13.324
33231W        W 5656  14.146  25.624   0.018
33232W        W 5657   2.706  15.211   4.117
33233W        W 5658  23.465  19.214   0.131
33234W        W 5659  18.189  37.945   0.867
33235W        W 5660  40.945  32.152   0.424
33236W        W 5661   4.033  43.347   1.789
33237W        W 5662  23.770  23.119   4.645
33238W        W 5663  38.216   2.170  12.566
33239W        W 5664   5.330  35.540   0.735
33240W        W 5665  33.031   2.906   1.325
33241W        W 5666   2.990   8.359   1.864
33242W        W 5667  19.205  39.370  10.603
33243W        W 5668  25.061   0.243   1.719
33244W        W 5669  35.322   9.699   0.945
33245W        W 5670   0.352  32.572  14.026
33246W        W 5671   9.407  24.195  11.995
33247W        W 5672  44.150  10.169   1.686
33248W        W 5673  15.770  19.187  13.819
33249W        W 5674  29.671  14.714  12.544
33250W        W 5675   7.278  41.814  12.139
33251W        W 5676  20.167  41.975  12.533
33252W        W 5677  43.519  10.136   3.847
33253W        W 5678  16.173  19.525  13.893
33254W        W 5679   7.956   6.943  10.658
33255W        W 5680  26.177  40.044   4.962
33256W        W 5681  10.545  33.606  10.152
33257W        W 5682  23.994  25.760  11.901
33258W        W 5683   8.277  39.867  12.384
33259W        W 5684  23.125   8.224   9.778
33260W        W 5685  24.049   8.192   2.278
33261W        W 5686   7.735  31.268  13.351
33262W        W 5687  18.430  41.012  13.820
33263W        W 5688  36.948  29.005  11.421
33264W        W 5689   8.806   5.930   0.468
33265W        W 5690  38.004  39.802  10.650
33266W        W 5691  16.303  33.096   1.661
33267W        W 5692  38.381   4.982  12.929
33268W        W 5693  38.084  31.860   4.127
33269W        W 5694   5.286   3.127  10.880
33270W        W 5695   2.916  29.140   0.833
33271W        W 5696  38.355  25.559  12.098
33272W        W 5697   8.886   1.428  12.100
33273W        W 5698  43.077  34.443   4.539
33274W        W 5699  24.385  12.678   4.848
33275W        W 5700  32.414  24.495   0.500
33276W        W 5701   0.744  22.024   1.821
33277W        W 5702  24.464  17.164   1.220
33278W        W 5703  31.618   3.347   4.201
33279W        W 5704  42.302  41.789  11.213
33280W        W 5705  39.949  20.335   0.543
33281W        W 5706  10.878  27.700  10.759
33282W        W 5707  31.321  38.355   0.981
33283W        W 5708  39.859  11.188   4.503
33284W        W 5709  10.776  13.854  12.011
33285W        W 5710  34.020  44.698   3.791
33286W        W 5711   6.520   2.516  11.567
33287W        W 5712  43.034   8.823   0.821
33288W        W 5713  44.875  20.051  11.849
33289W        W 5714  19.708  33.388  12.579
33290W        W 5715  34.988  38.466  13.990
33291W        W 5716   3.859   9.851  12.496
33292W        W 5717  11.371  18.960  14.738
33293W        W 5718  17.502  20.286   1.331
33294W        W 5719   5.922  16.697  12.929
33295W        W 5720   7.112  23.689  11.241
33296W        W 5721   1.679  31.645   0.716
33297W        W 5722  12.894  25.274   4.372
33298W        W 5723  26.168   4.396  10.437
33299W        W 5724  26.646  21.772  12.662
33300W        W 5725  32.319  28.647   2.869
33301W        W 5726   3.268  44.529   1.438
33302W        W 5727  40.478   2.424   1.640
33303W        W 5728  27.444  39.844  14.751
33304W        W 5729   0.761  24.824  11.621
33305W        W 5730  31.530   2.548   0.430
33306W        W 5731  28.689  22.576  11.109
33307W        W 5732  35.031  41.507  14.407
33308W        W 5733  44.777  29.175  13.950
33309W        W 5734   5.261  37.848  12.520
33310W        W 5735  40.950  26.751   3.331
33311W        W 5736  26.019  20.190   0.460
33312W        W 5737   6.343  30.693  11.059
33313W        W 5738  24.411  39.241   3.262
33314W        W 5739  37.015  17.531   4.208
33315W        W 5740  13.386   3.445   3.685
33316W        W 5741  35.379  34.530  12.236
33317W        W 5742  19.168  29.115   2.423
33318W        W 5743  36.862   1.701   1.331
33319W        W 5744  21.200  27.596   4.189
33320W        W 5745  23.714   4.451   0.389
33321W        W 5746  39.228  33.810  14.431
33322W        W 5747  12.334   7.709  12.924
33323W        W 5748  24.085   5.414  13.832
33324W        W 5749  24.584  11.964  13.148
33325W        W 5750  28.036  38.002  12.639
33326W        W 5751   0.956  10.214   5.076
33327W        W 5752  11.835  23.464  11.943
33328W        W 5753  22.784  37.827   4.122
33329W        W 5754  35.150  22.208  10.664
33330W        W 5755   7.731  35.896   3.683
33331W        W 5756  22.474  14.849   2.680
33332W        W 5757  19.596  31.316  13.578
33333W        W 5758  12.357  25.433   0.238
33334W        W 5759  12.446  43.920  12.091
33335W        W 5760  20.449  25.098  14.778
33336W        W 5761   2.760   9.867  11.164
33337W        W 5762   4.309  39.374   1.394
33338W        W 5763  33.690  19.730   4.209
33339W        W 5764   9.202  15.823   4.910
33340W        W 5765   2.140  14.655   0.827
33341W        W 5766  20.022  14.601  12.540
33342W        W 5767  36.813   2.443   1.694
33343W        W 5768  18.316  18.601  10.478
33344W        W 5769  18.564  10.157  14.913
33345W        W 5770  44.821   4.402  12.149
33346W        W 5771  23.257   1.207  11.167
33347W        W 5772  30.102  12.816  12.578
33348W        W 5773  19.478  39.885   3.904
33349W        W 5774   3.430  36.335  12.949
33350W        W 5775  42.472   5.355   2.010
33351W        W 5776  21.468  25.466  12.920
33352W        W 5777  21.039  21.086   1.170
33353W        W 5778  33.779   7.781   0.864
33354W        W 5779  43.753  17.532  12.795
33355W        W 5780  34.825   4.580  11.395
33356W        W 5781   8.588   0.862   0.915
33357W        W 5782   4.744  10.457   3.568
33358W        W 5783  18.615  36.980  12.835
33359W        W 5784  29.403   1.162   1.751
33360W        W 5785  17.005  37.387  12.335
33361W        W 5786  11.179  36.831   0.873
33362W        W 5787  23.307  27.096   0.889
33363W        W 5788  20.005  28.542   4.262
33364W        W 5789  39.819  10.480  12.111
33365W        W 5790  13.635  22.026  11.459
33366W        W 5791   2.312   8.648  13.875
33367W        W 5792  32.491  27.659   4.135
33368W        W 5793  32.835  40.933   2.425
33369W        W 5794  10.702  42.374   0.186
33370W        W 5795  13.650  19.546  13.997
33371W        W 5796  38.119  44.033  12.569
33372W        W 5797  15.742  41.752   0.329
33373W        W 5798  20.725  25.631  13.864
33374W        W 5799  27.928  44.016  10.559
33375W        W 5800  19.085  16.321   4.174
33376W        W 5801  16.248  37.834  12.617
33377W        W 5802  33.402  32.556   3.668
33378W        W 5803   3.030  42.842  10.468
33379W        W 5804  44.005  33.147  13.461
33380W        W 5805  44.008  17.580   2.726
33381W        W 5806  24.623   9.808  11.054
33382W        W 5807  17.156  10.167  11.565
33383W        W 5808  41.251   9.828  10.684
33384W        W 5809  18.585   7.675  11.617
33385W        W 5810   9.655  33.087  10.419
33386W        W 5811  35.440  33.190  12.213
33387W        W 5812   6.380  42.483   3.027
33388W        W 5813  33.643  24.686  14.297
33389W        W 5814  12.980   3.624   3.349
33390W        W 5815  35.370  26.621  11.559
33391W        W 5816  28.138  33.701  13.384
33392W        W 5817  23.575  18.594   4.713
33393W        W 5818  34.837   9.767  12.273
33394W        W 5819   2.910  16.341  11.779
33395W        W 5820   3.425  43.356  13.712
33396W        W 5821   7.813  40.118  12.497
33397W        W 5822  20.035  42.472   4.645
33398W        W 5823  37.271   5.591  11.912
33399W        W 5824  22.757  17.340  11.931
33400W        W 5825   3.738  35.485   1.642
33401W        W 5826  12.621  40.796   0.880
33402W        W 5827  44.008   7.980   1.806
33403W        W 5828   1.690  22.880  14.025
33404W        W 5829   7.528   9.566   3.150
33405W        W 5830   0.587  25.986  13.918
33406W        W 5831  14.892  21.677   1.406
33407W        W 5832  27.996  24.610  10.905
33408W        W 5833  34.004  15.125   1.943
33409W        W 5834   2.440  28.613  14.276
33410W        W 5835  22.123  41.264  11.893
33411W        W 5836  41.721   2.813   3.284
33412W        W 5837  43.023  11.274   3.680
33413W        W 5838  42.017  43.878   4.111
33414W        W 5839  29.200  23.703  12.581
33415W        W 5840  20.375  39.869  11.574
33416W        W 5841  18.370   0.898   1.361
33417W        W 5842  15.620  33.792   0.403
33418W        W 5843   6.350  29.370   2.746
33419W        W 5844  22.041   0.965   1.782
33420W        W 5845   4.670   8.162  14.924
33421W        W 5846  28.275   8.303  12.816
33422W        W 5847  34.842  42.098  11.145
33423W        W 5848  37.116   4.323   2.158
33424W        W 5849  30.585   7.779  14.921
33425W        W 5850   3.233  11.546   4.940
33426W        W 5851  35.617  36.938  11.557
33427W        W 5852   5.246  25.784   3.795
33428W        W 5853  32.904  29.500   1.430
33429W        W 5854   5.893  28.154  13.458
33430W        W 5855  38.231   9.855   1.620
33431W        W 5856  20.450  43.036  11.770
33432W        W 5857   4.826  17.553   1.633
33433W        W 5858  26.086  31.496   1.806
33434W        W 5859  29.626   8.365  12.935
33435W        W 5860  41.939   6.765   3.826
33436W        W 5861  35.829  26.967  13.806
33437W        W 5862  13.840  14.252  12.614
33438W        W 5863  39.579  21.254   3.828
33439W        W 5864  15.671  30.514   4.793
33440W        W 5865   6.880  24.560   3.240
33441W        W 5866  30.126  32.563  12.957
33442W        W 5867  36.182  22.555  13.055
33443W        W 5868  23.632  39.822  13.195
33444W        W 5869   8.441  13.293   2.791
33445W        W 5870   7.908  13.239  10.795
33446W        W 5871   8.037  36.556  11.173
33447W        W 5872  44.148   2.777   3.445
33448W        W 5873  39.407  41.199  13.502
33449W        W 5874  13.352  38.883  10.278
33450W        W 5875  40.271  22.086   2.614
33451W        W 5876   3.676  25.010   2.757
33452W        W 5877   5.321  14.954  11.899
33453W        W 5878   0.904  29.169  11.585
33454W        W 5879  33.930  38.807   1.840
33455W        W 5880  11.097   4.397   0.647
33456W        W 5881   4.052  20.150  13.802
33457W        W 5882   2.727  24.470   0.058
33458W        W 5883   8.631  19.489   4.844
33459W        W 5884   7.415  39.422   4.108
33460W        W 5885  13.965   2.760  12.451
33461W        W 5886  11.630   1.975  12.057
33462W        W 5887  35.493  41.328   0.885
33463W        W 5888  13.045  42.803  10.927
33464W        W 5889  20.720  22.532   1.892
33465W        W 5890  37.378  14.068   1.141
33466W        W 5891   1.519  35.951   0.332
33467W        W 5892  44.461   1.511  12.519
33468W        W 5893  23.710  27.138  12.129
33469W        W 5894  30.102  11.320  12.177
33470W        W 5895  43.431  11.759  11.089
33471W        W 5896  26.683  32.017   2.246
33472W        W 5897  25.682  26.486   3.137
33473W        W 5898  12.840  18.629  13.545
33474W        W 5899  25.035  41.477   0.657
33475W        W 5900  19.269   3.593  11.643
33476W        W 5901  17.599  26.986   1.585
33477W        W 5902   2.972   3.415  11.831
33478W        W 5903  24.327  18.803   4.316
33479W        W 5904   6.143  30.781   3.393
33480W        W 5905  35.824   7.443   2.393
33481W        W 5906  29.735  39.606  14.066
33482W        W 5907  39.977  32.409  14.714
33483W        W 5908  35.324  38.831  14.478
33484W        W 5909  19.263  44.052   4.400
33485W        W 5910  25.013  32.170   2.631
33486W        W 5911   3.411  27.891  13.060
33487W        W 5912  11.736  21.707   4.929
33488W        W 5913  36.379   5.278   4.175
33489W        W 5914  30.952  30.379  13.012
33490W        W 5915  44.063   4.408  12.815
33491W        W 5916   1.215  14.005   1.792
33492W        W 5917   0.863  29.689   3.203
33493W        W 5918  44.474  39.131   3.764
33494W        W 5919  43.735  23.169  14.983
33495W        W 5920  26.773  38.382  11.518
33496W        W 5921  23.044  40.119   0.680
33497W        W 5922  23.034  20.627   2.290
33498W        W 5923  36.164  14.672  14.822
33499W        W 5924   9.957  33.976   2.425
33500W        W 5925  19.520  37.498  11.925
33501W        W 5926   1.437  29.130   2.734
33502W        W 5927  21.101  28.566  10.644
33503W        W 5928  22.638  25.693  14.842
33504W        W 5929  43.889  13.267   2.254
33505W        W 5930  21.089  23.573   3.612
33506W        W 5931  38.472   2.669  13.513
33507W        W 5932   2.967  40.504  10.954
33508W        W 5933   3.896  13.199   2.817
33509W        W 5934  10.747  36.894   1.910
33510W        W 5935  12.592  16.108   0.415
33511W        W 5936  23.956  11.193   4.813
33512W        W 5937  43.424  20.214   2.288
33513W        W 5938  11.436  32.959   4.260
33514W        W 5939   3.736  41.645  14.978
33515W        W 5940   8.813  33.957  10.655
33516W        W 5941  39.653  26.545  13.521
33517W        W 5942  26.113  26.070   2.297
33518W        W 5943  17.086  21.458   0.417
33519W        W 5944  21.677  38.844   0.595
33520W        W 5945  28.083   5.122  10.182
33521W        W 5946  36.659   8.815   5.114
33522W        W 5947  34.944  20.198  14.796
33523W        W 5948  31.537  44.544   0.785
33524W        W 5949  40.036  30.580  10.630
33525W        W 5950  42.798  11.613  14.935
33526W        W 5951   3.858  23.663   1.040
33527W        W 5952  38.575  40.527  12.538
33528W        W 5953   2.854  24.977  12.906
33529W        W 5954  20.044  33.481   1.567
33530W        W 5955  26.145  17.709   2.624
33531W        W 5956  10.860  30.389   0.274
33532W        W 5957  16.245  41.232  12.071
33533W        W 5958  42.623  33.075  11.551
33534W        W 5959  24.971  31.962  12.876
33535W        W 5960  17.142  37.893  10.562
33536W        W 5961  14.525  20.327  14.058
33537W        W 5962  24.078  16.216  12.569
33538W        W 5963  36.559  30.536   1.636
33539W        W 5964  33.833  14.935   0.880
33540W        W 5965  43.102  23.555   3.174
33541W        W 5966   0.519  30.917  14.705
33542W        W 5967  28.001   1.608  12.171
33543W        W 5968   8.818  30.041   4.736
33544W        W 5969  37.289  10.123   4.442
33545W        W 5970  13.284   2.702  14.007
33546W        W 5971  17.696  32.424   5.661
33547W        W 5972   7.469  18.128  14.917
33548W        W 5973  25.449   8.405  14.814
33549W        W 5974  42.003  43.732  14.697
33550W        W 5975   1.454  35.421  11.972
33551W        W 5976  17.960  29.297  13.903
33552W        W 5977  31.063  40.542  13.897
33553W        W 5978  43.745  23.328  13.587
33554W        W 5979  29.453  40.305   1.914
33555W        W 5980  33.578  28.032   3.507
33556W        W 5981  44.729  39.901   2.490
33557W        W 5982  29.020  22.200  14.338
33558W        W 5983  15.654  19.532   3.297
33559W        W 5984  18.504  37.245   1.255
33560W        W 5985  31.574  28.903   1.386
33561W        W 5986  34.315  36.351   3.904
33562W        W 5987  25.019   4.420   3.158
33563W        W 5988  23.270  39.556  13.466
33564W        W 5989  30.379  31.069   4.645
33565W        W 5990  24.622  44.846   1.389
33566W        W 5991  36.992  26.411   3.040
33567W        W 5992  10.990  34.542   2.227
33568W        W 5993  37.886  41.188  14.941
33569W        W 5994   4.346  37.765  12.649
33570W        W 5995  33.897  14.298  13.486
33571W        W 5996  32.097   0.222  12.540
33572W        W 5997  36.057  18.800   0.274
33573W        W 5998  44.552  15.173   0.293
33574W        W 5999  31.993  30.470  12.396
33575W        W 6000  15.363  13.180   3.173
33576W        W 6001   7.287  23.732   3.760
33577W        W 6002   4.397  43.838  10.772
33578W        W 6003   9.739   2.379   4.109
33579W        W 6004   5.153  41.032  14.269
33580W        W 6005  15.205  18.417  13.671
33581W        W 6006   6.191   3.783  10.320
33582W        W 6007  13.778   9.380   1.724
33583W        W 6008  25.422  20.557   2.650
33584W        W 6009  42.345   5.389  11.612
33585W        W 6010  17.716   3.147  13.946
33586W        W 6011   8.260   2.764   3.582
33587W        W 6012  17.025   4.348  12.949
33588W        W 6013  37.791  23.777  11.640
33589W        W 6014  16.633  36.315  11.545
33590W        W 6015   5.905  24.694   0.795
33591W        W 6016  18.495   5.764   3.451
33592W        W 6017  19.655  23.133  12.808
33593W        W 6018  37.079  29.876   4.281
33594W        W 6019  12.127   3.813  11.042
33595W        W 6020  12.815  13.081  11.059
33596W        W 6021  39.307  32.018   1.717
33597W        W 6022  27.942  23.725   4.598
33598W        W 6023  43.838  18.140  13.507
33599W        W 6024  13.660  41.627  11.878
33600W        W 6025  43.253  42.785  14.234
33601W        W 6026  25.520  18.125  12.365
33602W        W 6027   7.703   7.124   1.365
33603W        W 6028  30.509  23.191  11.231
33604W        W 6029  19.725  15.146   1.674
33605W        W 6030   6.770  29.034  11.102
33606W        W 6031   5.628  18.842  10.747
33607W        W 6032  21.003  13.726  11.520
33608W        W 6033  23.985  28.440   2.412
33609W        W 6034  23.011   5.710   4.302
33610W        W 6035  23.543  24.117  11.993
33611W        W 6036  35.585   8.006   4.222
33612W        W 6037  34.818  22.190   0.469
33613W        W 6038  26.412   3.474  11.558
33614W        W 6039  33.368  12.213   4.679
33615W        W 6040  41.623  27.107  11.842
33616W        W 6041   8.959   2.975  14.957
33617W        W 6042  26.207   0.389   0.316
33618W        W 6043   5.008  39.836  12.045
33619W        W 6044  25.858  42.097   4.178
33620W        W 6045   7.249   3.342   2.914
33621W        W 6046   2.919   7.298   4.279
33622W        W 6047   7.084  22.311   2.511
33623W        W 6048   0.822  12.636  13.412
33624W        W 6049  25.640  33.830  11.666
33625W        W 6050  18.679  36.540  11.139
33626W        W 6051  36.361  11.120   2.071
33627W        W 6052  11.869   7.228   0.772
33628W        W 6053  14.719  33.380   4.051
33629W        W 6054  42.693  13.188  13.495
33630W        W 6055  37.539  32.906   4.760
33631W        W 6056  35.514  19.302  14.316
33632W        W 6057  12.569  15.067   1.407
33633W        W 6058   5.406  20.079   0.859
33634W        W 6059  11.401  25.774   9.923
33635W        W 6060  42.435  38.502   1.827
33636W        W 6061  14.053  30.576  14.575
33637W        W 6062   4.479  37.922  14.811
33638W        W 6063   4.750  17.081   0.490
33639W        W 6064  26.561  19.612   4.446
33640W        W 6065  37.064  30.093  13.391
33641W        W 6066  32.250   3.507  10.983
33642W        W 6067  34.099  44.146   1.732
33643W        W 6068   9.768  39.380   0.028
33644W        W 6069  24.489  30.644   2.196
33645W        W 6070  29.001  11.844  14.165
33646W        W 6071  37.893   9.975  14.562
33647W        W 6072   8.480  17.593   1.731
33648W        W 6073  44.024  26.299  11.983
33649W        W 6074  33.639  23.911   2.795
33650W        W 6075   6.428  24.199   0.477
33651W        W 6076  42.366  19.146   1.151
33652W        W 6077  34.593  40.290  10.627
33653W        W 6078  38.027  23.164   0.858
33654W        W 6079  41.750  12.084  13.828
33655W        W 6080   9.632  37.371  10.520
33656W        W 6081   0.323  10.017   3.946
33657W        W 6082  14.493  25.069   1.843
33658W        W 6083  26.698  11.258  10.796
33659W        W 6084  42.717  30.737  14.825
33660W        W 6085  18.849   1.004   1.239
33661W        W 6086  36.450   1.809   4.606
33662W        W 6087  32.405  26.598   1.354
33663W        W 6088   5.337   2.231  10.697
33664W        W 6089  25.091   4.328  12.913
33665W        W 6090  40.761   7.048   1.751
33666W        W 6091  33.995  25.124   0.060
33667W        W 6092  10.072  38.196  12.931
33668W        W 6093  13.297  43.028   0.906
33669W        W 6094   6.087   1.448  11.412
33670W        W 6095  25.859  11.199  13.591
33671W        W 6096  30.179  15.628   1.865
33672W        W 6097  11.395  40.929  11.444
33673W        W 6098  32.624  11.606  12.552
33674W        W 6099   9.287  17.773   2.257
33675W        W 6100  17.592   5.762   4.262
33676W        W 6101   9.826  33.039  14.966
33677W        W 6102  32.678  29.201   2.215
33678W        W 6103  20.288   0.658  12.569
33679W        W 6104  28.787  31.981  12.478
33680W        W 6105   3.004  11.270  13.518
33681W        W 6106  18.152   7.327   3.870
33682W        W 6107  28.219  18.627  10.905
33683W        W 6108  24.116  44.387  14.028
33684W        W 6109  18.627  14.271  14.062
33685W        W 6110   4.327   0.445   1.274
33686W        W 6111  40.219   7.637  14.933
33687W        W 6112  19.761  38.773  14.591
33688W        W 6113   5.291  26.331   4.609
33689W        W 6114  18.732   7.463   3.230
33690W        W 6115  16.158  25.968   2.878
33691W        W 6116  42.871  44.349  12.698
33692W        W 6117  33.439  32.501  14.227
33693W        W 6118  36.803  13.254   1.304
33694W        W 6119  35.376  37.143   1.330
33695W        W 6120  37.472   4.652   3.600
33696W        W 6121  43.738   3.270   4.856
33697W        W 6122   1.702  34.380   3.235
33698W        W 6123  19.949  26.077  13.800
33699W        W 6124  16.763  22.051  11.489
33700W        W 6125   1.927  32.581   1.798
33701W        W 6126  33.819  25.515  12.041
33702W        W 6127  17.325  34.944  12.122
33703W        W 6128  44.044  11.362   4.175
33704W        W 6129   2.726   0.082  14.096
33705W        W 6130  33.932  39.617   2.300
33706W        W 6131   8.915  15.595  12.566
33707W        W 6132  26.571  28.617   3.370
33708W        W 6133  11.718   7.247  14.062
33709W        W 6134  40.743   5.645   4.670
33710W        W 6135   3.996  37.141  14.714
33711W        W 6136   0.406   1.542   2.118
33712W        W 6137  31.863  21.228  10.690
33713W        W 6138  40.381  15.573  10.855
33714W        W 6139  12.179  43.207  11.630
33715W        W 6140  24.070  21.004  10.532
33716W        W 6141  25.381   3.696  13.880
33717W        W 6142   9.652  44.424   3.283
33718W        W 6143  35.260  26.732  12.098
33719W        W 6144  41.539   9.810   1.483
33720W        W 6145  35.077  12.299   3.223
33721W        W 6146  34.346   3.303  11.282
33722W        W 6147   8.323  23.543   3.562
33723W        W 6148  43.392  18.647   4.474
33724W        W 6149   2.436  15.108   0.525
33725W        W 6150  25.153  14.746  11.178
33726W        W 6151  29.082   5.218   0.346
33727W        W 6152  38.477  15.332   0.442
33728W        W 6153   5.820  19.820  13.555
33729W        W 6154  23.717  31.166   1.270
33730W        W 6155  38.442  18.247   2.157
33731W        W 6156   3.211  15.969   0.891
33732W        W 6157  36.002  31.007   2.169
33733W        W 6158  38.923  23.945  14.624
33734W        W 6159  39.915  13.942   4.133
33735W        W 6160   2.215  30.265  10.126
33736W        W 6161  24.622  40.445   4.074
33737W        W 6162  19.277   8.889   1.389
33738W        W 6163  34.840  18.619   0.832
33739W        W 6164  25.068   6.326  10.682
33740W        W 6165  32.508  41.361   0.827
33741W        W 6166  30.652  25.169   0.898
33742W        W 6167  21.217  32.307  14.431
33743W        W 6168  32.041  44.448   1.916
33744W        W 6169  43.606   1.816  13.547
33745W        W 6170  17.611   9.566   2.862
33746W        W 6171  10.731   4.679  13.233
33747W        W 6172  35.909   8.988  13.882
33748W        W 6173  13.243  37.826  13.319
33749W        W 6174  23.094   1.352   1.749
33750W        W 6175  34.431  43.288   1.223
33751W        W 6176  17.396   6.222  11.488
33752W        W 6177  28.035  11.095   0.433
33753W        W 6178   3.814  29.346  14.963
33754W        W 6179  37.430  31.281   0.283
33755W        W 6180  24.412  10.374  14.506
33756W        W 6181  34.839  15.815   0.413
33757W        W 6182  37.557  40.412   0.945
33758W        W 6183  16.279  37.390   2.280
33759W        W 6184  23.289  39.150   2.165
33760W        W 6185  18.837   3.084  14.927
33761W        W 6186  19.261  32.445   4.114
33762W        W 6187  11.600  27.346  11.518
33763W        W 6188  43.283  40.873  11.565
33764W        W 6189  13.758  36.390   2.256
33765W        W 6190   7.887   0.459   1.255
33766W        W 6191  40.334  35.889  11.123
33767W        W 6192  21.829  26.060  13.344
33768W        W 6193  34.840  39.401   2.201
33769W        W 6194  44.312  31.293   4.849
33770W        W 6195  40.239   3.899  10.505
33771W        W 6196  26.494  20.681   0.389
33772W        W 6197  42.703  12.274   3.814
33773W        W 6198  42.224  17.755   2.222
33774W        W 6199  16.786  33.855  11.527
33775W        W 6200  12.136  17.727  10.756
33776W        W 6201  16.724  10.318  10.474
33777W        W 6202  41.253  30.497   2.531
33778W        W 6203   4.352   9.941  11.024
33779W        W 6204  10.936  24.566  12.655
33780W        W 6205  37.383  10.107  10.433
33781W        W 6206  27.129  19.024   4.395
33782W        W 6207   1.735  24.658  14.282
33783W        W 6208  38.588   9.164  13.390
33784W        W 6209   9.761  27.225   1.628
33785W        W 6210  38.913   8.162  12.416
33786W        W 6211  39.879  38.940   4.898
33787W        W 6212  43.850  36.890   1.650
33788W        W 6213  28.856  24.018  14.469
33789W        W 6214  31.100  21.680   3.772
33790W        W 6215  40.818  31.061   3.244
33791W        W 6216  13.227  34.522  13.079
33792W        W 6217  16.119   4.197   3.195
33793W        W 6218  34.337  24.716   3.078
33794W        W 6219  32.483  21.960   1.254
33795W        W 6220  44.838   5.433   2.737
33796W        W 6221  13.203   1.541   3.076
33797W        W 6222  36.513  35.904   3.146
33798W        W 6223  14.844  35.927   4.700
33799W        W 6224  29.076  18.002   1.700
33800W        W 6225   9.903  12.698   2.485
33801W        W 6226   9.011   1.215   2.597
33802W        W 6227  14.406  13.530   2.720
33803W        W 6228  39.308  21.487   3.146
33804W        W 6229  39.378  42.369   4.166
33805W        W 6230  37.121  40.338  11.627
33806W        W 6231  27.163  11.128  10.586
33807W        W 6232   9.853   5.307  11.040
33808W        W 6233  25.450  44.463  10.255
33809W        W 6234  28.983   6.829   1.695
33810W        W 6235   3.719  39.318  10.849
33811W        W 6236   9.329  25.488  14.088
33812W        W 6237  32.188  10.227   0.312
33813W        W 6238  19.288  27.165   4.533
33814W        W 6239  18.181  27.485  14.057
33815W        W 6240  26.553  42.695   0.757
33816W        W 6241  15.266   7.824   1.333
33817W        W 6242  22.468  35.632   0.858
33818W        W 6243  29.665   5.253  11.959
33819W        W 6244   2.930  32.371  13.496
33820W        W 6245  10.781  28.968  10.580
33821W        W 6246  32.662   6.089  10.981
33822W        W 6247  43.906  22.062   3.890
33823W        W 6248  31.841  42.585   0.030
33824W        W 6249   7.273  42.026  10.790
33825W        W 6250  36.022  28.713   1.225
33826W        W 6251   2.978   8.806  11.119
33827W        W 6252  38.211  43.492   0.300
33828W        W 6253   2.563  16.192  12.997
33829W        W 6254  10.658   0.487   1.813
33830W        W 6255   4.730  34.560   2.292
33831W        W 6256   5.418   2.760   3.658
33832W        W 6257  28.315  20.519  13.313
33833W        W 6258  11.084  21.482   2.908
33834W        W 6259   2.178  36.655   0.384
33835W        W 6260  43.376  27.465  13.281
33836W        W 6261  10.647   7.363   3.082
33837W        W 6262   3.475  20.831   4.148
33838W        W 6263  42.822   1.827   4.792
33839W        W 6264  10.795  21.453  12.130
33840W        W 6265  18.910  22.472   0.481
33841W        W 6266  22.536  11.174   4.592
33842W        W 6267  27.097   7.368  12.450
33843W        W 6268  23.774  30.562   0.751
33844W        W 6269  29.884  23.699  13.224
33845W        W 6270  28.219  22.026  10.241
33846W        W 6271   0.745  26.699   2.219
33847W        W 6272  37.898  24.432  13.924
33848W        W 6273  17.258   2.998  13.659
33849W        W 6274  16.922  35.607   2.075
33850W        W 6275  19.588  36.879  14.839
33851W        W 6276  12.130  12.113   0.737
33852W        W 6277  35.437  10.353  11.540
33853W        W 6278  28.180  44.798   2.612
33854W        W 6279  29.440   6.182  10.613
33855W        W 6280  33.942  37.163  12.517
33856W        W 6281  16.949   1.426   2.657
33857W        W 6282  44.248   2.093  14.819
33858W        W 6283  23.203  39.329   1.672
33859W        W 6284  20.966   5.002   0.228
33860W        W 6285  40.736  28.076  11.941
33861W        W 6286  10.347  32.052   0.183
33862W        W 6287   0.810  34.039   3.644
33863W        W 6288  25.739  20.398   0.909
33864W        W 6289   4.285  17.919   0.480
33865W        W 6290  40.595  35.945   3.796
33866W        W 6291  13.265  40.854   2.680
33867W        W 6292  15.357  19.373   0.259
33868W        W 6293   0.471  25.640   4.455
33869W        W 6294   9.778  44.515  10.643
33870W        W 6295  19.818  18.045  14.848
33871W        W 6296  33.646  40.937   1.337
33872W        W 6297  31.651  40.507   0.328
33873W        W 6298  26.539  25.524  13.373
33874W        W 6299  33.644   1.227   2.702
33875W        W 6300   1.014  24.613   1.769
33876W        W 6301  41.105   0.330   0.356
33877W        W 6302  11.644  27.294  12.910
33878W        W 6303   8.625   2.763   1.651
33879W        W 6304  17.915  29.209   0.698
33880W        W 6305  41.310  43.021   1.305
33881W        W 6306  13.384  30.431   2.175
33882W        W 6307  31.603  30.198  11.621
33883W        W 6308   3.385   4.228   2.647
33884W        W 6309  42.917  28.097  11.119
33885W        W 6310  13.745  33.336   3.666
33886W        W 6311   7.948  15.398   4.624
33887W        W 6312  26.749  43.794   0.859
33888W        W 6313   5.201   0.362  12.394
33889W        W 6314   1.988  32.931  14.301
33890W        W 6315  15.765  16.336  11.595
33891W        W 6316   5.183  33.837   2.663
33892W        W 6317  36.058  17.214  11.266
33893W        W 6318  14.215   4.132  13.991
33894W        W 6319  14.295  33.223   4.290
33895W        W 6320   4.018  19.220  12.466
33896W        W 6321  17.765  39.480  14.613
33897W        W 6322  42.418  18.246   2.182
33898W        W 6323  29.241  36.283  12.486
33899W        W 6324   8.814  38.468  14.340
33900W        W 6325  42.900  41.460   3.753
33901W        W 6326  28.546   5.711   0.391
33902W        W 6327  20.630  38.036   2.898
33903W        W 6328  22.134  36.402  13.428
33904W        W 6329  38.787  44.004  13.483
33905W        W 6330   5.685  29.650   1.938
33906W        W 6331  29.544  15.007  14.439
33907W        W 6332  31.139  15.451  14.032
33908W        W 6333   1.571  19.368  12.676
33909W        W 6334  10.361   7.803   0.672
33910W        W 6335  30.835  39.642   1.911
33911W        W 6336  13.144  31.435   3.199
33912W        W 6337  43.366  44.290  13.927
33913W        W 6338  43.049  19.766  12.620
33914W        W 6339  20.993  28.059   0.464
33915W        W 6340  14.294   1.430   2.137
33916W        W 6341  20.572  12.864   4.699
33917W        W 6342  34.410  43.856  10.476
33918W        W 6343  16.067  35.035  10.656
33919W        W 6344  44.467   5.836   2.114
33920W        W 6345  30.669  41.579   4.118
33921W        W 6346  38.388  32.217   1.908
33922W        W 6347   7.238  21.985   4.170
33923W        W 6348   3.957   8.732   0.516
33924W        W 6349  24.932  43.933   2.616
33925W        W 6350   1.524  24.635   1.875
33926W        W 6351  26.660  29.586  10.657
33927W        W 6352  10.460  24.223   2.663
33928W        W 6353  15.850  32.024   3.178
33929W        W 6354   5.787   3.808  13.076
33930W        W 6355  34.906  24.056  14.979
33931W        W 6356  24.607  39.827  13.831
33932W        W 6357  18.055  22.684   0.394
33933W        W 6358  43.950  30.596   1.906
33934W        W 6359   3.696  12.796   4.615
33935W        W 6360  42.528   8.836   4.273
33936W        W 6361  39.029  14.689  12.483
33937W        W 6362   7.184  43.011  10.896
33938W        W 6363  39.822  31.360  14.520
33939W        W 6364   3.166  19.082  14.707
33940W        W 6365  37.859  28.183  13.973
33941W        W 6366  34.656  19.550   4.554
33942W        W 6367   2.726  14.128   4.532
33943W        W 6368  38.849  39.860   3.546
33944W        W 6369  23.040   9.634   2.327
33945W        W 6370  15.135  26.325  13.044
33946W        W 6371   8.245  20.759  12.633
33947W        W 6372  20.507  16.360  14.881
33948W        W 6373  39.489  43.941   3.901
33949W        W 6374  19.127  31.851   5.064
33950W        W 6375  43.530  42.784  13.774
33951W        W 6376  17.453   1.987   9.827
33952W        W 6377  14.238   4.229  12.408
33953W        W 6378  12.836  13.677   0.774
33954W        W 6379  38.790  30.366   5.123
33955W        W 6380  13.254   3.427   0.226
33956W        W 6381  43.298   9.122  14.001
33957W        W 6382  39.843  22.260  11.656
33958W        W 6383  15.352  27.186   3.652
33959W        W 6384  41.052  11.759   3.344
33960W        W 6385  22.525  34.053   0.703
33961W        W 6386   0.217  40.270   3.700
33962W        W 6387   8.787  11.606  14.321
33963W        W 6388  22.205  33.188  11.071
33964W        W 6389  38.075  21.339   3.970
33965W        W 6390  42.104  19.352   0.769
33966W        W 6391  30.148  14.274   1.392
33967W        W 6392  27.066  22.919   0.489
33968W        W 6393  36.321  23.673   0.648
33969W        W 6394  34.347  32.067   0.796
33970W        W 6395   4.974  19.098   0.767
33971W        W 6396  32.134  35.909   0.720
33972W        W 6397  11.710  20.144  10.561
33973W        W 6398   1.210  37.144  11.972
33974W        W 6399   9.763  16.155   4.251
33975W        W 6400   0.302   0.047   4.493
33976W        W 6401  35.945  28.145  11.193
33977W        W 6402  21.621   5.648   2.209
33978W        W 6403  38.044  32.809   0.910
33979W        W 6404   3.446   6.286   3.825
33980W        W 6405   7.409  13.255  10.685
33981W        W 6406  33.374  19.572   2.766
33982W        W 6407   3.200  27.251   0.825
33983W        W 6408  34.950  41.883   2.198
33984W        W 6409   6.089   8.206   2.662
33985W        W 6410  28.185   0.728   1.752
33986W        W 6411  26.724   6.911  13.464
33987W        W 6412  16.515  34.105   1.919
33988W        W 6413  36.002  16.455   2.961
33989W        W 6414  12.565  38.009   2.825
33990W        W 6415  39.291  25.623  14.391
33991W        W 6416  39.077  40.757   4.843
33992W        W 6417  15.257  13.500  14.206
33993W        W 6418  44.241   3.784   2.176
33994W        W 6419  25.258  31.017  10.607
33995W        W 6420  16.592   6.013  13.937
33996W        W 6421  29.564  30.330   2.186
33997W        W 6422  18.065   5.957   4.244
33998W        W 6423  19.220   6.136  11.444
33999W        W 6424   6.865  37.916   3.556
34000W        W 6425  10.596   0.002   3.735
34001W        W 6426  13.608   0.844   4.372
34002W        W 6427  35.451  41.891   4.390
34003W        W 6428  21.534  32.661  13.280
34004W        W 6429  43.016  15.056   2.168
34005W        W 6430   5.770  11.502   4.266
34006W        W 6431  36.829  27.185   1.857
34007W        W 6432  17.747  20.238  10.811
34008W        W 6433   9.431  20.615  12.519
34009W        W 6434   3.290   0.953   4.653
34010W        W 6435   0.422  32.344   3.615
34011W        W 6436  16.511  32.839  14.938
34012W        W 6437   3.721  38.003   4.111
34013W        W 6438  33.694   0.335  12.495
34014W        W 6439  43.871  11.144  14.623
34015W        W 6440  27.090  14.980   4.096
34016W        W 6441  41.586   8.266   3.412
34017W        W 6442  36.835  14.496   3.225
34018W        W 6443  33.551   9.975  13.879
34019W        W 6444  20.492  32.555  13.093
34020W        W 6445   8.288  29.436   1.393
34021W        W 6446   1.093   1.249   3.523
34022W        W 6447  10.423   5.353  11.972
34023W        W 6448  24.688   6.427  11.784
34024W        W 6449  24.133  43.243  13.317
34025W        W 6450  27.022  36.593   2.098
34026W        W 6451  24.619  35.297   3.611
34027W        W 6452   3.420  30.636   3.757
34028W        W 6453  35.507  14.491  13.162
34029W        W 6454  20.885  34.471   5.082
34030W        W 6455  39.129  26.250   0.287
34031W        W 6456  15.094  33.063  11.914
34032W        W 6457  29.013  29.926  14.533
34033W        W 6458  17.463   4.196  11.646
34034W        W 6459  30.063  41.547  12.004
34035W        W 6460   8.877  30.990   4.941
34036W        W 6461  24.212  28.196  10.827
34037W        W 6462  39.115  26.264  11.881
34038W        W 6463  22.686   9.880   3.251
34039W        W 6464  22.398  23.701  10.730
34040W        W 6465   9.364  19.142  11.110
34041W        W 6466  41.885  36.351   1.571
34042W        W 6467   3.798  41.825  14.479
34043W        W 6468  34.593   3.866   4.612
34044W        W 6469  27.668  26.180  14.400
34045W        W 6470   6.815  42.379   2.247
34046W        W 6471   4.935   3.059  11.647
34047W        W 6472  13.315  26.209   0.356
34048W        W 6473  22.277  36.246   4.867
34049W        W 6474  19.052  42.077   0.032
34050W        W 6475  30.147  31.571   1.659
34051W        W 6476  44.351  42.738  11.533
34052W        W 6477  41.860  28.588  12.373
34053W        W 6478  41.051  38.980  12.956
34054W        W 6479  18.072  32.533   0.382
34055W        W 6480  33.294   3.328   5.138
34056W        W 6481  35.077  18.730   0.322
34057W        W 6482  27.842  40.496   5.187
34058W        W 6483   0.929   3.424   2.773
34059W        W 6484  22.655  17.133  11.449
34060W        W 6485  41.526  41.151   0.938
34061W        W 6486  30.700  16.645  13.063
34062W        W 6487  16.224  30.668   0.769
34063W        W 6488  32.689  30.545   4.098
34064W        W 6489  14.570  40.474   4.808
34065W        W 6490   7.395  24.119  10.420
34066W        W 6491  37.523   6.640   2.376
34067W        W 6492   9.231  17.226   3.075
34068W        W 6493   0.756   4.607  12.710
34069W        W 6494   6.428  16.703  13.969
34070W        W 6495  27.993  40.431  11.919
34071W        W 6496  15.358  40.473  14.344
34072W        W 6497  18.515  33.139   3.206
34073W        W 6498   7.053  44.843   4.578
34074W        W 6499   8.850   2.471  14.834
34075W        W 6500  12.745   6.720  11.756
34076W        W 6501  34.596  33.403   3.279
34077W        W 6502   6.548  36.872   1.950
34078W        W 6503  42.690  17.813  12.340
34079W        W 6504  27.068  29.817  13.853
34080W        W 6505   4.188  33.796  13.144
34081W        W 6506  37.680  26.129  13.648
34082W        W 6507  42.272  19.625   5.102
34083W        W 6508   1.723  24.269   0.198
34084W        W 6509  17.135  15.405  13.650
34085W        W 6510  33.541  43.525  10.609
34086W        W 6511  29.219  28.503  11.386
34087W        W 6512  16.120   1.372  13.330
34088W        W 6513   7.469  30.163  11.434
34089W        W 6514  27.113   5.681  12.047
34090W        W 6515   8.126  20.959   4.128
34091W        W 6516  42.600   5.972   4.653
34092W        W 6517   0.332  24.131   2.311
34093W        W 6518  36.368  25.506   5.043
34094W        W 6519   9.446  20.562   0.444
34095W        W 6520  41.296   3.330  10.717
34096W        W 6521  12.616   8.506  11.895
34097W        W 6522   9.735  41.326  14.862
34098W        W 6523  21.110  44.773  11.518
34099W        W 6524  12.248  12.737   1.581
34100W        W 6525  17.066  24.021   2.676
34101W        W 6526  38.901  32.319  10.484
34102W        W 6527  33.885  33.394  14.017
34103W        W 6528   5.743   0.161   0.424
34104W        W 6529  30.293   2.514   4.348
34105W        W 6530  33.791  39.300   1.904
34106W        W 6531  26.173  19.159   4.361
34107W        W 6532  36.920  42.456   1.949
34108W        W 6533  13.828  29.401   0.021
34109W        W 6534  28.054  26.655  13.508
34110W        W 6535  43.325   1.943   4.626
34111W        W 6536   3.140   7.888   4.986
34112W        W 6537   2.218   7.295  13.391
34113W        W 6538   0.920   4.488   4.515
34114W        W 6539  23.725  34.912   3.129
34115W        W 6540  20.214   2.738  13.349
34116W        W 6541  25.463   2.180   1.196
34117W        W 6542  39.730  44.508   4.307
34118W        W 6543  19.856   0.408  11.098
34119W        W 6544  18.296  35.074   1.373
34120W        W 6545  43.477  41.321   2.313
34121W        W 6546  16.633  13.164  10.940
34122W        W 6547  26.240  22.620  14.575
34123W        W 6548  25.986  29.419   3.991
34124W        W 6549  40.915  10.212   0.430
34125W        W 6550  28.415  18.303   4.262
34126W        W 6551  27.122  19.038  11.506
34127W        W 6552  27.940  43.853  12.511
34128W        W 6553  29.100   3.390  11.988
34129W        W 6554  18.273  43.027  14.314
34130W        W 6555  10.902   6.212   0.459
34131W        W 6556   8.694  30.759  14.666
34132W        W 6557  18.172   6.845   3.682
34133W        W 6558   9.337  13.299  14.346
34134W        W 6559   6.341  40.395  13.437
34135W        W 6560  20.966   7.652  11.375
34136W        W 6561  25.959  24.630   2.671
34137W        W 6562   2.911  29.000  12.845
34138W        W 6563  14.055  38.448   3.174
34139W        W 6564  38.264   3.412   0.215
34140W        W 6565   4.753  11.331   1.916
34141W        W 6566  10.581  34.641   2.532
34142W        W 6567  32.569   6.153  14.805
34143W        W 6568  13.306  13.268  12.931
34144W        W 6569  13.544   3.649   4.125
34145W        W 6570  19.657  38.471  13.392
34146W        W 6571  20.485   9.468   2.765
34147W        W 6572  44.778  42.837   3.335
34148W        W 6573   1.466  33.420   4.609
34149W        W 6574  24.419   6.119  11.440
34150W        W 6575  17.342  28.521   1.748
34151W        W 6576   1.541  40.208   0.024
34152W        W 6577  36.939  32.561  11.997
34153W        W 6578  27.816  38.254   3.320
34154W        W 6579  10.127  34.408   4.114
34155W        W 6580  17.363  41.278   2.073
34156W        W 6581  42.267  14.241   2.414
34157W        W 6582  33.504  10.114  10.423
34158W        W 6583  38.163  40.331  11.465
34159W        W 6584  30.619  28.401   1.232
34160W        W 6585  29.647   4.963   2.417
34161W        W 6586  41.375  41.744  11.028
34162W        W 6587  23.001  29.200  11.665
34163W        W 6588  26.604  37.553  11.605
34164W        W 6589  20.701  36.877   1.133
34165W        W 6590  13.301   4.762   0.529
34166W        W 6591  22.915   5.438   3.300
34167W        W 6592   5.238  29.543   0.624
34168W        W 6593  13.067  30.815  12.929
34169W        W 6594   9.615  37.139  12.208
34170W        W 6595  21.309  41.414   2.660
34171W        W 6596   5.743  42.392  13.695
34172W        W 6597  22.205  39.649   1.798
34173W        W 6598   5.107  44.664   2.270
34174W        W 6599  43.156  29.119   3.356
34175W        W 6600  26.202   1.521  12.596
34176W        W 6601   1.452   7.260  11.597
34177W        W 6602  40.811  16.416  14.378
34178W        W 6603   4.277  14.622   2.775
34179W        W 6604  23.614   4.430   2.550
34180W        W 6605   9.528  19.847  13.338
34181W        W 6606  22.516  34.522   1.322
34182W        W 6607   6.549   9.439  10.531
34183W        W 6608   0.940  28.535   1.553
34184W        W 6609  33.523  30.670  13.854
34185W        W 6610  31.102  26.718  10.072
34186W        W 6611   2.884   9.645   1.212
34187W        W 6612  36.461   9.130  12.062
34188W        W 6613   5.204  29.624   1.128
34189W        W 6614  22.043  28.632   3.362
34190W        W 6615   1.827  15.252  11.647
34191W        W 6616  37.225  19.703   5.190
34192W        W 6617  31.501  31.089   1.275
34193W        W 6618  31.432  43.973  14.908
34194W        W 6619  30.852  35.010  11.468
34195W        W 6620   0.878   4.895   1.774
34196W        W 6621  20.559   1.388   2.581
34197W        W 6622   6.489   8.081   0.425
34198W        W 6623  25.571  26.538  10.061
34199W        W 6624   5.888   0.145  14.006
34200W        W 6625  44.999  27.709   1.713
34201W        W 6626  21.037  39.881   0.454
34202W        W 6627   7.217   4.417  10.710
34203W        W 6628   3.731  17.728   3.658
34204W        W 6629   7.832   8.719   3.358
34205W        W 6630  22.072  30.234  10.345
34206W        W 6631   7.136  24.613   0.208
34207W        W 6632  19.870  36.817   2.808
34208W        W 6633   6.463   1.936   0.622
34209W        W 6634  26.035  10.375   2.363
34210W        W 6635  24.332  31.948   0.883
34211W        W 6636  24.231  28.643   0.511
34212W        W 6637  22.529  21.630   5.007
34213W        W 6638   5.350  20.896   1.117
34214W        W 6639  18.360  16.795   4.761
34215W        W 6640  15.610  31.996   4.094
34216W        W 6641  37.249  40.407   2.352
34217W        W 6642  13.014  35.644   1.935
34218W        W 6643  42.906  38.875   1.468
34219W        W 6644  23.574  38.595  11.511
34220W        W 6645  41.565  26.031   1.185
34221W        W 6646  23.040  11.773  14.210
34222W        W 6647   5.761   8.302  13.422
34223W        W 6648  38.847  11.462  14.273
34224W        W 6649  27.702  11.338  12.282
34225W        W 6650  39.518  41.302   1.856
34226W        W 6651   1.219  14.752  12.800
34227W        W 6652  17.670  37.069  12.855
34228W        W 6653   0.796  44.925   3.722
34229W        W 6654   0.265   2.758  10.756
34230W        W 6655  22.061  25.164   3.863
34231W        W 6656   2.889  43.510   4.627
34232W        W 6657  34.460  39.684  11.128
34233W        W 6658  22.546  31.326   1.888
34234W        W 6659  22.953  30.973  11.075
34235W        W 6660  43.744  25.691  14.934
34236W        W 6661   4.367  12.062  12.030
34237W        W 6662  22.844  14.316  13.825
34238W        W 6663  30.923  37.318  14.977
34239W        W 6664   9.950  29.047   1.347
34240W        W 6665   7.894  11.623  11.396
34241W        W 6666  33.674   1.180   1.835
34242W        W 6667  11.027  42.151  11.571
34243W        W 6668  19.910  20.167  14.914
34244W        W 6669   4.955  14.352  13.948
34245W        W 6670  40.408   1.497   0.690
34246W        W 6671  16.230  39.448   0.269
34247W        W 6672  13.073   8.256   1.419
34248W        W 6673   7.746  17.742   4.304
34249W        W 6674  12.672  35.305  14.889
34250W        W 6675  44.714   5.309  11.690
34251W        W 6676  18.282  39.092   1.989
34252W        W 6677  21.153  39.057   4.218
34253W        W 6678  21.779  42.553  10.672
34254W        W 6679  15.689  35.440  11.429
34255W        W 6680   3.222  30.186  13.030
34256W        W 6681  13.589   2.185  14.865
34257W        W 6682  16.136  35.858  14.445
34258W        W 6683  27.056  24.294  12.611
34259W        W 6684   9.324  39.206  14.347
34260W        W 6685  12.271  20.001   4.681
34261W        W 6686   2.761  29.960  14.371
34262W        W 6687   1.480   7.490  11.119
34263W        W 6688  24.183  39.524  13.838
34264W        W 6689  40.059   9.160  13.799
34265W        W 6690  11.025  25.950  14.876
34266W        W 6691  42.720  29.412   3.291
34267W        W 6692  22.765  11.680  10.130
34268W        W 6693  19.983  26.164   2.237
34269W        W 6694  15.986  40.682  12.695
34270W        W 6695   4.962   3.310   0.429
34271W        W 6696   5.114  25.206  12.511
34272W        W 6697  35.786  26.104  14.064
34273W        W 6698   9.539  38.276  14.223
34274W        W 6699  42.441   4.879  13.463
34275W        W 6700   3.433  17.327   1.897
34276W        W 6701  18.056  27.898   1.077
34277W        W 6702   5.047  21.153   2.815
34278W        W 6703  31.894  12.131  12.429
34279W        W 6704  31.451   8.291  14.766
34280W        W 6705   4.020  16.808   4.795
34281W        W 6706  15.567  25.212   0.873
34282W        W 6707  22.048  20.493  12.511
34283W        W 6708  39.023  43.963   0.080
34284W        W 6709  41.215  38.038   1.350
34285W        W 6710  35.988  44.044   1.904
34286W        W 6711   6.813  23.497  14.051
34287W        W 6712  22.236   6.455  12.505
34288W        W 6713  16.157  28.444   2.577
34289W        W 6714  15.746  31.501  10.660
34290W        W 6715   4.845  10.927   3.390
34291W        W 6716   3.778   4.522   2.829
34292W        W 6717  21.514  32.710   2.812
34293W        W 6718  18.892  14.617  11.862
34294W        W 6719  38.616  12.679   2.777
34295W        W 6720  42.312  18.452   1.712
34296W        W 6721  24.527  42.218   2.680
34297W        W 6722  15.646  20.497  11.205
34298W        W 6723  27.331  16.629  13.119
34299W        W 6724  20.508  42.723  14.928
34300W        W 6725   4.924  28.071   2.466
34301W        W 6726  19.117  40.871   3.222
34302W        W 6727  20.866  19.065   4.211
34303W        W 6728  25.661  29.376  14.743
34304W        W 6729  15.143  33.584  10.675
34305W        W 6730  41.045  32.202  11.163
34306W        W 6731   8.778  18.314  11.177
34307W        W 6732  32.912  12.771  11.519
34308W        W 6733   5.403  34.672   0.940
34309W        W 6734   2.292   0.167  13.788
34310W        W 6735  26.901  34.631  12.261
34311W        W 6736  21.606  22.035   1.887
34312W        W 6737   1.450  14.995  14.798
34313W        W 6738   9.752  34.407  10.559
34314W        W 6739  17.673  36.566  13.587
34315W        W 6740  20.273   8.571   1.288
34316W        W 6741  33.634  17.185   2.403
34317W        W 6742  11.598  29.916  14.992
34318W        W 6743  21.445  12.388   0.714
34319W        W 6744  40.006   1.177  12.981
34320W        W 6745   8.771  30.154  11.952
34321W        W 6746  40.035  22.738  13.578
34322W        W 6747   2.529  17.371  10.320
34323W        W 6748  40.458  37.579   1.333
34324W        W 6749  17.593  40.287  13.938
34325W        W 6750  11.144   7.173   2.422
34326W        W 6751  37.538  20.697   3.883
34327W        W 6752   5.278  39.304  12.453
34328W        W 6753  30.882  18.752  10.154
34329W        W 6754  39.013  35.996  10.764
34330W        W 6755  18.479  40.537  14.063
34331W        W 6756   7.381   2.270   3.652
34332W        W 6757   9.348  21.206   4.539
34333W        W 6758  35.843   7.890  10.993
34334W        W 6759  16.601  19.544  14.218
34335W        W 6760   6.453  41.129  13.145
34336W        W 6761  36.917   6.489   0.507
34337W        W 6762  25.662  24.695   1.780
34338W        W 6763   1.964  20.714   4.179
34339W        W 6764  18.197  30.401   9.640
34340W        W 6765   6.442  15.968   3.754
34341W        W 6766   5.235   6.897   0.052
34342W        W 6767  15.814  17.560   0.867
34343W        W 6768   1.560  13.166   4.467
34344W        W 6769  12.078  37.990  12.375
34345W        W 6770  43.806  31.350  10.771
34346W        W 6771  17.521  10.639  14.491
34347W        W 6772   3.391  41.192  12.946
34348W        W 6773  19.989   1.693   4.137
34349W        W 6774  43.410   8.661  13.045
34350W        W 6775  27.190  11.079   3.256
34351W        W 6776  30.264  39.307   4.304
34352W        W 6777  42.855  27.459  10.698
34353W        W 6778  21.343  32.122  13.067
34354W        W 6779  21.630  18.792  10.920
34355W        W 6780  44.319   4.618   0.978
34356W        W 6781   4.439  30.030   3.182
34357W        W 6782   7.460  12.344  12.056
34358W        W 6783  23.537  14.215   4.719
34359W        W 6784   2.953  11.190  12.075
34360W        W 6785  26.457  32.513   1.902
34361W        W 6786  37.179   2.656   1.342
34362W        W 6787  13.387  29.471  13.086
34363W        W 6788  29.022   2.462   4.551
34364W        W 6789  41.059  44.935   4.084
34365W        W 6790  25.686  27.194   0.821
34366W        W 6791   1.020  42.835  12.553
34367W        W 6792  25.181  19.239  14.507
34368W        W 6793  28.054  36.937   1.488
34369W        W 6794  41.228  28.453  10.967
34370W        W 6795   7.179  42.617   4.195
34371W        W 6796  21.235   8.182   2.915
34372W        W 6797  11.043  39.695  14.368
34373W        W 6798  16.997   0.890   0.308
34374W        W 6799  32.053  24.307  14.972
34375W        W 6800  28.065   8.781  12.779
34376W        W 6801  27.220  41.194   4.238
34377W        W 6802   5.975  19.356  13.765
34378W        W 6803   7.734  39.763   3.819
34379W        W 6804   8.033  16.680   0.411
34380W        W 6805  27.642  44.027   3.863
34381W        W 6806   3.151   9.326  14.079
34382W        W 6807  29.161  30.749  10.007
34383W        W 6808  25.886  32.144  12.474
34384W        W 6809   7.344  33.124   3.502
34385W        W 6810  15.210  41.946   4.741
34386W        W 6811  24.097  34.457  13.359
34387W        W 6812   6.904  38.501   2.250
34388W        W 6813  17.063  31.027  12.771
34389W        W 6814  41.551  26.708  10.591
34390W        W 6815  31.470  28.953  12.884
34391W        W 6816  16.047  34.007  13.709
34392W        W 6817  35.293  32.936   2.356
34393W        W 6818  17.629  20.289  14.987
34394W        W 6819  14.240   3.740  12.132
34395W        W 6820  17.569  13.548  14.339
34396W        W 6821  17.560  32.517   0.282
34397W        W 6822   7.791  28.205   1.753
34398W        W 6823   7.710  40.674  11.625
34399W        W 6824  35.039  12.050  12.022
34400W        W 6825  18.599  33.370  10.612
34401W        W 6826  20.555  37.331  14.795
34402W        W 6827  16.242  20.606   2.153
34403W        W 6828   7.327   9.144  14.495
34404W        W 6829  42.070   4.692   2.776
34405W        W 6830  29.599  43.714  11.908
34406W        W 6831   7.835   9.296  12.404
34407W        W 6832  14.310  14.137   2.249
34408W        W 6833   2.167  22.276   2.185
34409W        W 6834  14.397  44.354  10.481
34410W        W 6835   0.868  18.277   1.284
34411W        W 6836  12.025  13.345   4.622
34412W        W 6837  24.420  19.324  14.098
34413W        W 6838  16.355   8.890   4.174
34414W        W 6839   3.362  29.975   0.228
34415W        W 6840   7.305  33.745  12.473
34416W        W 6841   4.966  20.220  13.068
34417W        W 6842   5.681  26.743  13.782
34418W        W 6843  19.211  43.552   2.815
34419W        W 6844   1.834  36.910  11.028
34420W        W 6845  20.982  35.478  12.465
34421W        W 6846   9.456  35.116   0.536
34422W        W 6847  31.363   8.666   2.727
34423W        W 6848   3.550   3.873  10.719
34424W        W 6849  37.295  27.482  11.148
34425W        W 6850   9.755  32.525  13.639
34426W        W 6851  30.887  41.901   2.355
34427W        W 6852  21.942  16.088   3.111
34428W        W 6853  37.148  29.919  14.221
34429W        W 6854  43.006  35.441  13.330
34430W        W 6855  30.092   2.429  12.929
34431W        W 6856  23.763  29.003  12.517
34432W        W 6857  43.442  28.522  12.633
34433W        W 6858   7.794   4.262  13.025
34434W        W 6859  34.685  43.711   3.248
34435W        W 6860  18.196  15.599   0.379
34436W        W 6861   7.797  14.768   3.111
34437W        W 6862   2.976  10.676   4.041
34438W        W 6863  12.810  12.391  13.576
34439W        W 6864  21.746  30.363   3.670
34440W        W 6865  24.182  44.833  10.704
34441W        W 6866  26.069  16.310   4.278
34442W        W 6867   6.378  20.197   3.868
34443W        W 6868   6.372  31.803   0.242
34444W        W 6869  22.246  27.259   0.313
34445W        W 6870  35.368  41.956   2.485
34446W        W 6871  24.708  22.322  13.269
34447W        W 6872  29.409  12.620  13.878
34448W        W 6873  37.827  21.465   2.192
34449W        W 6874  26.558  44.182   3.622
34450W        W 6875  30.116   4.661   1.704
34451W        W 6876  39.540  30.495  11.971
34452W        W 6877  30.712  11.393   2.271
34453W        W 6878  15.423   3.040  13.501
34454W        W 6879  28.008   1.789  10.462
34455W        W 6880  41.129   5.601   2.040
34456W        W 6881   5.682  31.494  11.760
34457W        W 6882  17.088  42.840  14.686
34458W        W 6883  16.281  25.217  13.130
34459W        W 6884  20.269  44.112  10.518
34460W        W 6885   7.485  31.754  10.585
34461W        W 6886  23.966   4.421   2.133
34462W        W 6887  19.616  27.118   0.180
34463W        W 6888  15.273  44.902   2.204
34464W        W 6889  44.317  24.278  11.192
34465W        W 6890   1.328  16.866   4.554
34466W        W 6891  30.088   3.854   3.110
34467W        W 6892  30.046  17.205   2.816
34468W        W 6893  27.875   0.491  12.353
34469W        W 6894  13.089   2.445  12.963
34470W        W 6895  16.422  13.650   3.773
34471W        W 6896  43.937  12.772   0.416
34472W        W 6897  21.982  21.585  14.494
34473W        W 6898  15.772  29.479  14.994
34474W        W 6899  27.513  18.792   4.064
34475W        W 6900  20.879  30.461   4.626
34476W        W 6901  21.176  26.734  12.401
34477W        W 6902  38.315   7.797   4.106
34478W        W 6903  43.916   3.762   3.749
34479W        W 6904  34.533  16.112  14.164
34480W        W 6905  14.649   1.882  12.063
34481W        W 6906  30.033  31.786   3.763
34482W        W 6907  15.076   9.407  12.149
34483W        W 6908  44.944  39.199  12.100
34484W        W 6909  16.126  30.665   5.071
34485W        W 6910  21.409  11.444   9.666
34486W        W 6911  23.233  36.384  14.089
34487W        W 6912   9.381   0.880   2.640
34488W        W 6913  36.156  11.335  13.832
34489W        W 6914  32.206  18.600   5.128
34490W        W 6915  12.520  23.559  14.285
34491W        W 6916   6.191  22.530  10.310
34492W        W 6917  10.773  43.812   4.377
34493W        W 6918  19.332   4.528  12.330
34494W        W 6919  39.921  15.337   0.503
34495W        W 6920  24.521  32.626   2.283
34496W        W 6921  14.094   3.375   4.578
34497W        W 6922  20.930   0.495   0.318
34498W        W 6923   0.738  12.105   0.546
34499W        W 6924   6.244  43.865  11.443
34500W        W 6925  30.956  29.402  11.534
34501W        W 6926   4.288  19.059   3.327
34502W        W 6927  31.952  16.656   3.516
34503W        W 6928  44.875  15.377   2.389
34504W        W 6929  21.722  43.355   1.457
34505W        W 6930  19.933  11.585   5.180
34506W        W 6931   6.861  38.977   2.413
34507W        W 6932   8.663  22.745   2.807
34508W        W 6933  17.649  31.017   4.092
34509W        W 6934  43.891  44.256  13.430
34510W        W 6935  30.860  13.204   2.348
34511W        W 6936   3.368  39.583   1.369
34512W        W 6937  28.544  31.082   0.049
34513W        W 6938   1.276  43.238   0.318
34514W        W 6939  18.990  30.897  14.303
34515W        W 6940  26.196  20.253   2.831
34516W        W 6941  12.419  41.471   0.913
34517W        W 6942  39.882   6.899   3.137
34518W        W 6943  39.395   3.907  10.594
34519W        W 6944   0.489   5.874  13.781
34520W        W 6945  16.793  41.748  13.077
34521W        W 6946   9.865   1.369   1.330
34522W        W 6947   7.425  41.523   1.930
34523W        W 6948  14.652  11.233   3.765
34524W        W 6949  14.566  19.999  13.048
34525W        W 6950  39.319  12.777   0.514
34526W        W 6951  20.729  13.294   2.468
34527W        W 6952   8.719  18.731   3.075
34528W        W 6953  11.585  16.037   3.760
34529W        W 6954  44.553  13.820  13.418
34530W        W 6955  32.972  33.437   1.850
34531W        W 6956  28.919   2.695  13.655
34532W        W 6957  24.512   3.742   2.800
34533W        W 6958  14.141   2.800   3.865
34534W        W 6959   7.818   9.660  10.674
34535W        W 6960  11.760  24.727  14.896
34536W        W 6961  17.121   1.888   5.406
34537W        W 6962  24.066  37.517  13.795
34538W        W 6963  15.151  30.260   1.218
34539W        W 6964  22.462  33.706  13.396
34540W        W 6965   0.939  15.082  14.815
34541W        W 6966  30.394   3.396  13.660
34542W        W 6967   1.247  38.157  12.043
34543W        W 6968   1.961  11.197   2.300
34544W        W 6969  28.112   9.434   4.970
34545W        W 6970   3.833   9.335   3.100
34546W        W 6971  27.889  39.076   0.937
34547W        W 6972  16.806  30.183   4.637
34548W        W 6973  19.419  22.619   0.524
34549W        W 6974  28.095  23.789  14.061
34550W        W 6975  13.779   9.331  14.487
34551W        W 6976  37.907  21.656   3.611
34552W        W 6977  19.455  32.418  14.956
34553W        W 6978  27.475  15.256  12.499
34554W        W 6979  20.609   1.362  14.729
34555W        W 6980  33.305  28.092  12.708
34556W        W 6981   0.975  24.180  14.929
34557W        W 6982  41.871  10.566   1.761
34558W        W 6983   7.392  29.422   4.479
34559W        W 6984  32.892  23.968  14.909
34560W        W 6985  34.379   2.298  14.871
34561W        W 6986   5.471  32.492  14.820
34562W        W 6987  16.578  32.359  14.729
34563W        W 6988  35.889   7.344  12.908
34564W        W 6989  32.450  11.117  11.333
34565W        W 6990   3.547  17.715   4.141
34566W        W 6991   0.311  33.976  11.602
34567W        W 6992  39.304  19.557  13.036
34568W        W 6993  38.890  17.783   0.022
34569W        W 6994  19.532  34.013   3.255
34570W        W 6995  35.452  23.107   0.092
34571W        W 6996   0.929   0.861   0.497
34572W        W 6997  17.003  37.176   4.417
34573W        W 6998  12.205  40.762  12.623
34574W        W 6999  17.513  14.805  12.992
34575W        W 7000  36.771   3.306   1.738
34576W        W 7001  34.080  38.083  10.665
34577W        W 7002  19.732  38.552  11.488
34578W        W 7003   7.830  23.548  14.188
34579W        W 7004  29.583   9.196   4.774
34580W        W 7005  13.819  44.888  12.514
34581W        W 7006  12.486  11.558   4.461
34582W        W 7007  22.238  13.790  10.776
34583W        W 7008  40.960  13.477   3.589
34584W        W 7009  12.672  10.564  14.058
34585W        W 7010   3.569   3.213  13.409
34586W        W 7011  24.641   4.247   4.749
34587W        W 7012  28.658  32.899  13.729
34588W        W 7013  27.042   2.537  11.440
34589W        W 7014  29.095  40.895  11.194
34590W        W 7015  26.481  17.278   2.345
34591W        W 7016  27.446  20.914  13.509
34592W        W 7017  11.565  31.961   1.409
34593W        W 7018  39.830  13.164  13.594
34594W        W 7019  21.288   7.799   1.286
34595W        W 7020  29.769  40.529   4.275
34596W        W 7021   7.327  11.854   3.625
34597W        W 7022  37.993  26.641  11.272
34598W        W 7023  37.234  32.501  14.805
34599W        W 7024   9.663  38.410   3.859
34600W        W 7025  16.846  33.159   1.789
34601W        W 7026  35.576  43.342   0.843
34602W        W 7027  17.126  31.616  11.963
34603W        W 7028  17.278  13.239   0.855
34604W        W 7029  33.449  35.881   1.889
34605W        W 7030  16.872  41.442  13.724
34606W        W 7031   3.894   2.920  10.697
34607W        W 7032  26.151  42.438  12.980
34608W        W 7033   8.673  24.498   1.314
34609W        W 7034   5.939  44.107   4.736
34610W        W 7035  30.659  37.840   2.190
34611W        W 7036   9.505  29.645  11.969
34612W        W 7037  13.201  25.622   4.828
34613W        W 7038   8.896  25.029  13.972
34614W        W 7039  24.513  39.801  11.327
34615W        W 7040  27.767  16.753  12.860
34616W        W 7041  34.501  15.140   4.124
34617W        W 7042  30.978  30.700   3.653
34618W        W 7043  28.106  10.373  12.109
34619W        W 7044   9.106   1.946  13.010
34620W        W 7045  32.703  16.761  14.702
34621W        W 7046  42.441   0.347  10.764
34622W        W 7047  26.915  14.442  12.818
34623W        W 7048  28.224  28.680  13.971
34624W        W 7049  36.495   4.853   3.577
34625W        W 7050  17.607  29.640  13.000
34626W        W 7051  10.328   9.566  11.527
34627W        W 7052  42.841   0.907  14.072
34628W        W 7053   7.384  23.115   0.909
34629W        W 7054  28.445  28.596  11.958
34630W        W 7055   7.165  27.100  11.637
34631W        W 7056  23.987   2.352  11.733
34632W        W 7057  37.835  43.619  12.467
34633W        W 7058  42.416  41.681  13.475
34634W        W 7059  21.251  31.091  13.006
34635W        W 7060  25.646  28.596  10.747
34636W        W 7061  14.275   2.810  13.780
34637W        W 7062   5.740  13.289  11.464
34638W        W 7063   0.806  42.637  11.712
34639W        W 7064  12.335   2.929   0.912
34640W        W 7065  38.868   9.281  10.999
34641W        W 7066  30.996   0.183   2.157
34642W        W 7067  28.555   7.619   1.375
34643W        W 7068  15.240   1.733  13.607
34644W        W 7069   2.046  16.571   1.777
34645W        W 7070  14.225  39.115  11.187
34646W        W 7071   2.352  16.897  12.606
34647W        W 7072  12.530  43.241  13.385
34648W        W 7073  24.554  22.720  13.570
34649W        W 7074  13.239  37.109   0.871
34650W        W 7075   2.133  26.908  12.149
34651W        W 7076  39.088  26.397   2.618
34652W        W 7077  18.573  42.364  11.531
34653W        W 7078  15.633   0.418   2.877
34654W        W 7079  27.645  41.398  10.564
34655W        W 7080  36.684  19.461   5.044
34656W        W 7081  38.943  10.080  14.496
34657W        W 7082  38.526   8.047  14.602
34658W        W 7083   0.547  35.939   0.051
34659W        W 7084  41.539  19.537   1.489
34660W        W 7085  36.829  28.095   2.866
34661W        W 7086   7.109  42.676   4.941
34662W        W 7087  14.648  27.265  14.417
34663W        W 7088  21.287  20.156  14.299
34664W        W 7089   4.429  30.044  13.589
34665W        W 7090  27.745  39.959  14.367
34666W        W 7091   0.498  28.621   3.788
34667W        W 7092  39.367  34.927   4.498
34668W        W 7093  21.288  14.219   4.220
34669W        W 7094  40.691  24.505  11.446
34670W        W 7095  20.801  40.074  14.989
34671W        W 7096   4.365  32.269   1.802
34672W        W 7097  24.490  27.450  13.841
34673W        W 7098   3.672  34.381   1.304
34674W        W 7099  23.434  35.072  13.297
34675W        W 7100  28.663  14.034  13.096
34676W        W 7101  16.821  40.839   4.605
34677W        W 7102   2.279  24.230  10.927
34678W        W 7103  30.136  22.757   0.868
34679W        W 7104   3.462  29.992   4.948
34680W        W 7105  28.033  25.906   4.301
34681W        W 7106  32.590  18.681   2.653
34682W        W 7107   1.829  18.199  12.271
34683W        W 7108   7.302   2.044  11.600
34684W        W 7109  25.049  39.144   2.752
34685W        W 7110  10.623  27.993  11.982
34686W        W 7111  17.720   6.685   2.150
34687W        W 7112  29.677   0.306   3.906
34688W        W 7113  25.207   0.427   4.669
34689W        W 7114  11.086  41.951   4.131
34690W        W 7115   0.415  35.474   3.638
34691W        W 7116  16.726  12.334  10.400
34692W        W 7117  27.253  19.552  14.589
34693W        W 7118  11.855  10.004   0.501
34694W        W 7119  36.149  16.795   4.216
34695W        W 7120  10.178  35.459   3.136
34696W        W 7121  11.710   8.620   0.888
34697W        W 7122  14.769  12.172   4.428
34698W        W 7123  24.055  23.613  11.493
34699W        W 7124  23.277   7.704   3.181
34700W        W 7125  37.819   4.174  13.884
34701W        W 7126  42.923  16.315   4.347
34702W        W 7127  20.517  42.883  14.433
34703W        W 7128   1.016  36.407   2.279
34704W        W 7129  36.644  38.816   1.724
34705W        W 7130  15.826  14.632   1.467
34706W        W 7131   8.711  13.287  13.038
34707W        W 7132   4.619   5.682  12.080
34708W        W 7133   2.197  38.202  11.611
34709W        W 7134   4.844  26.725  13.919
34710W        W 7135   7.693  15.804  10.317
34711W        W 7136  18.324  34.490  13.789
34712W        W 7137   0.800   4.565   0.337
34713W        W 7138  11.156   0.625  14.982
34714W        W 7139  13.236   9.099   4.238
34715W        W 7140  34.303  28.121  11.584
34716W        W 7141  20.547  33.579   1.783
34717W        W 7142  34.422  25.427   0.012
34718W        W 7143  36.480  16.899   3.147
34719W        W 7144  29.944   1.996  11.612
34720W        W 7145   5.064   6.007  14.314
34721W        W 7146  20.188  20.349   2.609
34722W        W 7147   9.177   1.413  10.627
34723W        W 7148  30.172  42.190   2.802
34724W        W 7149  32.935  41.784   4.393
34725W        W 7150   4.422  16.294  12.559
34726W        W 7151  11.049  25.109  11.429
34727W        W 7152  25.100  37.113  10.694
34728W        W 7153  23.941  34.863   1.297
34729W        W 7154  13.624  13.246   0.714
34730W        W 7155  42.317  38.625   0.305
34731W        W 7156   6.024  26.550   2.864
34732W        W 7157  19.305  38.391  13.922
34733W        W 7158  15.155   0.736   5.280
34734W        W 7159  17.009  37.069  11.180
34735W        W 7160  20.625  17.068  11.939
34736W        W 7161  12.707  32.932  14.516
34737W        W 7162   5.658   3.780  11.570
34738W        W 7163  27.565  24.014   3.266
34739W        W 7164  20.717   0.916   4.535
34740W        W 7165  40.782  30.311   2.399
34741W        W 7166   9.267  43.498   4.573
34742W        W 7167   0.562  30.635   4.138
34743W        W 7168  29.713  27.251  13.290
34744W        W 7169  10.546  30.317  10.108
34745W        W 7170  40.670  18.853  11.611
34746W        W 7171  19.396   2.738   2.486
34747W        W 7172  39.012  42.591  14.509
34748W        W 7173  44.725   9.406  13.914
34749W        W 7174   2.519  36.043  10.185
34750W        W 7175  18.303  39.784   2.616
34751W        W 7176  16.759  25.889  14.774
34752W        W 7177  15.869   4.217   1.206
34753W        W 7178  34.563  20.716  13.829
34754W        W 7179  40.467   8.744  10.396
34755W        W 7180   8.731  39.309  11.898
34756W        W 7181  41.199  40.777   0.263
34757W        W 7182  31.460  16.119  14.962
34758W        W 7183  30.294  25.522   1.006
34759W        W 7184  37.320  32.093  11.327
34760W        W 7185  23.812  37.368   4.330
34761W        W 7186  25.504   6.234  13.464
34762W        W 7187  34.016  19.189   3.002
34763W        W 7188  39.966   6.429  12.563
34764W        W 7189  17.806  19.699   4.598
34765W        W 7190  43.535  35.433  12.345
34766W        W 7191  13.282  36.595   0.869
34767W        W 7192  29.292  41.524  11.490
34768W        W 7193  37.567   4.380   2.624
34769W        W 7194   8.695  36.619   4.674
34770W        W 7195   8.309  40.277   4.314
34771W        W 7196  26.487  30.439  11.783
34772W        W 7197   3.967   4.373  14.536
34773W        W 7198  10.279  33.398   1.407
34774W        W 7199  44.963  17.074  14.786
34775W        W 7200   5.937   2.275   1.311
34776W        W 7201  26.979  11.325   1.280
34777W        W 7202  20.127  12.423  10.961
34778W        W 7203  37.403  40.710  11.909
34779W        W 7204   7.336  28.149   0.920
34780W        W 7205  22.407   0.737   4.593
34781W        W 7206  19.906  28.180   1.425
34782W        W 7207  44.063  31.876   2.448
34783W        W 7208  23.218  16.202   2.983
34784W        W 7209  35.867  27.428   1.542
34785W        W 7210  26.498   9.908  12.065
34786W        W 7211  30.724  34.337   0.005
34787W        W 7212  37.433  41.428   3.175
34788W        W 7213  37.461  14.370   3.711
34789W        W 7214   2.810  44.005  12.534
34790W        W 7215   5.136  34.044  13.037
34791W        W 7216  41.368  42.948  12.952
34792W        W 7217   4.954   6.483   1.471
34793W        W 7218  38.155  28.978   4.550
34794W        W 7219  13.267  39.296  11.123
34795W        W 7220  31.890  27.180   0.979
34796W        W 7221  24.850  33.894  14.367
34797W        W 7222  13.062  43.934   2.139
34798W        W 7223  15.400   7.720   4.248
34799W        W 7224  14.069   7.799  10.469
34800W        W 7225  35.958   0.873   3.185
34801W        W 7226  44.285  19.564  14.295
34802W        W 7227  44.144  32.420   2.355
34803W        W 7228   2.346  25.459   3.607
34804W        W 7229  21.510  30.620  12.796
34805W        W 7230  34.381   9.283   3.944
34806W        W 7231   0.241  15.640  12.597
34807W        W 7232  31.266  32.489  13.722
34808W        W 7233  25.177   7.668  14.838
34809W        W 7234  41.152   2.890   1.461
34810W        W 7235   9.287  33.254   3.759
34811W        W 7236  25.616   4.663  13.893
34812W        W 7237  24.620  34.420  11.197
34813W        W 7238  38.882  14.059   2.662
34814W        W 7239  42.750   7.779  12.429
34815W        W 7240  39.412  23.140  14.169
34816W        W 7241  44.659  43.980  10.839
34817W        W 7242  38.095  14.187   0.753
34818W        W 7243   8.910  41.218  12.408
34819W        W 7244  16.380  25.013   1.329
34820W        W 7245   6.316   8.750   4.596
34821W        W 7246  13.631  37.427  12.125
34822W        W 7247  22.723  25.610  11.297
34823W        W 7248  23.887   2.931   3.204
34824W        W 7249  36.829   5.539  10.542
34825W        W 7250  10.353  25.699   3.774
34826W        W 7251  38.371  44.958  14.355
34827W        W 7252  29.657  13.543  11.223
34828W        W 7253  31.818  29.836  12.978
34829W        W 7254  14.255  12.762  13.984
34830W        W 7255  14.869  25.137  13.340
34831W        W 7256  44.009  40.112   3.317
34832W        W 7257   3.283  28.073  12.142
34833W        W 7258  23.175  19.033   2.328
34834W        W 7259   9.160  37.568  13.714
34835W        W 7260  15.810   8.804   3.290
34836W        W 7261  12.628  14.712  12.686
34837W        W 7262  40.669  34.319  10.150
34838W        W 7263  35.555  34.634   2.689
34839W        W 7264  15.465  43.302  12.123
34840W        W 7265  28.459  23.231  12.826
34841W        W 7266  38.670  23.189   1.812
34842W        W 7267  36.556  18.946   3.271
34843W        W 7268   1.737  10.409  13.330
34844W        W 7269   1.127  44.938  12.628
34845W        W 7270   8.707   1.003  11.350
34846W        W 7271  40.474  33.449   4.612
34847W        W 7272  11.827  32.389   1.935
34848W        W 7273  43.395  27.525   0.776
34849W        W 7274  17.406  21.674   4.447
34850W        W 7275  15.185   7.337  10.576
34851W        W 7276  22.935   9.515   1.379
34852W        W 7277  21.532  31.201   4.692
34853W        W 7278  23.761   8.044   1.832
34854W        W 7279  34.141   3.474  11.715
34855W        W 7280  33.642  31.511  12.101
34856W        W 7281  18.619  15.735   0.075
34857W        W 7282  15.658  36.965   1.742
34858W        W 7283  19.340  28.221  13.037
34859W        W 7284  38.142  38.387  13.867
34860W        W 7285   5.927  19.644   0.371
34861W        W 7286   8.152  12.601   3.051
34862W        W 7287   9.883  16.218  12.002
34863W        W 7288  18.590   7.224  13.879
34864W        W 7289   2.269   7.666   2.764
34865W        W 7290  17.036  16.734  13.882
34866W        W 7291  42.156   0.807  14.825
34867W        W 7292  34.910   5.153   4.491
34868W        W 7293   5.413  23.372  12.031
34869W        W 7294  41.503  13.566  10.612
34870W        W 7295  28.346   5.215   2.114
34871W        W 7296  38.967  42.764   3.106
34872W        W 7297  11.746  43.258   2.742
34873W        W 7298  23.043   2.904   2.827
34874W        W 7299  39.756   7.278  10.833
34875W        W 7300   4.771  27.061  13.355
34876W        W 7301  15.742  42.113  12.388
34877W        W 7302  39.577  25.435   1.016
34878W        W 7303  44.232  42.459  12.358
34879W        W 7304  21.867  19.780   0.529
34880W        W 7305  19.508  34.504  14.582
34881W        W 7306  32.648  44.850  12.347
34882W        W 7307  41.376  19.317   4.716
34883W        W 7308  30.859  33.916  11.021
34884W        W 7309   5.572  34.211   0.747
34885W        W 7310  39.987  41.289   4.262
34886W        W 7311  35.138  11.282  13.826
34887W        W 7312   4.235  13.840  12.566
34888W        W 7313   7.547  39.853   0.957
34889W        W 7314  30.787  34.424  12.395
34890W        W 7315  20.483   1.849   2.334
34891W        W 7316   4.887   4.328  11.845
34892W        W 7317  28.531  23.104   2.180
34893W        W 7318  13.951   2.475   3.157
34894W        W 7319  24.564  18.311   1.712
34895W        W 7320  13.348  15.842  11.882
34896W        W 7321  16.904  34.415  12.743
34897W        W 7322  25.257  13.335   1.243
34898W        W 7323  23.378  41.332   2.642
34899W        W 7324  24.696  27.673  10.980
34900W        W 7325  37.515   4.636  13.991
34901W        W 7326  27.586  24.019   4.870
34902W        W 7327  41.900  13.784   1.144
34903W        W 7328   2.441  13.335   0.029
34904W        W 7329  39.702  25.035   5.309
34905W        W 7330   8.794  29.883  14.914
34906W        W 7331   0.744  36.050  10.848
34907W        W 7332  37.547  19.133  12.044
34908W        W 7333  37.808  15.137  11.563
34909W        W 7334  44.955  37.945  12.518
34910W        W 7335  43.943  39.283  10.640
34911W        W 7336  13.510  17.614  13.324
34912W        W 7337  39.439  39.487   4.155
34913W        W 7338  22.160  24.096  10.501
34914W        W 7339   1.650  27.258   3.871
34915W        W 7340  25.539   5.881   3.697
34916W        W 7341  10.679  20.076   3.278
34917W        W 7342   7.549  39.668   2.287
34918W        W 7343  16.342  40.316   4.956
34919W        W 7344  35.528  24.871   3.662
34920W        W 7345  31.176  15.380   2.724
34921W        W 7346  34.998  20.722  12.951
34922W        W 7347  19.085  44.491   2.908
34923W        W 7348   2.768   2.490  11.510
34924W        W 7349   5.892  14.508  14.897
34925W        W 7350   5.253   0.180  14.836
34926W        W 7351  27.552  40.533  13.107
34927W        W 7352  13.727  38.950  11.210
34928W        W 7353   3.297  19.219   3.301
34929W        W 7354  41.538  25.176   1.191
34930W        W 7355  18.120  14.825  13.396
34931W        W 7356  14.353  14.461  13.293
34932W        W 7357  23.488  24.702   3.609
34933W        W 7358  25.503  10.783   4.104
34934W        W 7359  24.716  11.122   3.363
34935W        W 7360  20.621   5.204  12.958
34936W        W 7361   0.860  29.691  12.518
34937W        W 7362  30.439  17.595   0.856
34938W        W 7363  36.304   9.702  13.334
34939W        W 7364  37.402  19.878  10.265
34940W        W 7365  44.636  24.200  14.752
34941W        W 7366  19.047  18.137   1.178
34942W        W 7367   8.212   2.862  13.970
34943W        W 7368  30.667   7.463   1.161
34944W        W 7369  18.357   8.363   4.703
34945W        W 7370  34.012  33.871   1.917
34946W        W 7371  14.634  37.881   0.927
34947W        W 7372   6.136  37.504   3.778
34948W        W 7373   3.646  31.469   4.603
34949W        W 7374  39.878  15.751   1.441
34950W        W 7375  24.550  24.173   1.357
34951W        W 7376  17.664  38.741  12.589
34952W        W 7377  19.503  41.871  14.975
34953W        W 7378  16.614  19.006  14.384
34954W        W 7379  11.497  20.719  13.282
34955W        W 7380   9.817  25.844   1.554
34956W        W 7381  16.431  25.977  10.665
34957W        W 7382   0.396  34.312   2.893
34958W        W 7383  35.982  16.069   2.008
34959W        W 7384  15.599  13.170   3.636
34960W        W 7385   2.044  32.902   0.245
34961W        W 7386  43.803  27.075  11.508
34962W        W 7387   2.564  39.332   4.348
34963W        W 7388  19.256  17.081  11.820
34964W        W 7389   1.733  38.122  11.909
34965W        W 7390  44.918  32.051  11.685
34966W        W 7391  31.717  11.356  13.059
34967W        W 7392  42.088  15.195  14.643
34968W        W 7393  23.184  40.081  11.957
34969W        W 7394  15.071   3.258   1.804
34970W        W 7395  32.910  35.099   4.923
34971W        W 7396   7.657  30.525   1.234
34972W        W 7397  12.249   8.753   4.629
34973W        W 7398  13.937  15.656   3.712
34974W        W 7399   9.057  23.706  11.995
34975W        W 7400  33.889  43.493  12.371
34976W        W 7401  24.131  15.398  13.048
34977W        W 7402  30.113   9.187  11.743
34978W        W 7403  23.766  39.423  13.533
34979W        W 7404  35.966   8.975   2.790
34980W        W 7405  21.438   9.252  10.673
34981W        W 7406  30.924  41.521  11.678
34982W        W 7407  25.653   6.700   3.319
34983W        W 7408  20.175   4.124  13.402
34984W        W 7409  41.395  22.603   0.228
34985W        W 7410   7.152   3.863  10.680
34986W        W 7411  27.198  13.677  11.965
34987W        W 7412  28.107  27.562  12.124
34988W        W 7413  11.954   6.185   1.213
34989W        W 7414  42.444  44.865   1.418
34990W        W 7415   9.394  24.156  14.073
34991W        W 7416   3.666  12.895  14.228
34992W        W 7417  12.909  18.885  12.123
34993W        W 7418  37.513  35.513   0.461
34994W        W 7419  40.840  17.305   0.390
34995W        W 7420  18.719  19.040  12.069
34996W        W 7421  34.438   4.420   2.350
34997W        W 7422  23.229  28.978  12.535
34998W        W 7423  41.279   2.482   1.149
34999W        W 7424   3.223  28.092   4.100
35000W        W 7425  14.045  14.684   0.832
35001W        W 7426  35.126  11.545  11.973
35002W        W 7427  22.642  37.034   0.741
35003W        W 7428   3.994  11.174  11.198
35004W        W 7429  33.178  17.329   0.276
35005W        W 7430   6.687  15.798   2.760
35006W        W 7431  14.914  20.113  13.794
35007W        W 7432  34.611  23.576  14.102
35008W        W 7433  11.616  20.154  12.442
35009W        W 7434  24.173  40.735   2.878
35010W        W 7435  25.584  15.706  12.257
35011W        W 7436   5.423   5.762   1.974
35012W        W 7437  31.969  28.493  13.393
35013W        W 7438  40.547  23.262  11.953
35014W        W 7439  29.608  42.884   2.386
35015W        W 7440   5.967   6.922   2.164
35016W        W 7441  12.209   0.539   0.867
35017W        W 7442  44.777  33.944   4.719
35018W        W 7443  22.414  19.049   4.450
35019W        W 7444  38.284  43.321   4.621
35020W        W 7445  10.122  25.948   4.202
35021W        W 7446  15.722  31.104   3.111
35022W        W 7447  32.431  38.083  14.910
35023W        W 7448  17.786  11.686  12.921
35024W        W 7449   4.808  29.680  14.824
35025W        W 7450  25.437  38.800   4.551
35026W        W 7451  35.847  37.136  13.344
35027W        W 7452   4.176  12.046   4.038
35028W        W 7453  18.259  39.615   3.103
35029W        W 7454  25.541   7.204   4.172
35030W        W 7455  22.236  13.917   2.257
35031W        W 7456  17.007  41.176   4.983
35032W        W 7457   2.668  37.005  12.952
35033W        W 7458  44.007  18.994   2.147
35034W        W 7459  26.577   8.468   3.665
35035W        W 7460   7.820  31.450   3.531
35036W        W 7461  39.568  28.128  13.483
35037W        W 7462  30.799  11.585  12.146
35038W        W 7463   5.351  17.745   0.372
35039W        W 7464  19.253  34.105   2.750
35040W        W 7465  36.988  31.435   0.928
35041W        W 7466  40.869  13.569   4.087
35042W        W 7467  32.436  27.071   1.649
35043W        W 7468  17.565   4.138   4.645
35044W        W 7469   9.465  17.496   1.852
35045W        W 7470  10.702  31.992   3.119
35046W        W 7471  42.331  28.101  11.454
35047W        W 7472  12.166  16.574   2.306
35048W        W 7473  24.968  38.961   4.752
35049W        W 7474  22.915  31.251  13.044
35050W        W 7475  25.978  20.836  10.733
35051W        W 7476  15.325  33.866   1.315
35052W        W 7477  40.315  28.456   0.208
35053W        W 7478  35.665   8.920  12.453
35054W        W 7479  34.407  21.963  11.483
35055W        W 7480  36.971  36.831   4.189
35056W        W 7481   0.375   4.742   0.682
35057W        W 7482  33.207   9.770  13.518
35058W        W 7483  28.263  13.385   3.825
35059W        W 7484  39.614   6.667   2.235
35060W        W 7485  34.208  33.890  11.478
35061W        W 7486  12.690  24.570   4.168
35062W        W 7487  12.792  30.905  11.268
35063W        W 7488   3.341  39.927  12.315
35064W        W 7489  13.717  23.574  13.611
35065W        W 7490  22.698  38.314   2.644
35066W        W 7491  14.809  11.073  10.996
35067W        W 7492  25.430  39.384  12.497
35068W        W 7493  43.461  11.666  13.010
35069W        W 7494  33.927  35.892   3.234
35070W        W 7495  30.041  31.154  10.467
35071W        W 7496  22.733  18.861  10.624
35072W        W 7497  25.195  39.153  10.768
35073W        W 7498  26.403   9.745   2.850
35074W        W 7499  14.621  38.501   3.045
35075W        W 7500  13.569   1.046  13.749
35076W        W 7501  18.930  27.641   0.290
35077W        W 7502  21.158  15.563   0.404
35078W        W 7503  21.781   6.246   0.318
35079W        W 7504  43.297  26.154   2.356
35080W        W 7505  28.474  26.147  14.732
35081W        W 7506  22.227  32.255  11.290
35082W        W 7507  37.040   6.019  14.025
35083W        W 7508  34.877  21.337   2.267
35084W        W 7509   7.634  11.949   1.919
35085W        W 7510  34.126  43.315  14.482
35086W        W 7511  29.676  16.967   0.862
35087W        W 7512  20.077  18.558  11.620
35088W        W 7513  10.192  30.429   4.058
35089W        W 7514  34.838  24.861  10.048
35090W        W 7515  41.000   8.073   4.252
35091W        W 7516  14.253  37.906   2.330
35092W        W 7517  26.477  13.667  14.375
35093W        W 7518  28.237  38.638   4.166
35094W        W 7519   0.405  31.208  14.301
35095W        W 7520  19.185  35.007   2.444
35096W        W 7521  28.351   9.927  11.887
35097W        W 7522   0.987  37.415  12.535
35098W        W 7523   4.288  39.187  11.609
35099W        W 7524   9.637  28.827  13.048
35100W        W 7525  37.902  20.190  13.111
35101W        W 7526  34.884  11.919  12.492
35102W        W 7527  17.722   0.979   0.087
35103W        W 7528  38.533  16.044  12.374
35104W        W 7529  33.390  29.637   2.671
35105W        W 7530  19.540  16.206   3.175
35106W        W 7531  34.051  15.172   0.480
35107W        W 7532   0.145  29.798   1.206
35108W        W 7533   8.123  37.393   2.551
35109W        W 7534  24.474  23.688  13.295
35110W        W 7535  39.080  19.326   0.274
35111W        W 7536  29.961  44.168  14.478
35112W        W 7537   9.724  37.023  14.420
35113W        W 7538  10.001   1.339  14.511
35114W        W 7539  41.142   9.449   3.214
35115W        W 7540  35.978  42.445   0.309
35116W        W 7541  25.234  20.945   4.265
35117W        W 7542   1.913  42.531   4.492
35118W        W 7543  14.755  41.494  13.743
35119W        W 7544   0.986   8.861  13.893
35120W        W 7545   6.523  26.845   9.854
35121W        W 7546  31.837  30.351  10.676
35122W        W 7547  21.715  13.709   3.809
35123W        W 7548   3.929  29.997   2.505
35124W        W 7549  30.154  20.539   0.341
35125W        W 7550  35.429  13.617  12.953
35126W        W 7551  35.208  17.853   0.353
35127W        W 7552  22.455  34.554   2.292
35128W        W 7553  18.085   4.030  12.360
35129W        W 7554  19.696  26.588   3.554
35130W        W 7555  16.053  44.282   1.443
35131W        W 7556  38.307  26.252  12.849
35132W        W 7557   9.161   0.432   4.921
35133W        W 7558  25.564  27.584   1.748
35134W        W 7559  43.262  34.435   0.488
35135W        W 7560  30.111  41.436  11.127
35136W        W 7561  42.277  11.385   3.246
35137W        W 7562   3.779  33.431  14.386
35138W        W 7563  14.112  29.909  12.802
35139W        W 7564   6.383  43.073  14.877
35140W        W 7565   0.879  23.035   3.425
35141W        W 7566   1.961   3.707   1.887
35142W        W 7567   4.676  15.654   3.696
35143W        W 7568  26.253   2.763   0.899
35144W        W 7569  19.012  15.128  12.153
35145W        W 7570  28.494  27.926  12.369
35146W        W 7571   4.882   6.441   4.292
35147W        W 7572  36.771  18.768  10.846
35148W        W 7573  14.808  19.251   0.872
35149W        W 7574  19.152  26.599   1.848
35150W        W 7575  43.880  43.904  10.405
35151W        W 7576  10.501   9.986   5.077
35152W        W 7577  39.267  23.016  11.509
35153W        W 7578   9.842  34.749   2.731
35154W        W 7579  36.307   5.257  14.553
35155W        W 7580  26.028  40.978   1.326
35156W        W 7581   5.777  10.293  11.875
35157W        W 7582   3.733  39.099   2.157
35158W        W 7583  27.382   1.994   4.309
35159W        W 7584   0.139  43.456   4.331
35160W        W 7585  19.253   1.712   1.457
35161W        W 7586  30.114  42.874   2.376
35162W        W 7587  39.833  28.476   0.428
35163W        W 7588  13.593  32.152   4.487
35164W        W 7589   1.845  24.471   4.364
35165W        W 7590  39.733  42.870  11.513
35166W        W 7591  22.312  31.522  14.213
35167W        W 7592  27.443  30.007  14.967
35168W        W 7593  29.103  28.302   4.551
35169W        W 7594  12.846  27.797  12.485
35170W        W 7595  33.093  39.914   2.712
35171W        W 7596  17.295   6.179   4.265
35172W        W 7597  12.247  24.436   0.406
35173W        W 7598  25.418  23.552  12.518
35174W        W 7599  25.450   9.852   4.892
35175W        W 7600  41.462  44.653   4.153
35176W        W 7601  24.560   1.838   2.622
35177W        W 7602  24.692   7.400   2.961
35178W        W 7603  38.933   0.191   3.703
35179W        W 7604  33.702  18.161   1.706
35180W        W 7605  12.120  39.085  12.333
35181W        W 7606   8.397  35.870   0.403
35182W        W 7607  19.618  40.584   3.226
35183W        W 7608  10.774  21.983  12.023
35184W        W 7609  20.661  29.704  13.216
35185W        W 7610  33.483  30.472   3.196
35186W        W 7611  16.690  11.232   3.630
35187W        W 7612   4.842  28.552  12.605
35188W        W 7613  30.456  40.934   0.544
35189W        W 7614  44.543  25.741   2.253
35190W        W 7615  37.432  35.335   0.940
35191W        W 7616  36.738  24.856  10.230
35192W        W 7617  19.351  14.255   0.973
35193W        W 7618   4.476  33.130  13.854
35194W        W 7619  18.763  44.252   0.003
35195W        W 7620  41.201   4.208   0.673
35196W        W 7621  15.219   8.403   2.211
35197W        W 7622  40.767   3.769  11.790
35198W        W 7623  22.232  19.501   4.577
35199W        W 7624  42.804  34.969  12.806
35200W        W 7625  37.101  21.990   2.515
35201W        W 7626  38.671  31.845  13.683
35202W        W 7627  32.068  36.060  14.120
35203W        W 7628  17.460  12.962   2.964
35204W        W 7629  16.212  40.378   3.253
35205W        W 7630  23.800  15.723  13.275
35206W        W 7631  16.555  26.389  14.824
35207W        W 7632  40.131  12.232   2.899
35208W        W 7633  26.598  24.372  14.756
35209W        W 7634  31.984  38.011   2.718
35210W        W 7635  14.672   7.600  13.093
35211W        W 7636  13.358   9.335  13.388
35212W        W 7637  18.641  41.260  12.817
35213W        W 7638  10.278   3.307  10.109
35214W        W 7639  43.009  40.386  13.099
35215W        W 7640   9.332   5.348  11.116
35216W        W 7641  24.264  42.653   2.739
35217W        W 7642  24.405  22.868   3.106
35218W        W 7643  30.116  43.795  12.032
35219W        W 7644  28.943   6.724   4.764
35220W        W 7645  28.432  30.183  12.991
35221W        W 7646  27.278   6.532  10.797
35222W        W 7647  14.330  41.874   3.306
35223W        W 7648   5.194  17.197   3.385
35224W        W 7649  25.190  44.029   0.974
35225W        W 7650  37.092  12.868   3.035
35226W        W 7651  40.964  24.012  11.556
35227W        W 7652  24.632  28.547  14.420
35228W        W 7653  28.664  33.934   2.328
35229W        W 7654   8.088  26.432  14.178
35230W        W 7655  21.447  18.723   3.755
35231W        W 7656  31.609  34.478   1.787
35232W        W 7657  18.735  21.475   0.185
35233W        W 7658  23.272  29.623   2.369
35234W        W 7659   1.204  39.257   2.631
35235W        W 7660  26.732  16.336   0.875
35236W        W 7661  40.117   2.871  11.196
35237W        W 7662  31.048  43.078  14.754
35238W        W 7663   7.648  17.521   0.468
35239W        W 7664  34.134  23.418  13.384
35240W        W 7665  20.234  17.521   1.312
35241W        W 7666  28.193   8.403   4.618
35242W        W 7667  14.859  25.971   0.765
35243W        W 7668  16.377   0.146  11.092
35244W        W 7669  41.283  42.070   4.591
35245W        W 7670  39.561  17.054   1.782
35246W        W 7671  17.991   9.226  10.731
35247W        W 7672  37.286  27.187  11.563
35248W        W 7673  36.919  20.528  10.796
35249W        W 7674  40.552  26.198  13.048
35250W        W 7675  17.085  38.074  13.087
35251W        W 7676  37.390   6.187   1.969
35252W        W 7677  36.620  19.608  11.277
35253W        W 7678   4.447  43.545  13.836
35254W        W 7679  23.649  15.319   1.631
35255W        W 7680  20.040  41.462   1.282
35256W        W 7681  37.539   2.905  14.457
35257W        W 7682  32.937  19.759   0.848
35258W        W 7683  33.043  34.643   4.666
35259W        W 7684  28.109  28.601  10.654
35260W        W 7685  28.200  41.632   1.940
35261W        W 7686  18.359  20.164   2.284
35262W        W 7687  13.281  40.029   0.963
35263W        W 7688  14.368  17.959   0.917
35264W        W 7689   7.315  42.480  13.962
35265W        W 7690  11.276  19.069   1.158
35266W        W 7691  28.890   3.904  12.609
35267W        W 7692  32.307  12.532   4.346
35268W        W 7693  14.350  43.425   2.297
35269W        W 7694   9.248   8.373  11.204
35270W        W 7695  39.063  16.005  14.563
35271W        W 7696   2.050  42.039  11.604
35272W        W 7697  27.946  39.849  10.607
35273W        W 7698  24.172   9.652  11.310
35274W        W 7699  16.162  23.767   3.047
35275W        W 7700   7.791  20.746   0.824
35276W        W 7701   7.916   6.888   3.758
35277W        W 7702  16.395  38.703  10.163
35278W        W 7703  31.602  36.328  12.496
35279W        W 7704  33.991   4.873   2.534
35280W        W 7705  43.412  21.622  13.342
35281W        W 7706   1.267  40.117  11.205
35282W        W 7707  18.254  39.277  11.088
35283W        W 7708  43.675  29.066   3.294
35284W        W 7709   0.461   3.422  11.934
35285W        W 7710  39.932  31.424  11.928
35286W        W 7711  37.908   2.923   4.290
35287W        W 7712  27.861  12.120  13.506
35288W        W 7713  13.597  27.313  12.692
35289W        W 7714  25.178  36.390  13.486
35290W        W 7715  12.153  22.109   9.601
35291W        W 7716  25.634  27.457   3.198
35292W        W 7717  36.517  38.017  10.735
35293W        W 7718  13.177  16.542   2.341
35294W        W 7719  33.096  17.830  14.223
35295W        W 7720  25.768  37.463  12.538
35296W        W 7721  29.819   3.021  13.617
35297W        W 7722  12.696   4.229   1.005
35298W        W 7723  38.045  37.533  14.819
35299W        W 7724   5.808   2.673  14.455
35300W        W 7725  22.198  39.055   3.743
35301W        W 7726  40.854  29.036   3.067
35302W        W 7727  23.447   7.350   0.567
35303W        W 7728  43.822  26.471  14.020
35304W        W 7729  29.070  36.082   3.390
35305W        W 7730  30.304   7.655  14.002
35306W        W 7731   3.925  22.932   0.420
35307W        W 7732  34.125  26.927  10.989
35308W        W 7733  14.240  20.116   1.260
35309W        W 7734  29.779   6.735  14.900
35310W        W 7735  20.316   9.282  13.973
35311W        W 7736  24.996  22.066   4.730
35312W        W 7737  16.484  26.737   2.384
35313W        W 7738  28.167  22.903  11.577
35314W        W 7739  26.131   0.019  12.616
35315W        W 7740  28.455  30.190  11.100
35316W        W 7741  30.133   1.582  11.373
35317W        W 7742   1.511   3.118  10.482
35318W        W 7743  19.007  38.932   1.628
35319W        W 7744  11.782  39.124   4.136
35320W        W 7745  38.010   5.103  11.241
35321W        W 7746  12.336   4.829   0.894
35322W        W 7747  27.201   4.728  14.510
35323W        W 7748   5.416  36.497  13.007
35324W        W 7749   0.756  36.815   0.465
35325W        W 7750   6.881  41.283   4.176
35326W        W 7751   1.704  20.164   1.645
35327W        W 7752  19.089  28.069   3.794
35328W        W 7753  13.838  17.105  13.616
35329W        W 7754  43.829   1.463   3.181
35330W        W 7755  24.896  26.595  14.955
35331W        W 7756   4.348  33.177  14.945
35332W        W 7757   8.268  28.483   0.822
35333W        W 7758   4.374  14.269   1.628
35334W        W 7759  33.765   9.194  12.974
35335W        W 7760  35.486  35.802  12.454
35336W        W 7761  21.775   4.248  12.846
35337W        W 7762  21.219  20.511   2.712
35338W        W 7763   7.627  41.900   0.307
35339W        W 7764  22.000  19.512   1.688
35340W        W 7765  28.365  16.826   0.741
35341W        W 7766  23.796  33.940   2.302
35342W        W 7767  35.547  43.737   1.925
35343W        W 7768  31.261  31.822   1.312
35344W        W 7769  21.139   8.355  12.198
35345W        W 7770  10.083  40.868   4.261
35346W        W 7771  25.121  10.298   0.937
35347W        W 7772  26.613   4.427  13.791
35348W        W 7773  39.714   2.940  13.066
35349W        W 7774  40.426  39.948  11.658
35350W        W 7775  13.628  17.342  10.973
35351W        W 7776   5.865   8.130   4.477
35352W        W 7777  27.732  43.687   4.735
35353W        W 7778  26.074   9.563  12.512
35354W        W 7779  29.924  43.999  11.617
35355W        W 7780  32.971  19.627  12.115
35356W        W 7781   6.904  27.030   1.380
35357W        W 7782  19.243  32.145   0.382
35358W        W 7783  11.838  38.470   2.344
35359W        W 7784  37.859   3.964   1.905
35360W        W 7785  12.153  27.522   1.960
35361W        W 7786   6.028  36.538  10.191
35362W        W 7787  38.885   5.850   4.333
35363W        W 7788   1.136  21.223   4.257
35364W        W 7789  25.041  40.502   3.138
35365W        W 7790   6.307   1.315   3.766
35366W        W 7791  42.924  33.611  14.257
35367W        W 7792  42.692   5.429  13.780
35368W        W 7793  35.396  15.939   9.984
35369W        W 7794  29.390   9.215   3.751
35370W        W 7795  28.727   6.259   3.578
35371W        W 7796   0.792   3.384  14.460
35372W        W 7797  43.924  18.526   3.736
35373W        W 7798  34.458  28.067   1.692
35374W        W 7799  38.904  22.349  13.881
35375W        W 7800  14.881  21.265   1.080
35376W        W 7801  44.966  15.663   3.224
35377W        W 7802  14.349  32.725  14.153
35378W        W 7803  22.149  16.135   0.026
35379W        W 7804  25.731  23.087   1.387
35380W        W 7805  30.146  39.839   3.651
35381W        W 7806  23.124   3.298   4.048
35382W        W 7807   1.308  33.095  11.607
35383W        W 7808   2.782  10.188   1.376
35384W        W 7809  16.041  42.105   0.072
35385W        W 7810   6.688   3.893  11.573
35386W        W 7811  28.511  13.112  11.635
35387W        W 7812  43.504  40.471  11.863
35388W        W 7813  13.373  12.656  13.044
35389W        W 7814  10.306  24.699   2.813
35390W        W 7815  10.416  10.780   3.858
35391W        W 7816  24.307  12.196  11.068
35392W        W 7817  42.633   7.689  13.785
35393W        W 7818  27.354  41.908  12.600
35394W        W 7819  35.394  18.533  12.577
35395W        W 7820   8.335   1.281  13.346
35396W        W 7821  32.107  27.371  11.139
35397W        W 7822  32.428  36.600  12.494
35398W        W 7823  10.372  15.630   4.091
35399W        W 7824  44.445  34.436   0.784
35400W        W 7825  16.709  41.532  11.492
35401W        W 7826   4.818  37.023  13.829
35402W        W 7827  41.987   1.040   4.653
35403W        W 7828  14.538  15.630  12.892
35404W        W 7829   9.179  34.926   0.927
35405W        W 7830   5.435  11.095   4.133
35406W        W 7831   2.918  34.692  10.728
35407W        W 7832  14.989  12.315   1.267
35408W        W 7833  43.230  17.774   2.233
35409W        W 7834  12.836  15.866  12.013
35410W        W 7835  20.244  44.335  11.526
35411W        W 7836  18.704  18.530  14.785
35412W        W 7837   8.753  19.930   1.634
35413W        W 7838  18.350  35.573   3.684
35414W        W 7839  27.157  34.014   3.784
35415W        W 7840  37.451  29.547  13.145
35416W        W 7841  30.735  18.220  14.055
35417W        W 7842  19.089  21.944  12.435
35418W        W 7843  38.762  31.128   3.785
35419W        W 7844  10.879   0.785  13.016
35420W        W 7845  27.716  37.815  13.022
35421W        W 7846  29.518  25.379  12.185
35422W        W 7847  18.706  27.021  12.921
35423W        W 7848   8.885  14.644   1.902
35424W        W 7849  35.838  25.680   1.940
35425W        W 7850  14.107  14.079  12.123
35426W        W 7851   6.113   5.810  12.844
35427W        W 7852  27.661  20.731   4.222
35428W        W 7853  42.974   1.852  10.366
35429W        W 7854  31.426   6.604   0.355
35430W        W 7855  40.992  13.418  14.730
35431W        W 7856  26.071  25.565  14.787
35432W        W 7857   5.956  20.481  11.227
35433W        W 7858  36.661  23.517  13.871
35434W        W 7859  12.153  23.600   9.783
35435W        W 7860  12.232  12.616  11.692
35436W        W 7861   3.187  30.928  14.316
35437W        W 7862  12.247   0.330   2.168
35438W        W 7863  25.845  24.780  14.398
35439W        W 7864  13.296   2.317  13.462
35440W        W 7865  34.526  24.251   0.797
35441W        W 7866   6.821  24.996  10.767
35442W        W 7867  22.474  33.638   4.189
35443W        W 7868  44.517   8.426  13.963
35444W        W 7869   2.855   8.736  12.474
35445W        W 7870  28.186  36.524  10.937
35446W        W 7871  15.145   3.907  14.689
35447W        W 7872  29.126  19.181   4.778
35448W        W 7873   5.924   4.833   3.750
35449W        W 7874   6.062   5.800   4.171
35450W        W 7875  13.731   0.506   4.746
35451W        W 7876  19.312  16.792  10.808
35452W        W 7877  30.128  16.511   1.498
35453W        W 7878  11.268  10.615  13.307
35454W        W 7879  40.937   4.636   3.355
35455W        W 7880  33.885  43.781  12.977
35456W        W 7881  27.724  34.558  12.821
35457W        W 7882  29.550  40.599  13.895
35458W        W 7883  16.247  40.585  11.157
35459W        W 7884  14.154  11.137  12.253
35460W        W 7885  25.606  17.333  13.922
35461W        W 7886  28.465  27.802   4.124
35462W        W 7887  42.576  34.484   4.567
35463W        W 7888   3.003  21.273   3.660
35464W        W 7889   1.596  10.041   0.848
35465W        W 7890  44.236   3.321   1.910
35466W        W 7891  44.619   0.742   1.819
35467W        W 7892  34.371   2.041   3.870
35468W        W 7893  34.979  39.824   2.453
35469W        W 7894  33.075  40.753   3.266
35470W        W 7895  22.927  42.195   2.948
35471W        W 7896   9.015  15.338  14.420
35472W        W 7897   9.264   4.732  13.337
35473W        W 7898   8.033  24.084  11.143
35474W        W 7899  43.472  32.685  10.743
35475W        W 7900  35.693  17.555   0.317
35476W        W 7901   5.412  18.351   2.725
35477W        W 7902   6.574   5.928  14.366
35478W        W 7903  41.543  24.945   0.300
35479W        W 7904  30.775  29.307  14.483
35480W        W 7905  17.146  21.201   3.746
35481W        W 7906  15.671   9.758   2.179
35482W        W 7907  35.566   8.689   1.412
35483W        W 7908  15.209  39.976  12.014
35484W        W 7909   6.491  21.492  11.204
35485W        W 7910   6.446   1.533  13.457
35486W        W 7911  10.084   3.902   2.989
35487W        W 7912  36.678  15.063  13.596
35488W        W 7913  30.834  33.033   0.811
35489W        W 7914  38.853  39.536   4.145
35490W        W 7915  15.266  33.616  12.048
35491W        W 7916   6.211  36.883   0.224
35492W        W 7917   5.965   8.680   1.774
35493W        W 7918  29.281   7.205  11.426
35494W        W 7919  34.532   5.907   4.840
35495W        W 7920  37.584  27.413   0.303
35496W        W 7921  43.427  12.754  13.820
35497W        W 7922  40.114  39.060  14.060
35498W        W 7923  13.361  36.266  11.100
35499W        W 7924  29.680  39.079  14.250
35500W        W 7925   8.798  13.135  11.269
35501W        W 7926   3.207  17.032   0.021
35502W        W 7927  32.673   5.846  11.429
35503W        W 7928   0.246   3.763   4.225
35504W        W 7929   2.594  17.114  11.568
35505W        W 7930  42.792   0.270  12.150
35506W        W 7931  25.884  33.169  12.210
35507W        W 7932   2.148  22.855  10.634
35508W        W 7933   5.877  11.434  13.464
35509W        W 7934   5.365  23.538  11.558
35510W        W 7935  28.916   9.717   4.445
35511W        W 7936  23.970  34.666   2.704
35512W        W 7937   6.191  33.627  14.456
35513W        W 7938  26.893  35.965   0.461
35514W        W 7939  12.144  35.469  12.830
35515W        W 7940  35.359  23.056   4.388
35516W        W 7941  28.696  24.181   0.813
35517W        W 7942  30.606  20.684   1.202
35518W        W 7943  43.537  34.502   1.939
35519W        W 7944   8.992   0.623  11.064
35520W        W 7945  38.782  22.331   4.139
35521W        W 7946  27.106  32.009   4.967
35522W        W 7947  43.907  21.063  12.857
35523W        W 7948  19.034  13.475   0.511
35524W        W 7949  24.514  32.355  13.921
35525W        W 7950  42.659  38.962   0.517
35526W        W 7951   3.012   7.295  13.826
35527W        W 7952  19.245  40.443   2.634
35528W        W 7953   7.660  31.010  13.808
35529W        W 7954   0.615  42.360  12.117
35530W        W 7955  36.876  36.996   2.679
35531W        W 7956  21.205  13.338  12.469
35532W        W 7957   9.928  23.540   3.261
35533W        W 7958  25.365   2.584  13.958
35534W        W 7959  10.318  44.697  12.657
35535W        W 7960  31.401  15.558  10.601
35536W        W 7961   3.435  19.163   1.501
35537W        W 7962   1.897  19.871   4.575
35538W        W 7963  37.465   9.660  14.512
35539W        W 7964  11.303  37.075  14.381
35540W        W 7965  28.549  20.277  11.690
35541W        W 7966  12.830  38.504   4.873
35542W        W 7967  39.078   7.030  11.482
35543W        W 7968  18.831  41.527  14.407
35544W        W 7969  32.472   1.681   4.188
35545W        W 7970  12.933  13.414  13.936
35546W        W 7971  17.143   7.656  14.897
35547W        W 7972  22.755  34.360  13.992
35548W        W 7973  22.013  13.375   1.241
35549W        W 7974   3.386   2.859   5.005
35550W        W 7975  40.587   8.268  14.485
35551W        W 7976  20.538  42.506  13.827
35552W        W 7977  20.744  20.570  12.544
35553W        W 7978  12.343   5.732  13.359
35554W        W 7979  12.213   7.303   0.397
35555W        W 7980  29.026   2.354  10.729
35556W        W 7981  20.478  31.595  10.727
35557W        W 7982   9.319  42.057  12.458
35558W        W 7983   3.785   1.810  13.448
35559W        W 7984  18.875  11.856  12.063
35560W        W 7985   2.654  17.532   0.759
35561W        W 7986  34.921  10.379   3.091
35562W        W 7987  37.484  39.560  13.456
35563W        W 7988  21.806  27.175  12.430
35564W        W 7989   5.748  18.726   0.416
35565W        W 7990   4.779  12.019  12.448
35566W        W 7991  29.579  40.871   1.975
35567W        W 7992  38.027  12.320  11.376
35568W        W 7993  34.371  26.614   0.112
35569W        W 7994  26.208  37.354   0.470
35570W        W 7995  37.798   5.882  12.982
35571W        W 7996  27.063  38.967  13.450
35572W        W 7997  23.789  41.001   2.630
35573W        W 7998  18.122  21.355  13.204
35574W        W 7999   9.766  13.143   4.940
35575W        W 8000  11.280  42.326  11.109
35576W        W 8001  32.010   8.501  14.798
35577W        W 8002   9.839  31.542   3.654
35578W        W 8003  24.716  13.163  10.431
35579W        W 8004  38.840  25.975  13.308
35580W        W 8005  27.110  20.938  11.192
35581W        W 8006   9.396  23.360   3.709
35582W        W 8007  33.933  11.255  12.982
35583W        W 8008   8.409  27.260   3.723
35584W        W 8009  28.742  15.648  14.422
35585W        W 8010  31.884  39.861  10.945
35586W        W 8011  44.791  22.062  10.636
35587W        W 8012  10.813   3.824  12.522
35588W        W 8013  43.416   5.125   4.498
35589W        W 8014   8.050  19.140  11.584
35590W        W 8015  10.458  15.784  13.434
35591W        W 8016   6.153  31.188  12.029
35592W        W 8017  41.424  34.923   2.417
35593W        W 8018  26.677  19.365   0.219
35594W        W 8019  10.130   2.281  11.593
35595W        W 8020   4.735  22.982   5.014
35596W        W 8021  33.042  10.077   0.790
35597W        W 8022  28.591  30.306   2.228
35598W        W 8023  44.603  43.805   3.184
35599W        W 8024  10.856  39.600  10.612
35600W        W 8025  42.571   6.941   2.198
35601W        W 8026  17.489  31.128   3.164
35602W        W 8027  14.004  34.031  11.128
35603W        W 8028  37.967  23.735  14.921
35604W        W 8029  42.226   1.375  13.571
35605W        W 8030  23.936  15.184   3.404
35606W        W 8031  15.202  37.063   2.003
35607W        W 8032  29.746  42.559   3.687
35608W        W 8033  31.058  27.059   1.950
35609W        W 8034   4.410   9.413  11.009
35610W        W 8035   4.298   5.846  14.869
35611W        W 8036   6.011  29.687   0.063
35612W        W 8037   5.826  18.713  13.016
35613W        W 8038  10.361  37.426   4.246
35614W        W 8039  27.061  44.813  14.255
35615W        W 8040  16.694  38.807   3.766
35616W        W 8041   2.815  44.310  11.547
35617W        W 8042   3.501   0.527   4.221
35618W        W 8043  30.594   2.771  11.360
35619W        W 8044   3.966  11.550  12.154
35620W        W 8045  25.550  17.231  13.395
35621W        W 8046   0.948  40.604  11.945
35622W        W 8047   6.833  28.718  13.397
35623W        W 8048  23.415   3.620  12.162
35624W        W 8049  34.421   6.686  12.577
35625W        W 8050  24.447  35.046  12.046
35626W        W 8051  43.700   3.247   0.843
35627W        W 8052   0.199   6.887  12.860
35628W        W 8053  28.657   0.982   1.850
35629W        W 8054   0.832   5.831  12.024
35630W        W 8055  30.431  23.632  13.123
35631W        W 8056   0.745  23.792   2.283
35632W        W 8057  27.055  14.806  14.390
35633W        W 8058  39.097  33.330   5.085
35634W        W 8059   1.789  22.301   4.609
35635W        W 8060  14.214  14.314   1.222
35636W        W 8061   3.100  24.666   4.557
35637W        W 8062  32.254  22.604   5.137
35638W        W 8063  13.603  33.403   0.759
35639W        W 8064   1.926  20.148  11.253
35640W        W 8065   9.212  30.129   2.160
35641W        W 8066  37.500   6.435  12.179
35642W        W 8067  31.648  41.946  11.753
35643W        W 8068  27.968  23.679  14.557
35644W        W 8069  40.126  21.195   3.152
35645W        W 8070  41.918   5.795   1.359
35646W        W 8071   2.357   3.275  10.533
35647W        W 8072  32.535  39.872  13.050
35648W        W 8073  34.994   3.472   2.204
35649W        W 8074   0.386  43.472  10.660
35650W        W 8075   9.003   9.837  13.365
35651W        W 8076   2.943  42.988   3.754
35652W        W 8077  30.722  11.157  14.533
35653W        W 8078  34.897  27.701   4.574
35654W        W 8079  10.394  26.981   0.855
35655W        W 8080  41.596  41.462   1.831
35656W        W 8081  32.274  11.454  12.179
35657W        W 8082  24.497  34.832   3.808
35658W        W 8083  18.147  43.038   4.201
35659W        W 8084  29.885  10.164   0.748
35660W        W 8085  12.507   5.099   4.168
35661W        W 8086  30.082  35.446  11.084
35662W        W 8087   0.171  29.170  13.587
35663W        W 8088  35.150   9.703   3.504
35664W        W 8089  42.657  38.046  12.055
35665W        W 8090  41.466  10.141   2.850
35666W        W 8091  34.907  41.460   1.522
35667W        W 8092  23.846  29.554   0.421
35668W        W 8093  18.224  12.124  13.695
35669W        W 8094  43.920  31.978  11.039
35670W        W 8095   2.901  26.110  13.859
35671W        W 8096   6.141  18.056  13.544
35672W        W 8097  35.378   9.464   3.073
35673W        W 8098  34.925   9.031  14.973
35674W        W 8099   8.817  21.991   4.500
35675W        W 8100  39.185  25.668   2.120
35676W        W 8101   2.006  15.759  13.511
35677W        W 8102  11.403  34.419   4.565
35678W        W 8103  19.493  28.593   0.324
35679W        W 8104  36.582  23.538   3.322
35680W        W 8105   8.881  17.043   3.682
35681W        W 8106  22.560  25.319   3.184
35682W        W 8107  31.399  10.712  11.979
35683W        W 8108  37.434   0.909  10.603
35684W        W 8109  41.351   6.862  12.078
35685W        W 8110  34.595  14.509  14.797
35686W        W 8111   9.151  12.652  12.418
35687W        W 8112  26.248  17.095  14.097
35688W        W 8113   9.102   2.358  10.692
35689W        W 8114   1.983  15.816   4.188
35690W        W 8115  27.691   6.294   1.958
35691W        W 8116   3.828  42.922   0.859
35692W        W 8117   0.684  30.928  12.896
35693W        W 8118  28.819  41.763  11.195
35694W        W 8119   6.342  21.514   4.317
35695W        W 8120  28.008  25.914   1.193
35696W        W 8121   7.899  22.814   0.347
35697W        W 8122  41.521   6.692   1.236
35698W        W 8123   2.314  42.509  11.528
35699W        W 8124  23.250  21.441  11.233
35700W        W 8125  30.201   7.701  11.711
35701W        W 8126  22.718  25.059  12.607
35702W        W 8127  40.069   8.169  11.681
35703W        W 8128   5.933  20.148  13.044
35704W        W 8129   5.852   4.820   1.214
35705W        W 8130  38.011  31.344   4.258
35706W        W 8131  19.591  31.037  10.316
35707W        W 8132  23.627  15.273  13.070
35708W        W 8133  17.596   5.514  14.246
35709W        W 8134  35.025  43.581  11.236
35710W        W 8135  19.780  24.124   0.565
35711W        W 8136   9.164  43.501  13.003
35712W        W 8137  44.376   3.953   2.645
35713W        W 8138   5.288  27.945  11.999
35714W        W 8139   9.800  27.982   2.727
35715W        W 8140   1.222  26.990   2.532
35716W        W 8141  43.748   6.239  13.555
35717W        W 8142  23.309  12.626   0.271
35718W        W 8143  28.508  28.172   1.766
35719W        W 8144  20.408   3.858   0.355
35720W        W 8145  26.710  12.675   1.854
35721W        W 8146  32.383   5.305  10.528
35722W        W 8147  29.141  38.068   3.243
35723W        W 8148   3.952  25.118   2.340
35724W        W 8149  21.281   2.713  12.811
35725W        W 8150  17.258  44.297  14.768
35726W        W 8151  22.509  12.613   3.896
35727W        W 8152   1.447   9.789   4.120
35728W        W 8153  24.010  10.391   3.378
35729W        W 8154  17.092  22.552  12.308
35730W        W 8155  28.687  32.974  12.009
35731W        W 8156  10.972  40.386  10.676
35732W        W 8157  42.268  41.985  12.636
35733W        W 8158   8.927  11.326  12.451
35734W        W 8159  10.302  30.694   0.989
35735W        W 8160  39.367  29.535  12.977
35736W        W 8161  19.231   1.826   3.686
35737W        W 8162   6.207   1.622   2.925
35738W        W 8163   0.225   8.980  10.050
35739W        W 8164  44.378   6.221   4.929
35740W        W 8165   6.466   6.286   2.340
35741W        W 8166   5.825  43.376   0.030
35742W        W 8167  44.269  22.053   0.602
35743W        W 8168  24.479  38.518   4.754
35744W        W 8169   4.517  19.355  12.810
35745W        W 8170  17.834   2.366   9.666
35746W        W 8171  33.358   5.332  10.267
35747W        W 8172  27.546  27.465  14.975
35748W        W 8173   5.202   6.336  13.906
35749W        W 8174  21.533  12.221   1.644
35750W        W 8175  12.812  23.594   5.160
35751W        W 8176  27.463  42.868   4.529
35752W        W 8177   0.985   3.746   3.799
35753W        W 8178   6.755   8.823  12.501
35754W        W 8179  34.731   2.911   3.289
35755W        W 8180  23.970  13.672   0.415
35756W        W 8181  18.594  26.641   1.280
35757W        W 8182  42.355   6.465   1.361
35758W        W 8183  40.625  41.754  12.064
35759W        W 8184  32.440  23.084  12.254
35760W        W 8185  43.863   4.630   2.180
35761W        W 8186   0.675  25.192   4.865
35762W        W 8187  15.154   0.473   0.876
35763W        W 8188  12.574  31.717   0.843
35764W        W 8189  39.911  23.774  12.354
35765W        W 8190   5.540  31.482   4.401
35766W        W 8191  24.107  14.420  13.127
35767W        W 8192  38.023  16.553   0.579
35768W        W 8193  41.430  17.817  12.454
35769W        W 8194   2.984  43.600   2.228
35770W        W 8195  31.475  39.441   2.306
35771W        W 8196  38.020  28.922  14.267
35772W        W 8197  26.018   9.168   0.715
35773W        W 8198  36.821  28.592  11.713
35774W        W 8199  26.414  38.481   0.038
35775W        W 8200  26.474   8.343   2.571
35776W        W 8201   4.142  30.579   0.032
35777W        W 8202  19.578  22.716   3.286
35778W        W 8203  40.752  14.587  12.004
35779W        W 8204  13.678  33.758   3.229
35780W        W 8205  41.492  28.906   4.625
35781W        W 8206   8.537  18.155   2.366
35782W        W 8207  25.269  19.174  11.212
35783W        W 8208  27.962  24.697   0.007
35784W        W 8209  37.115  32.181   2.603
35785W        W 8210  16.740   8.864   1.159
35786W        W 8211  29.652  38.129  14.389
35787W        W 8212  24.628  19.557   2.311
35788W        W 8213  33.281  20.989   2.945
35789W        W 8214   9.480  22.446  11.357
35790W        W 8215  26.052  26.769   1.444
35791W        W 8216  12.510   4.261   2.745
35792W        W 8217  12.413  12.705  12.597
35793W        W 8218   2.745  22.687  13.971
35794W        W 8219  17.194  35.831   0.138
35795W        W 8220   5.709  11.241   1.360
35796W        W 8221  16.599  34.961  10.621
35797W        W 8222   8.159  18.085   3.211
35798W        W 8223   6.713  31.920   3.236
35799W        W 8224  22.058  44.876   4.969
35800W        W 8225  10.613  24.455  11.485
35801W        W 8226  30.185   0.417   4.809
35802W        W 8227  24.474  41.042  12.053
35803W        W 8228  14.156  39.264  13.301
35804W        W 8229  39.336  38.614  13.414
35805W        W 8230   3.668  19.870  12.099
35806W        W 8231  24.741  40.578  12.966
35807W        W 8232  17.985  42.668   1.510
35808W        W 8233   5.802  16.856   0.498
35809W        W 8234  10.950  42.950   0.019
35810W        W 8235  30.961  20.164   1.822
35811W        W 8236  32.516  38.093   4.214
35812W        W 8237  41.490   7.643  14.453
35813W        W 8238   2.490  26.665   0.276
35814W        W 8239  31.332  30.559   2.919
35815W        W 8240   5.271  38.862   4.453
35816W        W 8241   8.095  42.424  11.483
35817W        W 8242  37.197  35.349   3.196
35818W        W 8243   6.949  18.210  12.945
35819W        W 8244  30.818  37.629  11.927
35820W        W 8245   7.250  19.202   3.648
35821W        W 8246   5.274  11.708  14.772
35822W        W 8247  33.387  42.022   3.736
35823W        W 8248  12.679  21.589   4.032
35824W        W 8249   0.312   5.668   0.726
35825W        W 8250  33.175  24.056   0.877
35826W        W 8251  44.864   4.215   3.599
35827W        W 8252  11.413  17.197  10.203
35828W        W 8253  15.690  36.805   4.267
35829W        W 8254  33.649  13.758   3.291
35830W        W 8255  29.899  14.012  11.160
35831W        W 8256  32.647  15.190   3.627
35832W        W 8257  43.052   4.319  13.050
35833W        W 8258  32.719  27.007  13.999
35834W        W 8259  22.521  44.417   3.268
35835W        W 8260  36.263  35.607   3.486
35836W        W 8261  31.535  39.051  10.694
35837W        W 8262  38.945  33.489  13.453
35838W        W 8263  25.171  34.376  12.362
35839W        W 8264  14.970  23.169   2.923
35840W        W 8265  15.378  31.594   1.441
35841W        W 8266  31.677  39.916   2.124
35842W        W 8267  29.934  28.472   3.860
35843W        W 8268  42.282  36.090   1.787
35844W        W 8269  27.979  13.573   4.673
35845W        W 8270  36.952   0.919  10.783
35846W        W 8271  26.913  12.653  12.540
35847W        W 8272  30.171   0.980  13.813
35848W        W 8273  30.133  19.349  11.039
35849W        W 8274  28.107  43.877   2.159
35850W        W 8275  35.033  32.495  12.442
35851W        W 8276  26.178  13.699  12.885
35852W        W 8277  32.552  27.899  11.914
35853W        W 8278  44.034  23.527   3.679
35854W        W 8279   1.007  42.527  10.865
35855W        W 8280  20.211   4.339  10.758
35856W        W 8281   1.983   0.204   0.939
35857W        W 8282   7.380  18.229   1.859
35858W        W 8283  32.223  35.643   5.152
35859W        W 8284  15.200  23.380  12.843
35860W        W 8285  15.979  21.194  14.609
35861W        W 8286  29.045   7.259  12.054
35862W        W 8287  44.802  17.576  10.672
35863W        W 8288  34.984  42.408  14.589
35864W        W 8289  22.369   2.409  14.052
35865W        W 8290  16.355  31.182  13.915
35866W        W 8291  10.530  32.485  14.881
35867W        W 8292   0.321   2.408  14.349
35868W        W 8293  10.142  13.735  13.376
35869W        W 8294   8.848   0.136  14.737
35870W        W 8295   1.996  42.198   1.417
35871W        W 8296  32.147   1.106   0.394
35872W        W 8297  14.325  24.051   4.182
35873W        W 8298   9.648  29.138   3.205
35874W        W 8299  15.429   4.154   1.921
35875W        W 8300  43.896  19.825  13.326
35876W        W 8301  24.683   9.623  12.482
35877W        W 8302  30.414  16.665  11.231
35878W        W 8303   8.234  22.698  13.262
35879W        W 8304   1.949  10.256  11.085
35880W        W 8305   1.941  12.672  10.499
35881W        W 8306  20.336  19.435  13.528
35882W        W 8307  31.555  28.037  13.048
35883W        W 8308  39.551  41.772   1.650
35884W        W 8309  12.052   9.190   0.668
35885W        W 8310  44.065   8.675  13.992
35886W        W 8311  36.369  16.680   1.005
35887W        W 8312  27.280  11.097  14.995
35888W        W 8313  29.044  21.903  12.212
35889W        W 8314  28.143   6.445  10.708
35890W        W 8315   3.179  14.147  13.081
35891W        W 8316  27.027  30.709   2.384
35892W        W 8317  39.352  21.300  11.016
35893W        W 8318  41.501  15.943   1.680
35894W        W 8319  44.207   6.104   1.725
35895W        W 8320  34.022  25.461   2.431
35896W        W 8321   7.247  39.332   3.156
35897W        W 8322   4.349  35.097   0.930
35898W        W 8323  23.143  28.087   1.728
35899W        W 8324  32.524  29.111   5.065
35900W        W 8325  34.488  21.966   3.751
35901W        W 8326  19.048  43.614   4.155
35902W        W 8327   5.262  15.295   4.008
35903W        W 8328  34.813  44.859  14.557
35904W        W 8329  12.131  31.423   0.876
35905W        W 8330  42.191   4.938  14.956
35906W        W 8331   7.405  18.607  14.765
35907W        W 8332  38.778  17.245  14.365
35908W        W 8333  13.119  42.797   1.343
35909W        W 8334  37.040  36.166   2.370
35910W        W 8335  40.501  14.303   2.147
35911W        W 8336   5.301  39.310  14.905
35912W        W 8337  24.208  36.831   2.324
35913W        W 8338  39.027  39.151  12.839
35914W        W 8339  14.212  27.564  14.403
35915W        W 8340  17.775  12.186   2.010
35916W        W 8341  15.685  26.435   2.220
35917W        W 8342  18.728  13.113   1.275
35918W        W 8343  24.687  31.041  11.642
35919W        W 8344  12.320  30.959   4.939
35920W        W 8345  13.144  42.372   0.405
35921W        W 8346  32.478  40.787   0.477
35922W        W 8347  22.034  10.770   3.258
35923W        W 8348  33.142   4.742   0.783
35924W        W 8349  30.665  37.785   3.301
35925W        W 8350  24.746  20.770   1.779
35926W        W 8351  14.732  39.808   0.708
35927W        W 8352  21.057  10.670  13.508
35928W        W 8353  29.120  39.908  13.523
35929W        W 8354   3.066  40.987   2.898
35930W        W 8355   7.082  38.563  10.939
35931W        W 8356  43.123  15.185  14.370
35932W        W 8357  38.944  34.354  11.939
35933W        W 8358  41.910  44.472   0.162
35934W        W 8359   3.902  35.426  13.238
35935W        W 8360  24.621  39.634  13.330
35936W        W 8361  38.683  24.017  12.011
35937W        W 8362  15.130  24.670   2.724
35938W        W 8363  38.900   4.277  10.747
35939W        W 8364  25.821  37.959  10.436
35940W        W 8365   5.471  10.586   4.208
35941W        W 8366  38.938  10.594  14.526
35942W        W 8367  21.716   0.295   3.818
35943W        W 8368  41.026  38.048  11.157
35944W        W 8369  42.285  18.318   2.697
35945W        W 8370  25.184  30.894  14.953
35946W        W 8371  19.335  21.554  11.197
35947W        W 8372  43.086   3.116   1.868
35948W        W 8373  40.873  39.113   2.175
35949W        W 8374  18.153  42.590   4.446
35950W        W 8375   3.352   2.324   4.986
35951W        W 8376  32.656   5.805   2.885
35952W        W 8377  29.995   7.690  10.816
35953W        W 8378  40.579  40.110  14.782
35954W        W 8379  41.423   8.476   4.934
35955W        W 8380  27.945  18.506   4.214
35956W        W 8381   2.916  38.559   1.728
35957W        W 8382  25.370   1.944   0.737
35958W        W 8383  19.500   0.857   3.655
35959W        W 8384   9.963  30.891   3.249
35960W        W 8385   7.029  18.296  13.957
35961W        W 8386  24.237  18.717  11.141
35962W        W 8387  18.117  24.890  11.615
35963W        W 8388  35.590  33.503   1.525
35964W        W 8389  24.894  24.133   0.919
35965W        W 8390  21.632   9.431   2.413
35966W        W 8391  32.101   2.027   4.077
35967W        W 8392  40.344  19.328  14.868
35968W        W 8393  42.328   0.012  14.072
35969W        W 8394  43.496   1.565  14.012
35970W        W 8395   6.682  28.170  10.860
35971W        W 8396   2.795   8.490  12.976
35972W        W 8397  32.021  22.672   3.058
35973W        W 8398  20.102  35.964   3.680
35974W        W 8399  19.045  18.133  13.047
35975W        W 8400  43.122  11.672  10.095
35976W        W 8401  13.205   1.304  14.044
35977W        W 8402   8.913  27.159   2.362
35978W        W 8403  32.423  33.475   4.389
35979W        W 8404  16.749  11.861  11.516
35980W        W 8405  40.145  44.890  11.583
35981W        W 8406  39.291   8.868   2.386
35982W        W 8407  37.854   1.912  14.415
35983W        W 8408  16.807  41.917   2.747
35984W        W 8409  21.442  32.889   4.309
35985W        W 8410   5.736  24.125  11.115
35986W        W 8411   9.309  44.346  14.995
35987W        W 8412  11.029   7.210   4.030
35988W        W 8413  41.039   0.905  13.976
35989W        W 8414  12.397  31.409   2.628
35990W        W 8415  44.564  41.357  11.594
35991W        W 8416  12.116  21.594   2.662
35992W        W 8417  39.898  11.251   3.279
35993W        W 8418  36.595   2.784   2.835
35994W        W 8419  19.726  28.612   4.692
35995W        W 8420  27.184  10.787   0.409
35996W        W 8421  28.988   4.834   5.001
35997W        W 8422   4.817   5.836   3.212
35998W        W 8423  41.544  28.906  13.368
35999W        W 8424  31.599  12.356   1.561
36000W        W 8425  41.906  37.073   1.741
36001W        W 8426  21.736  35.485   4.583
36002W        W 8427  19.097   5.438   0.010
36003W        W 8428  37.975  42.789  12.130
36004W        W 8429  28.627   0.750  11.109
36005W        W 8430  14.926   2.383   1.551
36006W        W 8431  14.611  33.499  10.790
36007W        W 8432   5.729  12.267  12.457
36008W        W 8433  11.350  28.572  14.753
36009W        W 8434  14.221  37.221   2.927
36010W        W 8435  37.733  44.963  12.388
36011W        W 8436  11.830  12.273  14.347
36012W        W 8437   6.803  28.200   3.312
36013W        W 8438  43.608   7.860  12.012
36014W        W 8439  19.795  10.691  12.859
36015W        W 8440  43.922  39.370   0.767
36016W        W 8441  16.505   4.381  11.398
36017W        W 8442  36.639  41.335  13.844
36018W        W 8443   5.238  15.333  13.851
36019W        W 8444  31.490   0.954   3.751
36020W        W 8445  38.643  10.815   1.631
36021W        W 8446  24.226  12.798   4.279
36022W        W 8447  21.180  20.972  11.108
36023W        W 8448  25.419  24.698  11.402
36024W        W 8449  43.489  43.281  12.154
36025W        W 8450   0.042  25.933   2.198
36026W        W 8451  40.007  23.696   4.139
36027W        W 8452  13.625  24.424   1.178
36028W        W 8453  36.457   0.899   2.895
36029W        W 8454  16.128  21.274   0.465
36030W        W 8455  31.197  34.409  10.349
36031W        W 8456  21.600  28.457   3.570
36032W        W 8457  36.945  30.456  10.618
36033W        W 8458   2.546  39.365   0.408
36034W        W 8459  15.087  15.310  14.323
36035W        W 8460  17.730  15.378  12.320
36036W        W 8461   6.239   4.050  12.959
36037W        W 8462  17.328  17.294   3.957
36038W        W 8463   2.041  25.646  12.910
36039W        W 8464  28.547  19.579  13.741
36040W        W 8465  40.754  31.612   2.796
36041W        W 8466   9.254  14.948   3.695
36042W        W 8467  27.292  35.063  14.505
36043W        W 8468  40.379  40.800  12.403
36044W        W 8469  38.349   1.160  14.958
36045W        W 8470   1.720   9.669  11.566
36046W        W 8471   0.215  25.940  10.614
36047W        W 8472  13.728  15.121  13.326
36048W        W 8473  43.338  31.483   4.127
36049W        W 8474   6.184  26.962  12.520
36050W        W 8475  37.571  34.866  12.664
36051W        W 8476  33.335  38.290  11.522
36052W        W 8477  17.226  28.131   1.326
36053W        W 8478   4.234   8.254  11.229
36054W        W 8479   3.790   3.734   3.625
36055W        W 8480  22.450  34.974   0.441
36056W        W 8481  14.675  29.926   2.889
36057W        W 8482   6.686  31.963  13.160
36058W        W 8483  20.677  15.738  13.087
36059W        W 8484   7.236  18.100  12.484
36060W        W 8485  22.228  32.633  14.369
36061W        W 8486  22.174  19.162  11.988
36062W        W 8487  14.217  27.064  14.557
36063W        W 8488  33.591  21.326  12.091
36064W        W 8489  10.666   1.378   2.649
36065W        W 8490  19.305   3.898  13.450
36066W        W 8491   3.968   3.528   1.777
36067W        W 8492  33.653  42.654  13.441
36068W        W 8493   1.948   7.895  12.970
36069W        W 8494   3.379  25.554  12.424
36070W        W 8495  26.196  17.262  11.614
36071W        W 8496  30.705  36.617   1.514
36072W        W 8497  26.166  43.842   0.272
36073W        W 8498  23.914   3.265   2.817
36074W        W 8499  12.348  41.054   4.890
36075W        W 8500  18.486  38.837  13.990
36076W        W 8501   8.174  29.856   0.840
36077W        W 8502   3.830   4.236   4.396
36078W        W 8503   1.405   1.719  12.604
36079W        W 8504  33.581   4.178   3.694
36080W        W 8505   6.286  32.850   2.842
36081W        W 8506  44.750  24.970  11.565
36082W        W 8507   9.085   6.714  12.073
36083W        W 8508  39.520  32.110  11.970
36084W        W 8509  44.688  28.966   4.508
36085W        W 8510   0.246  36.798  12.077
36086W        W 8511  15.436  18.612   1.243
36087W        W 8512   1.675   9.482  12.560
36088W        W 8513  37.974  21.015  13.793
36089W        W 8514  25.520  37.901  10.875
36090W        W 8515  22.770  40.927   3.208
36091W        W 8516  17.985  40.610  13.888
36092W        W 8517  41.707  33.987   1.899
36093W        W 8518  12.642  43.423   4.606
36094W        W 8519  22.571   4.333   2.752
36095W        W 8520  30.706  37.460   4.721
36096W        W 8521  29.168   6.578   4.310
36097W        W 8522  21.599  43.004   3.302
36098W        W 8523  19.814  44.124  11.276
36099W        W 8524  28.434  38.100  11.852
36100W        W 8525  29.852  13.718  10.744
36101W        W 8526  26.632   0.514  13.037
36102W        W 8527  28.995  30.470  13.837
36103W        W 8528  17.666  14.268  12.014
36104W        W 8529  21.563  19.560   0.918
36105W        W 8530  42.226   4.877  11.590
36106W        W 8531   1.257   2.372   4.174
36107W        W 8532  40.591  22.430   0.919
36108W        W 8533  38.571  33.085  14.058
36109W        W 8534  26.654  12.376  13.915
36110W        W 8535  22.605  42.887   0.514
36111W        W 8536  29.590  40.416   3.770
36112W        W 8537  37.587  37.861  11.618
36113W        W 8538   4.154   6.324   3.655
36114W        W 8539  39.996  12.729   2.845
36115W        W 8540  42.998  33.355  14.705
36116W        W 8541   3.154  32.087   9.715
36117W        W 8542  35.501  41.710   0.477
36118W        W 8543   0.877  25.591  11.959
36119W        W 8544   7.983  37.796   2.832
36120W        W 8545  29.649  20.248  14.056
36121W        W 8546  17.929  18.571   0.743
36122W        W 8547   8.159  26.188  12.622
36123W        W 8548  35.291  21.230   2.881
36124W        W 8549  14.922   7.345  14.496
36125W        W 8550  34.573  28.878   2.877
36126W        W 8551  16.818  29.381   4.104
36127W        W 8552  44.062  21.561  12.477
36128W        W 8553  43.785  38.566   4.136
36129W        W 8554  40.503  30.106   2.799
36130W        W 8555  38.410  37.506  11.591
36131W        W 8556  21.118  13.838  12.406
36132W        W 8557  42.454  42.493  12.556
36133W        W 8558  36.550  13.474   1.708
36134W        W 8559   9.303  32.963   4.729
36135W        W 8560  36.348   4.224  14.560
36136W        W 8561  29.702  29.972   0.749
36137W        W 8562  43.345  28.117  13.009
36138W        W 8563   7.609   2.517   3.271
36139W        W 8564  32.598   1.236  11.954
36140W        W 8565  30.976  31.434  13.886
36141W        W 8566  23.362  42.042   3.197
36142W        W 8567  26.609   0.692  11.592
36143W        W 8568   5.977  44.987  11.140
36144W        W 8569  25.588  13.709   1.713
36145W        W 8570  34.313  25.998  13.858
36146W        W 8571  35.821  12.768   3.358
36147W        W 8572   0.366  10.778   1.749
36148W        W 8573  18.593  21.926   2.301
36149W        W 8574  37.870   8.867   2.376
36150W        W 8575   0.763  26.118   2.832
36151W        W 8576  15.609  10.430   4.166
36152W        W 8577  38.809   6.384  10.463
36153W        W 8578  28.205   5.827   0.762
36154W        W 8579   2.824  43.253   2.581
36155W        W 8580  42.912   8.483  13.575
36156W        W 8581  13.998  16.231  14.812
36157W        W 8582  30.049  34.574   2.144
36158W        W 8583  39.031  17.609  10.721
36159W        W 8584   7.635  31.768   3.186
36160W        W 8585  22.943  38.501   4.498
36161W        W 8586  16.321  31.631   2.981
36162W        W 8587  37.932  36.811  12.575
36163W        W 8588   8.851  43.003  13.873
36164W        W 8589   7.838  39.912   4.722
36165W        W 8590  29.136   6.303   1.720
36166W        W 8591  15.828  37.807   4.065
36167W        W 8592  28.975  28.596   0.279
36168W        W 8593  16.343  40.306  10.743
36169W        W 8594  36.428  17.632  13.102
36170W        W 8595  41.596  44.309   2.168
36171W        W 8596   8.776  13.303   4.082
36172W        W 8597  26.532  31.564   2.052
36173W        W 8598  38.188  37.537   2.744
36174W        W 8599   7.850  33.174   1.901
36175W        W 8600  17.165   2.695  12.175
36176W        W 8601  34.297  21.520  10.687
36177W        W 8602  35.483  17.539  13.193
36178W        W 8603  25.305  11.631   1.758
36179W        W 8604  13.830  12.370  13.277
36180W        W 8605  18.921  33.582  11.000
36181W        W 8606  40.474  15.832   4.666
36182W        W 8607  34.708  33.899  11.578
36183W        W 8608   7.591   6.917  12.946
36184W        W 8609   4.186  19.577  11.997
36185W        W 8610  32.592  33.860  12.267
36186W        W 8611   9.007  39.629  11.589
36187W        W 8612  36.641  35.804  11.462
36188W        W 8613  34.899  42.472   0.946
36189W        W 8614  15.957  38.043   5.105
36190W        W 8615  35.812  37.075  12.479
36191W        W 8616  25.282  36.624   3.366
36192W        W 8617  22.058   5.264  14.739
36193W        W 8618  33.624  34.525  11.392
36194W        W 8619  38.362  35.195   2.743
36195W        W 8620  24.916  29.500  12.887
36196W        W 8621  42.005  10.088  12.024
36197W        W 8622   2.334  36.829  11.177
36198W        W 8623  30.093  29.626   4.686
36199W        W 8624  23.621  18.744   2.368
36200W        W 8625   1.349  31.143  12.128
36201W        W 8626  12.637  16.718   4.121
36202W        W 8627  31.343  31.545  11.956
36203W        W 8628  21.063   3.787   1.382
36204W        W 8629   1.317  15.557   2.696
36205W        W 8630  24.988  39.689  12.954
36206W        W 8631  23.824  25.994   4.145
36207W        W 8632  22.227  16.730  14.425
36208W        W 8633  10.697  31.391   0.180
36209W        W 8634  14.773   9.829  12.046
36210W        W 8635  36.293  30.418   0.311
36211W        W 8636   1.843  13.226  14.302
36212W        W 8637  22.781   6.436   3.233
36213W        W 8638   5.398  37.146  10.801
36214W        W 8639  37.980  20.678   4.202
36215W        W 8640   1.967  39.335  13.065
36216W        W 8641   6.213  39.458   0.870
36217W        W 8642  10.178   9.766  14.950
36218W        W 8643  17.421   8.398   1.570
36219W        W 8644   8.224  39.573  11.885
36220W        W 8645  40.906  34.811   3.685
36221W        W 8646  36.232  23.417   0.024
36222W        W 8647   6.724  26.395   3.805
36223W        W 8648   4.367  22.681  13.032
36224W        W 8649  21.147  39.211   2.242
36225W        W 8650   1.022  33.523   0.250
36226W        W 8651  14.916   2.909   0.485
36227W        W 8652  31.886  36.656   3.153
36228W        W 8653   4.299   0.946  11.223
36229W        W 8654   9.719  37.163  11.694
36230W        W 8655   9.514  15.183  14.376
36231W        W 8656  26.542  28.625  12.995
36232W        W 8657  34.538  24.771   0.669
36233W        W 8658  17.434  40.675  12.983
36234W        W 8659  21.631   6.762   1.172
36235W        W 8660  22.443  44.651   2.825
36236W        W 8661  39.334  36.958  13.884
36237W        W 8662  16.525  35.016   3.742
36238W        W 8663  23.627  44.082  13.070
36239W        W 8664  36.440  26.025   4.167
36240W        W 8665  28.928  39.706   1.467
36241W        W 8666  36.161   9.656  12.827
36242W        W 8667   9.313   5.845  12.498
36243W        W 8668  26.037  18.557  11.093
36244W        W 8669  33.569   5.447   2.596
36245W        W 8670  16.071  36.854  11.532
36246W        W 8671  21.225  23.993   1.249
36247W        W 8672  16.888  24.534   3.762
36248W        W 8673  38.922  41.430  13.499
36249W        W 8674   8.685  25.226   0.258
36250W        W 8675  26.995   0.062   3.641
36251W        W 8676  30.451  23.301   2.615
36252W        W 8677  35.692  41.026   2.857
36253W        W 8678  19.160   3.516   4.216
36254W        W 8679  19.619  10.270   0.786
36255W        W 8680   5.258  11.007  14.147
36256W        W 8681  41.373  25.857   4.070
36257W        W 8682  19.104  40.426  13.865
36258W        W 8683  23.400  21.712   4.192
36259W        W 8684   5.165  34.843   2.285
36260W        W 8685   4.778  33.568  14.266
36261W        W 8686  38.372  28.202  10.820
36262W        W 8687  37.989  20.379   3.735
36263W        W 8688   9.877   2.918  13.929
36264W        W 8689  10.835  19.733  14.789
36265W        W 8690  27.085  17.263  11.559
36266W        W 8691  26.455  25.891   0.034
36267W        W 8692   3.727   3.724  13.415
36268W        W 8693  36.112  31.913  11.731
36269W        W 8694  41.862  37.802   4.767
36270W        W 8695   4.730   6.410   2.953
36271W        W 8696   8.149  38.886  12.410
36272W        W 8697  44.167   4.447  11.102
36273W        W 8698  18.117  33.883  10.430
36274W        W 8699  44.523  16.176  10.843
36275W        W 8700  44.847  22.031   2.320
36276W        W 8701  35.059  13.111  12.176
36277W        W 8702  11.818  22.804  10.116
36278W        W 8703  20.149  40.819  13.330
36279W        W 8704   4.237  18.415  14.494
36280W        W 8705  13.776  23.736   3.103
36281W        W 8706   6.424   3.179   3.198
36282W        W 8707   4.239   0.887   4.591
36283W        W 8708  41.399  32.680  14.776
36284W        W 8709  37.372  32.629  13.011
36285W        W 8710  42.834   0.395   3.796
36286W        W 8711   0.637   8.982  13.488
36287W        W 8712  27.068  42.983  12.824
36288W        W 8713  35.933  41.572   0.755
36289W        W 8714   2.384   4.782   0.381
36290W        W 8715  35.901   5.226  13.327
36291W        W 8716   9.359  38.500   2.174
36292W        W 8717  22.792  22.214  11.650
36293W        W 8718  17.632  24.612  14.262
36294W        W 8719   2.458  28.563   4.341
36295W        W 8720   6.296  22.831  13.935
36296W        W 8721  17.536   2.766   5.557
36297W        W 8722   0.787  12.087   4.154
36298W        W 8723  17.251  44.632   2.388
36299W        W 8724  37.635  44.092   1.373
36300W        W 8725   4.693  31.969   3.980
36301W        W 8726  32.652  19.776   0.228
36302W        W 8727  12.460   3.361   3.507
36303W        W 8728   1.913  11.334  12.886
36304W        W 8729   6.348  42.627   1.994
36305W        W 8730  40.966   1.318  14.789
36306W        W 8731  17.318   0.403   1.826
36307W        W 8732  30.537  13.695   0.887
36308W        W 8733  42.714  20.088   3.721
36309W        W 8734   1.696  28.872  12.060
36310W        W 8735  38.730  33.490   2.862
36311W        W 8736  28.006  27.919   4.411
36312W        W 8737  43.888  21.210  10.484
36313W        W 8738  29.549   8.745   0.521
36314W        W 8739  41.445  32.557  13.309
36315W        W 8740  38.446  29.418   3.644
36316W        W 8741   4.457  25.257   3.272
36317W        W 8742  35.872  43.331   4.138
36318W        W 8743  43.883  19.307  13.424
36319W        W 8744  28.287  40.914  12.056
36320W        W 8745  29.940  15.594  12.797
36321W        W 8746  30.065  37.322  14.227
36322W        W 8747  34.021  44.389   4.536
36323W        W 8748  16.878  41.820  12.159
36324W        W 8749   2.473   1.290  14.283
36325W        W 8750   5.407  38.056   0.746
36326W        W 8751  32.845  20.685   2.015
36327W        W 8752  30.896  16.316  10.564
36328W        W 8753  32.649   9.695  13.580
36329W        W 8754  16.824   2.915  13.395
36330W        W 8755  24.660  20.965   4.996
36331W        W 8756  19.305  24.970   1.846
36332W        W 8757  18.580   4.428  14.465
36333W        W 8758   9.183   3.810  10.669
36334W        W 8759  40.845  32.992   3.767
36335W        W 8760   1.814  13.806   4.588
36336W        W 8761  40.265  17.172  14.291
36337W        W 8762   3.471  35.905  11.156
36338W        W 8763  27.740  36.878   0.331
36339W        W 8764  16.570  12.773  10.616
36340W        W 8765   9.830   6.164   0.394
36341W        W 8766  14.654  30.543   4.997
36342W        W 8767  35.560  10.419   1.231
36343W        W 8768  30.575  40.315  13.933
36344W        W 8769  13.988   3.385  11.578
36345W        W 8770   4.870   1.356  13.832
36346W        W 8771  28.096  40.633  14.744
36347W        W 8772  12.380   6.480   4.186
36348W        W 8773   4.052  14.001   2.374
36349W        W 8774  25.355   8.205   2.981
36350W        W 8775  27.941   8.433   1.296
36351W        W 8776  22.207  30.410  13.545
36352W        W 8777  29.068  39.991   1.072
36353W        W 8778  41.455  44.502   0.418
36354W        W 8779  37.884  29.549   2.383
36355W        W 8780  24.212  35.144   0.919
36356W        W 8781  17.300   6.941   0.372
36357W        W 8782  15.327  12.286   2.142
36358W        W 8783   9.463   9.157  13.347
36359W        W 8784  36.021  35.084   3.158
36360W        W 8785   4.235   7.746   1.831
36361W        W 8786  28.469   7.309   0.322
36362W        W 8787  18.055  32.908   3.297
36363W        W 8788   8.690  19.163  12.271
36364W        W 8789   5.539  37.446   2.612
36365W        W 8790   2.741   6.843   2.693
36366W        W 8791   5.702  12.375   0.897
36367W        W 8792  35.992  35.978  13.680
36368W        W 8793  42.092  36.357  13.413
36369W        W 8794   4.404   5.727   4.325
36370W        W 8795   1.903  26.920   1.300
36371W        W 8796  38.088  17.767  11.144
36372W        W 8797   8.319  41.336   1.379
36373W        W 8798  23.547  39.592  14.530
36374W        W 8799   8.357  30.611   2.819
36375W        W 8800  12.622  11.031  13.131
36376W        W 8801  44.365  27.537   3.733
36377W        W 8802   6.309  36.858  14.713
36378W        W 8803  44.458  30.924   1.392
36379W        W 8804  24.138  41.184  10.298
36380W        W 8805  31.656   5.864   3.113
36381W        W 8806  18.156  30.162  11.443
36382W        W 8807   7.639  24.948   3.993
36383W        W 8808   5.018  44.304  11.079
36384W        W 8809  14.146  35.034  11.658
36385W        W 8810  38.081  33.685  14.693
36386W        W 8811  14.328   0.946   0.191
36387W        W 8812  29.435  40.979   4.532
36388W        W 8813  32.846  28.602   1.450
36389W        W 8814  24.259  10.945  14.059
36390W        W 8815  36.692  31.841  10.654
36391W        W 8816  20.806  18.302   2.347
36392W        W 8817  18.018  10.760   3.091
36393W        W 8818  10.278  28.702   2.222
36394W        W 8819   9.696   8.104   4.774
36395W        W 8820  39.057  41.943   2.848
36396W        W 8821  29.924   4.027  12.907
36397W        W 8822  31.857   9.182  14.565
36398W        W 8823  21.140  44.436  13.578
36399W        W 8824  35.227  24.794  13.712
36400W        W 8825  15.616   5.234   2.791
36401W        W 8826  11.888  13.410  13.862
36402W        W 8827  18.100  22.537   3.217
36403W        W 8828  32.065  14.345   0.373
36404W        W 8829  15.837   1.772  12.155
36405W        W 8830  18.484   8.403   4.059
36406W        W 8831  36.821  29.232  10.991
36407W        W 8832   6.167  15.823   2.273
36408W        W 8833  33.979   6.788  12.134
36409W        W 8834  23.608  11.186   1.743
36410W        W 8835  25.700   8.378   3.983
36411W        W 8836  16.419  21.634   4.041
36412W        W 8837   5.522   4.024   3.084
36413W        W 8838  36.540  13.536  12.220
36414W        W 8839  25.299  30.842   2.392
36415W        W 8840  38.516  12.626  11.557
36416W        W 8841  18.526  20.618   2.133
36417W        W 8842  26.491  40.437  11.936
36418W        W 8843  43.675  18.059   1.003
36419W        W 8844  31.739  15.665  14.863
36420W        W 8845  30.404  17.568   1.779
36421W        W 8846  38.472   9.646   4.294
36422W        W 8847  22.580  17.472   3.239
36423W        W 8848  15.273  16.701  10.901
36424W        W 8849  29.976  19.959   3.657
36425W        W 8850  36.983  33.623  14.386
36426W        W 8851  34.894  15.275  11.897
36427W        W 8852  29.489  18.234  13.092
36428W        W 8853   8.338  44.769  13.511
36429W        W 8854   2.208  27.222  13.611
36430W        W 8855  43.356  36.401  14.105
36431W        W 8856  16.862  34.967  11.889
36432W        W 8857  15.032  32.985   4.726
36433W        W 8858   6.299  40.165  12.975
36434W        W 8859  30.894  33.453   2.733
36435W        W 8860  13.343  37.892   0.419
36436W        W 8861  25.544  30.119  12.417
36437W        W 8862  37.891  32.040  12.569
36438W        W 8863  32.539  34.286  12.607
36439W        W 8864  13.631  21.790   0.952
36440W        W 8865  24.466  40.992  10.663
36441W        W 8866  34.571  25.570  14.012
36442W        W 8867  23.506   0.713   1.299
36443W        W 8868  28.188   1.081   1.374
36444W        W 8869  38.656  44.794  14.779
36445W        W 8870  22.031  41.826  11.649
36446W        W 8871   7.755  30.142   3.914
36447W        W 8872  15.271  39.455   3.270
36448W        W 8873   5.967  10.283   3.653
36449W        W 8874   9.340   9.421   3.812
36450W        W 8875  41.370  25.576   1.469
36451W        W 8876  44.402  37.931  14.294
36452W        W 8877  20.585   7.793   4.766
36453W        W 8878   3.508  19.089  12.444
36454W        W 8879  13.744  21.018  14.000
36455W        W 8880  22.667  38.430  10.732
36456W        W 8881  31.938  19.224   1.899
36457W        W 8882  10.393  18.094  11.300
36458W        W 8883  12.533  15.503   2.200
36459W        W 8884   8.891  13.893  13.474
36460W        W 8885   3.996  28.678   4.211
36461W        W 8886  37.571   7.932   3.154
36462W        W 8887   0.206  25.643  12.591
36463W        W 8888   5.142  15.811   0.266
36464W        W 8889  33.578  15.673  12.043
36465W        W 8890  22.548   7.482  12.501
36466W        W 8891  29.472   7.780  10.564
36467W        W 8892  25.482  27.156  10.677
36468W        W 8893  37.880  38.455   1.203
36469W        W 8894  28.498  43.270   0.955
36470W        W 8895  39.600  26.861  14.015
36471W        W 8896  20.982  33.990   2.233
36472W        W 8897  10.322  27.785  11.193
36473W        W 8898  22.511  29.891  14.739
36474W        W 8899  33.869   1.339  14.264
36475W        W 8900  14.509  15.339   2.865
36476W        W 8901   3.431  13.378   1.791
36477W        W 8902  13.690   7.842  14.597
36478W        W 8903  15.754  11.889  13.914
36479W        W 8904  31.073  25.572   2.826
36480W        W 8905  42.042  18.284  12.782
36481W        W 8906  15.541  28.681  13.786
36482W        W 8907   8.170  17.364  12.860
36483W        W 8908  21.674  18.813  12.885
36484W        W 8909  43.100   8.453   0.467
36485W        W 8910  13.276  13.802  13.204
36486W        W 8911  10.876   0.378  12.287
36487W        W 8912  30.662  32.463   4.992
36488W        W 8913  39.493  26.962  14.888
36489W        W 8914  14.086  19.931   1.793
36490W        W 8915  14.498  37.451  14.724
36491W        W 8916  32.033  25.793   2.749
36492W        W 8917  24.134  15.579   4.619
36493W        W 8918   7.503  16.305  14.804
36494W        W 8919  36.558  15.788   1.396
36495W        W 8920  40.827  10.900   4.067
36496W        W 8921  30.299   1.376   0.653
36497W        W 8922  14.543  33.673  13.499
36498W        W 8923  21.712  25.015   0.750
36499W        W 8924  28.075  36.698  11.903
36500W        W 8925   2.705  19.994   2.891
36501W        W 8926  31.990   0.467   1.735
36502W        W 8927  23.740  13.746   4.698
36503W        W 8928  16.318  24.865   0.089
36504W        W 8929  13.189  43.966   4.235
36505W        W 8930  42.523   7.409   2.426
36506W        W 8931   3.885  44.188   2.213
36507W        W 8932  37.168  27.191   0.008
36508W        W 8933  15.577   2.616  12.120
36509W        W 8934  36.111  25.996   0.383
36510W        W 8935  16.805  30.106  10.071
36511W        W 8936  44.886  25.156   4.879
36512W        W 8937  18.860  12.291  11.234
36513W        W 8938  34.774  13.543  14.833
36514W        W 8939  31.899  41.919   1.892
36515W        W 8940  24.228   9.439  12.342
36516W        W 8941   6.794  12.625   2.320
36517W        W 8942  33.988   8.962   0.951
36518W        W 8943  35.556  18.188   4.282
36519W        W 8944   6.752  43.952  10.717
36520W        W 8945  35.037  12.625  10.379
36521W        W 8946   9.784  31.559  12.052
36522W        W 8947  24.589  17.656  13.555
36523W        W 8948  16.650  29.380   3.197
36524W        W 8949   2.665  27.691   2.880
36525W        W 8950  24.132   8.839  13.866
36526W        W 8951  12.842   3.935  14.484
36527W        W 8952   3.302   1.360  12.951
36528W        W 8953  24.781   5.835   0.006
36529W        W 8954  33.308  35.448   3.664
36530W        W 8955  31.042   9.230   4.482
36531W        W 8956  16.352  43.970   4.161
36532W        W 8957  20.537   4.752   4.110
36533W        W 8958  23.574   5.376  13.880
36534W        W 8959  19.561  44.732   4.985
36535W        W 8960  37.241  28.892  11.008
36536W        W 8961  42.755  44.375   1.431
36537W        W 8962  34.072  15.718   3.177
36538W        W 8963  14.122  29.262  12.628
36539W        W 8964  16.168  13.290  11.149
36540W        W 8965  34.544  29.422   1.314
36541W        W 8966   9.207  24.470  10.600
36542W        W 8967  44.388  16.289  13.289
36543W        W 8968  39.336   7.938   2.624
36544W        W 8969  21.168  35.547  10.928
36545W        W 8970  28.697  30.628  11.254
36546W        W 8971  28.899  20.400  14.240
36547W        W 8972  40.062  21.257  10.539
36548W        W 8973  26.042  17.264  13.640
36549W        W 8974  43.306  41.971   3.121
36550W        W 8975  42.946  35.446  11.485
36551W        W 8976  28.907   8.270   1.849
36552W        W 8977  19.322   5.842  13.439
36553W        W 8978  44.000  18.795   3.291
36554W        W 8979  25.738   0.379  11.030
36555W        W 8980  30.178  39.965   2.627
36556W        W 8981  38.065  41.880  10.724
36557W        W 8982  27.464  40.460   3.650
36558W        W 8983  40.307  37.506  11.987
36559W        W 8984  17.047  38.449   2.792
36560W        W 8985  25.782   3.378  13.824
36561W        W 8986  37.696   0.792   0.613
36562W        W 8987   6.242   5.845  11.111
36563W        W 8988   4.914  29.356  12.106
36564W        W 8989  17.403   1.165   4.915
36565W        W 8990  24.624  13.004  12.038
36566W        W 8991   9.839   4.487  12.927
36567W        W 8992   8.087  19.428  11.077
36568W        W 8993  37.326  16.005  13.348
36569W        W 8994  37.993  21.778  14.909
36570W        W 8995  36.584  13.926  12.590
36571W        W 8996   1.326  34.535   4.389
36572W        W 8997  10.660  17.726  12.443
36573W        W 8998  38.242  43.384  14.444
36574W        W 8999  44.002  36.823   3.732
36575W        W 9000  44.404  16.771   2.485
36576W        W 9001  44.510  14.254  13.749
36577W        W 9002  21.292  30.179   0.481
36578W        W 9003  23.156  32.393  12.842
36579W        W 9004  42.488   3.423   0.263
36580W        W 9005  27.348  28.662  13.544
36581W        W 9006   2.836  14.734   4.361
36582W        W 9007   7.739   4.370   4.693
36583W        W 9008  17.466  18.790   4.960
36584W        W 9009  41.135  38.103  12.066
36585W        W 9010  44.318  41.963  13.108
36586W        W 9011  36.926  17.432   1.318
36587W        W 9012  11.289  19.467  14.798
36588W        W 9013  28.635  20.557  13.820
36589W        W 9014  38.415  17.733   1.801
36590W        W 9015  38.511  43.558   1.165
36591W        W 9016  17.600  15.402  13.854
36592W        W 9017  18.062  16.781   3.793
36593W        W 9018  39.610  43.459  11.465
36594W        W 9019  16.333  39.097   0.713
36595W        W 9020  28.569   3.070   2.678
36596W        W 9021  42.574  26.442   4.427
36597W        W 9022   2.716   0.767   3.364
36598W        W 9023  21.594  21.464   4.069
36599W        W 9024  42.965  14.615  13.517
36600W        W 9025  34.083  21.046  11.195
36601W        W 9026  30.922   4.016   3.443
36602W        W 9027  33.647  26.764  14.980
36603W        W 9028  40.452  23.543   3.366
36604W        W 9029  33.518  16.581   2.241
36605W        W 9030  36.636  41.915  12.129
36606W        W 9031  20.766   2.696  14.231
36607W        W 9032   6.645  17.111  11.987
36608W        W 9033  41.988  38.062   3.463
36609W        W 9034   3.247  25.743   0.840
36610W        W 9035  10.470   9.147   4.607
36611W        W 9036  22.744  18.832   2.146
36612W        W 9037  30.700   2.479   0.600
36613W        W 9038   4.429  15.052  13.896
36614W        W 9039  14.328   9.811  12.775
36615W        W 9040  31.861  21.146  11.544
36616W        W 9041  14.425  44.697   3.404
36617W        W 9042   2.418   0.656  11.557
36618W        W 9043  39.510  33.428  14.207
36619W        W 9044  27.195   5.528   1.896
36620W        W 9045  26.565  25.937   3.246
36621W        W 9046   9.846  41.538  13.494
36622W        W 9047   7.382   4.195  12.696
36623W        W 9048  19.109  43.885  14.883
36624W        W 9049  39.041  19.679   0.706
36625W        W 9050  44.901  36.375  11.516
36626W        W 9051   4.948  20.273  11.965
36627W        W 9052  21.311  30.460  10.708
36628W        W 9053  22.073  15.734  14.710
36629W        W 9054  17.109  34.394  14.825
36630W        W 9055  12.718  28.723  11.541
36631W        W 9056  12.646  19.738   3.076
36632W        W 9057   8.061   9.107   0.830
36633W        W 9058  17.109  23.999   2.167
36634W        W 9059  36.883  22.281   3.309
36635W        W 9060  43.034  24.165   1.829
36636W        W 9061  24.223   6.779   1.326
36637W        W 9062  41.732  34.456   2.273
36638W        W 9063  43.569  19.290  14.987
36639W        W 9064  17.235  26.171  13.835
36640W        W 9065  43.962  32.975  12.949
36641W        W 9066  30.954   4.879   2.611
36642W        W 9067  41.749  43.253   4.183
36643W        W 9068  22.293  41.705  12.096
36644W        W 9069  11.547  23.970   2.979
36645W        W 9070   4.254  41.799   4.784
36646W        W 9071   7.134   4.729   2.188
36647W        W 9072  29.014  14.143   3.244
36648W        W 9073  36.348   4.725  14.380
36649W        W 9074  31.406  15.658   4.614
36650W        W 9075  28.621  41.075  10.973
36651W        W 9076   9.122  22.310   3.559
36652W        W 9077  18.259  19.607  11.529
36653W        W 9078   2.277  30.685   1.299
36654W        W 9079  33.053  19.558  10.095
36655W        W 9080  13.795  26.907  12.416
36656W        W 9081   7.170  10.785  10.415
36657W        W 9082  25.196  27.948   3.231
36658W        W 9083   7.797  25.668   0.914
36659W        W 9084  12.158  28.224  14.498
36660W        W 9085  44.257  21.642   2.844
36661W        W 9086   1.710  41.470   3.682
36662W        W 9087  10.289  30.968  10.667
36663W        W 9088  29.974  25.774   0.696
36664W        W 9089  37.395  16.352   2.282
36665W        W 9090  41.140   8.347  13.358
36666W        W 9091  30.956  32.194   4.617
36667W        W 9092  35.298  42.215   3.263
36668W        W 9093  21.144  40.729   1.641
36669W        W 9094  38.748  24.155  11.168
36670W        W 9095  35.417   5.578  10.551
36671W        W 9096  42.787  10.155  11.171
36672W        W 9097  35.300  30.506   4.633
36673W        W 9098  11.873   4.792   0.634
36674W        W 9099  41.011  24.556   3.179
36675W        W 9100   1.009  37.936   4.141
36676W        W 9101  42.571  43.906  12.851
36677W        W 9102   7.302  18.268  11.529
36678W        W 9103   6.664   7.575   3.688
36679W        W 9104  34.446  30.190   1.832
36680W        W 9105  34.328  12.193  10.800
36681W        W 9106  35.814   7.698  13.654
36682W        W 9107  30.908  17.115   4.629
36683W        W 9108  15.857  24.766  11.191
36684W        W 9109  31.034  22.716  13.376
36685W        W 9110  22.686  33.389  15.000
36686W        W 9111  33.497  34.479   2.815
36687W        W 9112  19.269  26.574  14.580
36688W        W 9113  17.268  22.215  12.797
36689W        W 9114  26.472  18.401   1.240
36690W        W 9115  22.561  32.551  13.404
36691W        W 9116  30.513  36.874  12.967
36692W        W 9117  35.486  27.753   3.837
36693W        W 9118  14.429  16.514  11.931
36694W        W 9119  43.275  13.901  10.578
36695W        W 9120  23.587  40.361  11.036
36696W        W 9121  17.032  28.295   3.151
36697W        W 9122   3.953  39.403   4.103
36698W        W 9123   3.075   5.033   3.112
36699W        W 9124  29.464  12.373   1.804
36700W        W 9125  38.397  41.333  14.917
36701W        W 9126  11.195  11.799   2.370
36702W        W 9127  42.776  24.049  10.795
36703W        W 9128  40.586  21.767  10.870
36704W        W 9129  34.664  20.643  11.868
36705W        W 9130  41.762  23.150   2.225
36706W        W 9131  34.617  41.427   4.568
36707W        W 9132  14.112  29.540  14.617
36708W        W 9133  14.779  25.845   2.519
36709W        W 9134  44.380  26.152   0.145
36710W        W 9135  27.652  40.015  13.858
36711W        W 9136  40.752  43.827   2.372
36712W        W 9137  13.193   7.305   1.976
36713W        W 9138  43.622  30.914   0.780
36714W        W 9139  44.430  34.214  11.459
36715W        W 9140  34.928  41.801  12.504
36716W        W 9141  16.186  35.704   4.655
36717W        W 9142   2.216  24.083  10.433
36718W        W 9143   4.942  44.167   0.875
36719W        W 9144  28.528   9.242  12.914
36720W        W 9145  11.199  35.515   0.777
36721W        W 9146  27.711   6.782  14.846
36722W        W 9147  43.344  30.042  10.630
36723W        W 9148  23.141  10.060  13.466
36724W        W 9149  31.755  26.525  12.804
36725W        W 9150   0.622  11.901  11.977
36726W        W 9151  31.890   5.530   4.023
36727W        W 9152  28.979  26.302   1.406
36728W        W 9153  20.534  39.442  12.086
36729W        W 9154   1.841  10.076   1.306
36730W        W 9155  35.571  39.279  12.931
36731W        W 9156  42.264   6.149  12.024
36732W        W 9157  42.518  41.175   1.701
36733W        W 9158  13.429  17.471   0.912
36734W        W 9159  37.316  30.380   3.221
36735W        W 9160  11.704  11.973   3.122
36736W        W 9161  24.938  29.400   4.915
36737W        W 9162  33.680  26.443  14.424
36738W        W 9163  10.307  24.306  11.867
36739W        W 9164   1.813   2.771  11.429
36740W        W 9165  23.312   5.006  14.739
36741W        W 9166  43.448  14.176   3.715
36742W        W 9167  31.351  36.098   1.212
36743W        W 9168   8.624  21.464  11.718
36744W        W 9169  41.730  30.277  14.840
36745W        W 9170  16.514   9.946   3.718
36746W        W 9171  25.983  38.256   0.210
36747W        W 9172  16.256  42.336  12.586
36748W        W 9173  18.833   0.446   1.356
36749W        W 9174  19.693   2.221  12.850
36750W        W 9175  18.196  22.348   4.081
36751W        W 9176  20.556  12.163  12.986
36752W        W 9177  22.677  20.878   3.171
36753W        W 9178  27.757  34.180  14.465
36754W        W 9179  43.402  43.751  13.895
36755W        W 9180  39.923  30.894  11.906
36756W        W 9181  25.033  10.310  13.903
36757W        W 9182   1.933   6.835   2.307
36758W        W 9183  25.351  24.700  12.647
36759W        W 9184  34.417  25.783   2.269
36760W        W 9185   5.321   8.238  11.190
36761W        W 9186  27.994  35.582   1.691
36762W        W 9187  23.722   1.904  14.022
36763W        W 9188  33.643  39.594  14.499
36764W        W 9189   9.883  25.689   3.085
36765W        W 9190   4.381  15.585  13.840
36766W        W 9191  10.408   4.373   4.790
36767W        W 9192  44.867  35.428  13.627
36768W        W 9193  19.607  22.188   3.366
36769W        W 9194  24.595  25.124  11.394
36770W        W 9195  39.586  36.535  13.281
36771W        W 9196   3.737   1.836   3.685
36772W        W 9197   1.419  32.666   4.898
36773W        W 9198   0.289  27.361  10.738
36774W        W 9199  40.055  21.206  11.900
36775W        W 9200   9.716  38.046  12.600
36776W        W 9201  40.807  13.664   2.827
36777W        W 9202   1.311  26.428   2.789
36778W        W 9203   5.329   3.260   0.798
36779W        W 9204  29.079  13.363  13.936
36780W        W 9205  10.909  41.962  10.687
36781W        W 9206  16.245  27.113  12.030
36782W        W 9207  34.887  10.461   0.963
36783W        W 9208  43.221  27.806  10.180
36784W        W 9209  26.578   6.762   0.954
36785W        W 9210  27.780  22.060  12.773
36786W        W 9211   0.013  17.093  12.493
36787W        W 9212  36.308   6.959   3.658
36788W        W 9213   1.728  36.492   1.256
36789W        W 9214   2.483  12.256   1.821
36790W        W 9215  38.926  10.070  11.934
36791W        W 9216  27.600  18.659  14.999
36792W        W 9217  34.971  36.190   2.134
36793W        W 9218  18.608  40.929   3.132
36794W        W 9219  12.174   0.799   4.338
36795W        W 9220   7.239  43.241  12.774
36796W        W 9221  13.758  33.775   4.590
36797W        W 9222  30.168  15.131   3.766
36798W        W 9223  34.506  23.398   0.417
36799W        W 9224  17.617  30.727  10.117
36800W        W 9225  30.858   8.811   0.474
36801W        W 9226   4.808   2.122   2.738
36802W        W 9227  16.575  36.577  14.781
36803W        W 9228  39.938  42.388  12.190
36804W        W 9229  28.096  14.211  10.643
36805W        W 9230  39.585  36.344   1.426
36806W        W 9231  14.697  26.449   3.223
36807W        W 9232  29.590  14.125  13.146
36808W        W 9233  16.302   5.218  13.500
36809W        W 9234  35.960  14.175  10.987
36810W        W 9235  23.665  26.327   1.920
36811W        W 9236  30.323   2.765   2.674
36812W        W 9237  24.665   0.797  10.699
36813W        W 9238  35.707  27.149   4.666
36814W        W 9239  30.855  10.700  12.034
36815W        W 9240  12.109   6.740  13.516
36816W        W 9241  19.732  22.672  13.053
36817W        W 9242  26.624   3.268   1.818
36818W        W 9243  31.154  13.685  14.233
36819W        W 9244  11.050  30.544  11.244
36820W        W 9245  28.505  17.685   3.881
36821W        W 9246  21.827   0.811   2.232
36822W        W 9247   7.638  41.007   1.320
36823W        W 9248  42.373  29.867  11.112
36824W        W 9249   1.345  17.586  12.104
36825W        W 9250   8.358   4.692   0.039
36826W        W 9251  18.539  41.765   0.869
36827W        W 9252   0.214  28.910   4.155
36828W        W 9253   1.374  40.239  12.637
36829W        W 9254  23.063  16.991   2.348
36830W        W 9255   0.343  40.442   2.817
36831W        W 9256  30.072  39.865  14.551
36832W        W 9257  10.202   8.472  10.206
36833W        W 9258   8.939  23.026   4.594
36834W        W 9259  36.533  15.255  12.686
36835W        W 9260  28.625  18.602  14.028
36836W        W 9261  37.359  14.169  11.684
36837W        W 9262  38.424  20.953   3.358
36838W        W 9263   0.407  21.535   3.270
36839W        W 9264  38.262  29.533  11.442
36840W        W 9265  29.398  32.359  12.478
36841W        W 9266  33.377  22.733   3.181
36842W        W 9267  14.054  39.498  12.007
36843W        W 9268   0.534  37.906   2.719
36844W        W 9269   7.960  15.271  14.387
36845W        W 9270   1.681  43.002  11.298
36846W        W 9271   2.856   3.291   1.003
36847W        W 9272  10.649  35.411  14.563
36848W        W 9273  11.175  34.409  12.402
36849W        W 9274  41.965  33.398  12.020
36850W        W 9275  23.225   3.976   1.917
36851W        W 9276   9.084  21.052   4.134
36852W        W 9277  40.139  41.026  11.010
36853W        W 9278  30.187  11.341  13.026
36854W        W 9279   4.938   9.664   1.221
36855W        W 9280   1.400   6.649   2.384
36856W        W 9281  27.117  15.316  13.939
36857W        W 9282  26.339  33.991   1.122
36858W        W 9283  12.575  44.712  13.066
36859W        W 9284   0.461  17.558   3.736
36860W        W 9285  42.850  35.476   3.281
36861W        W 9286  17.800  28.119  13.042
36862W        W 9287  11.835  28.641   1.180
36863W        W 9288  30.487  29.632   3.349
36864W        W 9289  24.975  14.142  14.738
36865W        W 9290  22.507  38.558  13.527
36866W        W 9291  16.875  39.325  13.417
36867W        W 9292  22.620  14.100   2.727
36868W        W 9293  36.918  31.329   0.429
36869W        W 9294  10.046   3.788  10.398
36870W        W 9295  39.759  21.250  14.339
36871W        W 9296   2.858  19.019   3.126
36872W        W 9297   6.228   3.155  13.918
36873W        W 9298  20.438   0.720  12.077
36874W        W 9299  41.456  32.514  11.381
36875W        W 9300  28.671  28.144   0.260
36876W        W 9301  30.551   2.192  13.091
36877W        W 9302  15.351  30.775  10.504
36878W        W 9303  11.037  15.606  13.937
36879W        W 9304  19.200  30.835   4.079
36880W        W 9305  37.954  30.869  14.487
36881W        W 9306  33.839  27.927   0.857
36882W        W 9307  38.822  28.436  14.196
36883W        W 9308  23.933  33.652  10.206
36884W        W 9309  35.414  19.989  14.881
36885W        W 9310  12.240  35.402   2.912
36886W        W 9311  35.841  23.328   3.688
36887W        W 9312  39.747  23.160   1.916
36888W        W 9313  21.070  28.805  14.837
36889W        W 9314  18.677  38.743   3.031
36890W        W 9315  25.471  35.125   0.302
36891W        W 9316  12.282  27.427  14.873
36892W        W 9317  41.144   3.509  14.275
36893W        W 9318  32.626   2.313   0.814
36894W        W 9319   3.785  25.544   3.182
36895W        W 9320  11.616  34.238   1.458
36896W        W 9321   4.022  33.478  11.631
36897W        W 9322  12.356  39.781   2.592
36898W        W 9323  15.809  28.262   3.769
36899W        W 9324  39.056  42.002   0.778
36900W        W 9325  32.125   5.416  11.173
36901W        W 9326  24.533   9.300   3.729
36902W        W 9327  42.962  36.694  13.804
36903W        W 9328  36.318  15.491  13.540
36904W        W 9329  43.103  26.538   0.169
36905W        W 9330   7.730   3.973  12.366
36906W        W 9331  17.571  37.011  13.351
36907W        W 9332  20.749  36.430  12.463
36908W        W 9333  32.100  21.226   4.236
36909W        W 9334  24.991  27.497  14.963
36910W        W 9335  31.682   7.921   4.068
36911W        W 9336  36.094  24.351   1.162
36912W        W 9337  24.159  14.672  12.086
36913W        W 9338  18.012  40.649  14.988
36914W        W 9339  23.548  30.040  13.455
36915W        W 9340  14.416  32.822   1.631
36916W        W 9341  43.902   9.840  10.380
36917W        W 9342  33.509   8.704  10.197
36918W        W 9343  33.551  37.819  11.591
36919W        W 9344   8.264  43.249   3.861
36920W        W 9345  37.765  12.591  12.155
36921W        W 9346  30.161  42.232   3.611
36922W        W 9347   6.971  10.848   4.261
36923W        W 9348   7.743  27.979  12.072
36924W        W 9349   8.900  34.170   0.253
36925W        W 9350   7.622  26.584  14.336
36926W        W 9351  40.335  42.780  14.748
36927W        W 9352  20.995  31.541  10.698
36928W        W 9353  14.311  36.402   2.309
36929W        W 9354  15.153  23.991  10.425
36930W        W 9355  36.905  21.032  12.252
36931W        W 9356  34.395  33.590   4.352
36932W        W 9357   3.460  30.347  13.900
36933W        W 9358  41.502  28.725   2.439
36934W        W 9359  31.667  40.331   1.046
36935W        W 9360  10.795  29.660  12.523
36936W        W 9361   3.111  37.599  14.336
36937W        W 9362  24.483   0.780   3.617
36938W        W 9363  29.818  27.768   1.930
36939W        W 9364  24.263  13.611   0.848
36940W        W 9365  41.940  44.824  10.951
36941W        W 9366  32.621  26.241  12.837
36942W        W 9367  42.381  29.423   1.735
36943W        W 9368  33.924  29.596   3.956
36944W        W 9369   0.022  13.734   1.456
36945W        W 9370   9.314   0.404  14.871
36946W        W 9371  14.811  13.636  14.853
36947W        W 9372  25.887  18.830   4.623
36948W        W 9373  42.839   2.378   3.123
36949W        W 9374   7.232  36.932  13.041
36950W        W 9375  18.195  25.973  12.649
36951W        W 9376  28.649   6.681  10.818
36952W        W 9377  10.445  22.887  14.533
36953W        W 9378  13.536  36.569  12.678
36954W        W 9379  32.363  44.355   3.247
36955W        W 9380   9.943  37.058  12.604
36956W        W 9381  27.624  21.243   4.227
36957W        W 9382  35.156  24.139   1.426
36958W        W 9383  26.640  24.174   0.750
36959W        W 9384  40.833   4.226  14.818
36960W        W 9385  18.199  11.806  14.107
36961W        W 9386   9.513  26.489   2.486
36962W        W 9387   6.852   0.895   0.817
36963W        W 9388  32.240  32.999   1.787
36964W        W 9389   7.698  24.317  10.818
36965W        W 9390  39.369  12.936   2.184
36966W        W 9391  14.754  29.557  12.360
36967W        W 9392   8.123  39.356  11.412
36968W        W 9393  14.530  28.322  10.302
36969W        W 9394  31.540  16.828   3.826
36970W        W 9395  20.043  13.811  12.836
36971W        W 9396  13.084   8.454  11.154
36972W        W 9397  19.125  19.557  14.797
36973W        W 9398  11.894  42.495  14.916
36974W        W 9399  38.486  36.471  11.505
36975W        W 9400  41.300  18.180   0.433
36976W        W 9401  40.289  22.201  11.131
36977W        W 9402   1.391  19.014   3.898
36978W        W 9403  23.225  34.159   3.700
36979W        W 9404  29.529  28.870  12.603
36980W        W 9405  30.554  13.128   0.003
36981W        W 9406  27.577  30.560   1.179
36982W        W 9407  18.239  24.515  12.612
36983W        W 9408   9.656   2.200   2.598
36984W        W 9409  35.597  29.959   0.647
36985W        W 9410   5.749  42.980  11.614
36986W        W 9411  18.606  38.215  12.587
36987W        W 9412  18.308  42.030  12.853
36988W        W 9413   1.053  40.988   1.708
36989W        W 9414  18.229   9.157  11.606
36990W        W 9415  31.653   7.883   3.216
36991W        W 9416  11.369   0.844   0.457
36992W        W 9417  31.723  44.305  11.558
36993W        W 9418  32.390  43.949  13.910
36994W        W 9419  11.668  25.159  10.975
36995W        W 9420   3.825  28.373   2.890
36996W        W 9421  15.894  11.446   3.273
36997W        W 9422  41.718  26.218   3.211
36998W        W 9423  21.286  28.219  11.581
36999W        W 9424   2.354   4.643  11.726
37000W        W 9425  33.147  40.202  11.668
37001W        W 9426  43.237  27.956   0.507
37002W        W 9427  39.084  34.043  12.522
37003W        W 9428  38.955   6.463   3.548
37004W        W 9429  13.772   7.335   3.237
37005W        W 9430  37.429  22.002   2.140
37006W        W 9431  10.678  27.210   4.416
37007W        W 9432  24.263  31.604   2.691
37008W        W 9433   6.330   2.805  12.619
37009W        W 9434  36.824  15.619   4.559
37010W        W 9435  41.270   8.654  13.777
37011W        W 9436  36.546   1.299  11.479
37012W        W 9437   2.998  15.579   4.324
37013W        W 9438  14.224   6.019   3.701
37014W        W 9439  30.564  37.410   1.340
37015W        W 9440  41.484  32.050  13.598
37016W        W 9441  20.951  17.835   4.518
37017W        W 9442  11.890   2.885  13.983
37018W        W 9443  15.212  37.577   2.153
37019W        W 9444   8.246  17.765  11.857
37020W        W 9445  42.745  30.940  14.024
37021W        W 9446  27.993  14.542   2.198
37022W        W 9447  41.512  21.237  11.476
37023W        W 9448  14.588  16.317   2.033
37024W        W 9449  34.057  13.317  10.700
37025W        W 9450  38.405  17.224   1.235
37026W        W 9451  13.221   4.739   4.776
37027W        W 9452   7.830  17.807   2.837
37028W        W 9453  10.576  33.682  14.898
37029W        W 9454   5.419  43.047  13.039
37030W        W 9455  37.458   3.733  13.918
37031W        W 9456  16.086  29.461   2.234
37032W        W 9457  42.082  20.235   2.434
37033W        W 9458  28.292  21.458   2.361
37034W        W 9459  40.025  26.207   1.812
37035W        W 9460  22.511  42.790   2.501
37036W        W 9461  23.088   0.871   0.493
37037W        W 9462  40.873  10.848  12.005
37038W        W 9463  36.926   3.505  11.577
37039W        W 9464  29.610  12.293  10.594
37040W        W 9465  30.909   6.415   2.752
37041W        W 9466  18.584  29.970  10.128
37042W        W 9467  28.216  28.866   4.813
37043W        W 9468  44.100  19.299  14.957
37044W        W 9469   4.422  31.954  11.621
37045W        W 9470  33.870  16.118  12.068
37046W        W 9471  12.113   2.439   3.408
37047W        W 9472  24.804  14.462   1.875
37048W        W 9473  21.341  36.964   2.963
37049W        W 9474  17.952  11.550  14.969
37050W        W 9475  18.189   7.670  13.922
37051W        W 9476  38.296  10.883   4.581
37052W        W 9477   9.817  19.930  14.502
37053W        W 9478  13.734   7.710  14.104
37054W        W 9479  18.786  29.989  11.606
37055W        W 9480  34.735  24.563   2.686
37056W        W 9481  19.998   1.033   1.718
37057W        W 9482   8.500   5.631  14.940
37058W        W 9483  31.422  13.056  14.826
37059W        W 9484  24.310  42.044   0.756
37060W        W 9485  18.447  14.860   3.211
37061W        W 9486  27.034  43.397   0.630
37062W        W 9487  40.600  19.126  12.989
37063W        W 9488   8.098  25.258   3.952
37064W        W 9489  34.009  19.322   1.992
37065W        W 9490  36.103  30.145  11.150
37066W        W 9491  41.281  33.471  13.135
37067W        W 9492  38.345  16.049   1.795
37068W        W 9493   8.292  20.178   2.797
37069W        W 9494   3.263  21.986  14.279
37070W        W 9495   3.942  21.640  13.311
37071W        W 9496   7.860   1.803   5.035
37072W        W 9497   6.684   2.802  12.985
37073W        W 9498  36.002  19.502   3.946
37074W        W 9499  19.066   6.547   3.305
37075W        W 9500   8.169  23.142   3.175
37076W        W 9501   5.833  23.750   2.702
37077W        W 9502  27.038  18.017  14.418
37078W        W 9503  21.620  30.049  10.569
37079W        W 9504   8.786  44.721   3.851
37080W        W 9505   0.324  39.582   3.149
37081W        W 9506  43.384   2.343   2.586
37082W        W 9507  30.521  19.156  12.093
37083W        W 9508  16.218  29.704  14.842
37084W        W 9509   4.279  24.485  13.738
37085W        W 9510  36.909  44.152   0.774
37086W        W 9511  39.028  37.590   4.087
37087W        W 9512  43.526   2.781  11.704
37088W        W 9513   9.013  20.397   0.187
37089W        W 9514  26.069   3.827  11.661
37090W        W 9515  29.934  20.230  11.223
37091W        W 9516  15.741  22.640   0.293
37092W        W 9517  28.156  36.087   0.371
37093W        W 9518  18.369  10.712  13.490
37094W        W 9519   4.619   3.694   5.139
37095W        W 9520  42.999  10.852  14.533
37096W        W 9521   0.192  14.654   3.762
37097W        W 9522  23.725  30.483  11.101
37098W        W 9523  40.510   9.302   2.085
37099W        W 9524  18.030  40.630  12.192
37100W        W 9525   8.681  22.252  10.764
37101W        W 9526  40.655  24.172  13.937
37102W        W 9527  23.706  18.685  14.459
37103W        W 9528  14.881  43.765   4.812
37104W        W 9529   2.627  40.753   2.824
37105W        W 9530  28.897  12.159  13.330
37106W        W 9531  26.858   7.916   2.511
37107W        W 9532   1.605  33.860  14.970
37108W        W 9533  14.414   8.707   2.592
37109W        W 9534  30.144   5.213  12.144
37110W        W 9535  42.994  35.399  14.282
37111W        W 9536   6.163  29.570   4.978
37112W        W 9537  25.963  31.282   5.494
37113W        W 9538  11.329  38.853   0.897
37114W        W 9539  38.714  43.644   4.524
37115W        W 9540  38.955  22.669  12.987
37116W        W 9541  11.871  31.345   2.700
37117W        W 9542   6.226  42.186  10.670
37118W        W 9543   3.892  22.952  11.242
37119W        W 9544   5.733  26.864   2.492
37120W        W 9545  20.684  23.467   0.840
37121W        W 9546  19.915  18.613  12.492
37122W        W 9547   7.468  27.998  12.501
37123W        W 9548  15.992   9.761  12.595
37124W        W 9549  34.873   4.254   3.524
37125W        W 9550  15.957  35.459   5.033
37126W        W 9551  31.056  19.445  11.540
37127W        W 9552  41.067  18.056   1.772
37128W        W 9553  16.195  38.635   4.096
37129W        W 9554   6.779  36.850  13.362
37130W        W 9555  29.018  27.582  10.960
37131W        W 9556  15.175  14.918   0.319
37132W        W 9557   6.457  18.389  12.104
37133W        W 9558  28.463  35.504   2.193
37134W        W 9559   1.101  30.936   3.625
37135W        W 9560   6.672   2.032   1.451
37136W        W 9561  42.817   1.392   0.766
37137W        W 9562  26.658  24.948   3.227
37138W        W 9563  14.160  15.700   2.736
37139W        W 9564  33.611  42.840  11.877
37140W        W 9565  33.452  40.429   1.323
37141W        W 9566  38.886  36.368   4.662
37142W        W 9567   9.638   9.332  11.976
37143W        W 9568  28.759  27.899  14.578
37144W        W 9569  42.001   8.625   0.721
37145W        W 9570  37.859  31.620  13.789
37146W        W 9571  37.607   8.633   1.249
37147W        W 9572   8.602   4.145   1.223
37148W        W 9573  26.483  26.696  10.790
37149W        W 9574  37.343   9.675   4.182
37150W        W 9575  38.916  23.647   1.715
37151W        W 9576  18.135  26.935   2.908
37152W        W 9577  33.521   5.731  10.586
37153W        W 9578   9.946  29.717   2.860
37154W        W 9579  33.144  18.704   4.959
37155W        W 9580  10.130  39.226  10.720
37156W        W 9581  32.123  35.595   4.649
37157W        W 9582  44.425  35.713   3.376
37158W        W 9583   0.777  23.719  13.872
37159W        W 9584  44.473  32.062   2.205
37160W        W 9585   7.709   6.275   0.703
37161W        W 9586  41.669  14.202   3.058
37162W        W 9587   1.855  27.397  14.429
37163W        W 9588  34.352  30.021  11.506
37164W        W 9589  29.894  10.818   3.344
37165W        W 9590  19.711   8.157  14.786
37166W        W 9591  35.667  41.219   1.843
37167W        W 9592  35.566  31.518   4.552
37168W        W 9593  16.827  34.105  11.061
37169W        W 9594   6.827  37.041  10.214
37170W        W 9595  36.642   3.875  14.817
37171W        W 9596   1.013  17.416  13.310
37172W        W 9597   4.963  21.799   0.772
37173W        W 9598  13.560  35.775   5.247
37174W        W 9599  37.128   6.621   1.836
37175W        W 9600   0.137  31.195  13.324
37176W        W 9601  32.900  23.091  13.589
37177W        W 9602  24.559  35.826  13.880
37178W        W 9603   4.371  20.327   1.759
37179W        W 9604   0.354  30.956   2.446
37180W        W 9605  32.507  12.846  12.992
37181W        W 9606   9.931  44.051   1.356
37182W        W 9607  21.891  43.913  12.488
37183W        W 9608  44.488  31.194  11.673
37184W        W 9609  15.675   4.798   0.114
37185W        W 9610  17.684  23.323   0.726
37186W        W 9611  36.580  11.684  13.580
37187W        W 9612  34.387   5.450   1.982
37188W        W 9613  23.197   3.185  14.984
37189W        W 9614  33.381  14.621  13.976
37190W        W 9615  40.462  35.638  12.356
37191W        W 9616  37.161   9.673   2.054
37192W        W 9617  41.459  34.330  12.963
37193W        W 9618  15.815  16.213   3.629
37194W        W 9619  11.715  27.058  10.672
37195W        W 9620  12.726  38.086  13.444
37196W        W 9621   6.208  10.820   3.703
37197W        W 9622  32.008   3.307   3.766
37198W        W 9623  16.081  26.722   4.560
37199W        W 9624  42.964   6.182   3.202
37200W        W 9625  26.729  36.551   3.898
37201W        W 9626  32.118  42.277  11.069
37202W        W 9627   1.442  10.884  13.119
37203W        W 9628  11.323   0.509  12.550
37204W        W 9629   3.255  13.261  14.840
37205W        W 9630  11.377  42.439   3.727
37206W        W 9631  16.636  38.874  13.573
37207W        W 9632  39.258  12.027  11.603
37208W        W 9633   4.716  35.956  12.870
37209W        W 9634  22.047  33.897   4.347
37210W        W 9635  38.425  18.584  10.654
37211W        W 9636  32.513   8.425   4.167
37212W        W 9637   1.372  21.462  14.953
37213W        W 9638  10.800   2.905  11.115
37214W        W 9639   4.392  44.468  13.952
37215W        W 9640  43.965  18.999  13.842
37216W        W 9641  10.047  20.483  11.616
37217W        W 9642  35.331  12.052   0.485
37218W        W 9643  20.758  42.926   1.315
37219W        W 9644  27.181  26.157  14.558
37220W        W 9645   3.744  32.420  14.215
37221W        W 9646  36.368  20.432  14.068
37222W        W 9647   5.030  16.634   2.661
37223W        W 9648   3.291   8.229  10.760
37224W        W 9649  29.307  14.547   0.348
37225W        W 9650   9.395  26.799   4.582
37226W        W 9651  35.275  29.137  12.463
37227W        W 9652  22.078  27.511  12.875
37228W        W 9653   4.961  29.886   3.182
37229W        W 9654  24.572  36.485   0.229
37230W        W 9655  23.597  38.053  14.666
37231W        W 9656  10.603  39.925   4.647
37232W        W 9657  33.674   8.826   3.718
37233W        W 9658  15.882  32.487   2.824
37234W        W 9659  21.013  11.735   3.219
37235W        W 9660  12.253  22.254   3.817
37236W        W 9661  33.943  26.255  13.543
37237W        W 9662  42.477  38.121   3.636
37238W        W 9663  25.181  17.925  12.794
37239W        W 9664  15.524  42.397  10.163
37240W        W 9665  10.681  39.291  10.164
37241W        W 9666  22.403  28.740  14.093
37242W        W 9667  16.828   1.996  13.075
37243W        W 9668  44.453  33.398  12.968
37244W        W 9669  24.372   4.983   2.863
37245W        W 9670  44.015   3.895   0.417
37246W        W 9671  27.542  28.145   1.965
37247W        W 9672  29.249   7.530   0.505
37248W        W 9673  28.554  39.864   4.609
37249W        W 9674  40.453   3.924   3.872
37250W        W 9675   4.210  37.310   3.831
37251W        W 9676  10.202  30.101  10.890
37252W        W 9677  11.162  10.241  11.548
37253W        W 9678  33.460   6.427   2.905
37254W        W 9679  11.460  20.059   2.303
37255W        W 9680  38.916  26.680   1.662
37256W        W 9681  29.529  35.551   4.196
37257W        W 9682  19.755  21.278  13.838
37258W        W 9683  12.122  41.256  12.790
37259W        W 9684  22.820   9.473   0.046
37260W        W 9685  42.346  40.049   0.682
37261W        W 9686  25.695  36.740   3.641
37262W        W 9687  28.142  13.541  13.143
37263W        W 9688   2.031  21.664  13.488
37264W        W 9689  39.376   8.730   4.138
37265W        W 9690  28.644  35.434  12.545
37266W        W 9691  10.312  35.932   2.926
37267W        W 9692   6.733  29.018   2.643
37268W        W 9693  38.140   6.595  14.434
37269W        W 9694  19.683  21.113   0.907
37270W        W 9695   2.569  11.490  10.285
37271W        W 9696  43.224  18.308  11.908
37272W        W 9697  30.908   7.879   2.794
37273W        W 9698  44.321  34.956   0.707
37274W        W 9699  43.903  36.407   4.012
37275W        W 9700   5.225  11.446  13.843
37276W        W 9701  20.135  32.836  11.524
37277W        W 9702  22.188  38.150  12.948
37278W        W 9703  19.916  39.844  13.624
37279W        W 9704  43.140   7.167  12.525
37280W        W 9705   5.920  36.002  14.184
37281W        W 9706  25.011   5.273   0.841
37282W        W 9707  25.243  19.659  13.767
37283W        W 9708  31.680  32.129   1.747
37284W        W 9709  40.370  28.128   1.853
37285W        W 9710  20.240  15.668   5.156
37286W        W 9711  10.392   9.598   3.793
37287W        W 9712   7.803  18.177   4.912
37288W        W 9713  30.085   1.962   0.321
37289W        W 9714   0.195  17.694  12.613
37290W        W 9715  21.008  43.330   4.619
37291W        W 9716  22.062  31.464   1.775
37292W        W 9717   7.940   6.824   9.864
37293W        W 9718  37.922  10.111   3.089
37294W        W 9719  11.082  17.996  12.604
37295W        W 9720   9.844  13.873   2.792
37296W        W 9721   1.141   5.417  11.090
37297W        W 9722  18.607   5.888  11.405
37298W        W 9723  32.510  33.088   3.073
37299W        W 9724  33.829  31.707   0.381
37300W        W 9725  35.367  27.924   3.353
37301W        W 9726   7.212  12.261  11.581
37302W        W 9727  33.997  34.472   2.594
37303W        W 9728  19.315   9.134  12.511
37304W        W 9729  38.029  42.061  11.219
37305W        W 9730   1.730  30.130  14.487
37306W        W 9731  41.243  23.868  11.963
37307W        W 9732   8.952  23.139   1.828
37308W        W 9733   8.349  42.838  13.829
37309W        W 9734  13.221  20.735   2.765
37310W        W 9735  31.353  13.830  12.442
37311W        W 9736  10.489   2.677  11.565
37312W        W 9737  29.195  31.177  12.611
37313W        W 9738  16.795  16.553  14.379
37314W        W 9739  22.705  14.119   0.186
37315W        W 9740  10.223   3.341  11.583
37316W        W 9741   3.188  10.804   1.017
37317W        W 9742   2.899  24.282   2.383
37318W        W 9743  13.085  36.634  13.963
37319W        W 9744  40.844  23.216   3.317
37320W        W 9745  38.081  36.909  13.595
37321W        W 9746  13.549  23.312  10.466
37322W        W 9747   5.238  25.019  13.020
37323W        W 9748  21.127  34.809  14.480
37324W        W 9749   6.311  23.929  12.521
37325W        W 9750  28.763  12.672  11.549
37326W        W 9751  26.433  40.220  14.356
37327W        W 9752  18.274   8.327  12.603
37328W        W 9753  19.112  41.557  10.718
37329W        W 9754  37.085   5.218  14.770
37330W        W 9755  37.822  32.891  13.179
37331W        W 9756  13.387  12.679  10.313
37332W        W 9757  21.941   7.450   3.354
37333W        W 9758  31.120  42.342  12.515
37334W        W 9759   4.381  18.789   1.920
37335W        W 9760  21.673  33.554  10.331
37336W        W 9761  19.640  28.874   3.830
37337W        W 9762  40.780  40.059   3.303
37338W        W 9763  43.280   2.805   4.701
37339W        W 9764   8.311   4.367   4.584
37340W        W 9765  38.003   4.714  14.008
37341W        W 9766  40.955  13.570   0.707
37342W        W 9767  38.507  29.106  11.588
37343W        W 9768   5.658  44.942  12.295
37344W        W 9769  43.344  34.201  13.075
37345W        W 9770  43.743  38.117  12.367
37346W        W 9771  18.539  24.669   3.660
37347W        W 9772  28.497  38.876   1.782
37348W        W 9773   8.754  44.312  12.590
37349W        W 9774  38.350   6.976  13.752
37350W        W 9775  39.434  31.510  11.702
37351W        W 9776   8.668  25.730  10.632
37352W        W 9777  15.361  39.246   3.816
37353W        W 9778  22.089   2.793  13.699
37354W        W 9779   6.458  19.806   1.718
37355W        W 9780  32.650  15.661   1.996
37356W        W 9781   3.894  30.764  11.919
37357W        W 9782  35.625  40.830   4.128
37358W        W 9783  39.857  16.821   2.843
37359W        W 9784  28.357   9.220  14.964
37360W        W 9785  15.475  27.058  14.586
37361W        W 9786  18.774   9.895  13.296
37362W        W 9787  35.086   8.910   4.067
37363W        W 9788  25.789  13.703  14.930
37364W        W 9789  13.526  34.904  12.119
37365W        W 9790   6.306  26.971  12.016
37366W        W 9791  30.611  24.141  14.979
37367W        W 9792   5.951   0.680  11.966
37368W        W 9793  37.963  17.642   4.677
37369W        W 9794  39.872   0.481   0.434
37370W        W 9795  29.407  16.017   0.479
37371W        W 9796  10.418  40.250   2.276
37372W        W 9797   1.919  28.479   4.839
37373W        W 9798  29.140  28.788   4.774
37374W        W 9799   4.943   8.362   1.424
37375W        W 9800   0.488  16.691   1.711
37376W        W 9801  22.575  27.379  11.545
37377W        W 9802   9.917   3.506  11.193
37378W        W 9803  25.886  43.004   0.197
37379W        W 9804  33.896  25.966  14.444
37380W        W 9805   8.753   5.105   1.247
37381W        W 9806  39.534   7.855  11.858
37382W        W 9807  29.320   0.658   1.188
37383W        W 9808  20.752  35.946   2.311
37384W        W 9809  15.298  26.140   0.447
37385W        W 9810   7.200   4.749  14.473
37386W        W 9811  18.709  21.927   3.596
37387W        W 9812  38.499  13.261   0.650
37388W        W 9813  43.919  28.297  10.964
37389W        W 9814   3.265  26.710   0.872
37390W        W 9815  17.866  32.238  13.549
37391W        W 9816  12.132  20.398  10.784
37392W        W 9817  23.629  38.562   0.457
37393W        W 9818   3.689  10.789   3.557
37394W        W 9819  39.229   4.258   3.686
37395W        W 9820   9.227  27.071   4.150
37396W        W 9821  17.537  41.947   3.943
37397W        W 9822  43.380   7.965   4.184
37398W        W 9823  43.182  31.995  13.572
37399W        W 9824  25.542  12.715   4.469
37400W        W 9825   8.875  19.150  13.261
37401W        W 9826   8.191  31.088  13.587
37402W        W 9827  15.076  44.493  12.462
37403W        W 9828  39.420  36.968  14.387
37404W        W 9829  13.311  34.805  11.093
37405W        W 9830  43.502  44.825  11.085
37406W        W 9831  30.558  35.163  13.470
37407W        W 9832   2.649  14.154  11.512
37408W        W 9833  15.172  33.212   4.288
37409W        W 9834  13.306  40.543   0.795
37410W        W 9835   6.356  31.468   2.490
37411W        W 9836  16.699   1.582  11.101
37412W        W 9837   1.505  28.610   2.779
37413W        W 9838  30.703  12.262  12.922
37414W        W 9839  34.541  17.744   4.859
37415W        W 9840  15.723  21.203   0.063
37416W        W 9841  32.378  28.772  12.093
37417W        W 9842   3.158   5.734  10.637
37418W        W 9843  25.081   1.987   2.511
37419W        W 9844   0.749  21.127  13.130
37420W        W 9845  23.600  10.741   5.447
37421W        W 9846  23.279  21.882  14.551
37422W        W 9847   6.246  23.065   2.611
37423W        W 9848  12.275  35.556  13.825
37424W        W 9849  15.732  33.204   3.142
37425W        W 9850  14.698  24.104   1.926
37426W        W 9851   1.038  16.697   1.715
37427W        W 9852  12.309   1.253   1.210
37428W        W 9853  31.946  23.245  12.223
37429W        W 9854  12.424  28.528   4.945
37430W        W 9855  13.783  22.735   3.187
37431W        W 9856   0.363  14.270  14.369
37432W        W 9857  41.785  36.538  11.961
37433W        W 9858  26.092   7.098  13.528
37434W        W 9859   1.416  37.321  14.797
37435W        W 9860  28.183  12.037   3.309
37436W        W 9861  16.718  26.903  14.706
37437W        W 9862  40.022  37.538  12.631
37438W        W 9863   4.924  15.024   0.795
37439W        W 9864  10.848  40.206  14.331
37440W        W 9865  34.911  28.989  14.836
37441W        W 9866  39.150  38.617   4.288
37442W        W 9867  27.105  35.101  12.098
37443W        W 9868  20.672   7.629  13.011
37444W        W 9869  30.040   3.328  12.363
37445W        W 9870  19.186  15.989   3.775
37446W        W 9871   5.080  15.327  10.693
37447W        W 9872   3.279  20.233   1.837
37448W        W 9873  27.840  32.424   1.581
37449W        W 9874  30.484  31.554  12.423
37450W        W 9875  19.141  17.448   2.591
37451W        W 9876  31.380  20.502  14.519
37452W        W 9877   3.947  20.616   1.670
37453W        W 9878  21.570  22.607   3.869
37454W        W 9879  18.626  25.029   0.285
37455W        W 9880  17.603  23.021   4.729
37456W        W 9881  40.801  35.419   4.305
37457W        W 9882  39.453  20.786   4.630
37458W        W 9883  18.590  24.172  12.137
37459W        W 9884  19.311  24.279   1.359
37460W        W 9885  35.939   9.230  11.978
37461W        W 9886  33.876  24.929   4.049
37462W        W 9887  14.303  18.196  10.356
37463W        W 9888  35.986  11.268   1.724
37464W        W 9889  11.682  19.837   1.186
37465W        W 9890  44.572  30.393  11.967
37466W        W 9891  25.270  43.785  10.621
37467W        W 9892   0.995  40.213  10.766
37468W        W 9893  32.217   8.163   0.246
37469W        W 9894  28.354  21.490   1.467
37470W        W 9895  21.971  17.288  11.090
37471W        W 9896  10.850  11.889   1.029
37472W        W 9897  14.226  31.067   4.187
37473W        W 9898   4.835   5.220   5.050
37474W        W 9899   5.824  33.027  13.910
37475W        W 9900  17.324  40.139   4.048
37476W        W 9901  16.480  29.926  12.772
37477W        W 9902   9.086  33.626  12.038
37478W        W 9903  11.400  40.756   2.182
37479W        W 9904   6.225  31.065   3.877
37480W        W 9905  41.577   5.466   2.309
37481W        W 9906  15.070  42.332  12.892
37482W        W 9907  42.807   6.535   3.579
37483W        W 9908   8.044  15.763  14.896
37484W        W 9909  20.323  29.483   1.692
37485W        W 9910   9.197  28.088   0.542
37486W        W 9911   0.203  18.638  14.422
37487W        W 9912  17.260   3.224  11.453
37488W        W 9913   9.705  42.969  13.324
37489W        W 9914   1.956  37.967  14.524
37490W        W 9915  26.571  19.326   0.737
37491W        W 9916  16.169  27.652   4.124
37492W        W 9917   8.492  18.719  11.263
37493W        W 9918   4.316  17.077   3.137
37494W        W 9919  40.637  16.639  11.192
37495W        W 9920  32.310  14.907  12.022
37496W        W 9921  44.048   8.977  12.404
37497W        W 9922   6.944  14.061  12.970
37498W        W 9923  22.457   0.997  13.312
37499W        W 9924  40.328  13.267  11.137
37500W        W 9925  32.826  42.511   4.158
37501W        W 9926  34.863  20.198   4.159
37502W        W 9927   8.899  30.395  10.671
37503W        W 9928  14.604   1.007  11.988
37504W        W 9929  32.032  33.016   2.273
37505W        W 9930  10.846   5.372   4.958
37506W        W 9931   6.562  20.614   4.334
37507W        W 9932   8.383  29.862  11.102
37508W        W 9933   8.282  16.592  12.483
37509W        W 9934  34.324   6.663   4.139
37510W        W 9935   7.006  35.033  13.369
37511W        W 9936  40.227  12.233   3.396
37512W        W 9937  32.102  34.104  13.950
37513W        W 9938   7.994   8.930  13.029
37514W        W 9939   7.302   0.439   3.591
37515W        W 9940  13.090  29.142  12.298
37516W        W 9941  40.804  24.967  10.688
37517W        W 9942   6.513  10.448   4.965
37518W        W 9943  12.508   6.310   2.777
37519W        W 9944  20.229  37.001  12.059
37520W        W 9945  23.735  43.059   3.614
37521W        W 9946  35.866  20.675  14.580
37522W        W 9947  44.335  23.987  13.301
37523W        W 9948  39.298   0.569   1.261
37524W        W 9949  25.980  40.023   3.085
37525W        W 9950  41.481  42.923   4.466
37526W        W 9951  30.605  44.423  12.318
37527W        W 9952  41.365  11.852  13.461
37528W        W 9953  41.418  10.721   1.499
37529W        W 9954  13.295  23.929   1.832
37530W        W 9955   4.825  16.325  14.458
37531W        W 9956  37.537  36.402  14.503
37532W        W 9957  20.484  17.035   2.888
37533W        W 9958  25.494  30.565  10.503
37534W        W 9959  40.380  16.675  14.963
37535W        W 9960  31.217  30.499   1.547
37536W        W 9961  41.796  44.667  12.578
37537W        W 9962   6.998  10.363   4.059
37538W        W 9963  18.278  11.205  13.270
37539W        W 9964  22.027  29.171   3.290
37540W        W 9965  35.516  30.538  11.867
37541W        W 9966  40.799  21.622   3.425
37542W        W 9967  43.007   0.718  14.968
37543W        W 9968  33.889   7.476  13.366
37544W        W 9969   6.151   7.885   0.769
37545W        W 9970  11.506  37.323  13.428
37546W        W 9971  22.294  31.711   2.190
37547W        W 9972   7.202  38.598   3.704
37548W        W 9973  30.817  42.442   4.151
37549W        W 9974  38.518   7.009   1.479
37550W        W 9975  30.126  25.918   1.866
37551W        W 9976  28.095   4.233   0.287
37552W        W 9977  41.592  24.187   1.653
37553W        W 9978  39.333   9.855  10.916
37554W        W 9979  21.953  26.917  12.008
37555W        W 9980  25.181  17.340   1.818
37556W        W 9981   0.760  35.453  13.654
37557W        W 9982  33.921   3.160  13.482
37558W        W 9983  23.098  30.412   1.293
37559W        W 9984   8.693  30.385   3.147
37560W        W 9985   3.400  13.274   3.313
37561W        W 9986  42.363  13.184  12.258
37562W        W 9987   6.508  23.491  14.492
37563W        W 9988  30.361  24.324   0.409
37564W        W 9989  42.408  17.226   0.333
37565W        W 9990   2.263  30.574  11.195
37566W        W 9991  26.535  29.734  13.842
37567W        W 9992   5.291   8.396   0.590
37568W        W 9993  42.355  19.574  14.454
37569W        W 9994   7.898  10.278   1.297
37570W        W 9995  38.977  25.230   0.322
37571W        W 9996  22.724   3.619   0.347
37572W        W 9997  20.079  25.707  10.604
37573W        W 9998   5.763  28.792  12.034
37574W        W 9999  33.611  15.271   3.766
37575W        W10000  32.400  19.595  10.590
37576W        W10001   6.377   2.267  13.811
37577W        W10002  35.248  28.189  11.581
37578W        W10003  33.104  29.437  11.938
37579W        W10004  43.243  26.082  10.743
37580W        W10005  25.188  12.165   3.682
37581W        W10006  33.019  31.032  11.597
37582W        W10007  30.506  16.877   2.166
37583W        W10008  44.834  44.332   1.073
37584W        W10009   8.151  24.588   1.300
37585W        W10010   8.693   8.260   1.771
37586W        W10011  23.655  17.394   3.217
37587W        W10012  19.604   4.979   3.284
37588W        W10013  44.363   4.819  13.618
37589W        W10014  23.098  24.129  14.604
37590W        W10015  11.347  15.212   0.027
37591W        W10016  13.298  21.335   0.887
37592W        W10017  31.402  38.317  12.130
37593W        W10018  44.403  44.061   4.554
37594W        W10019  24.076  34.161   2.713
37595W        W10020  32.938  39.902  13.354
37596W        W10021  16.813  34.380  11.497
37597W        W10022   1.825  25.255  12.627
37598W        W10023  19.957  17.121   1.108
37599W        W10024  22.847  23.001   4.693
37600W        W10025  34.176  25.928   4.958
37601W        W10026  14.202  42.356   4.940
37602W        W10027  42.271  28.989  14.015
37603W        W10028  29.000  14.065  10.993
37604W        W10029  43.443  38.038   0.025
37605W        W10030   4.945  15.279  14.895
37606W        W10031  12.243  22.822  14.299
37607W        W10032   6.916  19.569   1.766
37608W        W10033   2.919   1.185  14.876
37609W        W10034  28.466  12.018  10.334
37610W        W10035  27.055  31.566   1.793
37611W        W10036  13.858  19.224  14.341
37612W        W10037   1.717  12.896   1.112
37613W        W10038  41.752  34.524  10.714
37614W        W10039  24.252  14.249  14.050
37615W        W10040   5.761  21.656  13.757
37616W        W10041  43.969  17.643  11.177
37617W        W10042  37.616  18.661   4.563
37618W        W10043  31.955  31.759  10.106
37619W        W10044   5.671  35.398   3.404
37620W        W10045  42.819   0.751  13.582
37621W        W10046  35.303  35.187  11.624
37622W        W10047  11.391  40.980   4.586
37623W        W10048  27.219  30.134  14.485
37624W        W10049  29.650  23.031  10.998
37625W        W10050  28.700   9.234   0.331
37626W        W10051  31.561  11.529   1.609
37627W        W10052  14.341  34.235   4.113
37628W        W10053   1.049  35.130  13.351
37629W        W10054  39.370  22.453  12.356
37630W        W10055  34.528  37.472  11.202
37631W        W10056  28.989  26.962  13.040
37632W        W10057   6.752  18.808  11.983
37633W        W10058  31.219  35.569  14.384
37634W        W10059  16.714  41.100  14.921
37635W        W10060  22.260   2.691  14.474
37636W        W10061  33.903  19.512   3.391
37637W        W10062  18.532  36.849  10.740
37638W        W10063  15.359   0.742  12.932
37639W        W10064  26.425  22.792  14.102
37640W        W10065  10.054  16.761   0.433
37641W        W10066  29.409  16.355  12.095
37642W        W10067  19.081  11.741   1.282
37643W        W10068  13.731  40.878   1.944
37644W        W10069  13.747   1.369  12.487
37645W        W10070  11.096   8.618  11.992
37646W        W10071   2.210  22.618   4.549
37647W        W10072  15.938  24.103   1.463
37648W        W10073  19.823   4.430  12.172
37649W        W10074   9.612   9.726  14.041
37650W        W10075  36.827  40.021   1.926
37651W        W10076  24.713  29.151   1.585
37652W        W10077   8.409  38.441   9.768
37653W        W10078   6.686  32.844   1.741
37654W        W10079  11.906   6.363   0.193
37655W        W10080  16.952  12.851  11.622
37656W        W10081  26.087  11.749  14.392
37657W        W10082  11.653   4.919  11.751
37658W        W10083   0.712  36.292   0.402
37659W        W10084   1.536   1.973  12.180
37660W        W10085   4.460  28.702   3.967
37661W        W10086  22.338  10.802   3.702
37662W        W10087  41.811   4.931  13.571
37663W        W10088  13.951  39.970   2.452
37664W        W10089  35.866  10.540  12.871
37665W        W10090  22.384   2.698   4.119
37666W        W10091  40.961  12.161   0.647
37667W        W10092  33.025  13.315   3.754
37668W        W10093  16.245  27.202   4.697
37669W        W10094  40.450  18.810   4.551
37670W        W10095  10.190  18.760   3.579
37671W        W10096   9.033   4.427  12.423
37672W        W10097  16.162  29.143  10.545
37673W        W10098  13.701   5.967  10.703
37674W        W10099  29.449  20.165   0.050
37675W        W10100  29.801  10.946  12.008
37676W        W10101   4.025  19.456  12.927
37677W        W10102  37.599  18.465  13.838
37678W        W10103   3.023  18.628  14.944
37679W        W10104  39.757  15.301   1.761
37680W        W10105  24.037  26.406  13.183
37681W        W10106   7.249  36.394   4.691
37682W        W10107  42.026   6.209  11.111
37683W        W10108  23.933   7.511  10.177
37684W        W10109  21.227  13.565   3.832
37685W        W10110  29.872  12.173  11.605
37686W        W10111  29.523  10.310  10.756
37687W        W10112  16.213  15.542  14.009
37688W        W10113  44.455  39.247  12.382
37689W        W10114  30.070   3.519   2.186
37690W        W10115  35.029   6.421   3.211
37691W        W10116  42.794   4.110  11.124
37692W        W10117  15.412  17.613  14.931
37693W        W10118  19.552  25.049  12.945
37694W        W10119  33.612  23.182   4.424
37695W        W10120   0.917   4.225  14.951
37696W        W10121  21.147  21.127  10.601
37697W        W10122  13.751  19.191  12.233
37698W        W10123  26.978  21.241   3.731
37699W        W10124   6.285  30.550   0.934
37700W        W10125   9.792  33.218  11.402
37701W        W10126  33.568  20.484   4.796
37702W        W10127  10.632   1.335   0.227
37703W        W10128  20.121  19.649  12.656
37704W        W10129   8.251  27.255  13.490
37705W        W10130  29.019  32.680   1.483
37706W        W10131  13.118  41.297   3.170
37707W        W10132   7.283   2.538  14.778
37708W        W10133  28.372  37.113  12.001
37709W        W10134   8.107   5.327   0.732
37710W        W10135  18.108   0.270   3.687
37711W        W10136  40.539  32.942   0.504
37712W        W10137  12.862  38.266   2.476
37713W        W10138  33.156  25.277   2.251
37714W        W10139  25.474  31.205   2.755
37715W        W10140  27.137  16.364   3.941
37716W        W10141  37.634  43.993  12.840
37717W        W10142  32.895  40.209  12.918
37718W        W10143   6.112  28.636   2.197
37719W        W10144  27.045   0.871   1.695
37720W        W10145   9.629   9.301  12.887
37721W        W10146  26.657   4.218   3.668
37722W        W10147  36.019  33.157   0.238
37723W        W10148   2.370  17.742   2.153
37724W        W10149  23.187  30.508  11.131
37725W        W10150  33.396   5.214  13.941
37726W        W10151  37.385  44.420  10.934
37727W        W10152  14.569  30.639  10.711
37728W        W10153  21.270   1.037   2.806
37729W        W10154  37.303   8.183  14.881
37730W        W10155  13.682  24.263   5.084
37731W        W10156  28.177  18.161  12.044
37732W        W10157   4.834  38.524  12.339
37733W        W10158   0.079  17.041   2.615
37734W        W10159   8.668  43.745   0.790
37735W        W10160  23.646  24.764   1.762
37736W        W10161  21.205  44.315  13.072
37737W        W10162  27.457  39.017   3.189
37738W        W10163  31.357  30.151  12.088
37739W        W10164   8.746   4.379   3.358
37740W        W10165   9.283  44.009   3.675
37741W        W10166   3.304  19.649  11.259
37742W        W10167   0.482   5.213   1.911
37743W        W10168   3.435   2.727  10.905
37744W        W10169   2.928   9.700   4.935
37745W        W10170  12.393  35.237   4.179
37746W        W10171  13.657  31.772   2.042
37747W        W10172  42.877  20.644   3.148
37748W        W10173  22.757  34.100  14.432
37749W        W10174  19.143  25.923   2.364
37750W        W10175  31.645  19.259   5.514
37751W        W10176  43.383   2.062  14.049
37752W        W10177  35.506   3.512  13.594
37753W        W10178  17.730  36.981  13.883
37754W        W10179  43.116  42.266  13.320
37755W        W10180  20.159   2.183  11.133
37756W        W10181  27.177  23.609   4.079
37757W        W10182  35.664  44.679  13.815
37758W        W10183  38.637  31.174  11.217
37759W        W10184  18.083   5.917  12.086
37760W        W10185  42.442  20.197  10.988
37761W        W10186   7.317  31.902  12.269
37762W        W10187   7.438   9.989   2.378
37763W        W10188  40.731   6.368  11.973
37764W        W10189  36.987  41.700  11.812
37765W        W10190  18.874   9.763  13.780
37766W        W10191  13.216   7.849  14.285
37767W        W10192  44.877   9.200  11.123
37768W        W10193  39.684  43.383   4.778
37769W        W10194  23.655  25.511   4.514
37770W        W10195  22.347   0.733   2.183
37771W        W10196  39.722  27.727   3.323
37772W        W10197  17.436   0.306   4.211
37773W        W10198   3.932  11.709   3.630
37774W        W10199  21.000  41.535  11.135
37775W        W10200  43.448  31.859   4.843
37776W        W10201   1.436  31.094  14.376
37777W        W10202  11.329  23.918   2.224
37778W        W10203  24.097  42.358  14.296
37779W        W10204  35.391  36.624   2.951
37780W        W10205   5.626  25.101  12.415
37781W        W10206   0.743   8.224   5.054
37782W        W10207  26.206  34.878  11.613
37783W        W10208  40.810  36.323  12.052
37784W        W10209  30.532  35.400  11.477
37785W        W10210  42.307   4.190  11.944
37786W        W10211  41.768   9.132  11.927
37787W        W10212  40.464  37.338   2.165
37788W        W10213   9.890   8.525  10.706
37789W        W10214   0.673  26.099   3.351
37790W        W10215  29.533  24.058   4.580
37791W        W10216  24.597  10.808   9.894
37792W        W10217  21.201  18.837  13.356
37793W        W10218   4.339   1.828   3.684
37794W        W10219  36.485  30.097   3.877
37795W        W10220   5.124  35.448   0.258
37796W        W10221  22.477   3.832  11.924
37797W        W10222  37.826  16.161   2.544
37798W        W10223   6.143   6.370  10.282
37799W        W10224   4.824  34.049  14.468
37800W        W10225   9.003  18.483  13.963
37801W        W10226  17.530  12.565   2.284
37802W        W10227  13.355  38.934   0.793
37803W        W10228  30.403  34.499   4.322
37804W        W10229  33.878  33.084   0.993
37805W        W10230  34.612   6.292   1.457
37806W        W10231  28.673  31.087  10.651
37807W        W10232  11.075  33.736   0.043
37808W        W10233  27.150  20.314   3.040
37809W        W10234  13.653  34.456  12.822
37810W        W10235   6.362  12.378   3.681
37811W        W10236  12.787  20.994  13.994
37812W        W10237   7.371   0.415   0.273
37813W        W10238  25.872  19.666   5.051
37814W        W10239  10.579  14.568  11.627
37815W        W10240  20.801  34.129  10.624
37816W        W10241  40.305  30.490   3.624
37817W        W10242   8.266  28.528   1.863
37818W        W10243  30.085  19.880   4.728
37819W        W10244   6.553  16.083  14.675
37820W        W10245  17.828  12.721   4.245
37821W        W10246  23.973  37.257  10.187
37822W        W10247  38.393  25.663   4.615
37823W        W10248  44.477  31.966   3.634
37824W        W10249  26.448   1.390   0.014
37825W        W10250   8.136  11.714  12.565
37826W        W10251   4.256  37.723   4.156
37827W        W10252   9.356  10.840   0.023
37828W        W10253   6.871  39.898   1.729
37829W        W10254   3.838  13.309  11.581
37830W        W10255  31.398  23.666   2.700
37831W        W10256  38.746   3.491  10.209
37832W        W10257   4.631  25.723  11.247
37833W        W10258  26.339   3.966  12.064
37834W        W10259   3.080  28.171   2.261
37835W        W10260  13.196  16.782  12.055
37836W        W10261  30.101  29.067  10.707
37837W        W10262  41.482  41.104  12.827
37838W        W10263  23.612  18.068   4.694
37839W        W10264  22.862  31.157  11.954
37840W        W10265  14.533   4.655   1.368
37841W        W10266  41.124  29.514   2.506
37842W        W10267   2.234  31.078  14.468
37843W        W10268   7.941  18.028   0.094
37844W        W10269  25.100   2.072   4.977
37845W        W10270  41.346  42.940  13.848
37846W        W10271   4.920  33.604  11.670
37847W        W10272  31.447  27.445  11.337
37848W        W10273   6.551   3.868   0.771
37849W        W10274  41.422  27.592   0.343
37850W        W10275  16.113  16.693  10.918
37851W        W10276   1.033  18.137  11.490
37852W        W10277  33.211   3.661   2.699
37853W        W10278  36.934  37.241   0.283
37854W        W10279  28.483  24.577   4.857
37855W        W10280  15.702  34.538   0.910
37856W        W10281  31.901  24.137   1.395
37857W        W10282  13.863   0.972  12.849
37858W        W10283  16.557  24.132   2.674
37859W        W10284  21.192  26.233   0.802
37860W        W10285  32.189  31.407  10.414
37861W        W10286  40.291  23.687   4.701
37862W        W10287  42.793  31.164   1.251
37863W        W10288  29.385  24.640  14.490
37864W        W10289   9.227  15.236  11.248
37865W        W10290   0.958  25.636   1.178
37866W        W10291  18.026  31.104  14.470
37867W        W10292   8.267  19.700  11.487
37868W        W10293  29.348  14.842   3.620
37869W        W10294   8.668  33.159  11.166
37870W        W10295  16.460   6.219  12.871
37871W        W10296  42.056   4.057  10.676
37872W        W10297   7.594   6.806   4.572
37873W        W10298  42.361   3.902  13.955
37874W        W10299  43.872  31.574   4.655
37875W        W10300  17.515  31.661   3.280
37876W        W10301   9.747  23.691   2.274
37877W        W10302  41.793   1.901  11.703
37878W        W10303   2.022  36.159   0.341
37879W        W10304  17.127  20.707  10.896
37880W        W10305  29.553  26.196   3.226
37881W        W10306  44.238  15.324  10.647
37882W        W10307  28.619   6.283   1.729
37883W        W10308  44.684  22.591   4.215
37884W        W10309  21.818  13.027   1.732
37885W        W10310  40.439  21.068  10.219
37886W        W10311  13.011  31.369  10.471
37887W        W10312  13.228  28.355  11.123
37888W        W10313  44.450  25.539   0.784
37889W        W10314  33.351   9.110  14.203
37890W        W10315  17.263  31.106  11.877
37891W        W10316  31.523   2.715   2.075
37892W        W10317   3.553  10.351  13.426
37893W        W10318  10.752  22.416  10.131
37894W        W10319  43.860  19.950   2.454
37895W        W10320  19.131  20.335  13.441
37896W        W10321  27.683  15.373  12.032
37897W        W10322  25.122  11.179   2.507
37898W        W10323  29.997  22.016  14.426
37899W        W10324  31.913   6.423  14.356
37900W        W10325  31.137  43.602  13.926
37901W        W10326  40.210  13.350   1.817
37902W        W10327   0.033  12.184   3.218
37903W        W10328  41.243  13.566   3.180
37904W        W10329  23.019  34.602  14.678
37905W        W10330  41.408  18.315   1.473
37906W        W10331  19.010  20.427  11.241
37907W        W10332  37.076  23.942   3.658
37908W        W10333  26.451  24.385   2.809
37909W        W10334  25.953  28.060   3.842
37910W        W10335   3.710  44.492  10.623
37911W        W10336   0.654  21.059   3.147
37912W        W10337  17.216  16.319   3.191
37913W        W10338  36.623  21.628   1.867
37914W        W10339  19.782  26.533   4.058
37915W        W10340  42.301  15.618   1.347
37916W        W10341  23.494  32.373  13.808
37917W        W10342  14.666  37.827   4.581
37918W        W10343  22.516  44.930   4.240
37919W        W10344   6.394  19.945  11.995
37920W        W10345  19.547   3.245   2.906
37921W        W10346  14.871  13.384  13.896
37922W        W10347  11.077  15.144   2.909
37923W        W10348  17.922  32.568  14.862
37924W        W10349  21.029  25.674  14.370
37925W        W10350  43.997   1.452   2.145
37926W        W10351  30.472  15.876  10.429
37927W        W10352  15.509  22.203   0.021
37928W        W10353  42.860   9.720   2.255
37929W        W10354  44.886  31.627  10.450
37930W        W10355  31.670  43.882  10.666
37931W        W10356  37.832  24.265   4.243
37932W        W10357  28.647  37.370   0.902
37933W        W10358  40.873  42.095  12.538
37934W        W10359  23.427   7.812  12.805
37935W        W10360  41.528  34.063  10.601
37936W        W10361   6.734  17.531   3.297
37937W        W10362  39.760   9.798   3.169
37938W        W10363  40.346  39.106  10.707
37939W        W10364   3.393  17.356   3.698
37940W        W10365  10.727  19.319  11.404
37941W        W10366  34.499  11.578   4.369
37942W        W10367   6.647   1.476   1.483
37943W        W10368  23.598  14.606  14.731
37944W        W10369  18.061   4.289   3.725
37945W        W10370  24.163  42.886  14.213
37946W        W10371  32.724   4.148   4.988
37947W        W10372  41.057  27.003   3.785
37948W        W10373  39.663  26.375  11.589
37949W        W10374  29.505  40.457   3.267
37950W        W10375  43.228   1.835  11.578
37951W        W10376  40.129  17.681  14.305
37952W        W10377  35.022  20.263  12.719
37953W        W10378  33.976  20.387  11.293
37954W        W10379  23.966  18.103  10.502
37955W        W10380  28.884  30.860   2.841
37956W        W10381  27.206   6.786  14.852
37957W        W10382  43.883  41.970  10.716
37958W        W10383  39.003  23.621   0.352
37959W        W10384  26.942  26.705   1.200
37960W        W10385  28.217  30.427  13.381
37961W        W10386   6.078  17.749   4.521
37962W        W10387  37.452  26.957  11.980
37963W        W10388  30.652  17.237  12.007
37964W        W10389  31.174  27.620   3.844
37965W        W10390  34.478  14.846   1.732
37966W        W10391  16.611  29.011  13.566
37967W        W10392  26.709   8.848  12.513
37968W        W10393  38.041  33.033   1.876
37969W        W10394   5.441  43.994  12.236
37970W        W10395  33.592  19.569  13.337
37971W        W10396   0.514  10.696  13.909
37972W        W10397  43.461  37.659  11.546
37973W        W10398  25.654  38.383  10.700
37974W        W10399  41.765  38.068  10.637
37975W        W10400  12.141  39.814   3.577
37976W        W10401  31.423  37.205   3.705
37977W        W10402  29.998  25.428   1.715
37978W        W10403  27.601  36.493  14.500
37979W        W10404  14.631  16.722  13.952
37980W        W10405   9.798  12.830  11.534
37981W        W10406  34.340  11.274   3.603
37982W        W10407  40.375   1.001   0.458
37983W        W10408  22.555  25.761  10.851
37984W        W10409  38.401   0.500  12.254
37985W        W10410  36.859  40.902   3.607
37986W        W10411  43.029  17.245   0.834
37987W        W10412  32.483   0.909  13.489
37988W        W10413  31.148  34.653  11.219
37989W        W10414  27.748  17.823  10.461
37990W        W10415  33.902  21.091  14.308
37991W        W10416  21.640  27.924   2.207
37992W        W10417  14.669   9.360   3.736
37993W        W10418  37.091  12.428  11.637
37994W        W10419  31.917  16.117   1.793
37995W        W10420  15.296  29.680  10.765
37996W        W10421  15.652  15.458   1.578
37997W        W10422  17.044   1.920   4.566
37998W        W10423  21.662   2.920  13.399
37999W        W10424  33.019  15.862  13.373
38000W        W10425  44.378   2.969  13.492
38001W        W10426   6.641  29.504  12.456
38002W        W10427  20.267   3.818  11.624
38003W        W10428   3.845  23.183  13.204
38004W        W10429  30.469  20.819   2.769
38005W        W10430  36.513  20.220  10.616
38006W        W10431  17.737  42.324   1.232
38007W        W10432  12.862  34.580   3.086
38008W        W10433   6.377  20.142   4.432
38009W        W10434  12.792  14.118   3.694
38010W        W10435  37.332  31.344  12.534
38011W        W10436  10.932  40.557   1.736
38012W        W10437  37.009  25.486   0.374
38013W        W10438  12.199  27.217  11.580
38014W        W10439  15.169  38.743   5.006
38015W        W10440  28.482  40.285  13.109
38016W        W10441  20.221  31.710   1.493
38017W        W10442  10.531  38.031  11.406
38018W        W10443  25.459   7.714   4.056
38019W        W10444   6.113  29.315   1.348
38020W        W10445  42.119  11.886  11.508
38021W        W10446  23.982  27.767   4.795
38022W        W10447  38.969  26.179  11.078
38023W        W10448  29.168   6.938  13.029
38024W        W10449  42.021  32.144  12.545
38025W        W10450  16.725  15.139   0.152
38026W        W10451  13.401  22.036   2.630
38027W        W10452  24.390  29.555  11.066
38028W        W10453  21.712  33.903   0.374
38029W        W10454  14.873   7.324  11.418
38030W        W10455  11.237   0.262  14.606
38031W        W10456   7.288  17.773   0.807
38032W        W10457  16.289  42.872  14.577
38033W        W10458   7.730  27.349  10.691
38034W        W10459   7.464  24.062   4.122
38035W        W10460  33.344  15.199   3.339
38036W        W10461  30.466  26.266  13.663
38037W        W10462  31.444  40.469  14.833
38038W        W10463  35.704  36.109   3.667
38039W        W10464  13.614  13.811  11.890
38040W        W10465  43.939   5.701   0.893
38041W        W10466  24.691  41.882   4.561
38042W        W10467  42.884  42.780  11.633
38043W        W10468  24.739  24.338   4.178
38044W        W10469  18.721   9.312   1.018
38045W        W10470  26.947  34.594  14.960
38046W        W10471   7.759  34.386   0.520
38047W        W10472  14.401  30.912  13.328
38048W        W10473   2.403  28.396  12.315
38049W        W10474  36.290  33.814  13.754
38050W        W10475   0.336  29.037  10.731
38051W        W10476  11.682  43.746   0.987
38052W        W10477  33.361  12.289   3.771
38053W        W10478  20.646  20.580   4.558
38054W        W10479  12.650  28.201   3.270
38055W        W10480   4.853  35.867  10.680
38056W        W10481  37.424  31.360   4.635
38057W        W10482  39.513   6.579   3.880
38058W        W10483  29.169   2.374  13.092
38059W        W10484   4.823  30.561  10.371
38060W        W10485  40.802  22.236  11.149
38061W        W10486  37.772  19.248   4.148
38062W        W10487  41.744  40.725  12.626
38063W        W10488  31.645  18.040   1.880
38064W        W10489  43.240  32.136   3.271
38065W        W10490  18.746  38.080  13.476
38066W        W10491   6.311  39.378   2.204
38067W        W10492   5.314  18.763   4.119
38068W        W10493  35.602  19.507  10.681
38069W        W10494   1.875  30.917  13.630
38070W        W10495   8.405  23.429  11.447
38071W        W10496  44.222  20.648   3.366
38072W        W10497   3.888  28.564   0.973
38073W        W10498  21.711  33.075  11.157
38074W        W10499   3.314  35.382   4.717
38075W        W10500  31.650  41.187   9.959
38076W        W10501  33.641  31.613   1.673
38077W        W10502  38.542   1.354  13.458
38078W        W10503  42.339   9.209  12.895
38079W        W10504  10.873   1.839   3.976
38080W        W10505  22.265  22.054   0.337
38081W        W10506  41.731  17.619   0.359
38082W        W10507   6.649  38.026  12.788
38083W        W10508  22.443  13.970  12.044
38084W        W10509   1.070  35.897  12.582
38085W        W10510  12.301  36.782  12.080
38086W        W10511   9.958  38.952  12.545
38087W        W10512  35.441  25.916  12.525
38088W        W10513  28.221  35.989   1.930
38089W        W10514  20.268  11.734   4.131
38090W        W10515  30.221  36.446   3.660
38091W        W10516   3.804  21.992  14.084
38092W        W10517  16.326   9.570   0.476
38093W        W10518   0.270  15.019   4.570
38094W        W10519   6.754  26.701  13.777
38095W        W10520  24.108   1.254  11.134
38096W        W10521   9.611   6.295  13.905
38097W        W10522  44.535  35.298   2.463
38098W        W10523  12.464  12.302   0.054
38099W        W10524  13.161  20.451   4.793
38100W        W10525  44.098  25.707   4.006
38101W        W10526   7.654  36.176  12.471
38102W        W10527  28.030  22.701   1.027
38103W        W10528   0.991   3.571   0.322
38104W        W10529  13.270   0.446  12.040
38105W        W10530  38.145  28.627   2.879
38106W        W10531  21.690  27.065  14.811
38107W        W10532  35.599   6.285   3.811
38108W        W10533  13.728  36.953  11.391
38109W        W10534   0.259   6.355   0.458
38110W        W10535   9.881  43.312   1.039
38111W        W10536  20.856  19.613  13.540
38112W        W10537  23.736  20.245  13.125
38113W        W10538  41.975  14.621  12.578
38114W        W10539  25.670   5.381   1.980
38115W        W10540  21.236  11.239   3.336
38116W        W10541  34.441   0.905  12.708
38117W        W10542  16.282  33.956  14.713
38118W        W10543  33.749  22.213   3.013
38119W        W10544  19.559  41.297  12.953
38120W        W10545   9.828  12.120   3.752
38121W        W10546  40.247   4.859   2.417
38122W        W10547   4.655  27.666   2.280
38123W        W10548   8.920   4.317   1.851
38124W        W10549   0.978  35.187   3.041
38125W        W10550  31.868   7.224  10.088
38126W        W10551  17.843   0.462  12.660
38127W        W10552  17.701  30.970  13.514
38128W        W10553  34.223   5.080   3.819
38129W        W10554   6.343  37.600   3.265
38130W        W10555  38.005  41.456   4.497
38131W        W10556  27.155  37.826   2.289
38132W        W10557  29.496  15.358  12.071
38133W        W10558   1.852  34.425   1.221
38134W        W10559   8.753   2.344   1.933
38135W        W10560  41.514   4.979   4.167
38136W        W10561   9.136  14.446  14.060
38137W        W10562  24.203  10.637  14.912
38138W        W10563  12.904   6.782   4.051
38139W        W10564   7.971  34.681   1.408
38140W        W10565  31.497  40.885  14.023
38141W        W10566   7.224  18.861   3.245
38142W        W10567  28.788  35.173  14.625
38143W        W10568  19.811  31.958  12.525
38144W        W10569  13.927  37.116   4.240
38145W        W10570  10.704  27.007  11.535
38146W        W10571   1.714  34.045   0.853
38147W        W10572  31.433  28.213   2.757
38148W        W10573  42.742  27.097   3.383
38149W        W10574  32.378  34.409  13.607
38150W        W10575  27.236   2.799   4.874
38151W        W10576  31.020  32.656   3.835
38152W        W10577  35.096  34.454  13.276
38153W        W10578  16.277  14.674  12.527
38154W        W10579  28.866   5.894  11.161
38155W        W10580  36.959  33.428   3.357
38156W        W10581   1.914  27.016  14.789
38157W        W10582   6.654  24.078   0.944
38158W        W10583  34.295   8.870   2.964
38159W        W10584  26.975  36.997   3.495
38160W        W10585   2.763  33.683  12.101
38161W        W10586  19.950  15.705   0.790
38162W        W10587   6.214  32.881  10.460
38163W        W10588  22.565   6.533   1.919
38164W        W10589  34.456  18.697   3.932
38165W        W10590  26.095  13.365   2.794
38166W        W10591  29.479  25.170   3.573
38167W        W10592  21.082   2.807   3.512
38168W        W10593  15.811  36.467   2.469
38169W        W10594  42.216  29.020  11.712
38170W        W10595  37.931   1.026   2.755
38171W        W10596  20.512   5.904  11.904
38172W        W10597  12.346  16.542  13.597
38173W        W10598  29.391   5.218  10.732
38174W        W10599  27.493  20.144   0.961
38175W        W10600  44.335   1.821   0.228
38176W        W10601  12.250   9.830  12.066
38177W        W10602  13.558  31.121  13.829
38178W        W10603  22.477  14.697  13.961
38179W        W10604  22.443  26.473   1.448
38180W        W10605  35.438  33.174  11.668
38181W        W10606  23.616  30.104   4.093
38182W        W10607  39.171  21.923  14.750
38183W        W10608  38.068  39.398   4.578
38184W        W10609  28.540  41.069   4.702
38185W        W10610  16.282  35.942   3.507
38186W        W10611  16.040  12.639  13.488
38187W        W10612  22.554   0.442   4.200
38188W        W10613  19.122  17.150   3.117
38189W        W10614  12.017  35.536   1.288
38190W        W10615  12.895  10.717   2.770
38191W        W10616   9.765   6.757  10.238
38192W        W10617  43.335  12.233  13.896
38193W        W10618  29.062  37.260   4.273
38194W        W10619   1.798  36.957   1.492
38195W        W10620  30.468  23.018   1.715
38196W        W10621  19.567  21.141   1.433
38197W        W10622  34.605  31.230  12.499
38198W        W10623  28.001  12.035   0.257
38199W        W10624  42.453  20.822   3.341
38200W        W10625   2.844  37.908   3.731
38201W        W10626  19.769  29.209  11.504
38202W        W10627  15.030  37.611  14.910
38203W        W10628   8.879  23.466   2.226
38204W        W10629  21.275  14.631  10.438
38205W        W10630  23.447   0.575  13.432
38206W        W10631  39.336  18.063   3.205
38207W        W10632  40.859   4.058   1.876
38208W        W10633  10.359  33.761  13.386
38209W        W10634  33.131   2.919  13.774
38210W        W10635  27.983  36.581  11.417
38211W        W10636  38.043  10.705   2.352
38212W        W10637  16.038   0.485   4.160
38213W        W10638  18.279  27.596  12.417
38214W        W10639  37.283  13.725   2.707
38215W        W10640  31.616  25.496   2.808
38216W        W10641  13.598  39.812   3.335
38217W        W10642   6.635  35.823  10.493
38218W        W10643  26.461   3.266  13.317
38219W        W10644  29.021  20.025  10.980
38220W        W10645  13.875  26.042   2.833
38221W        W10646  37.986  41.495  11.240
38222W        W10647  10.283  40.715   5.032
38223W        W10648  42.462  16.781   4.255
38224W        W10649  13.136   3.765  12.150
38225W        W10650  39.053   7.742  14.043
38226W        W10651  35.110   9.839  14.474
38227W        W10652  40.782  11.675   3.766
38228W        W10653  41.032   9.778   1.370
38229W        W10654  27.586  37.433   2.448
38230W        W10655  44.395  35.415   4.845
38231W        W10656  14.478  37.616   1.967
38232W        W10657  44.313  20.345   0.260
38233W        W10658  25.720  31.453   1.382
38234W        W10659  37.912  32.297   0.972
38235W        W10660   3.826  16.985   3.754
38236W        W10661  38.339  14.368  13.423
38237W        W10662  23.322  27.448   1.504
38238W        W10663  26.413  41.388  13.119
38239W        W10664   5.722   0.453  11.104
38240W        W10665  33.077   5.528  11.443
38241W        W10666   8.608  27.612  12.628
38242W        W10667  10.452  33.346   2.787
38243W        W10668  16.581   9.253  14.320
38244W        W10669  32.108  43.466   0.462
38245W        W10670  22.299  10.847   2.004
38246W        W10671  24.192  12.969   1.903
38247W        W10672   3.452  38.357   0.849
38248W        W10673  17.358  20.187  10.439
38249W        W10674  16.695   6.650   2.368
38250W        W10675  20.358  35.525   2.804
38251W        W10676  18.374   3.946   0.400
38252W        W10677  16.253  41.609   0.034
38253W        W10678  30.967  27.089   4.707
38254W        W10679  10.359   1.976   9.970
38255W        W10680  29.578  23.937  12.865
38256W        W10681  17.822   2.866   5.149
38257W        W10682  14.107  14.028  11.246
38258W        W10683  24.503  25.736   0.729
38259W        W10684  39.524  20.122  13.869
38260W        W10685   1.580  25.939  12.848
38261W        W10686   5.300  15.776  14.142
38262W        W10687  40.284  43.038  12.894
38263W        W10688  10.739  42.814  13.067
38264W        W10689  41.314  38.363   2.284
38265W        W10690  16.183  38.636  14.932
38266W        W10691   9.421  31.341  13.875
38267W        W10692  42.541  20.839   0.709
38268W        W10693   3.826  28.885  14.745
38269W        W10694  21.602   6.244   1.385
38270W        W10695  23.472  43.533  13.951
38271W        W10696   5.848   3.771   0.028
38272W        W10697   1.514  10.854   0.262
38273W        W10698  19.184  39.817   2.505
38274W        W10699  16.965  19.375   4.050
38275W        W10700  26.142   4.282   3.700
38276W        W10701   1.513  40.049   4.095
38277W        W10702  36.390  38.520  13.446
38278W        W10703  22.853  30.448  10.744
38279W        W10704   5.821  36.442  13.351
38280W        W10705   4.393  32.125   4.841
38281W        W10706  41.290  40.999  13.314
38282W        W10707  21.522  22.114  11.146
38283W        W10708   2.018  15.887   0.226
38284W        W10709  32.745   1.067   3.595
38285W        W10710   1.564  43.365   3.163
38286W        W10711  24.486  38.395   3.666
38287W        W10712  27.857  21.665   1.345
38288W        W10713  20.761  19.156  13.310
38289W        W10714  42.335  37.852  13.370
38290W        W10715  42.721  30.400  11.733
38291W        W10716  14.290   6.402   1.656
38292W        W10717  19.738  34.530   0.867
38293W        W10718  13.731  26.481   1.701
38294W        W10719   9.072   8.888  14.894
38295W        W10720  18.063  44.727  11.528
38296W        W10721  32.881  34.872  10.939
38297W        W10722  32.864  40.170  14.743
38298W        W10723  38.946  43.378   3.325
38299W        W10724  13.508  26.049  12.487
38300W        W10725  11.692  16.395   2.408
38301W        W10726  23.594  40.316   0.793
38302W        W10727  11.237  41.406   0.046
38303W        W10728  34.134  16.593   3.044
38304W        W10729  41.951  14.423   0.289
38305W        W10730  43.856  14.547  13.382
38306W        W10731  13.157   0.748  11.126
38307W        W10732   2.259  25.651  13.408
38308W        W10733  43.458  16.795  13.445
38309W        W10734  29.068  11.343  12.866
38310W        W10735   0.400  21.783  14.912
38311W        W10736  36.098  23.521   3.124
38312W        W10737  40.342  18.633   1.864
38313W        W10738  27.011  13.539   2.694
38314W        W10739   9.295  30.276   0.778
38315W        W10740   9.609  37.461   0.362
38316W        W10741  42.937  43.873   1.316
38317W        W10742  23.660  15.751  12.731
38318W        W10743  18.713  43.225   1.406
38319W        W10744  16.720  20.057   1.019
38320W        W10745  24.085  21.508  10.417
38321W        W10746  20.086   7.408   0.528
38322W        W10747   8.252  12.889  10.806
38323W        W10748  16.698  33.985   1.418
38324W        W10749  39.446   4.887  14.641
38325W        W10750  35.008  14.653  12.510
38326W        W10751  20.600  37.230  10.348
38327W        W10752  40.314  17.645  11.668
38328W        W10753  38.966  41.471  12.617
38329W        W10754  11.663  42.643   3.350
38330W        W10755  28.166   6.768  14.225
38331W        W10756  30.699   3.253  14.051
38332W        W10757  21.620  18.526   4.210
38333W        W10758   0.745  10.908  12.940
38334W        W10759  24.471   2.055  11.202
38335W        W10760  20.419  42.812   3.785
38336W        W10761  40.275  15.858   5.397
38337W        W10762  18.563  14.801   1.349
38338W        W10763  36.952  19.949   2.061
38339W        W10764  32.606   0.488  13.076
38340W        W10765  42.853  10.413  11.611
38341W        W10766  32.945  10.312  11.812
38342W        W10767  39.021   1.680   2.347
38343W        W10768  40.408  35.882  13.374
38344W        W10769  32.978  26.435  10.928
38345W        W10770  22.207  39.799   4.228
38346W        W10771  22.194  40.359   1.256
38347W        W10772   6.222  32.498   3.737
38348W        W10773  40.480   4.380   4.619
38349W        W10774  26.565  30.754  13.894
38350W        W10775  28.895  23.149  11.060
38351W        W10776  12.966   1.703   1.848
38352W        W10777  23.183  31.417   4.207
38353W        W10778  17.770  11.416  12.000
38354W        W10779   7.125  18.762  11.576
38355W        W10780  41.346   7.265   3.206
38356W        W10781  23.243  34.514  11.666
38357W        W10782  41.717  44.343   1.671
38358W        W10783  40.594  21.457  13.355
38359W        W10784   9.198  30.658   2.209
38360W        W10785  30.444  44.359  11.830
38361W        W10786  44.740  25.426  12.530
38362W        W10787  35.470  17.269   3.805
38363W        W10788  17.321  22.269  10.726
38364W        W10789  34.839   1.983   1.735
38365W        W10790   6.740  27.563   1.448
38366W        W10791  10.680  30.967  13.536
38367W        W10792  12.545   1.897  11.051
38368W        W10793  25.946  37.342   1.743
38369W        W10794  16.473   2.279  13.983
38370W        W10795  21.277  25.023  12.146
38371W        W10796  31.519  16.663   1.225
38372W        W10797  36.347   0.132  14.413
38373W        W10798  34.490   1.359  14.449
38374W        W10799  26.980  21.291  11.542
38375W        W10800  25.505   6.141   0.449
38376W        W10801  11.849  12.892   3.877
38377W        W10802  35.441  31.013   2.974
38378W        W10803  16.072  32.188  11.592
38379W        W10804  13.119  29.898  12.981
38380W        W10805  23.326   4.674  11.919
38381W        W10806  19.598  36.604  11.204
38382W        W10807  34.367  33.219  13.936
38383W        W10808   9.498  13.743  11.658
38384W        W10809  13.710   0.565  13.860
38385W        W10810  30.568  44.835  12.005
38386W        W10811   9.848  40.926   0.685
38387W        W10812  27.205   5.652  13.745
38388W        W10813  41.349  34.019   3.344
38389W        W10814  23.664   0.449   3.578
38390W        W10815  35.052   4.242   0.680
38391W        W10816  33.190  18.875   1.919
38392W        W10817   7.287  33.617   1.237
38393W        W10818  43.674  30.410  10.382
38394W        W10819  44.526  23.172   1.112
38395W        W10820  25.178  39.921  12.540
38396W        W10821  11.272  23.701   4.697
38397W        W10822  23.950   1.601   4.143
38398W        W10823  42.083  25.581  11.127
38399W        W10824  32.379  10.127  10.993
38400W        W10825  37.444  12.494   3.945
38401W        W10826  33.584   4.705  12.467
38402W        W10827   4.420  23.140   0.423
38403W        W10828   6.258  14.043  10.729
38404W        W10829  15.219  44.416   0.919
38405W        W10830   8.323  16.549   2.400
38406W        W10831  26.632  28.106   3.085
38407W        W10832  29.720   0.804  11.097
38408W        W10833  21.023   5.073  11.149
38409W        W10834   0.715  31.406  11.116
38410W        W10835  36.365   2.955   0.563
38411W        W10836  14.117  24.296   1.327
38412W        W10837  20.090  38.401   3.715
38413W        W10838  43.493  34.110  11.690
38414W        W10839  43.505  35.031   0.027
38415W        W10840  10.253   6.246   2.287
38416W        W10841  41.508  13.115   2.383
38417W        W10842  42.720  27.262  13.003
38418W        W10843  35.899  42.009  10.805
38419W        W10844   2.584  18.331   4.304
38420W        W10845   9.386  38.787   3.637
38421W        W10846  32.891  35.483   0.112
38422W        W10847   6.626  34.433   2.396
38423W        W10848  24.503  11.526   3.070
38424W        W10849   0.196  44.604   4.216
38425W        W10850  39.327  10.383   3.592
38426W        W10851   8.251  21.105  11.208
38427W        W10852  29.734  26.209  10.723
38428W        W10853  28.430  23.307  14.987
38429W        W10854  20.745   7.792  10.717
38430W        W10855  21.044  36.399   3.610
38431W        W10856  43.955   3.930  13.973
38432W        W10857  13.159   4.837  10.571
38433W        W10858  38.868  44.753   4.233
38434W        W10859  35.526   3.817  10.700
38435W        W10860  27.924  40.105   4.393
38436W        W10861   1.982  18.326  14.954
38437W        W10862  17.160  25.625  14.998
38438W        W10863  37.559  15.269   4.152
38439W        W10864   9.437  26.026  14.829
38440W        W10865  21.549  12.259   2.677
38441W        W10866   7.136   2.025   3.251
38442W        W10867  41.332  27.076   2.329
38443W        W10868  27.913  40.452  11.325
38444W        W10869  30.029   8.762  12.611
38445W        W10870  41.409   6.926  12.932
38446W        W10871  11.301  13.556   4.311
38447W        W10872  29.013  23.049   3.398
38448W        W10873  33.720  34.524  14.805
38449W        W10874   1.245   3.610   1.433
38450W        W10875   6.304  37.599   0.942
38451W        W10876  22.733  35.391  12.169
38452W        W10877  17.031  23.473  13.946
38453W        W10878  29.232  28.475   2.876
38454W        W10879  36.350  26.249   3.698
38455W        W10880  35.197  14.629   1.128
38456W        W10881   3.670  19.108  12.920
38457W        W10882  25.106  18.341   1.871
38458W        W10883  18.866   3.929   2.712
38459W        W10884  25.136  20.284  13.442
38460W        W10885  23.610  23.517   4.915
38461W        W10886  29.253  38.578   4.412
38462W        W10887   2.689   6.675   1.836
38463W        W10888  23.330  27.030  13.483
38464W        W10889  20.048  17.466  13.444
38465W        W10890  28.914  42.310   0.830
38466W        W10891  13.697  40.551  11.893
38467W        W10892   6.238  33.189  10.029
38468W        W10893   2.105   4.224  13.143
38469W        W10894  27.470  24.308  12.926
38470W        W10895  38.692   6.239  10.953
38471W        W10896  44.757  42.686  14.559
38472W        W10897   1.009   9.696   0.301
38473W        W10898  26.219  37.415  13.990
38474W        W10899   6.287   0.810  14.563
38475W        W10900  19.672  21.766  12.097
38476W        W10901   6.515  11.195  14.901
38477W        W10902  37.587  25.094  11.971
38478W        W10903  30.534   1.304   2.342
38479W        W10904  37.342  38.958   3.961
38480W        W10905  16.706  10.632   0.985
38481W        W10906   4.237  14.159   4.700
38482W        W10907  27.977  33.192  14.825
38483W        W10908  21.728  23.576  11.419
38484W        W10909  31.393  16.596   3.392
38485W        W10910   7.214  31.923   5.045
38486W        W10911  42.382  38.016   2.720
38487W        W10912  17.400  32.622  14.806
38488W        W10913   3.001   3.803  14.916
38489W        W10914  40.655  35.394  12.766
38490W        W10915   2.874  23.563   0.409
38491W        W10916   6.449  30.002   2.222
38492W        W10917  17.356   9.922   3.901
38493W        W10918  15.341   1.382  11.482
38494W        W10919  29.365  11.053  14.540
38495W        W10920   1.973  44.869  10.772
38496W        W10921  20.669   6.461  13.508
38497W        W10922  23.712  38.769   4.348
38498W        W10923  27.005  35.966   4.020
38499W        W10924  24.746   1.978  13.349
38500W        W10925  29.957  34.102  12.843
38501W        W10926  19.489  34.592  11.982
38502W        W10927  11.756  26.529   2.271
38503W        W10928  17.214  41.725   1.147
38504W        W10929  15.877  28.595  13.421
38505W        W10930  26.537  28.593   3.900
38506W        W10931  44.705  12.232   0.388
38507W        W10932  44.095  31.135  14.893
38508W        W10933  10.664  20.222  11.523
38509W        W10934  40.791  42.874  12.949
38510W        W10935  15.206  20.481   1.405
38511W        W10936   0.314  15.746  10.769
38512W        W10937  18.769  27.220   2.341
38513W        W10938  44.003   8.169  11.882
38514W        W10939  16.145   0.450   2.703
38515W        W10940   9.114  39.998   1.422
38516W        W10941  37.567  27.109   2.705
38517W        W10942  37.259  11.170  12.408
38518W        W10943  30.501  19.591   4.821
38519W        W10944  39.981  31.668  13.995
38520W        W10945  18.164   1.522  13.519
38521W        W10946  33.207  24.747   2.259
38522W        W10947   5.648  38.511   3.251
38523W        W10948  23.523  12.192   1.988
38524W        W10949  13.978  11.535  13.030
38525W        W10950   8.771  22.527   4.592
38526W        W10951  40.453   9.303   3.749
38527W        W10952   7.309  15.910   0.995
38528W        W10953   9.877  31.061  13.940
38529W        W10954  25.004   2.489  13.288
38530W        W10955  17.999  20.721  13.792
38531W        W10956  37.289  22.724  11.891
38532W        W10957  17.359  42.994   0.679
38533W        W10958   7.861   5.237  10.885
38534W        W10959  30.101  24.158   3.603
38535W        W10960  29.795  29.018  10.288
38536W        W10961  29.999  41.319   2.336
38537W        W10962  33.431  14.592  13.458
38538W        W10963   7.588  38.838   4.975
38539W        W10964   6.725   1.471  13.027
38540W        W10965  41.464  23.495  14.909
38541W        W10966  33.113  42.993  11.696
38542W        W10967  21.604   2.897   3.416
38543W        W10968  31.851  24.966  12.017
38544W        W10969   1.986  10.141  14.734
38545W        W10970  31.104  19.537   4.126
38546W        W10971  40.342  15.135   3.127
38547W        W10972  30.382  38.852   1.362
38548W        W10973  10.399  10.641   2.037
38549W        W10974  31.929  28.019  12.509
38550W        W10975  16.884  43.864  12.597
38551W        W10976  34.672  36.130   0.868
38552W        W10977  24.457  41.867  12.718
38553W        W10978  18.082  13.651   0.776
38554W        W10979  41.953  43.420   5.030
38555W        W10980  17.789  19.287  11.926
38556W        W10981  39.405  13.594   4.245
38557W        W10982  39.282   8.372   4.834
38558W        W10983  35.640  10.354   2.123
38559W        W10984   6.717  14.270   1.526
38560W        W10985  11.461  27.416  12.000
38561W        W10986  31.026  32.071   0.181
38562W        W10987  16.543   6.366   3.370
38563W        W10988   9.038  18.127   3.530
38564W        W10989  35.063   0.057   1.739
38565W        W10990   2.923  31.849  12.442
38566W        W10991  32.140  12.598  12.412
38567W        W10992  12.478  42.434  12.070
38568W        W10993   2.717   3.743   1.309
38569W        W10994  29.981   6.107   0.461
38570W        W10995  38.872  27.570  12.160
38571W        W10996  23.106  10.273  13.947
38572W        W10997  13.483   4.312   4.625
38573W        W10998  32.905  11.367   0.278
38574W        W10999  43.543   9.112  10.676
38575W        W11000  10.753   8.995  14.965
38576W        W11001  34.968  23.212   3.583
38577W        W11002   9.624  29.178  14.471
38578W        W11003  38.118  15.589   1.707
38579W        W11004   1.937  12.338   1.841
38580W        W11005  44.975  15.713  10.397
38581W        W11006  19.456  17.741   4.772
38582W        W11007  27.881  25.441   1.345
38583W        W11008  22.779   3.335  14.011
38584W        W11009  34.513   7.628  13.885
38585W        W11010  39.877  29.743  14.944
38586W        W11011  27.619  23.812  12.972
38587W        W11012  26.281  16.380   0.273
38588W        W11013  30.091  37.362   2.778
38589W        W11014  18.220  29.612  14.743
38590W        W11015  22.111  28.591  13.620
38591W        W11016  36.548  37.442   3.571
38592W        W11017   9.298  26.485  10.645
38593W        W11018  19.660   7.716   0.504
38594W        W11019  15.253  17.021   3.661
38595W        W11020   8.371  23.624  13.723
38596W        W11021  39.232   0.794  13.556
38597W        W11022  35.913   6.736   4.404
38598W        W11023   2.343  36.653   2.085
38599W        W11024  34.329  35.981  14.913
38600W        W11025  14.577  28.567  13.552
38601W        W11026  14.820  18.745   4.776
38602W        W11027  37.608  42.388   4.678
38603W        W11028  31.978   0.440  11.199
38604W        W11029  40.772  38.464   3.140
38605W        W11030  41.753   2.950   2.564
38606W        W11031   3.641  15.330  10.369
38607W        W11032   5.648  32.016  13.036
38608W        W11033  34.325  21.092   9.902
38609W        W11034   0.742  39.176   0.318
38610W        W11035   5.208  29.387  12.545
38611W        W11036  33.413   2.439   1.955
38612W        W11037  40.657  14.865  12.877
38613W        W11038   2.048  14.986  12.064
38614W        W11039  11.739  16.873  14.809
38615W        W11040  30.837  14.859  12.831
38616W        W11041   1.788  10.615   1.264
38617W        W11042   4.288  20.607  12.053
38618W        W11043  19.042  14.639   1.205
38619W        W11044   6.885   0.557  12.984
38620W        W11045  37.955   5.462   4.053
38621W        W11046   1.830  35.238   4.334
38622W        W11047   9.847   1.983  14.275
38623W        W11048  10.520   6.298  12.839
38624W        W11049  43.997  40.316  13.004
38625W        W11050  21.524  12.281  14.832
38626W        W11051  25.189  36.613  11.619
38627W        W11052  35.313   9.661   4.716
38628W        W11053  43.758  12.490   2.823
38629W        W11054  33.973   4.274   3.227
38630W        W11055  22.745   6.681  13.535
38631W        W11056  19.487  42.298   1.403
38632W        W11057  44.838  11.740  12.337
38633W        W11058  22.006  28.863   4.654
38634W        W11059  28.201  38.964  10.251
38635W        W11060  21.789  10.926   1.297
38636W        W11061  39.064  36.065   2.093
38637W        W11062  40.905  16.587   3.661
38638W        W11063  44.811  38.479   2.771
38639W        W11064  13.527  42.256  13.039
38640W        W11065   5.001  40.421  12.804
38641W        W11066  25.707   4.321   4.459
38642W        W11067  38.403  41.686  13.518
38643W        W11068  27.960  30.016  13.126
38644W        W11069  42.517  14.981   1.999
38645W        W11070  24.649  44.847   0.867
38646W        W11071  18.572  42.434   3.194
38647W        W11072  36.352  23.219   3.668
38648W        W11073   3.715  44.880  13.901
38649W        W11074  16.616   0.881   2.305
38650W        W11075  18.745  14.775  14.056
38651W        W11076  11.119  44.213  13.004
38652W        W11077  31.352  19.628   1.014
38653W        W11078   5.882  14.577   4.872
38654W        W11079  29.618  40.183  11.435
38655W        W11080  12.904   5.875   1.847
38656W        W11081  19.593  16.804   3.772
38657W        W11082  36.470  42.775   3.636
38658W        W11083   8.568  24.387   4.849
38659W        W11084  38.325  31.439  13.774
38660W        W11085  20.992  41.500  14.860
38661W        W11086  43.899   0.616  14.761
38662W        W11087  19.028   8.387  12.027
38663W        W11088  18.734  39.355   1.828
38664W        W11089  12.230  38.514  14.821
38665W        W11090  35.360  20.055  12.365
38666W        W11091  44.873   6.778   3.268
38667W        W11092  25.623  13.223  14.787
38668W        W11093  14.518  34.855   4.876
38669W        W11094  40.338   8.402   1.332
38670W        W11095  43.351  36.469   2.714
38671W        W11096  23.742   5.502   1.384
38672W        W11097   0.481  13.729  12.146
38673W        W11098  25.068  41.377  12.087
38674W        W11099  25.921   0.495   2.972
38675W        W11100  20.807  20.110   3.820
38676W        W11101   8.034  39.495   2.276
38677W        W11102  30.569   1.055   0.321
38678W        W11103  34.508   8.313   1.490
38679W        W11104  38.781  19.519  13.021
38680W        W11105  23.695   8.303   3.519
38681W        W11106  20.145  22.989  13.850
38682W        W11107  13.814  25.559   9.973
38683W        W11108   8.161  23.518   1.464
38684W        W11109   7.896   0.458  13.719
38685W        W11110  29.798   8.895  11.185
38686W        W11111  29.931  13.822  13.365
38687W        W11112  23.608  14.828   1.787
38688W        W11113  26.280   6.882   0.333
38689W        W11114  33.882  35.939   4.637
38690W        W11115  37.020  21.946  10.746
38691W        W11116  30.482  11.071  11.329
38692W        W11117   5.970  35.628   3.749
38693W        W11118  22.555  24.936   0.422
38694W        W11119  29.369  41.549  12.455
38695W        W11120   2.743  29.498   3.156
38696W        W11121  22.686  24.926   2.275
38697W        W11122  33.855  19.121  10.678
38698W        W11123  27.701  17.874   2.630
38699W        W11124  40.389  14.113   3.355
38700W        W11125   2.012  40.401   2.312
38701W        W11126  11.697  33.862  13.549
38702W        W11127  30.102   2.498  11.394
38703W        W11128   4.219  19.771   0.093
38704W        W11129  13.588  23.447   4.170
38705W        W11130  21.614  29.717  13.040
38706W        W11131  14.628   8.995   3.353
38707W        W11132  34.244  10.149  11.195
38708W        W11133   8.901  18.158   1.942
38709W        W11134  17.499  39.626   1.024
38710W        W11135  29.358  15.013  11.119
38711W        W11136   3.061   5.691   1.466
38712W        W11137  23.007  44.972  13.899
38713W        W11138  13.657  19.706  10.830
38714W        W11139  37.923  17.017   0.342
38715W        W11140  10.756   5.927  10.276
38716W        W11141   6.616   5.525  14.704
38717W        W11142  29.985  38.673  12.578
38718W        W11143   6.827  28.073   1.717
38719W        W11144   5.969  43.772  12.948
38720W        W11145  44.101   1.287   2.650
38721W        W11146  21.339   7.288  11.715
38722W        W11147  16.016   6.261  11.986
38723W        W11148  28.390   8.575  10.950
38724W        W11149   9.394  15.272   2.321
38725W        W11150  10.892   6.418  14.799
38726W        W11151   2.989  34.425   3.617
38727W        W11152  43.230  23.997   4.097
38728W        W11153   0.661  43.361   4.152
38729W        W11154  32.565  43.429  13.371
38730W        W11155  24.692  37.842  11.919
38731W        W11156  43.710   4.308   3.925
38732W        W11157  30.562  14.026  14.007
38733W        W11158  22.969  34.658   5.113
38734W        W11159  21.118  17.069  11.539
38735W        W11160  22.551  40.839   4.280
38736W        W11161  17.440  34.896   4.119
38737W        W11162   4.821  16.396  12.959
38738W        W11163   5.483  12.162   1.322
38739W        W11164  20.929  29.406   2.618
38740W        W11165   5.599   4.468  11.144
38741W        W11166   7.249  13.883   0.930
38742W        W11167  17.323  25.635  11.809
38743W        W11168  12.692  28.486  14.453
38744W        W11169  10.132  26.077  13.499
38745W        W11170  20.281  25.385   2.707
38746W        W11171   0.848   5.767   3.976
38747W        W11172  22.319  32.936   2.542
38748W        W11173  43.427  30.576  14.294
38749W        W11174  17.619  15.256   4.743
38750W        W11175  44.980  18.588  12.946
38751W        W11176  20.212  16.701  10.689
38752W        W11177  41.957  43.547  12.017
38753W        W11178  26.705  31.240   2.987
38754W        W11179   2.407  21.630  12.379
38755W        W11180  16.308  14.803   0.407
38756W        W11181  11.960  37.492  10.150
38757W        W11182  20.588   2.530  14.884
38758W        W11183  14.405  30.147  14.301
38759W        W11184  43.030   2.978  11.646
38760W        W11185  44.224  25.084   2.834
38761W        W11186  44.166  27.025  14.934
38762W        W11187   1.258  43.334   1.714
38763W        W11188   1.387  12.669  14.513
38764W        W11189  36.327   2.020  10.951
38765W        W11190   2.257  20.412   2.341
38766W        W11191  13.790   2.991  10.671
38767W        W11192   8.292   5.935  14.115
38768W        W11193  37.043  32.220  10.613
38769W        W11194  12.993   3.865   1.430
38770W        W11195  20.696  13.807  12.106
38771W        W11196  12.790  23.020   1.856
38772W        W11197  35.626  20.653   1.892
38773W        W11198   9.573  25.967   2.363
38774W        W11199  36.650  18.132  14.446
38775W        W11200  24.390  29.486   0.367
38776W        W11201  31.263  22.184  13.495
38777W        W11202  44.351  22.899   4.620
38778W        W11203   0.179  31.087  12.805
38779W        W11204   5.164  42.804   3.155
38780W        W11205  36.879   4.324  12.382
38781W        W11206  38.049  27.992  12.143
38782W        W11207  14.275  22.142   3.176
38783W        W11208  35.431  20.052  10.756
38784W        W11209  31.471  32.400   3.863
38785W        W11210  23.186   0.279   4.804
38786W        W11211  24.927   0.772   4.388
38787W        W11212   4.201  31.630   0.925
38788W        W11213   8.194  18.681  13.010
38789W        W11214   3.378  19.565   0.132
38790W        W11215  35.197  33.901  11.138
38791W        W11216  22.308   9.819   3.581
38792W        W11217  43.509  10.136  12.908
38793W        W11218  20.942  37.614  12.960
38794W        W11219  13.308  30.575   5.065
38795W        W11220  16.888  29.149   2.773
38796W        W11221  42.617   7.142   4.358
38797W        W11222  30.452  13.780   2.751
38798W        W11223  10.607  39.440  12.399
38799W        W11224  27.587  13.676   1.675
38800W        W11225   8.180  39.057   0.834
38801W        W11226  25.801  37.580  11.144
38802W        W11227   9.175   9.959  13.875
38803W        W11228  12.200  40.322  12.977
38804W        W11229  38.120  36.751  11.253
38805W        W11230  33.836  17.036  10.924
38806W        W11231  12.646  22.817  10.090
38807W        W11232   3.874   6.775  13.663
38808W        W11233  17.793  37.500   4.038
38809W        W11234  40.914  40.091  11.859
38810W        W11235  28.395  18.454   2.240
38811W        W11236  29.036  15.107   4.363
38812W        W11237  21.139   8.778   4.216
38813W        W11238  26.107  34.111   0.673
38814W        W11239  44.056   8.655   0.429
38815W        W11240   3.495  11.964  14.222
38816W        W11241  12.939   6.992   2.389
38817W        W11242  36.420  37.608   1.788
38818W        W11243  11.807  38.404   3.690
38819W        W11244  30.825  43.361   2.204
38820W        W11245  18.679  44.227  13.637
38821W        W11246  12.460  21.916   0.660
38822W        W11247  28.398  18.833   4.158
38823W        W11248  19.856  20.771  10.776
38824W        W11249   3.535  16.386   1.061
38825W        W11250  17.601  14.148   4.146
38826W        W11251  21.152  20.066  10.430
38827W        W11252   5.244  21.637   2.691
38828W        W11253  15.161  39.140  13.759
38829W        W11254   3.691  27.067  11.218
38830W        W11255   7.155  34.115   1.273
38831W        W11256  21.372  10.265   1.510
38832W        W11257  14.648  41.859  11.509
38833W        W11258  25.245   7.874  12.064
38834W        W11259  27.314   5.205   3.257
38835W        W11260  31.912  44.198   1.323
38836W        W11261  43.826  35.897   0.402
38837W        W11262  31.994  13.797   4.050
38838W        W11263   6.743   7.463   4.629
38839W        W11264  25.861  31.387  13.788
38840W        W11265  40.479  39.911   0.262
38841W        W11266  14.668  10.805  11.707
38842W        W11267  38.758  12.829  10.557
38843W        W11268  10.128  40.005   1.831
38844W        W11269   7.291  36.123  14.424
38845W        W11270  11.222  17.698   4.178
38846W        W11271  27.196  10.128   1.863
38847W        W11272   7.970  10.333  12.367
38848W        W11273   4.293   2.859  11.962
38849W        W11274  20.189  32.240  12.367
38850W        W11275  43.733   1.231  12.950
38851W        W11276   6.770  34.393   0.324
38852W        W11277   4.441  39.375  12.064
38853W        W11278   6.419  21.728  12.076
38854W        W11279  33.930  10.481   0.971
38855W        W11280   8.869  25.790  12.464
38856W        W11281   3.228   9.063   2.277
38857W        W11282  41.754  17.017  13.138
38858W        W11283  11.749  16.076   1.039
38859W        W11284  28.553  15.211   3.069
38860W        W11285   8.842   8.919   2.707
38861W        W11286  37.613  29.409  14.006
38862W        W11287  31.602   1.228  14.564
38863W        W11288  32.153  14.210  10.349
38864W        W11289  21.025  16.749   5.100
38865W        W11290  19.662  16.247   2.182
38866W        W11291  24.072   2.021   2.460
38867W        W11292  15.329  44.816  11.082
38868W        W11293  28.063   2.203  14.010
38869W        W11294  40.521   4.735  10.442
38870W        W11295  18.984   8.928  11.181
38871W        W11296  19.138   1.482  10.513
38872W        W11297  30.556  18.158  10.783
38873W        W11298  40.488  30.655  12.079
38874W        W11299  29.667  18.123   2.303
38875W        W11300  40.430  17.523  11.165
38876W        W11301   3.858  20.806   2.710
38877W        W11302   6.911  28.552  14.462
38878W        W11303  41.359  44.256  14.358
38879W        W11304   5.364  22.162  10.458
38880W        W11305  29.056  26.100  12.183
38881W        W11306   0.221  43.425  11.490
38882W        W11307  11.672  31.391  10.705
38883W        W11308  44.440   7.316  11.430
38884W        W11309   9.776  30.946  10.742
38885W        W11310  11.840  11.183  10.668
38886W        W11311   4.855  43.443  14.771
38887W        W11312  11.916  28.600  10.471
38888W        W11313   7.335  31.543   2.200
38889W        W11314  32.813  20.035  11.842
38890W        W11315   7.330   1.484  12.391
38891W        W11316  10.365   1.808   2.746
38892W        W11317  18.503   1.943   2.358
38893W        W11318  43.916  12.961   2.658
38894W        W11319  21.656  43.265   3.756
38895W        W11320  33.899  33.471   4.228
38896W        W11321  34.574  20.654  13.295
38897W        W11322  23.520  24.543   0.745
38898W        W11323  10.640   9.691   1.299
38899W        W11324  31.363  12.122  13.612
38900W        W11325   2.483  12.773  10.283
38901W        W11326  31.829   3.577  12.736
38902W        W11327   6.394  37.155   3.504
38903W        W11328  11.749  20.710   1.170
38904W        W11329  41.884  39.929   3.901
38905W        W11330  15.266   5.258   0.358
38906W        W11331  19.212   4.400   0.220
38907W        W11332  28.809  11.129   4.163
38908W        W11333  38.289  43.341   5.393
38909W        W11334  37.863  44.996   1.132
38910W        W11335   3.511   6.664   0.465
38911W        W11336  28.023  41.325   2.316
38912W        W11337   7.297  26.493   2.470
38913W        W11338   3.790  42.186   4.076
38914W        W11339   2.965  43.746  12.944
38915W        W11340   5.778  19.981  12.514
38916W        W11341  21.317   4.211   1.191
38917W        W11342  33.375  31.018   0.766
38918W        W11343   7.155  33.448  12.858
38919W        W11344  16.717   8.236   3.689
38920W        W11345  11.554  39.533  11.781
38921W        W11346  13.403   6.782  13.933
38922W        W11347  13.348  20.558   1.949
38923W        W11348  16.377   0.781  10.452
38924W        W11349  25.198  23.371   2.880
38925W        W11350  39.683  40.335  14.919
38926W        W11351  14.156   6.328   2.228
38927W        W11352  41.715  21.497  13.881
38928W        W11353  25.785  16.228  11.488
38929W        W11354  31.712  16.565   0.753
38930W        W11355  33.894   7.184  14.219
38931W        W11356   9.108  34.575   0.505
38932W        W11357  38.721  18.296  14.989
38933W        W11358  35.377   6.160  14.272
38934W        W11359  32.933  26.334  13.392
38935W        W11360  20.186   7.429   4.571
38936W        W11361  30.391   8.839   0.293
38937W        W11362  35.945  11.682   4.109
38938W        W11363   5.471  11.339   0.072
38939W        W11364  36.087  44.469   0.516
38940W        W11365  43.479  40.504  12.897
38941W        W11366  29.165  12.828   3.704
38942W        W11367  24.632  14.506  14.409
38943W        W11368  25.985  13.552  12.407
38944W        W11369  19.767  44.436   3.580
38945W        W11370  22.799  22.109   4.678
38946W        W11371  33.995  21.798   1.713
38947W        W11372   7.053  43.202  14.059
38948W        W11373  43.855   4.912  11.972
38949W        W11374   9.079  27.630  12.852
38950W        W11375  15.638  29.468   3.335
38951W        W11376  44.053  16.173   2.687
38952W        W11377  41.264  20.265  10.760
38953W        W11378  10.779  16.356  12.898
38954W        W11379  29.067  44.862   1.551
38955W        W11380  44.586  22.679   0.870
38956W        W11381   0.767  29.675   2.334
38957W        W11382  25.128  32.122  13.393
38958W        W11383   9.350  25.170   0.933
38959W        W11384  10.578  25.847   3.311
38960W        W11385   3.756  15.762  10.607
38961W        W11386  42.381   1.004   2.754
38962W        W11387   2.291  34.685  12.474
38963W        W11388  15.691  10.680   3.709
38964W        W11389   2.720  35.465   3.282
38965W        W11390  18.575  11.167   2.429
38966W        W11391  44.719  43.860   0.868
38967W        W11392  14.859  20.734   1.734
38968W        W11393  20.466   9.255  10.593
38969W        W11394  13.912  44.943   3.329
38970W        W11395  23.217  32.393   4.566
38971W        W11396  43.962  37.550  11.629
38972W        W11397  43.156  40.535  10.956
38973W        W11398   8.279   3.463  14.412
38974W        W11399   8.871  26.596   3.315
38975W        W11400   2.752   7.539   0.446
38976W        W11401   7.718  34.404  14.990
38977W        W11402  24.230   9.896   1.321
38978W        W11403  16.300   7.594  11.173
38979W        W11404   7.019  16.762   3.576
38980W        W11405  19.562  24.570   4.596
38981W        W11406  31.406   4.805   1.324
38982W        W11407   9.598   9.305   2.629
38983W        W11408  31.369  12.630  14.527
38984W        W11409  32.341   7.914  11.483
38985W        W11410   2.313  44.102  12.509
38986W        W11411  41.997  27.414   0.074
38987W        W11412  30.948  17.640   0.752
38988W        W11413   2.274   7.194   0.197
38989W        W11414  10.005  11.153  11.610
38990W        W11415  21.288   6.204   1.796
38991W        W11416  20.270   0.175  14.504
38992W        W11417   7.415  41.532  10.778
38993W        W11418  26.816  21.502   0.184
38994W        W11419  11.073  24.098  12.385
38995W        W11420  33.844  36.067  11.041
38996W        W11421   2.865  43.500   3.736
38997W        W11422  44.785  10.618  14.366
38998W        W11423  11.851   9.371  14.304
38999W        W11424  39.914  30.112   3.644
39000W        W11425   2.896  12.606  10.592
39001W        W11426  36.545  27.647   4.909
39002W        W11427  19.318   2.791  11.541
39003W        W11428  40.036  36.241  13.289
39004W        W11429  37.939  25.929   3.717
39005W        W11430  39.351  12.384  13.278
39006W        W11431  22.493  31.224  11.027
39007W        W11432  24.772  19.582  13.556
39008W        W11433  22.244  35.874  11.138
39009W        W11434  27.896  44.013  13.530
39010W        W11435  35.490  21.266   4.774
39011W        W11436  42.884  20.915  13.718
39012W        W11437  29.536  26.951  14.227
39013W        W11438  35.940  24.677   1.985
39014W        W11439  37.976  37.365   3.693
39015W        W11440  21.631  15.774   0.449
39016W        W11441  29.206  23.198  13.863
39017W        W11442   1.903   7.795  11.262
39018W        W11443  42.813  25.253   0.352
39019W        W11444   9.170  36.665  10.170
39020W        W11445  34.877  29.543  11.457
39021W        W11446  41.526   9.638   2.932
39022W        W11447  31.922  22.958  14.384
39023W        W11448  13.138   6.838   0.760
39024W        W11449  27.189   1.913  12.054
39025W        W11450  16.757  28.647   1.805
39026W        W11451   3.814   5.964   0.044
39027W        W11452  13.635  14.292  12.123
39028W        W11453  36.074  33.181   2.129
39029W        W11454   8.352  42.082   2.758
39030W        W11455  23.326  23.668  10.396
39031W        W11456  20.105   1.438  13.951
39032W        W11457  39.860  29.158   3.071
39033W        W11458  25.496  37.413  12.077
39034W        W11459  33.036  34.161  12.484
39035W        W11460  34.416  30.179  10.496
39036W        W11461   4.868  18.381  11.938
39037W        W11462  28.616  31.225   3.229
39038W        W11463  37.772  26.525   0.318
39039W        W11464   3.295   2.507   1.754
39040W        W11465   6.199  33.099   1.744
39041W        W11466   3.438  15.537   4.016
39042W        W11467   6.363  10.274  10.139
39043W        W11468  31.655  14.159  11.140
39044W        W11469  44.859  23.122  12.944
39045W        W11470  31.554  19.255   2.842
39046W        W11471  39.025  42.955   3.598
39047W        W11472   9.372  30.379   2.618
39048W        W11473  12.019  39.310   0.786
39049W        W11474  38.466  20.648   1.615
39050W        W11475   0.282  15.208  14.786
39051W        W11476  11.876  17.793   0.005
39052W        W11477  28.673  10.642  10.403
39053W        W11478  14.345  15.263  12.578
39054W        W11479  43.339  12.695  11.205
39055W        W11480  28.418  37.204  14.894
39056W        W11481  28.831  33.453   2.260
39057W        W11482  40.289   3.455  13.305
39058W        W11483   0.679  22.250   4.171
39059W        W11484  34.626  14.578  10.793
39060W        W11485  20.331   2.265   4.690
39061W        W11486  20.678  21.492   4.374
39062W        W11487   5.460  38.784  13.543
39063W        W11488  43.466  35.618  14.294
39064W        W11489   9.450  17.016  10.005
39065W        W11490  24.454  31.710  12.469
39066W        W11491   4.125  16.817  14.430
39067W        W11492   4.240  35.263   1.457
39068W        W11493  37.778  36.089  12.018
39069W        W11494  18.093  35.783   0.548
39070W        W11495   2.141  21.612  11.926
39071W        W11496   0.784  16.881   2.626
39072W        W11497  37.826  26.608  13.448
39073W        W11498  39.120  14.777   3.774
39074W        W11499  38.069   8.111   3.163
39075W        W11500  22.232  15.056  14.293
39076W        W11501  14.331  13.684   3.549
39077W        W11502  18.091  30.187   1.506
39078W        W11503  37.493  19.160  14.271
39079W        W11504   2.683  15.888  14.273
39080W        W11505  11.998  19.207  11.600
39081W        W11506  13.885  23.465   0.437
39082W        W11507  24.136   5.588  13.334
39083W        W11508   9.062  31.255  12.677
39084W        W11509  27.898  37.774   5.006
39085W        W11510  26.294  39.442  14.024
39086W        W11511  32.853  14.556  14.031
39087W        W11512  13.314  20.645  10.936
39088W        W11513  25.339  24.718  14.396
39089W        W11514   2.402  10.327  14.496
39090W        W11515   5.353  19.182  13.950
39091W        W11516   9.154   0.306  14.354
39092W        W11517  30.097  13.288   1.307
39093W        W11518  25.559  40.391  10.492
39094W        W11519  23.014  40.116  14.873
39095W        W11520   3.298  36.435   1.310
39096W        W11521  40.480   7.043   0.456
39097W        W11522  14.286  21.445  11.125
39098W        W11523  24.684   6.209   3.121
39099W        W11524  11.092  44.115   4.052
39100W        W11525  28.112  40.498   4.090
39101W        W11526   0.908   8.214   2.781
39102W        W11527  23.561  38.819   0.010
39103W        W11528   6.881   6.918   2.873
39104W        W11529  16.919  10.109   1.840
39105W        W11530  21.300  34.507   3.877
39106W        W11531   7.639   9.772   0.334
39107W        W11532  41.510   5.688   1.000
39108W        W11533   8.650  14.701  14.561
39109W        W11534  43.514  28.615  10.808
39110W        W11535   8.904   7.193  12.051
39111W        W11536  38.478  40.512   3.146
39112W        W11537  23.720   7.798  10.573
39113W        W11538  19.582  26.521   3.072
39114W        W11539   8.254  20.469   4.192
39115W        W11540  14.415  23.517   0.352
39116W        W11541  25.019   5.249   2.171
39117W        W11542  14.903  10.853   2.593
39118W        W11543  40.602   5.441   3.811
39119W        W11544   1.239  13.714   2.809
39120W        W11545  26.027   6.199  13.332
39121W        W11546  10.114   5.312  14.887
39122W        W11547  24.124   3.671   3.817
39123W        W11548   6.298   5.425   1.784
39124W        W11549  34.621   2.370  12.118
39125W        W11550  11.941  43.530   3.214
39126W        W11551  37.346  29.581   3.804
39127W        W11552  10.976  20.054   0.364
39128W        W11553  36.538  15.006   2.842
39129W        W11554  30.655  14.275   3.709
39130W        W11555   3.454   4.688   3.239
39131W        W11556  10.169  12.717  13.418
39132W        W11557  37.506  36.456   3.646
39133W        W11558  29.676  22.532  12.037
39134W        W11559  37.808   7.815   4.266
39135W        W11560  30.898  36.995   4.562
39136W        W11561  25.954  20.255  12.655
39137W        W11562   2.491  25.767  13.866
39138W        W11563  26.538   5.024   1.372
39139W        W11564   9.986  41.764  13.044
39140W        W11565  16.287  30.482  10.628
39141W        W11566  42.187   1.594   1.735
39142W        W11567  27.400  28.947  13.998
39143W        W11568   2.769   8.716   4.564
39144W        W11569   7.280  40.539  10.814
39145W        W11570   2.723  24.467   4.887
39146W        W11571  39.709  29.092  14.339
39147W        W11572  44.416   7.507  10.016
39148W        W11573  32.079  43.396  13.144
39149W        W11574  15.196  39.463  14.287
39150W        W11575  43.831  36.335  13.852
39151W        W11576  10.893  34.433   3.258
39152W        W11577  26.180   0.978  14.858
39153W        W11578  17.903  38.559   2.386
39154W        W11579  18.355   5.363  10.665
39155W        W11580   9.729  20.243  12.073
39156W        W11581  10.220  20.253  12.885
39157W        W11582  15.280  11.777  11.602
39158W        W11583  14.323   2.929  12.816
39159W        W11584  21.387  14.182  14.812
39160W        W11585  28.587  44.192  12.391
39161W        W11586  16.714  20.760  14.849
39162W        W11587  35.531  41.080  11.492
39163W        W11588  20.753  36.623  14.365
39164W        W11589  15.736  41.383  11.990
39165W        W11590  40.910  12.725  13.918
39166W        W11591  44.368  29.935  12.055
39167W        W11592  40.401   5.339   3.350
39168W        W11593  41.857  30.574   1.714
39169W        W11594  23.795  22.442   0.761
39170W        W11595  20.126   6.429   4.200
39171W        W11596  30.074  26.699  12.482
39172W        W11597  21.114  32.220  12.024
39173W        W11598  28.423  29.610   4.290
39174W        W11599   1.538  30.643  13.932
39175W        W11600  35.108   7.452  12.433
39176W        W11601  23.421   1.527   2.516
39177W        W11602  21.427  11.807   1.352
39178W        W11603  10.702  21.800  13.944
39179W        W11604  19.692  39.703  10.810
39180W        W11605  43.472  35.921   4.459
39181W        W11606  28.418  17.703   0.761
39182W        W11607  32.951   1.752   3.198
39183W        W11608  35.700   4.365  14.967
39184W        W11609  11.644  14.082  13.465
39185W        W11610  31.714   8.052  13.493
39186W        W11611  22.448  29.431   3.720
39187W        W11612   2.528   8.201   2.161
39188W        W11613   1.739  34.924   1.050
39189W        W11614  32.466  34.009  10.907
39190W        W11615  38.770  43.485  11.945
39191W        W11616  18.735  25.953  12.476
39192W        W11617   6.205  28.874  10.234
39193W        W11618  12.925   9.260   5.155
39194W        W11619  21.497  44.804   3.781
39195W        W11620  43.063  41.340  12.898
39196W        W11621   9.081  12.101  11.458
39197W        W11622  44.293  32.677   1.415
39198W        W11623  33.083  27.432   2.617
39199W        W11624   9.075  21.272   2.150
39200W        W11625  44.370  34.151   3.210
39201W        W11626  36.857  39.208   4.042
39202W        W11627  43.663   7.739  13.896
39203W        W11628  18.296  24.136   3.278
39204W        W11629  26.474   7.312   0.825
39205W        W11630  22.671  10.143  11.742
39206W        W11631   8.421  36.000  13.534
39207W        W11632  23.014  28.509  10.929
39208W        W11633  31.159   6.112   3.390
39209W        W11634  11.209  37.867   2.986
39210W        W11635   8.867   1.547  14.235
39211W        W11636   8.141  21.574  11.399
39212W        W11637   7.625   7.666  12.567
39213W        W11638   5.389  28.181   2.235
39214W        W11639   1.665  39.315   3.279
39215W        W11640  28.996  22.256  13.802
39216W        W11641   8.785  34.476  10.772
39217W        W11642  27.423  17.385   1.807
39218W        W11643  38.115  33.168  11.648
39219W        W11644  22.231  18.257   3.673
39220W        W11645   3.219  32.193   1.089
39221W        W11646  43.372  28.250   4.961
39222W        W11647   3.350  18.018   1.215
39223W        W11648   5.431   1.691   0.898
39224W        W11649  36.546  41.799  14.583
39225W        W11650  19.594  17.118   3.361
39226W        W11651  34.999  17.164  14.812
39227W        W11652  12.131  14.820   0.881
39228W        W11653  15.685   8.170   3.468
39229W        W11654  35.174   5.351   4.911
39230W        W11655   0.167  14.309   3.141
39231W        W11656  16.031  39.627  12.547
39232W        W11657  32.813  18.257  14.305
39233W        W11658   9.778  21.209   2.581
39234W        W11659  43.201  29.918   4.459
39235W        W11660   7.618  33.143  12.513
39236W        W11661  25.545   8.930   0.036
39237W        W11662  33.980  11.297  11.566
39238W        W11663   3.737  32.436   2.615
39239W        W11664  36.868  16.805  14.557
39240W        W11665  37.512   3.307   4.884
39241W        W11666  22.175  24.910  14.965
39242W        W11667   7.682  10.744  12.448
39243W        W11668  39.473  17.985   1.764
39244W        W11669   2.319   1.658   3.414
39245W        W11670   8.353  13.279  12.106
39246W        W11671  43.851  25.472  14.453
39247W        W11672  18.212  16.314   3.617
39248W        W11673  40.611  44.799  14.749
39249W        W11674  12.681  29.505  12.399
39250W        W11675  36.145   8.266  12.051
39251W        W11676   5.215  24.034  13.801
39252W        W11677  34.537  16.385  14.603
39253W        W11678  44.869   8.109   0.526
39254W        W11679   4.183  11.707  12.965
39255W        W11680  24.712  42.989  11.499
39256W        W11681  32.527  21.782  10.664
39257W        W11682   8.799  38.946  14.063
39258W        W11683  40.572   0.186  11.561
39259W        W11684  26.725  24.319  11.613
39260W        W11685   3.994  33.457   3.237
39261W        W11686  10.142  40.853  12.836
39262W        W11687  14.698  14.172   1.130
39263W        W11688  20.144   9.667  12.673
39264W        W11689  44.941  18.060   4.154
39265W        W11690   0.929  26.138  11.313
39266W        W11691   1.390  36.942   4.618
39267W        W11692  40.297  36.929  11.108
39268W        W11693  14.172  43.913  13.527
39269W        W11694  41.969  16.698   1.884
39270W        W11695  12.345  44.643   0.071
39271W        W11696   8.168   5.427  10.494
39272W        W11697  35.524   6.532  10.910
39273W        W11698  28.073  30.086   4.738
39274W        W11699  44.440  12.973   5.039
39275W        W11700   7.663  27.444   4.545
39276W        W11701  26.863   3.643  14.591
39277W        W11702  16.236   6.974  13.897
39278W        W11703  10.426  41.042   1.335
39279W        W11704   1.735  22.787   4.717
39280W        W11705   5.295  12.175  12.766
39281W        W11706  38.806   0.601  11.938
39282W        W11707  32.279  11.216   2.275
39283W        W11708  41.060  36.567  13.343
39284W        W11709  17.556  10.773   0.419
39285W        W11710   4.822  18.746  11.581
39286W        W11711  42.294  31.096  13.220
39287W        W11712  37.586  36.046   4.358
39288W        W11713  42.305  25.498   2.738
39289W        W11714  13.769  17.331   0.536
39290W        W11715   8.777  14.096   3.739
39291W        W11716  39.073  44.092  11.342
39292W        W11717  26.243   1.841  14.777
39293W        W11718  30.460   7.600   2.823
39294W        W11719   5.931   2.417  14.940
39295W        W11720  37.051   1.407  10.619
39296W        W11721   8.701  26.163  11.283
39297W        W11722   8.683   9.538  13.047
39298W        W11723  41.823  27.635   4.389
39299W        W11724  20.573  18.667   4.032
39300W        W11725  17.756  40.871   0.485
39301W        W11726  14.162  11.434   3.699
39302W        W11727  41.492  30.355   4.505
39303W        W11728   6.698  32.952   4.331
39304W        W11729  37.384  30.623   4.119
39305W        W11730  40.016  12.124   2.379
39306W        W11731   8.780  19.733   0.769
39307W        W11732  27.722   5.843  12.085
39308W        W11733   8.347  14.372  11.990
39309W        W11734  31.888  41.814  12.582
39310W        W11735  29.469  14.746   1.195
39311W        W11736  39.111  41.041   2.041
39312W        W11737   8.993  44.278  13.464
39313W        W11738  25.611  42.223  14.938
39314W        W11739  39.511  43.497   2.090
39315W        W11740  23.944   2.490  13.370
39316W        W11741  42.941  37.877   4.594
39317W        W11742  25.594   2.410   2.340
39318W        W11743  12.211  12.409  10.754
39319W        W11744   9.892  16.054   1.873
39320W        W11745  33.541  17.589  13.968
39321W        W11746  27.879  21.055  11.706
39322W        W11747  39.444   6.682  11.523
39323W        W11748  13.650  10.738   4.095
39324W        W11749  27.612  26.415   2.370
39325W        W11750  18.341  14.522  11.229
39326W        W11751   3.982  18.936   3.983
39327W        W11752  27.645  36.131  14.114
39328W        W11753   4.281  26.491   0.357
39329W        W11754  26.662  31.398   4.610
39330W        W11755  34.948   4.981  12.600
39331W        W11756  38.667  18.830  11.046
39332W        W11757   8.685   8.841   3.199
39333W        W11758   6.187  10.805  14.806
39334W        W11759  40.363   7.655   0.810
39335W        W11760   8.158  33.397  13.146
39336W        W11761   0.827  15.529   2.391
39337W        W11762  31.098   7.344   1.573
39338W        W11763  17.623   9.430   0.934
39339W        W11764  29.177  13.090   4.148
39340W        W11765   9.018  17.203   0.997
39341W        W11766  13.703  37.986   0.000
39342W        W11767   4.856  15.565   1.935
39343W        W11768  35.424  24.169   5.420
39344W        W11769  15.620  25.529   1.304
39345W        W11770  34.347  34.400   0.440
39346W        W11771  11.927  38.800   4.495
39347W        W11772  12.587  26.081  12.986
39348W        W11773  27.212  26.928   3.459
39349W        W11774  14.253  11.608  11.459
39350W        W11775  14.208  24.702   2.836
39351W        W11776  40.039  32.330   0.263
39352W        W11777  26.993  31.525  14.299
39353W        W11778   9.362  26.495   1.362
39354W        W11779  21.171  37.819  12.390
39355W        W11780   9.621   5.398  11.529
39356W        W11781  20.749   7.147   2.790
39357W        W11782  44.924  12.637  13.498
39358W        W11783  30.316  18.082  14.420
39359W        W11784   0.943  41.781   3.191
39360W        W11785  16.673  15.832  12.458
39361W        W11786   4.485  10.636  12.501
39362W        W11787  32.464   6.799  12.203
39363W        W11788  38.757  11.056  10.378
39364W        W11789  41.492  22.130   0.525
39365W        W11790  23.647  22.978  13.990
39366W        W11791   5.807  30.650   4.386
39367W        W11792  39.063  31.553  14.935
39368W        W11793  10.198  44.244   0.518
39369W        W11794   1.011  14.747  10.521
39370W        W11795   6.631  22.193   1.738
39371W        W11796   9.254  25.994   3.647
39372W        W11797  36.662  35.153  13.417
39373W        W11798  20.010  26.173   3.554
39374W        W11799   1.770  28.992   1.275
39375W        W11800  19.584  38.587   3.522
39376W        W11801   0.057  20.558  12.049
39377W        W11802  27.046  41.757   3.663
39378W        W11803   5.398   5.824  11.047
39379W        W11804  38.286  37.495   4.608
39380W        W11805  30.551   2.363   4.793
39381W        W11806   8.427  21.229  13.910
39382W        W11807  25.518  32.164  13.988
39383W        W11808  27.305   1.433   1.258
39384W        W11809  28.307  26.210  10.315
39385W        W11810   2.762  40.372  13.636
39386W        W11811  24.234  42.848  11.456
39387W        W11812  37.745  28.613  11.507
39388W        W11813  12.747  29.419  11.049
39389W        W11814   8.756  38.889   4.036
39390W        W11815  39.302  37.450   3.210
39391W        W11816  18.452  17.630   4.903
39392W        W11817   2.934  25.978   0.241
39393W        W11818  41.429  33.428   0.356
39394W        W11819  37.507  18.154   1.625
39395W        W11820  44.374  31.598   0.769
39396W        W11821  36.491  25.891   2.261
39397W        W11822  27.742   4.582   3.122
39398W        W11823   7.604  12.434   1.746
39399W        W11824  42.971  25.414   0.823
39400W        W11825  34.288  14.072  13.860
39401W        W11826   0.518  24.670  11.154
39402W        W11827   6.909   2.759  10.680
39403W        W11828  37.293  40.521   0.490
39404W        W11829  20.154   6.770  11.014
39405W        W11830   3.425  13.279   2.293
39406W        W11831  29.072  14.525  11.958
39407W        W11832   9.944  20.812  10.599
39408W        W11833  38.780  13.592   2.862
39409W        W11834   1.765  29.908   0.866
39410W        W11835   0.677  33.645  14.869
39411W        W11836  13.263   5.152  10.981
39412W        W11837  12.162  19.543  11.165
39413W        W11838  44.118  12.651  13.043
39414W        W11839  21.760  33.092  13.451
39415W        W11840  18.119  44.857   4.016
39416W        W11841  23.629  31.257   1.792
39417W        W11842   4.465  19.238   0.744
39418W        W11843  38.567   5.789  14.409
39419W        W11844  33.465   2.136  12.371
39420W        W11845   5.466  25.543   0.354
39421W        W11846   9.126  13.892  11.966
39422W        W11847  13.552  26.337  13.420
39423W        W11848   0.381   9.959  13.405
39424W        W11849  42.416   0.400  13.476
39425W        W11850   1.353  23.204   1.284
39426W        W11851   4.000  36.421   1.835
39427W        W11852  35.340  18.989   2.165
39428W        W11853   0.704  31.083  13.379
39429W        W11854   8.789  28.929  14.787
39430W        W11855  42.790  27.624  14.005
39431W        W11856  38.741  30.239   1.674
39432W        W11857   1.889   3.040   0.312
39433W        W11858  22.009  38.939   2.292
39434W        W11859  23.979  40.313  13.507
39435W        W11860  43.483  38.512   3.635
39436W        W11861  11.816  44.207  11.030
39437W        W11862  19.478  36.990   1.445
39438W        W11863  29.332   3.250   0.001
39439W        W11864  39.486  15.260  13.852
39440W        W11865  21.751  10.522  13.951
39441W        W11866  23.242  28.115  14.775
39442W        W11867  36.157  24.006   3.309
39443W        W11868   8.212   2.561   1.930
39444W        W11869  10.684   9.279   9.793
39445W        W11870   7.951  20.080  10.696
39446W        W11871  38.750  14.657  11.057
39447W        W11872  32.487  31.232   0.258
39448W        W11873  12.282  23.321   5.222
39449W        W11874  43.767  35.658  11.636
39450W        W11875   6.376  30.333   3.206
39451W        W11876   0.161  13.336   4.206
39452W        W11877  36.335  22.470  13.773
39453W        W11878   2.227  18.119   3.300
39454W        W11879  16.809  24.850  11.844
39455W        W11880  23.980  32.124  14.832
39456W        W11881  36.884   8.803  13.438
39457W        W11882  31.411  10.251   0.772
39458W        W11883  28.196  16.014  12.521
39459W        W11884  36.042  41.812   3.735
39460W        W11885  20.738  11.525   4.180
39461W        W11886  10.704  10.179  13.961
39462W        W11887  35.579  34.455  13.566
39463W        W11888  26.873  18.059   3.662
39464W        W11889  44.376  20.048  13.422
39465W        W11890  31.489   0.313  12.032
39466W        W11891   1.646  28.269  13.476
39467W        W11892  34.842  29.656  10.432
39468W        W11893  17.686  26.469   4.287
39469W        W11894  42.520  25.985   2.806
39470W        W11895  10.408   0.534   2.422
39471W        W11896  32.003  36.547  14.098
39472W        W11897  15.222  27.044   0.723
39473W        W11898  20.558  42.252  12.065
39474W        W11899  31.327   7.639   1.973
39475W        W11900   6.643  14.606  14.503
39476W        W11901  25.742  23.423   1.830
39477W        W11902   2.250  10.278   2.847
39478W        W11903  39.918  16.042   2.349
39479W        W11904  44.218  17.605  12.984
39480W        W11905  33.219  42.852   4.097
39481W        W11906  33.870   6.726  12.641
39482W        W11907  10.833  20.760  14.899
39483W        W11908  42.768  31.688   4.478
39484W        W11909  43.081  38.406  14.928
39485W        W11910  26.073  43.818  12.810
39486W        W11911  26.166  13.653   1.554
39487W        W11912   6.163  15.964  13.915
39488W        W11913  16.732   6.752  14.264
39489W        W11914  40.299   2.269   2.101
39490W        W11915   6.172   2.239   3.610
39491W        W11916  31.743  14.105   3.715
39492W        W11917  38.028  15.587  11.510
39493W        W11918  36.980  28.908  12.767
39494W        W11919  16.733  31.622   3.344
39495W        W11920   6.377  23.025   1.599
39496W        W11921  44.893  34.973  13.417
39497W        W11922  10.676  30.917   0.410
39498W        W11923   4.776  29.678  12.622
39499W        W11924  12.637  42.412   0.394
39500W        W11925   6.367  42.772   0.796
39501W        W11926  37.062  12.803   1.515
39502W        W11927   6.278  23.011   4.148
39503W        W11928  37.597   4.975   5.099
39504W        W11929   9.884   0.831   4.820
39505W        W11930   7.901  37.142  12.537
39506W        W11931  42.568  42.457  14.946
39507W        W11932  28.278  10.951   1.779
39508W        W11933  39.188   9.902   2.693
39509W        W11934  28.443  16.884  11.924
39510W        W11935  40.638  19.653  13.405
39511W        W11936  30.558   3.742   3.692
39512W        W11937   4.699  40.781   0.823
39513W        W11938  35.808   6.270  12.932
39514W        W11939  19.153  19.281  10.456
39515W        W11940  27.493  18.022   3.090
39516W        W11941   3.810  16.100  14.241
39517W        W11942  31.035  12.929   3.720
39518W        W11943  22.588   6.800   4.139
39519W        W11944  15.687   6.137  10.613
39520W        W11945  39.817   2.287   3.193
39521W        W11946  39.872   9.672   0.797
39522W        W11947  23.043  17.969  11.536
39523W        W11948   9.311  41.882   3.773
39524W        W11949  39.585  24.773   0.511
39525W        W11950  29.818  17.712   4.220
39526W        W11951  37.508  14.065  14.857
39527W        W11952  26.732  13.250   4.490
39528W        W11953  13.792  32.397  12.452
39529W        W11954  37.892   2.521   1.836
39530W        W11955   5.985  32.441   3.285
39531W        W11956  43.453  29.900  13.463
39532W        W11957  31.537  43.653   4.213
39533W        W11958  22.492   3.970   4.706
39534W        W11959  36.318  27.639   0.852
39535W        W11960  35.639  21.614   4.147
39536W        W11961  36.796  22.785   5.469
39537W        W11962  23.241   3.142   1.493
39538W        W11963  20.723  28.205  12.936
39539W        W11964  37.569   1.456   4.169
39540W        W11965   1.302  32.007   3.346
39541W        W11966  27.697  26.595   1.831
39542W        W11967   3.032  17.545   3.348
39543W        W11968   2.418  28.067  13.052
39544W        W11969   1.412  30.728  10.606
39545W        W11970  34.893  11.855  11.035
39546W        W11971  15.686  25.247  10.982
39547W        W11972  33.539  10.613  10.628
39548W        W11973  34.020  12.421  12.621
39549W        W11974  32.163  23.705   1.316
39550W        W11975  36.573  43.431  14.986
39551W        W11976  39.541  26.024  12.435
39552W        W11977   7.576  16.466   0.310
39553W        W11978  21.603  13.725  12.553
39554W        W11979  22.945   7.885  13.028
39555W        W11980  31.545  31.929   4.631
39556W        W11981  13.652  15.579   3.271
39557W        W11982   0.982  28.450   3.768
39558W        W11983  43.409   5.636   4.404
39559W        W11984   9.921  35.262  12.495
39560W        W11985  22.495   1.803   1.394
39561W        W11986  20.428   4.192   1.945
39562W        W11987   0.988  24.534   0.701
39563W        W11988  17.243  21.738  13.049
39564W        W11989  24.269  30.443   3.175
39565W        W11990  33.434  33.076   0.730
39566W        W11991   8.792  34.897   2.699
39567W        W11992  32.444   0.897  10.661
39568W        W11993  15.051   8.892   3.638
39569W        W11994  17.327  30.225  12.561
39570W        W11995   3.114   0.576   3.105
39571W        W11996  37.897  25.171   5.132
39572W        W11997  27.989  32.342   2.071
39573W        W11998   0.128  12.063  12.051
39574W        W11999  11.729  13.406   2.687
39575W        W12000  35.548   0.249   3.641
39576W        W12001  15.148   9.779   1.213
39577W        W12002  44.223   2.257  13.899
39578W        W12003  30.602  12.670  11.242
39579W        W12004  13.786  38.354   4.962
39580W        W12005  35.904  23.031  14.327
39581W        W12006  21.012  20.950  13.809
39582W        W12007  28.023  38.093  13.617
39583W        W12008  37.482  17.278  11.904
39584W        W12009  14.015  25.693   0.546
39585W        W12010  32.522  37.711   4.740
39586W        W12011  35.130  31.534   3.256
39587W        W12012   8.953  22.200  14.101
39588W        W12013   5.311  18.146  13.314
39589W        W12014  33.922  38.767   0.080
39590W        W12015  25.566  28.202  12.065
39591W        W12016  19.150  34.836   4.873
39592W        W12017  32.947   7.771   4.641
39593W        W12018  39.410   6.810  12.456
39594W        W12019  20.068   3.216   1.242
39595W        W12020  25.704  30.703   2.678
39596W        W12021  41.861  18.297  14.089
39597W        W12022  30.496  18.241   3.381
39598W        W12023  13.141  12.420   4.077
39599W        W12024  11.598  12.509  10.360
39600W        W12025  30.612   3.905   4.927
39601W        W12026  33.564  36.589   0.004
39602W        W12027  26.185  19.166   4.891
39603W        W12028  41.631  11.019  11.356
39604W        W12029  42.278   3.352   0.732
39605W        W12030  17.562  36.213  12.342
39606W        W12031  29.731  39.845   2.865
39607W        W12032  25.121  41.299   0.180
39608W        W12033   4.214  20.334   3.825
39609W        W12034  31.467  31.734  12.988
39610W        W12035  22.009   5.264   2.356
39611W        W12036  11.785  13.655   0.703
39612W        W12037  33.146  28.203   1.277
39613W        W12038  18.582  44.668   1.823
39614W        W12039  40.839  27.652  11.021
39615W        W12040   8.625  31.187   1.891
39616W        W12041  11.323  42.953   2.720
39617W        W12042   3.748  11.587   0.283
39618W        W12043  34.403  23.732   3.256
39619W        W12044  12.427  40.321   0.503
39620W        W12045  37.419  10.155  14.688
39621W        W12046   0.112  27.096   0.941
39622W        W12047  44.122  32.886   2.145
39623W        W12048  33.047  40.908  12.873
39624W        W12049  15.789  20.541   3.050
39625W        W12050   3.962  14.679   3.708
39626W        W12051  41.285  10.412   0.094
39627W        W12052  44.829  21.243  12.685
39628W        W12053  35.422   2.284  12.622
39629W        W12054  16.774  33.958  12.961
39630W        W12055  27.979  27.339  14.716
39631W        W12056   8.961   2.898  10.840
39632W        W12057  36.340  19.217  11.099
39633W        W12058  41.184   8.311   1.755
39634W        W12059   0.943   3.460  11.166
39635W        W12060  33.880   3.231   4.488
39636W        W12061  17.339  20.609  13.517
39637W        W12062  31.763  18.400   4.999
39638W        W12063   8.652   7.220   0.518
39639W        W12064  30.482  25.134  12.295
39640W        W12065  13.493  44.916  12.117
39641W        W12066  14.751  41.814   1.916
39642W        W12067  10.270   3.629   4.053
39643W        W12068   4.141  18.948   0.423
39644W        W12069  19.835  17.762  13.918
39645W        W12070  44.472  22.396   4.677
39646W        W12071  30.817   6.914   2.910
39647W        W12072  10.423  40.466   1.790
39648W        W12073  17.089  36.707   4.217
39649W        W12074  25.363  31.702  13.132
39650W        W12075  28.745  43.916   2.838
39651W        W12076  19.167   8.181   0.981
39652W        W12077  40.502  12.718  13.109
39653W        W12078  17.112   7.723  14.220
39654W        W12079  26.236  23.581  11.666
39655W        W12080  31.839  11.673  11.996
39656W        W12081  30.828  43.998   2.835
39657W        W12082  17.431  14.879  12.035
39658W        W12083   5.127  14.777   2.114
39659W        W12084  35.453  21.803  12.047
39660W        W12085  28.204   6.686  13.244
39661W        W12086  41.171  36.587   2.170
39662W        W12087  32.992  12.184  12.109
39663W        W12088  43.982   7.184   0.831
39664W        W12089  22.640  22.504  13.953
39665W        W12090  10.131  30.160  13.710
39666W        W12091  12.597  27.991  14.297
39667W        W12092  36.510  32.940   3.165
39668W        W12093   8.678  22.704   1.900
39669W        W12094  30.298  41.876  12.448
39670W        W12095  12.866   3.016   4.822
39671W        W12096  41.497  23.919  11.102
39672W        W12097  10.128  18.028   1.698
39673W        W12098  12.124  10.101   2.376
39674W        W12099  43.920  31.201   3.729
39675W        W12100  36.501  36.970   0.203
39676W        W12101   5.327  13.092  14.374
39677W        W12102  18.421  33.070  11.593
39678W        W12103  10.279  35.033   2.772
39679W        W12104  25.374  21.087  12.402
39680W        W12105   7.421  44.254  12.560
39681W        W12106  27.670  13.396  13.592
39682W        W12107  33.925   1.944  12.958
39683W        W12108  37.443  11.856  10.573
39684W        W12109   2.430  40.006  10.645
39685W        W12110  40.490  44.903   0.261
39686W        W12111  34.133  18.081   2.228
39687W        W12112  39.436  35.316   2.326
39688W        W12113  37.404  11.650  12.354
39689W        W12114  39.695  17.648   2.600
39690W        W12115  11.817  32.580  12.050
39691W        W12116  39.627   1.830   2.016
39692W        W12117   6.246   6.931   4.330
39693W        W12118  32.124  38.527   1.306
39694W        W12119  20.582  28.041  11.370
39695W        W12120  32.516  17.574   0.573
39696W        W12121  38.857  43.113  11.634
39697W        W12122   6.640  19.681   3.168
39698W        W12123   1.899  22.977   2.875
39699W        W12124  14.823  21.652   2.321
39700W        W12125  25.535  34.521   1.507
39701W        W12126  36.305   6.659   4.075
39702W        W12127  10.700  39.486  14.010
39703W        W12128   1.849  39.261  10.693
39704W        W12129   2.362  31.493   4.517
39705W        W12130   1.235  15.654   0.725
39706W        W12131  11.795  26.866  14.335
39707W        W12132  15.963  32.147   4.475
39708W        W12133  42.796  33.586  11.572
39709W        W12134   4.295   1.273   0.508
39710W        W12135  11.241  32.941   2.216
39711W        W12136  27.531  18.554   2.347
39712W        W12137  27.228   8.719   2.630
39713W        W12138   7.252  25.587   2.384
39714W        W12139  17.637  13.222   3.408
39715W        W12140   8.450  11.782  13.027
39716W        W12141  24.778   9.279   4.582
39717W        W12142  30.165  22.545   1.808
39718W        W12143   5.541  35.188   1.403
39719W        W12144  30.803   9.222   3.980
39720W        W12145  25.660  30.157   3.907
39721W        W12146  36.414  24.460   3.354
39722W        W12147  16.730  30.171   2.860
39723W        W12148  37.398  30.879  12.798
39724W        W12149  44.869   7.412  13.575
39725W        W12150  20.592  20.929   0.956
39726W        W12151  17.296  37.359  13.704
39727W        W12152  42.345  30.025  13.026
39728W        W12153  37.462  43.250  11.697
39729W        W12154  37.351  20.500   0.014
39730W        W12155  39.757  29.155  12.967
39731W        W12156  25.510   9.426  11.492
39732W        W12157  31.945  41.044   2.666
39733W        W12158   6.808  23.265   2.712
39734W        W12159  36.469  32.878   2.638
39735W        W12160   4.439   5.406  13.374
39736W        W12161  43.411  38.219   1.837
39737W        W12162  42.240   9.161  14.282
39738W        W12163  25.470  20.044  12.766
39739W        W12164  27.644   2.924  10.963
39740W        W12165   6.050  44.089  12.218
39741W        W12166  41.334  42.325   3.855
39742W        W12167  10.751   3.356  12.988
39743W        W12168   9.888  37.612  11.896
39744W        W12169  44.277  17.211  14.270
39745W        W12170  19.030  10.390  12.950
39746W        W12171  32.530  19.068   0.695
39747W        W12172   6.273  14.246  13.420
39748W        W12173   6.275  35.940   0.029
39749W        W12174  21.036   7.693   4.536
39750W        W12175  16.397  10.885  11.491
39751W        W12176   0.584  38.263   3.254
39752W        W12177  27.672  26.097   0.782
39753W        W12178   7.512  18.806   0.704
39754W        W12179   3.697   7.777   1.828
39755W        W12180  35.204  25.950   3.185
39756W        W12181   1.803  42.136  11.166
39757W        W12182   1.973  31.938  11.322
39758W        W12183   4.197  37.522  11.179
39759W        W12184   3.485  15.525   2.133
39760W        W12185   4.956  39.839   3.100
39761W        W12186   2.624  12.613   0.741
39762W        W12187  26.124  21.062  14.091
39763W        W12188  39.894  14.040   3.198
39764W        W12189  30.238  17.891  12.626
39765W        W12190  22.697  17.067   0.638
39766W        W12191  35.720  17.925  10.849
39767W        W12192  32.468  11.144  11.836
39768W        W12193   0.147   7.627   3.288
39769W        W12194  33.474  20.658   4.305
39770W        W12195   1.558   8.958  11.998
39771W        W12196  11.791  37.019   0.651
39772W        W12197  25.576  20.038  13.269
39773W        W12198  41.817   6.775   2.765
39774W        W12199  29.428  34.579   0.369
39775W        W12200  14.382  41.976  11.946
39776W        W12201  19.767   8.707   4.533
39777W        W12202  14.847   9.020  11.811
39778W        W12203  25.748   5.766  13.365
39779W        W12204  14.264   5.197   0.270
39780W        W12205  39.130  34.930  14.990
39781W        W12206  27.469  27.483   1.364
39782W        W12207  27.762  26.447  13.119
39783W        W12208  36.078  42.499  10.757
39784W        W12209  43.112  42.455  13.861
39785W        W12210   9.820  31.999  14.899
39786W        W12211  24.380  24.233  10.915
39787W        W12212  29.601  26.102  13.912
39788W        W12213  33.567  21.673   3.631
39789W        W12214  23.677  23.950   2.311
39790W        W12215  10.684  10.237   2.195
39791W        W12216  21.953   2.223  11.699
39792W        W12217   4.612  34.970  14.893
39793W        W12218  39.807  18.799  11.575
39794W        W12219  23.731   6.893   1.257
39795W        W12220  38.980  11.210   0.743
39796W        W12221  18.816  11.672  12.860
39797W        W12222   4.672  19.689   2.714
39798W        W12223  42.718  20.092  12.863
39799W        W12224  36.369  35.611  13.435
39800W        W12225  36.595  28.098   0.886
39801W        W12226   9.240  37.318  12.574
39802W        W12227  13.726  23.389  12.544
39803W        W12228   3.210  44.792   0.961
39804W        W12229  39.566  43.339  13.510
39805W        W12230  22.551  37.885  11.901
39806W        W12231  14.768  32.788   0.700
39807W        W12232  15.549  40.000   1.337
39808W        W12233   6.269  17.361  14.454
39809W        W12234  25.939  28.684   1.991
39810W        W12235   4.817  18.146  13.222
39811W        W12236  28.552   2.336   3.693
39812W        W12237   1.313  12.242   3.510
39813W        W12238  22.123  19.105   4.896
39814W        W12239  29.131  12.312  14.752
39815W        W12240  20.196   8.293   0.836
39816W        W12241  11.204   5.703  12.301
39817W        W12242  31.505  43.408   3.721
39818W        W12243  33.082  27.980  12.053
39819W        W12244   7.825  20.942   1.334
39820W        W12245   0.685  27.332  11.105
39821W        W12246  27.991  11.403  11.059
39822W        W12247  21.519  21.581   0.715
39823W        W12248  35.003  20.589   0.120
39824W        W12249  12.541  11.745   2.786
39825W        W12250  43.114  33.095  10.739
39826W        W12251  23.000  18.680  13.410
39827W        W12252  10.098   2.398   3.331
39828W        W12253  23.263  40.526   0.471
39829W        W12254  21.258  35.122  12.742
39830W        W12255  29.897  14.650   4.328
39831W        W12256  19.713  34.909   1.654
39832W        W12257  18.210  14.641  10.745
39833W        W12258   8.780  40.656   0.217
39834W        W12259  11.389  38.560  13.577
39835W        W12260  10.464  42.798  13.750
39836W        W12261  24.704  15.668   9.968
39837W        W12262   6.290  24.597  13.701
39838W        W12263  29.737  32.409   5.045
39839W        W12264   4.822  22.498  11.011
39840W        W12265   5.154   9.654   0.318
39841W        W12266  25.250  17.196   0.688
39842W        W12267  37.046  14.208   2.823
39843W        W12268  40.563  21.195  11.953
39844W        W12269  28.149   5.441   3.479
39845W        W12270  19.207  44.959  14.958
39846W        W12271  24.729  43.491  13.517
39847W        W12272   3.761  27.024   2.868
39848W        W12273  25.656  30.821  10.918
39849W        W12274  20.804  41.998  11.083
39850W        W12275   6.184  24.272   0.033
39851W        W12276   9.418  27.041  14.950
39852W        W12277  13.686  33.839   2.691
39853W        W12278  18.746  24.192  14.491
39854W        W12279  33.531  35.855  10.495
39855W        W12280  14.889  24.509   5.076
39856W        W12281   8.496  37.285  13.078
39857W        W12282  30.111  19.021   3.565
39858W        W12283  11.736  44.929  10.428
39859W        W12284   5.840   0.792   2.281
39860W        W12285  32.962  16.695  13.783
39861W        W12286   6.007  15.077   4.741
39862W        W12287  14.117   6.388   4.013
39863W        W12288  19.207  26.104  12.294
39864W        W12289  31.947  40.778   1.157
39865W        W12290   3.665  37.853  13.028
39866W        W12291  18.678  25.180  10.802
39867W        W12292  33.956  19.870   1.504
39868W        W12293  41.558  36.528  11.057
39869W        W12294  30.738  34.947   4.152
39870W        W12295  14.167  38.824   0.474
39871W        W12296  24.874  22.254   2.418
39872W        W12297  15.478  10.929   1.865
39873W        W12298  24.217   1.286   1.186
39874W        W12299  29.045  25.599   3.663
39875W        W12300   8.742  41.213   3.271
39876W        W12301  40.361   9.399   1.611
39877W        W12302  42.963  18.851   4.768
39878W        W12303  42.812  39.369   1.698
39879W        W12304   2.698  41.289   4.254
39880W        W12305  38.002  25.406  13.801
39881W        W12306   0.378  32.458  11.739
39882W        W12307  27.371   4.231  14.727
39883W        W12308  17.705   2.213   0.287
39884W        W12309   5.900   5.928   1.234
39885W        W12310   9.600  41.758  13.882
39886W        W12311  19.554  25.619  12.317
39887W        W12312  20.152  14.986  11.161
39888W        W12313  25.574  43.412  12.300
39889W        W12314  15.033  25.980   1.821
39890W        W12315  21.412   9.158  11.567
39891W        W12316   8.918  15.735  14.107
39892W        W12317  27.245   7.598   4.370
39893W        W12318  22.814  26.224   3.334
39894W        W12319  34.580  16.330   3.102
39895W        W12320  19.081  28.076   1.036
39896W        W12321  34.979  32.896   2.763
39897W        W12322  18.993   2.746   4.757
39898W        W12323   9.094  22.144   2.181
39899W        W12324  34.213  18.200  14.671
39900W        W12325   5.385  19.865  11.224
39901W        W12326  21.607  24.417   4.801
39902W        W12327   4.910  25.762   1.541
39903W        W12328   9.874  39.638   3.318
39904W        W12329  34.018  30.034   2.133
39905W        W12330   4.180  32.068   3.882
39906W        W12331  13.772   9.326  13.947
39907W        W12332  44.072  15.053  12.028
39908W        W12333   4.899   3.789  11.024
39909W        W12334  34.062  21.163  12.534
39910W        W12335  38.779  25.456   4.969
39911W        W12336  33.082  38.462  10.642
39912W        W12337  11.251   2.666  11.119
39913W        W12338  44.548  37.417  14.372
39914W        W12339  20.743  15.083   0.545
39915W        W12340  31.131  29.538   2.837
39916W        W12341  42.562  25.675  11.226
39917W        W12342  21.093  27.838   5.104
39918W        W12343  23.678  40.605  14.534
39919W        W12344  44.809  17.347  14.280
39920W        W12345  43.737  12.301  12.944
39921W        W12346  32.754  41.952   0.853
39922W        W12347  26.587   5.564   1.374
39923W        W12348  12.108  10.228  11.623
39924W        W12349  13.285  24.439   1.905
39925W        W12350  37.816  18.876   0.666
39926W        W12351  27.615  36.945  11.411
39927W        W12352  30.039  29.949   4.289
39928W        W12353   5.435  20.035  10.733
39929W        W12354  35.832   8.453   2.250
39930W        W12355   4.698  14.244  14.792
39931W        W12356  28.386  26.605   3.358
39932W        W12357   1.214  29.400   2.288
39933W        W12358   9.587  30.329   4.714
39934W        W12359  31.273  29.091  14.503
39935W        W12360  17.154  18.998   3.737
39936W        W12361  17.425  13.774   1.746
39937W        W12362  24.853   3.450  12.253
39938W        W12363  27.117  16.614  14.741
39939W        W12364  13.710  33.600  12.923
39940W        W12365   1.832   5.542   3.803
39941W        W12366  18.494  33.103   5.029
39942W        W12367  13.879  14.225  11.665
39943W        W12368   8.594  24.805   3.870
39944W        W12369  44.814   3.281  13.514
39945W        W12370  11.706  35.618   1.755
39946W        W12371   8.504   3.244  13.790
39947W        W12372   0.097  41.511  11.689
39948W        W12373  14.597   4.633  12.483
39949W        W12374  24.940  10.718   2.450
39950W        W12375  22.037   4.334   4.031
39951W        W12376  34.456   5.314  10.709
39952W        W12377  36.302  34.597   4.343
39953W        W12378  16.745  17.315  10.718
39954W        W12379  17.590   7.261   2.695
39955W        W12380   5.347  20.227   3.682
39956W        W12381  13.652  14.789   4.674
39957W        W12382  12.291  16.336  14.434
39958W        W12383  28.049  28.621  12.663
39959W        W12384   4.453  43.026  13.947
39960W        W12385  33.525   8.815  12.712
39961W        W12386  17.868  38.084  11.428
39962W        W12387  27.090  26.429   4.101
39963W        W12388  13.282  39.792   0.440
39964W        W12389  10.185   4.846   4.720
39965W        W12390  28.886   5.288  10.703
39966W        W12391  20.629  38.720  10.542
39967W        W12392   3.392  37.970   4.563
39968W        W12393   8.625  12.648  12.529
39969W        W12394  14.592   0.863  13.862
39970W        W12395  10.709  25.951  11.071
39971W        W12396  36.611  21.147  14.759
39972W        W12397  10.338  17.175   1.657
39973W        W12398  33.631  30.927   4.183
39974W        W12399  24.937  23.871  14.472
39975W        W12400   8.730  44.297  10.630
39976W        W12401  41.957  23.810   1.547
39977W        W12402  20.816  34.375  12.524
39978W        W12403  13.399   1.533   2.552
39979W        W12404  33.609  26.009   3.597
39980W        W12405  24.544  39.914   4.371
39981W        W12406  37.585  17.057  14.789
39982W        W12407   6.943  36.796  12.505
39983W        W12408  30.598   5.941  14.968
39984W        W12409  43.151  43.435   3.145
39985W        W12410  27.330  43.636   1.419
39986W        W12411  22.797  19.551  13.472
39987W        W12412   1.202  41.879  11.164
39988W        W12413   1.047  43.843  12.433
39989W        W12414   2.628  36.790  13.467
39990W        W12415  43.676   8.279  12.834
39991W        W12416  34.412  12.926   1.771
39992W        W12417  12.263  19.306  10.713
39993W        W12418   0.644   4.601  13.823
39994W        W12419  22.515  12.625   0.972
39995W        W12420  11.597  32.117   4.705
39996W        W12421   8.564  21.805   4.097
39997W        W12422   6.180  15.779  14.470
39998W        W12423  19.041  32.018   3.797
39999W        W12424  20.075  12.277  12.407
40000W        W12425  21.295  43.994  12.470
40001W        W12426  43.020  26.671   2.727
40002W        W12427  39.355  40.782   3.836
40003W        W12428   5.611  43.758  13.889
40004W        W12429  41.589  26.134   0.655
40005W        W12430  44.862   7.259  11.697
40006W        W12431   2.258  37.612  14.273
40007W        W12432  12.716  12.657   2.823
40008W        W12433   6.649   7.829   1.822
40009W        W12434   9.603  10.420  14.778
40010W        W12435  39.322  36.073   4.609
40011W        W12436  44.967   8.248   1.793
40012W        W12437  39.721  12.030  12.099
40013W        W12438  12.289   1.674  14.346
40014W        W12439  24.261  25.488   1.423
40015W        W12440  36.408  30.392   1.156
40016W        W12441  44.334  10.598   2.898
40017W        W12442  33.253   0.487   1.958
40018W        W12443   1.544  16.126   4.144
40019W        W12444  13.358  22.068   1.301
40020W        W12445  36.937   5.907  12.191
40021W        W12446  42.909  39.200   4.227
40022W        W12447  18.651  33.541   1.766
40023W        W12448  41.465  17.838   0.813
40024W        W12449  37.114  25.140   4.418
40025W        W12450  28.607   1.977   0.846
40026W        W12451   9.393  12.919   3.781
40027W        W12452   6.263  27.499  10.600
40028W        W12453  30.134  22.300  14.932
40029W        W12454  15.857  22.989  11.548
40030W        W12455  33.846  41.618   2.887
40031W        W12456  27.928  42.820  10.179
40032W        W12457  42.905   1.451  11.555
40033W        W12458  27.665   2.388  14.298
40034W        W12459  41.669  14.165  11.994
40035W        W12460  10.600  20.350  14.008
40036W        W12461  17.720  44.861   4.332
40037W        W12462  20.757   0.214   0.818
40038W        W12463  15.386  23.673  13.812
40039W        W12464  20.552   8.172   1.673
40040W        W12465  35.509  35.941   3.232
40041W        W12466  18.569   0.976  12.873
40042W        W12467  31.105   5.893  10.383
40043W        W12468  30.111  40.815   2.859
40044W        W12469  14.143  10.581   1.260
40045W        W12470  27.941  21.749   2.660
40046W        W12471  36.490  39.575  14.862
40047W        W12472  33.412  27.085   0.355
40048W        W12473  23.225  34.426   4.142
40049W        W12474  17.151   8.459  11.221
40050W        W12475  28.745  12.553   0.025
40051W        W12476   2.237   8.980  11.570
40052W        W12477  26.228  37.963   5.006
40053W        W12478  13.675  11.648  12.204
40054W        W12479  39.583  38.879  10.177
40055W        W12480  26.048  19.543   2.161
40056W        W12481   3.436  42.247   3.693
40057W        W12482  33.820   2.283  14.879
40058W        W12483  28.180  29.064  13.591
40059W        W12484  17.105  25.907   0.465
40060W        W12485   6.684  23.986   4.458
40061W        W12486   4.778  15.344   3.276
40062W        W12487  13.260  37.345  10.312
40063W        W12488   8.691  20.007   5.012
40064W        W12489  22.976   9.254   2.671
40065W        W12490   4.839  32.592  14.572
40066W        W12491  34.454  16.762   3.740
40067W        W12492   0.265  23.942  12.963
40068W        W12493  31.867   5.769  14.768
40069W        W12494  13.729  27.144  11.955
40070W        W12495  29.169  25.769   0.424
40071W        W12496   6.062  20.472   4.149
40072W        W12497  28.854  13.783   4.515
40073W        W12498  16.513  23.504  10.650
40074W        W12499   2.008   6.747  11.640
40075W        W12500  37.612  10.708   1.280
40076W        W12501  33.669  22.148   1.970
40077W        W12502   4.724   1.461   3.515
40078W        W12503   3.990  23.946   4.208
40079W        W12504  36.959  44.561   1.891
40080W        W12505   5.114  29.464  10.781
40081W        W12506  38.802  25.325  12.082
40082W        W12507   9.764  31.152   4.064
40083W        W12508  23.086  23.911  12.163
40084W        W12509  24.479   6.836   0.442
40085W        W12510   7.312  15.309   2.762
40086W        W12511  15.224  11.278  11.697
40087W        W12512  23.768  38.344   1.377
40088W        W12513  33.869  30.061  11.706
40089W        W12514   0.329   9.156  12.363
40090W        W12515  42.810   9.641   1.350
40091W        W12516  39.482  36.538   3.228
40092W        W12517  21.606  22.156  12.491
40093W        W12518   6.726  19.362   2.217
40094W        W12519  12.367  15.250   2.664
40095W        W12520  32.735   1.669   1.819
40096W        W12521  26.221  16.667  14.435
40097W        W12522  28.579  13.732  10.891
40098W        W12523   5.396  25.483  13.293
40099W        W12524   8.627  34.619   0.372
40100W        W12525  44.730  24.044  12.946
40101W        W12526  39.956  39.517   4.278
40102W        W12527  42.898  28.409   0.498
40103W        W12528  28.487  16.299   3.674
40104W        W12529  35.851  15.493   4.511
40105W        W12530  39.912  19.359  14.569
40106W        W12531  40.572  43.563   0.309
40107W        W12532  38.280  31.733  12.418
40108W        W12533  31.631  15.067   3.603
40109W        W12534  31.337  15.287   0.671
40110W        W12535  10.345  38.953   2.810
40111W        W12536   9.122  25.993  10.692
40112W        W12537  31.754  21.031   2.374
40113W        W12538  23.729  42.962  14.473
40114W        W12539   9.864  31.034   1.023
40115W        W12540  42.905  17.900   4.591
40116W        W12541   3.215  29.530   5.056
40117W        W12542  41.965  10.072  10.244
40118W        W12543  14.067  30.992  13.777
40119W        W12544  26.154   3.202   0.591
40120W        W12545   1.242  15.189  14.361
40121W        W12546   1.913   0.741   0.913
40122W        W12547  15.148   9.107  14.144
40123W        W12548  23.024  12.412  10.703
40124W        W12549  20.876  24.569  14.412
40125W        W12550   6.485  12.252   4.158
40126W        W12551  38.073  40.093  14.587
40127W        W12552  27.010  20.209   0.845
40128W        W12553  43.919  36.053  12.516
40129W        W12554  39.962  25.569   3.248
40130W        W12555  28.404  40.078   4.166
40131W        W12556  34.476  26.168  10.978
40132W        W12557  43.598  31.148   2.887
40133W        W12558  38.834  10.609  12.001
40134W        W12559  27.522  37.336   0.473
40135W        W12560  10.233  16.841  10.853
40136W        W12561  17.973   3.227   3.858
40137W        W12562  12.393  37.468  14.913
40138W        W12563  18.304  37.465   4.106
40139W        W12564   8.699  39.415   3.384
40140W        W12565  29.157   0.307  14.495
40141W        W12566  35.904  38.990  13.983
40142W        W12567   2.947  10.495   0.206
40143W        W12568  37.374  25.023  10.530
40144W        W12569   5.817  28.492  13.889
40145W        W12570  21.986  43.841  13.172
40146W        W12571  26.193  12.106  13.977
40147W        W12572  30.645  26.219  12.146
40148W        W12573  42.399  11.086   1.309
40149W        W12574   8.716  30.864   2.273
40150W        W12575  30.554   7.363   4.096
40151W        W12576  25.096   9.272   0.035
40152W        W12577   7.908   9.171  13.473
40153W        W12578  37.660   7.809  14.974
40154W        W12579  34.367  25.043  14.674
40155W        W12580  16.066  39.389  13.049
40156W        W12581  19.151  31.125  13.353
40157W        W12582  42.867  16.966  14.760
40158W        W12583  25.816  25.239   0.894
40159W        W12584  16.479  14.775  13.032
40160W        W12585   1.669   5.248  11.762
40161W        W12586  41.584  28.107  13.016
40162W        W12587  25.100  34.264  14.694
40163W        W12588  23.535   9.598  10.173
40164W        W12589  34.768  30.083   0.025
40165W        W12590  43.531  39.437  14.959
40166W        W12591  40.257  19.990   4.222
40167W        W12592  29.077  19.336   0.327
40168W        W12593  26.881   1.828   4.245
40169W        W12594   0.154  28.510  13.066
40170W        W12595  14.061  26.177   1.295
40171W        W12596  23.682  30.792  14.701
40172W        W12597  20.643  35.629  12.897
40173W        W12598  32.148   4.618  14.027
40174W        W12599  20.508  36.817  14.811
40175W        W12600  36.807  10.714   2.756
40176W        W12601  28.402  21.119  11.628
40177W        W12602   2.528  26.917   3.682
40178W        W12603   5.468  20.310  14.361
40179W        W12604  35.016   7.219  13.449
40180W        W12605   4.689  44.759   4.169
40181W        W12606  25.974  11.455   1.219
40182W        W12607  29.751  11.811  10.726
40183W        W12608  22.698  20.144   1.317
40184W        W12609  44.721  40.022  12.671
40185W        W12610   2.653   2.995  11.942
40186W        W12611  31.918  32.067   3.207
40187W        W12612  32.513  25.210   3.284
40188W        W12613  22.491   8.057   1.953
40189W        W12614  19.144  15.671   2.338
40190W        W12615   5.719   3.760   4.687
40191W        W12616  12.204  42.236   1.259
40192W        W12617  40.813  17.146  13.494
40193W        W12618   3.917  11.778   4.509
40194W        W12619   5.867  17.296  14.790
40195W        W12620   2.861  20.258  10.749
40196W        W12621  40.694   3.309   3.170
40197W        W12622  26.981  29.984   2.914
40198W        W12623  26.442  19.599  11.549
40199W        W12624   7.749  28.718  10.893
40200W        W12625  37.627  13.148   0.784
40201W        W12626  34.859   5.160  13.503
40202W        W12627  24.593  32.543   4.200
40203W        W12628  12.865  19.609   5.020
40204W        W12629  23.179   8.362   3.638
40205W        W12630  44.245  21.017  14.606
40206W        W12631  10.558  21.930  12.516
40207W        W12632  25.566  35.100   2.887
40208W        W12633  21.035   6.686  14.963
40209W        W12634  33.002  40.332   0.825
40210W        W12635   1.847  15.702   0.682
40211W        W12636   1.410  37.636  11.157
40212W        W12637  42.787  25.885  10.821
40213W        W12638  13.329  30.209   2.644
40214W        W12639  35.105  34.924  10.805
40215W        W12640  33.752   6.177   0.829
40216W        W12641  26.801  14.181  11.206
40217W        W12642  28.933  33.380  10.132
40218W        W12643  22.019   1.205  13.557
40219W        W12644  26.127  19.804  12.483
40220W        W12645  26.283  21.827   3.565
40221W        W12646  11.094  34.802   0.447
40222W        W12647  23.691  34.831   4.036
40223W        W12648  36.612  30.585   2.168
40224W        W12649  15.227  13.317  11.150
40225W        W12650  40.664  23.790  11.963
40226W        W12651  19.127  14.336  10.376
40227W        W12652  27.456   6.989   3.834
40228W        W12653  18.551  16.283   0.168
40229W        W12654  24.025  32.395  12.460
40230W        W12655   5.140  18.228   0.312
40231W        W12656  13.806   7.688   5.064
40232W        W12657  43.679   6.919   4.255
40233W        W12658  27.156  19.057  12.038
40234W        W12659  11.455  38.591   4.623
40235W        W12660   2.780  33.695   4.225
40236W        W12661  19.022   8.427   1.440
40237W        W12662  38.294   9.226  14.383
40238W        W12663  37.087  33.902  11.420
40239W        W12664   9.357  26.631   3.915
40240W        W12665   8.613  12.188  11.991
40241W        W12666  25.081  17.278  14.822
40242W        W12667  39.953  27.478  14.384
40243W        W12668  19.729  18.623   2.301
40244W        W12669  31.572  29.396  14.798
40245W        W12670  44.302  37.031  10.546
40246W        W12671  13.949  37.801  11.925
40247W        W12672  12.419  12.761  14.784
40248W        W12673  26.631  37.786  10.697
40249W        W12674   9.884  18.300   2.916
40250W        W12675  28.676  26.665   4.671
40251W        W12676  19.317  28.888  12.099
40252W        W12677  43.769  41.233   1.335
40253W        W12678  30.141  14.808  13.357
40254W        W12679   1.972  32.662  12.521
40255W        W12680  33.533   9.129   0.715
40256W        W12681   5.954  17.604  11.338
40257W        W12682  36.520  23.676  10.308
40258W        W12683  22.533  32.956  12.425
40259W        W12684  38.454  31.047  14.318
40260W        W12685  14.536  22.215  12.291
40261W        W12686  14.801  44.340   3.156
40262W        W12687  41.415  23.155   1.458
40263W        W12688  15.011  30.681   3.728
40264W        W12689  20.150  42.569  11.996
40265W        W12690  15.120  26.291   4.700
40266W        W12691  17.258  37.459  11.400
40267W        W12692  42.551  36.307  11.869
40268W        W12693   8.164   2.845   1.430
40269W        W12694  12.731  42.560  12.564
40270W        W12695  29.465  32.661   4.673
40271W        W12696  26.607  30.537   1.601
40272W        W12697  11.698  28.002   1.855
40273W        W12698  34.458  15.613   3.804
40274W        W12699  30.118   8.968  13.086
40275W        W12700   0.192   1.812  13.193
40276W        W12701   0.930  23.767   0.227
40277W        W12702  29.375  20.640  14.245
40278W        W12703  32.609  11.539  14.309
40279W        W12704   8.938  28.543   4.078
40280W        W12705  18.180  21.139   1.544
40281W        W12706  36.492  33.454  14.271
40282W        W12707   5.263   8.120  13.423
40283W        W12708  21.099  17.394   3.342
40284W        W12709   3.919  35.339  10.646
40285W        W12710  43.813  42.296   1.247
40286W        W12711  17.082  21.659   1.685
40287W        W12712  31.474   9.808   3.355
40288W        W12713  29.497  32.987   1.894
40289W        W12714   9.332  29.848  12.812
40290W        W12715  44.768  25.966   2.907
40291W        W12716  18.350  29.568  14.218
40292W        W12717  44.274  26.022   0.642
40293W        W12718   8.101  11.398  12.978
40294W        W12719   5.970  28.433   3.640
40295W        W12720  42.230  21.725  13.883
40296W        W12721  32.545  29.677  12.647
40297W        W12722  14.451  43.675  11.530
40298W        W12723  29.651  29.727  13.879
40299W        W12724  14.516  35.402   4.872
40300W        W12725   9.774  38.472   0.527
40301W        W12726  43.339  44.478   4.608
40302W        W12727   1.373   5.762   3.240
40303W        W12728  43.792  22.146   4.974
40304W        W12729  21.160  33.563  12.827
40305W        W12730  34.556  38.004  11.541
40306W        W12731  41.994  17.817  14.231
40307W        W12732  36.842  10.436   4.300
40308W        W12733   5.657  36.120   4.690
40309W        W12734  36.984  18.281   1.822
40310W        W12735  15.733  10.246   2.765
40311W        W12736  12.212  13.759   2.796
40312W        W12737  21.475  11.862  14.019
40313W        W12738  30.892  16.822  12.306
40314W        W12739  15.629   5.160  10.823
40315W        W12740  39.974  23.728   2.702
40316W        W12741  37.676  33.947  11.533
40317W        W12742  30.444  11.609   2.672
40318W        W12743   9.182  28.759  14.478
40319W        W12744   8.356  29.815   1.781
40320W        W12745  37.450   0.621   4.968
40321W        W12746  24.139  27.440   2.576
40322W        W12747  38.892   6.916  12.608
40323W        W12748  16.623  15.007   3.017
40324W        W12749  15.748  23.477   3.170
40325W        W12750  23.899  16.676   0.237
40326W        W12751  33.904  27.780  11.629
40327W        W12752  39.510  33.449  14.749
40328W        W12753  17.749  14.392   3.684
40329W        W12754  29.936  22.646  11.621
40330W        W12755  30.927   1.516  11.834
40331W        W12756  29.157   5.794  13.545
40332W        W12757  18.196  32.311   1.799
40333W        W12758  14.095   8.727  12.489
40334W        W12759  10.654  20.111   0.787
40335W        W12760  32.452   9.896   4.401
40336W        W12761  21.629  44.569  12.890
40337W        W12762  29.048  36.567  12.904
40338W        W12763  14.156  37.587  14.371
40339W        W12764  29.650  39.908  12.815
40340W        W12765  42.028  32.850   2.057
40341W        W12766  16.335  42.350   0.472
40342W        W12767  16.286   2.313  11.436
40343W        W12768  32.376   7.316  14.303
40344W        W12769  30.875   3.335  13.461
40345W        W12770   8.490  31.591   2.781
40346W        W12771  20.851  31.340  12.059
40347W        W12772  16.866  12.903   0.939
40348W        W12773  43.738   6.469  10.672
40349W        W12774   8.768  38.026   3.852
40350W        W12775   7.865   2.228   1.340
40351W        W12776  38.006   5.186  14.229
40352W        W12777  42.895  42.105  11.145
40353W        W12778  24.744   2.975  11.515
40354W        W12779  39.295  40.556   2.164
40355W        W12780  19.625  33.186  13.971
40356W        W12781   5.705  39.050   4.681
40357W        W12782  40.614  43.810  11.363
40358W        W12783  10.738   4.887   4.706
40359W        W12784  22.036  39.165   1.804
40360W        W12785  42.964  26.091   1.408
40361W        W12786  37.050  14.634  10.654
40362W        W12787  38.553   1.804  13.845
40363W        W12788   0.872  20.384   2.242
40364W        W12789  24.486   4.250  10.957
40365W        W12790  18.597   6.855  12.496
40366W        W12791  37.215  34.836  14.298
40367W        W12792  37.868  24.038  13.473
40368W        W12793   9.743   5.595   1.214
40369W        W12794  15.736  29.578   1.416
40370W        W12795  18.651  11.582   3.922
40371W        W12796   9.808  33.136   0.917
40372W        W12797   6.173  33.389  10.566
40373W        W12798  27.391   4.636  14.023
40374W        W12799  22.787   8.344   2.805
40375W        W12800  41.047   2.331   4.520
40376W        W12801  30.190  20.410   2.832
40377W        W12802   1.021  33.625  12.260
40378W        W12803  14.702  21.609  13.912
40379W        W12804  16.477   4.374  14.863
40380W        W12805   3.297  12.819   3.553
40381W        W12806  44.947   4.640   3.315
40382W        W12807   2.351  44.368   0.424
40383W        W12808  34.569   1.036   3.651
40384W        W12809  18.390  20.319  11.936
40385W        W12810   9.667  33.076   3.465
40386W        W12811  28.502   5.413  10.336
40387W        W12812  18.342  33.990   4.623
40388W        W12813  42.809  38.003   1.254
40389W        W12814  26.114  39.743   3.868
40390W        W12815  24.002  42.450  12.181
40391W        W12816  33.999   9.672  14.528
40392W        W12817  30.129  30.946  12.869
40393W        W12818  43.299  27.113  11.520
40394W        W12819  39.382  40.778   1.687
40395W        W12820  11.208  18.576   1.239
40396W        W12821   8.985   4.138  14.762
40397W        W12822   2.831  29.646   0.907
40398W        W12823  14.491  34.388   0.836
40399W        W12824  39.103  14.792  11.942
40400W        W12825   1.025  19.063  11.550
40401W        W12826  42.634  43.259   3.116
40402W        W12827  34.568  27.552  10.550
40403W        W12828  41.011  18.528  13.326
40404W        W12829  10.300  32.616   3.233
40405W        W12830  25.185  26.454   2.213
40406W        W12831   1.769   0.426   2.667
40407W        W12832  25.122   0.643  13.521
40408W        W12833  15.192  44.737  12.913
40409W        W12834  26.928   7.702  12.954
40410W        W12835  25.006   0.226  12.187
40411W        W12836   5.291  43.216  10.780
40412W        W12837  26.076  34.415  12.854
40413W        W12838  36.823   3.434  14.293
40414W        W12839  15.149  44.964   4.068
40415W        W12840  37.838  30.779  10.947
40416W        W12841  29.394  27.716  13.813
40417W        W12842  30.500  31.941  11.522
40418W        W12843  30.460  31.674   0.834
40419W        W12844  27.422  19.574   3.257
40420W        W12845  26.484  26.193  10.635
40421W        W12846  27.529  41.635   0.800
40422W        W12847  12.564  22.301   0.272
40423W        W12848  43.715  24.010  12.866
40424W        W12849  41.419   8.263   1.276
40425W        W12850  25.520  26.548   1.715
40426W        W12851  29.380  20.070   3.491
40427W        W12852   0.319  27.140   4.916
40428W        W12853  40.474  38.093  14.040
40429W        W12854  21.435  40.526   4.235
40430W        W12855  43.290  23.115   2.581
40431W        W12856   2.204  44.057  10.470
40432W        W12857  37.593  32.087  14.902
40433W        W12858  44.032  34.504   1.730
40434W        W12859  20.680  20.423   1.035
40435W        W12860  33.375  20.146  13.963
40436W        W12861  11.678  38.097   1.682
40437W        W12862  42.772  12.290   2.362
40438W        W12863   8.577  39.070   1.566
40439W        W12864  11.097   2.181   3.144
40440W        W12865  26.613   3.291   2.388
40441W        W12866  31.148  30.604   4.117
40442W        W12867  32.914  39.237  11.444
40443W        W12868   6.304   9.595   4.192
40444W        W12869  42.775  23.743   4.124
40445W        W12870  28.582  28.397   2.233
40446W        W12871  21.843  16.162   3.626
40447W        W12872  43.037   8.911  11.362
40448W        W12873  29.581  40.323  11.960
40449W        W12874  40.538  33.594   0.241
40450W        W12875  35.961  32.651   0.174
40451W        W12876  22.052  28.095   3.103
40452W        W12877   4.396  24.268   4.961
40453W        W12878   2.893  26.197  14.743
40454W        W12879   0.935  17.688  14.065
40455W        W12880  19.663   6.239  14.949
40456W        W12881  21.073  15.317   5.051
40457W        W12882   3.955  27.609   1.342
40458W        W12883  13.174   4.317  14.751
40459W        W12884  35.952   3.510   3.646
40460W        W12885  28.427  40.380   0.522
40461W        W12886   1.208   6.791  14.962
40462W        W12887  14.294  44.241   3.246
40463W        W12888  27.343  38.420  12.437
40464W        W12889   1.350   8.858  14.295
40465W        W12890   9.624  26.624  13.257
40466W        W12891  43.768  43.197  13.526
40467W        W12892  40.367  20.064   0.360
40468W        W12893   5.747  42.776   2.465
40469W        W12894  19.129  17.571  11.885
40470W        W12895  35.057  23.886  11.638
40471W        W12896  12.315  38.252  14.069
40472W        W12897  17.351  26.887   0.973
40473W        W12898  18.373  14.306  12.605
40474W        W12899  32.236  32.303  14.684
40475W        W12900   8.469  32.691   2.148
40476W        W12901  19.879  31.315   3.709
40477W        W12902   6.498  39.419   0.450
40478W        W12903   4.700  43.834   1.213
40479W        W12904  19.811  21.564   1.214
40480W        W12905  39.084  14.078  12.181
40481W        W12906  37.826   4.270  11.912
40482W        W12907  23.195  37.122   2.699
40483W        W12908  37.516   3.279  10.844
40484W        W12909   3.311   4.651  14.364
40485W        W12910   5.561  10.720  11.594
40486W        W12911  28.449  44.205  14.860
40487W        W12912   5.004  16.635   1.360
40488W        W12913  27.927  23.672  13.426
40489W        W12914  21.016   4.009   5.049
40490W        W12915  23.789  41.537  14.272
40491W        W12916  18.231  39.665   4.385
40492W        W12917  40.474   6.654  10.712
40493W        W12918   0.960   3.715  14.070
40494W        W12919  26.257   1.967  12.323
40495W        W12920  31.779  15.332  12.876
40496W        W12921  13.315   7.361  10.803
40497W        W12922  22.540  28.679  11.148
40498W        W12923   3.238  24.968   1.606
40499W        W12924  22.080   3.429   4.210
40500W        W12925  12.018  44.760   0.447
40501W        W12926   2.838  33.476   2.319
40502W        W12927   1.436  42.181  11.545
40503W        W12928   7.472   6.317   4.741
40504W        W12929  20.313  14.486  14.762
40505W        W12930   2.904  22.138  13.866
40506W        W12931  25.090  25.555  14.486
40507W        W12932  14.209  36.121   0.512
40508W        W12933   0.449  23.298   3.409
40509W        W12934  25.069  15.773   2.749
40510W        W12935  35.925   4.518   4.474
40511W        W12936  12.993   2.954   2.110
40512W        W12937  38.481   4.466   3.516
40513W        W12938  43.093   8.146   1.826
40514W        W12939   0.434  32.580  13.519
40515W        W12940   8.578  36.272  10.592
40516W        W12941  21.891  26.020  11.588
40517W        W12942  37.534  39.416  12.961
40518W        W12943  44.835   9.187  12.550
40519W        W12944  23.944  33.840   3.198
40520W        W12945  34.928   9.373   3.840
40521W        W12946  20.635   2.304   3.618
40522W        W12947  18.550   0.728  13.345
40523W        W12948   8.345  14.392   3.676
40524W        W12949  13.792  23.055   4.407
40525W        W12950   0.492   4.628  11.725
40526W        W12951  39.780  29.909   4.103
40527W        W12952  25.419  13.923  11.554
40528W        W12953  24.674   4.613  14.371
40529W        W12954  17.697  24.903   1.809
40530W        W12955   4.232  12.713  12.114
40531W        W12956  23.117  32.371   2.228
40532W        W12957  31.388  12.167  14.760
40533W        W12958  33.015  11.540   3.369
40534W        W12959  33.083  14.001  12.413
40535W        W12960  12.213  19.804  12.898
40536W        W12961  34.376   4.141  14.513
40537W        W12962   5.167   3.192  14.956
40538W        W12963   0.031  34.521  10.925
40539W        W12964  11.310   1.658  12.867
40540W        W12965   8.482  34.461   2.777
40541W        W12966  35.567  29.154  13.828
40542W        W12967  18.284  35.172   4.177
40543W        W12968  35.327  41.530  11.488
40544W        W12969  16.117  31.867  10.598
40545W        W12970   9.655  22.354  12.770
40546W        W12971   5.384  10.383  14.908
40547W        W12972   2.027   0.514   3.673
40548W        W12973  27.570  12.800   2.995
40549W        W12974   0.342  41.585  13.425
40550W        W12975   1.053   2.920  13.018
40551W        W12976  26.973   9.394   2.280
40552W        W12977  42.997  26.189   4.622
40553W        W12978  24.132  18.054   0.412
40554W        W12979  19.059  11.649   4.607
40555W        W12980  11.252  13.675   3.782
40556W        W12981   0.923  31.120  14.438
40557W        W12982  37.342  26.452  11.888
40558W        W12983  18.764   5.276  13.359
40559W        W12984  21.803  36.784   2.755
40560W        W12985  31.919  19.111   3.201
40561W        W12986  41.611   6.119  14.874
40562W        W12987  44.875  24.830   4.487
40563W        W12988  23.515   2.868   0.372
40564W        W12989  28.928  39.904   4.115
40565W        W12990   7.226  26.110  11.946
40566W        W12991   5.911  18.822   4.506
40567W        W12992   8.216   8.395   0.348
40568W        W12993  40.457  12.888  14.627
40569W        W12994  19.636  22.906   1.563
40570W        W12995  26.211  25.876  10.997
40571W        W12996  37.408  10.336  12.344
40572W        W12997  11.368  44.303  11.614
40573W        W12998  28.213  38.098  11.389
40574W        W12999   0.884   9.520  11.294
40575W        W13000  10.763  11.587  11.501
40576W        W13001  31.147  25.052   5.270
40577W        W13002  24.341  43.791   3.189
40578W        W13003  39.498  24.155  11.647
40579W        W13004  30.340   3.933  14.534
40580W        W13005   1.541  44.778   2.660
40581W        W13006  21.245  24.190  11.525
40582W        W13007  40.465  26.356  12.530
40583W        W13008  17.085   1.632  12.487
40584W        W13009  20.557  13.601   1.217
40585W        W13010  42.511  39.213  12.015
40586W        W13011  11.769  26.663   0.861
40587W        W13012  26.992   7.854   3.082
40588W        W13013   0.008  16.864  14.300
40589W        W13014  43.547   0.244   1.813
40590W        W13015  27.751  23.950  11.166
40591W        W13016  31.847  33.510   0.084
40592W        W13017  43.883  34.659   2.796
40593W        W13018   1.240  40.497   4.231
40594W        W13019  42.070  32.646   3.712
40595W        W13020  32.494  14.191  14.210
40596W        W13021  20.704   9.915  13.386
40597W        W13022  37.878  33.073  10.665
40598W        W13023  28.223  11.115   3.251
40599W        W13024  17.835  21.766   3.553
40600W        W13025   5.862  34.645   0.689
40601W        W13026  35.390  26.763  13.529
40602W        W13027  37.364   9.331  14.004
40603W        W13028  29.479   9.967  10.370
40604W        W13029  27.868  16.316   1.215
40605W        W13030  34.875  11.160  10.685
40606W        W13031   1.431   1.638   3.476
40607W        W13032  21.525  15.842  13.015
40608W        W13033  40.090  44.770  13.556
40609W        W13034   1.892  43.427  14.503
40610W        W13035  23.447   5.838   2.709
40611W        W13036  20.172  35.824  13.064
40612W        W13037  36.352  44.121  14.416
40613W        W13038  12.252  37.166   0.845
40614W        W13039  10.762  21.764   0.970
40615W        W13040  33.030  28.717  10.346
40616W        W13041   0.100  30.579  13.834
40617W        W13042  42.763  30.168  12.317
40618W        W13043   0.933   1.532  12.572
40619W        W13044  33.930  16.201   3.352
40620W        W13045  21.102  27.438  11.229
40621W        W13046   7.558  22.692  12.080
40622W        W13047  39.748  17.623   1.138
40623W        W13048  40.728  32.895   3.280
40624W        W13049  15.344  44.965  12.481
40625W        W13050  19.820   6.572  13.504
40626W        W13051   9.163  37.943  13.348
40627W        W13052  21.008  25.041  14.157
40628W        W13053  10.432  43.518   4.650
40629W        W13054  36.122  40.842   0.912
40630W        W13055  44.333   1.320   4.174
40631W        W13056  32.123  41.379  14.449
40632W        W13057  29.394  26.548   4.171
40633W        W13058  21.808   2.320   2.120
40634W        W13059  28.079  20.024  11.158
40635W        W13060  14.579  15.162   1.566
40636W        W13061  18.966  44.976   2.748
40637W        W13062  38.690  33.409   0.873
40638W        W13063  19.976  11.827   0.405
40639W        W13064  12.023  12.172  11.485
40640W        W13065  43.270  43.328  14.847
40641W        W13066   9.677  42.441  14.979
40642W        W13067  39.356  31.057  13.657
40643W        W13068   5.215  43.310  12.613
40644W        W13069   3.469   2.930  12.384
40645W        W13070  27.094   1.717   2.842
40646W        W13071  20.282  35.869  14.407
40647W        W13072   1.044  36.867  11.527
40648W        W13073   9.888   8.299  12.423
40649W        W13074   9.696  28.054   1.175
40650W        W13075  39.605  38.623   1.208
40651W        W13076  25.602   1.727  10.701
40652W        W13077   2.241  33.900  13.000
40653W        W13078  33.648  43.662  11.104
40654W        W13079  24.704  16.689  14.614
40655W        W13080   6.432   4.336  11.668
40656W        W13081  26.687  39.177  13.760
40657W        W13082   1.850   0.705  14.466
40658W        W13083  27.934   3.790  13.033
40659W        W13084   8.621  19.639  13.156
40660W        W13085  41.818  34.705  12.600
40661W        W13086  36.863   6.570  11.655
40662W        W13087  27.632  37.778   1.408
40663W        W13088  19.732  39.803  14.421
40664W        W13089  41.424  12.138  12.598
40665W        W13090  20.107  22.541   1.255
40666W        W13091  12.475  28.655  10.450
40667W        W13092  25.742   6.003  12.889
40668W        W13093  23.255  25.399  10.586
40669W        W13094  41.772   4.615  14.900
40670W        W13095  16.783  37.877   4.898
40671W        W13096  36.938  15.310   2.758
40672W        W13097  13.186  11.816  14.458
40673W        W13098  17.763   6.368  11.113
40674W        W13099  28.065  42.452   3.354
40675W        W13100  13.199   5.309   2.306
40676W        W13101   9.318  18.743   4.140
40677W        W13102  22.176   9.260   0.987
40678W        W13103   8.437   7.793  11.475
40679W        W13104   4.785  37.377   1.808
40680W        W13105  38.787  15.340   3.453
40681W        W13106  20.491  40.556   0.501
40682W        W13107  39.825  39.841  14.465
40683W        W13108  33.116   6.642   0.945
40684W        W13109  20.741  10.135   4.142
40685W        W13110  44.811  13.024  13.807
40686W        W13111  25.283  18.141  13.845
40687W        W13112  22.079  34.966  10.517
40688W        W13113  32.653  33.550  14.364
40689W        W13114  42.482  43.141  11.359
40690W        W13115  13.758  16.627   1.292
40691W        W13116   4.152   7.276  12.446
40692W        W13117  44.148  17.704   1.323
40693W        W13118   1.863   1.305   2.193
40694W        W13119  36.075   1.871   3.216
40695W        W13120  34.999  38.883   1.434
40696W        W13121  28.046   2.282   2.727
40697W        W13122  32.360  43.918   2.891
40698W        W13123  14.598  41.274  11.004
40699W        W13124  43.639  29.907   3.153
40700W        W13125   7.005  13.851   1.758
40701W        W13126   0.997  41.963   0.274
40702W        W13127  38.126  25.919   1.798
40703W        W13128  29.006  11.866   0.899
40704W        W13129  43.376  16.194  14.667
40705W        W13130  13.151  27.267   1.150
40706W        W13131  13.912  29.464  13.150
40707W        W13132  33.166   2.446  12.679
40708W        W13133  14.386  19.146  12.954
40709W        W13134  21.983  16.062   4.107
40710W        W13135  15.340  44.905   0.281
40711W        W13136  29.046   5.430   3.210
40712W        W13137  42.365  40.821  11.020
40713W        W13138  40.262  12.122  14.897
40714W        W13139   1.725  28.138   2.663
40715W        W13140   1.765  32.260   3.633
40716W        W13141  37.537  13.404   4.074
40717W        W13142  35.120  19.153  14.685
40718W        W13143  10.892  15.317   3.363
40719W        W13144  42.344  10.397  10.403
40720W        W13145   2.749  31.049  11.982
40721W        W13146  28.234  33.414  14.420
40722W        W13147   4.899  20.723  13.218
40723W        W13148  31.248  20.965   2.266
40724W        W13149  31.164  36.363   1.645
40725W        W13150  37.311  11.740   4.500
40726W        W13151  44.781  39.293   3.358
40727W        W13152  20.551  42.224  10.676
40728W        W13153  39.790  37.501   3.350
40729W        W13154   1.911  16.431  12.880
40730W        W13155  23.500   5.281   4.355
40731W        W13156   1.677  24.229   1.583
40732W        W13157  43.049  26.583  12.039
40733W        W13158  30.064  31.539   1.142
40734W        W13159   4.966  32.045   1.802
40735W        W13160  33.396  28.632   1.416
40736W        W13161  39.788  42.404   2.830
40737W        W13162  31.961  38.792   0.509
40738W        W13163  43.579  29.808  12.696
40739W        W13164  23.978   9.956  11.666
40740W        W13165  20.328   0.414   3.864
40741W        W13166  12.209  39.770   0.514
40742W        W13167  32.439  29.888   2.908
40743W        W13168  11.313  26.073  14.261
40744W        W13169  17.850  10.769  13.516
40745W        W13170  18.039  44.912  10.140
40746W        W13171  44.903  38.855   3.646
40747W        W13172  35.935  24.002  14.903
40748W        W13173   2.532  29.611   1.338
40749W        W13174  19.756  43.107  11.081
40750W        W13175  12.196   1.949   4.419
40751W        W13176   2.978  41.572   3.934
40752W        W13177  41.821  18.574   1.701
40753W        W13178  19.708   2.816  13.552
40754W        W13179   0.302  30.328   1.216
40755W        W13180   9.397  27.681  12.422
40756W        W13181   7.694  18.734  10.675
40757W        W13182  23.844  35.031  11.109
40758W        W13183  23.736  30.670   3.148
40759W        W13184  31.767  23.250  11.405
40760W        W13185  17.879   0.752   1.313
40761W        W13186  16.051  44.453  11.643
40762W        W13187  37.676   5.392  11.639
40763W        W13188  44.332  23.839  11.999
40764W        W13189  13.378   7.395  11.670
40765W        W13190  29.685   4.811  11.619
40766W        W13191  24.588  38.120  12.907
40767W        W13192  30.186  21.602   2.201
40768W        W13193  27.529  35.374  11.268
40769W        W13194  21.426   4.337   5.077
40770W        W13195  38.577  23.158   3.332
40771W        W13196  26.744  35.100   3.826
40772W        W13197  14.324   5.393   1.748
40773W        W13198  18.312  26.205  11.688
40774W        W13199  11.234  26.469   1.795
40775W        W13200  36.482  18.097   1.904
40776W        W13201  23.547  41.223  11.095
40777W        W13202  35.234   8.411   4.231
40778W        W13203  17.769  38.770   4.527
40779W        W13204   0.155  18.112   4.624
40780W        W13205  29.374  25.438   2.171
40781W        W13206   5.818  26.808  14.706
40782W        W13207  16.567  33.455  12.407
40783W        W13208  10.131  43.230  11.541
40784W        W13209  35.089  39.464  12.899
40785W        W13210  22.178   8.337   2.791
40786W        W13211  40.305  20.832  11.593
40787W        W13212  39.985  29.488  12.408
40788W        W13213  32.977   0.786  12.320
40789W        W13214   0.906  11.461   1.979
40790W        W13215  26.263  18.171   2.855
40791W        W13216  29.271  41.306   2.884
40792W        W13217   1.240  28.483  14.781
40793W        W13218  36.113  36.093  13.201
40794W        W13219  15.562  29.573   2.240
40795W        W13220  29.715  22.714  10.273
40796W        W13221  36.132  27.029   2.225
40797W        W13222  38.375   2.808   4.482
40798W        W13223  38.573  10.719  11.579
40799W        W13224  27.923  18.209   2.298
40800W        W13225  30.551  13.247  13.565
40801W        W13226  31.353  34.410  14.071
40802W        W13227  20.985  33.483   2.147
40803W        W13228  31.557  30.953  13.465
40804W        W13229   3.758  39.353  12.875
40805W        W13230  43.950  27.452   2.380
40806W        W13231  18.314   7.319  12.481
40807W        W13232  30.092  40.619  10.213
40808W        W13233  12.383  22.075   2.870
40809W        W13234  35.405  11.441  14.832
40810W        W13235  24.019  30.143  12.073
40811W        W13236  24.950  24.013   3.273
40812W        W13237   8.521  21.779   3.089
40813W        W13238  44.701   7.729   3.057
40814W        W13239   3.762  22.730  12.948
40815W        W13240  35.359  30.251  10.677
40816W        W13241  27.139   6.910  12.126
40817W        W13242  39.128  15.106   0.913
40818W        W13243   7.234  10.397  14.378
40819W        W13244   3.391  27.755   0.601
40820W        W13245  17.128  29.374  13.884
40821W        W13246  37.606  26.034  12.105
40822W        W13247  28.527  24.777  11.597
40823W        W13248  26.468  32.525   0.884
40824W        W13249  44.023   6.291   1.285
40825W        W13250  30.775  13.416  11.150
40826W        W13251   4.803  39.708   3.993
40827W        W13252  37.333  27.007  14.062
40828W        W13253  13.703   0.881  11.911
40829W        W13254  11.302  22.611  14.716
40830W        W13255  22.325  16.341  12.077
40831W        W13256  42.823  20.968   5.578
40832W        W13257  33.481  44.037  10.533
40833W        W13258   5.390  28.938   3.114
40834W        W13259  21.107   5.389  14.237
40835W        W13260  35.323  10.115  11.988
40836W        W13261  10.860  12.392   2.723
40837W        W13262  31.296  35.284   0.725
40838W        W13263  33.658  28.739  11.899
40839W        W13264   8.740  31.887   2.360
40840W        W13265  42.938  30.846  11.632
40841W        W13266  21.312  30.103   3.605
40842W        W13267  28.578  42.294  12.841
40843W        W13268   2.017  25.172   1.329
40844W        W13269  20.758  17.312   4.177
40845W        W13270   8.101  14.710   0.013
40846W        W13271  19.055  38.416  12.075
40847W        W13272  10.642  43.342   4.058
40848W        W13273  11.614  44.667  12.480
40849W        W13274  21.201   9.432   5.515
40850W        W13275  42.618  35.373   3.770
40851W        W13276   5.417  41.175  14.827
40852W        W13277  42.993   5.998   1.395
40853W        W13278  14.209   5.142  12.389
40854W        W13279  22.985  39.034   2.710
40855W        W13280  29.615  20.532   3.473
40856W        W13281  35.499  36.775   0.908
40857W        W13282  40.736  40.445  13.967
40858W        W13283   3.908  43.233  11.039
40859W        W13284  32.415  18.180  10.516
40860W        W13285  38.417  30.921  14.814
40861W        W13286  11.874  27.664  11.835
40862W        W13287  19.536   8.186   0.272
40863W        W13288  34.411  13.074   4.168
40864W        W13289  25.636  40.474  11.789
40865W        W13290  12.932  37.015  10.617
40866W        W13291  15.507  40.888  11.978
40867W        W13292  10.653  24.448   4.939
40868W        W13293  39.805   3.211   4.384
40869W        W13294  39.062  15.519  14.726
40870W        W13295  18.174   0.368  13.942
40871W        W13296   1.447  17.109  10.480
40872W        W13297   8.380  37.607  13.458
40873W        W13298   0.756   6.993  13.563
40874W        W13299   4.484  28.400   1.816
40875W        W13300  15.804   8.311   0.600
40876W        W13301  43.845  36.712  11.360
40877W        W13302   8.220  44.599   1.201
40878W        W13303  33.764  36.819   1.865
40879W        W13304  18.761  44.288  10.157
40880W        W13305  38.038   1.354  12.799
40881W        W13306  22.001   6.841   2.749
40882W        W13307  22.474   6.549  13.956
40883W        W13308  43.426  20.408  12.438
40884W        W13309  41.889  17.556  13.308
40885W        W13310  43.800  34.934   1.922
40886W        W13311  15.468  31.335  12.436
40887W        W13312   4.290  35.491   2.831
40888W        W13313  24.168  31.883  10.519
40889W        W13314  17.103  20.818   0.687
40890W        W13315  38.460  23.046   0.230
40891W        W13316  32.898  28.763  14.164
40892W        W13317  31.718   4.970  13.950
40893W        W13318   8.192  23.941  12.446
40894W        W13319  20.389  18.440  12.471
40895W        W13320   0.189  11.040  12.264
40896W        W13321  36.607  11.744  10.760
40897W        W13322  40.985  30.553   1.320
40898W        W13323  32.088  36.387  11.700
40899W        W13324   1.272  35.084   0.803
40900W        W13325  25.987  21.112   0.921
40901W        W13326  10.373  21.505  14.894
40902W        W13327  36.790  35.470  12.636
40903W        W13328   7.434  32.399   4.128
40904W        W13329  25.907  33.944   0.219
40905W        W13330  30.677  24.690  12.553
40906W        W13331   0.662   2.077   9.926
40907W        W13332   9.506  42.848   0.368
40908W        W13333   5.030  11.653   2.862
40909W        W13334  36.958  14.610  13.580
40910W        W13335  23.186   3.637   0.579
40911W        W13336  23.776  12.849   0.312
40912W        W13337  21.495  11.432   0.509
40913W        W13338  30.676  43.937   2.334
40914W        W13339  30.222  39.121  12.471
40915W        W13340  11.151  32.090   1.716
40916W        W13341  15.921  26.592  11.043
40917W        W13342  10.562  12.794   3.068
40918W        W13343  13.582  39.398   0.766
40919W        W13344   9.143  20.119   3.158
40920W        W13345   3.734   2.336   2.441
40921W        W13346  14.700  41.377   0.219
40922W        W13347  21.616  27.992   4.912
40923W        W13348  24.864  10.395  10.604
40924W        W13349  12.199  33.401  13.800
40925W        W13350  18.722  29.103  14.375
40926W        W13351   3.196   8.788   2.723
40927W        W13352  35.952   6.936   2.357
40928W        W13353  21.959   9.222  11.733
40929W        W13354  22.953  34.849   0.514
40930W        W13355  14.576   1.870   4.192
40931W        W13356  35.065  20.299  13.239
40932W        W13357  27.066  30.143  12.620
40933W        W13358  34.568  41.542  13.564
40934W        W13359  35.497   5.748  11.583
40935W        W13360  17.747  40.945   1.035
40936W        W13361   5.863  15.119  11.121
40937W        W13362  18.305  21.627   3.421
40938W        W13363  43.913   1.398  14.319
40939W        W13364  35.342  38.658   3.178
40940W        W13365  44.209   5.370   1.214
40941W        W13366  16.086  42.806   2.348
40942W        W13367   0.871  23.090  14.550
40943W        W13368  31.956  44.222  14.333
40944W        W13369  16.839  20.048   2.311
40945W        W13370  22.053  22.343   1.529
40946W        W13371  35.361  15.451  10.993
40947W        W13372  43.231   9.335   4.368
40948W        W13373  36.619  11.634   2.362
40949W        W13374   9.694   6.424  14.861
40950W        W13375  39.280  43.039  12.294
40951W        W13376  19.287   4.465  14.697
40952W        W13377  25.648   0.483  13.521
40953W        W13378  12.767   8.923   3.205
40954W        W13379  18.270  21.709  12.037
40955W        W13380   4.200  43.488   3.857
40956W        W13381   7.339  16.404   0.834
40957W        W13382  12.323  27.401   0.711
40958W        W13383  44.927   1.544  14.319
40959W        W13384  13.763   5.717   2.831
40960W        W13385  10.749  30.169  12.480
40961W        W13386   7.706   6.306  13.709
40962W        W13387  23.238   8.734  10.639
40963W        W13388  37.356   9.676   0.432
40964W        W13389  41.001  42.265   1.430
40965W        W13390   8.635   5.681   9.696
40966W        W13391  12.108  44.791   2.889
40967W        W13392  34.574  44.449  14.748
40968W        W13393  26.705  39.861   2.120
40969W        W13394  28.729   4.866   3.408
40970W        W13395  16.245  39.464  14.387
40971W        W13396  25.345  19.496   0.387
40972W        W13397  12.375   9.944   2.800
40973W        W13398  31.077  16.685   5.496
40974W        W13399  10.338  14.216  13.315
40975W        W13400  22.775  43.504  10.734
40976W        W13401  27.501  35.970   4.133
40977W        W13402  33.576  42.813  10.088
40978W        W13403   3.471  34.503  11.151
40979W        W13404  30.718  41.881  14.535
40980W        W13405  41.901  35.337  14.536
40981W        W13406  33.032  41.558   3.877
40982W        W13407  23.232  23.535   4.070
40983W        W13408  34.985  12.916   3.243
40984W        W13409  44.205   7.863   4.969
40985W        W13410  10.693   6.735  12.635
40986W        W13411  34.198  11.267   4.091
40987W        W13412  19.096   2.017   1.828
40988W        W13413  34.054   8.215   0.743
40989W        W13414   4.022  30.482  12.487
40990W        W13415   2.837  18.896  13.452
40991W        W13416  38.465   3.082  14.433
40992W        W13417  15.832  23.476  13.433
40993W        W13418  21.179  24.214   0.770
40994W        W13419  34.132  18.622  11.530
40995W        W13420  15.190  35.022  10.845
40996W        W13421  19.919   9.387   1.436
40997W        W13422  16.126  44.623  13.976
40998W        W13423  27.597  20.143  10.919
40999W        W13424  17.369  29.980   1.745
41000W        W13425  19.775  37.702  13.199
41001W        W13426  15.366  30.056   2.190
41002W        W13427  12.513  15.767  12.447
41003W        W13428  13.823  26.632   1.218
41004W        W13429  28.561  14.306   2.223
41005W        W13430  43.028  36.716   4.589
41006W        W13431   0.149  12.017  11.139
41007W        W13432   0.244  20.448  13.295
41008W        W13433  28.432  14.732  10.662
41009W        W13434  42.953   6.304   4.881
41010W        W13435  22.572  43.875  14.093
41011W        W13436  34.436  10.960   1.740
41012W        W13437  18.583  39.006   3.497
41013W        W13438  20.080   9.129   2.901
41014W        W13439  22.577   9.938   2.330
41015W        W13440  37.405  12.184  13.079
41016W        W13441  28.613  16.823  13.911
41017W        W13442   0.427  27.445  12.381
41018W        W13443  34.100  41.835   1.639
41019W        W13444  32.477  24.083   2.273
41020W        W13445   1.029  14.730  14.464
41021W        W13446  35.721  36.138   2.807
41022W        W13447   1.964  11.773  12.424
41023W        W13448   8.372  32.883   3.323
41024W        W13449  20.222   5.974   3.881
41025W        W13450  25.432  33.399   0.501
41026W        W13451   6.176   9.743   0.560
41027W        W13452  43.133  15.538  11.763
41028W        W13453  25.204  44.309  12.660
41029W        W13454  40.052  14.839   2.798
41030W        W13455   2.506  37.514   0.521
41031W        W13456  14.040  18.426   4.997
41032W        W13457   4.096   5.461  11.923
41033W        W13458  41.759  31.431  11.983
41034W        W13459  35.723  10.344  10.690
41035W        W13460   7.401   6.608  11.517
41036W        W13461  37.422  25.165   3.166
41037W        W13462  28.705  20.722  11.496
41038W        W13463  35.127   5.635   0.952
41039W        W13464  34.498  11.776   0.312
41040W        W13465  39.898  24.472   0.240
41041W        W13466   7.751   0.182   4.173
41042W        W13467  13.800  17.605   3.635
41043W        W13468  31.542  15.676   0.962
41044W        W13469  42.856  42.693  13.468
41045W        W13470  21.217  10.322   3.201
41046W        W13471  12.232  33.420   1.404
41047W        W13472   9.123   0.827   4.132
41048W        W13473  14.816  43.350   0.365
41049W        W13474  26.373  25.928  11.973
41050W        W13475  23.181   0.685   2.451
41051W        W13476  30.427  41.729   0.575
41052W        W13477  22.818  33.666   5.045
41053W        W13478   7.768  36.426   3.709
41054W        W13479  38.478  27.232  10.648
41055W        W13480  36.313   1.965  12.847
41056W        W13481  19.532  20.465   2.177
41057W        W13482  20.812  23.096  12.147
41058W        W13483  24.252  14.181   3.305
41059W        W13484  35.800   2.987   2.432
41060W        W13485  38.275  26.265  11.508
41061W        W13486  27.233  24.230  14.460
41062W        W13487  23.775  20.112  14.071
41063W        W13488  12.839  33.868  12.168
41064W        W13489  39.377  36.553  14.688
41065W        W13490  22.501  43.353   0.296
41066W        W13491  30.134  12.128  14.941
41067W        W13492  29.699  21.584  13.495
41068W        W13493  14.633  12.176   2.915
41069W        W13494  30.661  28.671   3.110
41070W        W13495  28.536  36.678  12.914
41071W        W13496  28.930  16.201  14.727
41072W        W13497  25.470  28.708  12.036
41073W        W13498  33.716  26.090   0.476
41074W        W13499  14.700  38.836   1.242
41075W        W13500   1.743   9.627   4.530
41076W        W13501  17.103   7.115  13.447
41077W        W13502  26.220  32.945   2.181
41078W        W13503   6.331  17.815   0.367
41079W        W13504  23.446  13.057  12.943
41080W        W13505  31.280  26.643  14.300
41081W        W13506   8.329   7.038   2.768
41082W        W13507  43.888  20.154  10.413
41083W        W13508  36.765  42.444  13.986
41084W        W13509  27.751  13.759  14.700
41085W        W13510  39.833  31.855   0.402
41086W        W13511  37.509   9.679  13.058
41087W        W13512  41.455   7.433  11.124
41088W        W13513  12.544  18.813   4.398
41089W        W13514  30.455  16.429  13.969
41090W        W13515  11.273  29.362   3.364
41091W        W13516  34.012  27.648  12.644
41092W        W13517  38.520  27.226   4.433
41093W        W13518  34.856  27.395  11.511
41094W        W13519   3.820  20.219   2.779
41095W        W13520  14.595  43.919  10.733
41096W        W13521   1.709  41.350   3.132
41097W        W13522  34.265  24.745   4.337
41098W        W13523   2.060  17.153   4.207
41099W        W13524  12.838   4.150  12.343
41100W        W13525  29.621   9.134  11.583
41101W        W13526   5.922  43.222  13.001
41102W        W13527   5.281  20.387   1.226
41103W        W13528   6.044   9.007  12.882
41104W        W13529  26.069  31.519   2.441
41105W        W13530   4.213  33.650   3.664
41106W        W13531  25.058  42.415  13.306
41107W        W13532  26.197   9.165   2.926
41108W        W13533  21.470  39.455   3.337
41109W        W13534  32.128  21.975   0.829
41110W        W13535  17.229  20.734   3.459
41111W        W13536  42.911  17.775   0.870
41112W        W13537   3.700   0.261  14.485
41113W        W13538   5.951  34.655  12.003
41114W        W13539  20.767  24.594   2.283
41115W        W13540  38.611  37.805  13.128
41116W        W13541   5.414  11.672  13.047
41117W        W13542  27.218  19.255  13.868
41118W        W13543  25.557  37.016  14.352
41119W        W13544   3.664  11.261   3.774
41120W        W13545  16.580  33.709   3.273
41121W        W13546  37.034  29.533   3.386
41122W        W13547  39.006  25.635  13.652
41123W        W13548  25.038   5.633  12.390
41124W        W13549  13.557   3.142  13.921
41125W        W13550  12.660   7.916   4.612
41126W        W13551  33.812  32.722   2.381
41127W        W13552  14.195  18.541  10.734
41128W        W13553  32.453  29.660   2.209
41129W        W13554  38.969  29.395  10.798
41130W        W13555  15.174   6.329  12.655
41131W        W13556  31.865  29.891  10.429
41132W        W13557   1.775   2.692   2.718
41133W        W13558  26.523  27.530   1.319
41134W        W13559  31.550   3.589  11.056
41135W        W13560  32.932  20.218  14.277
41136W        W13561  23.875  30.928   0.364
41137W        W13562  12.868  12.541  13.032
41138W        W13563  25.632  15.363   2.333
41139W        W13564  35.367  15.657  12.563
41140W        W13565  20.097  43.414  14.410
41141W        W13566  24.678  30.127   3.891
41142W        W13567  15.123   7.285   3.413
41143W        W13568  26.695  18.039  14.871
41144W        W13569  39.857  30.213  13.138
41145W        W13570  27.255  16.860   3.843
41146W        W13571  44.138  12.443  14.347
41147W        W13572  23.243  12.226   3.077
41148W        W13573   1.020  34.086  10.769
41149W        W13574   5.345  20.183   1.690
41150W        W13575  43.318  30.651  13.796
41151W        W13576  34.618  19.079   0.811
41152W        W13577  41.385  16.653  14.955
41153W        W13578  25.934   6.268  12.467
41154W        W13579  40.840  33.680  13.309
41155W        W13580  25.648  15.763  11.271
41156W        W13581  41.798  28.050  11.929
41157W        W13582  12.826  42.005   3.523
41158W        W13583  23.994  13.976   1.774
41159W        W13584  12.636  18.866   3.408
41160W        W13585  40.500  26.088   4.566
41161W        W13586  36.451  18.039  14.989
41162W        W13587   3.793  34.917  11.852
41163W        W13588   2.509  27.479   0.773
41164W        W13589  11.268   5.719   0.255
41165W        W13590  35.079  36.825   3.385
41166W        W13591  13.467  43.853   4.669
41167W        W13592  21.114  29.779  14.421
41168W        W13593  18.759  29.032   4.628
41169W        W13594  31.638  18.227  14.964
41170W        W13595  43.067  14.769  14.008
41171W        W13596  41.985  35.623   4.299
41172W        W13597   8.209   2.302   0.934
41173W        W13598  37.350  11.713   1.266
41174W        W13599  21.085   6.743   2.917
41175W        W13600  17.799  22.587   1.857
41176W        W13601  37.731  34.570   0.915
41177W        W13602  35.616  40.333   1.470
41178W        W13603  19.653  35.276   0.263
41179W        W13604  39.146  21.857   1.745
41180W        W13605  14.076   1.901  10.517
41181W        W13606  13.839  42.401  11.463
41182W        W13607   4.929  36.354   3.448
41183W        W13608  17.028  42.309   3.346
41184W        W13609  10.700   2.377  13.309
41185W        W13610  25.078   3.781  10.407
41186W        W13611  29.122  34.409  14.435
41187W        W13612  22.389  34.190  11.853
41188W        W13613  32.843   4.243  11.031
41189W        W13614  12.808  26.589   1.186
41190W        W13615  19.032  16.942   2.664
41191W        W13616  37.393  15.165   1.425
41192W        W13617  39.600   8.828   0.297
41193W        W13618  37.057  10.840   4.077
41194W        W13619   5.989   7.259  13.797
41195W        W13620  20.116  33.481   0.525
41196W        W13621  19.085  17.737   0.497
41197W        W13622  43.836  42.776   1.450
41198W        W13623  10.188   6.767  11.594
41199W        W13624  32.648  39.976   2.485
41200W        W13625   1.728  33.851   2.313
41201W        W13626   3.222  27.770   0.097
41202W        W13627  33.935  27.991  13.414
41203W        W13628  22.736  42.366  11.466
41204W        W13629  25.372   6.235  11.112
41205W        W13630  15.719  18.528  11.482
41206W        W13631  20.498  15.323   3.812
41207W        W13632  32.625  38.009  13.614
41208W        W13633  37.122  11.046  14.261
41209W        W13634  38.414   0.564   3.932
41210W        W13635  11.383  37.562  12.987
41211W        W13636  41.308  42.126   5.096
41212W        W13637  29.469  13.148   2.947
41213W        W13638  25.671  26.038  13.958
41214W        W13639  38.597  41.360   1.884
41215W        W13640   2.428  39.217   0.899
41216W        W13641   9.644  44.005   1.790
41217W        W13642  39.913  37.569  13.127
41218W        W13643  44.781  33.594   2.688
41219W        W13644   3.807  25.607   2.142
41220W        W13645  42.330  13.866   0.842
41221W        W13646  25.346  14.161  10.400
41222W        W13647  39.574  30.677  11.489
41223W        W13648  18.252  29.719  12.474
41224W        W13649  39.833  13.570   0.909
41225W        W13650  35.239  16.508  13.908
41226W        W13651  16.554  34.190   0.542
41227W        W13652  30.683  15.726   1.908
41228W        W13653  12.315  26.919  14.951
41229W        W13654  38.654   4.431  14.435
41230W        W13655  38.034  37.946   4.638
41231W        W13656   5.107  18.101   2.322
41232W        W13657   4.921  17.268  14.655
41233W        W13658  36.403  41.824   0.077
41234W        W13659  10.345  24.488   1.391
41235W        W13660  24.888  33.167  14.258
41236W        W13661  44.055   2.585  13.518
41237W        W13662  27.651  13.895  12.004
41238W        W13663   0.532   8.188   2.423
41239W        W13664  28.407  41.461  11.214
41240W        W13665  26.127  30.595   1.842
41241W        W13666  23.936  25.206  11.685
41242W        W13667  35.241   7.168   1.674
41243W        W13668  41.407  30.465   3.014
41244W        W13669   4.197  43.404  13.381
41245W        W13670  23.564  33.318  12.936
41246W        W13671  27.929   9.419   3.704
41247W        W13672  43.748  20.976  10.912
41248W        W13673  43.832  42.886   0.956
41249W        W13674   4.382  31.706  10.700
41250W        W13675  28.865  38.873   0.770
41251W        W13676  17.641  34.526   3.407
41252W        W13677   8.137  37.328  11.541
41253W        W13678  17.359   8.852   2.344
41254W        W13679  37.319  16.782   1.882
41255W        W13680  23.273   6.035  12.880
41256W        W13681  10.408  16.228  12.026
41257W        W13682  31.701  43.785  14.469
41258W        W13683  34.708  26.057   3.141
41259W        W13684  35.101  34.409  10.963
41260W        W13685  17.562  18.324  10.449
41261W        W13686  28.647  31.898  10.253
41262W        W13687  22.017  10.241  12.870
41263W        W13688  37.457  34.019  12.383
41264W        W13689  39.367  36.521  11.109
41265W        W13690  15.816   4.369   2.221
41266W        W13691  15.550  38.520  13.041
41267W        W13692   6.806  31.835  13.645
41268W        W13693  44.991  40.873  13.959
41269W        W13694  44.734   9.766   2.387
41270W        W13695   7.921  39.816   0.598
41271W        W13696  35.871  40.239   0.655
41272W        W13697  36.109  38.518  10.658
41273W        W13698  26.089  17.755  11.676
41274W        W13699  41.157  27.905   4.613
41275W        W13700  31.893   0.219   1.236
41276W        W13701   3.183   5.272  13.853
41277W        W13702  16.667  32.218   3.133
41278W        W13703   2.677   9.375  10.669
41279W        W13704  33.983  38.955  10.035
41280W        W13705   1.444   3.622   3.639
41281W        W13706  12.666  19.143   0.822
41282W        W13707   9.554   5.250   0.794
41283W        W13708  17.018  35.591   1.302
41284W        W13709   5.548  16.307  12.344
41285W        W13710  25.231  14.671  12.068
41286W        W13711  11.205  14.889   3.340
41287W        W13712   5.428  14.247  10.633
41288W        W13713  10.875  14.330   4.251
41289W        W13714  31.926  23.629   2.686
41290W        W13715  12.898  26.763  13.347
41291W        W13716  14.023  44.694   0.857
41292W        W13717  43.028  16.139  11.949
41293W        W13718  15.519  24.656   4.530
41294W        W13719  39.925  28.652   3.270
41295W        W13720  24.645  42.291  11.883
41296W        W13721  23.475   0.466  10.493
41297W        W13722  44.693   5.289   2.251
41298W        W13723  32.428  27.877  13.943
41299W        W13724  26.106   6.417   2.352
41300W        W13725  29.891   1.491   0.301
41301W        W13726  37.515  37.548  13.102
41302W        W13727  42.718  14.768   0.780
41303W        W13728   5.440  19.257  12.006
41304W        W13729  25.533  20.593  10.541
41305W        W13730  30.350  17.328   1.308
41306W        W13731  28.241  10.722  10.699
41307W        W13732  28.811  17.909  13.420
41308W        W13733  29.579  19.079   3.686
41309W        W13734   3.792  27.094   2.313
41310W        W13735  20.800  44.523   5.119
41311W        W13736  17.842  34.849  12.087
41312W        W13737   0.747   8.187  12.509
41313W        W13738  26.160  30.694  11.125
41314W        W13739  14.547  33.254   2.397
41315W        W13740  39.372  35.482   2.819
41316W        W13741  36.974  19.295   0.791
41317W        W13742  11.482  18.278  12.419
41318W        W13743   2.268  31.593   1.240
41319W        W13744   2.116  19.855  11.885
41320W        W13745   1.130  38.012  12.893
41321W        W13746  26.196  27.064   0.702
41322W        W13747  17.663  14.613  13.497
41323W        W13748  10.092  34.181   4.627
41324W        W13749  26.608  30.576  10.293
41325W        W13750  12.540   1.292   0.442
41326W        W13751  21.099   7.299   2.385
41327W        W13752   4.897  24.609  12.560
41328W        W13753  19.010   6.899  14.851
41329W        W13754  20.292  23.895  11.643
41330W        W13755  35.131  40.775  11.585
41331W        W13756  41.447  13.763  11.091
41332W        W13757  39.298  17.069  14.080
41333W        W13758   4.241  40.971   3.711
41334W        W13759  38.427  15.652   3.226
41335W        W13760  12.242  34.430  13.786
41336W        W13761  35.985  41.781   1.311
41337W        W13762   2.637  24.403  13.523
41338W        W13763  18.791   1.773  14.184
41339W        W13764  29.683   6.446  13.869
41340W        W13765  18.733  31.675  10.279
41341W        W13766  34.375   5.844   3.453
41342W        W13767   6.797  33.502   3.700
41343W        W13768  29.695  38.107   4.036
41344W        W13769   7.381  30.490  14.974
41345W        W13770   5.939  18.313   3.702
41346W        W13771  29.035  20.155  12.828
41347W        W13772  22.313  27.363   1.531
41348W        W13773  15.589  31.635  12.030
41349W        W13774  20.198   2.955   3.276
41350W        W13775  14.139  29.518   4.145
41351W        W13776  26.443   7.776  10.602
41352W        W13777   6.373   8.254  14.427
41353W        W13778  13.822   1.235   2.271
41354W        W13779  16.360   4.970   3.374
41355W        W13780   1.946  34.097  10.336
41356W        W13781  36.000  37.698   4.057
41357W        W13782  14.098  20.506   2.646
41358W        W13783  32.027  28.238  13.875
41359W        W13784   6.807   7.662   1.320
41360W        W13785   1.918  35.275  11.826
41361W        W13786  14.462  18.963   1.805
41362W        W13787  33.176  26.397   0.928
41363W        W13788  36.566  24.590  11.323
41364W        W13789  10.495  27.938   0.883
41365W        W13790  43.960   6.699   3.294
41366W        W13791  16.105   2.289  14.872
41367W        W13792   7.777   4.950  11.743
41368W        W13793  20.373   7.286  10.060
41369W        W13794  12.399  40.311  12.481
41370W        W13795  25.784  30.159   1.804
41371W        W13796  21.808   5.390  11.586
41372W        W13797  19.206  14.158  13.330
41373W        W13798   1.861  37.456  14.549
41374W        W13799  17.228   5.317  12.900
41375W        W13800  22.051  14.068   4.594
41376W        W13801  19.144  21.064  13.037
41377W        W13802  39.152  39.958   1.322
41378W        W13803  24.195  19.852   2.289
41379W        W13804  17.866  32.654   4.856
41380W        W13805  10.826   7.802   3.337
41381W        W13806  34.086   5.882  12.592
41382W        W13807  28.110  39.106  11.581
41383W        W13808  13.630  28.418  11.662
41384W        W13809  44.044  14.865  14.495
41385W        W13810  38.544  42.577  13.389
41386W        W13811  20.728  29.979   3.841
41387W        W13812  42.012  22.587  10.248
41388W        W13813  41.427   9.113   2.863
41389W        W13814  12.853  28.621  13.018
41390W        W13815  38.971   6.633  11.153
41391W        W13816  14.546   8.665   1.345
41392W        W13817  44.396  19.081   1.809
41393W        W13818  14.901  26.726  13.371
41394W        W13819  42.848   1.786  12.886
41395W        W13820  14.940  39.844   2.721
41396W        W13821   9.331   4.042  13.748
41397W        W13822  18.251  13.984   1.465
41398W        W13823   5.802  35.536   2.410
41399W        W13824   0.864  13.314   1.464
41400W        W13825  30.535  30.661  12.973
41401W        W13826  16.919  12.944  12.131
41402W        W13827   1.740   4.429   3.242
41403W        W13828   2.803  13.729   2.877
41404W        W13829  35.312  18.190  10.666
41405W        W13830  43.882  37.792  14.869
41406W        W13831  23.574  24.828  11.240
41407W        W13832  13.354  13.815   3.683
41408W        W13833  16.101  31.448   0.318
41409W        W13834  43.426   7.879   1.244
41410W        W13835  19.757  39.401  13.861
41411W        W13836   0.411   1.044   3.314
41412W        W13837  16.238  26.771  14.665
41413W        W13838  11.654  40.426   1.581
41414W        W13839  23.028  12.096  13.818
41415W        W13840  36.433  11.532  14.946
41416W        W13841   2.236  14.284   0.012
41417W        W13842  27.159  25.481  10.689
41418W        W13843  10.426   4.788  14.002
41419W        W13844  14.858  21.665   0.484
41420W        W13845  19.204  44.235  13.012
41421W        W13846  27.498  38.526  11.011
41422W        W13847  44.887  41.831  13.359
41423W        W13848  40.084  24.423  14.361
41424W        W13849  20.558   8.867   3.565
41425W        W13850  10.728  40.374  13.815
41426W        W13851  19.178   5.397  11.128
41427W        W13852  32.464  39.877   2.945
41428W        W13853   3.716  25.612   5.154
41429W        W13854  17.274  16.031   2.752
41430W        W13855  37.489  23.711   0.475
41431W        W13856   2.017   7.748  12.110
41432W        W13857  28.956  17.723   3.598
41433W        W13858   6.405  33.081  10.904
41434W        W13859  44.288   6.330   2.182
41435W        W13860   3.462  37.784   1.858
41436W        W13861   3.348  11.979   0.348
41437W        W13862  15.224  19.789  11.537
41438W        W13863  35.357  12.002  13.119
41439W        W13864  44.704  29.346  12.147
41440W        W13865  43.810  36.207  11.510
41441W        W13866  18.058  32.899   1.253
41442W        W13867  25.188   5.622   2.480
41443W        W13868  38.253  42.980   3.181
41444W        W13869  16.366  38.938   4.519
41445W        W13870  21.826  22.279  12.006
41446W        W13871   5.966   9.193  14.847
41447W        W13872  22.260  11.471   5.569
41448W        W13873  17.613   8.906   0.894
41449W        W13874   8.934  21.619  13.507
41450W        W13875  39.017   9.175  13.001
41451W        W13876  34.375  32.113  11.107
41452W        W13877   2.411  27.697   4.137
41453W        W13878  10.976  41.447   1.173
41454W        W13879  10.847  26.716   0.915
41455W        W13880   7.982  44.883   0.722
41456W        W13881   9.444  44.831   1.841
41457W        W13882  33.975  44.924  11.979
41458W        W13883   7.279  16.249  11.188
41459W        W13884  15.477  22.182   3.799
41460W        W13885  29.900  39.111  12.866
41461W        W13886   0.439  40.487  13.141
41462W        W13887  31.047  35.955   2.289
41463W        W13888  40.466   1.743  13.167
41464W        W13889  38.698  38.421   0.832
41465W        W13890   2.249   9.228  12.923
41466W        W13891   4.968  36.409   4.160
41467W        W13892   9.151  27.974   2.445
41468W        W13893  14.135  34.410   1.829
41469W        W13894  31.022   9.666   4.168
41470W        W13895  19.691  38.624   1.669
41471W        W13896  20.778  30.898  11.800
41472W        W13897  36.056  35.821   1.532
41473W        W13898  42.872  34.972   2.345
41474W        W13899  36.125  11.356   3.090
41475W        W13900  24.885  17.763  10.668
41476W        W13901   0.462   5.703   2.287
41477W        W13902  21.650   5.477   2.688
41478W        W13903   5.200   0.612  11.237
41479W        W13904   9.696  28.924   0.897
41480W        W13905  24.206   8.639  10.580
41481W        W13906  28.967   0.827   4.358
41482W        W13907  19.138  30.105   5.229
41483W        W13908  33.338  22.438   2.767
41484W        W13909  32.226  17.093   4.260
41485W        W13910  30.325  24.488   1.906
41486W        W13911  42.397   7.407  12.547
41487W        W13912  11.251  11.305  12.000
41488W        W13913  36.457  43.734   3.590
41489W        W13914  22.794   0.557  11.055
41490W        W13915   4.425  16.698   0.683
41491W        W13916   4.453  33.589  11.901
41492W        W13917  28.980  16.664   0.461
41493W        W13918  34.840   4.488  12.767
41494W        W13919  31.390   8.927  13.039
41495W        W13920   3.228  34.474  11.621
41496W        W13921  36.918  36.412   1.439
41497W        W13922  29.298  41.790   3.420
41498W        W13923   6.983  34.439  14.129
41499W        W13924  41.570   1.804  12.557
41500W        W13925  39.210  14.180  14.546
41501W        W13926  18.051  43.931  14.036
41502W        W13927  16.025  22.316  10.316
41503W        W13928  19.831   9.293   0.858
41504W        W13929  24.121   3.888  10.860
41505W        W13930  39.940  34.545   3.155
41506W        W13931   3.423  21.052   2.864
41507W        W13932  43.733   8.191   2.892
41508W        W13933  36.505  23.040   1.226
41509W        W13934  11.365  30.494   1.835
41510W        W13935  30.590  31.890   0.362
41511W        W13936   4.855  10.095   4.965
41512W        W13937   5.432   8.747  11.177
41513W        W13938  15.157  38.978   1.951
41514W        W13939   9.238  40.446   3.632
41515W        W13940  33.393  16.190  11.281
41516W        W13941  20.760   5.195  13.833
41517W        W13942  33.331  25.373  12.064
41518W        W13943   3.768   9.285   2.235
41519W        W13944   6.171   4.693  14.913
41520W        W13945  31.907  43.833  13.994
41521W        W13946  16.784  25.544  12.486
41522W        W13947   8.638   2.477  14.355
41523W        W13948  14.179  11.606   1.247
41524W        W13949  13.031  43.118  13.425
41525W        W13950  36.361  23.619  14.325
41526W        W13951  25.702  24.025  13.252
41527W        W13952   4.991  42.123  13.284
41528W        W13953  12.366  34.127   3.616
41529W        W13954  35.778  32.890   0.619
41530W        W13955  12.945  43.836   4.674
41531W        W13956   8.707   6.768  11.121
41532W        W13957  34.627  32.351   3.321
41533W        W13958  26.656  17.750  10.301
41534W        W13959  34.181  14.210   0.571
41535W        W13960   2.851  27.001   2.132
41536W        W13961  17.140   9.675  14.242
41537W        W13962   9.085   7.762  12.336
41538W        W13963  32.586  44.963   3.678
41539W        W13964  26.719  17.154   1.750
41540W        W13965  28.504  12.818  10.570
41541W        W13966  40.221   7.558  10.708
41542W        W13967  43.816  32.658   3.944
41543W        W13968  44.480  31.744   5.091
41544W        W13969  21.707  36.609  12.089
41545W        W13970  15.680   3.895  13.402
41546W        W13971  27.445   3.784   4.673
41547W        W13972   6.176  39.408  12.559
41548W        W13973   1.000  11.284   1.182
41549W        W13974   8.344  19.027  10.877
41550W        W13975  33.180  23.035  13.169
41551W        W13976  26.980  39.001   0.528
41552W        W13977  15.509  42.357   2.775
41553W        W13978  25.474  17.080   4.110
41554W        W13979  32.981  25.969   4.735
41555W        W13980  13.575  10.431  11.011
41556W        W13981  39.491  18.505   4.066
41557W        W13982   6.241  27.512  11.955
41558W        W13983   0.164  31.689  11.967
41559W        W13984   0.070  24.738  12.834
41560W        W13985  17.079  43.015  13.789
41561W        W13986  10.346  16.300  10.690
41562W        W13987  31.740  42.454  11.439
41563W        W13988  17.004  22.225   0.167
41564W        W13989  39.690   1.235  14.927
41565W        W13990  10.850  25.746   1.262
41566W        W13991   3.818  35.909  12.967
41567W        W13992  33.925  39.899  11.033
41568W        W13993  33.544  42.186  10.923
41569W        W13994  21.580   8.362   0.366
41570W        W13995  38.808  11.190   2.831
41571W        W13996  18.033  22.578  14.113
41572W        W13997  10.143   6.016   1.835
41573W        W13998  24.949  40.860   3.969
41574W        W13999   3.226  28.577  12.836
41575W        W14000  13.451  37.933  14.209
41576W        W14001  21.393  32.155   2.121
41577W        W14002  14.605  38.990   2.676
41578W        W14003  34.040   5.672   2.678
41579W        W14004  16.604   7.860   0.073
41580W        W14005  35.418  42.049   1.980
41581W        W14006  13.891  44.463  10.537
41582W        W14007  10.698   8.061   0.984
41583W        W14008  34.939  15.656   1.705
41584W        W14009  17.413  19.405  11.272
41585W        W14010  25.189   9.129   4.273
41586W        W14011  39.319   0.437  11.988
41587W        W14012  27.352  38.139   3.149
41588W        W14013  39.990   1.279   4.562
41589W        W14014  19.287  12.039  11.091
41590W        W14015  42.261  25.483   4.600
41591W        W14016  30.239  12.672  12.070
41592W        W14017  34.356  26.731  12.573
41593W        W14018  11.276  39.401   0.303
41594W        W14019  27.698   7.396  12.573
41595W        W14020  34.733   4.787  14.955
41596W        W14021  23.662  19.800   2.318
41597W        W14022  33.333  21.254  10.684
41598W        W14023  19.596  30.382   5.111
41599W        W14024  24.667  42.968   4.253
41600W        W14025   7.842  30.880   2.458
41601W        W14026   4.762   1.317   0.284
41602W        W14027  39.054   6.434   4.067
41603W        W14028  33.558   4.547   3.331
41604W        W14029  40.973  25.493   3.304
41605W        W14030  32.778  16.347   1.971
41606W        W14031   5.591  39.748   1.185
41607W        W14032  24.659   3.538   1.827
41608W        W14033  39.517  10.193  14.508
41609W        W14034  22.546   4.384  14.843
41610W        W14035  33.145  37.682   2.825
41611W        W14036  16.549  17.145  12.684
41612W        W14037  37.751  30.951   4.557
41613W        W14038   6.150  17.571  13.301
41614W        W14039  25.137  43.889   4.077
41615W        W14040  13.457   6.357  12.070
41616W        W14041  20.092  19.200  12.960
41617W        W14042  17.385  34.561  12.661
41618W        W14043  32.849  27.509  13.904
41619W        W14044  13.451  33.875   1.196
41620W        W14045  43.073  38.831   3.786
41621W        W14046  14.103  34.659   0.568
41622W        W14047  13.360  22.733   2.292
41623W        W14048  30.831  17.691  11.867
41624W        W14049  34.904   4.755   0.455
41625W        W14050  36.403  27.834   2.125
41626W        W14051  31.867  23.562   4.570
41627W        W14052  42.586  28.961   0.836
41628W        W14053  19.072  22.031   2.227
41629W        W14054  30.424   8.509  12.395
41630W        W14055  16.116  43.672   3.810
41631W        W14056  42.343  26.593  10.951
41632W        W14057  17.218   9.204  12.503
41633W        W14058  19.394  29.749  13.017
41634W        W14059  34.529  41.063  13.788
41635W        W14060  25.580  17.679   1.940
41636W        W14061   7.162  42.970   0.375
41637W        W14062  32.579  13.124  14.310
41638W        W14063   4.680  12.862  11.841
41639W        W14064  43.495  35.859  10.888
41640W        W14065   5.369  34.535  14.894
41641W        W14066   0.974   6.743  11.306
41642W        W14067  14.528   2.812  12.352
41643W        W14068  18.695  42.211   0.381
41644W        W14069  44.802  33.567   3.861
41645W        W14070  32.600   1.959   2.333
41646W        W14071  16.879   2.308   1.707
41647W        W14072  14.644  36.789   2.275
41648W        W14073   4.727  18.069   3.345
41649W        W14074  28.720  44.380  14.465
41650W        W14075   4.449   2.037   3.156
41651W        W14076   4.763  31.066  14.002
41652W        W14077   1.184  40.952  12.334
41653W        W14078  34.460  31.861  10.674
41654W        W14079  13.716   0.409  14.351
41655W        W14080   1.358  43.255  11.635
41656W        W14081   8.369  10.842   0.926
41657W        W14082  21.691  25.027   0.218
41658W        W14083  19.183  28.560   0.886
41659W        W14084  37.459  40.767  12.592
41660W        W14085   5.307   8.593  12.535
41661W        W14086  29.999  43.374   0.373
41662W        W14087  41.076  42.059   0.761
41663W        W14088   5.517  18.134  13.812
41664W        W14089  25.952   2.891   1.905
41665W        W14090  20.773  14.674  10.539
41666W        W14091  39.537  13.197   0.733
41667W        W14092  29.374  42.063  12.487
41668W        W14093  30.320  43.422   2.221
41669W        W14094  36.529  29.463  11.965
41670W        W14095  36.381  18.070   5.074
41671W        W14096  16.662  13.220   2.723
41672W        W14097  31.347  22.607  13.803
41673W        W14098  41.041  42.605  12.564
41674W        W14099  26.013   9.736  12.012
41675W        W14100   0.009  12.685  14.731
41676W        W14101  10.875  43.879   2.831
41677W        W14102  34.399  34.686  12.353
41678W        W14103  36.053   2.675  14.784
41679W        W14104  24.034  10.380  13.911
41680W        W14105  38.776   5.300   4.496
41681W        W14106   5.003   0.456  13.837
41682W        W14107  32.934  32.617   2.322
41683W        W14108   5.809  32.657   1.819
41684W        W14109  13.134  38.264  11.090
41685W        W14110  13.905  39.777  14.568
41686W        W14111   6.802  17.201   2.339
41687W        W14112   1.781  31.293  11.910
41688W        W14113   8.399  10.424   1.391
41689W        W14114   3.900   3.522   2.832
41690W        W14115  36.220   0.895   5.016
41691W        W14116  44.014  34.059   2.424
41692W        W14117  28.011  41.764  11.237
41693W        W14118  15.858  20.643  14.502
41694W        W14119  14.331  43.163   0.227
41695W        W14120  38.541   0.841  11.473
41696W        W14121  43.585  28.105  13.934
41697W        W14122  40.860   4.727   4.641
41698W        W14123  24.012  18.326  13.488
41699W        W14124  19.967  12.802  14.488
41700W        W14125  26.228  25.586   3.495
41701W        W14126  26.819   5.717  10.498
41702W        W14127  12.638  44.921  10.891
41703W        W14128  31.842  41.798   2.391
41704W        W14129  39.639  25.023   0.055
41705W        W14130  20.089  11.789   1.913
41706W        W14131   9.259  30.442   1.732
41707W        W14132  26.945  10.256  10.565
41708W        W14133  31.834  24.104  12.174
41709W        W14134  43.770  31.064   4.727
41710W        W14135   6.094  37.934  12.872
41711W        W14136  26.188  15.163   3.732
41712W        W14137   0.592  38.714  11.149
41713W        W14138  41.956  24.893  11.331
41714W        W14139  24.785   5.876  10.705
41715W        W14140  12.346  34.023   0.743
41716W        W14141   2.469  10.653   4.067
41717W        W14142  25.051  17.226   4.378
41718W        W14143  25.554  17.562   0.902
41719W        W14144  25.232  15.108  14.104
41720W        W14145  31.673  17.317  10.204
41721W        W14146  35.657   1.822  12.567
41722W        W14147  27.086   4.237  13.860
41723W        W14148  37.764   8.332  12.933
41724W        W14149  31.520  19.051   0.327
41725W        W14150  24.745  16.100   4.200
41726W        W14151   0.807  34.486  11.554
41727W        W14152  14.887  20.805  12.946
41728W        W14153   8.268  30.076   4.076
41729W        W14154  35.269  42.663  13.851
41730W        W14155  28.061  26.467   4.338
41731W        W14156  26.220  42.257  12.079
41732W        W14157  33.147  19.525  11.074
41733W        W14158  12.304  29.139  10.598
41734W        W14159  43.988   6.826   4.662
41735W        W14160  43.056  36.033   3.221
41736W        W14161   7.517   3.422  11.568
41737W        W14162  23.702   1.805   0.450
41738W        W14163   6.622   6.407   4.747
41739W        W14164  15.353  13.602   0.250
41740W        W14165  22.853  26.736   1.727
41741W        W14166   5.252  28.042  11.110
41742W        W14167  17.895  44.430   0.825
41743W        W14168  29.548   6.957  11.031
41744W        W14169  16.319  29.988  13.965
41745W        W14170   5.422  22.491  13.995
41746W        W14171   3.325  15.293   1.673
41747W        W14172  37.575  38.926  12.414
41748W        W14173   9.307   7.122  10.754
41749W        W14174  33.492   4.964   1.694
41750W        W14175  22.515  13.801  11.568
41751W        W14176  17.796  37.299  11.376
41752W        W14177  27.053  15.191   2.395
41753W        W14178  43.526  24.145  10.711
41754W        W14179  42.455  20.337   0.799
41755W        W14180   1.790  34.530  10.645
41756W        W14181  25.543  19.454   2.347
41757W        W14182  18.645  37.900  10.865
41758W        W14183  19.466  31.302   4.037
41759W        W14184  13.236  27.555  14.820
41760W        W14185  31.956  26.152   3.135
41761W        W14186   1.045  18.834  12.069
41762W        W14187  40.873   3.854  12.347
41763W        W14188   4.866   0.273   3.089
41764W        W14189  35.946  35.475   4.295
41765W        W14190   7.615  24.137   0.758
41766W        W14191  35.339  35.040   4.799
41767W        W14192  11.882  28.157   3.664
41768W        W14193   9.381  14.219   0.758
41769W        W14194   4.475  27.085  14.005
41770W        W14195  29.640  26.443   3.704
41771W        W14196  13.561  32.721  10.768
41772W        W14197   0.842  35.411   0.919
41773W        W14198   0.390  12.715  12.378
41774W        W14199  21.925  11.377  13.334
41775W        W14200  21.039  25.486   1.405
41776W        W14201  31.419  38.900   2.782
41777W        W14202  15.792   1.955   5.046
41778W        W14203  32.621  11.830  12.078
41779W        W14204  19.505  27.365  11.905
41780W        W14205  29.081  42.817   4.613
41781W        W14206  20.327  25.779   0.907
41782W        W14207  10.580  32.847  10.451
41783W        W14208  13.151   6.745  10.445
41784W        W14209  31.070  10.855  11.604
41785W        W14210  26.231  38.472   1.555
41786W        W14211  25.598   7.439  13.825
41787W        W14212  25.706  11.650   4.007
41788W        W14213   1.957  26.044   3.861
41789W        W14214   6.180  34.874  14.038
41790W        W14215  43.516  33.181   0.967
41791W        W14216  28.477  10.655   3.094
41792W        W14217  23.542  43.789   1.502
41793W        W14218  44.687  40.588   4.332
41794W        W14219  24.712   4.895   3.668
41795W        W14220  22.073  38.515   1.832
41796W        W14221  38.761  37.854  14.991
41797W        W14222  44.259   4.943   3.612
41798W        W14223  14.614  11.229   4.663
41799W        W14224  40.013  26.185  12.031
41800W        W14225  28.528  12.343   0.468
41801W        W14226  22.067  20.033   1.594
41802W        W14227  29.602  19.255   3.207
41803W        W14228  33.714  32.438   0.300
41804W        W14229   6.656  17.573  13.405
41805W        W14230   2.271  10.685  14.845
41806W        W14231  27.880  35.473  13.022
41807W        W14232  25.920  41.518  13.075
41808W        W14233   7.808  22.571  14.033
41809W        W14234  22.722  13.172  13.798
41810W        W14235   3.810  44.541   2.761
41811W        W14236  11.792  32.211   3.224
41812W        W14237  27.284  43.757   0.915
41813W        W14238   7.081  36.882   1.910
41814W        W14239   3.791   6.254  11.012
41815W        W14240  16.162  41.362   2.865
41816W        W14241  18.047  20.243   4.583
41817W        W14242  41.454  32.349  10.894
41818W        W14243  10.138  26.703  14.524
41819W        W14244  18.389  10.350  14.471
41820W        W14245  18.318  34.920   4.695
41821W        W14246   7.707  14.514   2.663
41822W        W14247  18.263   0.521  14.438
41823W        W14248  21.473  21.174   1.754
41824W        W14249   3.498   6.759   3.153
41825W        W14250  44.276  42.361   2.796
41826W        W14251  17.369  14.086   0.659
41827W        W14252  39.645  13.869  14.556
41828W        W14253  42.845  36.328  14.243
41829W        W14254  12.362   8.875   0.392
41830W        W14255  28.600  31.663   1.961
41831W        W14256   0.770  39.786   4.574
41832W        W14257  44.639  38.241   2.298
41833W        W14258  21.627  22.914   2.861
41834W        W14259  31.470  31.566  14.514
41835W        W14260   6.581  14.124   1.995
41836W        W14261  38.576  10.692   3.591
41837W        W14262  10.355  15.095   2.515
41838W        W14263  41.377  43.378   9.904
41839W        W14264   7.739   2.333  10.913
41840W        W14265  28.015  16.395  14.742
41841W        W14266  21.785  13.239  13.802
41842W        W14267   5.140  11.430  11.943
41843W        W14268  42.568  32.483  13.260
41844W        W14269  28.697  29.486   0.322
41845W        W14270   9.284  36.882  13.537
41846W        W14271   2.806   5.825   0.031
41847W        W14272  44.746  23.242  13.929
41848W        W14273  25.745   4.874  14.882
41849W        W14274   1.543  26.486   4.557
41850W        W14275   8.306  17.564   2.268
41851W        W14276  43.491   1.383  11.629
41852W        W14277  40.693  33.146   0.952
41853W        W14278  39.956  20.250   3.284
41854W        W14279  17.607  12.695   3.384
41855W        W14280  15.503  39.336  13.125
41856W        W14281  20.526  39.339   1.489
41857W        W14282  38.873   5.296  10.754
41858W        W14283  15.296   8.174  13.303
41859W        W14284   9.863  35.855   4.238
41860W        W14285  27.653  11.348  10.637
41861W        W14286  37.117  11.664   3.098
41862W        W14287  34.946  12.839  13.563
41863W        W14288  44.795  16.828  12.877
41864W        W14289   7.907   1.987   3.664
41865W        W14290  26.596  29.945   2.441
41866W        W14291  28.459  14.278   2.839
41867W        W14292   7.499  11.928   2.608
41868W        W14293   2.483   7.836   1.322
41869W        W14294  28.431   8.938  11.593
41870W        W14295  34.140  16.755   1.640
41871W        W14296  21.531  34.382  12.305
41872W        W14297  37.279   7.620   4.573
41873W        W14298  33.857  16.606   1.231
41874W        W14299  19.365  24.931   0.880
41875W        W14300  21.829  31.983  13.111
41876W        W14301  42.720  40.883  13.271
41877W        W14302  29.693  29.268  11.828
41878W        W14303  24.774  28.635   1.384
41879W        W14304  19.405  13.190   2.360
41880W        W14305   8.964  21.644   0.822
41881W        W14306  43.044  42.237   4.243
41882W        W14307  12.841  26.250   0.120
41883W        W14308  39.946  15.788  14.245
41884W        W14309  35.959   3.203   0.818
41885W        W14310   8.625  31.389  13.534
41886W        W14311   2.316  41.487   1.781
41887W        W14312  18.831  39.313  13.125
41888W        W14313  18.802   8.154   4.531
41889W        W14314  37.838  23.810   2.275
41890W        W14315   0.892   3.986  13.343
41891W        W14316  21.986   1.679  10.419
41892W        W14317  27.722  14.481   1.758
41893W        W14318  13.334  20.692   3.292
41894W        W14319  29.007   7.383  14.612
41895W        W14320   8.889  34.127  13.042
41896W        W14321   4.353  38.039   2.745
41897W        W14322  32.403  10.422  14.816
41898W        W14323   2.733  37.427  12.574
41899W        W14324  29.081  35.020   4.733
41900W        W14325  12.352  33.610   3.430
41901W        W14326  20.264  34.278   3.292
41902W        W14327  19.097  44.196  13.987
41903W        W14328   3.687   4.603  13.379
41904W        W14329  20.337  24.224   3.703
41905W        W14330  19.716  22.338  11.437
41906W        W14331  32.772  28.332   3.705
41907W        W14332  21.552  11.830   3.906
41908W        W14333  24.346  40.847  11.153
41909W        W14334   0.694  29.064  12.029
41910W        W14335  19.546  19.103  13.043
41911W        W14336   7.140  13.848  14.452
41912W        W14337  42.266  21.086   2.933
41913W        W14338  13.632  20.611  14.945
41914W        W14339   1.092  32.458   1.524
41915W        W14340  30.997   8.941   1.800
41916W        W14341  23.579  44.439   2.166
41917W        W14342  27.136  12.849   0.932
41918W        W14343   6.753  26.227  12.091
41919W        W14344  24.906  44.046  11.266
41920W        W14345   5.977  38.497   0.414
41921W        W14346  33.517  20.595   2.712
41922W        W14347  14.164  40.562   4.518
41923W        W14348  17.221  42.196   2.897
41924W        W14349  15.824   9.313  12.878
41925W        W14350  10.913  15.726  14.437
41926W        W14351  19.565  16.086   4.156
41927W        W14352   8.124  24.746   4.043
41928W        W14353  19.051  29.883   1.252
41929W        W14354   5.196  15.377   1.583
41930W        W14355  15.091   4.400  12.883
41931W        W14356  24.762  15.744  13.537
41932W        W14357  28.321  24.473  12.408
41933W        W14358  30.604  28.534  12.437
41934W        W14359  39.546  12.730  13.600
41935W        W14360   1.151  11.766  11.934
41936W        W14361  36.335  19.203  13.350
41937W        W14362  22.605  11.807  14.496
41938W        W14363  42.938  10.356  14.485
41939W        W14364  27.934  44.936   2.163
41940W        W14365  41.439  39.345  12.911
41941W        W14366  17.834  24.279   0.253
41942W        W14367  42.357   9.381   4.410
41943W        W14368  42.706  20.259   1.249
41944W        W14369  34.600  38.223  14.900
41945W        W14370  22.329  30.493  10.718
41946W        W14371  32.552   1.183   4.068
41947W        W14372  22.738  36.031  14.387
41948W        W14373  34.640  18.741   5.035
41949W        W14374  14.742   9.886   4.144
41950W        W14375  25.933  27.696  12.718
41951W        W14376  21.520  33.417  12.505
41952W        W14377  38.864  16.600   1.859
41953W        W14378  17.708  38.160   0.734
41954W        W14379  33.047  11.643   2.185
41955W        W14380  26.110   5.496   2.254
41956W        W14381  35.028  37.980   4.706
41957W        W14382  40.866  44.455   4.082
41958W        W14383  31.003   3.338   5.373
41959W        W14384  13.726  24.586   9.658
41960W        W14385   7.477  44.774  12.457
41961W        W14386   0.036  17.872  12.146
41962W        W14387  18.505  18.577  12.511
41963W        W14388  26.703  36.851  11.048
41964W        W14389  39.342  17.812   2.219
41965W        W14390  28.916  25.766   1.361
41966W        W14391  40.255  19.566   0.309
41967W        W14392  37.422  32.376  13.474
41968W        W14393  18.087  33.929   2.393
41969W        W14394  16.974  22.472  11.206
41970W        W14395   5.431  26.419  12.082
41971W        W14396   8.326   5.721  10.106
41972W        W14397  29.633   4.703  10.716
41973W        W14398   7.929  30.673   0.805
41974W        W14399  44.542   6.355   1.392
41975W        W14400  25.944  15.291   4.225
41976W        W14401   2.165  14.144   1.038
41977W        W14402  10.304  20.427  11.179
41978W        W14403  43.765  18.848  10.816
41979W        W14404  24.148  44.225   0.001
41980W        W14405  39.023  28.241   2.569
41981W        W14406   2.498  38.030  11.189
41982W        W14407  33.311  17.635   2.352
41983W        W14408  35.801   1.385   3.204
41984W        W14409  17.315  40.829  12.497
41985W        W14410  27.327  17.662   4.916
41986W        W14411  33.166  19.180  12.023
41987W        W14412  15.994  36.979   1.351
41988W        W14413  34.667  24.036   2.804
41989W        W14414  40.883  15.266   2.919
41990W        W14415  43.585  13.672   2.176
41991W        W14416  17.178  44.266   3.700
41992W        W14417  27.971  42.238   4.925
41993W        W14418  14.705   9.580  12.495
41994W        W14419  12.869  41.879  12.015
41995W        W14420  31.813  27.035   4.902
41996W        W14421  23.637  18.627  12.914
41997W        W14422  42.915  29.420  10.769
41998W        W14423  15.562  26.039  13.402
41999W        W14424   5.963  39.428  12.042
42000W        W14425  36.957   3.440   4.108
42001W        W14426  17.193  25.707  10.919
42002W        W14427  43.470  19.142   2.341
42003W        W14428   4.786  34.981   4.654
42004W        W14429  23.728  15.707   3.416
42005W        W14430  32.588  12.115   4.208
42006W        W14431  25.742  21.719   1.787
42007W        W14432  33.261  28.110   2.196
42008W        W14433   6.511  32.039  14.764
42009W        W14434  26.944   7.245  14.886
42010W        W14435   8.731  24.020   4.520
42011W        W14436   2.397   2.292   1.690
42012W        W14437  14.703  13.170  11.253
42013W        W14438  15.143  27.459  14.378
42014W        W14439  38.079  42.069   2.859
42015W        W14440   9.150  27.932  10.174
42016W        W14441  15.330  20.805   3.153
42017W        W14442   4.411  25.631   1.651
42018W        W14443  29.684  10.108   2.865
42019W        W14444  30.190  26.475  11.622
42020W        W14445  42.798  38.806  12.086
42021W        W14446  31.202   4.916   3.095
42022W        W14447  17.213  27.154  10.539
42023W        W14448  22.541  44.444  10.749
42024W        W14449   3.737  40.318   1.875
42025W        W14450  22.282  31.982   1.274
42026W        W14451  15.707  40.437   4.097
42027W        W14452  10.178  23.083   3.281
42028W        W14453  14.302  19.242   3.164
42029W        W14454  18.133  15.070  12.054
42030W        W14455   9.124  30.623  14.948
42031W        W14456   4.493   8.455  13.075
42032W        W14457   6.858   1.031  12.779
42033W        W14458  33.709  41.235  11.065
42034W        W14459  39.467  44.954  12.125
42035W        W14460  37.961  18.882  14.235
42036W        W14461  40.968  35.003   1.490
42037W        W14462  27.583  31.506   1.811
42038W        W14463  44.724  40.928  14.389
42039W        W14464  29.562  42.262  13.405
42040W        W14465   6.739   0.202   1.942
42041W        W14466  34.507  21.264   3.276
42042W        W14467  10.668  26.233   1.189
42043W        W14468  15.358  38.132   4.398
42044W        W14469  36.110  15.097  14.429
42045W        W14470  18.685  38.527   4.986
42046W        W14471   4.627  22.669   0.709
42047W        W14472  42.785  35.332  14.782
42048W        W14473  35.847  36.585   1.739
42049W        W14474   1.696  20.053   1.157
42050W        W14475  18.096  17.078  12.491
42051W        W14476  43.312  24.568   1.290
42052W        W14477  44.004  29.184   0.912
42053W        W14478  14.709  16.742  14.986
42054W        W14479  28.500  42.364   4.055
42055W        W14480  39.342   6.994  11.932
42056W        W14481  23.088  19.680   4.749
42057W        W14482  15.207  39.775   4.676
42058W        W14483  10.216  34.526  11.489
42059W        W14484  11.183  15.318   4.157
42060W        W14485  22.209   2.728   0.257
42061W        W14486   1.180  10.880  12.683
42062W        W14487  15.118  43.860  10.727
42063W        W14488  26.757  23.577  10.763
42064W        W14489  15.413  21.988   5.945
42065W        W14490  40.980  33.789   2.305
42066W        W14491  29.155  35.501   4.552
42067W        W14492  21.559  27.658  11.035
42068W        W14493  28.369  14.194   1.244
42069W        W14494  13.692  32.455   1.442
42070W        W14495  23.667   1.968  11.601
42071W        W14496  10.142  28.476  10.612
42072W        W14497   3.051  33.001   0.560
42073W        W14498   5.216  27.705  13.916
42074W        W14499  10.140  37.727   0.795
42075W        W14500   6.892  14.027   3.276
42076W        W14501  41.962   0.993   0.490
42077W        W14502  30.319  26.997   2.573
42078W        W14503  22.483  40.744   4.772
42079W        W14504  34.630   1.811   3.488
42080W        W14505   2.366  25.186  11.147
42081W        W14506  39.967  20.359  14.014
42082W        W14507   8.440  13.827   2.791
42083W        W14508  43.808  25.725  13.449
42084W        W14509  13.677  38.167   1.491
42085W        W14510  12.830   0.194  11.849
42086W        W14511  20.237   4.582  10.278
42087W        W14512   5.309  23.774   0.912
42088W        W14513   7.155  28.978  12.445
42089W        W14514  19.652   9.892   4.171
42090W        W14515  13.270  23.997  14.280
42091W        W14516  32.680   0.869   2.752
42092W        W14517   3.841  15.578   0.475
42093W        W14518  42.474  18.564  12.031
42094W        W14519  34.632  18.142  12.065
42095W        W14520  40.768  21.017  11.531
42096W        W14521  10.055   3.912   2.138
42097W        W14522  30.714  27.000   2.925
42098W        W14523  37.485  23.103  14.274
42099W        W14524  44.265  28.828   4.769
42100W        W14525  20.252  23.214  14.346
42101W        W14526  44.484  16.246  10.330
42102W        W14527  11.518  14.209   5.098
42103W        W14528  29.656  36.053  12.188
42104W        W14529  25.255   2.931   4.399
42105W        W14530   0.310  16.030   3.423
42106W        W14531  13.554  19.569   2.178
42107W        W14532  23.539  18.180   3.096
42108W        W14533  33.671  22.710   1.897
42109W        W14534  20.753  38.029   4.415
42110W        W14535   7.157   5.730  13.520
42111W        W14536  28.521  24.460  13.808
42112W        W14537  20.170   6.111  14.328
42113W        W14538  22.111  17.531  14.872
42114W        W14539  36.159  42.551   0.782
42115W        W14540  10.379  29.361   2.745
42116W        W14541  36.360  24.069   2.439
42117W        W14542  15.845  37.094  14.768
42118W        W14543  38.412   3.885  13.911
42119W        W14544   5.777  31.528  13.059
42120W        W14545  15.237  19.045   1.485
42121W        W14546   5.016  40.621   0.445
42122W        W14547  20.583  40.450  13.518
42123W        W14548  22.137  10.126   2.557
42124W        W14549   3.720  24.728   1.572
42125W        W14550  36.498  37.213  11.139
42126W        W14551  44.793  24.294   0.220
42127W        W14552  29.744  40.514  10.666
42128W        W14553  23.683   5.324  12.486
42129W        W14554  29.143   5.802   1.010
42130W        W14555  27.558  14.597   0.723
42131W        W14556  12.308  19.833  10.727
42132W        W14557  30.589  41.676  12.040
42133W        W14558  40.386  32.566  14.383
42134W        W14559   8.804  32.909   0.836
42135W        W14560  39.226   9.229  14.387
42136W        W14561  44.637  42.267  11.553
42137W        W14562  26.589  36.118  10.584
42138W        W14563   5.818  26.963  11.740
42139W        W14564  11.247  28.119  13.495
42140W        W14565  29.593  32.043   0.258
42141W        W14566  18.436  12.799  12.173
42142W        W14567  30.419   5.567   3.322
42143W        W14568  26.770  29.923  14.272
42144W        W14569   3.109  37.329  10.422
42145W        W14570   5.989  26.500  12.642
42146W        W14571   4.162  30.998  12.481
42147W        W14572  19.095  15.360  11.228
42148W        W14573  20.765  28.267  10.960
42149W        W14574   2.507  28.856   0.716
42150W        W14575  31.577  28.149   0.451
42151W        W14576  28.046   6.211  14.852
42152W        W14577  25.027  29.548  12.046
42153W        W14578  12.685  30.532   4.636
42154W        W14579   7.705  31.909   1.406
42155W        W14580  28.448  38.547  10.536
42156W        W14581  30.188   6.316  14.005
42157W        W14582  29.445  29.635   4.137
42158W        W14583  19.215  24.162   4.585
42159W        W14584  14.199  21.195   1.763
42160W        W14585  43.894   3.167  13.377
42161W        W14586  41.531  31.358   0.193
42162W        W14587  18.070  25.464  11.198
42163W        W14588   3.809  12.222   3.686
42164W        W14589  29.665  35.671  14.325
42165W        W14590  41.514  26.296   2.722
42166W        W14591  25.373   5.834  11.568
42167W        W14592  28.429  10.280  13.143
42168W        W14593  40.574  38.807   1.203
42169W        W14594  32.088  20.739  10.755
42170W        W14595   1.283  13.818  12.770
42171W        W14596  39.346   8.878  12.311
42172W        W14597  27.653  31.915  13.514
42173W        W14598  31.147  42.409  13.417
42174W        W14599  11.421   4.758  12.521
42175W        W14600   0.738  36.496   3.624
42176W        W14601  24.034  41.686   4.182
42177W        W14602  17.518  37.847   2.139
42178W        W14603  12.170  15.775   0.415
42179W        W14604  18.496  24.654  14.069
42180W        W14605  26.599  32.573  12.284
42181W        W14606  30.478  11.840  11.208
42182W        W14607  12.364   1.010   4.782
42183W        W14608   6.105  36.442  11.948
42184W        W14609  42.594  27.560  12.586
42185W        W14610   4.363  30.905  11.556
42186W        W14611  41.446  39.978  11.541
42187W        W14612  10.672   5.891   2.828
42188W        W14613  15.756  11.599  14.338
42189W        W14614  33.904  14.887   4.058
42190W        W14615  20.986   8.199   4.393
42191W        W14616  16.131  13.123  12.521
42192W        W14617  38.349  26.594  13.386
42193W        W14618  14.999  35.759  12.423
42194W        W14619   9.080   7.189  10.285
42195W        W14620  36.432   1.387  13.915
42196W        W14621  22.970   8.323   4.598
42197W        W14622  17.235  38.476  14.492
42198W        W14623  40.063  26.908  13.490
42199W        W14624  21.631  25.802  12.493
42200W        W14625  39.762   8.590   5.056
42201W        W14626  16.132  18.634  14.383
42202W        W14627  27.711  41.453   1.921
42203W        W14628  42.928  43.534   3.590
42204W        W14629   8.519  42.026   4.197
42205W        W14630  33.538  14.209   1.323
42206W        W14631  44.834  31.517   1.770
42207W        W14632  24.216  23.408   2.765
42208W        W14633   3.734  11.608  13.914
42209W        W14634  31.018  25.832   3.408
42210W        W14635  31.606   0.536   0.760
42211W        W14636  27.210  41.495   1.173
42212W        W14637   5.533  33.437  12.897
42213W        W14638  41.444  12.592  10.512
42214W        W14639  30.772  33.864  12.094
42215W        W14640   2.825  30.109   2.416
42216W        W14641  23.960  33.076   1.723
42217W        W14642  31.738  42.018   0.793
42218W        W14643   4.381  34.269   5.043
42219W        W14644   7.411  41.807  11.238
42220W        W14645   0.547  22.418   1.176
42221W        W14646  10.658  14.103  11.106
42222W        W14647  19.268   2.355  13.076
42223W        W14648   4.411  10.251  14.933
42224W        W14649  29.097  26.450  14.052
42225W        W14650   0.762  15.195   4.483
42226W        W14651  28.718   9.325  12.420
42227W        W14652   0.387  23.591   4.564
42228W        W14653  36.968  29.926   0.655
42229W        W14654  23.163   2.136   1.453
42230W        W14655  21.184  43.500   3.673
42231W        W14656  36.624   8.344   3.982
42232W        W14657  17.322  34.848   3.156
42233W        W14658  25.057   4.166   3.835
42234W        W14659   0.352   1.736  10.435
42235W        W14660   4.957  17.791  14.854
42236W        W14661  38.056  39.894   2.221
42237W        W14662   7.795  10.836   4.553
42238W        W14663  17.165  15.572  10.689
42239W        W14664  19.490   6.875   4.325
42240W        W14665  32.613  12.323   1.772
42241W        W14666   4.505  41.869   2.302
42242W        W14667  11.676  13.689   4.907
42243W        W14668  17.365  28.982   2.899
42244W        W14669   3.421  41.274  14.744
42245W        W14670  28.474  34.523  13.493
42246W        W14671  17.135  44.698   0.981
42247W        W14672  12.773  29.959   1.538
42248W        W14673  37.111   0.007   0.739
42249W        W14674  38.436  26.746  14.269
42250W        W14675   7.479   7.337   5.004
42251W        W14676  40.419  20.325   4.587
42252W        W14677   8.568  40.407  10.698
42253W        W14678  11.351  38.664   3.629
42254W        W14679  13.671  42.385   4.974
42255W        W14680   8.431  42.728   3.737
42256W        W14681   2.774   0.286  12.081
42257W        W14682  15.700   2.893   1.659
42258W        W14683  28.193  36.501   0.715
42259W        W14684  34.379  31.139  14.548
42260W        W14685  33.175  29.961   2.131
42261W        W14686  19.147  32.004   3.280
42262W        W14687   9.418  25.513  11.081
42263W        W14688   0.244   1.513   3.980
42264W        W14689  11.754  12.794   1.781
42265W        W14690  38.131  21.783   1.856
42266W        W14691  32.150   8.446   3.790
42267W        W14692  38.201  20.206   4.163
42268W        W14693  22.286  29.621  13.981
42269W        W14694  43.872  37.758  13.485
42270W        W14695   0.407  34.643   2.351
42271W        W14696  38.051   2.698   2.414
42272W        W14697  28.604  15.661   0.842
42273W        W14698  35.791  31.036  11.131
42274W        W14699  20.060  40.284   4.348
42275W        W14700  14.132  12.321  12.434
42276W        W14701   3.660  19.138   0.475
42277W        W14702  32.539  29.890  14.405
42278W        W14703  11.096  43.047   4.115
42279W        W14704   5.220  13.887   4.582
42280W        W14705  32.327  37.602   2.768
42281W        W14706   1.255  12.599  11.539
42282W        W14707  12.113  13.221  14.279
42283W        W14708  19.217   9.241   3.292
42284W        W14709  42.525  28.018  14.797
42285W        W14710  27.956   6.900   3.772
42286W        W14711  22.714  37.492   4.541
42287W        W14712  42.806  25.992   2.382
42288W        W14713  44.891  28.095  13.826
42289W        W14714  41.223  23.135  11.705
42290W        W14715   1.249   4.200  12.039
42291W        W14716  29.100  31.031   3.294
42292W        W14717  36.966  20.487  11.317
42293W        W14718  44.171  42.078  14.028
42294W        W14719   4.765  40.026  12.494
42295W        W14720  22.579  17.486  11.054
42296W        W14721  10.635  13.090  14.015
42297W        W14722  27.585  13.630   1.171
42298W        W14723  34.079   0.381  13.915
42299W        W14724  42.748  11.168  11.089
42300W        W14725  16.806  15.820   2.219
42301W        W14726  40.485  23.553  12.845
42302W        W14727  19.822  40.844  12.183
42303W        W14728   5.721  30.112   1.732
42304W        W14729  34.479  27.618  12.426
42305W        W14730  13.884   6.982   2.824
42306W        W14731   8.137  15.345   2.643
42307W        W14732  35.083  15.507   0.766
42308W        W14733  26.798   0.260   2.682
42309W        W14734  34.044   0.798  11.564
42310W        W14735  39.845  12.574   3.386
42311W        W14736   3.227  33.904  14.300
42312W        W14737  13.689  19.439   0.021
42313W        W14738  41.936  41.563   3.785
42314W        W14739  42.304  24.389  14.473
42315W        W14740  41.675  25.611   3.705
42316W        W14741  44.063  25.778  12.158
42317W        W14742  44.424  25.620  11.390
42318W        W14743   2.884  30.533   4.644
42319W        W14744  32.847  34.962  14.950
42320W        W14745  38.820  40.033  14.635
42321W        W14746  34.773  28.556   3.875
42322W        W14747  11.632  25.661  12.939
42323W        W14748   9.205  35.605  10.225
42324W        W14749  19.809   1.519   1.967
42325W        W14750   3.207  15.386  11.630
42326W        W14751  30.745  13.709   2.287
42327W        W14752  44.873  42.736  12.862
42328W        W14753  19.967  15.473  11.226
42329W        W14754  21.436  26.970   3.935
42330W        W14755  25.064  24.827   2.371
42331W        W14756  16.397   4.156  13.787
42332W        W14757  16.520  16.248   2.125
42333W        W14758   5.284  26.033   1.280
42334W        W14759   9.079   7.455   2.292
42335W        W14760  25.378  35.825  12.869
42336W        W14761  16.081  10.078  13.034
42337W        W14762  37.202  29.442  11.578
42338W        W14763   9.299  22.209  10.758
42339W        W14764  16.524  16.125   0.263
42340W        W14765  24.332  19.928   3.639
42341W        W14766  13.815   9.180  12.513
42342W        W14767  13.086  36.829   1.317
42343W        W14768  21.510   2.421  13.425
42344W        W14769  26.139   6.884   1.201
42345W        W14770  27.094  40.075  11.191
42346W        W14771  36.203   0.278   1.292
42347W        W14772   3.830  26.903   3.908
42348W        W14773  15.650   2.772   1.143
42349W        W14774   7.687  18.059  13.715
42350W        W14775  29.462  23.484   1.044
42351W        W14776  20.934  44.046   0.371
42352W        W14777   8.335  42.320  11.050
42353W        W14778   7.854  22.617   2.384
42354W        W14779  14.830   6.656  10.972
42355W        W14780  15.131   5.669   3.872
42356W        W14781  35.281  39.796  11.673
42357W        W14782  32.452  41.483   1.693
42358W        W14783  21.772   2.984   0.025
42359W        W14784  15.966  12.634  12.517
42360W        W14785  37.519  11.386  12.861
42361W        W14786  32.865  31.200   3.818
42362W        W14787  39.551  44.448   0.727
42363W        W14788  37.828  36.574   0.929
42364W        W14789  14.290  37.067  12.581
42365W        W14790  31.177   4.826  11.711
42366W        W14791  36.728  23.293  10.608
42367W        W14792  35.472  17.270  10.562
42368W        W14793  39.569  32.467  11.601
42369W        W14794  19.508  42.356   2.304
42370W        W14795  12.564  10.635   0.862
42371W        W14796  23.401  35.081  12.013
42372W        W14797  39.534  13.829   3.807
42373W        W14798  37.742  22.174   1.781
42374W        W14799   4.755  33.901  10.296
42375W        W14800   9.213  38.643   4.122
42376W        W14801  36.901  33.923   1.860
42377W        W14802   1.881  27.642   4.155
42378W        W14803  27.055  19.500   1.429
42379W        W14804  35.357  28.684  13.495
42380W        W14805  14.874  35.397   2.869
42381W        W14806  18.293  22.780   1.913
42382W        W14807  15.585  37.942   2.835
42383W        W14808  43.493  30.382   3.789
42384W        W14809  18.829  33.126   2.783
42385W        W14810  11.658  23.540   2.304
42386W        W14811   6.755   1.324  11.991
42387W        W14812  28.919  33.199   1.445
42388W        W14813  18.550  14.612  13.592
42389W        W14814  22.674  37.628  14.048
42390W        W14815  32.544  11.320   1.822
42391W        W14816  11.631  12.063   2.445
42392W        W14817  18.262  35.552  10.832
42393W        W14818   5.183  30.465   2.271
42394W        W14819  23.543   1.180  12.113
42395W        W14820  26.643  25.454   1.844
42396W        W14821  36.934  15.042   3.237
42397W        W14822  42.932   6.879  13.399
42398W        W14823  36.479  38.778  14.460
42399W        W14824  22.307  36.955   2.695
42400W        W14825  25.717   1.977  14.453
42401W        W14826  36.649  41.326  12.750
42402W        W14827   6.817  38.562  14.971
42403W        W14828  22.621  43.764   4.562
42404W        W14829  31.107  13.964  13.359
42405W        W14830   6.312   0.352   4.365
42406W        W14831  18.022  34.806  12.970
42407W        W14832  22.441   0.482  13.925
42408W        W14833  44.298  34.674  10.722
42409W        W14834  36.128  15.701  11.987
42410W        W14835  40.886  25.542  14.042
42411W        W14836   3.928  14.004   5.067
42412W        W14837  32.782  30.825  11.187
42413W        W14838  41.392  32.876  11.008
42414W        W14839  37.668   1.395   0.915
42415W        W14840   4.329  39.589   0.882
42416W        W14841  21.486  40.853   0.377
42417W        W14842  20.907  31.501  11.586
42418W        W14843  12.021  24.562  10.012
42419W        W14844  40.421   2.051   4.255
42420W        W14845  16.851  31.419   1.042
42421W        W14846   7.704  27.634   1.466
42422W        W14847  43.904  17.248   1.945
42423W        W14848   8.236  31.557  12.683
42424W        W14849  25.981  27.509   0.524
42425W        W14850  25.748   6.107  14.358
42426W        W14851   9.365  18.651   4.652
42427W        W14852   2.340  35.485  13.043
42428W        W14853  23.036  24.949   3.658
42429W        W14854  40.056   8.775   2.774
42430W        W14855  36.563  12.786   4.719
42431W        W14856  39.771   9.943  13.387
42432W        W14857  18.714  33.937  11.678
42433W        W14858  34.820  44.793   2.392
42434W        W14859  17.648  31.008  11.505
42435W        W14860  24.986  13.647  11.553
42436W        W14861  37.086  39.210  13.418
42437W        W14862  27.493  16.246  11.115
42438W        W14863   3.802  36.904   1.767
42439W        W14864  28.674   1.010  12.019
42440W        W14865   5.677   1.668  12.009
42441W        W14866  41.261  44.907   5.692
42442W        W14867  40.172  11.936  11.898
42443W        W14868  27.719   0.459  14.504
42444W        W14869  28.454  23.284  11.804
42445W        W14870  34.367  36.910  11.937
42446W        W14871  40.410  19.311   4.759
42447W        W14872  13.084   6.973  13.578
42448W        W14873   1.028  22.466  11.078
42449W        W14874  17.897  33.690  11.096
42450W        W14875   0.218  14.566   0.933
42451W        W14876  43.777  31.988  12.896
42452W        W14877  32.048   2.182  10.987
42453W        W14878  13.641   4.449   1.384
42454W        W14879  19.678  42.841   2.246
42455W        W14880  16.902  29.988  12.379
42456W        W14881  14.941  33.430   1.613
42457W        W14882  30.975  38.939   4.778
42458W        W14883  21.486   4.411  13.903
42459W        W14884  35.907  19.770   0.001
42460W        W14885   6.825  17.846  13.817
42461W        W14886   7.811   6.592  13.293
42462W        W14887  32.832  10.338   2.818
42463W        W14888  39.041  43.327   4.241
42464W        W14889   3.827  17.783   1.305
42465W        W14890  30.625   6.198   3.152
42466W        W14891   0.440   4.929  14.197
42467W        W14892  36.362  39.819  14.412
42468W        W14893  30.077   4.858  10.965
42469W        W14894  33.452  32.800  12.516
42470W        W14895  11.127  11.267   4.460
42471W        W14896  17.619   1.282   4.013
42472W        W14897  33.489  22.907  11.462
42473W        W14898  22.951  22.645  13.530
42474W        W14899  10.375  16.444   1.117
42475W        W14900  22.235  37.663  12.777
42476W        W14901  11.288   7.459   0.612
42477W        W14902  23.402   0.610   1.955
42478W        W14903  18.775  17.077  11.518
42479W        W14904  39.044  42.549  10.231
42480W        W14905  19.293   1.981  10.404
42481W        W14906  35.532  16.987  11.978
42482W        W14907  12.649  37.805   3.771
42483W        W14908  11.804  20.772  11.519
42484W        W14909   1.416  12.685  12.594
42485W        W14910  28.059  24.718   1.831
42486W        W14911   3.889  28.826   2.638
42487W        W14912  16.335  32.589  14.003
42488W        W14913  11.587  14.766  13.913
42489W        W14914  24.216   6.962  13.461
42490W        W14915   5.730  26.095   1.803
42491W        W14916  26.747  34.423  14.492
42492W        W14917  29.235  32.137  14.837
42493W        W14918  43.507   2.389   4.386
42494W        W14919   6.966  39.976  11.106
42495W        W14920  13.377   8.337   3.328
42496W        W14921  26.857  42.024  12.441
42497W        W14922  35.152  31.125  10.543
42498W        W14923  14.534  23.573  12.057
42499W        W14924   4.332  35.332  12.485
42500W        W14925  27.500  14.208  14.739
42501W        W14926  34.969  34.866  14.009
42502W        W14927  13.681  10.406  14.451
42503W        W14928  25.146  43.441  14.883
42504W        W14929  41.038  40.439  14.502
42505W        W14930  17.363  32.579  13.900
42506W        W14931  28.154   7.610  14.513
42507W        W14932  12.621  28.208   0.820
42508W        W14933  43.843  33.175   3.852
42509W        W14934  32.450  39.140  11.251
42510W        W14935  31.055  10.236  10.847
42511W        W14936   3.225   7.993  14.587
42512W        W14937  19.559  41.577   3.357
42513W        W14938  22.571  15.345  14.548
42514W        W14939  16.143  44.313   0.875
42515W        W14940  11.471  12.649  14.419
42516W        W14941   0.911  21.078   3.589
42517W        W14942  19.444   5.769  14.801
42518W        W14943  22.564  44.274   4.574
42519W        W14944  33.000  15.959  11.486
42520W        W14945   8.221   7.468   4.555
42521W        W14946   2.513  15.750   3.319
42522W        W14947  17.673  13.389  12.514
42523W        W14948  43.610  35.421   0.411
42524W        W14949  36.594   5.924  14.903
42525W        W14950  14.859  20.386   4.594
42526W        W14951  40.814   2.375   2.314
42527W        W14952   6.633  25.090  12.623
42528W        W14953  19.736  31.130   5.251
42529W        W14954  14.380  30.214   2.299
42530W        W14955   6.422  27.225   3.666
42531W        W14956  12.231   5.355   0.263
42532W        W14957  13.653  32.311   1.946
42533W        W14958   3.571  40.322  11.530
42534W        W14959  15.013   2.245   2.883
42535W        W14960  14.655  18.252   2.136
42536W        W14961  42.700  43.766   0.858
42537W        W14962  43.801  30.040  11.855
42538W        W14963  40.275  24.457   4.303
42539W        W14964  15.632  14.667   0.410
42540W        W14965  43.778  39.041  11.708
42541W        W14966   2.395   7.664  10.731
42542W        W14967  38.387   7.157   4.633
42543W        W14968  22.144  31.632  13.733
42544W        W14969  10.066  27.875  12.989
42545W        W14970  28.071  38.121  14.926
42546W        W14971   1.245   1.700   1.406
42547W        W14972  41.618  11.755  13.031
42548W        W14973  26.482  11.655   2.139
42549W        W14974  39.730   8.921  11.910
42550W        W14975   7.405   0.299  13.476
42551W        W14976  38.538  24.983  14.434
42552W        W14977   3.416  23.148  10.897
42553W        W14978  44.283  14.394   1.914
42554W        W14979   9.300  29.922   4.538
42555W        W14980  26.918  18.783  13.873
42556W        W14981   6.443  31.976   0.753
42557W        W14982  32.620   8.787   1.683
42558W        W14983  29.841  13.070  11.134
42559W        W14984  28.061  40.994  12.816
42560W        W14985  17.667  20.801   2.286
42561W        W14986  38.339   9.726  14.545
42562W        W14987   6.945   1.823  12.059
42563W        W14988   5.750  32.052   4.610
42564W        W14989  31.996  19.669   0.452
42565W        W14990   5.902   5.374  10.477
42566W        W14991   8.026  43.144   1.627
42567W        W14992  39.339  28.721  14.249
42568W        W14993   1.921  25.874  11.516
42569W        W14994  19.460   9.352   1.215
42570W        W14995  39.488  37.861   4.113
42571W        W14996   5.771  27.177   0.870
42572W        W14997  25.279  33.880  10.940
42573W        W14998  42.091  23.405  10.715
42574W        W14999  11.637  31.384   3.812
42575W        W15000  25.494  12.883   4.949
42576W        W15001  14.610  14.360   2.778
42577W        W15002  33.924  34.143   3.434
42578W        W15003  25.122  20.230   0.968
42579W        W15004   6.649   7.803   0.837
42580W        W15005  44.515  40.414  12.959
42581W        W15006  33.533  39.991   0.282
42582W        W15007   9.177  25.201  10.012
42583W        W15008  12.723  28.135  12.865
42584W        W15009  33.682  18.182  14.701
42585W        W15010  34.072  26.523  14.721
42586W        W15011   4.655  43.458   2.697
42587W        W15012  20.175  41.428   0.277
42588W        W15013   1.206   3.330  13.343
42589W        W15014  23.116  33.150  11.593
42590W        W15015  21.525   9.678   4.542
42591W        W15016  31.509  28.626  10.869
42592W        W15017  40.126  14.065   2.395
42593W        W15018  38.982  28.639  12.960
42594W        W15019  13.770  42.402  14.526
42595W        W15020  35.378  42.129  13.855
42596W        W15021   0.740  29.029   1.434
42597W        W15022  44.810  16.664  10.419
42598W        W15023  28.200  34.430  10.590
42599W        W15024  13.399  24.179  10.301
42600W        W15025  39.566  31.431  13.147
42601W        W15026   5.364  10.121   0.356
42602W        W15027  25.496  32.140   2.859
42603W        W15028  13.144  22.611   1.813
42604W        W15029  43.237  13.379  10.645
42605W        W15030  24.744  39.846   1.099
42606W        W15031   2.629   9.789  14.816
42607W        W15032  41.353  14.612  11.426
42608W        W15033   6.520  14.623   4.266
42609W        W15034  43.882  29.946  13.751
42610W        W15035  18.078  22.982   0.875
42611W        W15036   1.340  30.685  13.455
42612W        W15037  23.544  32.980   4.626
42613W        W15038  24.256  44.799   0.545
42614W        W15039  16.376   0.015   2.829
42615W        W15040   3.446   3.688  13.963
42616W        W15041   1.819  14.585  14.059
42617W        W15042  40.436  31.621   2.170
42618W        W15043  23.738   1.784  12.424
42619W        W15044  12.882  24.250   3.147
42620W        W15045  30.823  38.990   1.144
42621W        W15046  34.114   1.565  11.111
42622W        W15047  33.026  34.533   2.535
42623W        W15048  40.928  39.161  14.447
42624W        W15049  28.600   7.672  10.440
42625W        W15050  38.250  34.908  14.061
42626W        W15051  38.402  36.312  11.021
42627W        W15052  41.411   9.072   3.399
42628W        W15053  31.991  27.002   4.410
42629W        W15054  44.799   9.389  12.083
42630W        W15055  16.378  28.150   0.778
42631W        W15056  13.884  29.642   1.747
42632W        W15057   1.891  16.646  10.690
42633W        W15058  13.504   0.825  14.718
42634W        W15059  28.962   9.418   4.019
42635W        W15060  25.550   4.262  14.286
42636W        W15061   9.801  32.065   1.438
42637W        W15062  21.899  29.448  13.412
42638W        W15063  40.291   5.708  14.879
42639W        W15064   6.286   2.294   1.723
42640W        W15065  11.192  30.843   1.497
42641W        W15066  27.455   8.871  11.951
42642W        W15067   7.653  35.032  10.686
42643W        W15068  29.473  21.777   2.767
42644W        W15069  10.947   6.483  11.090
42645W        W15070  23.522  44.651   3.504
42646W        W15071   9.784  35.030   3.749
42647W        W15072   3.472  16.137   3.221
42648W        W15073   6.902   2.771  14.435
42649W        W15074  23.458  24.426  14.360
42650W        W15075  15.464  37.837  11.167
42651W        W15076  19.643   4.747   2.419
42652W        W15077  35.993   8.930   4.335
42653W        W15078  18.710  29.885   3.634
42654W        W15079  41.760  34.157  13.353
42655W        W15080  23.151  35.772  13.041
42656W        W15081  34.530  25.570   1.277
42657W        W15082   4.953  12.330   3.625
42658W        W15083  22.720  34.528  11.616
42659W        W15084  43.431  19.135   1.820
42660W        W15085   5.834  41.751  13.107
42661W        W15086   4.658   3.332  11.020
42662W        W15087   3.516  36.936   4.165
42663W        W15088   5.915  39.342   1.340
42664W        W15089  27.456  26.442  12.607
42665W        W15090  36.398   5.256  11.706
42666W        W15091  33.476  29.458   3.691
42667W        W15092  17.253   7.163   4.114
42668W        W15093  34.368   5.560   3.891
42669W        W15094  41.947  13.756  10.793
42670W        W15095  10.297   0.241  12.598
42671W        W15096  16.519  36.989  11.299
42672W        W15097  22.559  18.204  12.334
42673W        W15098  41.666   9.166  13.483
42674W        W15099  43.596  24.166  11.583
42675W        W15100  40.026  23.470  14.763
42676W        W15101  44.789  42.514   2.903
42677W        W15102  18.558  23.644  12.096
42678W        W15103  28.551  42.520  12.375
42679W        W15104  41.580   9.295   2.404
42680W        W15105  32.170  29.451   4.195
42681W        W15106  13.067  31.672  14.803
42682W        W15107   8.206  21.182  11.715
42683W        W15108   0.060   0.367   1.653
42684W        W15109  17.834  16.582   3.363
42685W        W15110  16.673  20.082   4.606
42686W        W15111  38.835  17.985   3.190
42687W        W15112  33.151  28.982   2.264
42688W        W15113   2.915  26.144  11.877
42689W        W15114  41.907  23.926   4.483
42690W        W15115   4.360   8.675  12.628
42691W        W15116   8.444  16.115  14.857
42692W        W15117  30.912  18.289   1.394
42693W        W15118  25.996  20.702   0.592
42694W        W15119   7.063  41.498  11.577
42695W        W15120  24.980  31.689  11.693
42696W        W15121  37.249  20.238   3.156
42697W        W15122  14.181  30.047  13.278
42698W        W15123  38.332  40.019   1.814
42699W        W15124  42.486  37.604   4.606
42700W        W15125  23.568  21.796  13.461
42701W        W15126  21.488   6.987   2.559
42702W        W15127   6.622  28.391  14.868
42703W        W15128  18.829   7.866  11.191
42704W        W15129  43.627   1.827  14.464
42705W        W15130  12.747  24.157   1.394
42706W        W15131  44.231  26.628  12.336
42707W        W15132  19.688  34.153   3.741
42708W        W15133  28.371  14.921   2.139
42709W        W15134  16.688  12.886   4.254
42710W        W15135   8.834  42.284   1.837
42711W        W15136  22.643   3.525  12.551
42712W        W15137  14.142  26.738   0.435
42713W        W15138  14.301  14.703  14.444
42714W        W15139  14.808  16.213   2.490
42715W        W15140   3.307  28.620   4.806
42716W        W15141  18.185  38.089   3.239
42717W        W15142  33.158  20.608  11.439
42718W        W15143  11.045  14.360   2.416
42719W        W15144   3.629  33.243   4.222
42720W        W15145  10.668  35.436  14.033
42721W        W15146  39.089  18.594   4.751
42722W        W15147  39.083  19.593  11.087
42723W        W15148   8.458  23.230   4.628
42724W        W15149  31.457   4.136  12.909
42725W        W15150  22.720  44.892   3.222
42726W        W15151   8.063   1.882  13.069
42727W        W15152   0.748  10.843   3.712
42728W        W15153  35.456  23.156   2.473
42729W        W15154  27.241  32.809   3.664
42730W        W15155  16.357  29.179   4.201
42731W        W15156   8.092  34.284   4.246
42732W        W15157  25.232  25.726   3.597
42733W        W15158  12.411  40.824   4.390
42734W        W15159  23.223  17.268   0.639
42735W        W15160  18.341  31.391  14.005
42736W        W15161  34.104  14.620   4.481
42737W        W15162  43.734  18.517  13.869
42738W        W15163  13.725  43.496  12.419
42739W        W15164   0.660  33.358  12.490
42740W        W15165   9.637  27.161  11.104
42741W        W15166  44.535   4.155  12.938
42742W        W15167  38.616  28.486   1.893
42743W        W15168  42.825  32.090   1.394
42744W        W15169  40.247  35.825  14.225
42745W        W15170  32.301  19.060  14.808
42746W        W15171  42.506   9.690   2.914
42747W        W15172  38.985  16.086  14.037
42748W        W15173  22.262  36.813   3.693
42749W        W15174  19.578  17.057   4.223
42750W        W15175  42.960  41.928   2.478
42751W        W15176  38.094  21.756  12.517
42752W        W15177  40.260  24.417  11.140
42753W        W15178  43.952   0.906   4.294
42754W        W15179  39.470   8.246   2.206
42755W        W15180  42.671  27.637  11.181
42756W        W15181  22.512   1.422   2.421
42757W        W15182  14.742   5.851  14.296
42758W        W15183  14.441  12.368   2.489
42759W        W15184  22.995  18.423   4.022
42760W        W15185  42.629  37.375   0.957
42761W        W15186  27.034  41.515  14.818
42762W        W15187  13.143   0.192   2.065
42763W        W15188   1.448  13.600  14.326
42764W        W15189  41.437  13.544  11.563
42765W        W15190  11.727   2.383  14.074
42766W        W15191  15.326   4.138  14.274
42767W        W15192  28.031  43.643  13.889
42768W        W15193  36.133   5.132   0.023
42769W        W15194   5.168  40.515   5.202
42770W        W15195  13.410  44.765   0.313
42771W        W15196   2.745   4.415  11.942
42772W        W15197  37.859  44.384   0.029
42773W        W15198  29.673   8.932   1.506
42774W        W15199  41.319  34.510   0.805
42775W        W15200  11.080  20.078   1.909
42776W        W15201   3.782   4.903  14.352
42777W        W15202  15.150  14.204  13.629
42778W        W15203  31.212  35.855   4.294
42779W        W15204  37.116   4.805  11.574
42780W        W15205  24.894  24.155   1.808
42781W        W15206   5.138  37.257   2.312
42782W        W15207  43.439   1.038   1.357
42783W        W15208  27.496  17.665  10.884
42784W        W15209  23.034  36.032   3.668
42785W        W15210  42.423   1.836   3.891
42786W        W15211  29.549   6.589   1.648
42787W        W15212  26.804   6.214  14.264
42788W        W15213  25.092   1.084  10.540
42789W        W15214  38.390   3.207   1.192
42790W        W15215  27.613  24.630   4.058
42791W        W15216  30.079  10.557  10.681
42792W        W15217  24.789  29.094   0.584
42793W        W15218  32.991  38.852   4.201
42794W        W15219  12.120  34.428  14.846
42795W        W15220  39.943   4.656   2.748
42796W        W15221  28.581  39.353  11.621
42797W        W15222  42.823   5.495   1.453
42798W        W15223  36.695  36.340  11.157
42799W        W15224  28.543  13.320  13.486
42800W        W15225  11.680   0.935  12.389
42801W        W15226  34.150  15.132  11.740
42802W        W15227  31.711  14.156  11.946
42803W        W15228  19.128  40.300  13.333
42804W        W15229  31.906  25.197   4.167
42805W        W15230  25.755  36.966  11.986
42806W        W15231   8.882  38.357  13.404
42807W        W15232  42.573  23.501  14.445
42808W        W15233  41.855   6.165  11.609
42809W        W15234  16.308  33.468  13.934
42810W        W15235  16.696  41.033   3.763
42811W        W15236  28.622  44.919   4.162
42812W        W15237  21.601  29.384   1.341
42813W        W15238  27.867   7.335   1.878
42814W        W15239  10.742  27.730  11.557
42815W        W15240  22.616   7.780   0.862
42816W        W15241  14.710  27.897   4.108
42817W        W15242  13.537  28.965   0.025
42818W        W15243  29.427  35.792  12.564
42819W        W15244  13.096  33.918   4.191
42820W        W15245  36.839  43.845   0.331
42821W        W15246   5.245   9.174   4.187
42822W        W15247  35.486  28.190   4.665
42823W        W15248  30.057  13.121   4.138
42824W        W15249  23.901  13.209   4.256
42825W        W15250  32.147  22.431  13.402
42826W        W15251  37.064  20.732   3.137
42827W        W15252  16.761  44.712   0.321
42828W        W15253  15.334  30.381  13.509
42829W        W15254  23.041  23.986  11.180
42830W        W15255  23.511  36.450   1.696
42831W        W15256   4.931  34.489  12.158
42832W        W15257  38.888   8.357  11.427
42833W        W15258   0.962  24.456  12.516
42834W        W15259  34.203  15.278   0.970
42835W        W15260  36.034  43.642   0.859
42836W        W15261   1.899  22.394  13.919
42837W        W15262  29.897  37.503  11.585
42838W        W15263  34.560  22.080  14.016
42839W        W15264  37.924  13.332   1.860
42840W        W15265  11.217   5.246   1.285
42841W        W15266  22.059   1.290   2.205
42842W        W15267   8.537  29.092  12.714
42843W        W15268  43.707   0.903  11.631
42844W        W15269  29.705  24.892  11.130
42845W        W15270   3.316  38.710   0.476
42846W        W15271  28.089  39.763  14.039
42847W        W15272  39.562  42.758  11.036
42848W        W15273  19.489   2.810   4.601
42849W        W15274  21.782   0.750   0.452
42850W        W15275  31.555  33.979   0.037
42851W        W15276  37.493  44.026   3.180
42852W        W15277  25.412  17.165   0.198
42853W        W15278  12.146   5.685   1.227
42854W        W15279  30.894  29.513  13.317
42855W        W15280  26.029  15.564   4.843
42856W        W15281   7.309  28.401   0.460
42857W        W15282  19.326   6.414   2.829
42858W        W15283  30.463   7.783  12.974
42859W        W15284   1.497  31.759  11.316
42860W        W15285   2.357  17.459  12.942
42861W        W15286  27.391  44.743  10.479
42862W        W15287  16.747  30.591   1.902
42863W        W15288  14.676  34.971   3.119
42864W        W15289  44.010  43.450  12.388
42865W        W15290  41.363  27.987  12.226
42866W        W15291  41.984  37.766   0.223
42867W        W15292  32.776  42.848   3.720
42868W        W15293  24.184  41.955   1.276
42869W        W15294  28.830  44.924   1.101
42870W        W15295   2.971  41.340  11.741
42871W        W15296  43.972  28.430   4.659
42872W        W15297  36.815  32.414  13.883
42873W        W15298  36.143  40.615   4.745
42874W        W15299  30.724  25.231   2.238
42875W        W15300  30.435  26.041   0.873
42876W        W15301  32.134   4.909   1.945
42877W        W15302  40.250  29.954  11.758
42878W        W15303  27.571  14.774  12.619
42879W        W15304  34.800  34.182   1.241
42880W        W15305   0.418  21.577   0.791
42881W        W15306  38.335   0.953  11.961
42882W        W15307  39.239   2.313  12.499
42883W        W15308  27.656  23.974  13.862
42884W        W15309  25.669  30.912   4.873
42885W        W15310  12.430  39.881  14.092
42886W        W15311   0.912  39.444   4.221
42887W        W15312  39.648  17.852  14.406
42888W        W15313  15.895  21.227  12.794
42889W        W15314  31.011   6.643   4.184
42890W        W15315  20.125   9.312  11.901
42891W        W15316   3.522  37.935  14.973
42892W        W15317  31.401   1.691  11.675
42893W        W15318  39.788   3.762   3.229
42894W        W15319  16.569  34.854   2.607
42895W        W15320  30.359  27.701   2.266
42896W        W15321  29.602   8.812  14.570
42897W        W15322  27.793   7.592   2.811
42898W        W15323  18.742  44.548   3.919
42899W        W15324   2.717  33.941   2.135
42900W        W15325  20.469  33.488   2.292
42901W        W15326  42.869  15.626  10.906
42902W        W15327  13.152   2.289   0.806
42903W        W15328  16.264  40.551  14.456
42904W        W15329  36.202  15.468   4.118
42905W        W15330   7.187   5.799  11.236
42906W        W15331  40.664  22.256  14.236
42907W        W15332  14.327   3.684   1.382
42908W        W15333  24.804  18.292   2.832
42909W        W15334   9.641  41.042   3.145
42910W        W15335  23.287  22.050   0.495
42911W        W15336   3.209  34.134   4.201
42912W        W15337  37.014  44.060  11.094
42913W        W15338  43.952   3.493  11.392
42914W        W15339   5.100  32.995   2.450
42915W        W15340   8.251  21.960  10.623
42916W        W15341  22.571  21.574   2.241
42917W        W15342  29.502   9.316   1.202
42918W        W15343  23.498  10.950   4.790
42919W        W15344   8.302  35.386   4.742
42920W        W15345   9.208  34.524  13.161
42921W        W15346  40.655   6.586   4.885
42922W        W15347   2.388  42.995  10.140
42923W        W15348   5.022  18.767  13.951
42924W        W15349   7.427  40.189   2.364
42925W        W15350   4.617  20.561   0.794
42926W        W15351  34.377  41.975  10.972
42927W        W15352  38.733  25.856  14.562
42928W        W15353  22.875   2.438  13.894
42929W        W15354  36.524   8.895  12.532
42930W        W15355  40.717  29.804   2.415
42931W        W15356   3.165  10.136   3.146
42932W        W15357  17.089  12.699   2.669
42933W        W15358  41.330   9.394   4.690
42934W        W15359   8.735  36.925  14.858
42935W        W15360   2.706  13.437   1.251
42936W        W15361   2.846  24.957  11.852
42937W        W15362  43.358  13.629   3.726
42938W        W15363  30.799   4.361   2.503
42939W        W15364  25.388  32.910   4.563
42940W        W15365  21.429  27.655  11.563
42941W        W15366  19.886  32.060  10.226
42942W        W15367  24.560  14.647   4.112
42943W        W15368  33.426  23.821  13.135
42944W        W15369   4.769   4.903  13.580
42945W        W15370  33.106  19.998   3.666
42946W        W15371  29.011   4.923  12.016
42947W        W15372  12.280   5.187   1.306
42948W        W15373  36.578  17.782   2.686
42949W        W15374  40.043  15.010   4.972
42950W        W15375  33.244  42.008   1.073
42951W        W15376  15.217  13.030   2.691
42952W        W15377  18.639  24.741   2.751
42953W        W15378  41.964  10.654   0.795
42954W        W15379  38.046   3.857   1.266
42955W        W15380   5.442  26.452   1.559
42956W        W15381  35.492  36.665   2.425
42957W        W15382  10.349  36.422   2.781
42958W        W15383  30.646  10.174   1.207
42959W        W15384  21.628  31.482   4.215
42960W        W15385  36.022  20.177  12.847
42961W        W15386  24.558  32.162  13.103
42962W        W15387  39.065   0.379  12.835
42963W        W15388  29.907  29.724  11.986
42964W        W15389  15.169  43.582  13.371
42965W        W15390   3.823   0.279  11.630
42966W        W15391  32.918  13.541   3.266
42967W        W15392  16.090  43.542  13.275
42968W        W15393  36.201   9.361   2.012
42969W        W15394  18.190   4.993   4.528
42970W        W15395  33.020   0.750  12.825
42971W        W15396  32.528  10.739  12.164
42972W        W15397  31.201  44.944  13.489
42973W        W15398   8.798   4.903  12.494
42974W        W15399  29.790  30.043   1.726
42975W        W15400   8.110  27.557  13.029
42976W        W15401   5.094  35.674  11.948
42977W        W15402  43.916  39.078   2.767
42978W        W15403   6.332  35.996  12.119
42979W        W15404  32.398  31.808   1.007
42980W        W15405   2.507  23.587  11.658
42981W        W15406  41.603  32.738   4.111
42982W        W15407  42.926  26.075   0.004
42983W        W15408  37.021  24.465  12.115
42984W        W15409  20.699  26.105  11.916
42985W        W15410  31.476  23.606  14.138
42986W        W15411  12.215  15.531  12.864
42987W        W15412  38.837  38.480  11.605
42988W        W15413   8.398   7.213  11.967
42989W        W15414  43.658  27.459   4.924
42990W        W15415  23.672   9.039  14.014
42991W        W15416  34.505  10.191  13.862
42992W        W15417  43.251   6.425  10.423
42993W        W15418  34.545  35.095  13.050
42994W        W15419  11.267  43.255  13.743
42995W        W15420  10.907  43.017   1.872
42996W        W15421   9.230  40.299  11.244
42997W        W15422   3.339  33.086  12.374
42998W        W15423  26.654   2.566  13.853
42999W        W15424  22.203  18.730  14.105
43000W        W15425   3.490  15.130  12.523
43001W        W15426  21.776  15.070   4.386
43002W        W15427  26.409   4.202  13.365
43003W        W15428  11.919   5.891   3.372
43004W        W15429  33.033   1.477  11.951
43005W        W15430  18.612  41.584  13.268
43006W        W15431  21.722  10.761   0.755
43007W        W15432  32.473   4.274  13.084
43008W        W15433  25.205  29.157  13.358
43009W        W15434   5.216  44.477   0.448
43010W        W15435  44.229  44.291   4.052
43011W        W15436  30.637  42.452   1.901
43012W        W15437  12.660  39.365  13.962
43013W        W15438  13.812   6.786   3.301
43014W        W15439  31.848  42.762  12.714
43015W        W15440  14.786   6.926  12.327
43016W        W15441  38.443  13.681  14.016
43017W        W15442  28.118  33.665   1.685
43018W        W15443  27.624  42.664   4.988
43019W        W15444   6.299  40.343  11.160
43020W        W15445  18.457  27.986   2.722
43021W        W15446  12.561  25.549  10.992
43022W        W15447  31.543   3.046   0.349
43023W        W15448  19.262   6.334  12.875
43024W        W15449   6.441  10.887   4.213
43025W        W15450  10.874   4.230  12.950
43026W        W15451  32.225  16.501   1.422
43027W        W15452  32.064  16.952  10.173
43028W        W15453  16.357  27.571  14.054
43029W        W15454  15.261  17.737   3.219
43030W        W15455  41.645  29.594   2.565
43031W        W15456  43.085  14.112  13.464
43032W        W15457  37.138  18.814  12.190
43033W        W15458  12.923  17.607   0.061
43034W        W15459  28.189  35.770  11.687
43035W        W15460  11.830  32.546   0.961
43036W        W15461  38.067  16.278  14.271
43037W        W15462  24.115  32.067   3.663
43038W        W15463   4.881   6.483  14.307
43039W        W15464   1.954  26.530   3.287
43040W        W15465   7.701  36.632   4.609
43041W        W15466  17.209  43.490  12.899
43042W        W15467  32.148  34.029   2.229
43043W        W15468  30.180  41.050  11.912
43044W        W15469  26.895   3.305  11.464
43045W        W15470  19.481  25.628   3.323
43046W        W15471  41.583  30.644   2.179
43047W        W15472  34.624  22.580  13.875
43048W        W15473  25.169   6.001  12.032
43049W        W15474  37.618  11.105  11.250
43050W        W15475  33.377  40.882  14.501
43051W        W15476  18.703  32.964  14.543
43052W        W15477   6.815  29.206   0.270
43053W        W15478  22.151  30.092  11.865
43054W        W15479  21.414   5.960  12.985
43055W        W15480  42.788  28.453  13.610
43056W        W15481  20.928   9.338   1.448
43057W        W15482  25.226   6.082   2.267
43058W        W15483  27.907  36.549   2.609
43059W        W15484  21.001   4.969   2.225
43060W        W15485  37.864   3.885   5.019
43061W        W15486  14.802  28.971  10.765
43062W        W15487  22.542  30.934   3.839
43063W        W15488  25.590  33.584   0.025
43064W        W15489  38.668   4.400  13.519
43065W        W15490  39.399  17.252   1.279
43066W        W15491   9.887   6.729  13.916
43067W        W15492  11.448  26.549   2.712
43068W        W15493  19.835  37.352   1.533
43069W        W15494  16.850   4.448   4.345
43070W        W15495   6.135  29.592   2.310
43071W        W15496  17.059  40.861   2.223
43072W        W15497  31.107   2.408  13.764
43073W        W15498  16.160  17.727  14.316
43074W        W15499   7.201  27.889   3.138
43075W        W15500  29.128  38.325  12.524
43076W        W15501  41.006  32.020   1.337
43077W        W15502  34.185  28.998   4.668
43078W        W15503  16.381  26.569   1.042
43079W        W15504  40.255  13.292   3.486
43080W        W15505  34.124  36.884   0.757
43081W        W15506  39.346  19.221   0.705
43082W        W15507  37.292  21.284  11.922
43083W        W15508  16.800  43.834  11.631
43084W        W15509  30.925   3.828   0.416
43085W        W15510  12.715   6.165  13.107
43086W        W15511  11.630  37.825   2.701
43087W        W15512  32.940  39.082   0.560
43088W        W15513   3.987   9.608  13.940
43089W        W15514  36.469  44.251   3.690
43090W        W15515  14.047  25.203  13.131
43091W        W15516  10.773  42.184  11.119
43092W        W15517   7.260   1.582  14.732
43093W        W15518   9.908  10.372  14.366
43094W        W15519   7.830  24.132  11.630
43095W        W15520  37.362   0.268  14.887
43096W        W15521   0.686   4.983   0.071
43097W        W15522   0.778  12.568   2.393
43098W        W15523  24.917   2.343  12.464
43099W        W15524   8.702   1.923  11.631
43100W        W15525   7.839  38.330   0.427
43101W        W15526   6.231  22.657   3.691
43102W        W15527  13.793  13.743  13.405
43103W        W15528  38.635   3.788   4.645
43104W        W15529  31.084  33.972   0.268
43105W        W15530  40.602  32.551   3.845
43106W        W15531  37.072  44.786   3.304
43107W        W15532  43.725  15.065   1.096
43108W        W15533  42.965  44.552   5.009
43109W        W15534  11.566  16.364  11.187
43110W        W15535  25.542  16.336  10.574
43111W        W15536  40.578  11.742  11.607
43112W        W15537  40.341  13.758  10.541
43113W        W15538  27.579  35.857   4.632
43114W        W15539  27.585  23.289  13.019
43115W        W15540   2.820  27.177  10.815
43116W        W15541  16.550  33.106  11.968
43117W        W15542  24.974  41.055  10.624
43118W        W15543   2.717   6.235   2.345
43119W        W15544   2.679  38.291  12.680
43120W        W15545   0.488  39.651  11.511
43121W        W15546  12.429   3.701  14.974
43122W        W15547  32.592  19.112   5.552
43123W        W15548  38.066  39.943  13.159
43124W        W15549  33.700   6.781  11.589
43125W        W15550  24.813   0.300  13.052
43126W        W15551  17.343   6.898  12.161
43127W        W15552  23.889  43.888  13.910
43128W        W15553  12.373  34.958  13.633
43129W        W15554  33.127  42.484   3.737
43130W        W15555  21.844  12.209  12.174
43131W        W15556  14.676  31.914   0.112
43132W        W15557  37.285  35.384   3.769
43133W        W15558   2.383  14.244  11.085
43134W        W15559  35.359   0.390  11.925
43135W        W15560  23.107   9.840  11.530
43136W        W15561  32.524  28.765  12.585
43137W        W15562  39.362  29.251   0.487
43138W        W15563  35.991   6.592  11.682
43139W        W15564   5.438  42.588  11.696
43140W        W15565  28.671  29.962  12.596
43141W        W15566  40.706  28.891  14.454
43142W        W15567   0.730   5.889  14.305
43143W        W15568  21.527  18.171  10.629
43144W        W15569   7.353  14.621   4.374
43145W        W15570   8.165   7.704  11.916
43146W        W15571  19.520  14.774   0.388
43147W        W15572  12.049  23.301  14.364
43148W        W15573  28.582  17.821   1.796
43149W        W15574  44.028  16.387   1.771
43150W        W15575  10.793  12.630  11.563
43151W        W15576   5.993  33.683  12.750
43152W        W15577  24.118  37.439   3.284
43153W        W15578   0.234   6.904   1.892
43154W        W15579  38.003  35.548   2.967
43155W        W15580   7.370   5.437   4.547
43156W        W15581   2.505  14.793  12.983
43157W        W15582  17.825  24.715   0.635
43158W        W15583  40.156  42.830  10.200
43159W        W15584  10.141  34.933  12.836
43160W        W15585  10.215  43.581  13.070
43161W        W15586  16.119  12.693   3.060
43162W        W15587  32.669   8.290  11.565
43163W        W15588  17.774  30.865   2.765
43164W        W15589  16.580   6.188  11.410
43165W        W15590  13.932  19.495   0.789
43166W        W15591  11.430  42.235   1.158
43167W        W15592   6.739  26.762   5.041
43168W        W15593  33.340  22.939   4.904
43169W        W15594  20.598   3.056   1.324
43170W        W15595  44.809  18.497   1.214
43171W        W15596  24.810  11.597   1.652
43172W        W15597  44.430  36.924  11.038
43173W        W15598  25.869  37.817   1.940
43174W        W15599  13.687  37.466  14.191
43175W        W15600  33.545  28.934  13.273
43176W        W15601  16.183   3.660  12.401
43177W        W15602  33.629  35.380  10.723
43178W        W15603  21.140  29.483  11.111
43179W        W15604  42.567  29.923  13.955
43180W        W15605  18.517  43.399   4.670
43181W        W15606  15.293  18.072   0.887
43182W        W15607  10.852  33.374   0.361
43183W        W15608  17.113  10.837   2.263
43184W        W15609  19.150  21.250  10.790
43185W        W15610  37.513  39.764  12.509
43186W        W15611  26.100  40.750   2.657
43187W        W15612  34.307  41.372   2.865
43188W        W15613   8.782  38.934  13.071
43189W        W15614  42.233  37.296  10.670
43190W        W15615  20.671   5.431  11.049
43191W        W15616  29.353  28.015  12.455
43192W        W15617  26.514  35.682   2.271
43193W        W15618  31.636  23.115  10.411
43194W        W15619   0.186  12.817  11.429
43195W        W15620  18.165  27.394   0.914
43196W        W15621  21.131  26.517  13.310
43197W        W15622   0.780  22.011   0.974
43198W        W15623  25.453   3.541  11.130
43199W        W15624   9.083  17.229  14.786
43200W        W15625  31.636  42.107  12.235
43201W        W15626  43.474  22.613   2.422
43202W        W15627   8.196  14.976  14.028
43203W        W15628   2.813  39.800  13.069
43204W        W15629  19.593  30.784  13.593
43205W        W15630   3.667  14.865   4.686
43206W        W15631  22.012  15.319   1.794
43207W        W15632  19.135  23.994  13.768
43208W        W15633  25.078  20.292   2.357
43209W        W15634   0.596  26.395  11.617
43210W        W15635  20.343  21.245   3.808
43211W        W15636  25.865  10.210  10.605
43212W        W15637  35.130  40.263  11.513
43213W        W15638  17.037  14.076   0.240
43214W        W15639  41.731  43.875   3.184
43215W        W15640  35.569  34.851  14.487
43216W        W15641  43.659  39.113  12.239
43217W        W15642  21.348   3.742  10.491
43218W        W15643  37.170  18.213  14.442
43219W        W15644  26.761  27.573  14.453
43220W        W15645  22.495  28.259  13.445
43221W        W15646   8.389  32.658  10.472
43222W        W15647  22.097  30.047   2.916
43223W        W15648  21.118  12.941  12.104
43224W        W15649  43.153  23.214  12.541
43225W        W15650   2.359  33.363  12.027
43226W        W15651  26.024   7.597   0.832
43227W        W15652  23.798  37.691  11.501
43228W        W15653  41.431   7.407   2.224
43229W        W15654   4.158   1.430   1.415
43230W        W15655  42.216  28.450  14.874
43231W        W15656   3.899  35.989   3.513
43232W        W15657  23.217  21.082   0.146
43233W        W15658   3.244  39.577  11.939
43234W        W15659  41.961  34.210  12.765
43235W        W15660   3.862  17.567  14.616
43236W        W15661  27.657  22.751  11.698
43237W        W15662  26.393  12.359  13.043
43238W        W15663  32.331  16.737  12.428
43239W        W15664  26.570  40.240  12.934
43240W        W15665   8.088  20.087   0.462
43241W        W15666  40.235  40.366   0.165
43242W        W15667   0.841   3.885   1.754
43243W        W15668  26.437  24.969   1.128
43244W        W15669   8.414  11.292  12.403
43245W        W15670  40.063  44.975   4.206
43246W        W15671  22.757  20.756  13.549
43247W        W15672  28.406  13.257   4.318
43248W        W15673  22.812  21.500  13.925
43249W        W15674   1.873   7.645  14.942
43250W        W15675  30.388  12.397  13.605
43251W        W15676  19.363   6.902  13.519
43252W        W15677  43.659  14.701   3.795
43253W        W15678  39.581  40.886  13.025
43254W        W15679  16.419  23.198  14.378
43255W        W15680  28.519  15.900  11.975
43256W        W15681   9.423  30.770   0.865
43257W        W15682   6.175  22.618  12.346
43258W        W15683  39.064   5.717  11.044
43259W        W15684   2.439  24.647   2.953
43260W        W15685  35.974  35.404   1.239
43261W        W15686  44.842  21.850  12.060
43262W        W15687   8.531  38.132   0.162
43263W        W15688  13.357  33.330   3.323
43264W        W15689  43.152  28.567  12.055
43265W        W15690  23.009  16.202  14.484
43266W        W15691  20.918   3.361   0.953
43267W        W15692   0.882   9.209   0.428
43268W        W15693  27.424  43.767  12.458
43269W        W15694  17.302  30.007   9.969
43270W        W15695  43.440  34.867   1.043
43271W        W15696  32.550   1.441   0.399
43272W        W15697  19.650  10.863  10.432
43273W        W15698   9.820  22.148  13.710
43274W        W15699  43.381  33.445   1.434
43275W        W15700  29.128  12.301   3.751
43276W        W15701   6.736  16.898   1.186
43277W        W15702  23.495  30.425  13.098
43278W        W15703  20.902  25.185  10.382
43279W        W15704  23.573  41.540   3.052
43280W        W15705  19.074   9.438   0.264
43281W        W15706  12.996   9.319  13.736
43282W        W15707  11.777  15.613   3.560
43283W        W15708   6.437   2.691   3.669
43284W        W15709   6.455  39.360  12.106
43285W        W15710  38.484  10.960  10.803
43286W        W15711  20.717  22.980   2.843
43287W        W15712  14.615  21.364  14.387
43288W        W15713  33.885  18.138  11.533
43289W        W15714  12.140  25.103  13.793
43290W        W15715  12.266   0.802  13.723
43291W        W15716   7.954  30.046  10.529
43292W        W15717  32.026  32.481   0.515
43293W        W15718  22.779   5.704  11.089
43294W        W15719  24.668  11.288  14.308
43295W        W15720  27.954  34.338  14.022
43296W        W15721  42.061   6.705   0.387
43297W        W15722  34.926   7.417  14.837
43298W        W15723  44.117  28.041  14.072
43299W        W15724   7.286  22.136   1.278
43300W        W15725  36.092   9.854  14.174
43301W        W15726  24.199   3.779  14.615
43302W        W15727  37.487  26.614   0.797
43303W        W15728  27.204  21.743   3.664
43304W        W15729  10.761   3.497   1.503
43305W        W15730  18.711   9.693  14.716
43306W        W15731  27.314  13.174  12.638
43307W        W15732  26.028   9.415  13.419
43308W        W15733  40.910  30.977   1.751
43309W        W15734  10.367  13.865   2.204
43310W        W15735   4.321   8.253   2.584
43311W        W15736  32.415   9.787   2.309
43312W        W15737  34.954  19.068   2.859
43313W        W15738  44.645   0.732   0.948
43314W        W15739   3.692   6.092   2.168
43315W        W15740  13.598  43.857   1.835
43316W        W15741  42.230  29.418  12.026
43317W        W15742  14.848   3.229   1.316
43318W        W15743  44.526  13.450  13.809
43319W        W15744  24.141   0.935  13.005
43320W        W15745  26.454  14.063   1.730
43321W        W15746  16.921  41.034   1.736
43322W        W15747  38.847  13.365  14.001
43323W        W15748  43.266  10.862   3.405
43324W        W15749  18.768   8.152   0.302
43325W        W15750  41.742  38.594  13.860
43326W        W15751  26.654  13.562   0.754
43327W        W15752  38.458  30.659   1.634
43328W        W15753  10.309  17.498  15.000
43329W        W15754  38.427  36.621  12.423
43330W        W15755  26.177  10.617  14.624
43331W        W15756  35.165  16.119   2.425
43332W        W15757   8.185   4.279   0.289
43333W        W15758  30.532  28.138  12.104
43334W        W15759  34.899  42.287  11.616
43335W        W15760  33.013  20.767  12.447
43336W        W15761  20.449  19.494  10.863
43337W        W15762  38.909  40.618  14.374
43338W        W15763   1.285   5.273   4.792
43339W        W15764  13.263  15.104  13.016
43340W        W15765   0.957  29.118  13.970
43341W        W15766   7.868  40.772  13.000
43342W        W15767  21.700  28.509  14.429
43343W        W15768  25.693  35.203  14.829
43344W        W15769  14.576  42.050   2.370
43345W        W15770  37.433  42.273   1.153
43346W        W15771  10.897  14.822  12.045
43347W        W15772  24.261  43.054   0.922
43348W        W15773  17.432   5.929  10.923
43349W        W15774   6.828   8.336   1.952
43350W        W15775  18.125  24.396  11.437
43351W        W15776  35.851   4.731  13.519
43352W        W15777  26.686  28.625  10.713
43353W        W15778  33.733  38.458   2.690
43354W        W15779  21.014  30.869   4.013
43355W        W15780   6.840  38.527   0.987
43356W        W15781  24.438  20.401  11.536
43357W        W15782  31.968  20.326   4.517
43358W        W15783   2.677  28.476   0.399
43359W        W15784  39.932   4.821   1.047
43360W        W15785  36.955   4.454   4.166
43361W        W15786  29.435  17.503   0.900
43362W        W15787  39.958  19.258  14.078
43363W        W15788  38.559  11.676   4.019
43364W        W15789  24.176  25.011   2.841
43365W        W15790  12.916  15.107   4.884
43366W        W15791  11.104  37.475  10.727
43367W        W15792   1.715  40.948  12.338
43368W        W15793  16.123  35.543   0.820
43369W        W15794  20.038  25.118  13.834
43370W        W15795  38.032  36.952  13.078
43371W        W15796  29.051  17.048   2.789
43372W        W15797  28.074  18.160  11.046
43373W        W15798  28.029  42.301   3.851
43374W        W15799  11.071  11.172   0.459
43375W        W15800  29.079  26.961  11.579
43376W        W15801  33.568  30.368   3.692
43377W        W15802  41.897  29.407  11.622
43378W        W15803  32.521  32.939   4.514
43379W        W15804  14.571  14.286   1.827
43380W        W15805  24.347  42.980   0.026
43381W        W15806  36.643  20.663   3.897
43382W        W15807  30.999  28.695  11.037
43383W        W15808   1.422  11.364   4.528
43384W        W15809  24.358   7.240  12.100
43385W        W15810  36.879  26.004   5.466
43386W        W15811  14.014  21.633  11.563
43387W        W15812  23.725  40.996   1.830
43388W        W15813  34.379  31.673   1.832
43389W        W15814  12.408  30.062  13.758
43390W        W15815  17.252  35.370  14.863
43391W        W15816  25.521  17.228  12.877
43392W        W15817   8.291  20.667   3.699
43393W        W15818  33.077  19.673   5.117
43394W        W15819  10.476  20.847  10.598
43395W        W15820   3.643   9.949   0.921
43396W        W15821  32.060  17.132  14.131
43397W        W15822  31.273  22.522  11.094
43398W        W15823  35.259  28.546   1.013
43399W        W15824   8.306  15.616   3.047
43400W        W15825  44.896  16.152   3.029
43401W        W15826  42.475  36.067  11.435
43402W        W15827  27.595  16.443   3.693
43403W        W15828   6.430   0.458  11.893
43404W        W15829  38.379  28.716  13.953
43405W        W15830  31.931  42.243   4.204
43406W        W15831  43.102  43.083   3.817
43407W        W15832  15.550  17.602  12.075
43408W        W15833  17.743  15.378   3.721
43409W        W15834  26.511  31.313  14.367
43410W        W15835  44.319  16.711  12.071
43411W        W15836  11.856   3.369   2.411
43412W        W15837  22.967   6.860   1.897
43413W        W15838  30.258   0.862   0.722
43414W        W15839   6.764  12.788  13.505
43415W        W15840   7.869  18.943  11.126
43416W        W15841  20.677   4.037   4.585
43417W        W15842  18.273  17.263   3.777
43418W        W15843  11.129  24.145   0.867
43419W        W15844  14.096  14.533   4.731
43420W        W15845  25.242  42.320   0.338
43421W        W15846  16.129  13.303  14.606
43422W        W15847  29.589  41.389  11.082
43423W        W15848   4.963   9.409  11.606
43424W        W15849  32.071   5.030   4.094
43425W        W15850  22.947  30.455  14.051
43426W        W15851  44.458  17.679  14.014
43427W        W15852  41.109  44.302   0.963
43428W        W15853  44.363  22.221  13.995
43429W        W15854  28.408  32.857  12.440
43430W        W15855  10.448  35.842   3.425
43431W        W15856   5.424   6.272   1.195
43432W        W15857  10.823  21.110   2.657
43433W        W15858  27.145  12.354   2.156
43434W        W15859  20.697   1.956  13.328
43435W        W15860  21.504  35.357   2.186
43436W        W15861  31.632  14.739  13.235
43437W        W15862  26.204  32.861  10.524
43438W        W15863   1.950   1.652  10.772
43439W        W15864   4.951  11.338  14.988
43440W        W15865   6.672  17.365   1.443
43441W        W15866  14.708  26.580  12.846
43442W        W15867  31.692  44.055   1.794
43443W        W15868  24.600  23.208  13.422
43444W        W15869   2.486   1.875  13.967
43445W        W15870  25.967  19.595   0.658
43446W        W15871  41.766  10.989   3.217
43447W        W15872  15.070  39.338  12.837
43448W        W15873  23.731  21.497  12.026
43449W        W15874  19.737   4.649  13.043
43450W        W15875  10.033   6.328  12.965
43451W        W15876   1.216  43.380   1.207
43452W        W15877  13.805   8.643   1.947
43453W        W15878  43.936  33.620  14.415
43454W        W15879  35.175   8.638  14.347
43455W        W15880   0.324  38.916  13.821
43456W        W15881  27.059   9.759  13.379
43457W        W15882  31.484  19.030  14.317
43458W        W15883  21.106  41.464  12.423
43459W        W15884  40.004  38.800  14.509
43460W        W15885   4.864  30.415   5.029
43461W        W15886  27.341  25.123  13.633
43462W        W15887  24.966  37.991  12.546
43463W        W15888  15.653  43.487   1.803
43464W        W15889  23.061  40.583  13.311
43465W        W15890  36.460  30.091   2.465
43466W        W15891  23.675   4.195  12.449
43467W        W15892  42.724  10.326   1.413
43468W        W15893   5.621   0.305  14.475
43469W        W15894  36.859  23.873   1.288
43470W        W15895  40.081   8.352   4.250
43471W        W15896  21.259   2.426   1.256
43472W        W15897  13.859   6.189  12.858
43473W        W15898  32.177  26.162   3.992
43474W        W15899   4.241   9.783  12.051
43475W        W15900  25.529  25.222   4.656
43476W        W15901  19.088  38.621   3.335
43477W        W15902   8.318   9.378   2.195
43478W        W15903  29.192  10.392   2.220
43479W        W15904  34.950  37.444  13.916
43480W        W15905  12.577  29.607  14.398
43481W        W15906   5.357   1.484   1.388
43482W        W15907  19.340  28.928  11.598
43483W        W15908  20.020  24.381   2.621
43484W        W15909  26.744  19.825  11.006
43485W        W15910   2.772  17.278  11.120
43486W        W15911  16.329  27.490   3.611
43487W        W15912   5.312  25.045   0.390
43488W        W15913   6.797  34.021   4.556
43489W        W15914  21.555   0.950  10.873
43490W        W15915  22.660  26.579   3.686
43491W        W15916  33.628  35.844   3.772
43492W        W15917  22.147   3.210   3.293
43493W        W15918  11.697  33.436   2.686
43494W        W15919  15.730   8.793  11.697
43495W        W15920  38.392  44.703  13.898
43496W        W15921  37.646  41.230  12.974
43497W        W15922  10.851  20.252  14.900
43498W        W15923  36.647  39.455  10.364
43499W        W15924  22.963   3.380  11.428
43500W        W15925  41.498  20.450   3.078
43501W        W15926  26.828  14.942  10.254
43502W        W15927  20.863  42.237   3.287
43503W        W15928  30.153  34.437   3.074
43504W        W15929  18.026  29.320   4.532
43505W        W15930  20.322  28.890   2.645
43506W        W15931  14.112  12.303   2.875
43507W        W15932  22.128   3.195  11.854
43508W        W15933  27.787  40.246  14.867
43509W        W15934  20.978  12.808   4.220
43510W        W15935   1.968  10.664   4.069
43511W        W15936   3.205  29.474  12.332
43512W        W15937  12.683  30.137  12.372
43513W        W15938  38.025   4.640   3.692
43514W        W15939  24.034   5.646   1.795
43515W        W15940  23.101   9.222  10.479
43516W        W15941  36.352  20.775  14.470
43517W        W15942  37.477  28.618   3.306
43518W        W15943   2.216   3.276   3.902
43519W        W15944  32.595  25.092  11.644
43520W        W15945  18.737   8.883   4.027
43521W        W15946   8.759  28.009   0.291
43522W        W15947  37.570   4.262   0.413
43523W        W15948  38.033  37.852   2.382
43524W        W15949  32.335  31.670   4.115
43525W        W15950  29.251  31.614  11.488
43526W        W15951  37.015  29.408  12.912
43527W        W15952  37.584   0.233  13.949
43528W        W15953  43.970  38.526  13.853
43529W        W15954  13.565  21.122  14.485
43530W        W15955  12.270   9.648  13.048
43531W        W15956  12.100  37.132   2.388
43532W        W15957  35.376  11.623  13.472
43533W        W15958  16.830   2.954  11.463
43534W        W15959  11.271  39.906  13.086
43535W        W15960  26.766  43.054  13.974
43536W        W15961  38.876  35.986  14.825
43537W        W15962  41.679  28.178  13.863
43538W        W15963  17.995  25.165   4.174
43539W        W15964  40.898  23.203  14.754
43540W        W15965  19.134  34.155  14.401
43541W        W15966  32.350  39.915   3.436
43542W        W15967  26.141  33.594  12.342
43543W        W15968   8.709  38.431  12.918
43544W        W15969  25.586  25.421  13.079
43545W        W15970  37.619  38.391   1.646
43546W        W15971  40.044   3.590   4.654
43547W        W15972  39.844  30.605   3.409
43548W        W15973  31.385  14.350   1.914
43549W        W15974  40.460   6.735  14.616
43550W        W15975   1.432  14.182   4.866
43551W        W15976  16.085  17.277   4.131
43552W        W15977   7.735  21.897  14.457
43553W        W15978  21.117  10.699  12.535
43554W        W15979  24.523   9.682   2.288
43555W        W15980  42.831  42.286   4.720
43556W        W15981  35.247   2.819   3.392
43557W        W15982  15.649  23.672   5.406
43558W        W15983  29.470  32.124   0.763
43559W        W15984  26.104  13.871   2.890
43560W        W15985  28.545  32.199   4.673
43561W        W15986  31.393  20.122   1.201
43562W        W15987  37.691  41.549   0.284
43563W        W15988  35.969  36.501  11.768
43564W        W15989  28.540  18.584  14.538
43565W        W15990   4.341  29.753   2.752
43566W        W15991  13.008   6.274   2.983
43567W        W15992  32.908  37.075  12.222
43568W        W15993   2.569  31.951  10.767
43569W        W15994   6.379  17.759  11.636
43570W        W15995  14.290  19.966   3.919
43571W        W15996  41.835  35.498  13.657
43572W        W15997  32.459  34.414  14.130
43573W        W15998  24.502   3.752   3.472
43574W        W15999  35.080   4.815  10.559
43575W        W16000  32.035   7.772  14.296
43576W        W16001   5.800  19.084  14.197
43577W        W16002  21.988  11.387  11.525
43578W        W16003  20.216  10.707  13.500
43579W        W16004   1.996  35.376   2.306
43580W        W16005  13.579  15.542  13.039
43581W        W16006   0.511  36.082   1.018
43582W        W16007  31.045   6.303   1.373
43583W        W16008  18.161   7.278   0.883
43584W        W16009  31.871  15.861  11.460
43585W        W16010  32.511  42.576   3.226
43586W        W16011  21.556  35.060  10.489
43587W        W16012  18.033   2.313  12.980
43588W        W16013   5.789  22.861  13.800
43589W        W16014  14.526  39.397  11.511
43590W        W16015  16.772  28.442  11.439
43591W        W16016  24.702  15.891  12.334
43592W        W16017  40.106  22.079  12.094
43593W        W16018  16.742   9.172  11.359
43594W        W16019  23.612  28.336   1.826
43595W        W16020  34.492   7.817  11.507
43596W        W16021  29.477  15.689  10.809
43597W        W16022  29.665  14.682   0.699
43598W        W16023   4.795   2.776  12.049
43599W        W16024  44.366  29.095  12.468
43600W        W16025   2.414  13.003  14.037
43601W        W16026  33.384  11.263  11.810
43602W        W16027   7.381  13.408   0.696
43603W        W16028  35.549   6.479   0.498
43604W        W16029   7.746  12.797  12.048
43605W        W16030  10.916  23.664  12.958
43606W        W16031  17.405  43.692  11.083
43607W        W16032  35.352  39.086  11.126
43608W        W16033  23.782  40.060   2.573
43609W        W16034   2.972  33.464  12.547
43610W        W16035  35.852  20.878  13.570
43611W        W16036  11.806  39.159   1.811
43612W        W16037  36.720  17.832  12.221
43613W        W16038  36.506   3.248   4.634
43614W        W16039   4.357  16.323   0.263
43615W        W16040  11.301  10.528  12.426
43616W        W16041  37.874   1.805   1.373
43617W        W16042  25.048  17.384  13.531
43618W        W16043  12.147  18.043   4.673
43619W        W16044  18.124  43.789  14.993
43620W        W16045  25.295  19.174  10.332
43621W        W16046  39.100  29.772  13.799
43622W        W16047   6.209  12.655   1.748
43623W        W16048  22.614  42.842   4.079
43624W        W16049   6.821   5.230   1.306
43625W        W16050  40.250  26.776  10.150
43626W        W16051  12.327  22.561  12.772
43627W        W16052  20.576  35.424   1.115
43628W        W16053  30.391   7.205  14.250
43629W        W16054  30.846  24.531   1.814
43630W        W16055  16.178  15.564   3.490
43631W        W16056   2.578  29.522  13.558
43632W        W16057   6.947   3.767   0.370
43633W        W16058  26.530  32.823  14.458
43634W        W16059   2.522  14.764   3.354
43635W        W16060  42.264  24.705   1.478
43636W        W16061  24.667  17.093  13.308
43637W        W16062  18.498  15.079   0.845
43638W        W16063  34.827  29.196   1.715
43639W        W16064   3.151  30.642  11.823
43640W        W16065  34.286  40.225  13.045
43641W        W16066   4.880   7.278   0.213
43642W        W16067  33.879  11.695   0.379
43643W        W16068   8.870   0.299   2.522
43644W        W16069   9.350   3.514   4.936
43645W        W16070  33.088  34.427  11.995
43646W        W16071   1.587  18.680  13.549
43647W        W16072  21.173   6.622   3.424
43648W        W16073  12.168   2.181   3.938
43649W        W16074  20.875  30.847   1.996
43650W        W16075   8.946  27.133  12.729
43651W        W16076   5.357  11.650   1.246
43652W        W16077  40.890  42.341   5.331
43653W        W16078   1.813  32.770   3.697
43654W        W16079  44.294  15.134  11.541
43655W        W16080  18.133  32.927  12.971
43656W        W16081   7.524  36.549   3.246
43657W        W16082  24.579  17.762   0.421
43658W        W16083  16.726  39.315   0.990
43659W        W16084   6.983  10.317  13.544
43660W        W16085  16.833  36.073  11.957
43661W        W16086  35.554  23.991   1.772
43662W        W16087  41.934  24.356   3.220
43663W        W16088  13.102   4.661  11.053
43664W        W16089  40.322  43.040   2.303
43665W        W16090  22.054  13.058   2.848
43666W        W16091  44.516   4.379   4.606
43667W        W16092  23.535  25.315  11.399
43668W        W16093  12.337  19.708  11.993
43669W        W16094   8.437  12.266   2.745
43670W        W16095  14.539  42.857  13.804
43671W        W16096   4.490  32.657  11.026
43672W        W16097  11.524  10.779   0.860
43673W        W16098  26.740  27.216  12.421
43674W        W16099  18.897  29.708  12.873
43675W        W16100  23.937  38.817  14.237
43676W        W16101   2.527  36.427   1.639
43677W        W16102  24.641   7.593  13.494
43678W        W16103  26.508  34.351  13.146
43679W        W16104  17.181  17.783   3.052
43680W        W16105  27.110  31.695   0.848
43681W        W16106  21.225  40.053   0.911
43682W        W16107  13.777   4.952   0.383
43683W        W16108  15.245  29.710  12.436
43684W        W16109  34.672  40.287  12.393
43685W        W16110   4.474  22.170   4.740
43686W        W16111  37.150  29.498  10.679
43687W        W16112  42.559  36.359  13.610
43688W        W16113  38.005  36.288   2.244
43689W        W16114  38.692   0.112  13.949
43690W        W16115   1.344   6.401  11.290
43691W        W16116  37.560  30.315   0.109
43692W        W16117  41.810  29.037   1.480
43693W        W16118  23.610   3.209  12.438
43694W        W16119  10.446  36.418  12.858
43695W        W16120  20.515  28.901   1.279
43696W        W16121  11.273  21.314  10.072
43697W        W16122  28.881  40.206  12.506
43698W        W16123  24.533  19.116   4.678
43699W        W16124  15.116   2.447   2.244
43700W        W16125   3.971  40.583   4.478
43701W        W16126  16.088  34.510   4.186
43702W        W16127  39.879  16.845  14.365
43703W        W16128  20.565  23.681   4.497
43704W        W16129  31.839  20.881   0.898
43705W        W16130   9.430  20.779   1.864
43706W        W16131  35.016  24.028  11.131
43707W        W16132  36.422  10.188  11.174
43708W        W16133  38.649  11.122  11.271
43709W        W16134  17.652  14.900   2.848
43710W        W16135  31.688  35.001  13.932
43711W        W16136  35.372  20.118   4.798
43712W        W16137  21.681   8.754  10.663
43713W        W16138  10.365  40.391  14.284
43714W        W16139   2.788   3.160   4.708
43715W        W16140  20.132  14.483  11.164
43716W        W16141  44.023  32.832  11.101
43717W        W16142   5.918  27.035   3.672
43718W        W16143   1.453   7.202   4.563
43719W        W16144  14.845  27.136   3.641
43720W        W16145  26.996  42.024  14.903
43721W        W16146  17.210   2.126   3.235
43722W        W16147  20.674  29.511   2.068
43723W        W16148   1.092  14.434   4.516
43724W        W16149  38.865  11.504   4.545
43725W        W16150  12.085  43.327  14.594
43726W        W16151   1.293  17.722  11.617
43727W        W16152  38.319   4.452   2.041
43728W        W16153   3.940  44.978  12.822
43729W        W16154  44.964  13.861  10.747
43730W        W16155  25.883   1.349  13.525
43731W        W16156  18.264  35.810   3.224
43732W        W16157  34.089   9.855   3.103
43733W        W16158  14.595  37.535   0.215
43734W        W16159  38.787  32.982  13.352
43735W        W16160   1.802   8.504   3.672
43736W        W16161  20.364  13.845   2.884
43737W        W16162  10.736  19.835  13.996
43738W        W16163  26.547   7.825  13.312
43739W        W16164  22.589  41.469  11.705
43740W        W16165  26.054  15.853   1.644
43741W        W16166  15.574  11.730   3.575
43742W        W16167   5.743   1.760  12.516
43743W        W16168  44.403  43.011   3.795
43744W        W16169  17.621   1.922  10.709
43745W        W16170  28.725   9.087  14.329
43746W        W16171  19.051  18.209   0.249
43747W        W16172  38.014   6.698  13.476
43748W        W16173  30.935   0.175   4.162
43749W        W16174  29.474   0.394  13.819
43750W        W16175  21.518   8.886  13.806
43751W        W16176  24.413  33.920  11.447
43752W        W16177  14.621  21.285   4.237
43753W        W16178  29.308  17.830   4.240
43754W        W16179  27.696   3.990   3.657
43755W        W16180  35.850   4.747  10.210
43756W        W16181  17.747   6.099   0.440
43757W        W16182  29.417  18.577   2.439
43758W        W16183  34.410  25.106  14.160
43759W        W16184   0.576   4.537   4.048
43760W        W16185  15.376   2.908   4.776
43761W        W16186  30.104  38.345  12.189
43762W        W16187  13.225  32.542   1.134
43763W        W16188  17.860  41.768   3.602
43764W        W16189  31.467  37.553  12.793
43765W        W16190  37.145   3.139   2.687
43766W        W16191  42.822  25.917  11.611
43767W        W16192  31.030  10.192  12.914
43768W        W16193  43.779  33.401  13.940
43769W        W16194  25.265   2.943  10.850
43770W        W16195  43.319  15.129  11.527
43771W        W16196   3.746  31.347  12.557
43772W        W16197  31.982  11.609  13.495
43773W        W16198  19.465  43.404  12.504
43774W        W16199  18.504  31.103  12.814
43775W        W16200  27.480  22.218   0.254
43776W        W16201  17.114  43.301  12.443
43777W        W16202  31.401  11.717  11.462
43778W        W16203   2.216  28.603  13.811
43779W        W16204   6.292  41.023   0.362
43780W        W16205  35.825  39.805   0.923
43781W        W16206  15.046   6.362  13.156
43782W        W16207  29.011   7.834  13.334
43783W        W16208  33.003  37.033  10.760
43784W        W16209  32.781  17.621   2.376
43785W        W16210  11.498  24.234   1.238
43786W        W16211  31.180  16.655  13.252
43787W        W16212  43.741   6.858  13.853
43788W        W16213  29.619  18.463   3.546
43789W        W16214  14.181  20.827  14.925
43790W        W16215  14.653  21.759   0.960
43791W        W16216  12.269  11.753   2.267
43792W        W16217  41.500  26.170   3.681
43793W        W16218  19.636  15.920   1.199
43794W        W16219  38.478  43.237   2.091
43795W        W16220  42.399  25.517   0.480
43796W        W16221  38.071  43.049  11.212
43797W        W16222   6.673  29.282   4.384
43798W        W16223  13.784  43.471   3.192
43799W        W16224  13.736  13.087   4.115
43800W        W16225  19.522  16.426   1.232
43801W        W16226  23.296  36.130   0.863
43802W        W16227  16.011  37.944   1.701
43803W        W16228  38.416  21.985   3.318
43804W        W16229  21.182  22.720   3.047
43805W        W16230  14.372  20.220  11.342
43806W        W16231  16.645  20.065   3.230
43807W        W16232   9.326  13.709  13.244
43808W        W16233  42.966  24.777  13.812
43809W        W16234  39.904  35.652   4.282
43810W        W16235  39.754  19.158   2.255
43811W        W16236   5.878   8.339   0.731
43812W        W16237   1.685  11.736  12.003
43813W        W16238  20.739  31.762   2.395
43814W        W16239  37.523  26.516   3.989
43815W        W16240  24.293  37.583   4.190
43816W        W16241  10.319  36.282  10.680
43817W        W16242  39.187  26.622  13.752
43818W        W16243  36.765  24.560   4.980
43819W        W16244  19.362  14.541  11.621
43820W        W16245  12.860  23.373   3.682
43821W        W16246   8.915  22.114  13.408
43822W        W16247  39.072  28.023  10.947
43823W        W16248  21.614  17.962   3.300
43824W        W16249  21.188  43.601   0.287
43825W        W16250  15.417  36.409  13.981
43826W        W16251  27.468  35.152  13.934
43827W        W16252   7.188  37.573   3.754
43828W        W16253  23.957  36.366   2.368
43829W        W16254  31.174  36.044  12.115
43830W        W16255  43.933  43.790   4.575
43831W        W16256  14.410   2.552   5.131
43832W        W16257  21.260   4.095  10.124
43833W        W16258  33.443  21.569  14.094
43834W        W16259   2.029  36.077  12.427
43835W        W16260  29.421  28.623   3.310
43836W        W16261  27.952  28.957  13.113
43837W        W16262  31.616   5.287   1.328
43838W        W16263  10.661  17.709   0.288
43839W        W16264   1.313  27.421   2.819
43840W        W16265  27.566  10.671   0.752
43841W        W16266  21.637  39.748  13.771
43842W        W16267  42.530  34.299  11.110
43843W        W16268  14.442  17.450   0.991
43844W        W16269  42.032  33.369  14.073
43845W        W16270  20.889  23.612  10.504
43846W        W16271  23.241  35.454   4.442
43847W        W16272  41.333  40.643   3.707
43848W        W16273  10.940  19.639  13.432
43849W        W16274   5.376  22.848  12.099
43850W        W16275  14.802  21.345  11.165
43851W        W16276  11.352  23.076   3.626
43852W        W16277   4.240  17.860   3.639
43853W        W16278  35.487  43.504  10.650
43854W        W16279  21.003  24.076   0.304
43855W        W16280  10.859   0.307  14.252
43856W        W16281   9.785  16.022  11.531
43857W        W16282  35.855   5.891  14.466
43858W        W16283  30.186  14.878  12.524
43859W        W16284  23.031   4.419   1.006
43860W        W16285  38.216  20.131  11.117
43861W        W16286  23.908  16.332  14.855
43862W        W16287  37.897   9.405  14.688
43863W        W16288  42.487  31.176  14.533
43864W        W16289  30.453  24.598  11.566
43865W        W16290  32.360  18.856   3.311
43866W        W16291  13.168  25.720  12.344
43867W        W16292  34.628  27.259   4.502
43868W        W16293  34.765  14.759   2.148
43869W        W16294  12.640  32.030  13.110
43870W        W16295  35.743  44.700  14.345
43871W        W16296  32.719  11.014  14.322
43872W        W16297  15.845   8.194  11.678
43873W        W16298  37.233  43.379  10.193
43874W        W16299   9.010  17.086  13.300
43875W        W16300   7.919  38.086  11.064
43876W        W16301  33.931  11.542   1.213
43877W        W16302  40.483  20.367   2.658
43878W        W16303  40.427   8.898  12.941
43879W        W16304   5.924  44.949   1.723
43880W        W16305  36.117  27.961  10.733
43881W        W16306  15.136  17.171  12.319
43882W        W16307  25.609   9.106  13.424
43883W        W16308  33.011   1.336  13.105
43884W        W16309   1.888  29.423   2.835
43885W        W16310  30.530  42.874   3.352
43886W        W16311  10.754  20.116  13.555
43887W        W16312  31.060  38.276   0.276
43888W        W16313  12.007  10.571   0.960
43889W        W16314  16.342  13.313   4.157
43890W        W16315  27.406  44.547   0.205
43891W        W16316  10.841  11.488   3.236
43892W        W16317  30.683  13.305   4.951
43893W        W16318  40.386  29.263   4.272
43894W        W16319  25.204  17.776   1.209
43895W        W16320  11.178   3.398   4.819
43896W        W16321  15.515  43.759  13.027
43897W        W16322  24.013   8.631   3.195
43898W        W16323   3.318   7.634   0.404
43899W        W16324  29.178  27.177   2.467
43900W        W16325  42.906   8.761   3.253
43901W        W16326  16.766  39.352  14.423
43902W        W16327  37.220  20.558  13.944
43903W        W16328   7.943  13.223   2.822
43904W        W16329  35.108  21.300   3.785
43905W        W16330  40.503  43.509  12.933
43906W        W16331   7.998   4.440  14.713
43907W        W16332  38.050   6.274  11.666
43908W        W16333  44.809   8.748   3.174
43909W        W16334  38.803   5.400   0.337
43910W        W16335   7.598  12.087  10.741
43911W        W16336  33.378  12.364  10.621
43912W        W16337  38.684  17.208   3.855
43913W        W16338  37.654   6.946  12.559
43914W        W16339  33.101  21.240  11.135
43915W        W16340  25.114  23.657   0.897
43916W        W16341   8.154  19.200  13.806
43917W        W16342   1.787  32.427   2.303
43918W        W16343  19.189  36.023  10.739
43919W        W16344  34.894  25.531   2.211
43920W        W16345  14.948   2.764  14.240
43921W        W16346   6.199   4.844   2.150
43922W        W16347  38.400  42.771   0.752
43923W        W16348   2.965  26.499   0.145
43924W        W16349  22.505   6.809  11.102
43925W        W16350  11.315  40.937   0.266
43926W        W16351  30.028  11.875  14.473
43927W        W16352  43.737  16.804   1.700
43928W        W16353  36.990  34.925   1.812
43929W        W16354   9.047   3.311   1.442
43930W        W16355  19.843  44.998  11.381
43931W        W16356  24.036  39.560  12.979
43932W        W16357  42.660  29.650   2.840
43933W        W16358  25.499  10.288   4.249
43934W        W16359   2.982  29.705   3.870
43935W        W16360   4.171  40.079   3.301
43936W        W16361  18.295  42.094   3.591
43937W        W16362   4.168  43.212   2.857
43938W        W16363  39.208  32.787  13.013
43939W        W16364  25.422  14.064   0.023
43940W        W16365  19.986  25.518  11.066
43941W        W16366  39.344  26.750  13.120
43942W        W16367   6.740  28.461   4.618
43943W        W16368   7.992  21.690   3.220
43944W        W16369   3.780  44.378   1.744
43945W        W16370  32.456  31.780  11.502
43946W        W16371  43.681  41.579   3.169
43947W        W16372  26.490  26.251  11.586
43948W        W16373  32.093  23.401  11.021
43949W        W16374  22.293   6.381   4.007
43950W        W16375  16.777  34.087  14.519
43951W        W16376   5.599  15.665  11.505
43952W        W16377  32.481  20.766  11.095
43953W        W16378  13.568  27.624   2.682
43954W        W16379   3.985  17.686  14.112
43955W        W16380  38.837  43.512  11.009
43956W        W16381  22.816  22.166  14.708
43957W        W16382  29.129  13.601   0.306
43958W        W16383  27.472  30.436   2.201
43959W        W16384  37.979  37.555  10.417
43960W        W16385  14.739  14.062   4.126
43961W        W16386  32.468  13.128  11.628
43962W        W16387  41.794  42.971  10.738
43963W        W16388  36.605  11.316  11.023
43964W        W16389  22.098  25.086   4.377
43965W        W16390  42.958  19.992  14.949
43966W        W16391   2.256  22.808  14.816
43967W        W16392  27.959   3.181   3.756
43968W        W16393  36.274   7.724   2.373
43969W        W16394   2.773  17.129  12.932
43970W        W16395   5.320  14.644  13.169
43971W        W16396  39.314   2.954   3.359
43972W        W16397  36.024  29.458   0.346
43973W        W16398   0.747  25.646  14.826
43974W        W16399  28.157  34.655   3.702
43975W        W16400   4.712  21.250  11.738
43976W        W16401  17.591  18.357  10.966
43977W        W16402  12.164  31.906  11.996
43978W        W16403  43.261   3.477   3.650
43979W        W16404  24.558  24.038   4.585
43980W        W16405  34.563  19.183   4.202
43981W        W16406   3.121  33.259   4.080
43982W        W16407  29.418  13.685  12.550
43983W        W16408  13.784  41.876   3.182
43984W        W16409  26.965  25.481   0.383
43985W        W16410  11.260  39.739   3.309
43986W        W16411  19.713  42.067   4.735
43987W        W16412  32.913  44.201  13.827
43988W        W16413   7.947  20.106  12.860
43989W        W16414  37.511  25.084   3.657
43990W        W16415  17.039  30.721   1.135
43991W        W16416  20.529  32.940   2.850
43992W        W16417   5.951  33.331   3.991
43993W        W16418  39.821   6.163   3.753
43994W        W16419  32.575  42.818   1.388
43995W        W16420  27.954   3.698   4.006
43996W        W16421   0.910  17.302   3.760
43997W        W16422  17.199  26.947  14.909
43998W        W16423  43.258   4.133   4.840
43999W        W16424  34.474  37.334   2.491
44000W        W16425  23.897  41.152  12.901
44001W        W16426   4.974  30.983  14.462
44002W        W16427  41.595  44.327   3.771
44003W        W16428   2.966  29.267   3.624
44004W        W16429  19.342  37.975  12.094
44005W        W16430  44.505  26.261  13.537
44006W        W16431  12.550  37.816  10.611
44007W        W16432  15.700  22.231  12.144
44008W        W16433  21.329  24.782  14.511
44009W        W16434   2.167  44.705   0.828
44010W        W16435  43.657   1.181   1.835
44011W        W16436  43.504  36.894   4.877
44012W        W16437  14.401   2.377  12.065
44013W        W16438  25.601  30.632   1.689
44014W        W16439   1.454  20.300  12.975
44015W        W16440  16.503  34.369  14.167
44016W        W16441  34.321  25.606  12.941
44017W        W16442  31.152  31.019   2.710
44018W        W16443  44.779   9.420  14.771
44019W        W16444  12.811  43.551  13.681
44020W        W16445   2.341   0.863  14.543
44021W        W16446  19.836  30.686  10.588
44022W        W16447  32.177  23.654  13.541
44023W        W16448   7.309  44.786  14.877
44024W        W16449  19.856  28.108  13.870
44025W        W16450   3.483  31.003  11.684
44026W        W16451  24.087  21.597   2.384
44027W        W16452   3.078  36.463  13.551
44028W        W16453  12.628  24.552  12.341
44029W        W16454  34.367   3.391   4.381
44030W        W16455  13.843  31.160   3.683
44031W        W16456  36.138  25.026   4.184
44032W        W16457  39.412   9.431   0.788
44033W        W16458  34.152  23.991   2.739
44034W        W16459  30.592  32.367  12.998
44035W        W16460  25.507  32.486   0.989
44036W        W16461  25.034   3.185   1.775
44037W        W16462  17.695   6.020   1.996
44038W        W16463  20.794  28.773  11.012
44039W        W16464  39.248  17.478   1.783
44040W        W16465   1.473   8.897  13.771
44041W        W16466  36.504  23.568   9.809
44042W        W16467   9.331  23.066  13.088
44043W        W16468  19.217  35.432   2.142
44044W        W16469  44.146  29.929   1.279
44045W        W16470  31.022  15.808  11.432
44046W        W16471  29.547  37.098  14.263
44047W        W16472  36.686  35.450   0.786
44048W        W16473  36.482  44.349   1.027
44049W        W16474  22.569  31.595  11.979
44050W        W16475  14.773  35.078  12.393
44051W        W16476  26.003  25.732   3.074
44052W        W16477  35.650   0.435  12.367
44053W        W16478  12.740   1.413  13.805
44054W        W16479  25.630  28.860  14.842
44055W        W16480  38.805  20.583   1.221
44056W        W16481  20.088   4.397  11.715
44057W        W16482   1.027  41.952   4.338
44058W        W16483  13.364  10.293  10.533
44059W        W16484  38.944   9.653   0.864
44060W        W16485   3.812  35.567   4.777
44061W        W16486  43.494   2.776  12.221
44062W        W16487   0.944  26.721  13.782
44063W        W16488  42.477  30.958   3.781
44064W        W16489   6.263  18.852  12.192
44065W        W16490   5.309  18.647  13.072
44066W        W16491   9.965  24.919  12.918
44067W        W16492  24.318  25.014  12.461
44068W        W16493  36.116  37.748   3.562
44069W        W16494  34.880  27.566   2.693
44070W        W16495  18.167  41.553   0.447
44071W        W16496  30.785  17.302   2.229
44072W        W16497  23.482  34.457  14.894
44073W        W16498  15.012  35.499  13.619
44074W        W16499  39.030  18.279   4.066
44075W        W16500  15.206  30.462  11.302
44076W        W16501  16.336  29.199  14.720
44077W        W16502  34.975   3.183   2.648
44078W        W16503  16.636  23.318  12.586
44079W        W16504   4.460   9.049  11.398
44080W        W16505  32.642  33.822  12.777
44081W        W16506   2.188  19.687   5.081
44082W        W16507  15.692  15.111   1.956
44083W        W16508   7.516  15.153   0.543
44084W        W16509  24.085  10.418   1.939
44085W        W16510   0.290  44.244  11.937
44086W        W16511  14.480  31.036   4.974
44087W        W16512  31.057  33.959  14.721
44088W        W16513   3.846  41.427  13.000
44089W        W16514  28.127  33.599  12.524
44090W        W16515  43.769   9.279   1.235
44091W        W16516   3.994  22.887  11.983
44092W        W16517  29.753  11.155   2.356
44093W        W16518  31.853  17.970   2.844
44094W        W16519  27.585  15.170   4.069
44095W        W16520  30.552  11.800  13.774
44096W        W16521  12.633  18.616   0.812
44097W        W16522  37.437  15.819   0.531
44098W        W16523   8.435  39.961  14.810
44099W        W16524  43.042  31.213   3.809
44100W        W16525  17.437  31.808  10.556
44101W        W16526   3.649  12.045  11.053
44102W        W16527   5.113  31.571  14.961
44103W        W16528   6.640  16.511  14.404
44104W        W16529  42.772  27.661   3.742
44105W        W16530   2.431   6.830  14.338
44106W        W16531  34.486  35.480  10.819
44107W        W16532   7.636  44.341   3.234
44108W        W16533  21.708  18.127   2.823
44109W        W16534  42.478  17.657  10.435
44110W        W16535  13.007  23.483   1.909
44111W        W16536  11.484  12.597  13.548
44112W        W16537  40.977  26.493  14.402
44113W        W16538  40.284  30.549  14.733
44114W        W16539  26.570  18.338   3.956
44115W        W16540   5.441  24.452   1.679
44116W        W16541  22.418  13.830   1.259
44117W        W16542   8.876  31.030  13.859
44118W        W16543  21.311  43.363   2.163
44119W        W16544   9.006  40.858   4.553
44120W        W16545  43.402  32.818   1.843
44121W        W16546   6.149  43.486  13.400
44122W        W16547  27.405  33.865   0.324
44123W        W16548  23.899  28.382  11.193
44124W        W16549  32.233  36.828   3.842
44125W        W16550  11.888   7.829   2.298
44126W        W16551  38.483   3.184  13.520
44127W        W16552  13.382  24.251   2.381
44128W        W16553   1.229  23.497  13.046
44129W        W16554  13.258  43.363  12.145
44130W        W16555   1.224   4.381  14.241
44131W        W16556  43.032  22.564  13.923
44132W        W16557  13.581  40.468   2.822
44133W        W16558   7.645  19.944   3.136
44134W        W16559   6.776   2.840   0.937
44135W        W16560   1.815  22.410  12.616
44136W        W16561  15.674   7.427   4.581
44137W        W16562  42.120  12.387   3.635
44138W        W16563  26.550  21.054   0.007
44139W        W16564  44.075  42.065  12.652
44140W        W16565  34.893  16.111   1.955
44141W        W16566  42.972   6.343   4.019
44142W        W16567  15.958  25.844  14.387
44143W        W16568  38.486  28.751  14.457
44144W        W16569  23.218  40.341  10.639
44145W        W16570  14.912   2.336  12.120
44146W        W16571  30.467  19.967   1.806
44147W        W16572  44.852  10.643  12.395
44148W        W16573  22.706  42.392   0.383
44149W        W16574   1.338  20.219   0.839
44150W        W16575  18.610   1.330  10.361
44151W        W16576   3.814  41.288  12.092
44152W        W16577  26.173  31.064  14.034
44153W        W16578  32.403  35.346  14.965
44154W        W16579  29.106  43.120  12.993
44155W        W16580  31.282  39.646  14.864
44156W        W16581  10.756   9.263   3.632
44157W        W16582  21.281  42.771  12.868
44158W        W16583  28.152  27.432   0.220
44159W        W16584  15.947  13.799   2.877
44160W        W16585  29.334  17.612  12.369
44161W        W16586  15.422  38.552   3.527
44162W        W16587  20.661  28.994   0.800
44163W        W16588  19.790   0.887  10.154
44164W        W16589  10.358  25.671   2.863
44165W        W16590  32.684  25.616   2.203
44166W        W16591   7.853  25.066   2.749
44167W        W16592   1.765   7.279   4.144
44168W        W16593  40.912  24.618  13.789
44169W        W16594  40.383  29.476   2.196
44170W        W16595  28.508  32.911  10.301
44171W        W16596  31.201  21.550  10.575
44172W        W16597  29.164  32.148   2.350
44173W        W16598  42.288   5.373   1.495
44174W        W16599   6.333  21.768  10.782
44175W        W16600   2.912  12.130  13.973
44176W        W16601  19.195  42.386  11.137
44177W        W16602  22.229  28.938  12.754
44178W        W16603  41.044  21.117   4.173
44179W        W16604   9.304  18.678  14.352
44180W        W16605  24.171   9.277   3.181
44181W        W16606  35.280  21.710   0.529
44182W        W16607  43.448  14.335   3.197
44183W        W16608  33.159  19.258   0.914
44184W        W16609  24.047  16.157   2.426
44185W        W16610  26.616  19.131  11.468
44186W        W16611   9.602  20.777   1.361
44187W        W16612   2.173  43.926  10.957
44188W        W16613  12.763   9.308   4.088
44189W        W16614   7.323   8.334  11.536
44190W        W16615  24.647  22.463   0.810
44191W        W16616  43.910  37.410  12.122
44192W        W16617  29.507  40.942   3.703
44193W        W16618  13.843  43.555   1.405
44194W        W16619   5.421  35.076   2.662
44195W        W16620  18.676  41.880   2.362
44196W        W16621   9.074   1.255   3.857
44197W        W16622   9.216  41.231  13.337
44198W        W16623  43.583   4.211  14.259
44199W        W16624   5.418  16.575  13.895
44200W        W16625  27.140  32.926   0.446
44201W        W16626  21.254   1.192   1.406
44202W        W16627  29.893  28.275   2.012
44203W        W16628   9.693  29.567   4.916
44204W        W16629  24.019  37.021  13.974
44205W        W16630   8.294  39.480  14.085
44206W        W16631   8.360  39.324   4.161
44207W        W16632   6.985  40.302   2.071
44208W        W16633  19.146  13.841  14.288
44209W        W16634   8.198   0.922   1.256
44210W        W16635  36.526  40.845  12.974
44211W        W16636  41.968   2.239   1.862
44212W        W16637  26.436  24.248   3.847
44213W        W16638  34.540  44.903  14.996
44214W        W16639   2.427   2.831   0.432
44215W        W16640   6.744  44.552   3.136
44216W        W16641  38.448  35.277  12.128
44217W        W16642  27.495  21.667  13.990
44218W        W16643  39.085   1.371  12.924
44219W        W16644  25.113  13.173  14.235
44220W        W16645  31.517   2.646   1.326
44221W        W16646   4.924  16.761  13.895
44222W        W16647   3.808  28.570   4.677
44223W        W16648  36.609  35.028  11.936
44224W        W16649  33.469  33.531  13.048
44225W        W16650  29.645  35.519   2.230
44226W        W16651  25.404  17.789  14.415
44227W        W16652  27.255   9.123   0.713
44228W        W16653  13.635  29.607  10.743
44229W        W16654  11.411  42.930   1.808
44230W        W16655  37.359  40.236  11.047
44231W        W16656  18.047  30.663   0.286
44232W        W16657  19.911  18.088  11.632
44233W        W16658  17.281   0.997   2.634
44234W        W16659  36.679  17.881   9.574
44235W        W16660   5.566  11.203  12.913
44236W        W16661  35.925  38.476  13.839
44237W        W16662  37.069  12.727  13.845
44238W        W16663  29.555  35.230   4.675
44239W        W16664  42.789  24.189   2.786
44240W        W16665  11.320  37.759   3.474
44241W        W16666  39.868  13.581  12.076
44242W        W16667   1.353  30.434  11.013
44243W        W16668   0.299  42.699   3.625
44244W        W16669  44.696  23.173   0.269
44245W        W16670  29.059  21.545  13.185
44246W        W16671  28.933  44.930  12.957
44247W        W16672   8.676  42.476   4.770
44248W        W16673   2.511  41.649   0.891
44249W        W16674  39.358  22.735   2.175
44250W        W16675  14.405   8.159  13.470
44251W        W16676   8.935   8.229   0.827
44252W        W16677   1.430  29.644   2.697
44253W        W16678  15.974  27.519  10.123
44254W        W16679  29.531   6.221  13.431
44255W        W16680  28.935  33.362   0.764
44256W        W16681  41.812  30.810  14.955
44257W        W16682  25.909  10.165  14.271
44258W        W16683  12.128   4.979  13.851
44259W        W16684  41.771  40.602  10.634
44260W        W16685  44.018  22.842   1.720
44261W        W16686  20.459  14.580   0.835
44262W        W16687  26.217  23.089  11.508
44263W        W16688  15.696  34.384   4.510
44264W        W16689   5.297   9.924  13.945
44265W        W16690  23.756  42.136  11.481
44266W        W16691  44.528  23.319  14.790
44267W        W16692  27.068   5.177  11.120
44268W        W16693  14.331   3.173   3.201
44269W        W16694  14.419  31.921  12.971
44270W        W16695   3.879  30.933   0.848
44271W        W16696   7.792  36.118  14.247
44272W        W16697  27.040  24.304   1.143
44273W        W16698  44.443  35.163  13.818
44274W        W16699  31.493  15.864   5.073
44275W        W16700  23.425  12.430   0.812
44276W        W16701  27.454  41.256   4.728
44277W        W16702   2.995  13.318   4.093
44278W        W16703   0.726  44.822   4.663
44279W        W16704   8.301  36.521   3.739
44280W        W16705  35.427   9.566  13.006
44281W        W16706  26.047  35.126   1.748
44282W        W16707  37.000  41.284   2.337
44283W        W16708   0.834   8.399  12.041
44284W        W16709   9.170   8.657   3.294
44285W        W16710  23.490  40.477   3.401
44286W        W16711   8.881  37.430  10.199
44287W        W16712  13.311   5.855  11.067
44288W        W16713   9.601  22.640  13.272
44289W        W16714  16.307  14.736   1.273
44290W        W16715  39.533  27.215   4.915
44291W        W16716  35.383  34.522  14.046
44292W        W16717  34.448  39.051   3.656
44293W        W16718   4.637  27.205  11.118
44294W        W16719   4.825  24.246   2.782
44295W        W16720  28.544  23.082   3.626
44296W        W16721  18.777  39.675  10.715
44297W        W16722  33.588  39.014   2.770
44298W        W16723   5.458  27.375   2.607
44299W        W16724   4.648   1.680  11.598
44300W        W16725   0.037  41.220   2.286
44301W        W16726  10.530  10.249  10.587
44302W        W16727  40.495   1.858  12.660
44303W        W16728  15.382  31.109   0.239
44304W        W16729   7.642  42.254   4.382
44305W        W16730  38.861  36.202  11.210
44306W        W16731  30.724  20.596  11.535
44307W        W16732  11.224  21.615  13.939
44308W        W16733  18.341  23.970  13.063
44309W        W16734   3.775  41.117  13.435
44310W        W16735  10.569  21.206  11.304
44311W        W16736  33.399  26.319  14.901
44312W        W16737  16.799  41.850   0.445
44313W        W16738  40.251  42.855   5.208
44314W        W16739  33.077  38.828   1.542
44315W        W16740  39.207  19.741   1.204
44316W        W16741   1.853  12.391   2.816
44317W        W16742   5.736  23.494   0.263
44318W        W16743  24.899  13.249  14.698
44319W        W16744   2.692  31.067  14.233
44320W        W16745  28.413  12.139  11.148
44321W        W16746   6.927   1.358   1.028
44322W        W16747  38.113  36.450  12.892
44323W        W16748   2.513  20.354  11.702
44324W        W16749  27.989  25.403  11.206
44325W        W16750  22.156   9.744  11.621
44326W        W16751   1.634   5.824  14.552
44327W        W16752  26.645   1.818   1.763
44328W        W16753  20.495  17.929   3.602
44329W        W16754  14.634  31.735  14.252
44330W        W16755  32.883  44.507  14.397
44331W        W16756  15.171  16.233  13.311
44332W        W16757  37.912   5.676  12.446
44333W        W16758   0.739   4.232   3.135
44334W        W16759  27.985  21.115   0.602
44335W        W16760  12.175  23.359   2.241
44336W        W16761  12.345  15.130  13.703
44337W        W16762  39.143  27.121  12.036
44338W        W16763  29.987  22.564  13.525
44339W        W16764  32.635  10.184  11.434
44340W        W16765  13.804  20.106  10.554
44341W        W16766  34.903  15.738  11.674
44342W        W16767  35.857  18.279   2.775
44343W        W16768  16.259  36.834   3.536
44344W        W16769  36.430   2.917   0.062
44345W        W16770  25.811   6.004  10.664
44346W        W16771  28.847  40.863   0.929
44347W        W16772   2.452  31.972   4.348
44348W        W16773  17.625   5.414  11.202
44349W        W16774  16.621  40.822   0.362
44350W        W16775  16.735  26.576   4.062
44351W        W16776  19.237  43.670  11.592
44352W        W16777   9.202   2.408   0.462
44353W        W16778  33.635  23.989  11.518
44354W        W16779  18.831  32.924  10.644
44355W        W16780  21.024  24.600   0.394
44356W        W16781   8.610  12.829   4.167
44357W        W16782  24.709  29.876   0.002
44358W        W16783  31.638  22.050  14.511
44359W        W16784  13.151  28.655  14.346
44360W        W16785  20.625  26.880  12.445
44361W        W16786  26.765  42.399  11.199
44362W        W16787  19.515   2.475  13.916
44363W        W16788   9.668  42.770  14.270
44364W        W16789  25.068  44.436   3.332
44365W        W16790   5.669   3.372  14.411
44366W        W16791  11.333  28.665  11.037
44367W        W16792  27.855  30.685   0.359
44368W        W16793   3.009  35.918  13.550
44369W        W16794  11.311  36.362   1.803
44370W        W16795   0.313  13.076  13.961
44371W        W16796   2.437   8.733  11.159
44372W        W16797  43.315  13.296  14.756
44373W        W16798  11.312  16.163   0.110
44374W        W16799  22.999   1.675   1.263
44375W        W16800  11.655  44.598  13.773
44376W        W16801  40.482  11.671   0.315
44377W        W16802  31.376   1.789  13.515
44378W        W16803  43.781  20.566  11.208
44379W        W16804  27.418  23.445  12.506
44380W        W16805  25.452  13.256  13.278
44381W        W16806  30.106  42.898   0.592
44382W        W16807  30.445   9.716   1.382
44383W        W16808  21.040  10.157  11.981
44384W        W16809  43.983  28.633   0.948
44385W        W16810  32.692  36.572   3.799
44386W        W16811   4.869  38.522  13.848
44387W        W16812   1.550   2.370  13.499
44388W        W16813  40.884  20.263  12.041
44389W        W16814   3.945  34.300   2.790
44390W        W16815  38.494  42.842   5.450
44391W        W16816  41.778  19.081   3.776
44392W        W16817  11.954  23.223  13.459
44393W        W16818  15.862  25.032  14.346
44394W        W16819   0.719  43.047   3.719
44395W        W16820  29.683  27.158  10.765
44396W        W16821  26.649  17.583   3.682
44397W        W16822  42.458  24.501   1.930
44398W        W16823  26.580   7.763   1.553
44399W        W16824   5.342   8.116   2.090
44400W        W16825  33.963  39.511   4.614
44401W        W16826  16.217  38.124   0.721
44402W        W16827  34.148  33.118   3.264
44403W        W16828  15.253   2.236  11.747
44404W        W16829  15.720  41.278  11.002
44405W        W16830  34.090  12.324   3.192
44406W        W16831  44.354  34.984   4.562
44407W        W16832  31.960  37.793   4.049
44408W        W16833  25.642  28.233   4.247
44409W        W16834   1.730  25.654  11.096
44410W        W16835   2.684   3.874  13.534
44411W        W16836  29.247  28.441  10.850
44412W        W16837   8.722   9.160  10.785
44413W        W16838  27.293  19.003  13.018
44414W        W16839  24.013  44.238  13.415
44415W        W16840   8.364  41.810   0.855
44416W        W16841  19.986   3.870  10.640
44417W        W16842  23.892  28.909   3.863
44418W        W16843  21.616  20.581   0.898
44419W        W16844  36.333  22.169   4.153
44420W        W16845  17.291  43.997  11.480
44421W        W16846  14.335  37.119   2.019
44422W        W16847  31.467  31.174   1.776
44423W        W16848  24.279   8.653   2.280
44424W        W16849   1.419  20.435   0.342
44425W        W16850  31.574  40.031   0.100
44426W        W16851  12.327   9.893  13.512
44427W        W16852  42.250  33.412   4.085
44428W        W16853  13.089  26.254   2.253
44429W        W16854  43.779  20.793  13.543
44430W        W16855  29.418  23.215  12.441
44431W        W16856  16.527  10.615  14.245
44432W        W16857   3.957  29.647  14.097
44433W        W16858  19.441  14.197  14.584
44434W        W16859  31.712  26.159   0.243
44435W        W16860  40.929  17.955   3.709
44436W        W16861  41.093  11.806  11.840
44437W        W16862   6.548  21.475  13.417
44438W        W16863   0.916   5.614  13.873
44439W        W16864   1.138  44.566  10.352
44440W        W16865  31.005   2.807   4.090
44441W        W16866  24.531  22.696   1.838
44442W        W16867  40.823   5.905   0.758
44443W        W16868   0.243  17.659  10.416
44444W        W16869  10.707   2.539   0.680
44445W        W16870  43.040  15.538   2.384
44446W        W16871  24.157   0.267  13.339
44447W        W16872  18.300  28.121   2.218
44448W        W16873  41.866  39.969   0.369
44449W        W16874  26.461  10.349   2.699
44450W        W16875   4.431  24.537  10.632
44451W        W16876  43.751  37.538  13.960
44452W        W16877  30.633  38.737  12.399
44453W        W16878  26.177  11.773  11.371
44454W        W16879  41.437   7.139  14.598
44455W        W16880  29.044  18.394  10.683
44456W        W16881  26.636  21.380  11.156
44457W        W16882  14.888  25.914  11.982
44458W        W16883  16.972  12.568   3.883
44459W        W16884  31.143  41.809  14.030
44460W        W16885  14.211  13.624  14.333
44461W        W16886  23.009   6.292  14.909
44462W        W16887  30.025  32.045   2.264
44463W        W16888  11.542  16.128   0.564
44464W        W16889  12.276  44.452   2.089
44465W        W16890  33.639  27.543  13.461
44466W        W16891  28.560  16.511   2.312
44467W        W16892  16.994  38.388   3.707
44468W        W16893  10.240  39.040  13.399
44469W        W16894  24.165  37.880  13.395
44470W        W16895  43.241  41.830  12.923
44471W        W16896  11.908  28.621  13.894
44472W        W16897  25.488   9.758  11.917
44473W        W16898  21.534  30.627   4.078
44474W        W16899  42.437  13.932  14.531
44475W        W16900  43.994   4.895   1.282
44476W        W16901  25.642  17.039   1.000
44477W        W16902  22.529  31.348  11.524
44478W        W16903  29.025  36.313  14.255
44479W        W16904   0.292  32.384   2.576
44480W        W16905  42.066  15.120  11.247
44481W        W16906   3.581   6.627   5.132
44482W        W16907  35.861  11.464   4.575
44483W        W16908   1.208  22.706   3.628
44484W        W16909  23.318   7.222   2.907
44485W        W16910   8.282   6.025   4.628
44486W        W16911   3.435  22.581   1.312
44487W        W16912  35.655  44.023  12.433
44488W        W16913   5.853  10.758   0.754
44489W        W16914  13.929   0.372   2.974
44490W        W16915   0.962  27.087   1.358
44491W        W16916  13.780  36.175  12.487
44492W        W16917  16.619  33.374  11.549
44493W        W16918  35.986  17.347   2.892
44494W        W16919   2.444  25.403   0.714
44495W        W16920  19.508  30.207  12.535
44496W        W16921  13.929  44.847  13.586
44497W        W16922  40.346  16.821  13.419
44498W        W16923   7.435  39.267  13.922
44499W        W16924  31.336  14.126  11.577
44500W        W16925   4.465   9.359  14.910
44501W        W16926   4.187  33.562  10.495
44502W        W16927  36.544   1.223  10.695
44503W        W16928  30.439  17.895   3.762
44504W        W16929  12.716   8.400   3.210
44505W        W16930  31.974  21.096   0.371
44506W        W16931   0.466  34.060   4.525
44507W        W16932   8.121  34.348   3.130
44508W        W16933   0.369  27.513  14.076
44509W        W16934  13.689  17.323   1.401
44510W        W16935   9.321  30.684  10.736
44511W        W16936  19.726  25.530  13.345
44512W        W16937  44.439  10.697  13.967
44513W        W16938  23.537   4.227   4.141
44514W        W16939  31.895  23.130   2.879
44515W        W16940  41.387  43.443  11.365
44516W        W16941   8.419  41.923  12.507
44517W        W16942  26.567  27.843  13.489
44518W        W16943  32.950  23.462  14.851
44519W        W16944  33.766  12.547   2.837
44520W        W16945  29.399  16.679   2.693
44521W        W16946   5.223   5.211   0.686
44522W        W16947  10.678  32.727   2.456
44523W        W16948   4.490  20.576  13.531
44524W        W16949  20.144  38.556  14.306
44525W        W16950  42.565  14.439  14.438
44526W        W16951  34.100   2.639  14.032
44527W        W16952   7.156  26.897  11.160
44528W        W16953   7.893  31.649  14.326
44529W        W16954   2.969  28.609  14.308
44530W        W16955   9.391  44.877   3.227
44531W        W16956  23.457  40.869   2.235
44532W        W16957  17.251   2.767   0.886
44533W        W16958  21.078  41.242  13.402
44534W        W16959  33.486  17.796  12.488
44535W        W16960  38.430  43.042   1.209
44536W        W16961  39.861  40.919   3.693
44537W        W16962   3.458  33.570  13.971
44538W        W16963  38.371  21.558   4.355
44539W        W16964  34.839  26.424   1.429
44540W        W16965  26.495  38.783  13.414
44541W        W16966  35.394  30.985  12.094
44542W        W16967  35.528  40.549  13.457
44543W        W16968  23.531  37.830  12.676
44544W        W16969   8.863  23.676  11.485
44545W        W16970  26.091  36.894   2.928
44546W        W16971  12.688  42.032   3.996
44547W        W16972  33.347  28.934  12.786
44548W        W16973   8.213  40.894  10.455
44549W        W16974  21.076  18.068  12.908
44550W        W16975  36.608   7.340   1.861
44551W        W16976   6.856   8.213  13.160
44552W        W16977  30.629   1.801  11.166
44553W        W16978  18.489  26.415  10.335
44554W        W16979  31.495   9.175   1.858
44555W        W16980  20.776  14.158   4.421
44556W        W16981  29.178   8.426   3.290
44557W        W16982  40.807  39.557   3.254
44558W        W16983  41.394   8.788   1.783
44559W        W16984  23.318  21.136   1.210
44560W        W16985   0.555  17.998  13.214
44561W        W16986  13.481   6.145   2.803
44562W        W16987  42.062  26.918   2.733
44563W        W16988  42.282   2.752  11.138
44564W        W16989  10.780  30.465   0.870
44565W        W16990  18.764  39.424   1.313
44566W        W16991  34.325   1.385   3.348
44567W        W16992  12.660  41.609  14.288
44568W        W16993  38.973  32.852   4.055
44569W        W16994  20.182  40.923  10.772
44570W        W16995  17.661   0.528  10.635
44571W        W16996   3.218   0.834   2.678
44572W        W16997  14.481  32.513  13.087
44573W        W16998  11.696  27.458  13.474
44574W        W16999  26.993  40.076  14.836
44575W        W17000  41.512  29.691   2.074
44576W        W17001  44.338  41.850  11.594
44577W        W17002   9.323  39.296  13.455
44578W        W17003  19.575  39.789   0.264
44579W        W17004  32.318  20.140  11.843
44580W        W17005  42.375  11.995   2.863
44581W        W17006  21.675  27.487  14.444
44582W        W17007  37.337  11.661  14.289
44583W        W17008  31.438  41.006   2.526
44584W        W17009  34.046   9.149  14.434
44585W        W17010   1.263   6.326   1.831
44586W        W17011  27.826  26.081  12.780
44587W        W17012  37.862  10.308  10.470
44588W        W17013  37.618  11.249  14.467
44589W        W17014   6.657  12.914   1.713
44590W        W17015  32.915  38.637   4.644
44591W        W17016  36.520  42.863   3.108
44592W        W17017  31.416  13.282  12.254
44593W        W17018  39.985  42.517   0.462
44594W        W17019  29.085  38.837  12.446
44595W        W17020  29.195  27.972   4.156
44596W        W17021  26.211  42.819  12.505
44597W        W17022   3.781  41.978  13.098
44598W        W17023  40.378  13.315   3.991
44599W        W17024  43.277   4.719  11.140
44600W        W17025   9.522  20.008   4.813
44601W        W17026  24.994  11.092   0.454
44602W        W17027   0.143  23.691   4.132
44603W        W17028  18.252  40.321   2.614
44604W        W17029  34.680  18.236  14.989
44605W        W17030  38.578  17.368  14.841
44606W        W17031  40.474  18.411  11.068
44607W        W17032  25.059  10.855  12.697
44608W        W17033  25.563  13.699  14.466
44609W        W17034  11.704  17.998   4.405
44610W        W17035  14.623  39.244  13.068
44611W        W17036  20.613   1.661  10.737
44612W        W17037  25.592  38.120  12.016
44613W        W17038   0.304   7.178  13.359
44614W        W17039   2.356  29.629   4.557
44615W        W17040  36.255  31.986  10.859
44616W        W17041  11.333   1.853  11.515
44617W        W17042  10.927  13.701   1.650
44618W        W17043  44.387  27.446   2.764
44619W        W17044   0.428   4.132   4.914
44620W        W17045   7.253  13.511   3.564
44621W        W17046  41.941  17.599   0.845
44622W        W17047  39.405  27.156  14.421
44623W        W17048  19.605  13.698  11.595
44624W        W17049  34.597   7.055  10.890
44625W        W17050  44.244  20.245   4.734
44626W        W17051   7.882  43.873  11.537
44627W        W17052   7.280   7.865   1.422
44628W        W17053  35.023   1.450  10.971
44629W        W17054  16.683  16.744   3.653
44630W        W17055  33.638  12.324   0.992
44631W        W17056  13.164   1.239  13.481
44632W        W17057  13.022   0.285   3.190
44633W        W17058  39.675  20.560  14.815
44634W        W17059  29.086   8.205  14.032
44635W        W17060   9.129   6.380  14.054
44636W        W17061   4.219   5.873   0.883
44637W        W17062  22.175  39.060   0.577
44638W        W17063   4.666  10.829  14.726
44639W        W17064  13.416  15.354   1.208
44640W        W17065   2.085  16.459  12.375
44641W        W17066  12.132  22.304  12.144
44642W        W17067  39.957  20.600  12.439
44643W        W17068  12.204  15.184  11.967
44644W        W17069  31.892  18.780  10.433
44645W        W17070  24.165  18.783  14.746
44646W        W17071  38.892  18.443   5.254
44647W        W17072  31.510  34.488   3.485
44648W        W17073  19.259  13.702   0.952
44649W        W17074  29.619  24.254  14.776
44650W        W17075  17.900  19.152   4.127
44651W        W17076  36.949  41.954  13.949
44652W        W17077  17.724  19.000  12.365
44653W        W17078  12.355  43.426   0.577
44654W        W17079   7.222  12.768  11.376
44655W        W17080  43.398  42.822  12.853
44656W        W17081  23.236  28.485   4.727
44657W        W17082  25.878  11.309  14.606
44658W        W17083  34.096  33.658   3.323
44659W        W17084  27.269  14.090  12.564
44660W        W17085  41.293   8.184   3.855
44661W        W17086  43.923  25.462   4.475
44662W        W17087  21.572  20.137  12.417
44663W        W17088  11.877  15.150  10.762
44664W        W17089  20.771  27.522   0.474
44665W        W17090  32.843  21.836   4.095
44666W        W17091   7.038  25.670   1.655
44667W        W17092  36.715  18.419   0.956
44668W        W17093  29.081   0.662  13.337
44669W        W17094   5.692  14.841   3.231
44670W        W17095  41.904  34.844  11.571
44671W        W17096  12.225  13.548  12.037
44672W        W17097  44.487  34.756  14.137
44673W        W17098  27.003  25.489   5.013
44674W        W17099   2.653  38.372   2.150
44675W        W17100  28.150  14.031  12.005
44676W        W17101   2.946  11.340  14.576
44677W        W17102   1.323  44.789   3.596
44678W        W17103  28.932   1.923  12.958
44679W        W17104  40.263  44.033   2.432
44680W        W17105   8.821   0.291  13.424
44681W        W17106   3.365  28.926  13.603
44682W        W17107  10.603  15.996   3.821
44683W        W17108  12.113  31.842   2.718
44684W        W17109  21.142   1.063   4.201
44685W        W17110  27.438  28.645  14.456
44686W        W17111   8.672   2.382  11.413
44687W        W17112  40.911   7.766   0.846
44688W        W17113  33.444  16.732   3.630
44689W        W17114  38.695  21.046   2.914
44690W        W17115  39.098  38.448  12.086
44691W        W17116   9.032  40.354   3.157
44692W        W17117  37.973  19.179   1.460
44693W        W17118   2.813  12.807  12.470
44694W        W17119  28.584  12.941   2.770
44695W        W17120  34.858   8.885   0.838
44696W        W17121  29.251  13.640  13.058
44697W        W17122  23.576  12.870   3.698
44698W        W17123   7.609  35.661  13.354
44699W        W17124  35.690  41.419   3.658
44700W        W17125  22.176  18.341   5.089
44701W        W17126   2.836  15.399   0.334
44702W        W17127  26.510  17.788  13.090
44703W        W17128  24.756   3.873   0.900
44704W        W17129  28.829  37.893   1.643
44705W        W17130  12.159  28.310  11.730
44706W        W17131  18.305   5.375  12.038
44707W        W17132   0.988   0.196   1.913
44708W        W17133  34.417  37.892   0.281
44709W        W17134  12.945   7.761   4.208
44710W        W17135  35.910   5.440   2.876
44711W        W17136  10.084   2.947   2.453
44712W        W17137   0.654  30.020   0.460
44713W        W17138  35.024  21.977   3.083
44714W        W17139  38.871   1.109   0.222
44715W        W17140   0.312   9.142   4.628
44716W        W17141  44.311  19.768  11.610
44717W        W17142  15.476   0.236   4.994
44718W        W17143   2.693  27.424   2.437
44719W        W17144  30.098   6.357   3.837
44720W        W17145  39.327  26.720  11.779
44721W        W17146  17.873  10.784  12.566
44722W        W17147  28.082  31.645   0.974
44723W        W17148  39.313  33.405   2.952
44724W        W17149  18.558  30.194   2.421
44725W        W17150  29.404  31.465  11.000
44726W        W17151  10.294   5.689   0.880
44727W        W17152  24.540   4.664   3.245
44728W        W17153  44.939  19.800   0.813
44729W        W17154   0.938  11.808  13.975
44730W        W17155  26.396   3.722   2.636
44731W        W17156  24.165  41.454   1.413
44732W        W17157   2.638  11.258   0.541
44733W        W17158  14.997  30.905   2.030
44734W        W17159  44.811  42.701   4.782
44735W        W17160  23.943  33.499  14.443
44736W        W17161  14.166  33.628   0.622
44737W        W17162  34.404   1.307  11.462
44738W        W17163  14.689   5.629  12.752
44739W        W17164  33.585  41.386   4.635
44740W        W17165   2.958   5.433   3.810
44741W        W17166  30.986  30.941   1.728
44742W        W17167  11.578  35.268   1.370
44743W        W17168  21.160  10.089   0.484
44744W        W17169  22.216  35.891   3.196
44745W        W17170  10.155  35.363   1.348
44746W        W17171   2.194   6.911   2.746
44747W        W17172  36.615  40.271  11.543
44748W        W17173   9.702  13.285  11.689
44749W        W17174  40.964  26.546  13.844
44750W        W17175  29.466   6.605  12.462
44751W        W17176   2.483  20.989  12.994
44752W        W17177   4.707  41.436  12.039
44753W        W17178  26.651  26.134  11.110
44754W        W17179  23.454   6.928  10.644
44755W        W17180  10.472   0.544   5.069
44756W        W17181  32.531  19.314  11.045
44757W        W17182  17.222  43.833   0.026
44758W        W17183  27.418  29.495   0.292
44759W        W17184  13.210  13.356  11.294
44760W        W17185  34.534  27.115  13.399
44761W        W17186  28.007  25.273  13.766
44762W        W17187  31.766   5.211   3.641
44763W        W17188   0.282  28.988  14.084
44764W        W17189   3.172  31.904   3.731
44765W        W17190   7.558  35.159  11.580
44766W        W17191  28.428  28.691   1.800
44767W        W17192  23.244   4.212  12.742
44768W        W17193  31.884  11.574  11.107
44769W        W17194   3.506  42.342   2.839
44770W        W17195   6.930  35.400  10.437
44771W        W17196  39.092  33.594   2.486
44772W        W17197   3.870   2.018  14.329
44773W        W17198  13.416  17.577   2.333
44774W        W17199  40.872  34.372  14.106
44775W        W17200  40.427   4.827   2.907
44776W        W17201  37.930  33.185   0.395
44777W        W17202  17.050  37.547   0.950
44778W        W17203  26.052  20.063   3.328
44779W        W17204   2.893  32.002   1.433
44780W        W17205   1.166   1.055  14.303
44781W        W17206   8.288  14.314  14.702
44782W        W17207  12.635  34.298  11.919
44783W        W17208   3.889   6.181   4.076
44784W        W17209  21.990   8.392   4.304
44785W        W17210  25.938  22.926  13.881
44786W        W17211  38.314  12.678  12.986
44787W        W17212   9.740  17.316  11.284
44788W        W17213  37.960  26.709   1.415
44789W        W17214  41.840  26.558   0.838
44790W        W17215   9.894   9.025  10.744
44791W        W17216  29.546  25.602   2.644
44792W        W17217  38.299  14.505  11.238
44793W        W17218  32.365  40.121  14.085
44794W        W17219  32.611  24.572  11.133
44795W        W17220   6.393   2.583  14.694
44796W        W17221  23.479  25.236   3.660
44797W        W17222  19.092  41.622   4.115
44798W        W17223  44.860   5.812   0.977
44799W        W17224  15.817   3.742  12.891
44800W        W17225  22.085  35.364   0.427
44801W        W17226  11.906  32.424   2.763
44802W        W17227  26.739  13.684  11.072
44803W        W17228  31.230  15.418   3.636
44804W        W17229  16.288  39.971  12.218
44805W        W17230  42.778  14.609   3.859
44806W        W17231  39.611   2.886   1.408
44807W        W17232   7.277  41.308   3.224
44808W        W17233  13.971  15.722   2.232
44809W        W17234  28.152   4.907  11.716
44810W        W17235  16.975  17.027   0.455
44811W        W17236   5.191  30.062   0.788
44812W        W17237  10.157   2.264  14.600
44813W        W17238  35.965  14.655   4.697
44814W        W17239  12.750  32.354   1.925
44815W        W17240  38.820  35.859   4.644
44816W        W17241  11.523   0.079   1.207
44817W        W17242  29.171   7.946   2.185
44818W        W17243  36.013  27.557  11.561
44819W        W17244   3.846  29.518   4.366
44820W        W17245  27.975  34.884  14.035
44821W        W17246   8.162  16.726  14.483
44822W        W17247  44.713   3.658   2.396
44823W        W17248  35.002  28.510  11.883
44824W        W17249  18.971  22.540  11.172
44825W        W17250   5.722   7.613  12.018
44826W        W17251  22.495  14.019  14.706
44827W        W17252  19.063   0.386   3.294
44828W        W17253  40.480  28.669   3.146
44829W        W17254  39.860   0.299  12.803
44830W        W17255  30.401  18.588   2.171
44831W        W17256   4.648   2.168  11.492
44832W        W17257   7.514  22.430   4.151
44833W        W17258  22.747  16.756  14.536
44834W        W17259  18.426   9.374   1.454
44835W        W17260  40.740  12.618  12.156
44836W        W17261  32.710  39.014   5.002
44837W        W17262   2.694   7.200   3.392
44838W        W17263  32.664  35.595   1.386
44839W        W17264  40.952  19.078  13.424
44840W        W17265  16.919  25.775  13.822
44841W        W17266  38.875   5.713  11.539
44842W        W17267  36.052  19.091   3.394
44843W        W17268  11.307   4.408  10.913
44844W        W17269  37.839  25.749   0.886
44845W        W17270   5.548  37.282   1.463
44846W        W17271   4.862   7.453   4.244
44847W        W17272  39.805  40.593  11.740
44848W        W17273  17.335  10.670  11.529
44849W        W17274   6.391  28.999   3.163
44850W        W17275  17.633  20.715  10.628
44851W        W17276  44.321   4.951  12.633
44852W        W17277   7.447  30.178  10.626
44853W        W17278  32.689  42.828  12.022
44854W        W17279  13.712  20.494  13.921
44855W        W17280  36.955  39.206   1.623
44856W        W17281  31.109  19.916  13.243
44857W        W17282  25.051  32.064  10.398
44858W        W17283  40.727  38.772  10.717
44859W        W17284  13.721  10.342  13.490
44860W        W17285  21.041  43.952  13.433
44861W        W17286  15.107   4.785  14.767
44862W        W17287   5.403  19.640   0.373
44863W        W17288  18.750  32.817  13.539
44864W        W17289  35.637   6.301   1.260
44865W        W17290  23.580  33.029  14.489
44866W        W17291  40.501  28.578   2.122
44867W        W17292  21.554  31.712   3.771
44868W        W17293  42.757  25.424  13.486
44869W        W17294  17.215  10.923   1.724
44870W        W17295  30.932  28.093   2.708
44871W        W17296  41.191  33.081   4.160
44872W        W17297  10.824  14.620   1.180
44873W        W17298  41.788  20.318   0.532
44874W        W17299  41.033  24.522  14.825
44875W        W17300   0.856  18.574   1.951
44876W        W17301  28.924  40.386   2.580
44877W        W17302  35.861  18.063   1.393
44878W        W17303   5.444  39.582  13.984
44879W        W17304  20.290  25.936  14.880
44880W        W17305   1.040  30.960   1.018
44881W        W17306   9.724  39.050  11.598
44882W        W17307  42.330  26.585   1.476
44883W        W17308  40.388  39.480  13.332
44884W        W17309  30.190  27.443   1.817
44885W        W17310  33.607  16.640   1.721
44886W        W17311   3.388  16.017   2.272
44887W        W17312  21.197  34.586   4.655
44888W        W17313  44.258  37.391   2.909
44889W        W17314  30.368   3.246   0.001
44890W        W17315  32.756  35.446  11.579
44891W        W17316   5.725  16.546   3.421
44892W        W17317  33.868  32.825   3.633
44893W        W17318  32.968  20.246   1.724
44894W        W17319  42.300  16.293  11.490
44895W        W17320  20.208  44.707   1.393
44896W        W17321  35.848  21.616   4.691
44897W        W17322  29.936   7.301  14.960
44898W        W17323  24.131  15.374   1.449
44899W        W17324  35.816   1.925  13.053
44900W        W17325   1.925  42.063  13.193
44901W        W17326  38.519  44.318  10.641
44902W        W17327  35.655   4.812  11.656
44903W        W17328  24.618  25.119   1.447
44904W        W17329  34.343  35.021   2.631
44905W        W17330   3.244  36.973   3.722
44906W        W17331  19.326   5.005  14.798
44907W        W17332  32.792  36.241   3.425
44908W        W17333  16.971  23.190  13.499
44909W        W17334  36.595  43.794   2.587
44910W        W17335  20.678   8.421  11.941
44911W        W17336  15.688  36.050  14.649
44912W        W17337  28.913  24.684  13.570
44913W        W17338  15.286  34.363   2.595
44914W        W17339  23.449   2.441  11.691
44915W        W17340   1.972  43.796  12.790
44916W        W17341   3.125   0.495   2.294
44917W        W17342  40.070   1.925   1.789
44918W        W17343  15.887   3.893   1.939
44919W        W17344  16.159  34.759  14.073
44920W        W17345   4.506  28.178  13.772
44921W        W17346   6.394  28.385  10.165
44922W        W17347  42.873   5.179   0.163
44923W        W17348  26.106  31.820   1.371
44924W        W17349  11.039  30.579  14.686
44925W        W17350  39.073  43.743   2.283
44926W        W17351  39.962  21.539   0.712
44927W        W17352  18.222  15.630  12.521
44928W        W17353   5.793  40.291  11.684
44929W        W17354   0.047  41.421  13.030
44930W        W17355  31.720  36.907   4.016
44931W        W17356   2.903   3.485  11.326
44932W        W17357  35.994  25.840  10.479
44933W        W17358   6.234  24.005   2.846
44934W        W17359  11.846  39.891  14.724
44935W        W17360  37.555   5.834   3.911
44936W        W17361   8.190  28.725   3.717
44937W        W17362   0.198  28.502  10.745
44938W        W17363   5.342   5.308   2.234
44939W        W17364  37.358  37.416   4.134
44940W        W17365  36.880  13.142   2.209
44941W        W17366  14.829   3.200   4.095
44942W        W17367  34.140   0.977  14.549
44943W        W17368  11.903   7.102  11.356
44944W        W17369  14.764   8.508   3.410
44945W        W17370  30.423   1.735   3.631
44946W        W17371  13.092  17.253  10.857
44947W        W17372  18.664  30.103   0.060
44948W        W17373  39.948  17.822  12.265
44949W        W17374  36.865  28.083   1.346
44950W        W17375  24.401  14.640   1.185
44951W        W17376  14.249  27.575   1.492
44952W        W17377   5.734  33.394  11.905
44953W        W17378  27.988  17.862  14.842
44954W        W17379   1.218  36.890  13.219
44955W        W17380  15.796  41.785   2.853
44956W        W17381   7.823  32.086   4.218
44957W        W17382  26.985  20.496  12.161
44958W        W17383  10.384  20.462  14.784
44959W        W17384   9.819  11.768   4.311
44960W        W17385   8.283   3.735  14.853
44961W        W17386   0.631   5.397  11.366
44962W        W17387  38.683  40.023   4.025
44963W        W17388  31.930   3.953  11.062
44964W        W17389   0.821  15.209   0.653
44965W        W17390  19.696   7.377  12.948
44966W        W17391   5.295  33.377   0.947
44967W        W17392  12.638  36.703  13.215
44968W        W17393  14.604  19.600   4.226
44969W        W17394  24.983  10.652   1.920
44970W        W17395  14.583  23.221  13.717
44971W        W17396  27.941  10.282  10.638
44972W        W17397  41.994  12.788   1.267
44973W        W17398   4.791  21.632  12.085
44974W        W17399  26.968  38.410  11.018
44975W        W17400  10.522  21.218   1.221
44976W        W17401  42.890   4.460   2.361
44977W        W17402  37.464  14.932  12.459
44978W        W17403  43.059  16.073  14.254
44979W        W17404  39.707  44.858  13.926
44980W        W17405   3.767  17.571  10.515
44981W        W17406  28.204  44.761  12.989
44982W        W17407  14.674  39.254  13.978
44983W        W17408  10.392  35.945  13.914
44984W        W17409   0.445   9.819  12.098
44985W        W17410  36.302  26.044   1.274
44986W        W17411   7.687  21.048  13.854
44987W        W17412  18.476   9.619   2.606
44988W        W17413  17.287  18.623  14.756
44989W        W17414  22.434  38.574   4.639
44990W        W17415  29.174  28.119  11.710
44991W        W17416   7.772   9.660  14.838
44992W        W17417  32.572  32.498   1.762
44993W        W17418  24.884  21.996  13.635
44994W        W17419  38.067  22.491   2.572
44995W        W17420  31.602  11.126   4.359
44996W        W17421  42.553   7.241   4.864
44997W        W17422  25.039   4.033  14.927
44998W        W17423  28.199  20.654  11.579
44999W        W17424  34.404  30.660   0.871
45000W        W17425  43.283  20.715   2.395
45001W        W17426  17.228  33.316   2.827
45002W        W17427  20.691  21.176  10.935
45003W        W17428  19.224  35.337   4.722
45004W        W17429  44.771   2.852  11.566
45005W        W17430  22.500   7.069  13.873
45006W        W17431  27.441  33.888   3.381
45007W        W17432  41.385   8.909   0.480
45008W        W17433  27.689  19.463  14.298
45009W        W17434  36.436  22.008   3.218
45010W        W17435  10.375  19.745  12.233
45011W        W17436  11.445  36.187   5.217
45012W        W17437  25.404   4.237   3.459
45013W        W17438  18.791  40.329   0.363
45014W        W17439  18.292  30.160   2.861
45015W        W17440  14.121  31.973   3.726
45016W        W17441  35.162   0.448   2.164
45017W        W17442   6.926  18.194   3.824
45018W        W17443  38.067  43.055   2.670
45019W        W17444  11.926  22.516  10.514
45020W        W17445  43.927  35.501   1.242
45021W        W17446  37.665  11.902   5.034
45022W        W17447  23.522   9.747   2.207
45023W        W17448   7.668   7.267  11.556
45024W        W17449   8.119   9.333   5.111
45025W        W17450  41.961   3.445   2.553
45026W        W17451  27.859  21.585  14.374
45027W        W17452  11.555  16.162   4.885
45028W        W17453  35.534   3.997  11.570
45029W        W17454  12.189   8.211   0.824
45030W        W17455   9.394  32.571  11.016
45031W        W17456  30.653  22.040   4.124
45032W        W17457  41.487  42.869  14.512
45033W        W17458  18.521   1.519   2.719
45034W        W17459   5.650  32.559   4.580
45035W        W17460  26.602  11.610  14.477
45036W        W17461   7.245  15.126  13.361
45037W        W17462   7.853  35.494  12.497
45038W        W17463  26.218  31.687  13.472
45039W        W17464  18.035   0.719   2.252
45040W        W17465  22.916  13.146  14.817
45041W        W17466  21.745   7.831   2.165
45042W        W17467   4.874  31.825  13.501
45043W        W17468  38.570  34.975  12.531
45044W        W17469  39.260  25.617  12.156
45045W        W17470  34.379  35.811   1.804
45046W        W17471   4.586  19.246  11.681
45047W        W17472  28.858  34.265   0.185
45048W        W17473   4.553  19.828   1.827
45049W        W17474   8.696  18.021   0.933
45050W        W17475   7.209  24.158  10.888
45051W        W17476  10.381  27.553  10.732
45052W        W17477  37.672   0.269  13.037
45053W        W17478  20.091  24.589   4.593
45054W        W17479   7.766  28.127  10.069
45055W        W17480  43.253  36.013   0.917
45056W        W17481  36.285   0.856  11.550
45057W        W17482   9.700  38.660  13.900
45058W        W17483  29.531  10.157  14.732
45059W        W17484  27.894   8.316   2.757
45060W        W17485  36.355   9.198   4.992
45061W        W17486   9.452  24.183  14.602
45062W        W17487  24.830  38.525   2.258
45063W        W17488   5.329  15.646   0.734
45064W        W17489  40.941  35.256  12.364
45065W        W17490  15.106   7.952   0.652
45066W        W17491   4.126  16.721  12.528
45067W        W17492  14.804  21.356   3.762
45068W        W17493  40.142  22.214  14.244
45069W        W17494  43.752  24.651  11.619
45070W        W17495  29.622  24.727   3.335
45071W        W17496  20.404  16.633   1.628
45072W        W17497  38.259  10.335   3.791
45073W        W17498   2.716  11.041   4.344
45074W        W17499  38.353   3.366  12.060
45075W        W17500  37.769  22.158   0.872
45076W        W17501   9.367  21.054  10.139
45077W        W17502  43.287  30.654   3.394
45078W        W17503   0.978   1.498  13.412
45079W        W17504  30.666  37.670   0.847
45080W        W17505  44.307  11.102   0.522
45081W        W17506  42.429   7.936  11.595
45082W        W17507  28.529  28.094  11.863
45083W        W17508  24.731  24.710  10.767
45084W        W17509   9.128   4.807   1.865
45085W        W17510  10.385   0.589  10.087
45086W        W17511  14.557   5.583  11.773
45087W        W17512   6.416  12.862   4.184
45088W        W17513  21.826  19.502   2.182
45089W        W17514  33.003   4.210  14.332
45090W        W17515  32.250  21.032   2.150
45091W        W17516  33.411   9.755   2.461
45092W        W17517  37.994  42.003   0.783
45093W        W17518  41.731  22.306  14.248
45094W        W17519  25.602  36.238   3.744
45095W        W17520   0.885  44.247  12.956
45096W        W17521  19.342   0.975  13.483
45097W        W17522  17.194  28.219   4.961
45098W        W17523   4.256  40.748  12.555
45099W        W17524  18.858  13.288   4.965
45100W        W17525  10.198  25.962  11.093
45101W        W17526  19.723  44.293  14.715
45102W        W17527  12.670  25.970  12.481
45103W        W17528  16.095  13.321   1.899
45104W        W17529  22.689  19.252   3.750
45105W        W17530  22.989  36.955  12.487
45106W        W17531  20.043  25.676   4.229
45107W        W17532   8.329  13.253  11.142
45108W        W17533  44.817   1.671  11.211
45109W        W17534  10.927   8.559   4.150
45110W        W17535  39.572  42.095   4.548
45111W        W17536  44.834  38.362   4.851
45112W        W17537   0.679  35.534   2.792
45113W        W17538  36.934  34.564   3.633
45114W        W17539  18.224  28.453  12.964
45115W        W17540   7.778   3.702   1.530
45116W        W17541  44.451  25.075   1.043
45117W        W17542  30.973  11.131  13.550
45118W        W17543   3.678   5.823  12.005
45119W        W17544  25.472  44.966   1.888
45120W        W17545  30.460  34.512   4.833
45121W        W17546  10.152   7.346   3.241
45122W        W17547  17.933  16.674  11.497
45123W        W17548  33.450   3.776   1.189
45124W        W17549  25.096   2.962  14.876
45125W        W17550  25.607  44.705   5.293
45126W        W17551  14.881  28.909  14.371
45127W        W17552  36.534   9.144  14.357
45128W        W17553  15.070  11.811   2.202
45129W        W17554  28.779  40.903   4.220
45130W        W17555  34.299  13.914   2.213
45131W        W17556  29.741  35.059  11.226
45132W        W17557  44.398  39.521   2.544
45133W        W17558  27.097  37.850   3.993
45134W        W17559  34.827  39.053  12.764
45135W        W17560  34.615  16.095   1.284
45136W        W17561   2.218   9.762  12.911
45137W        W17562  13.092  23.469  10.643
45138W        W17563   1.182  42.025  13.371
45139W        W17564   7.381  39.565  12.091
45140W        W17565  22.187  36.085   0.968
45141W        W17566  31.910  12.299  10.574
45142W        W17567   6.440  18.607  13.370
45143W        W17568  26.999   6.476  13.410
45144W        W17569  10.611  21.577  14.412
45145W        W17570   5.275   3.776   0.680
45146W        W17571  33.043   2.233   0.529
45147W        W17572  14.232  35.879   3.574
45148W        W17573  40.434  30.542   1.239
45149W        W17574  14.733  16.608   3.359
45150W        W17575  17.154  25.713  10.399
45151W        W17576  28.969   8.869  11.637
45152W        W17577   3.428   7.502  12.076
45153W        W17578   8.342  44.544   2.392
45154W        W17579  37.608  30.404   2.292
45155W        W17580   6.914  37.308  12.413
45156W        W17581  18.201  11.871  11.616
45157W        W17582   0.981  10.686  13.351
45158W        W17583  10.260  10.063  11.639
45159W        W17584   4.653  16.824   2.340
45160W        W17585  26.964  32.893   5.111
45161W        W17586  24.548  24.152  14.940
45162W        W17587  39.098   9.158   4.167
45163W        W17588  15.373  38.376  12.578
45164W        W17589  40.439  23.965   4.283
45165W        W17590  31.314  19.071  13.291
45166W        W17591  17.015  35.044   0.826
45167W        W17592  19.094  25.653   4.479
45168W        W17593  27.726   6.254   3.364
45169W        W17594  39.418  15.248   2.646
45170W        W17595  15.342  10.782   2.347
45171W        W17596  37.855  15.043  12.969
45172W        W17597  41.742  14.750  14.244
45173W        W17598  22.663  20.494  14.562
45174W        W17599  24.946   0.385   2.699
45175W        W17600   1.129  27.174   3.795
45176W        W17601  32.036  31.934   1.354
45177W        W17602  41.546  42.895   0.437
45178W        W17603   6.558  32.210   5.077
45179W        W17604  22.499  11.209   2.846
45180W        W17605  17.512  40.804   3.453
45181W        W17606  12.971  15.457  13.275
45182W        W17607  36.305  42.404   4.064
45183W        W17608  30.111   6.800  11.180
45184W        W17609  35.252   4.080  14.899
45185W        W17610  29.531  19.444   4.054
45186W        W17611   2.008  19.542   3.231
45187W        W17612  28.686  29.601   4.741
45188W        W17613  35.352  26.219  14.370
45189W        W17614   5.025  41.777   1.393
45190W        W17615  43.462   6.456   3.196
45191W        W17616  20.672  41.877  12.959
45192W        W17617  34.475  30.224  14.051
45193W        W17618   6.473   3.340  10.413
45194W        W17619  42.920  36.343  11.496
45195W        W17620  30.220  14.886   0.272
45196W        W17621  27.495  24.944  14.854
45197W        W17622   3.417  15.243  14.716
45198W        W17623  22.668  40.737   2.728
45199W        W17624  34.271  10.277  14.326
45200W        W17625   7.131  44.035   4.073
45201W        W17626  37.417  17.759  14.453
45202W        W17627  26.658  11.850   5.057
45203W        W17628  39.393   8.037  14.953
45204W        W17629  31.455   3.709  13.874
45205W        W17630  44.530  22.680  12.656
45206W        W17631  40.358  16.719   3.703
45207W        W17632   1.741  28.538   0.976
45208W        W17633   9.047  36.824   0.744
45209W        W17634  17.087   1.125  12.643
45210W        W17635  23.376  30.845  11.973
45211W        W17636  24.346  28.320   1.228
45212W        W17637   7.299  41.453  13.423
45213W        W17638  28.630  24.909  12.453
45214W        W17639  21.187   8.746   0.415
45215W        W17640  23.723   7.338  11.428
45216W        W17641  25.966   7.820  13.058
45217W        W17642  29.103  12.089   4.585
45218W        W17643  21.721   5.465  13.488
45219W        W17644  42.458   2.469  10.698
45220W        W17645  16.959   3.889  11.015
45221W        W17646  41.839  43.569  10.067
45222W        W17647  24.024  41.386  11.125
45223W        W17648  43.929   7.848  13.447
45224W        W17649  35.377  29.922   1.655
45225W        W17650  38.087  24.775  10.157
45226W        W17651  11.151   9.624   3.381
45227W        W17652   4.376  34.157  10.054
45228W        W17653   2.312  23.040  12.418
45229W        W17654   9.723  24.993   1.920
45230W        W17655  31.514  39.249  10.215
45231W        W17656  21.328  23.076  12.135
45232W        W17657  16.694  35.897   3.164
45233W        W17658  16.548   4.081   4.591
45234W        W17659  34.107   6.955   1.849
45235W        W17660  17.806   8.259  11.703
45236W        W17661  37.898  26.988   4.830
45237W        W17662  21.947  29.060   2.320
45238W        W17663  43.222  23.574  13.078
45239W        W17664   3.045   7.856  12.096
45240W        W17665  32.976  32.419   2.791
45241W        W17666  42.288  33.523   2.317
45242W        W17667  14.091  23.313  14.997
45243W        W17668  38.008   8.656  10.559
45244W        W17669  36.139  34.116   4.104
45245W        W17670  39.422   7.856  12.363
45246W        W17671  13.766  34.438  11.822
45247W        W17672  38.726   4.153   3.879
45248W        W17673  35.613  32.871   4.165
45249W        W17674  23.109  40.066  13.478
45250W        W17675  39.522  20.035  14.828
45251W        W17676   2.828   6.149   0.907
45252W        W17677  28.534  41.143   2.324
45253W        W17678  35.847  12.560  14.327
45254W        W17679  43.852  35.130   0.879
45255W        W17680  19.268   1.907   9.902
45256W        W17681  20.458  41.455  13.435
45257W        W17682  44.118   1.886   3.302
45258W        W17683  41.212  25.990  13.699
45259W        W17684  30.025  20.288   1.816
45260W        W17685  22.747   7.611   2.340
45261W        W17686   4.301  38.994   1.816
45262W        W17687  15.640  17.972   1.777
45263W        W17688  42.353  43.581  11.631
45264W        W17689  24.081  29.389  13.519
45265W        W17690  43.679  18.506   0.745
45266W        W17691  41.230   8.826  11.144
45267W        W17692   1.440  38.594  14.169
45268W        W17693  34.352  31.387  10.481
45269W        W17694  22.206  10.441  13.319
45270W        W17695   8.084   5.738  14.539
45271W        W17696  37.544   5.338  14.483
45272W        W17697  25.020   0.149  13.610
45273W        W17698   7.800  43.559   1.848
45274W        W17699  35.521  26.509  14.850
45275W        W17700  30.470  21.990  11.155
45276W        W17701  32.654  32.963  12.742
45277W        W17702  28.295  38.417   1.636
45278W        W17703  42.406   6.681   4.146
45279W        W17704  12.147  30.498   0.529
45280W        W17705  34.890  26.446  12.838
45281W        W17706  35.944  41.380  12.033
45282W        W17707  36.974   7.372   2.231
45283W        W17708  41.002   6.141  14.001
45284W        W17709  40.327  11.917  14.411
45285W        W17710  16.670  22.335  13.460
45286W        W17711   0.845  11.770   0.923
45287W        W17712  37.142  20.744   1.890
45288W        W17713   1.188  28.655  13.888
45289W        W17714   3.634  25.261   4.619
45290W        W17715  26.744   0.278  13.517
45291W        W17716  15.593   7.740   3.761
45292W        W17717  26.844  11.127  13.291
45293W        W17718  41.108  41.411   3.088
45294W        W17719  23.883  12.153   0.913
45295W        W17720   7.109   5.815   3.434
45296W        W17721  20.892  18.770   0.532
45297W        W17722  23.654  37.856  13.184
45298W        W17723  28.888  28.560  13.373
45299W        W17724  16.479  26.887   3.289
45300W        W17725   5.454  36.687  14.828
45301W        W17726  41.989  11.747  11.981
45302W        W17727  33.417  15.571  13.094
45303W        W17728  35.516  17.106   2.846
45304W        W17729   1.775  15.668   3.730
45305W        W17730  34.346  35.988   4.423
45306W        W17731  22.669   4.015   2.295
45307W        W17732  22.137  20.541   1.725
45308W        W17733  36.675  26.216   0.329
45309W        W17734  42.960  39.321   0.264
45310W        W17735  42.000  28.556  13.979
45311W        W17736  21.490  39.058   2.990
45312W        W17737   1.423   8.615   0.960
45313W        W17738  44.327  37.803  11.387
45314W        W17739  18.424  17.611   2.813
45315W        W17740  24.155  22.100   2.414
45316W        W17741   2.901  17.106   0.853
45317W        W17742  37.369  33.628   1.759
45318W        W17743   0.949   2.815   2.246
45319W        W17744  43.701  39.081  12.763
45320W        W17745  35.411  17.649  14.881
45321W        W17746  23.142  41.870  14.543
45322W        W17747  34.614  29.761  14.247
45323W        W17748  23.326  41.406   0.412
45324W        W17749  26.414  28.279  11.083
45325W        W17750  10.381  37.957  14.488
45326W        W17751  27.481  44.958   3.411
45327W        W17752   6.215  33.371   4.914
45328W        W17753  40.692  33.786   2.745
45329W        W17754  18.956   7.269  13.477
45330W        W17755   8.413  13.802  14.894
45331W        W17756  30.104  17.468   5.492
45332W        W17757  15.562  15.855   0.414
45333W        W17758  17.240  30.733  13.420
45334W        W17759  29.565  30.189   1.267
45335W        W17760  30.213  15.764   2.796
45336W        W17761  40.945   1.030   3.708
45337W        W17762  25.506  11.276  13.238
45338W        W17763  18.138  34.601  11.557
45339W        W17764   2.745  28.992  11.019
45340W        W17765  34.827  35.173  11.144
45341W        W17766  41.280  41.324   0.336
45342W        W17767  42.366  44.836  10.636
45343W        W17768  40.489  23.139  11.179
45344W        W17769  31.572  34.894  12.531
45345W        W17770  17.249   1.970  14.523
45346W        W17771  10.737  40.814  11.171
45347W        W17772   7.575  37.407   5.029
45348W        W17773  41.858  35.402   0.028
45349W        W17774  41.538  32.447   3.680
45350W        W17775   6.899  37.021  11.973
45351W        W17776  35.356   9.074  12.863
45352W        W17777  32.517  25.780   4.147
45353W        W17778  21.652  15.175  12.013
45354W        W17779  20.839  22.178   0.326
45355W        W17780  13.849   1.914  13.237
45356W        W17781  13.813  23.232   1.791
45357W        W17782  15.222  21.029  14.937
45358W        W17783   1.784  44.402  13.503
45359W        W17784  32.860  39.270   1.692
45360W        W17785   9.602  16.273  10.405
45361W        W17786   7.723  33.590  12.192
45362W        W17787   0.825  11.628  13.469
45363W        W17788   7.092   9.867   3.157
45364W        W17789  11.386  21.970  10.833
45365W        W17790  22.906  39.442   2.366
45366W        W17791  28.081   1.385   2.386
45367W        W17792  36.074  10.606   1.200
45368W        W17793  37.411  35.311  14.399
45369W        W17794  41.016   1.901  11.490
45370W        W17795  29.153   4.969  14.449
45371W        W17796  31.578   4.201   4.629
45372W        W17797   9.789  20.090   0.883
45373W        W17798  36.607  30.935   0.266
45374W        W17799   2.816  32.404  10.802
45375W        W17800  27.884  38.343   0.356
45376W        W17801  44.760   9.608  10.851
45377W        W17802   1.290   8.629   3.715
45378W        W17803  14.710  30.433  13.984
45379W        W17804  42.244  14.836  14.290
45380W        W17805   3.866   1.392   4.012
45381W        W17806  33.501  23.372  13.894
45382W        W17807  44.334  19.832   4.420
45383W        W17808  43.374   7.194   2.591
45384W        W17809  37.653  11.887  12.752
45385W        W17810  31.120  16.148   3.714
45386W        W17811  10.741   0.432   0.757
45387W        W17812   3.726   9.147  11.514
45388W        W17813  44.792  13.024  11.042
45389W        W17814  43.758  13.724   3.178
45390W        W17815   7.768  19.445  14.940
45391W        W17816  14.446  37.831  12.088
45392W        W17817  30.090   5.872   1.939
45393W        W17818  42.233  40.227  13.545
45394W        W17819  29.146  41.302   3.578
45395W        W17820   7.604  44.885   0.338
45396W        W17821  39.702  36.501  12.767
45397W        W17822  31.164  22.107  11.629
45398W        W17823   0.720  38.385  11.586
45399W        W17824   0.965  16.378   2.736
45400W        W17825   3.835  24.198  13.812
45401W        W17826  22.262  24.586  13.587
45402W        W17827  15.684  13.057   4.501
45403W        W17828  29.721  16.532   1.180
45404W        W17829   0.813  44.966  12.174
45405W        W17830  22.065  37.863   2.945
45406W        W17831  41.403  27.632  10.478
45407W        W17832  35.541  41.840   0.981
45408W        W17833  21.989  43.261   0.225
45409W        W17834  16.307  36.530  11.183
45410W        W17835  38.599  29.649  13.905
45411W        W17836  38.783  35.677  12.082
45412W        W17837  26.798  32.755   4.624
45413W        W17838  27.453   1.516  11.163
45414W        W17839   6.527  16.854   3.784
45415W        W17840  34.873  41.278  12.537
45416W        W17841  25.051  39.372  11.235
45417W        W17842   9.893   5.901  14.165
45418W        W17843  24.927  17.635  14.478
45419W        W17844  20.723   2.875   5.026
45420W        W17845  39.624   6.815  10.638
45421W        W17846   5.391   5.269   4.268
45422W        W17847   9.984  12.398  11.672
45423W        W17848  24.414  27.497  14.820
45424W        W17849  26.030  16.416  11.881
45425W        W17850  37.493   2.931  13.500
45426W        W17851  12.769  34.518  12.834
45427W        W17852  22.258  11.306   3.302
45428W        W17853  15.385  24.398   0.190
45429W        W17854   2.242  16.221   3.358
45430W        W17855  22.495  17.206  14.513
45431W        W17856  13.601  19.694  12.177
45432W        W17857   7.301  34.819  14.296
45433W        W17858  11.389  15.284  11.644
45434W        W17859   2.533  22.597  14.444
45435W        W17860  44.122  44.884  12.171
45436W        W17861  35.235  42.917   4.177
45437W        W17862  40.285  32.655   4.261
45438W        W17863  12.754  32.420   0.429
45439W        W17864   1.939  37.598   0.054
45440W        W17865  44.719  23.619   5.358
45441W        W17866   5.608  34.610   2.477
45442W        W17867  42.482   0.362   4.837
45443W        W17868  34.131  43.529  14.980
45444W        W17869   1.212  21.077   1.798
45445W        W17870   3.720   0.757  10.916
45446W        W17871  13.327  19.539  13.413
45447W        W17872  44.749  40.396   3.859
45448W        W17873  43.588  19.509   0.474
45449W        W17874  19.033  25.179  13.977
45450W        W17875  14.872  36.857  12.864
45451W        W17876  18.141  42.531  13.859
45452W        W17877  28.902  35.529   4.116
45453W        W17878  23.098  16.291   0.351
45454W        W17879  35.518  40.497   3.727
45455W        W17880  31.567  12.696   4.684
45456W        W17881   1.398  26.859   4.113
45457W        W17882  21.203  19.253  11.944
45458W        W17883  24.710  13.508  12.078
45459W        W17884   0.604  41.915  14.908
45460W        W17885  43.929  10.308  12.146
45461W        W17886  12.211  14.745  10.723
45462W        W17887  22.758  24.706  10.960
45463W        W17888  31.813   3.421   2.761
45464W        W17889  34.973  10.692   3.775
45465W        W17890   9.785  22.082  10.441
45466W        W17891  28.115  30.019  14.936
45467W        W17892   3.024  43.436   1.734
45468W        W17893   7.748   7.765   4.327
45469W        W17894  24.020  42.917   3.137
45470W        W17895  16.071   3.437   3.633
45471W        W17896  20.819   4.212   3.253
45472W        W17897   4.653  18.908  12.591
45473W        W17898   2.610  13.645   4.076
45474W        W17899  43.240  35.568  14.752
45475W        W17900  19.522   9.685   4.630
45476W        W17901   5.931  16.341   1.624
45477W        W17902  39.062  27.550   0.605
45478W        W17903  12.313   2.604  14.085
45479W        W17904  18.661  11.071  14.917
45480W        W17905  28.695  26.203  10.757
45481W        W17906  28.212  33.196  13.328
45482W        W17907  12.769  22.575  10.525
45483W        W17908  24.136  35.881   2.295
45484W        W17909  42.805  30.701   5.062
45485W        W17910  40.537  40.011  10.770
45486W        W17911  13.896  24.715   5.191
45487W        W17912   6.117  20.919  11.902
45488W        W17913  43.731  38.638  12.491
45489W        W17914  25.103  14.068   0.438
45490W        W17915  37.871  20.587   1.443
45491W        W17916  33.729  13.816   2.204
45492W        W17917  17.624  40.320   3.658
45493W        W17918  11.187  42.479  14.389
45494W        W17919  17.761  22.939  11.650
45495W        W17920  11.243   0.190  13.004
45496W        W17921  19.077   8.675  11.615
45497W        W17922  23.062  34.428   0.218
45498W        W17923   9.193  17.259  12.841
45499W        W17924  35.572   1.855   3.226
45500W        W17925  11.222   8.455   2.662
45501W        W17926  37.573   8.257   4.050
45502W        W17927  19.997  35.914   2.731
45503W        W17928  15.653  36.548  10.746
45504W        W17929  19.524  12.745  11.509
45505W        W17930  31.567  36.180  14.005
45506W        W17931  41.124  21.110   2.243
45507W        W17932  32.995   7.856   3.550
45508W        W17933  20.874  40.946   0.416
45509W        W17934  31.893  23.219  12.722
45510W        W17935  10.889  21.056  10.330
45511W        W17936  31.584  43.177   3.251
45512W        W17937  20.650   8.310  10.871
45513W        W17938   2.847  29.863  12.908
45514W        W17939  10.953  20.652  11.472
45515W        W17940  21.518  16.573   3.586
45516W        W17941  21.791  14.997   0.807
45517W        W17942  10.289  23.943   3.051
45518W        W17943  17.697  23.527   4.606
45519W        W17944  15.274  20.286   3.283
45520W        W17945   4.668  21.923  12.648
45521W        W17946   4.010  38.396   1.732
45522W        W17947   2.765  11.387   0.049
45523W        W17948  41.563  11.170   0.782
45524W        W17949   4.802  18.485   3.070
45525W        W17950  35.511  21.595   3.621
45526W        W17951  23.332  37.972   4.102
45527W        W17952  20.127  17.685  12.672
45528W        W17953   4.335  23.653   1.254
45529W        W17954   8.993  34.393   2.684
45530W        W17955  11.384  40.840   1.676
45531W        W17956  35.966  18.334   0.546
45532W        W17957  43.077  39.893  10.311
45533W        W17958  33.620  29.061   1.228
45534W        W17959  31.645   5.830  14.291
45535W        W17960  11.945   1.173  10.632
45536W        W17961   1.047  33.040  10.618
45537W        W17962   6.556   4.924  14.005
45538W        W17963  22.511   6.227  12.951
45539W        W17964  31.660  41.031   3.072
45540W        W17965  20.767  15.200  13.286
45541W        W17966  30.211  34.552  12.970
45542W        W17967  42.881  16.510   3.525
45543W        W17968   8.007  21.194  10.200
45544W        W17969  28.072  13.117  13.457
45545W        W17970  41.487  33.210  14.857
45546W        W17971  18.127   2.214  10.081
45547W        W17972  41.353  30.897  10.987
45548W        W17973  13.835   3.744   1.214
45549W        W17974  10.345  37.280  13.884
45550W        W17975  43.209   7.552   3.555
45551W        W17976  27.231   1.026   3.357
45552W        W17977  19.216   1.881  10.886
45553W        W17978  13.852   8.851  10.776
45554W        W17979  32.576   0.717  12.021
45555W        W17980   4.914  27.850   1.469
45556W        W17981  31.523  13.141   3.740
45557W        W17982  20.264   7.150   4.137
45558W        W17983  30.759  18.306   3.814
45559W        W17984  14.269  34.045  14.812
45560W        W17985  38.294  41.407  14.364
45561W        W17986  24.361  12.235  14.693
45562W        W17987  20.746  26.663  12.956
45563W        W17988  15.850  13.786  13.976
45564W        W17989  44.447  43.270  10.622
45565W        W17990  34.205  39.644  13.826
45566W        W17991  23.467   7.260   3.394
45567W        W17992  26.138  29.632   2.843
45568W        W17993  15.234  36.444   1.256
45569W        W17994  30.160  18.162   2.402
45570W        W17995   1.350  38.050   2.042
45571W        W17996  22.955  12.297   0.090
45572W        W17997  39.572   9.684   1.224
45573W        W17998  30.922  26.951   1.011
45574W        W17999   7.722   8.770  10.183
45575W        W18000  16.201   9.737   2.264
45576W        W18001  35.863  43.363   2.191
45577W        W18002  25.170  34.158   0.789
45578W        W18003  23.752  14.217  13.847
45579W        W18004   0.024  30.903  14.487
45580W        W18005  22.104   4.677  12.886
45581W        W18006   0.265  37.193  13.387
45582W        W18007  33.126  23.206   3.141
45583W        W18008  38.930  27.987   0.352
45584W        W18009  32.847  37.963  10.781
45585W        W18010  11.320   3.487  13.402
45586W        W18011  19.725  10.822   0.732
45587W        W18012  30.978  32.770  14.110
45588W        W18013  42.309  25.823   2.355
45589W        W18014   3.381  39.426   5.008
45590W        W18015   7.274  14.888   3.131
45591W        W18016  10.182   4.128   3.918
45592W        W18017  19.151  44.016  13.504
45593W        W18018  39.135   9.660  11.673
45594W        W18019  22.633  17.272   3.701
45595W        W18020   7.002   4.795  12.078
45596W        W18021   0.766  21.028   0.284
45597W        W18022  37.569   6.946  13.399
45598W        W18023   8.545  27.121  13.951
45599W        W18024  35.646   9.813   3.356
45600W        W18025  27.579  12.919   4.277
45601W        W18026   0.108   0.772  12.000
45602W        W18027  26.707   7.706   0.064
45603W        W18028  22.689   2.454   2.165
45604W        W18029  38.870  36.651  12.112
45605W        W18030  20.174  22.681  13.352
45606W        W18031  31.597  37.117   4.491
45607W        W18032  22.546  21.072   2.709
45608W        W18033  30.450  10.327   4.132
45609W        W18034  22.623  37.350   2.449
45610W        W18035  24.742  38.482  14.450
45611W        W18036  16.688  21.982   3.266
45612W        W18037  36.065  14.066   2.373
45613W        W18038   1.864  33.628  10.601
45614W        W18039  20.259  19.855   2.334
45615W        W18040  16.261   2.189   3.393
45616W        W18041  42.009  18.513  11.363
45617W        W18042  29.509  14.388  12.198
45618W        W18043  20.906   4.453   2.193
45619W        W18044  29.916  12.361  14.369
45620W        W18045   0.513  37.803   4.062
45621W        W18046  33.170   6.795  14.288
45622W        W18047   3.261   2.373   2.259
45623W        W18048  32.142  36.109  11.193
45624W        W18049  14.591  14.583   2.284
45625W        W18050  34.101  18.765   2.705
45626W        W18051   9.280  30.062   4.044
45627W        W18052   6.759   9.575  13.930
45628W        W18053  43.085  21.190   2.521
45629W        W18054  11.613   6.799   3.770
45630W        W18055  26.150  19.626   1.160
45631W        W18056  27.795  34.508  12.074
45632W        W18057  21.091  31.485   3.185
45633W        W18058  21.240  29.075  10.766
45634W        W18059   2.293  33.423   3.064
45635W        W18060  22.497  12.312   1.771
45636W        W18061  31.040  11.776   4.526
45637W        W18062  20.731  43.725   3.644
45638W        W18063  43.248  29.637  11.108
45639W        W18064  32.196  24.149   5.036
45640W        W18065  18.433  18.594   5.004
45641W        W18066  16.847   1.245   1.703
45642W        W18067   9.057  44.999  10.740
45643W        W18068  14.752  16.827  11.691
45644W        W18069  27.225  28.691   2.231
45645W        W18070   9.798  26.540   3.659
45646W        W18071  40.319  12.328  12.809
45647W        W18072  23.842   3.397   3.467
45648W        W18073  21.604  18.608   1.929
45649W        W18074  30.086  26.142   3.333
45650W        W18075  22.716   1.819   0.343
45651W        W18076  29.202  29.444   1.281
45652W        W18077  15.644  27.519  14.437
45653W        W18078  19.156  29.623   2.567
45654W        W18079  40.266  44.811   0.744
45655W        W18080  41.158  27.091  10.643
45656W        W18081   1.312  29.924  11.961
45657W        W18082   8.984   5.322   9.807
45658W        W18083  41.481   1.726   2.475
45659W        W18084  34.597  38.016  14.429
45660W        W18085  42.360   1.909   0.394
45661W        W18086  16.600   8.250   2.150
45662W        W18087  41.315   2.029  14.443
45663W        W18088  31.692  27.079  11.089
45664W        W18089   0.807   0.955  10.715
45665W        W18090  23.942  37.408  11.082
45666W        W18091   8.200  10.246  14.263
45667W        W18092  36.156   3.983   3.747
45668W        W18093  25.100  12.820   4.167
45669W        W18094  18.160   5.286  11.134
45670W        W18095  11.196  25.450  13.935
45671W        W18096  17.188  43.514  11.544
45672W        W18097   2.751  15.847   1.299
45673W        W18098  42.756   9.408  11.944
45674W        W18099  11.087  39.519  12.550
45675W        W18100  37.968   9.370   3.602
45676W        W18101  22.064  30.596  14.008
45677W        W18102   6.551  20.664   4.911
45678W        W18103  34.671   0.925   1.788
45679W        W18104  29.378  26.694   3.193
45680W        W18105  41.512  22.714   2.388
45681W        W18106   5.969   3.910   3.315
45682W        W18107  36.240   3.690   4.556
45683W        W18108  36.041  25.901  14.476
45684W        W18109  27.448  27.242  14.414
45685W        W18110  41.095  25.011   3.443
45686W        W18111  44.233  11.592  14.823
45687W        W18112   9.146   8.878   3.766
45688W        W18113  26.159   6.424  13.823
45689W        W18114  13.299  12.249  13.351
45690W        W18115  14.577  40.595  13.861
45691W        W18116  32.205  35.742   1.618
45692W        W18117  13.720   4.227  13.167
45693W        W18118  43.933   3.346   1.318
45694W        W18119  42.796  34.891   3.710
45695W        W18120  21.055  25.222  14.652
45696W        W18121  29.510  37.845  11.644
45697W        W18122   6.634  43.655  13.373
45698W        W18123   9.345   7.648   3.167
45699W        W18124  20.639   8.915  14.246
45700W        W18125  30.201  20.677  12.610
45701W        W18126  26.986  29.730   2.146
45702W        W18127  29.631   5.710   1.224
45703W        W18128  30.154   5.316  11.148
45704W        W18129  20.774  26.265  14.557
45705W        W18130  26.615  13.989  13.889
45706W        W18131  25.492   1.915   2.185
45707W        W18132   1.539  41.332   0.862
45708W        W18133  20.777  42.488  13.380
45709W        W18134  43.856  34.036  12.950
45710W        W18135  37.476  24.598  11.873
45711W        W18136   2.241  17.282  11.207
45712W        W18137  34.449  33.184  11.076
45713W        W18138  44.430   8.197   0.856
45714W        W18139  33.847  27.723  13.903
45715W        W18140  14.776  35.209  11.078
45716W        W18141  36.375  20.628   0.489
45717W        W18142   9.163  17.648   0.227
45718W        W18143  44.458  41.855   2.890
45719W        W18144   3.622  15.667  11.494
45720W        W18145  31.912  31.098  14.883
45721W        W18146  42.767  26.555  13.323
45722W        W18147  11.871  40.381  10.465
45723W        W18148  21.589   8.793   5.430
45724W        W18149   8.834  32.445  10.701
45725W        W18150  26.288  41.426   1.394
45726W        W18151  21.331  15.837   0.870
45727W        W18152  14.795  21.735  10.283
45728W        W18153  34.448  33.084  14.813
45729W        W18154  24.661  37.476   3.210
45730W        W18155   3.725  40.916   0.734
45731W        W18156  44.229  15.923   1.905
45732W        W18157  18.491  36.130   2.808
45733W        W18158  27.430  39.946   3.676
45734W        W18159  39.779  12.122   1.410
45735W        W18160  15.163  24.601  10.078
45736W        W18161  41.213  15.097   3.276
45737W        W18162   1.478  21.989  14.995
45738W        W18163   2.656  25.078   2.746
45739W        W18164  26.568   7.653   5.073
45740W        W18165  37.059  21.423   3.623
45741W        W18166   7.088   0.086  13.050
45742W        W18167  13.672  41.390  14.375
45743W        W18168  14.502  16.144  12.818
45744W        W18169   5.913  25.690  12.561
45745W        W18170  22.895  32.901   0.054
45746W        W18171  23.913   0.763   1.942
45747W        W18172  38.921   6.047   2.777
45748W        W18173  28.692  19.838   4.025
45749W        W18174  17.727   4.393   0.015
45750W        W18175  38.591  42.951   2.759
45751W        W18176  23.710   0.217  11.971
45752W        W18177  37.388   5.368   2.747
45753W        W18178   4.720  44.462   0.323
45754W        W18179   2.778   2.756  13.455
45755W        W18180  26.762  18.123  13.987
45756W        W18181   6.830   5.025  14.909
45757W        W18182  40.868  21.617  12.090
45758W        W18183  37.447  14.427  12.621
45759W        W18184  14.614   4.123   1.331
45760W        W18185  32.115  40.976   4.602
45761W        W18186  25.407  33.901   0.398
45762W        W18187  22.055  28.142   3.643
45763W        W18188  14.117  30.478   4.650
45764W        W18189  19.260   8.689   3.351
45765W        W18190   2.307  22.349  10.700
45766W        W18191  16.231  44.933  11.534
45767W        W18192   1.218  12.671   0.452
45768W        W18193  15.846  31.118  11.091
45769W        W18194  39.794   3.821   0.738
45770W        W18195  24.985  22.059   3.302
45771W        W18196  43.893  29.273  14.554
45772W        W18197  26.078  12.349  14.409
45773W        W18198  14.619  12.204  13.021
45774W        W18199  36.005   9.922   3.722
45775W        W18200   8.516  10.355  12.385
45776W        W18201  18.063   6.460  12.079
45777W        W18202  31.398  13.112   2.337
45778W        W18203  31.882   2.708  12.927
45779W        W18204  40.852  23.989  13.453
45780W        W18205  21.832  39.277  13.783
45781W        W18206  18.151  15.051  11.076
45782W        W18207   4.789  36.702   4.529
45783W        W18208  37.724  19.755   0.221
45784W        W18209   6.258  11.235   2.562
45785W        W18210  27.506  17.920   0.504
45786W        W18211  34.003  18.342   5.430
45787W        W18212  31.454  17.674   2.712
45788W        W18213   1.645  24.260   3.655
45789W        W18214  30.989  25.107  12.410
45790W        W18215  15.447  28.061  14.324
45791W        W18216  26.484  28.414   0.156
45792W        W18217  42.790  10.493  14.002
45793W        W18218  31.377  21.099  10.752
45794W        W18219  18.475   9.490  10.646
45795W        W18220  19.234  39.518  14.932
45796W        W18221  16.138  16.739  12.354
45797W        W18222  37.058  18.138   3.409
45798W        W18223  15.166   3.270   2.798
45799W        W18224   7.856  30.734  13.425
45800W        W18225  38.104  43.501  13.961
45801W        W18226  14.229  23.769   1.363
45802W        W18227  25.979  20.425   4.598
45803W        W18228  26.934  42.177  10.759
45804W        W18229   0.724  13.296  12.020
45805W        W18230  15.366  15.981   4.680
45806W        W18231  36.162   3.948   2.179
45807W        W18232  22.722   2.596   0.311
45808W        W18233  23.543   1.569  13.671
45809W        W18234  36.577  18.778  13.896
45810W        W18235   0.223  39.144   0.373
45811W        W18236  27.088   1.870   1.465
45812W        W18237  12.400  22.843   4.511
45813W        W18238  22.010  44.830   3.870
45814W        W18239  15.863  19.154  12.015
45815W        W18240   1.963  22.616  11.906
45816W        W18241   3.403   6.837  11.357
45817W        W18242  33.124  35.301   3.196
45818W        W18243   4.427   9.134   3.071
45819W        W18244  28.544  16.771  12.430
45820W        W18245   6.367  21.039  13.211
45821W        W18246   2.402  40.424  13.024
45822W        W18247  16.774  33.206   4.275
45823W        W18248  24.487  34.574  12.630
45824W        W18249  29.514  29.316  12.308
45825W        W18250  14.645  35.605   3.843
45826W        W18251  21.592  42.531  11.888
45827W        W18252  24.420   3.286   1.453
45828W        W18253  25.094  14.288   2.689
45829W        W18254  42.473  30.673  14.370
45830W        W18255   9.723   1.311   4.663
45831W        W18256  30.660  11.148   4.584
45832W        W18257  42.489  13.185   2.809
45833W        W18258  20.479  43.386   4.602
45834W        W18259  43.997  41.587  12.903
45835W        W18260  40.552  19.524   4.287
45836W        W18261  20.801  41.950   5.065
45837W        W18262  30.595  14.925   1.329
45838W        W18263  35.959  21.507  12.010
45839W        W18264  44.666  19.751   3.561
45840W        W18265  29.957  35.843  14.736
45841W        W18266  40.915  22.880   4.166
45842W        W18267   3.780  21.222   1.925
45843W        W18268  37.077  25.981   2.703
45844W        W18269  23.455  15.340   4.833
45845W        W18270  28.576   8.592  14.430
45846W        W18271  26.929   8.155  14.873
45847W        W18272   1.861  12.050  11.643
45848W        W18273  33.835   2.876  10.694
45849W        W18274  11.978  12.773  14.465
45850W        W18275  10.897  35.952  13.828
45851W        W18276  25.013  11.470   2.923
45852W        W18277   0.697   6.016   2.677
45853W        W18278  40.466  28.591  13.660
45854W        W18279  21.324  16.520   2.397
45855W        W18280  13.604   7.849  10.734
45856W        W18281   2.379  18.745   3.203
45857W        W18282  43.105  20.646   1.827
45858W        W18283  22.416  17.047  13.606
45859W        W18284  44.039  21.419  14.939
45860W        W18285   5.515   0.392  13.024
45861W        W18286  12.817  10.602  14.936
45862W        W18287  26.177   8.166   3.787
45863W        W18288   0.064  29.306   1.046
45864W        W18289  19.761  31.741   4.033
45865W        W18290  21.955  39.449  12.820
45866W        W18291   9.863  41.033   2.219
45867W        W18292  35.728   6.401  14.564
45868W        W18293  39.075  30.513   1.966
45869W        W18294  25.621  32.528  14.948
45870W        W18295  24.556  10.345  10.199
45871W        W18296  22.007   5.789  12.505
45872W        W18297   1.943  34.055   0.338
45873W        W18298  43.965  39.457  12.500
45874W        W18299  40.892  31.089  10.864
45875W        W18300  16.537   5.539  10.502
45876W        W18301  19.126  11.564  11.038
45877W        W18302   0.783  31.152   3.260
45878W        W18303  20.587  25.075   3.973
45879W        W18304  22.075  37.341  13.801
45880W        W18305  42.434  23.094  10.949
45881W        W18306  17.278  39.360  14.718
45882W        W18307  43.738   9.212  12.014
45883W        W18308  30.586  11.068   3.718
45884W        W18309  37.603  43.083  13.266
45885W        W18310  43.234   0.265  11.234
45886W        W18311  17.147  38.775  12.374
45887W        W18312  42.421  18.163  13.504
45888W        W18313  12.376  24.256   3.220
45889W        W18314  28.915  18.001  14.787
45890W        W18315   4.493  21.676   4.138
45891W        W18316  30.116  18.875   4.646
45892W        W18317  11.202  22.995   4.136
45893W        W18318  44.325  27.869   1.346
45894W        W18319  36.420  32.120  11.340
45895W        W18320  33.913   1.818   1.341
45896W        W18321   7.972   4.751   0.486
45897W        W18322  43.894  30.191   0.233
45898W        W18323  38.819  33.094  10.996
45899W        W18324  30.471  35.563   0.359
45900W        W18325  33.222  43.976  11.461
45901W        W18326  35.879   8.760   0.971
45902W        W18327  14.785  11.408  10.599
45903W        W18328  28.344  26.442  11.082
45904W        W18329  18.073  39.200   4.523
45905W        W18330  12.916   7.426  14.433
45906W        W18331  33.558  33.877   2.174
45907W        W18332   6.374  35.840  13.954
45908W        W18333   0.449  40.357   0.949
45909W        W18334   4.253  41.078  11.884
45910W        W18335  22.601  10.203   2.796
45911W        W18336  10.333  33.353  11.485
45912W        W18337  34.321  13.167  14.973
45913W        W18338  40.491  23.500   2.842
45914W        W18339  19.674  41.239  14.209
45915W        W18340   5.977  18.738   0.887
45916W        W18341  22.631  23.508  13.946
45917W        W18342  15.012   5.416  13.077
45918W        W18343  32.104  19.295  12.647
45919W        W18344  22.040  28.786  11.016
45920W        W18345  17.223   9.809  14.734
45921W        W18346  27.968  16.507  14.236
45922W        W18347  40.403  26.541  11.092
45923W        W18348  34.861   5.010   3.227
45924W        W18349  11.712   6.830   1.471
45925W        W18350  10.553   2.210   0.296
45926W        W18351  44.391  36.477   3.752
45927W        W18352  25.565  17.523   4.406
45928W        W18353  43.523  42.668   5.086
45929W        W18354  33.556  17.068   9.714
45930W        W18355  14.271  15.144  11.457
45931W        W18356  43.447   2.726   1.839
45932W        W18357   5.410  33.337  14.834
45933W        W18358   1.431   5.184   0.288
45934W        W18359  24.651  36.465  14.286
45935W        W18360  38.018   4.848   1.358
45936W        W18361  12.622  25.673   4.181
45937W        W18362  13.491  13.089   1.753
45938W        W18363  42.009  40.280  11.949
45939W        W18364   2.143  34.895   4.592
45940W        W18365  11.278  43.016  11.225
45941W        W18366  31.430  20.048   3.704
45942W        W18367   8.424  23.219   2.713
45943W        W18368   0.525   3.500  12.466
45944W        W18369  29.125  14.080  12.835
45945W        W18370  16.115   1.048  11.401
45946W        W18371  36.915  40.246   4.134
45947W        W18372  10.179   6.672   3.785
45948W        W18373  43.281  16.739   0.923
45949W        W18374   7.183  44.355  14.256
45950W        W18375  15.254   4.659  13.312
45951W        W18376  35.414  12.694   4.004
45952W        W18377  20.932  42.956  11.629
45953W        W18378  34.080   8.632   0.374
45954W        W18379  41.864  33.395  12.972
45955W        W18380  35.784  29.514  13.499
45956W        W18381  27.844  32.008  13.021
45957W        W18382  38.463  37.118   2.749
45958W        W18383   6.484  26.736   3.047
45959W        W18384   5.479   9.307   2.300
45960W        W18385  18.406   0.277  10.079
45961W        W18386   9.219  27.447   1.785
45962W        W18387  34.976  43.346  13.458
45963W        W18388  25.945  44.996  14.785
45964W        W18389  14.773   4.818   2.892
45965W        W18390   1.016  24.578  12.010
45966W        W18391  23.507  37.838  12.151
45967W        W18392  10.703  31.515  11.377
45968W        W18393  35.816  16.923  12.654
45969W        W18394  18.788  44.514   3.389
45970W        W18395  34.471  14.074  10.820
45971W        W18396  29.953  21.677  11.849
45972W        W18397  31.099  38.759  10.777
45973W        W18398   9.349   8.518  10.670
45974W        W18399  31.136  41.471  13.412
45975W        W18400  12.164  21.654  14.366
45976W        W18401  13.054  19.310   2.711
45977W        W18402  27.173  35.044   4.498
45978W        W18403  32.773   4.060  13.473
45979W        W18404  38.253  24.492   4.594
45980W        W18405   2.971  17.621  13.890
45981W        W18406   5.795  36.091   0.218
45982W        W18407  29.431  11.875  12.120
45983W        W18408  40.474  36.055   2.457
45984W        W18409  35.844   0.620  11.163
45985W        W18410  29.117  39.323  12.332
45986W        W18411  21.260   0.186   3.189
45987W        W18412   0.498  26.910  10.879
45988W        W18413   1.423  11.610  11.044
45989W        W18414  31.319  21.200  13.474
45990W        W18415  37.635  43.844   3.660
45991W        W18416  41.347  37.910  12.542
45992W        W18417   0.136  12.300   2.722
45993W        W18418  26.221  35.736   3.315
45994W        W18419   6.477  38.041  11.927
45995W        W18420   6.001  42.958   2.864
45996W        W18421  17.466   9.063  10.619
45997W        W18422  26.410  44.299  13.854
45998W        W18423  39.585  42.222   3.719
45999W        W18424  23.586  22.643   4.694
46000W        W18425  35.895  22.990   5.492
46001W        W18426  11.177  39.820  12.117
46002W        W18427  15.113   2.806  12.028
46003W        W18428  24.058  33.354   1.304
46004W        W18429  30.106  43.678  11.242
46005W        W18430  36.510  20.042  13.086
46006W        W18431  25.049   9.909   1.234
46007W        W18432  37.933  34.872   4.463
46008W        W18433  25.499  39.710  11.272
46009W        W18434  10.797  29.945  13.478
46010W        W18435  12.822   2.735  10.676
46011W        W18436  27.735  35.350   4.733
46012W        W18437  41.497  21.661   2.362
46013W        W18438  25.563  12.722   1.886
46014W        W18439  16.102  32.007   2.717
46015W        W18440  14.387   1.112   0.700
46016W        W18441  32.771  44.374   4.151
46017W        W18442  32.875  37.469  12.534
46018W        W18443  29.113  22.563   0.705
46019W        W18444   0.837  32.572  10.521
46020W        W18445  13.354  38.390  12.570
46021W        W18446   2.191  26.075   3.350
46022W        W18447  19.952   0.343  13.628
46023W        W18448  32.138  19.394   2.825
46024W        W18449   6.146  43.313  12.512
46025W        W18450  30.957  16.070  10.996
46026W        W18451  17.245   3.038   1.712
46027W        W18452  39.489  36.924   2.740
46028W        W18453  23.033  32.811   3.130
46029W        W18454  20.206   5.397   1.349
46030W        W18455   3.430  25.306   2.394
46031W        W18456   6.165  23.499  10.399
46032W        W18457  24.790  17.650   3.392
46033W        W18458  38.492  41.824  14.068
46034W        W18459  24.741  42.300   0.496
46035W        W18460   7.920  27.039  12.510
46036W        W18461  27.004  10.615   0.869
46037W        W18462  25.757  21.817   4.130
46038W        W18463  22.207  17.543   1.284
46039W        W18464  40.286   5.115  10.784
46040W        W18465  12.281  39.267  11.129
46041W        W18466  24.892   4.103   4.326
46042W        W18467  38.395  28.442  12.043
46043W        W18468  33.830  40.826   2.348
46044W        W18469  15.564  28.965  12.475
46045W        W18470  30.939  31.014  11.383
46046W        W18471  22.240  38.942  14.576
46047W        W18472   6.350  13.770   4.421
46048W        W18473   9.848  44.490   1.825
46049W        W18474   2.196  18.877  11.720
46050W        W18475  14.994  10.746   1.849
46051W        W18476  30.334  40.425   2.311
46052W        W18477   1.224  38.369  12.512
46053W        W18478  19.844  34.394  10.672
46054W        W18479  43.376  36.606   4.203
46055W        W18480  39.949  17.618  13.816
46056W        W18481   8.838  40.004  12.566
46057W        W18482  26.699   5.369  12.054
46058W        W18483   8.967   2.331  13.905
46059W        W18484  42.351   2.283  13.773
46060W        W18485  24.726  39.013   2.375
46061W        W18486  30.589  34.656  13.327
46062W        W18487   7.212  16.292   2.325
46063W        W18488  28.841  22.694   2.181
46064W        W18489   8.829  29.053   0.821
46065W        W18490   5.806  41.243   1.134
46066W        W18491   3.855  30.861  12.875
46067W        W18492  32.965  40.115  11.102
46068W        W18493   1.847  20.115   3.236
46069W        W18494  33.255  29.694  13.921
46070W        W18495  40.066  38.975   3.888
46071W        W18496  25.681  30.039   0.863
46072W        W18497  39.296   4.949  13.672
46073W        W18498  42.367   8.329   1.056
46074W        W18499   5.407  25.110  11.109
46075W        W18500  11.757  38.104   4.141
46076W        W18501  16.105  12.289  13.924
46077W        W18502  43.398  17.210  12.603
46078W        W18503  44.396  43.925  11.824
46079W        W18504  34.938  15.719  10.640
46080W        W18505  30.392  12.744   2.762
46081W        W18506   3.257  41.356  13.446
46082W        W18507  44.081   4.350   4.297
46083W        W18508   2.539  36.651   0.771
46084W        W18509  26.943   0.533   1.265
46085W        W18510  19.890   9.440   4.032
46086W        W18511  41.287  31.199  11.785
46087W        W18512  22.570   8.508   4.866
46088W        W18513  11.792  30.603  12.126
46089W        W18514  38.798   0.970  14.749
46090W        W18515  33.458  12.115   2.862
46091W        W18516  12.300  30.135  11.447
46092W        W18517  38.334  14.124  12.439
46093W        W18518  42.911  15.869  12.973
46094W        W18519  26.269  15.642  12.568
46095W        W18520  33.494  10.462  14.024
46096W        W18521  37.339  30.158  10.813
46097W        W18522  15.738   0.475   4.618
46098W        W18523  11.848  30.324   2.863
46099W        W18524  13.141  40.941  14.235
46100W        W18525  18.345  38.103  10.486
46101W        W18526   7.990  18.258  12.787
46102W        W18527  26.904   6.155  12.028
46103W        W18528  16.757   6.970  13.802
46104W        W18529  23.213  35.001   4.091
46105W        W18530  25.681  42.869  11.707
46106W        W18531  12.148   7.386   4.016
46107W        W18532   6.569  27.078   0.525
46108W        W18533  43.369   5.688  11.580
46109W        W18534  41.053  25.922   3.662
46110W        W18535   8.788  30.404  13.230
46111W        W18536  15.547  38.806   0.247
46112W        W18537  26.964  27.570  11.386
46113W        W18538   6.851  21.096  12.419
46114W        W18539   0.868   1.799  13.815
46115W        W18540   1.403  29.022  12.926
46116W        W18541  34.306   7.754   0.919
46117W        W18542  24.477  43.943  12.144
46118W        W18543   2.674  35.002   0.290
46119W        W18544  30.163  31.626   0.372
46120W        W18545  24.784  23.771   4.164
46121W        W18546  41.042  42.466  11.427
46122W        W18547  10.377  19.648   9.919
46123W        W18548  21.828  10.470   0.297
46124W        W18549  16.798  12.378   0.910
46125W        W18550  42.731  28.441   0.011
46126W        W18551  20.726  31.465  14.778
46127W        W18552  20.078  23.182  13.371
46128W        W18553  34.434  39.844   2.278
46129W        W18554  35.493  28.189  13.464
46130W        W18555  30.137  28.963  11.723
46131W        W18556   1.406  25.112   3.290
46132W        W18557   7.527  34.185  10.657
46133W        W18558  39.909   8.594   1.853
46134W        W18559  32.478  17.677   1.111
46135W        W18560  40.455   0.656   2.838
46136W        W18561  17.611  43.793  13.005
46137W        W18562  33.202  26.196  10.493
46138W        W18563   8.616  27.640   4.066
46139W        W18564   5.293   2.349   2.732
46140W        W18565  30.947   4.048  13.019
46141W        W18566  36.857  27.211   0.422
46142W        W18567  43.187  34.971   4.573
46143W        W18568  28.943  39.522   4.472
46144W        W18569  16.117  17.236  14.547
46145W        W18570  42.004  34.979  10.686
46146W        W18571   4.883   6.495   0.963
46147W        W18572  30.982  16.190   5.585
46148W        W18573  18.522  14.618   3.688
46149W        W18574   0.201  41.028  11.577
46150W        W18575  36.036  13.872   0.405
46151W        W18576  32.338   6.929  11.345
46152W        W18577  19.088  11.366  14.797
46153W        W18578  25.200  29.149  14.803
46154W        W18579  28.358  19.771  11.557
46155W        W18580  34.930  17.668   0.952
46156W        W18581  15.724  13.096  10.429
46157W        W18582   8.718  21.686  13.037
46158W        W18583   0.812  25.642  11.105
46159W        W18584  17.286   1.804  10.327
46160W        W18585  38.920  34.547  10.927
46161W        W18586  19.997  44.977   1.816
46162W        W18587   6.266   4.490   1.774
46163W        W18588  20.083  44.692   4.496
46164W        W18589   3.399  22.054  12.846
46165W        W18590  40.557   9.860   0.265
46166W        W18591  18.020  28.284   3.278
46167W        W18592  41.439  13.682  14.911
46168W        W18593  35.977  12.170  11.931
46169W        W18594  33.934  44.674   1.897
46170W        W18595   8.647   2.752   4.056
46171W        W18596  34.768  35.461   3.205
46172W        W18597   5.305  22.799  13.550
46173W        W18598  12.285  10.891  11.265
46174W        W18599  39.319  42.452   9.782
46175W        W18600  33.620   6.027  14.151
46176W        W18601  13.673   7.349  14.908
46177W        W18602   9.587  44.889   4.565
46178W        W18603  39.922   6.479  11.546
46179W        W18604  17.693   5.643   3.298
46180W        W18605  16.050  12.244   3.305
46181W        W18606   5.973  15.015  14.974
46182W        W18607  42.892  34.240  12.503
46183W        W18608  14.836  23.052  10.633
46184W        W18609  26.418  21.732   2.667
46185W        W18610  39.982   9.427  13.347
46186W        W18611   3.919  18.560   1.775
46187W        W18612  44.816  20.634  13.068
46188W        W18613  43.094   4.403  10.757
46189W        W18614  38.007  41.374  12.434
46190W        W18615  36.068  30.446  13.465
46191W        W18616  38.910  12.878   3.212
46192W        W18617  36.050  43.371  14.949
46193W        W18618  37.821  37.933  13.949
46194W        W18619  43.015  43.152   2.756
46195W        W18620  11.744  39.410  12.481
46196W        W18621  23.563  17.243   1.714
46197W        W18622  29.536  21.497  12.998
46198W        W18623   2.348   1.102   2.294
46199W        W18624  33.155  35.916  12.454
46200W        W18625   4.408  10.117   2.315
46201W        W18626  36.134  39.411   3.215
46202W        W18627   4.883  28.000   1.970
46203W        W18628  27.856  11.166  13.462
46204W        W18629   4.241   5.843   3.846
46205W        W18630  16.688  44.964  14.865
46206W        W18631  27.994  42.857   2.130
46207W        W18632   2.061  26.050  12.012
46208W        W18633  18.589  39.372  14.808
46209W        W18634  27.145  24.947   0.548
46210W        W18635  17.997  32.911  10.235
46211W        W18636   4.195  25.061  12.471
46212W        W18637  37.982  17.611   2.607
46213W        W18638  44.323  23.065   0.645
46214W        W18639  42.552  11.720  11.743
46215W        W18640   6.158  14.099   3.657
46216W        W18641   5.659  24.028  13.115
46217W        W18642   0.199   5.270   2.367
46218W        W18643   5.962   6.789   1.661
46219W        W18644  22.121  32.123  13.544
46220W        W18645  13.208  18.334   1.903
46221W        W18646   1.261   9.616   0.744
46222W        W18647   6.373  19.437  11.087
46223W        W18648  12.208  14.747  11.583
46224W        W18649   1.878   5.434   0.358
46225W        W18650  16.555   4.717   0.253
46226W        W18651  37.296   6.844   4.156
46227W        W18652  28.222  40.947   4.328
46228W        W18653  18.661   3.526  13.044
46229W        W18654  12.295  19.719   0.333
46230W        W18655   0.156  21.432   4.089
46231W        W18656  42.934  33.489   3.786
46232W        W18657  13.105  19.732   1.902
46233W        W18658  20.707   4.708  12.986
46234W        W18659  31.622  30.442   2.389
46235W        W18660  12.626  25.267   3.789
46236W        W18661  24.522  42.370   4.498
46237W        W18662  44.446   3.102   5.431
46238W        W18663   5.351  17.041  13.353
46239W        W18664  25.683  10.504   0.363
46240W        W18665   7.879  32.626  14.804
46241W        W18666  29.501  33.185  11.196
46242W        W18667  17.859  20.295   2.182
46243W        W18668   7.077  30.604   3.653
46244W        W18669  17.994  27.532   4.552
46245W        W18670  24.079  36.546   4.228
46246W        W18671  23.632   1.928   1.348
46247W        W18672  38.993   3.968  11.140
46248W        W18673  30.901  16.180   4.239
46249W        W18674   5.029  29.075   4.542
46250W        W18675   6.371  29.946  12.434
46251W        W18676  38.277   8.607   3.246
46252W        W18677   9.179  24.536   0.273
46253W        W18678  15.885  43.769  11.576
46254W        W18679  44.932  11.322   0.501
46255W        W18680  29.536  19.440   2.741
46256W        W18681  15.609  30.926   0.832
46257W        W18682   7.173  17.640   3.589
46258W        W18683   2.734  30.779  13.506
46259W        W18684  11.387   7.969  13.882
46260W        W18685  38.876  38.747  14.120
46261W        W18686  13.256  24.354   9.814
46262W        W18687  16.694  26.129   0.239
46263W        W18688  33.849  11.177   2.386
46264W        W18689  23.454  13.697  11.527
46265W        W18690  14.108  31.248  11.900
46266W        W18691  27.568   6.782   1.273
46267W        W18692  41.910  42.244  10.108
46268W        W18693  20.121  26.366  14.659
46269W        W18694  30.651  37.241   4.161
46270W        W18695  28.337   3.277  12.555
46271W        W18696   5.550   4.338  14.366
46272W        W18697  39.783  11.612   1.006
46273W        W18698  10.774  27.697   1.877
46274W        W18699  10.347  21.692  12.085
46275W        W18700  38.793  25.620   0.021
46276W        W18701  33.939  21.759   1.208
46277W        W18702  20.335  25.030   4.637
46278W        W18703   1.072  40.136  14.390
46279W        W18704  41.292  17.227  13.234
46280W        W18705  12.582  23.999  13.044
46281W        W18706  43.385  34.014  12.586
46282W        W18707  34.010  35.538  11.041
46283W        W18708   9.233   8.616   4.200
46284W        W18709  20.581   8.352   0.488
46285W        W18710  19.704  15.315  14.955
46286W        W18711   3.844  29.700   2.920
46287W        W18712  36.958  15.575  12.031
46288W        W18713  32.596  34.335  12.098
46289W        W18714   4.502  34.831   1.387
46290W        W18715  27.039   8.620  12.859
46291W        W18716  28.924   1.779   2.891
46292W        W18717  37.436  11.550  11.417
46293W        W18718   9.782   8.697   1.628
46294W        W18719  31.074  36.343  13.978
46295W        W18720  12.088  20.033  11.137
46296W        W18721  15.722  41.555  10.552
46297W        W18722  29.220   4.263   2.766
46298W        W18723  15.272  41.574  12.966
46299W        W18724  41.465  31.312   3.299
46300W        W18725  31.920  30.764   0.298
46301W        W18726  15.183  26.652  14.754
46302W        W18727   5.854  28.901   4.904
46303W        W18728  34.845  31.541  10.562
46304W        W18729   4.981  21.807  14.739
46305W        W18730   7.655  28.950  12.607
46306W        W18731  27.477   2.594  11.942
46307W        W18732  17.325   7.452   0.367
46308W        W18733  44.365  36.403  12.682
46309W        W18734  43.540  28.148  14.684
46310W        W18735  36.461  42.030  13.157
46311W        W18736  30.694  20.323   2.742
46312W        W18737  14.726  21.172  13.614
46313W        W18738  44.842   7.225   1.767
46314W        W18739   6.821   8.388  11.692
46315W        W18740  39.240  20.172   4.025
46316W        W18741  44.285  36.851   0.792
46317W        W18742   9.297   5.136   0.340
46318W        W18743  30.168  43.092  12.644
46319W        W18744  37.439   4.406  11.615
46320W        W18745  43.980  26.812   3.906
46321W        W18746  38.632  20.344  11.284
46322W        W18747  44.797  27.558  14.027
46323W        W18748  33.965   7.754   4.833
46324W        W18749  22.021   9.381   3.658
46325W        W18750  43.838  29.384  11.127
46326W        W18751  44.287  21.604   2.316
46327W        W18752  15.835  40.767  13.514
46328W        W18753  23.245  18.733   4.350
46329W        W18754  43.666   2.477  12.890
46330W        W18755   5.908   3.399   3.200
46331W        W18756  30.738   7.782   3.351
46332W        W18757  15.485  42.534   3.737
46333W        W18758  44.820  20.301  13.549
46334W        W18759  27.939  11.907  11.131
46335W        W18760   1.216  36.434  12.978
46336W        W18761  38.483   3.935  10.892
46337W        W18762  26.433  11.029  11.568
46338W        W18763  19.290  37.943  11.569
46339W        W18764  17.403  41.177  10.842
46340W        W18765  13.142  24.481   5.676
46341W        W18766   7.014   9.916  14.349
46342W        W18767   1.520  13.891  13.238
46343W        W18768  14.135  18.614   2.727
46344W        W18769   3.802  34.851  11.345
46345W        W18770  23.392   9.032  11.451
46346W        W18771  44.447  17.640   0.913
46347W        W18772  41.887  36.439  10.689
46348W        W18773   3.827  10.298   4.003
46349W        W18774   0.823  27.029   4.748
46350W        W18775  18.630  16.889   4.311
46351W        W18776  42.481   6.272   1.842
46352W        W18777  32.947   4.220  11.888
46353W        W18778   6.742  38.136   2.663
46354W        W18779  41.801  14.064   2.581
46355W        W18780   6.949   7.747  11.116
46356W        W18781  18.155  18.356   3.323
46357W        W18782  39.918  38.452   4.690
46358W        W18783  14.350  44.905   1.200
46359W        W18784  40.033   2.490   0.793
46360W        W18785   6.793  10.905  11.093
46361W        W18786   9.200   6.749   1.853
46362W        W18787   5.228  24.344   3.622
46363W        W18788  38.414  25.459  14.684
46364W        W18789   7.352  36.286  11.689
46365W        W18790  25.028   9.742   3.672
46366W        W18791  12.193  44.772  11.182
46367W        W18792  12.667  14.201   4.651
46368W        W18793  37.523  21.223  11.125
46369W        W18794  10.127  37.156   3.599
46370W        W18795  21.350   9.322  13.069
46371W        W18796  18.991  30.969   2.218
46372W        W18797  24.965   6.300  14.933
46373W        W18798  34.386   8.025  14.804
46374W        W18799  32.348  32.611   4.122
46375W        W18800  15.317  32.907   2.238
46376W        W18801  41.740   3.213  13.309
46377W        W18802  19.053  34.603   2.722
46378W        W18803  33.270  23.529   2.717
46379W        W18804  39.333   4.421   4.627
46380W        W18805   4.053  21.107   1.414
46381W        W18806  39.563  41.489  11.605
46382W        W18807  28.247   7.819   0.527
46383W        W18808   0.444  32.997  14.299
46384W        W18809  22.061  15.429   4.725
46385W        W18810  44.333  30.723   2.269
46386W        W18811   8.635  20.174   3.187
46387W        W18812  18.315  39.774  11.014
46388W        W18813  35.614  11.102   1.020
46389W        W18814  31.584  28.128  13.572
46390W        W18815  22.035   3.710   4.658
46391W        W18816  28.620  33.305  14.791
46392W        W18817  19.733   9.109  11.136
46393W        W18818  17.751  19.193   0.772
46394W        W18819  31.852  43.141   1.449
46395W        W18820  44.654   2.635   1.508
46396W        W18821  37.509  28.700  12.668
46397W        W18822  13.081  21.935  10.644
46398W        W18823  18.566  12.146   0.326
46399W        W18824   9.262  23.229  12.113
46400W        W18825   2.219   0.183   3.325
46401W        W18826   6.109  18.557  13.751
46402W        W18827  21.623  23.059   1.955
46403W        W18828  36.805  25.022  11.491
46404W        W18829  26.785   6.875  12.521
46405W        W18830  37.612  13.933   4.250
46406W        W18831   8.324  33.386  14.409
46407W        W18832  10.401  34.143  14.249
46408W        W18833   0.216  39.823   2.291
46409W        W18834   1.805  29.651  10.695
46410W        W18835  24.552   3.827   2.252
46411W        W18836  30.061  44.873  11.911
46412W        W18837  38.449  12.846  12.499
46413W        W18838  19.058  24.517   0.933
46414W        W18839  29.238  42.383   1.763
46415W        W18840   3.838  25.507   2.666
46416W        W18841  33.938  11.451  12.492
46417W        W18842   0.291   7.169  12.411
46418W        W18843  40.183  40.502   4.933
46419W        W18844  10.810   2.012   4.535
46420W        W18845  35.618  31.164  11.660
46421W        W18846  18.864  15.201   1.182
46422W        W18847  21.572  33.964  13.557
46423W        W18848   3.761  34.455   2.325
46424W        W18849   9.331   5.520  12.949
46425W        W18850   7.777   8.251   4.483
46426W        W18851  40.865  37.834   1.018
46427W        W18852  15.187  12.740  11.995
46428W        W18853  40.553  16.539   1.348
46429W        W18854  44.328  10.269  13.416
46430W        W18855  26.286  28.108  13.857
46431W        W18856  12.149  31.486  13.760
46432W        W18857  44.329  41.489   2.562
46433W        W18858  12.086  23.843   2.400
46434W        W18859  30.144  31.591   4.708
46435W        W18860  36.062  33.629  10.675
46436W        W18861  31.157   3.824  14.810
46437W        W18862  15.728  34.976   4.971
46438W        W18863  25.199   5.027   1.375
46439W        W18864  39.283  12.881  14.422
46440W        W18865  37.543   8.376  10.669
46441W        W18866   6.296  42.429  12.015
46442W        W18867  12.900   9.104  13.190
46443W        W18868   3.188  20.007  14.388
46444W        W18869  22.823   9.729   2.778
46445W        W18870  44.314  14.843  14.948
46446W        W18871  19.582  21.218  13.325
46447W        W18872  32.267  43.079   2.818
46448W        W18873  34.857  36.608  12.500
46449W        W18874  38.742   5.813   0.936
46450W        W18875   2.008  37.565   2.814
46451W        W18876  32.039  15.155  13.902
46452W        W18877  19.641  41.617  10.628
46453W        W18878  36.055   1.635   0.004
46454W        W18879  10.907  18.172  11.560
46455W        W18880  29.952  21.810  12.815
46456W        W18881  15.577  29.705  11.219
46457W        W18882  22.608  16.319   1.394
46458W        W18883   7.209   0.813  14.344
46459W        W18884   5.660  44.651   0.298
46460W        W18885  22.159  31.027   3.247
46461W        W18886  35.011   1.213  13.090
46462W        W18887  30.536  15.393  14.316
46463W        W18888  41.508  27.364   1.810
46464W        W18889  29.548   7.979  11.029
46465W        W18890  10.250  39.476   2.636
46466W        W18891  24.965   4.362   0.850
46467W        W18892  30.172  19.559  13.812
46468W        W18893  38.589  22.133   5.109
46469W        W18894  42.510  26.781   3.040
46470W        W18895  37.371  29.932   3.429
46471W        W18896  12.229  31.745  13.017
46472W        W18897  42.419  17.603  11.029
46473W        W18898  44.944   4.832   2.345
46474W        W18899  27.085  16.741  11.486
46475W        W18900  10.603  32.874  11.361
46476W        W18901  23.762  32.854  12.904
46477W        W18902  38.039  25.256  11.043
46478W        W18903  16.946  37.545   3.621
46479W        W18904   7.631  20.730  14.496
46480W        W18905  16.018   7.717  11.584
46481W        W18906  24.695  40.254   1.410
46482W        W18907  38.614  40.564  13.356
46483W        W18908  19.279  28.688  14.855
46484W        W18909  33.835  10.836  14.086
46485W        W18910   2.193  41.337   4.274
46486W        W18911  25.295   6.593   0.239
46487W        W18912   9.450   7.225   1.816
46488W        W18913  24.081  38.048  13.898
46489W        W18914  21.354   3.253  14.847
46490W        W18915  36.502  43.418  10.866
46491W        W18916  30.546   0.282  13.193
46492W        W18917   9.163   5.742   2.792
46493W        W18918  21.962  37.402   1.195
46494W        W18919  17.514  19.081  14.399
46495W        W18920   5.222   4.972  11.685
46496W        W18921  33.757  32.342   3.354
46497W        W18922  15.028   5.872  11.916
46498W        W18923  23.198  23.027   1.127
46499W        W18924  15.372   3.359   1.388
46500W        W18925   3.966   3.794  14.730
46501W        W18926   8.376   1.800  10.694
46502W        W18927  23.055  19.064   1.429
46503W        W18928  23.287  21.190  12.056
46504W        W18929  37.994  32.094   3.187
46505W        W18930  34.878  12.587  14.026
46506W        W18931  25.900  31.892  10.682
46507W        W18932   6.425  13.972  13.855
46508W        W18933   1.504  43.531  11.201
46509W        W18934   6.791  17.816  12.558
46510W        W18935  16.926  15.516   2.750
46511W        W18936  26.052  10.877   0.459
46512W        W18937  20.778   8.103   3.125
46513W        W18938  22.789  12.265  14.271
46514W        W18939  37.904  33.513  10.361
46515W        W18940  36.671  39.817   5.024
46516W        W18941  16.891  44.256   2.343
46517W        W18942   4.915  42.245  14.277
46518W        W18943  18.016  42.937  14.753
46519W        W18944  14.302  24.306  14.901
46520W        W18945   3.970  18.099   0.871
46521W        W18946  42.047  18.522  10.861
46522W        W18947  32.650  19.982   5.054
46523W        W18948  35.202   2.284   3.630
46524W        W18949  11.354  20.210   4.181
46525W        W18950  44.980  27.147   2.580
46526W        W18951   6.797  29.985  14.515
46527W        W18952  33.644  27.189  14.694
46528W        W18953   7.254  36.738  10.255
46529W        W18954   9.921  43.423   4.628
46530W        W18955  37.964  17.509  11.636
46531W        W18956  14.087  15.570   0.768
46532W        W18957  10.092  17.210   2.631
46533W        W18958  42.786  31.903   3.134
46534W        W18959  16.805  30.448  14.900
46535W        W18960  11.134   2.986  14.759
46536W        W18961  21.203  32.573   0.327
46537W        W18962  33.116  32.348  11.165
46538W        W18963  15.507  31.943   3.577
46539W        W18964   4.752   4.481   0.889
46540W        W18965   0.939   8.776   5.024
46541W        W18966  35.399  22.109   4.946
46542W        W18967  38.436  42.717  13.872
46543W        W18968  33.475  37.311   1.269
46544W        W18969  26.710  15.838   0.972
46545W        W18970  35.498  33.517  13.111
46546W        W18971  22.553   8.671   0.889
46547W        W18972   0.043   7.175   2.285
46548W        W18973  14.808  31.742   2.307
46549W        W18974   6.180  36.625  12.428
46550W        W18975  43.502  20.789  13.112
46551W        W18976   3.002  19.257   4.169
46552W        W18977  16.327  36.110   1.393
46553W        W18978  31.918  20.272  11.002
46554W        W18979  14.742  10.307   0.536
46555W        W18980  38.546  36.836  14.481
46556W        W18981  21.516  37.287   3.722
46557W        W18982  44.334  31.336  12.146
46558W        W18983   7.197  18.102  13.499
46559W        W18984  26.600  12.059  11.433
46560W        W18985   0.945   9.863  12.233
46561W        W18986   4.724  40.235   0.247
46562W        W18987   8.354  33.294  11.717
46563W        W18988  22.712  18.631   4.409
46564W        W18989   2.804  40.512  11.869
46565W        W18990  25.079  18.504   0.216
46566W        W18991  31.417  31.220  13.048
46567W        W18992  23.227  27.456   4.395
46568W        W18993   4.142  38.940  13.903
46569W        W18994  41.447  40.307   0.272
46570W        W18995  44.285  17.167  13.759
46571W        W18996  36.259  10.781   1.657
46572W        W18997  11.902   0.404   2.892
46573W        W18998   3.277  25.602  10.865
46574W        W18999  14.343  31.834   1.347
46575W        W19000  32.934  27.732  11.594
46576W        W19001  40.384  11.997   1.749
46577W        W19002  39.620  13.047  14.045
46578W        W19003  23.235   0.797  10.832
46579W        W19004  22.445   4.952  13.477
46580W        W19005  35.207  13.267  10.594
46581W        W19006   8.972  42.474  11.841
46582W        W19007  42.984  44.322  12.184
46583W        W19008  13.607   7.928   1.104
46584W        W19009  30.849  35.996   0.235
46585W        W19010  38.789  11.292   1.788
46586W        W19011   7.589  16.154   1.352
46587W        W19012  34.353  41.588  13.089
46588W        W19013  12.594  31.056  12.240
46589W        W19014  10.493  30.104   2.319
46590W        W19015  24.185  10.090   2.320
46591W        W19016  20.554   4.450  11.131
46592W        W19017  40.045  41.862  14.804
46593W        W19018   3.835  31.576   1.300
46594W        W19019  11.014  22.721  13.931
46595W        W19020  10.613   3.781  13.742
46596W        W19021  35.216  34.062  11.900
46597W        W19022  14.785  15.358   4.569
46598W        W19023  44.483  13.232  14.274
46599W        W19024   6.213  27.495  12.485
46600W        W19025  36.480  28.252  14.928
46601W        W19026  33.013   1.930  14.855
46602W        W19027   3.342  29.718   3.067
46603W        W19028  36.673  23.620   4.530
46604W        W19029  24.442  27.975   4.687
46605W        W19030  23.839  20.088   3.730
46606W        W19031  21.058  37.046  10.492
46607W        W19032  19.554  19.809  13.323
46608W        W19033  29.594  41.353   3.325
46609W        W19034  16.712   3.877  11.535
46610W        W19035  19.220   9.172  11.614
46611W        W19036  20.787  30.047   4.332
46612W        W19037  36.130  20.703  11.560
46613W        W19038  16.722  21.574   2.598
46614W        W19039  19.705   1.068  14.364
46615W        W19040  35.152  40.638   1.447
46616W        W19041  34.600  19.104  13.002
46617W        W19042  37.430  30.532  11.170
46618W        W19043  42.272   6.527  14.442
46619W        W19044  28.162  29.499   1.203
46620W        W19045   2.515   9.013   5.255
46621W        W19046  24.659  14.362  11.607
46622W        W19047  41.985  20.144   1.899
46623W        W19048  14.307  25.170   3.098
46624W        W19049  44.269  43.564   0.254
46625W        W19050   2.251  18.313   5.122
46626W        W19051  33.074   5.847   3.721
46627W        W19052  26.181   3.410  12.887
46628W        W19053  28.720  34.675   3.121
46629W        W19054  14.896  27.620   2.274
46630W        W19055  16.071   2.796  12.190
46631W        W19056  15.209  19.691  13.068
46632W        W19057  41.307  35.357   2.707
46633W        W19058  35.383   8.364   3.268
46634W        W19059  22.494   5.202  13.960
46635W        W19060  37.020  23.166  11.021
46636W        W19061   9.328  26.265  14.366
46637W        W19062  34.074   2.742  14.917
46638W        W19063   9.086   9.896  10.854
46639W        W19064  20.024   7.012  12.846
46640W        W19065  16.590   2.374   5.082
46641W        W19066  11.174  26.997  12.041
46642W        W19067  33.570   0.417  10.730
46643W        W19068  12.789  38.783   3.620
46644W        W19069  36.934   7.938   4.874
46645W        W19070  18.212  18.455   2.278
46646W        W19071  44.857  40.367   3.342
46647W        W19072  44.015   8.251   3.852
46648W        W19073  37.129  34.954  13.395
46649W        W19074  21.268   2.090   2.870
46650W        W19075   8.193   0.314   3.233
46651W        W19076   3.357  42.077  11.873
46652W        W19077  16.962  41.878   4.296
46653W        W19078  34.164  34.632   0.016
46654W        W19079   8.214  40.060   0.269
46655W        W19080  19.075  17.459  11.355
46656W        W19081   8.121  19.904  13.301
46657W        W19082  16.083  37.203  11.127
46658W        W19083   9.672  43.761   0.999
46659W        W19084  40.831  24.716   1.186
46660W        W19085  32.354  31.128  12.996
46661W        W19086  28.302  35.949   2.425
46662W        W19087  18.244   6.668   1.315
46663W        W19088  14.113  38.005   3.699
46664W        W19089  23.858  42.090  12.768
46665W        W19090  43.600  15.810  14.959
46666W        W19091  29.875  39.089  10.778
46667W        W19092  21.623  25.731  10.721
46668W        W19093  14.121   4.769   1.687
46669W        W19094   1.684  32.162   0.818
46670W        W19095  42.677   3.254  11.953
46671W        W19096  26.965  21.788  11.386
46672W        W19097   3.683  36.245  11.944
46673W        W19098  14.216  17.670  11.193
46674W        W19099  23.594  43.389   1.864
46675W        W19100  31.495   2.290  13.460
46676W        W19101  39.385   2.291   2.065
46677W        W19102  34.006  39.499  11.887
46678W        W19103  10.443  18.637   1.222
46679W        W19104  18.601  16.593   1.162
46680W        W19105  25.058  22.625   1.730
46681W        W19106  33.008  38.457  11.143
46682W        W19107   4.317   8.685  10.404
46683W        W19108  39.762  36.495   2.762
46684W        W19109   2.712   6.685  12.474
46685W        W19110  37.664  33.182   0.911
46686W        W19111  27.460  30.669   4.488
46687W        W19112  29.363   8.463  11.019
46688W        W19113  24.522  12.354   4.446
46689W        W19114  34.533  24.485   3.551
46690W        W19115  13.528  19.486   2.691
46691W        W19116  41.004  15.072   4.263
46692W        W19117   8.098  37.401   0.285
46693W        W19118  29.895  15.963   2.134
46694W        W19119  24.994   2.836  12.337
46695W        W19120   0.607  22.801   0.846
46696W        W19121  14.750   3.960   2.901
46697W        W19122  23.962  28.910   3.334
46698W        W19123   6.722   9.541   4.783
46699W        W19124   4.942  42.503  14.755
46700W        W19125  21.161  42.252   2.778
46701W        W19126  33.992  19.289   2.500
46702W        W19127   4.123   4.927   4.539
46703W        W19128   8.131  43.379  11.869
46704W        W19129  12.749   5.309   1.904
46705W        W19130  12.752  35.393   2.347
46706W        W19131  15.277  35.059  12.955
46707W        W19132  12.532  15.765   2.641
46708W        W19133  43.786  18.665  13.368
46709W        W19134   0.507  43.337   2.434
46710W        W19135   3.412  32.040  12.450
46711W        W19136   5.524   6.261   3.710
46712W        W19137  42.041  37.537   4.354
46713W        W19138  10.764  23.261   4.077
46714W        W19139  21.679  11.757  13.557
46715W        W19140  30.882  37.889  13.847
46716W        W19141   0.345  10.619  12.527
46717W        W19142  38.308  11.946  11.074
46718W        W19143  11.343  32.320  11.035
46719W        W19144  33.593  19.671  11.397
46720W        W19145  22.323  13.318  11.464
46721W        W19146  39.893  20.223  12.098
46722W        W19147  31.628  17.608  11.473
46723W        W19148  36.099   0.453  12.134
46724W        W19149  24.064   6.825  11.952
46725W        W19150  22.312  31.049  13.002
46726W        W19151  20.850  35.924   0.508
46727W        W19152  10.753   5.972  11.582
46728W        W19153  25.459  23.948   3.492
46729W        W19154  38.885  42.062  14.372
46730W        W19155  15.616   3.405   4.520
46731W        W19156   3.795   1.599   2.654
46732W        W19157  29.945  32.229  10.403
46733W        W19158  11.556  25.091  11.458
46734W        W19159  36.958   0.433  10.528
46735W        W19160  24.341  38.593  14.904
46736W        W19161  41.035  10.385   2.727
46737W        W19162  34.869  38.967  14.234
46738W        W19163  20.176  30.884   3.586
46739W        W19164  16.626  29.927   1.172
46740W        W19165  32.524  23.559   1.634
46741W        W19166  32.325  12.612  10.573
46742W        W19167   4.460   3.398   0.542
46743W        W19168  24.174  44.863   2.874
46744W        W19169  31.615   4.864  13.231
46745W        W19170  31.963  41.430  12.946
46746W        W19171  39.793   3.162  12.118
46747W        W19172  36.784   1.774  12.913
46748W        W19173   6.826  17.656   2.802
46749W        W19174  28.272  31.390  11.591
46750W        W19175  43.637  41.153   3.510
46751W        W19176   5.463   5.403  12.526
46752W        W19177  39.891  13.261  10.741
46753W        W19178  12.353  34.001   2.245
46754W        W19179   1.970   7.385  12.958
46755W        W19180  14.690  12.740   1.285
46756W        W19181   1.874  18.103  12.831
46757W        W19182  38.908   2.825  14.245
46758W        W19183  19.031  27.775  13.922
46759W        W19184  34.935  14.163   1.429
46760W        W19185  11.338  16.855   1.843
46761W        W19186  31.138  32.501   0.475
46762W        W19187  10.564  26.111   2.698
46763W        W19188  33.748  10.745  14.980
46764W        W19189   1.272  34.842  14.751
46765W        W19190  25.059   4.961   4.140
46766W        W19191  32.781  10.813   1.655
46767W        W19192  36.380   7.054  10.636
46768W        W19193   2.058  16.830   4.651
46769W        W19194  42.714   2.741  12.010
46770W        W19195  31.588  24.547  12.091
46771W        W19196   0.871  32.327  11.004
46772W        W19197  21.662  38.892   4.214
46773W        W19198  34.101   0.534  11.115
46774W        W19199  16.751  26.414   1.428
46775W        W19200   0.684  26.014  13.080
46776W        W19201  42.335  35.346  13.498
46777W        W19202  20.873  38.684  11.476
46778W        W19203  40.510  17.327   1.675
46779W        W19204   6.345  27.729  12.988
46780W        W19205  15.522   1.355  13.829
46781W        W19206  21.239  28.613   2.756
46782W        W19207  11.993  33.555   1.858
46783W        W19208   1.502  23.772   3.703
46784W        W19209  44.904   7.425  11.224
46785W        W19210  11.720  14.358  11.180
46786W        W19211  43.659  44.465   2.767
46787W        W19212  33.709   7.811  10.270
46788W        W19213  33.918   8.519  12.533
46789W        W19214  39.794  36.824  11.099
46790W        W19215  16.157  39.954  14.564
46791W        W19216  31.585  31.142   0.444
46792W        W19217  29.858  28.441  10.173
46793W        W19218  43.906   1.937   0.522
46794W        W19219  12.378  38.889   2.662
46795W        W19220  23.521  26.215  14.871
46796W        W19221  16.252  44.689   0.492
46797W        W19222  37.486   0.455   4.028
46798W        W19223  29.073  21.692  11.344
46799W        W19224  31.542  18.562  14.097
46800W        W19225   9.307  42.048   1.872
46801W        W19226  18.205  38.784   4.240
46802W        W19227   5.346  35.075   0.520
46803W        W19228  23.670  37.346   4.837
46804W        W19229   8.439  31.988  11.583
46805W        W19230   0.455  26.953   2.605
46806W        W19231  31.008   0.941  10.658
46807W        W19232  19.854  32.821   2.880
46808W        W19233  11.310  10.694   0.351
46809W        W19234  29.759  25.007  13.174
46810W        W19235  14.453  25.662  12.629
46811W        W19236  25.478  19.095   1.352
46812W        W19237  18.141  17.223   4.986
46813W        W19238   7.303   2.855   0.211
46814W        W19239  32.157  43.423   1.811
46815W        W19240  26.467  21.636   1.195
46816W        W19241  10.519   6.302   1.441
46817W        W19242  43.292  13.581  14.312
46818W        W19243  44.886  39.047  12.594
46819W        W19244  25.919   7.782  10.489
46820W        W19245  14.230  28.778   2.327
46821W        W19246  17.592  35.797   4.155
46822W        W19247  28.638  18.763  13.539
46823W        W19248  14.151  39.783   1.344
46824W        W19249   8.881  40.153  11.638
46825W        W19250  41.932  39.426   4.048
46826W        W19251  19.250  44.473   1.282
46827W        W19252  16.473   4.966  10.494
46828W        W19253   6.176  35.249   2.182
46829W        W19254  31.689   4.289   0.443
46830W        W19255  23.815   2.109   0.885
46831W        W19256  20.542   5.881  12.411
46832W        W19257  33.490  39.393  13.000
46833W        W19258  15.409   3.642   1.873
46834W        W19259  31.172  27.409   0.891
46835W        W19260   2.342  38.159  13.403
46836W        W19261   0.275  14.773   2.197
46837W        W19262  38.852  36.024  12.531
46838W        W19263   4.343   9.997   0.499
46839W        W19264   0.827  35.770  10.427
46840W        W19265  17.284  18.198   3.378
46841W        W19266  34.490  38.992  13.465
46842W        W19267  15.616  36.440  12.887
46843W        W19268   7.713  14.914  14.749
46844W        W19269   6.369   2.231   4.543
46845W        W19270  37.591  30.013  13.330
46846W        W19271   9.874  40.010   0.349
46847W        W19272  24.591  11.293  14.822
46848W        W19273  16.245   8.047  12.017
46849W        W19274  15.099  13.218   0.037
46850W        W19275  32.953  42.097  14.430
46851W        W19276   4.625  23.993   0.766
46852W        W19277  19.179  21.154   1.033
46853W        W19278  19.572  44.047  13.843
46854W        W19279  36.474   9.708   3.770
46855W        W19280   5.234   4.493   1.804
46856W        W19281  12.362  37.789  12.765
46857W        W19282   0.548  37.134  12.403
46858W        W19283  25.604  33.314  11.646
46859W        W19284  43.657  33.738  10.234
46860W        W19285   9.735  27.122   4.378
46861W        W19286  30.431   9.279  10.934
46862W        W19287  21.154  27.970  13.097
46863W        W19288   5.576  29.473   3.154
46864W        W19289   1.397  25.730  11.535
46865W        W19290  20.569   4.516  14.403
46866W        W19291  30.191   0.244  12.644
46867W        W19292  21.201  34.456   1.845
46868W        W19293  33.375  18.283  11.483
46869W        W19294  26.959   9.633  12.885
46870W        W19295  41.021  23.721  11.148
46871W        W19296  40.037  37.422   1.025
46872W        W19297  19.349  32.616  10.991
46873W        W19298  40.783  35.444   3.774
46874W        W19299  37.490  14.299   4.710
46875W        W19300  39.744   3.871  14.438
46876W        W19301  33.624   7.940   4.003
46877W        W19302  28.678  32.296   1.382
46878W        W19303  10.590   1.374  14.194
46879W        W19304  44.835  11.118  12.620
46880W        W19305  13.546   6.987   0.446
46881W        W19306  14.631  19.960   0.381
46882W        W19307  28.580  31.882   3.871
46883W        W19308  24.096  23.912   3.692
46884W        W19309  31.527   1.731   3.312
46885W        W19310   3.529  21.008   2.340
46886W        W19311  29.138  19.023   2.480
46887W        W19312   3.451  13.272  11.941
46888W        W19313  23.929  32.478  11.550
46889W        W19314  16.781  34.977  14.405
46890W        W19315  30.212  27.069   3.097
46891W        W19316   2.051  38.476  12.058
46892W        W19317  18.591  39.838   1.628
46893W        W19318  40.065   7.494  14.383
46894W        W19319  25.717   4.652  10.337
46895W        W19320  19.259   5.949   4.661
46896W        W19321  13.807  39.528   3.730
46897W        W19322   9.317  37.631  14.932
46898W        W19323  43.809  40.690  13.296
46899W        W19324   4.702  17.408   5.027
46900W        W19325  31.286  42.684  11.470
46901W        W19326  12.403   4.229  13.032
46902W        W19327   9.144   8.723  12.382
46903W        W19328  15.851  35.992   1.687
46904W        W19329  28.678  17.638   1.303
46905W        W19330   1.926  16.315  11.142
46906W        W19331  28.202  41.311   0.356
46907W        W19332  13.655  20.298   0.441
46908W        W19333  13.363  36.900   3.195
46909W        W19334  19.632  29.665  10.660
46910W        W19335  11.963  25.315  10.595
46911W        W19336   4.379  17.200  12.435
46912W        W19337  30.918  40.761   0.381
46913W        W19338  22.755  33.985   0.227
46914W        W19339  41.101   8.162  13.875
46915W        W19340  23.598  31.591  14.571
46916W        W19341  36.593  18.652   2.856
46917W        W19342   5.690   1.380   3.612
46918W        W19343   9.492  18.425  13.308
46919W        W19344   5.503  27.997  12.477
46920W        W19345  10.775  27.196   2.834
46921W        W19346   7.283  14.441  13.707
46922W        W19347  44.400  12.750  14.017
46923W        W19348  15.726  15.588   5.247
46924W        W19349  42.777  21.578   4.593
46925W        W19350  30.662  33.395   3.378
46926W        W19351  21.991  14.757   0.209
46927W        W19352  41.474   1.538   1.978
46928W        W19353  12.127  28.958  14.954
46929W        W19354  16.525  35.957   0.775
46930W        W19355  28.211   1.714  14.830
46931W        W19356  31.203  37.913  13.047
46932W        W19357  39.867  24.613   1.694
46933W        W19358  17.030   8.650  13.814
46934W        W19359  14.675   8.392  14.775
46935W        W19360   9.869  14.176   0.938
46936W        W19361  32.667  22.961   4.303
46937W        W19362  30.505  21.087  12.834
46938W        W19363  29.066  22.698   4.703
46939W        W19364   4.399  22.447  14.810
46940W        W19365  18.713  37.616   0.244
46941W        W19366  36.757  19.558   1.799
46942W        W19367  34.463  29.288  14.320
46943W        W19368   0.933  36.952  11.004
46944W        W19369  10.662  36.329  12.380
46945W        W19370  39.040  13.145   2.794
46946W        W19371   0.274  12.614   4.896
46947W        W19372  16.538  27.709   0.005
46948W        W19373  32.605  16.771   1.242
46949W        W19374   7.716  33.599  14.329
46950W        W19375  42.910  37.291   4.631
46951W        W19376   8.761   6.409  12.368
46952W        W19377  35.156  29.990   4.521
46953W        W19378   4.373  20.106   0.883
46954W        W19379  18.818  30.026   2.868
46955W        W19380  18.165  11.203   2.806
46956W        W19381  26.739  25.631   2.361
46957W        W19382  27.935  35.366  13.881
46958W        W19383   9.943   6.911   0.763
46959W        W19384  30.815  30.902   9.737
46960W        W19385  44.384  14.904   1.833
46961W        W19386  33.121  17.705  13.198
46962W        W19387  22.490  34.580   2.867
46963W        W19388  27.464  44.701   2.168
46964W        W19389  38.058  18.976   4.477
46965W        W19390  10.665  24.741  14.574
46966W        W19391  38.279  44.791   2.866
46967W        W19392   5.199  16.827  14.346
46968W        W19393  41.918  33.158  12.465
46969W        W19394  42.385  39.609  13.958
46970W        W19395  14.923  20.259   3.679
46971W        W19396  20.627  40.807   1.453
46972W        W19397  38.640  19.819  11.174
46973W        W19398   2.902  42.224  13.359
46974W        W19399  19.955  44.918   2.697
46975W        W19400  24.949  26.961  14.426
46976W        W19401  35.842  37.411  11.653
46977W        W19402  37.878  31.819   0.782
46978W        W19403  16.136  18.132   1.989
46979W        W19404   3.479  38.721  13.520
46980W        W19405  12.802   4.273  10.675
46981W        W19406   3.355  29.047   0.580
46982W        W19407  42.597  26.203  11.196
46983W        W19408  38.797  22.222   0.922
46984W        W19409  37.872   9.622  12.685
46985W        W19410   9.290   9.709  11.874
46986W        W19411   4.136  20.233  14.320
46987W        W19412  38.571  43.786  14.768
46988W        W19413  13.070  34.706  14.382
46989W        W19414  10.998   8.326   1.310
46990W        W19415  25.816  38.394  12.491
46991W        W19416  17.755   0.481  14.975
46992W        W19417  16.310  42.607  11.171
46993W        W19418   0.644  36.786   3.213
46994W        W19419  37.632  28.159   0.816
46995W        W19420   2.507   1.779  14.469
46996W        W19421  39.713  30.336   4.902
46997W        W19422   3.880  15.163  12.869
46998W        W19423  29.009  22.270  14.883
46999W        W19424  26.579  43.276  11.374
47000W        W19425  16.542  29.413  12.179
47001W        W19426  22.141  44.883  12.273
47002W        W19427  39.711  37.116  12.462
47003W        W19428  22.644  16.595   0.423
47004W        W19429  35.397  14.809   4.046
47005W        W19430   5.893  23.716   1.643
47006W        W19431  26.208  14.423   0.337
47007W        W19432  32.385   2.387   0.268
47008W        W19433   1.519  42.421  13.406
47009W        W19434   9.017  33.972   3.337
47010W        W19435  20.823  25.657  11.617
47011W        W19436  35.505  33.573   4.790
47012W        W19437  23.066  38.150  13.130
47013W        W19438   5.288  31.054  14.042
47014W        W19439  43.976   5.588  11.605
47015W        W19440  30.528  11.110   2.731
47016W        W19441   8.068  17.158   4.602
47017W        W19442  31.214  35.007   0.290
47018W        W19443  38.928   3.443  11.137
47019W        W19444  20.727  19.193   0.801
47020W        W19445  29.671  13.338  14.603
47021W        W19446  17.091   4.478  11.875
47022W        W19447  16.634  14.092  14.876
47023W        W19448  35.261  41.053  10.660
47024W        W19449   4.182  39.341   2.783
47025W        W19450  23.681  28.939   2.564
47026W        W19451  26.948   4.716   1.406
47027W        W19452  33.331   5.946  12.970
47028W        W19453  21.154   1.180  13.519
47029W        W19454  32.593  39.947  11.653
47030W        W19455  14.087  30.186  12.306
47031W        W19456  36.180  30.604   2.469
47032W        W19457  36.925  40.062  12.585
47033W        W19458  28.128  18.757  12.823
47034W        W19459   1.775  36.160  14.904
47035W        W19460  10.826  19.917  10.675
47036W        W19461  11.673   4.437  13.415
47037W        W19462   9.611  38.983   4.058
47038W        W19463   2.774  24.476  13.038
47039W        W19464   3.491  37.959   3.623
47040W        W19465  31.399  33.115   4.924
47041W        W19466  21.731  43.070  10.572
47042W        W19467  35.900  39.784  12.325
47043W        W19468  17.976  23.518  14.108
47044W        W19469  26.713  28.946   0.246
47045W        W19470  33.884  39.053   0.550
47046W        W19471  38.100  32.511  14.554
47047W        W19472  24.646  43.492  11.960
47048W        W19473   1.383  20.960   0.224
47049W        W19474   0.439  13.692  11.643
47050W        W19475  19.719  41.658   0.399
47051W        W19476   5.039  18.313  14.794
47052W        W19477  28.472   3.436   0.933
47053W        W19478  34.903  29.503  11.962
47054W        W19479  18.652  10.297  11.137
47055W        W19480  33.240  16.998   4.216
47056W        W19481   0.735  10.396  12.947
47057W        W19482  24.720   2.487  11.378
47058W        W19483  15.166  18.126   3.872
47059W        W19484  43.261  20.395   4.993
47060W        W19485   6.845  15.133   1.136
47061W        W19486  22.997  28.027  11.171
47062W        W19487  36.337  36.440  13.906
47063W        W19488  16.736   7.372   4.649
47064W        W19489  10.812  27.418  13.970
47065W        W19490  32.649  27.839   3.672
47066W        W19491  41.016   9.061  11.596
47067W        W19492  10.911  39.309  11.041
47068W        W19493  28.204  32.382   1.217
47069W        W19494  31.563  35.299   4.348
47070W        W19495  39.559  12.843  13.080
47071W        W19496   2.353   4.372   4.595
47072W        W19497  18.698  18.210  10.007
47073W        W19498  17.386  17.077  10.805
47074W        W19499   9.496  34.683   3.500
47075W        W19500  14.905   4.132   1.819
47076W        W19501  16.820   1.786   4.136
47077W        W19502   7.800  19.182   3.763
47078W        W19503  41.069  10.384  11.878
47079W        W19504  13.819  25.126   3.923
47080W        W19505  28.838  35.222   0.712
47081W        W19506  29.221  15.755   3.691
47082W        W19507   2.471  36.311   4.834
47083W        W19508   0.238  42.389   0.328
47084W        W19509  40.439  22.205  10.637
47085W        W19510  12.732  10.727   1.364
47086W        W19511   4.130  11.240   0.295
47087W        W19512  27.028  10.646  12.515
47088W        W19513   2.873  33.597  13.989
47089W        W19514   2.753   8.723  14.140
47090W        W19515  17.635   3.007  14.837
47091W        W19516  33.864  40.487  12.057
47092W        W19517  14.110  21.006  13.578
47093W        W19518  33.573  41.200   0.834
47094W        W19519  17.594   3.481  11.721
47095W        W19520  20.261  10.162  13.562
47096W        W19521   3.233   5.834   1.001
47097W        W19522  15.070  24.627   1.344
47098W        W19523  23.986  27.520  11.962
47099W        W19524  27.011  22.556  12.913
47100W        W19525  12.367  33.353  11.660
47101W        W19526  15.634   4.358   3.309
47102W        W19527   4.217  24.668  14.249
47103W        W19528  43.792  36.328  10.994
47104W        W19529  28.972  20.092   4.522
47105W        W19530  14.817  35.021   1.254
47106W        W19531   2.383  15.057  11.685
47107W        W19532  38.595  34.313  13.843
47108W        W19533  33.427  42.373   1.467
47109W        W19534   8.717   9.682  14.772
47110W        W19535  17.886  32.569  13.968
47111W        W19536  20.106   6.452   4.732
47112W        W19537   4.871  27.172  10.666
47113W        W19538  31.470  24.163  11.772
47114W        W19539  20.175  25.229  10.398
47115W        W19540  39.546   8.963   1.735
47116W        W19541  37.358  36.475  13.524
47117W        W19542  13.544  17.654  10.580
47118W        W19543  18.627  41.063  13.311
47119W        W19544  27.152  38.065  12.107
47120W        W19545  34.718  19.653   4.024
47121W        W19546  43.567  34.793   4.916
47122W        W19547  18.103   8.714   1.001
47123W        W19548  24.110  37.270  11.552
47124W        W19549  44.509   0.513  14.246
47125W        W19550  32.890  21.226  13.397
47126W        W19551  29.546  11.543  11.154
47127W        W19552  14.222   0.397   4.527
47128W        W19553  31.365  42.473   4.154
47129W        W19554  26.814  25.775  12.900
47130W        W19555  30.986  31.142   4.579
47131W        W19556   6.063   1.021   0.820
47132W        W19557  44.797  10.873   0.715
47133W        W19558  43.709  23.620   1.395
47134W        W19559  18.654  20.771  14.404
47135W        W19560  22.530  12.957  12.027
47136W        W19561  10.218  40.927  11.029
47137W        W19562   9.218  38.834   3.130
47138W        W19563  33.594  35.513   4.637
47139W        W19564  18.841   1.616  14.678
47140W        W19565  17.035  37.817   2.313
47141W        W19566  28.586   1.788   3.756
47142W        W19567   3.481   0.012  13.040
47143W        W19568  10.399  43.334   1.750
47144W        W19569  25.628  44.871   4.759
47145W        W19570   6.396  43.975  14.477
47146W        W19571  44.543  18.371   4.167
47147W        W19572  34.474  37.351  10.366
47148W        W19573   2.348  34.182  12.590
47149W        W19574   2.003  21.615  14.395
47150W        W19575   6.687  20.757  14.551
47151W        W19576  10.133  36.813   0.705
47152W        W19577  12.124  41.195  14.015
47153W        W19578  18.065   5.087  12.431
47154W        W19579  31.170  33.427   0.659
47155W        W19580  36.723  13.789   1.298
47156W        W19581  17.182   9.955  12.091
47157W        W19582   8.243  36.636  10.344
47158W        W19583  41.335   0.465   0.951
47159W        W19584  40.386  43.944  14.714
47160W        W19585  22.439   7.263   0.764
47161W        W19586  43.022  20.519  14.876
47162W        W19587  10.357  31.583   0.978
47163W        W19588  40.297   4.964  12.112
47164W        W19589   7.459  23.630   0.797
47165W        W19590  26.771  16.666   3.745
47166W        W19591  14.732  28.476  14.124
47167W        W19592   3.472   6.321   2.843
47168W        W19593  40.307  18.501  13.749
47169W        W19594  32.144  13.260  10.440
47170W        W19595  18.701  16.153   3.664
47171W        W19596  37.643   2.294  13.946
47172W        W19597   9.634  20.086   1.839
47173W        W19598   0.981  17.209   4.348
47174W        W19599   8.716  34.256   0.740
47175W        W19600  16.419  25.724   1.717
47176W        W19601  32.545  15.151  13.728
47177W        W19602  26.614   1.809  13.440
47178W        W19603  10.804  33.628   3.643
47179W        W19604  40.377  39.470  11.449
47180W        W19605   8.019  29.179  10.838
47181W        W19606  14.843  36.662  11.120
47182W        W19607  39.949   5.653  11.141
47183W        W19608  18.117   6.279  14.459
47184W        W19609   9.583  11.922   0.269
47185W        W19610  36.026  19.759  11.942
47186W        W19611  22.504  25.471  14.374
47187W        W19612  29.536  12.370  11.985
47188W        W19613  17.072  19.991   1.390
47189W        W19614  28.608  14.252  10.732
47190W        W19615   9.187  36.492  12.028
47191W        W19616  32.254  12.615   2.396
47192W        W19617  21.763  23.106   3.720
47193W        W19618   7.302  29.878  11.024
47194W        W19619  30.924  19.719  10.612
47195W        W19620  26.448  40.899   4.686
47196W        W19621  26.147   6.384  11.550
47197W        W19622  15.202   8.115   1.789
47198W        W19623  30.450   4.879  14.053
47199W        W19624   2.264  38.385   0.826
47200W        W19625  18.547  42.903  14.806
47201W        W19626  17.808  11.713   1.784
47202W        W19627  38.810  44.139  14.233
47203W        W19628  11.263  31.732   3.793
47204W        W19629  38.372  26.216   3.795
47205W        W19630   9.191  19.567   3.880
47206W        W19631  18.703  21.639   4.250
47207W        W19632  12.278  34.808  10.770
47208W        W19633  29.966  36.627  14.845
47209W        W19634   4.918  25.311  11.391
47210W        W19635  14.635  18.773   3.876
47211W        W19636   7.839  29.312   3.395
47212W        W19637   2.175  30.416  14.950
47213W        W19638  23.793  22.910   0.483
47214W        W19639  11.654  38.735  10.038
47215W        W19640  26.033  31.561  14.346
47216W        W19641  20.892   1.420  11.123
47217W        W19642  35.156  29.151  11.647
47218W        W19643  32.743  16.390  14.291
47219W        W19644   0.603  35.817   1.447
47220W        W19645  27.294   2.842   2.370
47221W        W19646  22.826  41.090  14.950
47222W        W19647  17.074  11.712  13.430
47223W        W19648  13.832  31.368  10.849
47224W        W19649  15.447  43.497  11.597
47225W        W19650  15.209  28.341   2.331
47226W        W19651  19.881  15.016  13.444
47227W        W19652  28.689  41.757   1.101
47228W        W19653  39.366   8.448  14.080
47229W        W19654  18.279   1.244   3.793
47230W        W19655  15.614  39.528   4.169
47231W        W19656  22.636   0.947   4.174
47232W        W19657  37.391  21.799  11.085
47233W        W19658  26.236  23.205   1.379
47234W        W19659   3.909  44.443  13.612
47235W        W19660  18.982   7.444   2.408
47236W        W19661   9.866  17.647   4.216
47237W        W19662  37.443  16.281   1.764
47238W        W19663  21.414  37.504   0.537
47239W        W19664   9.180  42.904  11.593
47240W        W19665  31.036  31.414   1.978
47241W        W19666   0.233   4.314   0.936
47242W        W19667   6.581  31.539   4.269
47243W        W19668   2.652   5.001   3.707
47244W        W19669  39.796   7.823   0.248
47245W        W19670  27.672  36.482   0.003
47246W        W19671  15.536  34.925   1.771
47247W        W19672   6.495  29.664   1.344
47248W        W19673  20.557  19.654  13.125
47249W        W19674  24.744  18.504   4.336
47250W        W19675   9.669  41.250  13.902
47251W        W19676  24.976   2.182   2.012
47252W        W19677  20.516  40.347  10.772
47253W        W19678  29.198  13.213  12.495
47254W        W19679  28.275  41.509  12.575
47255W        W19680  20.459  17.471  10.933
47256W        W19681  19.625  36.573   4.532
47257W        W19682   9.899   3.034   1.232
47258W        W19683  38.067  38.443  12.077
47259W        W19684  11.664  15.899   2.561
47260W        W19685  16.952  30.075   9.566
47261W        W19686  22.713  19.807   3.303
47262W        W19687  25.895  41.739  12.564
47263W        W19688   7.246  22.616  10.762
47264W        W19689  18.361  24.536  13.118
47265W        W19690  35.835  20.781   3.291
47266W        W19691  38.892  33.858   3.737
47267W        W19692   1.242  39.428  10.296
47268W        W19693  27.418   4.810  10.984
47269W        W19694  29.245  42.326   3.565
47270W        W19695  40.229  42.478   1.938
47271W        W19696  19.336  13.617   3.511
47272W        W19697   3.004  15.045  11.292
47273W        W19698  10.758  34.984  14.313
47274W        W19699  44.231  32.562   3.130
47275W        W19700   4.670   0.449  14.227
47276W        W19701   6.147  35.503   0.254
47277W        W19702   6.243  15.561   1.670
47278W        W19703  32.068  29.450  10.597
47279W        W19704   3.485   5.404   3.828
47280W        W19705  16.779  14.673  14.357
47281W        W19706  25.142   7.663   1.924
47282W        W19707  22.027  26.201   2.405
47283W        W19708   3.454  31.515   3.917
47284W        W19709  26.458   6.265   4.534
47285W        W19710  24.846   1.846  12.523
47286W        W19711  28.407  32.538  12.040
47287W        W19712  15.077  21.743   1.869
47288W        W19713  20.725  12.822   3.769
47289W        W19714  21.092  37.101  11.474
47290W        W19715  35.148  24.555  11.860
47291W        W19716   3.935  41.017   2.325
47292W        W19717  33.640  22.455   0.723
47293W        W19718   5.433  44.320   0.938
47294W        W19719  42.213  25.126   4.241
47295W        W19720  29.658  44.766   2.220
47296W        W19721   6.725   9.835   2.771
47297W        W19722   1.959  11.141   3.324
47298W        W19723  28.073  21.631  13.495
47299W        W19724  36.887  21.225   3.149
47300W        W19725  19.926  15.296  13.017
47301W        W19726  28.126  18.323   4.713
47302W        W19727  29.996  16.966   1.291
47303W        W19728  18.668  41.936   3.254
47304W        W19729  27.826  36.022   3.731
47305W        W19730  32.078  14.394   1.278
47306W        W19731  17.532   1.355  12.456
47307W        W19732  15.410  17.246   1.190
47308W        W19733   3.299  38.445   4.784
47309W        W19734  22.256   3.847  10.662
47310W        W19735  35.452  23.624  14.454
47311W        W19736  13.400   9.826   3.692
47312W        W19737  31.501   0.957   2.808
47313W        W19738  19.784  42.326   2.734
47314W        W19739   0.454  43.422  12.505
47315W        W19740  16.674  26.111   0.757
47316W        W19741  14.441   2.838   1.949
47317W        W19742  25.380  38.005   1.914
47318W        W19743  12.222  28.461   3.430
47319W        W19744  21.697  21.697  12.720
47320W        W19745  36.381   6.323   0.805
47321W        W19746   2.193   7.220   3.255
47322W        W19747  42.432  32.891  12.394
47323W        W19748  32.614  18.463  13.817
47324W        W19749  40.365  21.285   4.613
47325W        W19750  33.440  44.338  12.301
47326W        W19751  28.019   3.982  11.612
47327W        W19752  40.703  37.706   1.896
47328W        W19753  19.316  15.687  13.529
47329W        W19754  38.796  36.456   1.845
47330W        W19755  26.738  32.702  12.770
47331W        W19756  18.066  23.031  10.398
47332W        W19757  41.778  35.698   0.437
47333W        W19758  10.866  29.641   3.842
47334W        W19759  29.583   5.629  14.802
47335W        W19760  34.115   1.587   0.364
47336W        W19761   8.171  21.092  10.685
47337W        W19762  40.499   3.924   2.425
47338W        W19763  42.481  12.777   3.611
47339W        W19764  37.819  40.949   1.926
47340W        W19765  18.649   4.569  13.953
47341W        W19766   7.939  18.311   2.753
47342W        W19767   4.732  39.336  13.527
47343W        W19768  38.996  17.810   4.250
47344W        W19769  43.440  36.110   3.576
47345W        W19770  11.653  36.775  10.842
47346W        W19771  37.990  28.630   3.403
47347W        W19772  43.682  28.712   4.961
47348W        W19773  22.304  39.507  13.768
47349W        W19774  29.200  37.885  13.418
47350W        W19775   0.023  19.097  13.036
47351W        W19776  40.450   2.489   1.122
47352W        W19777  43.527  40.443  11.342
47353W        W19778  26.409  40.973   1.702
47354W        W19779   6.809  28.096   2.799
47355W        W19780  18.569  43.386  13.556
47356W        W19781  16.132  30.019   3.538
47357W        W19782  44.799  23.729  10.729
47358W        W19783   5.659  13.295   1.370
47359W        W19784  27.512  10.942  13.769
47360W        W19785  20.887  35.011  13.622
47361W        W19786   1.246  27.519   1.301
47362W        W19787   8.902  15.737  13.598
47363W        W19788  32.680  13.065   1.346
47364W        W19789  18.179  36.879  12.600
47365W        W19790   5.889   8.424  14.352
47366W        W19791  42.063   8.958   4.445
47367W        W19792  43.073  30.560  12.081
47368W        W19793  29.266  31.792   4.364
47369W        W19794  41.452   2.812  10.703
47370W        W19795  33.646  21.996  14.900
47371W        W19796  11.691  36.116  11.521
47372W        W19797  26.003  14.153   1.491
47373W        W19798  12.362  18.677   2.343
47374W        W19799   2.017  33.919   1.291
47375W        W19800  30.710  39.283  13.107
47376W        W19801  31.848  22.032   0.389
47377W        W19802   7.399  23.721  14.430
47378W        W19803  13.222  33.449  12.958
47379W        W19804  20.696  41.071  14.825
47380W        W19805  35.550  35.057   2.237
47381W        W19806  24.742  37.470   2.226
47382W        W19807   5.352  12.553  14.192
47383W        W19808  24.793  38.829   3.431
47384W        W19809   9.706  37.162   1.374
47385W        W19810  29.104   9.747  10.684
47386W        W19811  20.741   0.169   4.068
47387W        W19812  22.160  18.672  12.728
47388W        W19813  22.974  36.632  11.056
47389W        W19814  14.919  15.068   3.237
47390W        W19815  41.352  40.052  14.799
47391W        W19816  26.962  43.103  14.491
47392W        W19817  14.366  30.700   3.331
47393W        W19818  10.390  19.514   2.840
47394W        W19819  19.882  28.420   3.768
47395W        W19820  40.936  34.058   1.437
47396W        W19821   9.427   9.148  12.452
47397W        W19822  33.592  40.246  10.773
47398W        W19823  27.626  28.511  12.353
47399W        W19824  31.117  32.620  14.569
47400W        W19825  25.528  15.102   0.826
47401W        W19826   0.488   6.686  12.463
47402W        W19827  37.577  17.888  11.246
47403W        W19828   8.566   2.234   2.401
47404W        W19829   1.266  12.409  13.399
47405W        W19830   8.680   4.694  11.559
47406W        W19831   6.747  35.470   1.138
47407W        W19832  40.764  10.255   1.306
47408W        W19833  29.593   2.432   3.722
47409W        W19834  37.566  31.786   3.292
47410W        W19835  36.769  27.505  14.249
47411W        W19836  27.932   6.208   0.974
47412W        W19837   9.374  14.866   2.840
47413W        W19838  39.374  15.631   0.202
47414W        W19839  17.099  32.351   1.939
47415W        W19840  19.523   9.684   0.155
47416W        W19841  15.728  44.745  12.983
47417W        W19842  11.063  21.022  14.457
47418W        W19843  39.831  43.695  11.011
47419W        W19844  32.734  19.138   1.207
47420W        W19845  33.047  37.924  11.768
47421W        W19846  21.625  43.528   0.543
47422W        W19847  23.641  25.763   2.709
47423W        W19848  22.261  42.203   4.105
47424W        W19849  19.528   8.443   1.245
47425W        W19850   0.939  37.958   2.370
47426W        W19851  18.867  43.282  13.980
47427W        W19852  14.477  29.417  13.859
47428W        W19853  15.614  28.502   3.313
47429W        W19854  38.713  20.281   4.049
47430W        W19855   3.326  41.113  12.046
47431W        W19856  31.989  39.318  11.466
47432W        W19857  18.190  30.671  10.637
47433W        W19858  19.515  14.538  12.580
47434W        W19859  16.187  11.110   0.448
47435W        W19860  30.300  35.014   2.643
47436W        W19861  30.501  32.908   4.738
47437W        W19862  31.084  18.492  14.340
47438W        W19863   6.876   6.070   0.971
47439W        W19864  24.769  22.256  11.469
47440W        W19865   2.347  13.563  12.675
47441W        W19866  23.760   2.172  14.477
47442W        W19867  35.404  44.884  10.529
47443W        W19868  41.470   6.556  11.677
47444W        W19869  20.579  29.475   3.725
47445W        W19870  21.272  23.101   4.668
47446W        W19871  42.582  29.594   1.185
47447W        W19872  38.014  35.866   0.500
47448W        W19873  20.650  13.228  11.064
47449W        W19874  15.530   2.048   3.759
47450W        W19875   4.135   9.154   0.782
47451W        W19876  31.932  37.352   1.771
47452W        W19877  34.924  14.202  11.084
47453W        W19878  23.587  29.134  13.923
47454W        W19879  28.886  41.973  12.503
47455W        W19880   7.121   0.190   0.661
47456W        W19881  33.931  36.057   1.923
47457W        W19882  30.047   1.230  12.340
47458W        W19883  23.745  23.647  10.698
47459W        W19884  18.810  34.939  14.522
47460W        W19885  38.911   3.954   1.013
47461W        W19886  23.255  13.516  13.043
47462W        W19887   3.875  31.500   2.198
47463W        W19888   2.897  13.249   0.261
47464W        W19889  14.238  37.276  11.306
47465W        W19890   6.258   5.113  10.750
47466W        W19891  17.141  29.997   3.667
47467W        W19892  21.301   9.235   0.496
47468W        W19893   6.778  11.680  12.881
47469W        W19894  39.846   4.398  11.688
47470W        W19895   6.614  24.545   0.110
47471W        W19896  13.567  25.774  14.269
47472W        W19897   2.494   2.407  11.059
47473W        W19898  33.483  44.862  14.553
47474W        W19899   8.740  38.018   5.523
47475W        W19900  44.361  35.584   1.529
47476W        W19901  18.086  41.989   4.050
47477W        W19902  29.999  42.975   3.335
47478W        W19903   6.790  22.700   1.711
47479W        W19904  42.620  23.372  11.335
47480W        W19905  21.708  37.516   2.338
47481W        W19906  14.061  43.878   2.311
47482W        W19907  15.087   9.547   2.805
47483W        W19908   4.763  17.237  11.854
47484W        W19909  14.398  19.213  14.334
47485W        W19910   6.683  33.101  11.871
47486W        W19911  38.255  38.815  14.855
47487W        W19912  25.944   8.594   0.731
47488W        W19913  17.150  13.057   4.089
47489W        W19914   8.895   5.293   2.686
47490W        W19915   7.526  12.148   0.761
47491W        W19916  40.256  16.116   1.417
47492W        W19917  28.964  32.577  13.413
47493W        W19918  26.053  19.718   1.670
47494W        W19919  22.484  35.904  12.957
47495W        W19920  26.260  18.415  12.354
47496W        W19921  12.317   0.766   2.933
47497W        W19922  42.075   1.417  12.535
47498W        W19923  29.082   7.438  10.441
47499W        W19924   0.641   3.220   2.317
47500W        W19925   1.874  37.644  12.679
47501W        W19926   0.707  34.769   4.937
47502W        W19927  26.978   6.951  10.866
47503W        W19928  39.851  22.727  10.706
47504W        W19929  12.911  19.350   2.180
47505W        W19930  16.910  15.011  11.984
47506W        W19931   9.789  27.339   2.126
47507W        W19932  22.270  28.004  12.908
47508W        W19933  18.121   1.297  10.203
47509W        W19934  14.002  27.121   1.370
47510W        W19935  31.639   7.323   3.231
47511W        W19936  38.107   5.121  12.510
47512W        W19937  15.657  30.870  14.277
47513W        W19938   9.227  28.053   0.012
47514W        W19939  40.808   9.355  12.018
47515W        W19940  27.453  13.625  11.535
47516W        W19941  21.017  31.900   0.394
47517W        W19942  16.293   3.265   0.021
47518W        W19943  44.376  23.917   3.625
47519W        W19944  18.759  10.267   0.506
47520W        W19945  32.142  29.677  12.127
47521W        W19946   7.750   3.892  11.509
47522W        W19947  14.228   1.485   4.240
47523W        W19948  38.015  36.653  14.333
47524W        W19949  27.590  34.828   4.846
47525W        W19950  35.523  29.148  12.009
47526W        W19951   5.179   0.854   2.792
47527W        W19952  23.880  11.382  14.048
47528W        W19953  35.873  16.121   4.607
47529W        W19954  35.853  42.150   4.130
47530W        W19955  43.814  36.610   2.905
47531W        W19956  30.658  14.454   0.435
47532W        W19957  27.203  15.908   1.877
47533W        W19958  16.087  24.946   3.964
47534W        W19959   5.200  35.988   0.958
47535W        W19960  34.068  17.967   4.124
47536W        W19961  42.737  41.955   3.899
47537W        W19962  29.528  18.833   1.953
47538W        W19963   4.188  44.439   3.698
47539W        W19964   5.650  19.017   3.141
47540W        W19965   6.225   8.723   2.714
47541W        W19966  29.724  39.369   1.021
47542W        W19967  25.162  21.062   2.824
47543W        W19968  13.704  40.948  12.514
47544W        W19969  28.174  41.458  10.399
47545W        W19970  33.955  42.650   1.195
47546W        W19971  41.271  43.352  14.574
47547W        W19972  18.353   6.012   1.545
47548W        W19973   2.476  11.189  14.517
47549W        W19974  40.234  34.405  10.446
47550W        W19975  13.689   6.414  13.681
47551W        W19976  10.124   5.301  12.414
47552W        W19977  14.781  36.441   0.973
47553W        W19978   1.335  35.279   3.702
47554W        W19979  25.394   9.343  13.843
47555W        W19980  40.797   8.795  12.030
47556W        W19981  30.479  37.625  14.946
47557W        W19982  15.716   5.628  10.644
47558W        W19983  18.967  26.104   1.894
47559W        W19984  36.029  40.477  11.820
47560W        W19985  41.812   0.561   4.599
47561W        W19986  10.163   0.464   1.436
47562W        W19987  22.284  38.336  11.970
47563W        W19988   3.790  44.034   2.704
47564W        W19989  17.556  27.894  14.859
47565W        W19990   1.466   6.150  10.700
47566W        W19991  13.736   4.803   4.737
47567W        W19992  10.355   2.967   0.357
47568W        W19993  22.571   1.762   0.863
47569W        W19994  22.020  28.517  12.561
47570W        W19995  32.258  31.029  13.977
47571W        W19996  22.948  39.491  12.471
47572W        W19997  19.198  32.557  14.325
47573W        W19998   8.712  10.286  12.838
47574W        W19999  20.367  18.245   0.721
47575W        W20000   5.253  41.765  10.698
47576W        W20001  10.938  44.416   2.709
47577W        W20002  20.198  32.490  14.475
47578W        W20003  10.347   6.922  13.757
47579W        W20004   3.349  36.588  12.495
47580W        W20005  44.368  40.123  10.258
47581W        W20006  15.270  17.159  13.868
47582W        W20007  23.523  36.062   1.395
47583W        W20008   5.183  15.575   3.567
47584W        W20009  11.151  13.965   4.591
47585W        W20010  11.070  35.570  12.114
47586W        W20011   5.836  25.503  13.563
47587W        W20012  23.446   3.226   3.093
47588W        W20013  33.795   3.096   3.169
47589W        W20014  18.644   5.795  12.435
47590W        W20015   0.651   3.799   3.413
47591W        W20016  19.536  39.015  11.474
47592W        W20017   0.974  40.498  12.455
47593W        W20018  20.488  44.653  12.618
47594W        W20019   4.534  16.549  14.831
47595W        W20020  35.978   9.923  10.860
47596W        W20021   1.258  32.419   0.509
47597W        W20022  23.851   9.389   4.202
47598W        W20023  19.468  34.063  12.809
47599W        W20024  40.810  25.256  11.142
47600W        W20025   1.691  24.168   3.135
47601W        W20026  34.500  23.245   3.285
47602W        W20027  24.009  42.603   0.782
47603W        W20028  26.504   6.257   2.666
47604W        W20029  40.237  29.307  12.841
47605W        W20030  12.197   5.923   0.773
47606W        W20031  28.270   7.459  11.539
47607W        W20032  16.613   3.629   3.757
47608W        W20033  23.646  42.043  10.564
47609W        W20034  17.958  37.498   0.757
47610W        W20035  26.794  20.883   4.586
47611W        W20036   5.879   3.332   1.305
47612W        W20037  28.601  33.857   3.816
47613W        W20038   5.585   5.698  14.501
47614W        W20039  10.236  31.345   2.780
47615W        W20040  26.866  12.317  12.160
47616W        W20041  17.893   6.190   1.392
47617W        W20042  42.879   7.212  13.814
47618W        W20043  15.133  12.607  10.638
47619W        W20044   2.358  40.651   0.792
47620W        W20045  35.623   4.258  12.378
47621W        W20046   0.050   0.715   3.386
47622W        W20047  16.069  12.009  14.422
47623W        W20048   8.773  25.282  12.474
47624W        W20049  15.277  20.495  13.564
47625W        W20050  34.267  13.362   0.483
47626W        W20051  43.410  37.990   4.943
47627W        W20052  12.392  14.145  11.555
47628W        W20053   2.223  37.977   0.472
47629W        W20054  26.175  16.052   2.138
47630W        W20055  28.490  41.887   1.587
47631W        W20056  44.988  20.115   3.798
47632W        W20057  31.111  28.052   4.112
47633W        W20058  16.082  24.113  14.815
47634W        W20059  24.481  36.412  12.018
47635W        W20060  44.391   4.911   4.692
47636W        W20061   8.233   8.106  12.849
47637W        W20062  20.195  25.532  14.578
47638W        W20063  41.833  11.863  11.100
47639W        W20064  36.913  24.836   1.761
47640W        W20065   1.582  36.598   3.282
47641W        W20066  26.208  38.039  14.788
47642W        W20067  22.731   6.104  10.765
47643W        W20068  11.296  15.810   0.933
47644W        W20069  43.724  16.887   0.219
47645W        W20070  27.827   7.968  11.961
47646W        W20071   2.411  42.577  14.348
47647W        W20072  27.976  35.315  10.937
47648W        W20073  35.404   7.687  12.092
47649W        W20074  13.679  13.369  11.621
47650W        W20075  42.074  17.118  11.120
47651W        W20076  32.162   0.983  11.927
47652W        W20077  22.567   8.393   2.342
47653W        W20078  33.492  44.201   4.585
47654W        W20079   5.139  43.446   3.722
47655W        W20080  26.930  14.698   2.492
47656W        W20081   8.401  38.802  14.408
47657W        W20082   0.411  17.161  10.688
47658W        W20083  33.461  42.238  14.423
47659W        W20084  41.850  19.183   1.239
47660W        W20085  37.912  22.585   3.567
47661W        W20086  41.572  13.152   3.007
47662W        W20087  42.266  15.864   0.480
47663W        W20088  31.591  13.683  11.466
47664W        W20089  34.429  36.105  14.058
47665W        W20090  20.951   9.177   2.813
47666W        W20091   2.999  24.307   4.034
47667W        W20092  36.858  22.699   4.640
47668W        W20093  38.582  30.537   2.508
47669W        W20094   2.963   1.373  11.126
47670W        W20095  39.015  40.383   3.809
47671W        W20096  25.692  14.112   3.181
47672W        W20097  37.133  18.750  13.902
47673W        W20098  22.010  40.986  13.163
47674W        W20099   3.055  23.057  13.757
47675W        W20100  26.085  24.794  13.902
47676W        W20101  42.015  19.764   2.225
47677W        W20102  14.301  29.994   1.289
47678W        W20103  17.126  33.897  14.918
47679W        W20104  32.976   6.896   2.268
47680W        W20105  33.543  14.311  10.689
47681W        W20106  43.360  14.410  10.699
47682W        W20107  43.998  44.840   2.860
47683W        W20108  23.041  25.818  13.782
47684W        W20109  42.501  44.511  13.925
47685W        W20110   4.466  39.684   3.561
47686W        W20111  28.384  18.643  10.410
47687W        W20112  42.958  34.723   4.957
47688W        W20113  18.494  37.429  11.040
47689W        W20114  27.002  29.851  13.101
47690W        W20115   3.512  10.717  13.977
47691W        W20116  31.164   4.318   0.418
47692W        W20117  24.723   7.390  14.343
47693W        W20118   0.267  37.589  13.754
47694W        W20119  16.510   9.757  12.597
47695W        W20120  28.088  12.051   4.559
47696W        W20121   9.269  17.749  11.963
47697W        W20122   5.842  17.804  14.631
47698W        W20123   6.478   7.727  14.393
47699W        W20124  32.128  12.891   4.670
47700W        W20125   5.346   4.163  12.013
47701W        W20126  31.484  17.685   0.715
47702W        W20127  11.206  24.682   3.613
47703W        W20128   1.368  10.261   1.468
47704W        W20129  12.737  12.181  14.635
47705W        W20130  36.481  31.845   1.151
47706W        W20131  18.047  25.561   0.229
47707W        W20132  31.600  41.089  11.466
47708W        W20133  44.766   7.716  12.330
47709W        W20134  14.636  38.952   3.753
47710W        W20135  17.692   4.185  14.021
47711W        W20136   0.443  13.382  13.575
47712W        W20137  37.077  18.034  12.560
47713W        W20138  34.876  22.666  10.749
47714W        W20139  14.573  14.816  12.478
47715W        W20140   2.973  14.290   5.003
47716W        W20141  33.218  38.541   2.652
47717W        W20142  43.242   5.737   1.858
47718W        W20143  37.602  18.841  12.457
47719W        W20144  28.659  39.885   0.743
47720W        W20145  30.033  11.750   3.281
47721W        W20146  38.491   7.396  11.048
47722W        W20147   8.971  20.127  10.339
47723W        W20148  31.789  16.606   1.668
47724W        W20149  41.408  28.443  11.455
47725W        W20150  20.191  22.606   3.946
47726W        W20151  35.255   9.315  10.720
47727W        W20152   8.703  15.983   5.040
47728W        W20153  32.110  32.953   1.302
47729W        W20154   4.321  20.712  12.551
47730W        W20155   3.272   9.840   2.727
47731W        W20156  33.887  23.010  14.300
47732W        W20157  28.007  40.456  12.868
47733W        W20158  14.779  24.130  13.410
47734W        W20159  35.460  36.801  13.386
47735W        W20160   9.409  15.677  14.294
47736W        W20161  37.628   4.524   1.292
47737W        W20162  10.248   6.973   4.212
47738W        W20163   9.893  30.376  12.434
47739W        W20164   0.867  10.782   1.908
47740W        W20165  21.149  28.998   4.166
47741W        W20166  12.672  13.874  14.022
47742W        W20167  15.509  31.630  12.907
47743W        W20168  15.078  31.625   3.642
47744W        W20169  15.839  25.626  14.927
47745W        W20170  25.816  17.999   3.755
47746W        W20171  19.798  12.850  13.272
47747W        W20172   2.847  24.875   3.219
47748W        W20173   2.310  35.124   4.154
47749W        W20174   6.376   8.947   0.173
47750W        W20175  18.101   4.676  11.024
47751W        W20176  39.130  29.553   1.319
47752W        W20177   4.959  32.358   3.285
47753W        W20178  17.837  16.283   1.912
47754W        W20179  29.429  13.698  14.893
47755W        W20180  14.687  40.261  12.120
47756W        W20181  19.475  29.096  13.840
47757W        W20182   9.438  19.956   3.584
47758W        W20183  15.884  16.282   3.100
47759W        W20184  29.658  20.759   2.428
47760W        W20185  38.301  13.851  14.501
47761W        W20186  39.651  40.842  11.016
47762W        W20187  44.985  24.670   2.735
47763W        W20188  37.472  32.465   3.891
47764W        W20189   8.914  22.038  11.170
47765W        W20190   8.349  38.466   2.178
47766W        W20191   5.763  10.872   1.849
47767W        W20192  22.144  27.611   3.779
47768W        W20193   2.282  32.455  10.749
47769W        W20194  31.320  21.526   1.273
47770W        W20195   1.463  43.153  14.449
47771W        W20196  10.471  23.148   4.588
47772W        W20197  18.247  42.250   2.835
47773W        W20198  37.722  33.282  13.592
47774W        W20199   1.793   6.116  12.504
47775W        W20200  43.483  21.529  10.543
47776W        W20201  22.205  44.014   2.412
47777W        W20202  42.558  39.970   3.113
47778W        W20203  38.312  20.822  14.753
47779W        W20204   9.000  44.818  11.725
47780W        W20205  38.044  17.064  13.994
47781W        W20206  10.648  15.766  12.016
47782W        W20207  42.310  21.012   3.814
47783W        W20208  19.975  35.788   4.152
47784W        W20209  39.008  26.596   0.688
47785W        W20210  11.261   4.517   3.213
47786W        W20211  26.312  27.498   2.869
47787W        W20212   9.266   4.016  11.534
47788W        W20213  16.878   8.177  13.649
47789W        W20214  37.828  35.484   3.888
47790W        W20215  15.243  29.850   2.653
47791W        W20216   5.400  42.517   2.787
47792W        W20217   9.794  13.791  13.004
47793W        W20218  25.726  19.248  14.479
47794W        W20219  31.076   4.140   4.823
47795W        W20220  32.216  23.202   1.835
47796W        W20221   0.056  18.654  12.057
47797W        W20222  20.035  21.149   4.217
47798W        W20223   1.021  32.788   0.213
47799W        W20224  33.457  33.628  12.088
47800W        W20225  41.222   9.183  12.661
47801W        W20226  11.124  40.116   4.617
47802W        W20227  22.045  19.606  11.446
47803W        W20228  15.912  24.621  13.743
47804W        W20229  28.533  35.110  11.211
47805W        W20230  15.971  28.088  11.266
47806W        W20231  40.921   9.828  14.342
47807W        W20232  23.715  33.399   4.913
47808W        W20233   5.272  13.802   0.683
47809W        W20234  44.808  40.465  11.501
47810W        W20235  18.744   3.874  14.439
47811W        W20236  37.094  28.931   2.316
47812W        W20237  26.828  19.221  12.970
47813W        W20238  35.914  11.144  14.288
47814W        W20239  30.621  42.244  12.304
47815W        W20240  42.807  20.914   2.193
47816W        W20241  29.936  12.195   4.062
47817W        W20242   5.692  21.414   4.853
47818W        W20243  44.415  41.310   4.912
47819W        W20244   0.989  26.268   2.399
47820W        W20245   9.346  13.851  12.759
47821W        W20246  16.755  40.767   1.283
47822W        W20247   8.631   8.237  10.653
47823W        W20248  33.579   5.867  14.680
47824W        W20249   7.730  29.544   0.131
47825W        W20250  40.991  25.721   2.353
47826W        W20251  38.879  14.415   4.459
47827W        W20252  24.449  14.559   3.629
47828W        W20253  18.822  44.488   4.671
47829W        W20254   4.122  25.099  14.548
47830W        W20255  13.780  20.850  12.191
47831W        W20256  44.062  18.221   4.131
47832W        W20257  19.703   7.867  10.658
47833W        W20258  21.238  40.093  12.086
47834W        W20259   1.253  41.379   3.922
47835W        W20260  28.618  15.135   4.055
47836W        W20261  22.194  23.735  11.606
47837W        W20262   4.428  12.207   3.573
47838W        W20263   7.424  37.837  13.964
47839W        W20264   5.783  38.399   0.889
47840W        W20265   1.856  38.763  10.859
47841W        W20266  32.409  41.828  13.540
47842W        W20267  44.558  27.054  11.028
47843W        W20268  21.926  35.310  12.495
47844W        W20269  38.847  16.945   4.259
47845W        W20270  28.169   4.397   2.892
47846W        W20271   6.565  22.476  11.092
47847W        W20272  37.876  32.457  12.890
47848W        W20273   2.890  17.206   3.728
47849W        W20274  17.583  29.618  13.970
47850W        W20275   4.791   3.540  11.492
47851W        W20276   4.643   2.262   3.643
47852W        W20277  37.315  37.688   3.200
47853W        W20278   1.705   7.682  11.709
47854W        W20279  11.105  38.914   0.409
47855W        W20280  11.686  16.329  12.578
47856W        W20281   1.506  16.746   3.356
47857W        W20282  24.070  14.150   4.675
47858W        W20283   5.202  15.034   2.554
47859W        W20284  42.809  15.162  11.597
47860W        W20285  25.703  13.000  12.407
47861W        W20286  33.436   1.067  12.975
47862W        W20287  23.121  42.432  12.349
47863W        W20288  31.533  35.205   2.399
47864W        W20289  29.528  38.608  12.375
47865W        W20290  33.094  22.180   4.405
47866W        W20291  36.055  21.300   4.018
47867W        W20292  28.624  21.143   1.137
47868W        W20293  22.503   4.854   1.206
47869W        W20294  14.222  13.254  11.657
47870W        W20295   0.237  37.814  11.986
47871W        W20296  23.329   4.145  14.337
47872W        W20297  42.402   4.779  14.484
47873W        W20298  21.425  25.233  10.688
47874W        W20299  20.744   6.995  13.503
47875W        W20300  40.887   4.907  14.423
47876W        W20301  17.753  25.975   4.166
47877W        W20302  36.662  31.370   1.329
47878W        W20303  22.724   3.564   1.282
47879W        W20304  36.990  15.162  12.447
47880W        W20305  37.141  25.485  11.177
47881W        W20306  16.125  15.570   0.855
47882W        W20307  13.264  23.775   4.372
47883W        W20308  22.443  20.498   2.781
47884W        W20309  14.172  14.048   4.921
47885W        W20310  19.990  32.563  10.222
47886W        W20311  21.278  26.996  11.011
47887W        W20312   4.560   3.870   3.245
47888W        W20313  20.278  31.988  14.686
47889W        W20314  12.938   3.885  11.687
47890W        W20315  35.155  27.147   1.090
47891W        W20316  28.998  39.202  12.809
47892W        W20317  40.276   9.859  13.322
47893W        W20318  14.778  41.167   5.041
47894W        W20319  22.745   5.472   3.803
47895W        W20320   8.695   5.304  10.518
47896W        W20321   8.902  37.612   1.353
47897W        W20322  26.468  37.170  14.944
47898W        W20323  23.491  10.526   3.257
47899W        W20324  19.263  20.033   2.216
47900W        W20325   6.333  29.922   0.425
47901W        W20326  24.178  24.457   2.845
47902W        W20327   1.190  31.164  13.445
47903W        W20328   4.837  40.685  13.277
47904W        W20329  39.754  24.995   3.662
47905W        W20330  35.079  23.176   2.123
47906W        W20331  39.388   2.649  13.337
47907W        W20332  33.461  13.844  11.522
47908W        W20333   5.130  24.821  12.165
47909W        W20334  17.533  14.526  14.851
47910W        W20335   4.706  44.466   3.718
47911W        W20336  32.546  12.022  14.807
47912W        W20337   6.919  32.857   3.336
47913W        W20338   7.182  17.676  12.139
47914W        W20339  30.418  10.263  13.614
47915W        W20340  43.832  14.104   1.536
47916W        W20341   6.589  18.529  11.302
47917W        W20342  31.103  17.172   3.762
47918W        W20343   5.118  15.794  11.678
47919W        W20344  33.303  38.100  10.952
47920W        W20345   7.737  21.186  11.505
47921W        W20346   9.185  37.871   5.782
47922W        W20347  37.108  10.707  12.536
47923W        W20348  10.171  17.774   0.453
47924W        W20349  27.990  40.469  10.818
47925W        W20350  19.162  22.189  14.695
47926W        W20351   1.069  35.192  14.411
47927W        W20352  17.544  17.117   2.274
47928W        W20353  31.319  27.943  10.729
47929W        W20354  40.404   0.469  12.465
47930W        W20355   0.986  20.672  12.626
47931W        W20356  27.081  34.769   2.483
47932W        W20357  16.007  21.396  14.120
47933W        W20358  23.085  24.922  13.514
47934W        W20359   2.813  21.812   0.359
47935W        W20360   5.784  13.075  11.948
47936W        W20361  36.033   4.065  14.119
47937W        W20362  19.830  28.664  14.930
47938W        W20363  13.445  18.755  12.262
47939W        W20364  24.725  20.093   2.709
47940W        W20365  23.344  22.908  14.458
47941W        W20366  21.622  12.362  14.049
47942W        W20367  41.961  30.025   1.866
47943W        W20368  27.860   9.235  14.967
47944W        W20369  15.683  16.081  13.331
47945W        W20370  30.977  13.255  12.587
47946W        W20371   5.628   3.178  12.050
47947W        W20372  31.896   2.226   0.270
47948W        W20373  38.002  27.173   2.403
47949W        W20374   6.715  39.793  14.380
47950W        W20375  22.182  16.094  10.858
47951W        W20376  38.258  12.654   4.320
47952W        W20377  27.672   1.128   4.174
47953W        W20378  25.055  11.314  10.688
47954W        W20379  44.404  28.478  14.290
47955W        W20380  19.989  32.390  14.925
47956W        W20381   6.479   2.186  11.167
47957W        W20382  15.586   1.515  14.844
47958W        W20383  37.879  12.363   1.657
47959W        W20384   2.023   8.235   2.298
47960W        W20385   5.898  34.974  12.967
47961W        W20386   2.211  37.071  14.382
47962W        W20387  25.102  31.333   2.382
47963W        W20388  18.439  18.769   1.907
47964W        W20389   7.386  44.481   1.845
47965W        W20390  18.788  25.761  14.796
47966W        W20391  17.618  25.048   3.712
47967W        W20392  15.472  38.426   2.705
47968W        W20393  21.785  20.740  13.284
47969W        W20394  19.060  22.616  14.369
47970W        W20395   3.537  33.241   3.258
47971W        W20396  26.534  23.719   0.525
47972W        W20397  37.138  28.534   1.272
47973W        W20398  38.452  44.190  13.875
47974W        W20399  28.486  15.409   5.031
47975W        W20400  35.433   1.747  11.023
47976W        W20401  41.297   1.972  13.552
47977W        W20402  13.909  20.954   2.790
47978W        W20403  13.651  33.985  12.571
47979W        W20404   5.448  37.665   1.116
47980W        W20405   5.318   4.272   2.258
47981W        W20406  31.135   2.678  12.241
47982W        W20407  28.332   3.753  14.286
47983W        W20408   3.478   9.701  12.802
47984W        W20409  17.641  37.685  11.673
47985W        W20410   1.540  40.941   0.348
47986W        W20411  33.383  32.053  13.944
47987W        W20412   2.241  37.893  13.824
47988W        W20413  35.092  32.623   3.184
47989W        W20414   9.543   4.440   1.156
47990W        W20415  24.494   3.304   0.481
47991W        W20416   3.574   9.678  10.623
47992W        W20417  26.414  15.807  13.590
47993W        W20418  13.814   7.378  10.703
47994W        W20419  37.081  26.588   1.220
47995W        W20420  14.049  14.370   4.202
47996W        W20421   1.804  23.440   1.409
47997W        W20422  17.374  39.283  13.284
47998W        W20423  25.522   0.964  12.050
47999W        W20424  41.502  28.678  13.854
48000W        W20425  22.762  40.351   1.175
48001W        W20426  44.564  27.979   2.720
48002W        W20427   2.425   6.433   2.773
48003W        W20428  32.091  36.024   4.374
48004W        W20429  18.211  33.521   2.065
48005W        W20430  34.984  29.422   0.554
48006W        W20431  12.386   7.649   2.492
48007W        W20432   0.238  22.509   4.024
48008W        W20433  32.174  11.223   0.743
48009W        W20434  32.546  13.811   1.436
48010W        W20435  21.101  16.145   4.683
48011W        W20436  16.081  29.587  11.183
48012W        W20437  16.411   7.566  12.074
48013W        W20438  18.865  34.011   1.197
48014W        W20439  26.248  15.007  13.905
48015W        W20440  40.262   4.742  13.457
48016W        W20441   9.858  35.929  14.282
48017W        W20442  33.890   5.410  10.349
48018W        W20443  16.844  25.582   4.924
48019W        W20444  16.159   0.761   4.583
48020W        W20445  14.784  20.516   3.249
48021W        W20446  31.554  10.266  13.108
48022W        W20447  38.869   4.043   5.074
48023W        W20448  25.639   4.683   2.590
48024W        W20449  21.043  26.931   1.338
48025W        W20450  22.311  33.258   1.036
48026W        W20451  40.452  22.699   1.369
48027W        W20452  22.108  24.016  12.949
48028W        W20453  26.225  43.838   3.861
48029W        W20454  43.420  25.904   2.945
48030W        W20455  31.619  23.687  11.135
48031W        W20456  36.844  31.841  11.529
48032W        W20457   4.210  36.153  12.740
48033W        W20458  25.707   4.617   3.632
48034W        W20459   9.874  18.798  11.601
48035W        W20460  42.687  14.631   2.330
48036W        W20461  34.518  31.557  12.919
48037W        W20462   7.551  12.850  13.005
48038W        W20463  15.556  26.423   3.360
48039W        W20464  15.796  32.915  12.502
48040W        W20465  31.168  22.688   1.708
48041W        W20466  15.179  19.564   0.694
48042W        W20467  44.538   0.973   0.482
48043W        W20468  17.792   4.619  11.712
48044W        W20469  31.694  22.099   4.654
48045W        W20470  29.599  16.627  11.680
48046W        W20471  33.303  14.696   3.191
48047W        W20472  37.556  42.318   0.666
48048W        W20473   6.809  42.265   5.077
48049W        W20474   5.308  30.111  13.879
48050W        W20475   4.259  36.400  13.609
48051W        W20476  24.673  31.849  11.190
48052W        W20477   1.593  29.475   3.940
48053W        W20478  38.009  16.581   4.299
48054W        W20479   5.400  13.710   1.170
48055W        W20480   6.895  35.320  12.531
48056W        W20481  43.845  38.045  13.908
48057W        W20482  11.614  10.807  12.082
48058W        W20483  38.824  42.186   1.223
48059W        W20484  38.076   2.434   0.401
48060W        W20485   1.865   5.382   0.968
48061W        W20486   0.079  44.780  13.253
48062W        W20487  28.569  25.778   0.996
48063W        W20488  36.270   5.700  11.942
48064W        W20489  27.047  17.575  11.142
48065W        W20490  30.009  38.579  10.722
48066W        W20491  42.766  28.965  13.847
48067W        W20492  17.180  28.114  14.490
48068W        W20493  33.316  16.141   2.457
48069W        W20494  32.196  14.621  12.538
48070W        W20495  27.209  23.540   2.767
48071W        W20496  26.547   5.823  11.884
48072W        W20497  22.016  10.624  10.741
48073W        W20498  17.081   9.084  13.510
48074W        W20499  26.404  40.372   1.008
48075W        W20500  26.937  40.317   0.953
48076W        W20501   8.588  22.033   0.807
48077W        W20502   2.403  15.780  12.062
48078W        W20503   9.936   4.089   1.155
48079W        W20504   9.891  16.968  14.830
48080W        W20505  30.434  26.005  11.539
48081W        W20506   0.211   5.496   1.489
48082W        W20507   9.879  16.979   1.847
48083W        W20508  37.528  24.111   0.819
48084W        W20509  15.257   2.664  13.845
48085W        W20510  18.597  17.546  14.692
48086W        W20511   4.724  17.649  14.388
48087W        W20512   2.071  31.955  14.369
48088W        W20513  37.397  25.624   0.672
48089W        W20514  31.647   1.884  11.247
48090W        W20515  19.721  15.656   4.448
48091W        W20516  27.866   3.977   3.169
48092W        W20517  30.935   0.737  12.409
48093W        W20518   9.656  41.361   0.865
48094W        W20519  15.143  26.081  10.637
48095W        W20520   7.711  14.180   1.035
48096W        W20521  28.456  31.396   1.559
48097W        W20522   9.557   4.306  13.358
48098W        W20523  31.595  35.041   1.449
48099W        W20524  26.961  27.961  11.890
48100W        W20525   2.216  22.949  11.523
48101W        W20526  16.125  24.399   4.236
48102W        W20527  17.022  29.960  12.914
48103W        W20528   5.950  36.974   2.630
48104W        W20529  44.883  41.907  13.890
48105W        W20530  29.168  17.954   0.719
48106W        W20531   4.343  10.522   4.117
48107W        W20532  34.166  43.616   1.610
48108W        W20533  34.726  19.029   0.010
48109W        W20534  40.349  32.066  14.533
48110W        W20535  27.161  22.162  14.865
48111W        W20536  12.700  28.101  14.798
48112W        W20537  20.490  27.012  13.745
48113W        W20538  33.289   9.196  10.631
48114W        W20539   5.812  25.527   4.107
48115W        W20540  25.242  26.073  13.662
48116W        W20541  16.566  27.567   4.489
48117W        W20542  17.753  11.792  10.723
48118W        W20543  17.664  37.329   0.377
48119W        W20544  39.896  12.130  13.991
48120W        W20545  26.724   7.348  10.650
48121W        W20546  42.784  23.184   2.488
48122W        W20547  15.403  40.726  11.487
48123W        W20548  33.066   7.182  12.966
48124W        W20549  18.603  25.052  13.735
48125W        W20550   8.892   8.463   2.456
48126W        W20551  18.552  28.018  12.588
48127W        W20552  43.893  27.041   0.398
48128W        W20553   3.488   5.688   2.406
48129W        W20554  25.807  36.543   0.243
48130W        W20555  10.050  21.566  11.677
48131W        W20556  33.031  14.894  13.677
48132W        W20557  10.455  31.144  11.663
48133W        W20558  10.652   7.300   2.574
48134W        W20559   8.347  25.095   4.362
48135W        W20560  39.001  36.142  12.064
48136W        W20561  43.780   5.649  12.547
48137W        W20562  33.411  43.971   1.293
48138W        W20563  30.950  44.503  11.945
48139W        W20564  36.604  40.893  10.698
48140W        W20565  21.428  35.594  14.059
48141W        W20566   5.448  20.533   0.329
48142W        W20567  17.784  44.706   4.820
48143W        W20568  39.165  39.738  12.158
48144W        W20569   7.951  43.056   0.968
48145W        W20570  24.197  40.835  11.646
48146W        W20571  27.094  36.898  10.702
48147W        W20572  42.379  30.840   1.342
48148W        W20573  28.818  31.053   0.497
48149W        W20574  30.047  18.431  13.351
48150W        W20575  38.267  38.822   1.234
48151W        W20576  36.124  30.552   1.955
48152W        W20577  37.708  17.549  12.473
48153W        W20578  44.929   2.324   3.418
48154W        W20579  44.448  24.867   4.974
48155W        W20580  27.129  37.437  11.563
48156W        W20581  17.143   5.994   5.127
48157W        W20582   1.292  10.790   1.373
48158W        W20583  14.498  32.784   2.153
48159W        W20584  20.732  40.018  14.240
48160W        W20585  39.822  12.745   0.745
48161W        W20586   6.247   1.730   3.442
48162W        W20587  12.317  29.662   2.162
48163W        W20588  36.280  36.376   3.004
48164W        W20589   2.948   3.879   2.706
48165W        W20590   7.900  32.662  14.289
48166W        W20591  10.207  28.651  14.843
48167W        W20592  30.310  37.866   1.196
48168W        W20593  10.385   3.672   3.367
48169W        W20594  36.312   3.058  11.567
48170W        W20595  16.492  31.155   2.426
48171W        W20596  29.466  12.038  14.397
48172W        W20597  31.021  23.223  14.836
48173W        W20598  44.186  39.089  10.239
48174W        W20599   7.209  37.332   4.619
48175W        W20600  16.509  40.558   0.829
48176W        W20601  35.545  25.656   2.891
48177W        W20602  19.168  24.063   3.261
48178W        W20603  37.561   3.500   1.399
48179W        W20604  36.873  34.952  13.862
48180W        W20605  26.998  28.203   4.607
48181W        W20606  25.105   5.886  14.586
48182W        W20607   3.389  15.860  14.004
48183W        W20608  41.762   8.183   0.844
48184W        W20609  22.094   1.272   4.840
48185W        W20610  17.011   1.694  13.985
48186W        W20611  20.353  39.983  13.416
48187W        W20612  27.749  13.350   3.688
48188W        W20613  25.652  44.132  10.654
48189W        W20614  14.042  10.182   2.231
48190W        W20615  11.739   8.463  12.872
48191W        W20616  39.323  38.099  13.409
48192W        W20617  38.532  15.607   2.530
48193W        W20618  40.426   8.373  12.809
48194W        W20619  15.522  27.702  13.142
48195W        W20620  11.733  21.695  10.578
48196W        W20621  34.088   1.196   3.763
48197W        W20622  37.098  17.096  13.440
48198W        W20623  15.039   8.863   1.411
48199W        W20624   7.977  38.570   0.900
48200W        W20625  29.129  12.297   2.939
48201W        W20626  41.406  22.048   1.340
48202W        W20627  43.018   7.953  12.890
48203W        W20628  38.682  20.485  14.832
48204W        W20629  34.960  16.573   3.837
48205W        W20630  41.103  16.580   3.176
48206W        W20631  41.397   7.194   1.293
48207W        W20632  41.861  33.165  11.144
48208W        W20633  34.388  41.074  14.314
48209W        W20634  34.917  11.283   4.501
48210W        W20635  30.965  29.713   0.450
48211W        W20636  39.577   1.156  13.373
48212W        W20637   5.726  11.218   3.719
48213W        W20638  35.790   4.176   3.449
48214W        W20639   4.696  20.565   3.879
48215W        W20640   5.652  20.026   1.312
48216W        W20641  24.975   6.076   0.434
48217W        W20642  16.795  13.646  10.789
48218W        W20643   9.602  33.554  12.141
48219W        W20644   6.432   8.992   5.087
48220W        W20645   3.950  33.654   4.133
48221W        W20646  21.703   1.514  13.316
48222W        W20647   8.988  37.964  10.439
48223W        W20648  18.731  23.105  14.438
48224W        W20649  11.700  25.330   4.134
48225W        W20650   9.241   5.320   1.205
48226W        W20651   2.718  31.040  10.624
48227W        W20652  29.112  26.277   0.382
48228W        W20653  13.338  36.134   3.706
48229W        W20654  24.036   2.137  10.925
48230W        W20655  43.453  17.404   4.120
48231W        W20656  27.163  38.920   4.786
48232W        W20657  32.052   2.080   4.575
48233W        W20658  13.430  24.605  11.146
48234W        W20659  21.006  44.880   1.914
48235W        W20660  30.923  19.535   0.757
48236W        W20661   6.555  33.452   0.433
48237W        W20662   7.762   4.699   3.886
48238W        W20663  11.495  35.129   0.547
48239W        W20664  18.997  42.508   5.000
48240W        W20665  29.080  43.366  10.832
48241W        W20666  37.287   3.356   1.830
48242W        W20667  37.658  23.685   4.832
48243W        W20668  25.782  14.666   1.559
48244W        W20669  11.621   3.691  13.031
48245W        W20670   9.890  42.529  11.895
48246W        W20671  11.740  34.977  12.029
48247W        W20672  12.810  23.992  13.504
48248W        W20673  15.232  32.972   3.111
48249W        W20674  39.184  44.765   3.821
48250W        W20675  37.463  29.812  11.830
48251W        W20676   3.226   8.159  11.713
48252W        W20677   2.993   6.842   3.134
48253W        W20678   5.427  19.388  14.473
48254W        W20679   9.321  17.400   1.357
48255W        W20680   7.598  40.097  13.486
48256W        W20681   3.290  32.683   2.413
48257W        W20682  34.465   2.944  12.109
48258W        W20683  33.252   4.924   4.660
48259W        W20684  15.163  24.020   2.141
48260W        W20685  15.640   0.517  10.749
48261W        W20686   9.182  17.493  14.277
48262W        W20687  24.248  25.716  14.375
48263W        W20688  42.792   9.858  10.722
48264W        W20689  37.543  30.644   1.855
48265W        W20690   7.147   5.213   0.329
48266W        W20691  26.331  44.393  12.013
48267W        W20692  32.908  21.304   4.205
48268W        W20693  42.490  40.429  13.106
48269W        W20694   1.918   1.349   4.131
48270W        W20695   6.210  41.044  11.500
48271W        W20696  29.488  41.422  10.568
48272W        W20697   3.326  18.460   2.899
48273W        W20698  22.037   0.318   2.143
48274W        W20699  37.437  12.569   1.807
48275W        W20700  23.002  42.199  11.886
48276W        W20701  16.661  33.696   0.300
48277W        W20702  30.578  25.047  11.312
48278W        W20703  37.513  34.505   3.271
48279W        W20704  28.695  39.154   1.178
48280W        W20705  27.678   0.608   0.368
48281W        W20706  43.096   1.934   3.159
48282W        W20707  44.669   4.104   2.160
48283W        W20708   8.373  31.119   1.411
48284W        W20709   5.843   9.090   2.605
48285W        W20710  12.619  14.820  14.042
48286W        W20711  16.991  33.487  11.208
48287W        W20712  42.450  43.928  13.353
48288W        W20713  33.625   0.831   0.436
48289W        W20714  40.245  22.040   2.102
48290W        W20715   8.837  31.932  10.736
48291W        W20716  17.677  21.056   1.750
48292W        W20717   5.654  11.760   4.708
48293W        W20718  23.281   1.621  11.490
48294W        W20719  29.905   8.184  11.714
48295W        W20720  14.063  19.896  13.837
48296W        W20721  34.889   0.389   4.734
48297W        W20722  22.440   6.528   5.172
48298W        W20723   9.206  41.861  12.930
48299W        W20724  22.084   6.235  13.836
48300W        W20725  28.270  32.100   4.255
48301W        W20726  13.299  32.832   0.624
48302W        W20727  25.234   3.178  12.052
48303W        W20728  10.409   3.094  12.001
48304W        W20729  30.427  25.769  10.625
48305W        W20730   1.154  31.166   1.892
48306W        W20731  20.988  10.327  12.921
48307W        W20732   2.965  28.993  12.334
48308W        W20733  26.678  23.330  11.505
48309W        W20734   6.736  39.009   5.259
48310W        W20735  22.023  30.154   0.921
48311W        W20736  25.538  20.867   0.857
48312W        W20737  22.530  36.458   4.113
48313W        W20738  16.974  31.677   0.422
48314W        W20739  31.422  21.972  12.096
48315W        W20740  34.474  21.997   1.910
48316W        W20741  39.518   2.789   0.786
48317W        W20742   3.326  42.465   4.151
48318W        W20743   7.880  28.527  11.358
48319W        W20744   7.697  32.086   2.782
48320W        W20745   2.216   4.001  10.986
48321W        W20746  11.248  36.914   1.784
48322W        W20747  32.765  14.430   0.008
48323W        W20748  44.564  25.240  11.109
48324W        W20749  14.757  33.597   3.602
48325W        W20750  16.354  33.309   0.469
48326W        W20751  20.061  23.954   3.341
48327W        W20752  20.091   4.872   1.237
48328W        W20753  37.165  35.054  10.734
48329W        W20754  34.883   7.367   1.356
48330W        W20755  42.068  40.720  12.234
48331W        W20756   2.796   0.062   2.225
48332W        W20757  15.480  44.294  14.973
48333W        W20758  28.377  23.107   1.707
48334W        W20759  24.697  30.703  14.719
48335W        W20760  41.873  32.301   5.023
48336W        W20761   4.399   6.364   1.657
48337W        W20762  31.827  40.914   2.160
48338W        W20763  24.042  25.572   2.982
48339W        W20764  20.015   3.234  12.435
48340W        W20765   9.193   7.311  13.932
48341W        W20766  23.032   0.816   1.545
48342W        W20767  37.362  24.823  13.415
48343W        W20768  24.182  13.198   3.774
48344W        W20769  16.626  12.736   2.911
48345W        W20770  34.547   7.402   1.784
48346W        W20771  34.116  32.477  11.458
48347W        W20772   1.001  24.725   2.701
48348W        W20773  26.611   3.171   0.877
48349W        W20774  27.805  30.501   4.851
48350W        W20775   7.781  21.626   0.025
48351W        W20776   4.276  16.027  11.990
48352W        W20777  21.452  38.282  12.507
48353W        W20778  41.743  23.992   2.894
48354W        W20779  25.746  11.218   4.262
48355W        W20780   9.816  21.417   3.717
48356W        W20781  24.489  14.025   3.751
48357W        W20782  27.587  12.427  13.835
48358W        W20783   2.200  17.453   3.783
48359W        W20784  29.031  16.569  13.350
48360W        W20785  35.642   3.694   0.006
48361W        W20786  36.480   4.176  10.685
48362W        W20787  34.951  11.329  13.326
48363W        W20788   1.569   1.701   4.301
48364W        W20789   1.400  17.711   1.524
48365W        W20790   5.285  15.803  10.796
48366W        W20791  13.619  23.484   4.684
48367W        W20792  43.724  37.840   1.703
48368W        W20793   3.913  22.441  11.197
48369W        W20794   9.600  33.456   1.701
48370W        W20795   7.639  44.126   4.116
48371W        W20796   2.604   0.877   1.884
48372W        W20797  42.264  23.889  14.358
48373W        W20798  10.314  10.765  13.339
48374W        W20799  44.241  40.572   1.715
48375W        W20800  40.950  32.507   0.023
48376W        W20801  43.360  20.674   0.577
48377W        W20802  12.780  22.025   4.819
48378W        W20803  19.581  20.001  10.947
48379W        W20804  16.662   1.313   1.225
48380W        W20805   1.422  36.632  11.200
48381W        W20806  24.145  10.941  10.657
48382W        W20807   4.694  25.782  10.229
48383W        W20808  37.948   7.259   2.763
48384W        W20809  43.392  37.460  12.070
48385W        W20810  18.440  35.571   0.207
48386W        W20811  17.365  20.391   9.939
48387W        W20812   9.028   3.864   1.003
48388W        W20813  26.600  27.232   4.042
48389W        W20814  30.807  13.592   3.132
48390W        W20815  44.031  43.006  13.917
48391W        W20816  39.378  31.093  10.476
48392W        W20817  36.867   6.948   0.255
48393W        W20818   5.387  34.622   2.942
48394W        W20819  20.718  11.283   3.260
48395W        W20820  33.592  21.685  13.588
48396W        W20821  36.694   8.796   0.335
48397W        W20822  38.957  39.108  14.543
48398W        W20823  13.866  19.064   2.905
48399W        W20824  19.881   0.275  12.484
48400W        W20825  40.519  32.443   0.417
48401W        W20826  37.526  12.559  14.015
48402W        W20827  16.045  34.830   3.724
48403W        W20828  11.341   7.236   3.620
48404W        W20829  36.895  16.280  11.407
48405W        W20830  42.935  39.340   1.202
48406W        W20831   0.380  11.254   2.003
48407W        W20832   5.822  16.854   1.019
48408W        W20833  17.296  21.068   1.345
48409W        W20834  37.832  34.404   2.866
48410W        W20835  19.717  36.893  12.109
48411W        W20836  19.035  35.024   0.859
48412W        W20837  11.879   4.120   0.344
48413W        W20838  42.352   2.737   0.003
48414W        W20839  43.496  18.754  11.983
48415W        W20840  30.493  44.824  12.974
48416W        W20841   8.923  35.428   3.627
48417W        W20842  43.427  15.380  10.203
48418W        W20843  30.904  11.172   1.431
48419W        W20844  32.355  22.075   0.360
48420W        W20845  39.011  32.795  14.200
48421W        W20846  11.876  43.554   1.437
48422W        W20847   2.866  25.604  10.560
48423W        W20848   3.882  13.581   1.665
48424W        W20849  21.670  30.921   3.611
48425W        W20850  29.404   3.796   2.778
48426W        W20851  12.587  12.350   0.552
48427W        W20852  34.431  12.074  13.213
48428W        W20853  38.409  15.143  12.917
48429W        W20854   3.376  28.554   3.787
48430W        W20855   5.312   2.744  10.537
48431W        W20856  37.454  44.908  13.418
48432W        W20857  26.199  15.292   0.954
48433W        W20858  16.650  17.704   2.881
48434W        W20859   3.928  30.684  10.880
48435W        W20860  27.560  34.024   2.000
48436W        W20861   0.990   5.408  14.996
48437W        W20862  35.394   4.275  12.927
48438W        W20863  16.947  32.130  11.951
48439W        W20864  18.537  10.128  12.146
48440W        W20865  25.992   4.873   3.314
48441W        W20866  28.024  40.269  13.344
48442W        W20867   9.677   2.903   0.767
48443W        W20868  17.967  35.293  13.224
48444W        W20869  34.047  41.753   0.174
48445W        W20870  44.993  22.982  14.843
48446W        W20871  16.095  44.962  14.518
48447W        W20872   1.866  26.598   4.148
48448W        W20873   7.235   5.483  13.978
48449W        W20874  11.414   6.977   0.763
48450W        W20875  40.832  11.791   1.925
48451W        W20876   2.976   0.870  10.780
48452W        W20877  31.454   4.766  10.959
48453W        W20878  35.163  14.223  12.842
48454W        W20879   7.645  35.175  14.503
48455W        W20880   6.297  44.457   2.202
48456W        W20881   8.697   4.803   2.841
48457W        W20882  18.648  12.127  10.364
48458W        W20883  39.551  18.277   2.750
48459W        W20884  37.623  26.014   2.722
48460W        W20885   5.160  24.481   1.235
48461W        W20886  35.101   6.771   0.521
48462W        W20887   8.682   8.186  14.778
48463W        W20888  23.691  31.752   0.067
48464W        W20889  37.060  17.973  13.485
48465W        W20890  31.428  28.535  13.265
48466W        W20891  31.073  31.712  13.316
48467W        W20892  33.114  12.155  13.639
48468W        W20893  10.396  44.764  11.271
48469W        W20894  34.628  32.396   0.482
48470W        W20895  38.864   6.415   1.154
48471W        W20896  27.647  36.400   3.402
48472W        W20897  15.774   2.255   0.344
48473W        W20898   5.555  36.933   2.305
48474W        W20899  24.511  28.223  11.988
48475W        W20900  27.493  33.898   5.019
48476W        W20901  35.830  35.048   4.979
48477W        W20902  22.808  16.781  10.807
48478W        W20903  29.082  27.937   2.957
48479W        W20904  18.591  14.257   0.467
48480W        W20905  37.762  19.331  12.507
48481W        W20906  11.657   8.680  13.336
48482W        W20907  35.606  43.893   0.996
48483W        W20908  28.328   6.308  14.430
48484W        W20909  13.629  39.883  10.743
48485W        W20910   4.345  11.203  12.196
48486W        W20911  10.133   4.918  12.078
48487W        W20912  21.696   6.940  11.182
48488W        W20913   6.008  34.880   1.275
48489W        W20914   9.866  27.030  13.514
48490W        W20915  33.987   0.206   2.126
48491W        W20916   4.992   5.809   1.695
48492W        W20917  25.163  28.770   0.155
48493W        W20918  18.562  37.892   4.293
48494W        W20919   5.350  10.801  13.146
48495W        W20920  24.227  24.482   4.172
48496W        W20921  21.194  15.368  13.467
48497W        W20922  26.731   9.223   0.748
48498W        W20923  18.332  17.200   1.766
48499W        W20924  11.109  32.934   3.184
48500W        W20925  28.964  12.631   0.512
48501W        W20926   3.469   1.950  12.118
48502W        W20927  20.052   3.691   0.706
48503W        W20928  14.286  43.296  13.151
48504W        W20929   5.917  13.765  11.621
48505W        W20930  21.595  21.191  10.881
48506W        W20931  17.612  23.919  14.860
48507W        W20932   9.943  16.515  11.590
48508W        W20933  32.065  32.128   4.145
48509W        W20934  13.895  32.473  11.112
48510W        W20935  32.588  23.478   4.339
48511W        W20936   2.171  28.560  14.724
48512W        W20937  19.836  27.778   2.952
48513W        W20938  27.279  33.647   4.597
48514W        W20939   8.964  38.661   4.589
48515W        W20940  21.081  44.630   4.681
48516W        W20941  37.417  28.240   1.661
48517W        W20942  35.080  11.631   3.598
48518W        W20943  13.362   1.319   4.340
48519W        W20944  20.325  43.024   3.318
48520W        W20945  33.015  24.050   3.378
48521W        W20946  40.359  41.396   2.523
48522W        W20947  27.887  43.446  13.347
48523W        W20948  26.069  20.743  11.765
48524W        W20949   4.721  39.854  13.521
48525W        W20950  35.704  18.154   3.772
48526W        W20951   8.440  22.262  14.027
48527W        W20952  24.320  15.737  10.822
48528W        W20953  32.036   2.688   2.177
48529W        W20954  30.427  15.061   3.317
48530W        W20955  10.732  28.084   3.611
48531W        W20956  18.227  21.166  10.705
48532W        W20957  42.465  10.849   0.817
48533W        W20958   3.635  20.163  13.474
48534W        W20959  43.881   6.920   3.764
48535W        W20960  12.521  34.372  11.053
48536W        W20961  25.013  43.535   0.982
48537W        W20962  42.815  30.455   3.206
48538W        W20963  29.117  26.554   1.870
48539W        W20964  44.608  14.113   4.460
48540W        W20965  28.660  26.030  12.775
48541W        W20966  30.975  18.874   3.222
48542W        W20967   6.346  26.222  13.164
48543W        W20968   6.096  38.952  12.272
48544W        W20969  33.844   5.694   1.387
48545W        W20970  28.927  27.131   4.640
48546W        W20971   5.639  19.848   2.779
48547W        W20972   1.444   8.574  13.289
48548W        W20973  12.365  12.256   2.826
48549W        W20974  21.535   7.538   2.530
48550W        W20975  32.634  41.937  12.133
48551W        W20976  34.970  41.493  12.075
48552W        W20977  42.117  17.346  14.005
48553W        W20978  15.306   1.793  13.061
48554W        W20979   7.305  25.069  10.997
48555W        W20980  24.742  15.139  13.820
48556W        W20981  31.419   5.773   1.414
48557W        W20982  22.528  23.401  14.443
48558W        W20983  29.889   2.700   0.841
48559W        W20984   2.020  38.928   3.250
48560W        W20985  37.587  35.010   3.169
48561W        W20986  42.199  43.502  11.118
48562W        W20987  35.431  15.813  14.635
48563W        W20988  12.910   7.199  11.733
48564W        W20989  35.885  26.123  14.917
48565W        W20990  40.373   1.714   2.835
48566W        W20991  31.913  44.399  10.645
48567W        W20992  28.720  14.342   3.804
48568W        W20993   6.726  31.026   4.214
48569W        W20994   6.786  18.505   3.421
48570W        W20995  34.668  43.950   4.134
48571W        W20996  13.539  44.376   1.701
48572W        W20997  22.091  12.149   2.778
48573W        W20998  24.129  34.398  14.291
48574W        W20999  26.547   3.450   1.327
48575W        W21000  25.098  19.166   0.905
48576W        W21001   7.611  10.578   2.243
48577W        W21002  24.116  18.139   3.583
48578W        W21003   4.995  16.062   2.706
48579W        W21004  36.661  40.875   0.877
48580W        W21005  37.058   1.550   3.829
48581W        W21006   8.736  11.397  10.738
48582W        W21007  15.929  30.556  14.604
48583W        W21008  39.501  13.089   4.201
48584W        W21009  30.456   7.516   0.687
48585W        W21010  44.755   5.950   2.856
48586W        W21011  36.133  23.534  13.148
48587W        W21012  11.876  25.068   1.696
48588W        W21013  18.957  40.995  14.761
48589W        W21014   7.738  22.790  10.714
48590W        W21015  21.546  39.855   0.435
48591W        W21016  22.480  39.578   3.300
48592W        W21017  38.826  35.376   0.904
48593W        W21018  16.999  40.310   3.657
48594W        W21019  38.364  38.868  12.009
48595W        W21020  17.190   6.337   3.794
48596W        W21021  29.642  20.689  13.800
48597W        W21022  12.790  41.413  14.936
48598W        W21023  24.168   6.682  14.408
48599W        W21024   3.788  41.867   3.667
48600W        W21025  10.075   0.194  12.129
48601W        W21026  44.494  17.314  11.827
48602W        W21027  19.224  43.699  13.050
48603W        W21028  44.446  19.341   2.844
48604W        W21029  19.745  42.250  14.086
48605W        W21030  27.206   5.686  12.927
48606W        W21031  23.298  42.780  12.971
48607W        W21032  11.896  16.147   3.347
48608W        W21033   4.531  31.220  11.111
48609W        W21034  26.834  44.801  13.289
48610W        W21035  24.505  14.140   0.033
48611W        W21036  13.818  39.308   4.598
48612W        W21037  22.255  26.530  13.886
48613W        W21038  26.569  16.286  14.355
48614W        W21039  43.773  44.092   4.198
48615W        W21040  28.795  19.615   3.030
48616W        W21041  32.556  11.615   4.044
48617W        W21042   5.890   0.726  13.313
48618W        W21043   7.755  23.816  10.742
48619W        W21044   8.663   8.295   4.637
48620W        W21045  34.424  25.970  14.363
48621W        W21046   0.932  10.183  14.398
48622W        W21047  44.331  23.514  10.712
48623W        W21048  10.577  44.217   4.119
48624W        W21049  10.251  17.248  10.533
48625W        W21050  42.260  15.905   3.747
48626W        W21051  13.587  23.802  11.909
48627W        W21052   6.713  24.640   4.787
48628W        W21053  42.316   8.879  13.839
48629W        W21054  26.540  25.121  14.356
48630W        W21055  28.515   5.836  14.009
48631W        W21056  35.981  37.825  12.963
48632W        W21057  42.698  21.194  14.499
48633W        W21058  44.671   8.292  12.529
48634W        W21059  25.150   8.237  13.186
48635W        W21060  25.090  14.777   2.864
48636W        W21061  25.354  14.766   1.218
48637W        W21062   0.955   9.185  14.492
48638W        W21063  32.575  32.603  13.311
48639W        W21064  18.820  35.418   1.834
48640W        W21065   8.154   6.163   0.385
48641W        W21066  14.051  17.343   1.790
48642W        W21067  27.879  43.326  12.363
48643W        W21068  37.011  18.082   4.393
48644W        W21069  28.977  35.669   0.931
48645W        W21070  29.406  27.103   4.827
48646W        W21071  23.701  33.659  12.086
48647W        W21072  42.869  23.525   1.689
48648W        W21073  32.089  10.344   3.911
48649W        W21074  40.992   7.208   0.436
48650W        W21075  40.634   2.875   1.441
48651W        W21076  31.883  11.289   3.583
48652W        W21077   2.261  41.376   3.218
48653W        W21078  30.617   0.055   0.841
48654W        W21079  17.205  41.439  10.455
48655W        W21080  10.907  28.451   3.278
48656W        W21081  28.410  10.773  11.874
48657W        W21082  43.780  30.166  11.365
48658W        W21083  13.614  23.358  13.145
48659W        W21084  40.524  42.462  11.504
48660W        W21085   8.306  35.645   2.435
48661W        W21086   5.176  36.474   1.134
48662W        W21087  26.477  34.450  11.605
48663W        W21088  13.196  39.573  10.687
48664W        W21089  16.454  17.623  13.429
48665W        W21090  19.820  41.735  11.089
48666W        W21091  43.757  44.779   0.648
48667W        W21092  12.625   0.891   4.107
48668W        W21093  25.538  32.898   4.070
48669W        W21094  30.501  17.769  13.966
48670W        W21095  40.790   7.787   4.651
48671W        W21096   2.684   3.736   4.547
48672W        W21097  34.880  29.602  10.943
48673W        W21098  34.590  32.290  11.540
48674W        W21099  33.153  31.635  10.458
48675W        W21100  40.227  16.094   0.032
48676W        W21101  17.579  35.074   2.740
48677W        W21102  36.345  37.645  12.514
48678W        W21103  36.327  29.296  14.932
48679W        W21104  30.103  11.269   3.596
48680W        W21105  16.210  26.044  11.600
48681W        W21106   3.095  32.824  10.957
48682W        W21107  32.121  10.760  11.605
48683W        W21108  18.006  36.572   4.522
48684W        W21109  42.346   2.382   3.285
48685W        W21110   6.504  24.155  13.840
48686W        W21111  14.651   3.256  13.045
48687W        W21112  10.085  15.722  14.811
48688W        W21113   9.384  43.220   2.889
48689W        W21114  39.556  17.644  14.863
48690W        W21115  35.476  36.037  13.858
48691W        W21116  14.109  24.039  10.758
48692W        W21117  28.407   3.807   4.214
48693W        W21118  10.553  16.043   0.319
48694W        W21119  17.588  11.186  14.887
48695W        W21120   0.544  10.542   5.035
48696W        W21121  22.979  35.369   2.284
48697W        W21122  35.990   9.395   0.374
48698W        W21123  32.063  32.559   1.972
48699W        W21124   9.881  35.677   2.751
48700W        W21125  41.852  19.716  11.961
48701W        W21126   7.382  22.111  10.975
48702W        W21127  20.109  19.805   1.826
48703W        W21128  32.726  40.459   0.171
48704W        W21129  24.096  44.216   4.117
48705W        W21130  40.334  12.768   3.324
48706W        W21131  13.366  23.782  11.441
48707W        W21132  14.145  42.711  13.308
48708W        W21133   6.366   5.214  12.067
48709W        W21134  24.007  33.972   0.508
48710W        W21135  16.976   8.824   0.297
48711W        W21136  20.558  43.854  14.098
48712W        W21137  37.358   0.524  14.311
48713W        W21138  43.482  30.575  12.932
48714W        W21139  36.022  24.754  14.037
48715W        W21140  38.620  30.280   2.934
48716W        W21141   5.085  10.004   3.725
48717W        W21142  15.210   4.864  13.796
48718W        W21143  23.744  10.556   4.568
48719W        W21144  13.671  23.601  14.981
48720W        W21145  40.064  40.454  12.165
48721W        W21146  37.283  15.581  11.058
48722W        W21147  12.301  30.071   2.931
48723W        W21148   5.647   4.845  12.564
48724W        W21149  44.771  36.964  14.408
48725W        W21150  35.645   3.884   2.205
48726W        W21151  15.710  23.343  12.954
48727W        W21152  24.110  36.298   0.302
48728W        W21153  17.686  13.045   2.157
48729W        W21154  44.557   3.650  10.189
48730W        W21155  44.496  39.083   4.527
48731W        W21156  30.067  30.163   0.186
48732W        W21157  15.358  25.800  12.142
48733W        W21158  15.285  24.026  13.400
48734W        W21159  33.943  31.409   2.937
48735W        W21160  39.815   3.744  14.992
48736W        W21161   4.203  41.407  13.371
48737W        W21162  34.510   7.202  12.828
48738W        W21163  38.506  21.666  14.821
48739W        W21164  19.746  24.005   2.846
48740W        W21165  10.172  17.470  12.514
48741W        W21166   5.315  17.418   1.572
48742W        W21167  38.494  25.979   1.414
48743W        W21168  16.168  27.927  10.810
48744W        W21169  12.134  18.079  13.497
48745W        W21170  39.121  21.962   2.857
48746W        W21171  16.367  31.910   2.266
48747W        W21172  38.088   2.777   1.250
48748W        W21173  17.070   9.128  14.068
48749W        W21174  35.579  31.677  11.639
48750W        W21175  41.368  13.814   1.864
48751W        W21176  33.567  19.594  14.829
48752W        W21177  38.842  23.032  13.341
48753W        W21178  27.064  23.010  13.157
48754W        W21179   2.232  27.701   2.299
48755W        W21180  37.390  10.753   3.629
48756W        W21181  36.398   3.743  14.321
48757W        W21182   1.820   0.469   1.890
48758W        W21183   0.528  24.403  12.091
48759W        W21184  23.966  28.565   0.051
48760W        W21185  44.253  20.620   3.889
48761W        W21186  16.374  32.667   3.813
48762W        W21187   3.473  33.665   5.037
48763W        W21188   0.239  13.258  11.094
48764W        W21189  11.779  28.105  12.471
48765W        W21190  25.756  35.532  13.346
48766W        W21191  41.489  32.220   9.915
48767W        W21192  10.919   3.421   2.495
48768W        W21193   9.259  12.083   4.219
48769W        W21194  23.544  35.080   3.591
48770W        W21195  38.533  29.747  12.483
48771W        W21196  28.175  14.555  12.044
48772W        W21197   6.196  20.142   0.411
48773W        W21198  25.146  34.496   1.185
48774W        W21199  29.125  13.847   2.762
48775W        W21200  12.828  20.739   3.103
48776W        W21201  33.062  18.254  11.919
48777W        W21202  10.929  40.303  12.024
48778W        W21203  18.080  14.864   1.501
48779W        W21204  26.153  21.563   0.762
48780W        W21205   8.884  12.582   3.780
48781W        W21206  15.803  32.512  14.069
48782W        W21207   8.631  32.742  12.546
48783W        W21208  17.498  34.045   3.554
48784W        W21209   7.404  44.221   1.242
48785W        W21210   9.046  19.900  13.536
48786W        W21211  36.468   4.931   4.566
48787W        W21212  12.926  34.470   4.701
48788W        W21213  27.269  27.895   4.181
48789W        W21214  34.999  17.079  10.359
48790W        W21215  16.739  30.962   4.129
48791W        W21216  23.470   5.314   0.989
48792W        W21217  38.389  19.990   3.734
48793W        W21218   5.183   0.688   0.941
48794W        W21219  35.163  27.501   2.145
48795W        W21220  36.832   0.668  13.088
48796W        W21221  23.917  35.867  14.551
48797W        W21222  27.016  42.828  11.990
48798W        W21223   1.952  35.004  12.671
48799W        W21224  28.478  21.713   3.841
48800W        W21225  15.334  40.042  13.913
48801W        W21226  31.209  19.422  12.893
48802W        W21227  26.572  29.423   1.015
48803W        W21228   7.834  39.879   3.003
48804W        W21229  26.992   9.150   3.889
48805W        W21230   6.876  44.468   2.616
48806W        W21231  43.635   9.954   0.442
48807W        W21232  18.703  26.724  14.807
48808W        W21233   9.360  14.363   2.875
48809W        W21234  42.686  16.660  13.069
48810W        W21235  37.344  20.730  12.101
48811W        W21236  44.248  27.472  14.073
48812W        W21237  24.114  22.623  11.417
48813W        W21238  13.125  20.486   0.873
48814W        W21239  38.295  36.904  14.938
48815W        W21240  37.040   6.180   0.935
48816W        W21241  40.771   3.924   2.883
48817W        W21242  40.256  43.601   4.216
48818W        W21243  20.091  44.618  10.141
48819W        W21244   0.238  41.991  11.613
48820W        W21245  33.475  35.317  14.341
48821W        W21246  23.560   8.380   9.537
48822W        W21247  25.593  42.339  14.415
48823W        W21248  40.875  22.140  13.798
48824W        W21249  28.507  26.683  14.745
48825W        W21250   1.896  17.066   0.463
48826W        W21251  32.288  32.254  11.482
48827W        W21252  28.488   1.525   2.724
48828W        W21253  32.952  26.039   4.227
48829W        W21254   4.008  22.513  13.368
48830W        W21255  35.790   9.308   0.883
48831W        W21256  12.316  44.916   1.865
48832W        W21257  24.198   9.110  11.952
48833W        W21258   0.867  27.591   2.600
48834W        W21259  37.155  42.888  13.429
48835W        W21260  15.665  30.687  13.788
48836W        W21261  12.381  28.039   2.850
48837W        W21262  16.364  23.563   3.942
48838W        W21263  35.160  19.674  11.566
48839W        W21264  23.813   5.395   3.466
48840W        W21265  20.820   9.352  13.986
48841W        W21266  42.710  15.139   2.556
48842W        W21267  13.169  33.453  12.077
48843W        W21268   2.715   9.061   2.400
48844W        W21269  44.128  38.310   1.364
48845W        W21270   3.443  43.423  11.093
48846W        W21271  24.200  17.300  13.420
48847W        W21272  34.432  11.080  13.225
48848W        W21273  31.815  18.465   2.752
48849W        W21274  35.332  22.069   1.341
48850W        W21275  18.248  36.575   4.076
48851W        W21276  18.946  41.752   3.643
48852W        W21277   0.797  34.003  11.751
48853W        W21278  37.851  23.133  12.917
48854W        W21279  20.445  37.955  13.304
48855W        W21280  13.836  12.777   4.543
48856W        W21281  15.072  43.292   2.874
48857W        W21282  14.203  23.655  12.438
48858W        W21283  18.293  40.306  13.613
48859W        W21284  37.392   7.754  14.511
48860W        W21285  37.479  22.538   3.852
48861W        W21286   1.914  19.666  12.359
48862W        W21287  35.217   9.958   3.075
48863W        W21288  36.470  36.112   1.368
48864W        W21289  40.800  43.983   0.048
48865W        W21290  34.058  11.308  13.969
48866W        W21291   9.202  11.171  10.536
48867W        W21292  40.403  39.125   0.757
48868W        W21293  44.404  10.596   0.460
48869W        W21294  43.382  12.427  12.579
48870W        W21295  35.525   7.031  11.036
48871W        W21296   9.484   0.774  10.945
48872W        W21297  24.082  39.863  11.586
48873W        W21298  25.643  10.661  10.426
48874W        W21299  42.226  16.064  12.324
48875W        W21300  30.674  28.144   3.152
48876W        W21301  42.147   7.231   2.006
48877W        W21302  22.472  29.494  10.551
48878W        W21303  32.725   9.139  12.890
48879W        W21304  11.885  17.608   3.085
48880W        W21305   9.112  30.836  11.178
48881W        W21306  20.640  36.828  10.732
48882W        W21307  14.820  16.633  10.691
48883W        W21308  14.820   8.719  13.050
48884W        W21309  27.269  37.379  12.590
48885W        W21310  42.640  34.386   0.376
48886W        W21311  42.015  27.476   1.864
48887W        W21312  27.628   4.237   1.796
48888W        W21313  33.047  29.234   2.756
48889W        W21314  32.715  23.100   1.912
48890W        W21315  40.515  12.563   1.356
48891W        W21316  24.039  14.905  13.011
48892W        W21317  11.601  21.966  13.756
48893W        W21318  12.321  35.795   2.598
48894W        W21319  23.375  15.240  10.685
48895W        W21320  25.621  40.196  14.889
48896W        W21321  29.098   2.661   3.233
48897W        W21322  12.716  24.192  11.035
48898W        W21323  19.593  37.569   0.539
48899W        W21324   1.782  11.111   4.259
48900W        W21325  26.617   0.205   3.305
48901W        W21326  21.241  33.512  11.797
48902W        W21327  13.351   5.686  12.487
48903W        W21328   0.999   3.272   4.128
48904W        W21329  19.070  42.331  12.787
48905W        W21330   3.806  27.997  13.379
48906W        W21331  36.512   1.377  14.981
48907W        W21332  32.515  41.855  11.633
48908W        W21333  44.268  40.725  12.366
48909W        W21334   1.292   2.457  14.329
48910W        W21335  29.158  12.265  12.895
48911W        W21336  38.337  14.406   3.797
48912W        W21337  42.873  30.652   1.178
48913W        W21338  17.695  44.483   2.160
48914W        W21339  41.762   5.198  14.043
48915W        W21340  39.080   1.010   5.063
48916W        W21341  15.975  35.666   1.305
48917W        W21342  33.006  22.581   4.042
48918W        W21343  18.348  31.461  13.144
48919W        W21344  29.468  26.288   0.765
48920W        W21345  30.992  10.856   2.708
48921W        W21346  44.798  42.309   3.872
48922W        W21347  29.715  18.814  11.653
48923W        W21348  12.913   2.771   3.457
48924W        W21349  12.868   9.167   2.740
48925W        W21350  14.771  12.048  14.917
48926W        W21351   9.444  34.978   4.267
48927W        W21352   8.667  21.199  10.884
48928W        W21353  14.991  23.564  10.698
48929W        W21354  34.215  38.346   1.851
48930W        W21355   8.780  16.300  13.073
48931W        W21356   5.127  21.064  14.128
48932W        W21357  41.522  14.092  10.691
48933W        W21358  22.258  24.221  11.378
48934W        W21359  40.414  38.979  10.210
48935W        W21360  14.726   8.287   3.869
48936W        W21361   9.648   2.645  12.321
48937W        W21362  39.216  29.995  12.053
48938W        W21363  29.991  39.562   1.873
48939W        W21364  12.942  19.053  10.827
48940W        W21365  33.776  11.745  13.920
48941W        W21366  43.397  15.548   0.411
48942W        W21367   3.005   2.820  13.980
48943W        W21368   2.876  28.646   2.844
48944W        W21369  10.861  14.077  12.497
48945W        W21370  41.327  16.660  11.493
48946W        W21371  25.062  35.063   0.989
48947W        W21372  40.773  21.112   0.829
48948W        W21373  42.230  43.997   0.811
48949W        W21374  30.176  33.154  11.865
48950W        W21375  13.736  40.086   1.434
48951W        W21376  36.347  24.971  10.574
48952W        W21377   5.471  12.843   0.721
48953W        W21378  15.018  11.367  12.615
48954W        W21379  29.069  25.954  11.684
48955W        W21380  39.840  25.803   2.818
48956W        W21381  26.264  35.356   5.172
48957W        W21382  28.128  43.348   1.293
48958W        W21383  17.096  22.695   0.757
48959W        W21384  37.419  28.086  10.668
48960W        W21385  34.056  37.583   2.333
48961W        W21386  22.041   6.554  11.088
48962W        W21387  16.300  32.162  13.001
48963W        W21388  17.049  11.707  12.393
48964W        W21389  40.780  30.725  11.275
48965W        W21390  20.573  39.893  12.402
48966W        W21391  21.825   3.531  10.628
48967W        W21392  16.311  17.847  11.512
48968W        W21393   2.485  28.574  13.358
48969W        W21394  42.976  19.393   2.239
48970W        W21395   9.349  36.002  11.944
48971W        W21396   6.254  19.656   2.163
48972W        W21397   7.870  36.792  10.757
48973W        W21398   0.376  43.428   1.935
48974W        W21399   7.027   3.331  12.769
48975W        W21400  19.088  43.379   3.302
48976W        W21401   0.780  13.858  14.957
48977W        W21402   4.764   1.310  10.215
48978W        W21403  30.852  40.340   2.130
48979W        W21404   0.939  31.974   1.371
48980W        W21405  33.973  20.294   1.191
48981W        W21406  28.386  29.998  12.148
48982W        W21407  12.808  44.896   4.163
48983W        W21408  35.820  19.223  11.094
48984W        W21409   8.437   5.449   1.703
48985W        W21410  40.261   5.376  13.894
48986W        W21411   8.934  28.859  13.949
48987W        W21412  37.467  38.799  14.152
48988W        W21413  18.771  26.029   3.211
48989W        W21414  17.570  35.360   4.473
48990W        W21415  36.454  13.363   0.369
48991W        W21416  36.806   7.813   2.423
48992W        W21417  11.703   1.674   4.536
48993W        W21418  13.250  42.756  13.780
48994W        W21419  41.105  11.823  12.907
48995W        W21420  32.177  27.650   3.717
48996W        W21421  43.054  19.172   3.210
48997W        W21422  10.539  18.142   4.376
48998W        W21423  23.771  34.897   0.797
48999W        W21424  17.817  31.389   0.749
49000W        W21425  32.151  10.254  13.967
49001W        W21426   6.270  41.375  13.597
49002W        W21427  38.959  28.830  11.581
49003W        W21428  41.524  36.848   2.482
49004W        W21429  25.543  23.014  12.054
49005W        W21430   4.409  25.506   0.332
49006W        W21431  18.874   3.828   0.372
49007W        W21432  14.091  23.773   4.543
49008W        W21433  18.025   1.238   2.278
49009W        W21434  12.304  15.332  11.479
49010W        W21435  18.744  18.224   1.605
49011W        W21436  33.516   7.426  12.944
49012W        W21437  33.234   3.759  13.403
49013W        W21438  36.569  18.637   4.602
49014W        W21439  36.994  28.124  14.885
49015W        W21440  16.539  27.890   3.223
49016W        W21441  28.642   0.450   1.800
49017W        W21442  18.632  13.695  11.437
49018W        W21443   3.822  32.559  13.239
49019W        W21444  38.784  30.685   4.678
49020W        W21445  42.777   9.633   3.697
49021W        W21446  38.326  36.600   3.590
49022W        W21447  12.300  19.447  14.874
49023W        W21448  43.701  13.916  12.009
49024W        W21449  35.533  40.462   0.979
49025W        W21450  10.168   3.469   0.244
49026W        W21451  29.893  15.377   2.226
49027W        W21452   1.716  37.379  10.793
49028W        W21453  34.459   0.239   4.448
49029W        W21454  35.071  39.820  13.579
49030W        W21455  12.572  21.806   5.757
49031W        W21456   7.308  14.309   3.444
49032W        W21457  14.798  22.687   0.465
49033W        W21458  26.499  39.878  12.582
49034W        W21459  37.081   8.251   4.191
49035W        W21460  27.901  36.987   0.977
49036W        W21461   3.140   8.392   3.632
49037W        W21462  26.292   6.648  13.374
49038W        W21463  22.376  23.313   1.310
49039W        W21464  39.501  10.847  13.837
49040W        W21465  20.742   3.578   5.140
49041W        W21466  31.682  28.035   5.124
49042W        W21467   9.360  11.642  14.866
49043W        W21468  24.083  37.909  11.132
49044W        W21469  17.809  18.413  13.903
49045W        W21470  34.056  11.820   4.862
49046W        W21471  17.146   0.499  10.620
49047W        W21472  43.935  27.848  13.638
49048W        W21473  12.835   8.751   4.112
49049W        W21474  27.429  42.336  13.354
49050W        W21475  15.225  17.404  14.334
49051W        W21476  15.765   6.901  11.252
49052W        W21477  20.057  14.801   2.829
49053W        W21478  13.699  32.581   0.360
49054W        W21479   5.548  41.812   3.310
49055W        W21480  43.048  44.820  12.020
49056W        W21481  33.349  41.388   3.092
49057W        W21482   0.300   4.354  10.435
49058W        W21483   7.472  38.413   0.794
49059W        W21484  17.865  39.344   3.695
49060W        W21485  24.456   1.994   1.760
49061W        W21486  20.040  36.098  12.646
49062W        W21487  28.884  21.691   4.202
49063W        W21488  21.742  16.032   1.792
49064W        W21489  33.105  21.566  13.717
49065W        W21490   7.938   8.933   1.732
49066W        W21491  13.710   9.121  11.196
49067W        W21492  20.137  27.199   4.549
49068W        W21493   4.670  14.256  13.509
49069W        W21494  14.060  10.242  12.690
49070W        W21495  32.466  41.333   3.623
49071W        W21496  19.720   0.962  13.856
49072W        W21497  43.777  14.454  11.107
49073W        W21498  41.864  24.655  14.521
49074W        W21499  30.164  30.201  13.341
49075W        W21500  20.509   8.793  11.297
49076W        W21501  43.257  40.380  10.462
49077W        W21502  35.485   9.332   1.307
49078W        W21503  40.011  19.164  10.724
49079W        W21504  28.979  11.382  12.336
49080W        W21505   6.756  13.129   2.184
49081W        W21506   6.379  10.198   1.851
49082W        W21507  31.207  20.249   2.835
49083W        W21508  15.607  21.210  13.816
49084W        W21509  21.515  19.646   1.807
49085W        W21510   4.217   7.648  14.577
49086W        W21511   5.413   2.627   2.307
49087W        W21512  31.611  22.747  12.085
49088W        W21513   4.799  19.733  12.365
49089W        W21514  43.760  29.644   1.521
49090W        W21515   9.510  27.899  10.704
49091W        W21516  33.913  32.996  12.497
49092W        W21517   2.279  31.819  13.902
49093W        W21518   4.252  29.419  10.428
49094W        W21519  17.627  43.818   4.794
49095W        W21520  35.533  41.826   3.899
49096W        W21521  32.138  15.026  10.826
49097W        W21522  15.698  10.010  11.129
49098W        W21523   0.489  24.712   2.630
49099W        W21524  39.558  22.214  14.511
49100W        W21525  43.189  22.253  13.078
49101W        W21526  27.507  25.664  13.518
49102W        W21527   7.549  32.005   3.736
49103W        W21528  40.027  14.764  11.009
49104W        W21529  16.778   3.389  12.637
49105W        W21530  26.094  42.046  14.832
49106W        W21531  31.412  44.983  13.970
49107W        W21532  39.722  24.562  10.702
49108W        W21533  12.161  32.936  11.912
49109W        W21534  32.779  15.635  13.787
49110W        W21535  38.032  17.341  13.518
49111W        W21536  16.735   2.828  12.396
49112W        W21537  10.291  34.649   0.799
49113W        W21538  35.003  44.224   3.663
49114W        W21539  19.082   2.379   9.745
49115W        W21540  23.270   5.208  12.004
49116W        W21541  36.721   3.280  10.396
49117W        W21542  15.256  22.469   1.387
49118W        W21543  40.662  27.188  10.889
49119W        W21544   3.527   6.444   1.194
49120W        W21545   3.750  28.877   1.801
49121W        W21546  22.525  44.746  14.843
49122W        W21547   6.839  43.971  14.230
49123W        W21548  28.595  35.848   0.295
49124W        W21549  32.981   2.097   3.592
49125W        W21550   7.150   9.485  12.902
49126W        W21551  32.620  19.256  10.054
49127W        W21552  21.330  29.105   2.644
49128W        W21553  19.738  24.575  13.703
49129W        W21554  24.031  25.176   0.329
49130W        W21555  42.656   8.698  14.890
49131W        W21556   6.445  36.380  14.827
49132W        W21557  28.553  36.233   3.314
49133W        W21558   0.282  16.274  11.576
49134W        W21559   3.849  35.467  13.756
49135W        W21560   0.147  26.611  14.305
49136W        W21561  44.428  20.613  14.320
49137W        W21562  44.393  34.919  11.972
49138W        W21563  16.297  22.750   4.536
49139W        W21564  36.925  21.924   3.810
49140W        W21565  31.721  11.962   1.864
49141W        W21566   2.478   3.062  13.133
49142W        W21567  39.950  19.637  10.915
49143W        W21568  12.229  29.439   3.173
49144W        W21569  26.623  30.424   1.060
49145W        W21570  36.048  13.309   1.747
49146W        W21571  37.963  37.620   1.932
49147W        W21572   7.362  40.027   2.852
49148W        W21573  32.445  13.324  11.150
49149W        W21574  34.556  44.858   2.974
49150W        W21575  36.551   5.894   4.483
49151W        W21576  42.773  30.549  10.811
49152W        W21577   4.419   7.653   3.269
49153W        W21578  22.999  41.963  12.567
49154W        W21579  22.116  24.268  12.396
49155W        W21580  11.315  31.263  12.930
49156W        W21581   5.768  24.179   4.930
49157W        W21582   7.029  38.147   5.029
49158W        W21583  44.674  43.946   1.400
49159W        W21584  41.573  32.190  14.848
49160W        W21585   7.812  16.321  11.160
49161W        W21586   5.314  37.188   0.962
49162W        W21587  35.948  34.976   2.656
49163W        W21588   6.300  33.536  11.099
49164W        W21589  39.846  36.846   4.181
49165W        W21590   8.723   8.852  10.047
49166W        W21591  13.254  12.842  12.156
49167W        W21592  44.946   1.490  14.835
49168W        W21593  41.628  38.310  12.810
49169W        W21594  27.706  38.478  13.718
49170W        W21595   8.234  39.705  12.864
49171W        W21596  11.368  12.036  12.618
49172W        W21597   1.068  43.028   4.120
49173W        W21598  15.051  11.963  13.183
49174W        W21599  37.535  32.167   2.917
49175W        W21600   0.450  41.907   3.201
49176W        W21601  35.421  23.562  13.945
49177W        W21602  44.050  36.444   1.035
49178W        W21603  14.066  37.597  12.364
49179W        W21604  36.869   3.133  13.014
49180W        W21605  11.584  38.346   2.769
49181W        W21606  40.739  22.516  11.900
49182W        W21607  20.603  13.792  11.224
49183W        W21608  35.861  21.711   1.409
49184W        W21609  42.509   9.388  13.834
49185W        W21610  28.743  39.983  12.072
49186W        W21611  44.202  14.146  10.419
49187W        W21612  33.843  19.735   2.285
49188W        W21613  16.640  21.434   0.755
49189W        W21614  30.863  18.140  11.190
49190W        W21615  19.718  42.771   1.413
49191W        W21616  33.547   8.235  14.419
49192W        W21617  36.960  35.541   0.353
49193W        W21618  27.566  10.585  11.941
49194W        W21619  16.174  19.844  14.317
49195W        W21620  19.336  35.285   1.613
49196W        W21621  21.485  27.525   3.212
49197W        W21622  24.974  36.867  13.899
49198W        W21623  22.273  32.340   1.908
49199W        W21624   1.307  11.606   0.702
49200W        W21625   2.748  18.320  14.160
49201W        W21626   6.358  27.217  12.928
49202W        W21627  35.803  40.057   2.860
49203W        W21628  24.219   5.206  11.865
49204W        W21629  36.717  37.804  14.757
49205W        W21630  28.061  20.181  11.655
49206W        W21631  39.005  32.539   2.667
49207W        W21632   1.198  37.789   0.540
49208W        W21633  38.998  22.730   1.782
49209W        W21634   9.607   7.247  10.334
49210W        W21635   9.294  23.981  10.774
49211W        W21636  30.145   3.389   1.322
49212W        W21637  35.810  29.461  14.847
49213W        W21638   7.779   0.693   4.272
49214W        W21639  39.063  40.288  11.468
49215W        W21640   0.141  10.682   4.689
49216W        W21641  26.945   6.797  11.670
49217W        W21642  31.058  32.302   1.421
49218W        W21643  16.185  31.148   2.891
49219W        W21644   0.845  24.650   1.211
49220W        W21645   0.254  16.133   0.288
49221W        W21646  13.739  43.222   0.671
49222W        W21647  15.234  16.192  14.228
49223W        W21648  39.480  38.949  14.443
49224W        W21649   1.849  20.822   0.452
49225W        W21650  31.257  23.302  11.457
49226W        W21651  37.562  39.054  13.367
49227W        W21652   2.010  39.788  11.554
49228W        W21653  17.261  40.399   3.161
49229W        W21654  22.789  32.638   4.754
49230W        W21655  11.868  21.493   2.208
49231W        W21656  44.375  30.494  14.301
49232W        W21657   0.178  24.043   0.461
49233W        W21658   0.209  35.375   1.774
49234W        W21659  15.939   3.296   4.898
49235W        W21660  11.211  39.617   3.808
49236W        W21661  26.243  31.105   2.162
49237W        W21662  13.734   8.690  14.542
49238W        W21663  15.739  32.397   1.886
49239W        W21664  29.172  16.330  11.609
49240W        W21665  13.116  21.912  11.548
49241W        W21666  19.659   5.415   1.320
49242W        W21667  32.380  19.658   3.854
49243W        W21668  10.388  34.847   1.827
49244W        W21669   2.741  34.636  14.882
49245W        W21670  10.067   8.325   4.181
49246W        W21671  33.824   9.607   4.378
49247W        W21672  42.509  24.298  12.578
49248W        W21673  23.558  39.087  14.477
49249W        W21674   7.156  12.174   1.993
49250W        W21675  25.181  21.975   4.217
49251W        W21676   9.102  23.700   0.431
49252W        W21677  11.916  25.557   1.925
49253W        W21678  39.461  38.824   0.752
49254W        W21679  38.557  24.050   0.830
49255W        W21680  32.306  35.308  13.459
49256W        W21681  18.098  21.658   1.472
49257W        W21682  20.285  38.000   4.647
49258W        W21683  42.259  43.319  14.868
49259W        W21684  36.820  26.450   5.214
49260W        W21685  39.360  41.682  10.199
49261W        W21686  34.091   5.224   4.721
49262W        W21687  17.713   8.973  12.906
49263W        W21688  16.464  21.122  14.013
49264W        W21689  14.244  24.525   0.870
49265W        W21690  19.765   3.024   0.270
49266W        W21691  15.736  17.040   0.804
49267W        W21692  26.324   8.668   1.585
49268W        W21693   3.451   0.954   2.236
49269W        W21694  29.921  31.523   2.119
49270W        W21695  29.023  38.338   1.384
49271W        W21696   5.789  20.546   3.285
49272W        W21697   4.305  35.488   4.907
49273W        W21698  22.936  37.017  10.676
49274W        W21699  12.255  27.857   0.951
49275W        W21700  26.079  18.783  12.012
49276W        W21701  12.199  22.216  11.643
49277W        W21702  24.756  25.986  13.430
49278W        W21703   5.754  44.685  13.796
49279W        W21704  31.486  20.002  13.605
49280W        W21705  12.264  24.125  13.442
49281W        W21706  22.506   1.009   5.039
49282W        W21707  35.317  38.580  11.119
49283W        W21708  17.842   9.808  13.473
49284W        W21709  28.452  11.417   0.391
49285W        W21710  42.088   1.308   0.108
49286W        W21711   6.889  17.329  12.405
49287W        W21712  34.101  17.080   0.016
49288W        W21713  37.755   8.392   2.233
49289W        W21714  31.746  24.461  12.556
49290W        W21715  34.490  42.452  14.464
49291W        W21716  20.611  41.593   3.264
49292W        W21717  35.869  29.534   4.761
49293W        W21718  36.475  18.310  12.364
49294W        W21719  27.976   4.698   3.824
49295W        W21720  14.512   9.650  14.869
49296W        W21721  18.593  30.605   2.102
49297W        W21722  21.242   8.815  12.364
49298W        W21723   9.553   0.253  12.216
49299W        W21724  38.061   2.949   0.340
49300W        W21725   6.805   8.985  10.662
49301W        W21726  17.545  19.925   3.174
49302W        W21727  23.084  33.178  10.685
49303W        W21728  26.686  31.586   0.573
49304W        W21729   6.442  19.297   1.801
49305W        W21730  10.238  27.292   5.047
49306W        W21731  10.139  43.327  14.996
49307W        W21732   3.146  40.322   5.083
49308W        W21733  26.077  12.884  13.555
49309W        W21734  13.275  11.848  11.922
49310W        W21735   0.055  28.447  12.574
49311W        W21736  33.597  17.304   4.000
49312W        W21737  17.059   6.346   2.566
49313W        W21738  41.341   7.684   4.090
49314W        W21739  13.863  16.676  13.312
49315W        W21740  26.591  41.707  10.066
49316W        W21741   0.438   5.091  13.325
49317W        W21742  42.215  26.960  14.949
49318W        W21743  42.443   6.619  12.009
49319W        W21744  25.687  15.257   3.746
49320W        W21745  41.433  25.672  10.679
49321W        W21746  10.783  27.184  10.714
49322W        W21747  41.574  19.811   1.925
49323W        W21748  43.693  23.471   4.469
49324W        W21749  10.591   0.208   3.257
49325W        W21750  41.829  31.894  11.757
49326W        W21751  18.813  29.526  10.893
49327W        W21752  39.890  37.024  12.948
49328W        W21753  20.306  17.892  14.843
49329W        W21754  12.411  17.675  14.989
49330W        W21755   1.381   0.402  12.816
49331W        W21756   3.170  22.036  11.835
49332W        W21757  35.604  27.189   2.844
49333W        W21758  12.065  35.006   1.413
49334W        W21759   6.937  35.994   4.731
49335W        W21760  29.447  24.278  10.639
49336W        W21761  12.621  18.590  14.926
49337W        W21762  42.048   6.261  13.819
49338W        W21763  31.449  10.338   2.619
49339W        W21764  40.886  37.607   0.544
49340W        W21765  24.022  34.029  13.920
49341W        W21766  31.386  13.031   4.237
49342W        W21767   8.772   6.958  13.405
49343W        W21768  28.483  18.163  13.113
49344W        W21769  20.522  22.261  11.077
49345W        W21770  44.402  35.116  13.306
49346W        W21771  29.720  32.473   0.500
49347W        W21772  39.299  43.362  11.892
49348W        W21773  26.150  16.539  13.067
49349W        W21774  11.087  28.180  12.104
49350W        W21775  11.470  15.125   3.725
49351W        W21776   9.272  29.117  14.922
49352W        W21777  42.809  40.085   0.983
49353W        W21778   0.959  30.875   1.514
49354W        W21779  16.083  28.858   1.213
49355W        W21780  34.333   3.859   4.158
49356W        W21781  39.601  44.242   0.263
49357W        W21782  44.583  11.706   2.095
49358W        W21783  41.320  41.053  13.917
49359W        W21784  13.281   3.857   0.525
49360W        W21785  38.965   7.382   3.038
49361W        W21786  43.509   5.758   0.311
49362W        W21787   0.786   7.587   4.043
49363W        W21788  33.580  40.376  14.666
49364W        W21789  36.476  23.284  12.093
49365W        W21790  17.127  25.242  11.548
49366W        W21791  31.542  22.258   2.346
49367W        W21792  26.940  27.919   3.775
49368W        W21793  42.870  12.621  10.981
49369W        W21794   3.308  26.079   4.709
49370W        W21795   5.898  17.162   2.780
49371W        W21796  24.490   2.537  13.911
49372W        W21797  28.481  11.634  10.998
49373W        W21798   6.489   9.115   4.179
49374W        W21799   7.683   5.806  12.947
49375W        W21800  11.745  20.445  12.028
49376W        W21801  38.276  37.653  12.575
49377W        W21802  33.144  36.899   0.702
49378W        W21803   6.867  25.707  12.095
49379W        W21804  26.539  35.144   2.452
49380W        W21805  14.740   6.347  14.479
49381W        W21806  19.030  40.691  11.041
49382W        W21807  29.718  33.408  11.608
49383W        W21808  22.198  20.370   1.220
49384W        W21809  36.585  14.292   4.477
49385W        W21810   7.620   9.268  12.876
49386W        W21811  22.982  29.318   0.430
49387W        W21812  13.637   1.883  10.758
49388W        W21813  29.909  41.965   3.221
49389W        W21814  35.346   2.669  11.473
49390W        W21815  23.020  28.511  12.406
49391W        W21816  38.525  32.937  11.421
49392W        W21817   8.514   9.080  12.915
49393W        W21818  18.159  23.565  14.942
49394W        W21819  28.416  44.581   9.683
49395W        W21820  20.996  42.345   0.931
49396W        W21821  18.627  24.637  12.322
49397W        W21822  12.903  16.236   1.398
49398W        W21823  26.265  34.382   2.494
49399W        W21824  19.460  36.107  11.162
49400W        W21825  41.844  23.108  14.844
49401W        W21826   3.394  10.197  13.901
49402W        W21827   5.434   9.650  12.494
49403W        W21828   8.391  39.399   1.922
49404W        W21829  37.401  12.054   2.616
49405W        W21830   3.222  10.440  14.334
49406W        W21831   1.785   5.227   2.444
49407W        W21832  39.833   2.015  13.508
49408W        W21833   8.738  31.184  14.344
49409W        W21834   8.114  44.969  13.036
49410W        W21835   9.272  36.949   1.189
49411W        W21836  21.496  24.066   2.375
49412W        W21837  31.624  21.241   4.442
49413W        W21838  22.783  11.326   3.277
49414W        W21839  32.132   3.450   4.256
49415W        W21840   9.520  34.341   2.696
49416W        W21841   0.112  17.000   0.773
49417W        W21842  41.216  11.852   0.066
49418W        W21843  43.595   0.620  11.193
49419W        W21844  29.217  21.515   0.334
49420W        W21845  41.855   4.975   2.286
49421W        W21846  35.943  39.812  14.759
49422W        W21847  27.971   2.455  12.114
49423W        W21848  31.978  38.778  10.572
49424W        W21849  17.651  10.714   1.507
49425W        W21850   6.430  24.927  11.134
49426W        W21851  28.634  38.668   1.316
49427W        W21852  43.999  40.919   3.824
49428W        W21853  14.309   2.192  14.404
49429W        W21854  43.877   4.118   2.335
49430W        W21855   5.799  26.136   3.150
49431W        W21856   8.310  37.437   0.765
49432W        W21857  29.801  34.233   0.484
49433W        W21858  22.024  32.403  10.632
49434W        W21859   9.794  27.448   2.645
49435W        W21860   0.687  37.091  11.894
49436W        W21861  13.051   2.619  11.117
49437W        W21862   7.730  14.732   0.807
49438W        W21863  33.051   5.773   3.214
49439W        W21864  18.446  35.501  13.312
49440W        W21865   3.918  40.780  12.171
49441W        W21866  27.079  35.817   3.237
49442W        W21867  11.734  10.006   3.224
49443W        W21868  33.536  11.259  14.083
49444W        W21869  19.360  24.753  11.123
49445W        W21870  22.367  10.661  12.874
49446W        W21871  17.630  44.236  14.419
49447W        W21872  12.684  19.174   4.754
49448W        W21873  28.693  10.653  10.918
49449W        W21874  11.713   2.966   4.120
49450W        W21875  37.920  36.075   3.080
49451W        W21876  37.895  34.472   1.402
49452W        W21877   1.384   3.852  12.652
49453W        W21878   0.057   2.079   5.226
49454W        W21879   5.949  16.596   4.396
49455W        W21880  35.572  24.519  14.994
49456W        W21881  23.197   9.678   4.731
49457W        W21882  39.416  26.448   0.986
49458W        W21883  35.824  24.603   4.028
49459W        W21884  12.839   3.382  13.499
49460W        W21885  21.782  35.364  14.976
49461W        W21886   3.967  37.930   1.978
49462W        W21887  12.538  32.978   1.317
49463W        W21888  35.459  39.987  14.919
49464W        W21889   6.502  39.997   3.345
49465W        W21890  41.214  21.160  11.069
49466W        W21891  34.517  35.530  12.288
49467W        W21892  26.763  16.597  12.475
49468W        W21893  11.248  32.000   0.251
49469W        W21894  23.376  21.165   0.652
49470W        W21895   3.959   7.268   1.175
49471W        W21896   4.996  14.093  10.937
49472W        W21897  24.570  44.515  13.825
49473W        W21898  36.149  36.824   4.585
49474W        W21899  35.831   3.784  13.276
49475W        W21900   8.804  44.212   3.869
49476W        W21901  24.026  32.608  13.844
49477W        W21902  22.573  14.608  13.409
49478W        W21903   4.580  36.361   3.846
49479W        W21904  44.290  18.153  10.304
49480W        W21905  18.145  25.299  12.005
49481W        W21906  34.571  35.929   2.316
49482W        W21907   5.428  31.247   4.911
49483W        W21908  19.485  23.302   4.160
49484W        W21909  18.707   6.670   4.594
49485W        W21910  38.868   6.234  13.953
49486W        W21911  14.070  24.769  13.444
49487W        W21912  41.832  39.568  14.002
49488W        W21913  12.021   5.924  11.576
49489W        W21914  10.633  21.976  10.371
49490W        W21915  35.889   0.522   4.559
49491W        W21916  43.600  17.808  12.393
49492W        W21917  13.583  41.351   1.776
49493W        W21918  14.327  31.576   2.362
49494W        W21919  19.911  12.900  12.767
49495W        W21920  26.159   0.298  13.057
49496W        W21921  32.814  21.088   2.776
49497W        W21922  42.335   6.845   1.719
49498W        W21923  33.346  38.734   0.758
49499W        W21924  25.206   0.940  13.959
49500W        W21925  12.583  30.555  14.372
49501W        W21926   9.173  40.138  14.390
49502W        W21927  32.891   5.341  10.505
49503W        W21928  24.542   5.020   4.123
49504W        W21929   2.291   0.383   2.745
49505W        W21930  34.058  35.098  11.957
49506W        W21931  42.758  27.601  12.066
49507W        W21932  28.893   3.675   4.033
49508W        W21933  20.782  10.724   3.654
49509W        W21934  31.830   8.816  11.611
49510W        W21935   7.742  30.562  12.185
49511W        W21936   7.014   7.653  14.432
49512W        W21937  22.235  12.949  13.768
49513W        W21938   1.789  14.116  14.268
49514W        W21939  39.496  38.348   2.207
49515W        W21940   7.228  22.355   3.611
49516W        W21941  18.266  20.647   1.415
49517W        W21942  16.119  30.522  12.188
49518W        W21943  29.668  42.831  12.831
49519W        W21944   3.755  30.323  11.198
49520W        W21945  24.303  40.466   3.695
49521W        W21946  18.325  18.598   1.407
49522W        W21947  29.741   5.419  13.906
49523W        W21948  17.071  10.946  12.988
49524W        W21949  15.147  35.005   3.354
49525W        W21950  35.687   8.724   3.595
49526W        W21951  34.193  28.500  11.232
49527W        W21952  35.912   3.257   4.586
49528W        W21953  21.252   6.825  11.452
49529W        W21954  15.529  17.513  13.597
49530W        W21955  17.675  35.076  10.697
49531W        W21956  43.835   0.108  14.689
49532W        W21957  19.646  17.866  10.443
49533W        W21958   7.104  27.534  12.283
49534W        W21959   9.042  29.501   0.614
49535W        W21960  20.042  19.680  13.181
49536W        W21961  16.148  35.352  14.819
49537W        W21962  42.542  23.392  11.868
49538W        W21963   1.387   7.452   2.710
49539W        W21964  31.635   3.889  10.642
49540W        W21965  44.956   8.198  14.106
49541W        W21966  37.314  31.861   4.663
49542W        W21967   2.274  36.317  11.184
49543W        W21968   0.678  35.836  11.666
49544W        W21969  25.400  42.972  12.118
49545W        W21970  10.925   0.772   4.063
49546W        W21971  14.360  31.999   3.237
49547W        W21972   9.127  44.945   2.796
49548W        W21973   7.251  22.822   4.375
49549W        W21974   3.674  17.940  12.524
49550W        W21975  26.166  20.089   0.943
49551W        W21976   0.764  17.835  11.094
49552W        W21977   0.850  28.662   1.071
49553W        W21978  19.575   6.873  12.555
49554W        W21979  44.990  36.064   2.190
49555W        W21980  35.047  16.329  13.046
49556W        W21981  14.570  24.107  13.895
49557W        W21982  37.514   0.252  11.198
49558W        W21983  16.852   4.294   1.223
49559W        W21984  32.507  29.577   3.749
49560W        W21985  33.490   4.809   3.772
49561W        W21986  33.486  38.815   2.290
49562W        W21987  18.342   7.476   4.865
49563W        W21988  38.460  39.426   2.295
49564W        W21989  27.593  40.804  12.619
49565W        W21990  28.492  12.723  12.415
49566W        W21991   0.788  25.466  14.336
49567W        W21992  12.912  37.416  14.962
49568W        W21993  22.819  13.592   1.486
49569W        W21994  14.160  16.711  14.201
49570W        W21995   6.760   8.445  13.601
49571W        W21996  41.612  41.454   3.324
49572W        W21997  30.985  42.605   3.313
49573W        W21998  39.582  28.587  11.118
49574W        W21999  28.729  33.850  10.253
49575W        W22000  22.646  22.508  12.095
49576W        W22001  21.690  21.460  11.730
49577W        W22002  42.440  41.276   2.857
49578W        W22003  32.411  21.223  14.284
49579W        W22004   9.641  10.378  10.256
49580W        W22005  35.479   0.798  11.622
49581W        W22006   4.208  17.998  12.491
49582W        W22007  12.708  36.923  13.735
49583W        W22008  19.989  44.826  12.754
49584W        W22009   7.221  16.595  13.490
49585W        W22010  31.402  22.152   2.836
49586W        W22011   4.216   3.362  14.539
49587W        W22012  22.110  22.552   0.285
49588W        W22013  10.127   6.745  14.720
49589W        W22014  13.822  36.332   4.755
49590W        W22015   0.752  23.916   4.742
49591W        W22016  43.509   4.131   0.260
49592W        W22017  15.223  22.165   4.288
49593W        W22018  39.436  26.721  11.269
49594W        W22019  38.894   9.265   1.212
49595W        W22020   9.319  20.332  13.363
49596W        W22021  18.712  36.326  10.676
49597W        W22022  33.682  33.337   3.155
49598W        W22023  20.566  37.298   2.824
49599W        W22024   8.337  39.059  11.027
49600W        W22025  15.474  23.055  14.156
49601W        W22026   2.413  16.073  12.510
49602W        W22027  15.930  42.682   4.881
49603W        W22028  23.603  15.200  12.564
49604W        W22029  18.270  30.112   4.968
49605W        W22030   2.486  16.850   1.706
49606W        W22031  14.169  20.910   0.796
49607W        W22032   0.853   3.954   2.672
49608W        W22033  18.746  38.044   3.812
49609W        W22034  13.800  13.135   2.354
49610W        W22035  41.975  25.567  12.568
49611W        W22036  34.997  28.180   4.807
49612W        W22037  42.935  24.020  12.465
49613W        W22038   7.841   5.848  13.894
49614W        W22039  20.581  34.845   0.241
49615W        W22040  41.046  40.935   2.164
49616W        W22041   0.925  28.991  13.121
49617W        W22042  18.345   8.488  13.534
49618W        W22043  24.391  10.099  13.552
49619W        W22044  15.060  35.964  13.371
49620W        W22045  43.569  30.411  12.149
49621W        W22046   4.766   6.998   0.882
49622W        W22047  33.824  18.631   0.845
49623W        W22048  35.415  10.649   4.640
49624W        W22049  19.725  41.348  11.994
49625W        W22050   1.855  21.518  10.935
49626W        W22051  33.232  23.809   5.055
49627W        W22052  27.491  35.470  12.125
49628W        W22053  16.999   8.572   5.126
49629W        W22054  35.043  14.308  13.348
49630W        W22055  10.417  23.195   3.711
49631W        W22056  14.728   0.959  11.131
49632W        W22057  16.012  21.299  10.620
49633W        W22058   2.758  30.822  12.599
49634W        W22059  36.072  29.952   3.559
49635W        W22060  25.242  13.589  14.914
49636W        W22061  32.438  16.730   3.818
49637W        W22062  26.947  31.155  12.548
49638W        W22063  25.017  20.694   3.813
49639W        W22064  20.023  22.899   0.738
49640W        W22065  20.983   2.993  10.931
49641W        W22066   9.255  36.775  14.858
49642W        W22067   7.194  29.534  13.321
49643W        W22068  15.349   5.852  11.463
49644W        W22069  36.361  13.190   2.161
49645W        W22070  42.859  35.919   2.372
49646W        W22071  40.460  36.937   3.770
49647W        W22072  20.131  37.289  10.095
49648W        W22073  16.309   8.568   4.571
49649W        W22074  26.340   5.190   3.607
49650W        W22075  29.866  20.579  14.414
49651W        W22076  20.113  28.904  14.070
49652W        W22077  18.937  31.126   2.734
49653W        W22078  38.035  31.786   3.611
49654W        W22079  22.674  28.651  12.041
49655W        W22080   6.888  15.889   0.048
49656W        W22081  35.682   0.327   4.135
49657W        W22082  38.929  43.796   4.995
49658W        W22083  27.578  32.367  14.933
49659W        W22084  29.971   7.949  12.156
49660W        W22085  16.194  14.043  11.586
49661W        W22086   3.594  18.662   3.788
49662W        W22087  37.058  35.597  14.631
49663W        W22088  16.831  36.646  12.130
49664W        W22089  41.930  33.626   3.708
49665W        W22090  35.618  35.866   4.157
49666W        W22091  14.008   4.315   2.689
49667W        W22092  41.064  39.720   1.880
49668W        W22093  23.711  20.242  11.177
49669W        W22094  43.840   6.417  11.914
49670W        W22095  18.498  24.746   4.616
49671W        W22096  27.031  36.113  11.192
49672W        W22097  44.844   4.123  14.120
49673W        W22098  35.300  20.140   3.288
49674W        W22099  30.966  28.126  14.801
49675W        W22100  17.375  24.149   1.192
49676W        W22101   2.033  37.870   1.814
49677W        W22102  38.902   7.294   4.566
49678W        W22103  13.100   3.326   1.784
49679W        W22104  25.144   6.309  13.850
49680W        W22105   6.542   1.375  10.644
49681W        W22106  18.687  23.966  14.033
49682W        W22107   8.176   7.810   2.319
49683W        W22108  16.868   3.427  13.512
49684W        W22109  17.760  27.203   2.046
49685W        W22110  33.142  23.078   3.655
49686W        W22111  28.972  20.999   3.745
49687W        W22112  37.998  14.258   2.881
49688W        W22113  11.398   8.149   2.218
49689W        W22114   4.927  17.124   2.950
49690W        W22115  31.607  33.401  10.481
49691W        W22116  23.708  26.528   4.184
49692W        W22117  15.304  10.599   2.865
49693W        W22118   5.931  25.436  13.023
49694W        W22119   3.229  19.450   3.744
49695W        W22120  27.048  39.529  13.311
49696W        W22121  19.540   9.730   1.625
49697W        W22122  29.958  22.572   2.855
49698W        W22123  38.730  31.887   0.820
49699W        W22124  26.957  26.797   4.444
49700W        W22125  17.506  21.582   0.780
49701W        W22126  24.187  22.983   5.320
49702W        W22127  41.740  15.293   0.350
49703W        W22128  18.677  27.396  13.854
49704W        W22129   3.248  26.531   1.348
49705W        W22130   4.733  39.910  12.996
49706W        W22131   4.203  30.199   0.353
49707W        W22132   0.977  13.544  12.408
49708W        W22133   9.804  19.610  14.918
49709W        W22134   3.156   7.861  13.946
49710W        W22135  23.587   8.280  12.650
49711W        W22136  12.934  11.309  14.397
49712W        W22137  34.809  35.542   0.331
49713W        W22138  32.607   0.456   0.979
49714W        W22139  28.638   0.537   0.446
49715W        W22140  12.817  14.399   4.158
49716W        W22141   5.487  35.513   2.920
49717W        W22142   4.620  25.052  10.122
49718W        W22143  41.244   1.487  10.601
49719W        W22144  32.870  17.246  13.604
49720W        W22145  11.951  39.613   4.925
49721W        W22146  12.349  24.561  10.871
49722W        W22147  42.209  20.024   3.696
49723W        W22148  14.025  38.883  12.761
49724W        W22149   5.820  34.530  11.109
49725W        W22150  31.311   9.844  11.549
49726W        W22151  44.432   0.809  10.719
49727W        W22152   7.838  23.511   2.311
49728W        W22153   8.625  25.196   1.173
49729W        W22154  24.914  29.986   2.653
49730W        W22155  26.667  34.463   0.955
49731W        W22156  24.076  18.863   2.179
49732W        W22157  43.349  20.191   0.836
49733W        W22158  26.693  26.889  14.730
49734W        W22159  17.819  22.007   0.699
49735W        W22160  42.116  21.568  12.579
49736W        W22161  18.621   1.886   0.688
49737W        W22162   5.747  18.334  10.912
49738W        W22163  43.351  43.895  10.281
49739W        W22164  44.784  38.512  13.428
49740W        W22165   2.150  34.326  12.128
49741W        W22166  10.633  32.946   3.451
49742W        W22167  22.628  43.209  13.310
49743W        W22168  24.778   5.485   4.234
49744W        W22169  37.046  12.437  13.401
49745W        W22170  41.341  38.872  12.437
49746W        W22171   5.413  17.540  14.826
49747W        W22172  17.222  10.264  12.504
49748W        W22173  27.595  29.509   2.760
49749W        W22174  10.249  27.002  11.953
49750W        W22175  16.672  23.991  11.507
49751W        W22176   4.741  25.637   2.916
49752W        W22177  19.638  40.068   2.373
49753W        W22178  37.886  42.886   3.562
49754W        W22179  43.054  28.202   4.539
49755W        W22180  30.048  18.716  13.779
49756W        W22181  16.792   6.176   1.440
49757W        W22182   0.829   2.345   3.913
49758W        W22183   1.453   4.792  13.330
49759W        W22184  31.431  19.684  14.090
49760W        W22185  12.789  15.658  14.199
49761W        W22186  34.510  36.590   1.036
49762W        W22187  38.480  18.545   4.305
49763W        W22188  29.530   4.153  10.857
49764W        W22189  32.716  23.274   3.882
49765W        W22190   8.784  16.546   2.695
49766W        W22191  32.285  33.904   3.252
49767W        W22192   2.256  17.723  14.359
49768W        W22193  24.125  20.612  13.040
49769W        W22194  10.287  34.402  10.622
49770W        W22195  18.545   6.791   0.873
49771W        W22196   7.903  16.345   1.698
49772W        W22197  23.219  33.148   0.938
49773W        W22198   4.724  29.673  10.401
49774W        W22199  16.750  12.310  12.484
49775W        W22200  20.378  24.124  12.092
49776W        W22201  19.611  10.606  13.927
49777W        W22202   1.888  44.390  11.529
49778W        W22203  44.275  29.184  11.257
49779W        W22204  34.988   6.897  12.778
49780W        W22205  27.116  36.484  14.311
49781W        W22206  37.840  29.650   2.897
49782W        W22207   6.686  43.828   1.734
49783W        W22208  42.353  42.578  10.764
49784W        W22209  44.618  41.755   4.776
49785W        W22210   6.458   3.568   1.896
49786W        W22211  41.568  43.472   2.876
49787W        W22212  38.858  44.935  12.985
49788W        W22213   4.417  26.136   1.533
49789W        W22214  30.182  14.408   2.122
49790W        W22215  38.236  11.328   3.758
49791W        W22216  14.261   4.459   2.252
49792W        W22217   8.836  25.063   4.258
49793W        W22218  26.058  28.218  12.958
49794W        W22219   8.549  23.676  11.902
49795W        W22220  19.308  23.104   0.346
49796W        W22221  37.673  33.854   3.140
49797W        W22222  33.233  41.024  11.156
49798W        W22223  41.585  20.412   0.060
49799W        W22224  34.531  16.835   0.611
49800W        W22225  43.160  10.077  12.521
49801W        W22226  42.036  26.308   0.391
49802W        W22227   9.922  20.635  12.405
49803W        W22228  33.061   5.865   4.248
49804W        W22229  12.244   8.812  12.616
49805W        W22230  39.047   4.825  10.193
49806W        W22231  30.055   2.909   4.582
49807W        W22232   2.785   7.655  14.515
49808W        W22233  38.478  29.879   4.540
49809W        W22234  41.773  17.733  12.056
49810W        W22235   4.661  18.540  11.126
49811W        W22236  25.762  13.765   1.225
49812W        W22237  36.534  23.061   2.215
49813W        W22238  15.364  31.557  13.822
49814W        W22239  33.914  18.086  12.438
49815W        W22240  24.805  43.787   2.138
49816W        W22241  28.129   3.200  13.863
49817W        W22242   3.202  24.674  14.436
49818W        W22243  18.031  31.099  11.863
49819W        W22244  17.773  23.719  12.369
49820W        W22245  12.796   5.394   3.716
49821W        W22246  41.791  15.122   0.838
49822W        W22247   5.588  10.731  12.386
49823W        W22248  32.144  17.435  10.383
49824W        W22249   6.799  43.048   3.403
49825W        W22250  14.145  20.184   0.303
49826W        W22251  18.405  31.871  12.238
49827W        W22252  15.824  39.318  13.510
49828W        W22253  21.354  10.123  11.601
49829W        W22254  14.138  28.553  14.314
49830W        W22255  35.592   2.010  14.391
49831W        W22256  39.590  28.954  10.767
49832W        W22257  19.112  12.161  14.481
49833W        W22258  36.352  41.320  14.288
49834W        W22259  32.469  43.056   3.363
49835W        W22260  23.349   3.382   3.595
49836W        W22261  19.097  20.745   2.756
49837W        W22262   4.056  38.933  11.129
49838W        W22263   7.858  36.849  13.837
49839W        W22264   0.156  23.635   1.582
49840W        W22265  40.314  37.736   4.191
49841W        W22266  34.321  27.042   4.140
49842W        W22267  24.045   5.407  11.424
49843W        W22268  27.997  37.321   1.853
49844W        W22269  25.088  20.056  14.012
49845W        W22270  41.116  32.940  13.931
49846W        W22271  22.047  44.829  12.773
49847W        W22272  18.781   3.039  13.071
49848W        W22273   6.243   7.645  12.050
49849W        W22274  11.269  28.247   2.402
49850W        W22275  25.734  41.784  11.504
49851W        W22276  18.253  26.008  13.731
49852W        W22277  28.649  16.246  12.377
49853W        W22278  39.809   7.757  10.959
49854W        W22279  36.441   5.364   3.670
49855W        W22280  18.587  24.742  10.545
49856W        W22281  38.098   8.252   4.059
49857W        W22282  33.699   0.870   1.416
49858W        W22283  34.062  17.747   4.633
49859W        W22284  28.847   1.442   0.325
49860W        W22285  22.201  24.749  12.622
49861W        W22286  20.870  19.748  12.176
49862W        W22287  26.642  30.436   2.642
49863W        W22288   1.668  39.574   4.247
49864W        W22289  37.932  36.173   0.092
49865W        W22290  37.389  26.845   4.939
49866W        W22291   7.706  11.250   0.651
49867W        W22292   1.692  27.276  12.869
49868W        W22293  42.901   0.244  13.523
49869W        W22294  28.944  32.933  14.530
49870W        W22295  12.740  44.096  13.655
49871W        W22296  23.750  35.472  13.335
49872W        W22297  10.383  28.527  13.513
49873W        W22298  26.572  12.200   2.027
49874W        W22299   9.743  20.688  14.062
49875W        W22300  38.056  30.964  11.644
49876W        W22301  37.408  41.440   1.258
49877W        W22302  11.172  28.719  11.517
49878W        W22303   7.257  14.568  12.479
49879W        W22304  35.886   1.456   2.274
49880W        W22305   9.206  27.071  10.759
49881W        W22306  12.776  34.922   4.998
49882W        W22307  23.409  11.259  12.370
49883W        W22308  15.645  30.224  11.122
49884W        W22309   0.829   7.096  10.018
49885W        W22310   1.861  41.384   2.072
49886W        W22311  22.955  20.108   2.274
49887W        W22312  25.521  18.006   4.171
49888W        W22313  30.566   5.403  11.577
49889W        W22314  12.934  22.990  13.529
49890W        W22315  42.465  37.425   2.401
49891W        W22316  36.611   8.290   4.496
49892W        W22317   1.894  19.072   4.149
49893W        W22318  21.941  37.482   0.683
49894W        W22319  30.887  32.974  14.891
49895W        W22320  34.096  23.956   4.216
49896W        W22321   4.414  40.234  11.506
49897W        W22322  31.916  34.770   3.653
49898W        W22323   2.967  44.916   0.443
49899W        W22324  34.062   9.213  12.086
49900W        W22325  11.354  38.619  11.161
49901W        W22326  17.826  28.073   4.556
49902W        W22327   7.341  33.966   3.629
49903W        W22328  32.392  35.624   2.140
49904W        W22329  44.093  15.694  14.961
49905W        W22330  24.563  29.402   4.433
49906W        W22331  30.327  18.068  11.227
49907W        W22332  39.803   1.840   0.246
49908W        W22333  18.787  26.827  11.711
49909W        W22334  11.239  36.505  10.772
49910W        W22335  15.560   8.835   4.610
49911W        W22336  10.669   6.893  14.802
49912W        W22337  42.231  13.631   1.848
49913W        W22338  43.216  30.453   4.200
49914W        W22339  10.887   7.641   4.890
49915W        W22340  22.522  15.683  14.938
49916W        W22341  30.011  23.955   0.364
49917W        W22342  24.944  26.927  11.542
49918W        W22343   5.221  16.619  12.112
49919W        W22344   0.798  43.560   3.693
49920W        W22345  22.009   9.259  14.816
49921W        W22346  38.642   1.267   3.218
49922W        W22347   9.886   8.483  14.494
49923W        W22348  34.474   1.276   2.299
49924W        W22349  26.735  16.233  13.821
49925W        W22350  41.929  18.813   4.193
49926W        W22351   2.756  15.157   4.628
49927W        W22352  31.194  26.590   0.715
49928W        W22353   2.344   5.441   3.630
49929W        W22354  26.005  36.488  13.825
49930W        W22355  26.037  17.034   4.910
49931W        W22356  15.074  14.701   0.782
49932W        W22357  11.168  32.964   1.671
49933W        W22358  37.805  26.081   3.225
49934W        W22359  39.501  26.538  12.645
49935W        W22360   7.084   1.399   1.758
49936W        W22361  11.153  34.470   1.243
49937W        W22362  33.667   2.326  13.241
49938W        W22363  18.431  27.305  10.609
49939W        W22364  15.699  16.722   3.701
49940W        W22365  43.323  36.757   0.440
49941W        W22366  22.127   5.782   2.180
49942W        W22367  43.272  41.831  11.537
49943W        W22368  21.659  12.672  11.580
49944W        W22369  24.886  12.890  12.869
49945W        W22370  23.564  42.425  11.879
49946W        W22371  19.223  18.639  13.890
49947W        W22372  22.851  21.138   2.275
49948W        W22373  35.973  18.007   1.913
49949W        W22374   6.483   1.164  14.914
49950W        W22375  26.450  16.308   1.295
49951W        W22376  43.999  26.468   4.272
49952W        W22377  25.262   7.701  12.533
49953W        W22378  14.410  22.701  12.861
49954W        W22379  11.834   2.072  11.597
49955W        W22380   1.286  32.817  12.930
49956W        W22381  27.850   0.394   2.651
49957W        W22382  33.209  30.102  12.513
49958W        W22383  33.899   6.298  11.421
49959W        W22384  15.589  33.847   3.826
49960W        W22385   7.325  38.808   2.218
49961W        W22386  21.773  34.301  11.487
49962W        W22387  13.711   0.413  10.610
49963W        W22388  22.024  14.364   1.442
49964W        W22389  16.924   5.095   5.118
49965W        W22390   6.397  40.320   0.988
49966W        W22391  34.378  36.439  12.678
49967W        W22392   6.501  27.162  13.878
49968W        W22393   9.610  28.218   1.660
49969W        W22394  37.408  36.176   2.760
49970W        W22395   5.876  33.013  12.824
49971W        W22396   1.044   0.756   0.001
49972W        W22397   7.142   8.331  13.937
49973W        W22398  39.056  22.303   1.422
49974W        W22399  36.973  18.732  13.065
49975W        W22400  29.694   7.093   4.201
49976W        W22401  43.234  20.188  12.869
49977W        W22402  36.198   9.348   4.528
49978W        W22403  29.887   3.288   1.762
49979W        W22404  26.150  30.216   0.926
49980W        W22405  32.571   5.586  10.948
49981W        W22406   9.122  42.518  12.325
49982W        W22407  20.046  11.838  14.040
49983W        W22408  25.126  17.689   4.163
49984W        W22409   9.042  37.190   2.910
49985W        W22410  10.871  18.484   0.432
49986W        W22411   2.950  44.567  11.108
49987W        W22412  26.081  31.081   0.068
49988W        W22413  14.092  15.306  13.948
49989W        W22414  41.289  10.156  12.350
49990W        W22415  23.946   1.274  13.925
49991W        W22416  44.547   3.046   3.649
49992W        W22417  37.526   4.894   2.607
49993W        W22418  29.552  20.718  10.600
49994W        W22419  16.744  35.739  12.943
49995W        W22420  35.018  19.459   3.226
49996W        W22421  14.626  44.377   2.669
49997W        W22422   9.054  30.572  12.026
49998W        W22423  20.612  38.837   9.846
49999W        W22424  26.984  13.385  14.318
50000W        W22425  35.496  17.524  14.017
50001W        W22426  31.641  26.416   4.649
50002W        W22427  29.742  23.180  10.517
50003W        W22428  22.244  35.164   0.874
50004W        W22429   3.176  13.090   0.678
50005W        W22430   7.792  18.250   4.356
50006W        W22431  31.210  37.603  14.308
50007W        W22432  27.975  40.985   5.003
50008W        W22433   1.645  12.380   0.360
50009W        W22434  12.079  26.171  11.122
50010W        W22435  29.656  21.211   1.973
50011W        W22436  25.449   4.774   4.552
50012W        W22437  17.339  20.203   2.202
50013W        W22438  38.501   6.484  12.814
50014W        W22439  37.090   4.698  14.855
50015W        W22440   2.890  28.374   4.597
50016W        W22441   2.380  26.669   1.399
50017W        W22442   4.736  40.522   1.930
50018W        W22443  29.131  30.910   0.917
50019W        W22444  30.542   2.767  10.849
50020W        W22445  30.907   3.558   0.883
50021W        W22446  22.495  20.725   2.310
50022W        W22447  17.346  40.957   4.612
50023W        W22448  24.045  16.843   1.198
50024W        W22449  21.110  33.106  12.616
50025W        W22450  37.257  43.820   4.048
50026W        W22451   3.263  35.439  11.267
50027W        W22452  41.402  43.448  12.807
50028W        W22453  27.664  20.204   4.099
50029W        W22454  23.058  37.305   3.201
50030W        W22455  26.658  23.489   4.083
50031W        W22456   2.954  12.436   1.180
50032W        W22457  12.309   8.889   1.399
50033W        W22458  24.118   4.389   3.352
50034W        W22459  42.111  24.534  14.974
50035W        W22460   8.222  25.179   3.463
50036W        W22461  25.172  19.254  13.480
50037W        W22462  26.550  26.971   0.276
50038W        W22463   2.858  39.512  14.531
50039W        W22464   8.474  37.951   4.259
50040W        W22465  32.079  44.801   4.614
50041W        W22466   5.837   6.002  14.927
50042W        W22467  14.361   3.539   2.251
50043W        W22468  38.273  40.751   3.666
50044W        W22469  21.747  23.798  13.215
50045W        W22470  21.018   3.692  10.921
50046W        W22471   8.078  17.212   1.757
50047W        W22472  21.181   9.458   1.905
50048W        W22473  18.750   5.089  14.830
50049W        W22474  23.671  15.106   2.628
50050W        W22475  40.831  31.116   4.084
50051W        W22476   0.454  41.912   0.399
50052W        W22477   9.716  26.081  12.122
50053W        W22478  40.296  22.787   3.764
50054W        W22479  11.729  17.330   1.244
50055W        W22480  38.921  37.564  10.607
50056W        W22481  20.131   3.478  11.999
50057W        W22482  14.870   7.986  11.066
50058W        W22483  18.436  31.398  11.710
50059W        W22484  33.119  29.206  13.151
50060W        W22485   8.000  12.924  11.352
50061W        W22486  27.450  42.236   0.977
50062W        W22487   8.806  42.735   1.064
50063W        W22488  23.010  17.198  11.049
50064W        W22489  39.449   1.951   3.084
50065W        W22490  18.722  41.246  11.954
50066W        W22491  15.623   1.523   3.752
50067W        W22492   3.444   3.718   2.661
50068W        W22493   6.587  38.950  12.391
50069W        W22494  35.353   8.259   2.396
50070W        W22495   8.669   7.809   2.462
50071W        W22496  42.896   4.973   2.316
50072W        W22497  34.560  41.707   4.142
50073W        W22498  42.536   5.084  12.002
50074W        W22499  31.433  12.110   3.880
50075W        W22500  29.472  24.542  11.627
50076W        W22501  24.489  29.036   3.121
50077W        W22502  40.986  37.954  13.967
50078W        W22503   8.416  26.529   4.208
50079W        W22504  28.736  11.840   9.790
50080W        W22505  32.016  35.536   0.264
50081W        W22506  14.725   4.124   4.422
50082W        W22507  17.918  20.742   4.698
50083W        W22508   6.685  43.696  11.152
50084W        W22509  36.414  10.654   3.724
50085W        W22510  43.013  21.939  13.480
50086W        W22511  23.418  10.733  10.337
50087W        W22512  28.716  40.571   0.133
50088W        W22513   5.883   1.704   1.210
50089W        W22514  39.173  18.097  13.309
50090W        W22515  12.410  40.555  13.399
50091W        W22516  38.333  20.707  10.555
50092W        W22517  42.208  13.955   0.334
50093W        W22518  25.054  34.386   1.688
50094W        W22519  34.026  12.942   2.347
50095W        W22520  38.501  43.590  13.228
50096W        W22521  23.610  25.464   2.276
50097W        W22522  18.182  15.565  11.994
50098W        W22523  41.501  13.388  12.472
50099W        W22524  15.644   7.259   2.998
50100W        W22525  25.191  14.371  11.655
50101W        W22526  40.440   4.171  12.580
50102W        W22527  27.442  32.462  11.087
50103W        W22528  32.507  41.317   4.571
50104W        W22529  28.834   7.719  12.084
50105W        W22530  27.293  26.764   2.118
50106W        W22531  10.042   0.136   2.440
50107W        W22532  34.660  31.050  10.707
50108W        W22533  42.879  18.269  10.697
50109W        W22534  12.784  31.720   4.538
50110W        W22535   8.964  25.469  13.302
50111W        W22536  40.829   2.324  12.479
50112W        W22537  36.540  27.056  14.425
50113W        W22538  25.099   8.124   0.496
50114W        W22539  29.554  23.432  12.898
50115W        W22540  36.896  13.130   4.925
50116W        W22541   9.781  12.168   4.767
50117W        W22542  27.519  32.127   0.393
50118W        W22543   5.866  31.028  12.932
50119W        W22544  20.815  12.883  10.721
50120W        W22545  24.726  30.107  10.727
50121W        W22546  25.857  36.005  13.062
50122W        W22547  43.963  35.376  13.098
50123W        W22548  14.569  23.144   4.757
50124W        W22549  35.775   5.786  12.028
50125W        W22550   2.631  15.388  11.054
50126W        W22551  37.003   0.118   2.928
50127W        W22552   0.927  22.561  13.239
50128W        W22553   0.297  33.337   1.287
50129W        W22554  11.866   8.830  14.018
50130W        W22555  25.476  25.178   1.760
50131W        W22556  10.171  29.183   3.204
50132W        W22557  18.427  22.431   4.575
50133W        W22558   6.261  23.554  12.155
50134W        W22559   8.777   3.581   4.973
50135W        W22560  33.327  34.938   2.704
50136W        W22561   1.839  35.367   3.844
50137W        W22562  33.286  41.925  14.030
50138W        W22563  17.613  15.810  12.016
50139W        W22564  24.228  14.135   0.975
50140W        W22565  30.970  31.199  11.872
50141W        W22566  39.306  29.020  11.238
50142W        W22567   7.669  32.592   0.765
50143W        W22568  26.262  30.515  13.475
50144W        W22569   6.320  32.827   2.162
50145W        W22570  32.955  38.985   1.068
50146W        W22571   3.787  29.867   1.679
50147W        W22572  10.520  11.078  11.558
50148W        W22573   9.158  25.972  13.410
50149W        W22574  18.134   2.339   2.376
50150W        W22575  44.763  37.647  12.095
50151W        W22576  44.922   0.874  13.374
50152W        W22577  25.220  35.009  13.885
50153W        W22578  26.929  18.699  10.437
50154W        W22579   6.876  37.025   5.151
50155W        W22580   5.788   6.062   2.188
50156W        W22581  25.155   8.635  11.291
50157W        W22582  29.594  27.217  13.782
50158W        W22583  35.649  35.434  14.916
50159W        W22584  30.422  18.951  12.547
50160W        W22585  14.244  40.995  11.752
50161W        W22586  30.003  16.630  10.191
50162W        W22587  38.364  29.873   1.693
50163W        W22588  41.083  21.686  14.743
50164W        W22589  18.404  40.892  11.607
50165W        W22590  38.512  27.224  14.675
50166W        W22591  34.588  42.994  14.462
50167W        W22592  25.735  25.023  12.797
50168W        W22593   7.458  22.537  13.382
50169W        W22594   7.271  41.081  12.487
50170W        W22595  18.712  40.493  11.727
50171W        W22596   3.392  40.554   2.918
50172W        W22597  22.081  33.517  10.686
50173W        W22598  41.327  24.615   1.872
50174W        W22599  36.770  20.494  13.266
50175W        W22600  11.166   7.202  14.335
50176W        W22601  38.920  43.407  14.837
50177W        W22602  37.908  12.242  13.920
50178W        W22603   4.019  33.233   1.711
50179W        W22604  41.788   1.566  12.123
50180W        W22605  33.138  24.122   4.640
50181W        W22606  38.110  25.726   2.927
50182W        W22607  34.640   1.276   4.322
50183W        W22608  41.653  24.634  11.657
50184W        W22609   8.985  22.150   4.035
50185W        W22610  19.402   3.126   0.671
50186W        W22611  44.362  19.996  12.053
50187W        W22612  29.991  35.949  10.723
50188W        W22613  18.952  23.532  14.965
50189W        W22614  35.085  14.840  11.677
50190W        W22615  38.927  23.358  13.990
50191W        W22616   7.775  29.043   2.348
50192W        W22617  18.087  43.270  11.470
50193W        W22618  20.042  37.409   0.269
50194W        W22619   9.129  14.111   4.594
50195W        W22620  44.272  13.827   0.850
50196W        W22621   5.384   6.897  14.561
50197W        W22622   9.672   9.288   4.186
50198W        W22623  42.302  42.318   4.699
50199W        W22624  16.080  17.573   0.387
50200W        W22625   6.252  12.838  14.463
50201W        W22626  35.452   9.830  11.539
50202W        W22627   9.177   8.883   4.645
50203W        W22628  44.729  12.122  12.828
50204W        W22629  21.215  25.461   2.334
50205W        W22630  30.228  13.055  13.972
50206W        W22631   2.459  27.274  14.043
50207W        W22632  27.814  32.638  13.994
50208W        W22633  17.548  33.631  14.839
50209W        W22634   3.024  43.532   0.473
50210W        W22635  44.093  32.614  14.198
50211W        W22636  14.140  28.716   3.194
50212W        W22637   0.239  24.627  14.329
50213W        W22638   3.528  15.701   2.657
50214W        W22639  31.099  22.285   1.382
50215W        W22640  44.890  12.687  14.207
50216W        W22641   4.345  22.990   3.094
50217W        W22642  28.012   5.919  14.349
50218W        W22643   1.709  14.165  12.801
50219W        W22644  18.304   3.237  14.908
50220W        W22645  26.511  36.609   1.251
50221W        W22646   5.699  21.068   1.864
50222W        W22647  31.099   2.960   3.619
50223W        W22648  23.332  34.789  12.817
50224W        W22649  32.239  44.409   0.066
50225W        W22650  28.052  23.532  12.943
50226W        W22651  34.091  29.257  13.949
50227W        W22652  36.962  15.325  12.971
50228W        W22653  11.187  16.094  13.105
50229W        W22654  23.797   5.436   3.966
50230W        W22655  24.881   2.873  10.505
50231W        W22656   8.147  32.987  12.533
50232W        W22657  20.851   0.479  11.170
50233W        W22658   7.929  33.460   4.670
50234W        W22659  18.534  18.143   1.145
50235W        W22660  40.059  40.730  12.806
50236W        W22661  33.160   9.961  12.120
50237W        W22662  13.005   0.010  14.374
50238W        W22663  32.918  13.768   0.426
50239W        W22664  27.500  43.733  10.599
50240W        W22665  44.017  32.440  12.925
50241W        W22666  12.277  19.501  12.485
50242W        W22667  26.969  27.498  10.876
50243W        W22668  41.786  15.860   1.255
50244W        W22669  34.194  33.383   1.847
50245W        W22670  30.028  33.619   4.670
50246W        W22671   3.730  31.561  11.211
50247W        W22672  11.672   9.569   0.731
50248W        W22673   6.979  27.637  14.019
50249W        W22674  11.618   3.262  12.625
50250W        W22675  17.045  20.638  11.408
50251W        W22676  36.961  11.821  10.402
50252W        W22677  39.648  33.103   0.446
50253W        W22678  27.593   0.881   2.854
50254W        W22679   0.995  25.476   0.683
50255W        W22680  33.977  43.471   0.946
50256W        W22681  43.247  12.874  10.719
50257W        W22682   9.477  23.011   1.822
50258W        W22683  36.283  37.479   3.136
50259W        W22684  20.869  38.064  11.856
50260W        W22685  33.136  21.677   0.347
50261W        W22686  35.061   4.819  13.111
50262W        W22687  20.213  11.460   3.601
50263W        W22688  42.743  21.029   4.928
50264W        W22689  34.108  31.575  13.818
50265W        W22690  26.384   0.942   0.333
50266W        W22691  42.360   3.046  12.988
50267W        W22692  39.539  28.563   1.392
50268W        W22693   1.179  26.010   3.133
50269W        W22694  35.451  37.842  12.876
50270W        W22695  26.444  29.419  11.975
50271W        W22696   7.477  18.335  12.854
50272W        W22697   8.209   3.074   1.895
50273W        W22698  31.811  34.091   3.251
50274W        W22699  12.249  29.615  11.284
50275W        W22700  42.998  42.078  11.953
50276W        W22701  40.827  33.441  12.864
50277W        W22702  21.030  25.027  13.097
50278W        W22703  36.884  22.104   0.253
50279W        W22704  43.056  12.793   0.230
50280W        W22705  19.383  30.321  13.526
50281W        W22706   1.708  42.491  12.934
50282W        W22707  44.984   6.095  10.878
50283W        W22708  21.705  31.205  11.116
50284W        W22709   5.907  12.661   2.893
50285W        W22710  40.908   7.356   1.327
50286W        W22711  23.581  11.178   0.221
50287W        W22712  23.695  34.882   2.213
50288W        W22713  31.102  27.088   0.021
50289W        W22714   2.023  14.039  13.224
50290W        W22715  19.778  16.314  14.014
50291W        W22716  29.068  10.818  13.964
50292W        W22717   2.479  17.301   1.930
50293W        W22718   9.075   6.595  13.587
50294W        W22719  19.738  28.467   3.270
50295W        W22720  10.147  22.149   2.194
50296W        W22721  39.172   2.014  10.220
50297W        W22722  29.199  40.381   0.194
50298W        W22723  18.962   2.512   1.767
50299W        W22724  23.144   1.874   2.818
50300W        W22725   0.335  34.101  11.085
50301W        W22726   6.819  31.140  10.581
50302W        W22727  30.603  31.943   4.028
50303W        W22728  21.602  33.822  11.606
50304W        W22729   4.235  38.369   0.052
50305W        W22730  38.793   4.928  14.428
50306W        W22731  20.785  19.982  14.300
50307W        W22732   9.287  16.776   2.669
50308W        W22733   5.867  12.845   1.054
50309W        W22734  37.091  21.425  10.876
50310W        W22735   9.305   1.460  13.040
50311W        W22736  30.137  10.410  12.546
50312W        W22737  16.218  43.499   3.318
50313W        W22738   1.870  15.464  12.938
50314W        W22739  27.036  10.348   3.432
50315W        W22740  19.108  44.962   1.906
50316W        W22741  11.746  20.741   3.842
50317W        W22742  30.564  31.999   3.528
50318W        W22743  13.650   9.206   3.186
50319W        W22744  18.659   1.249   1.779
50320W        W22745   6.507  13.682  11.058
50321W        W22746   5.789  38.537   3.790
50322W        W22747  25.095  18.857  13.798
50323W        W22748  20.901  41.681  13.608
50324W        W22749  19.057  37.801  10.571
50325W        W22750  23.070  17.448  11.511
50326W        W22751  25.442  44.193  13.456
50327W        W22752  31.867   7.747   1.846
50328W        W22753  37.249  19.365   4.171
50329W        W22754  32.606  34.729  12.858
50330W        W22755  38.577   8.612   0.261
50331W        W22756  18.139  24.010   0.812
50332W        W22757  22.723  36.946   3.880
50333W        W22758  40.034  10.911   0.081
50334W        W22759  28.633  42.499   0.383
50335W        W22760   3.259   8.381  11.243
50336W        W22761  41.339  39.404   2.197
50337W        W22762   6.997  28.576   2.580
50338W        W22763  44.109  14.154   4.295
50339W        W22764  35.791   6.770   3.892
50340W        W22765  28.743  33.783  14.992
50341W        W22766  34.815  19.602  13.276
50342W        W22767  21.239   6.482  12.090
50343W        W22768  33.206  10.350   3.782
50344W        W22769  32.388  41.972  12.572
50345W        W22770   7.507   7.666  14.274
50346W        W22771  27.678  34.377  10.505
50347W        W22772  25.495  41.018   1.889
50348W        W22773  21.158  26.464   3.687
50349W        W22774  20.485  20.110  12.445
50350W        W22775  10.360  26.140   0.359
50351W        W22776  38.359  17.875  14.921
50352W        W22777  13.793  30.829  12.008
50353W        W22778   2.480   9.850  10.721
50354W        W22779  36.865  41.736  13.028
50355W        W22780   1.523  26.575   1.281
50356W        W22781  38.472  12.663   1.374
50357W        W22782   8.172  22.197  14.467
50358W        W22783  28.721  28.149  13.134
50359W        W22784  18.786   1.450   0.939
50360W        W22785  27.632  12.262   2.299
50361W        W22786  44.984  37.806  10.730
50362W        W22787  32.617  10.890   0.709
50363W        W22788  11.203   7.170  12.396
50364W        W22789  20.196  12.314   0.242
50365W        W22790  26.446   6.458   4.064
50366W        W22791  27.445  30.182   4.684
50367W        W22792  44.750  17.674   0.503
50368W        W22793   1.502  23.569   4.670
50369W        W22794  44.887  31.728  14.089
50370W        W22795   4.741  30.912  10.742
50371W        W22796  12.762   6.446  12.176
50372W        W22797  26.229   3.382   3.041
50373W        W22798   9.833  12.088   1.279
50374W        W22799   7.815  37.613   4.593
50375W        W22800  14.850  35.353  12.829
50376W        W22801  15.858  40.989  11.573
50377W        W22802   9.380  43.330  13.455
50378W        W22803  28.604  25.016  13.891
50379W        W22804  37.037  26.898  12.288
50380W        W22805   9.691  22.651  13.858
50381W        W22806  26.047   7.257  11.222
50382W        W22807  27.286  32.518   4.964
50383W        W22808   2.465  37.871  12.478
50384W        W22809  34.816  36.758   4.212
50385W        W22810  36.762  38.942   0.356
50386W        W22811   2.336  11.343   4.541
50387W        W22812  18.560  21.499   1.635
50388W        W22813  27.596  24.958   3.372
50389W        W22814  15.086   6.741  11.405
50390W        W22815  29.526  41.477   0.178
50391W        W22816   6.621  34.019  11.874
50392W        W22817  14.614  24.668  14.311
50393W        W22818  32.754  26.104   3.332
50394W        W22819  20.023   0.434  14.130
50395W        W22820  13.813  38.078  11.178
50396W        W22821  41.184  41.516   3.630
50397W        W22822  15.762   3.885   2.921
50398W        W22823  30.308  42.492   4.263
50399W        W22824  40.884  41.819   1.184
50400W        W22825  22.784  36.021   1.774
50401W        W22826  29.641  36.292   2.299
50402W        W22827  22.743  38.084  14.279
50403W        W22828  17.571  23.633  11.891
50404W        W22829  42.531  22.638  14.028
50405W        W22830  39.358  21.030   3.368
50406W        W22831   0.244  20.135   3.125
50407W        W22832  44.284  15.450   4.713
50408W        W22833  39.390  29.614   2.422
50409W        W22834  28.169  10.735  13.391
50410W        W22835  24.773  27.564   4.835
50411W        W22836  16.275   4.136   2.273
50412W        W22837  16.886  28.575   4.754
50413W        W22838  21.666   9.271   3.238
50414W        W22839  12.124  42.449   0.386
50415W        W22840  13.160  39.556  14.981
50416W        W22841  18.730  18.862  13.835
50417W        W22842   0.097  37.625  12.962
50418W        W22843  42.791   2.853   4.953
50419W        W22844   9.013  21.119   0.431
50420W        W22845   6.425  35.425   2.615
50421W        W22846  11.250  35.479  11.458
50422W        W22847  40.112  34.174  11.528
50423W        W22848  32.659  34.154   2.380
50424W        W22849  28.421  32.035  12.937
50425W        W22850   5.921   5.405  11.840
50426W        W22851   2.344  44.031   4.107
50427W        W22852  30.529  16.479  11.685
50428W        W22853  32.494  10.169  12.889
50429W        W22854  24.006  25.588  11.372
50430W        W22855  28.136  38.828   1.348
50431W        W22856  37.621  15.305  14.463
50432W        W22857  25.263  40.655   3.590
50433W        W22858  16.814  37.322   2.298
50434W        W22859  43.903   4.688  14.903
50435W        W22860  32.703  17.113   0.380
50436W        W22861   2.820  34.111   4.536
50437W        W22862  13.606   7.853   0.105
50438W        W22863   3.768   8.442   4.475
50439W        W22864  30.115  13.178  12.104
50440W        W22865  25.931  24.251   1.711
50441W        W22866  38.452   5.968   2.250
50442W        W22867   8.500  27.125  12.439
50443W        W22868  39.359  22.043  11.701
50444W        W22869  36.583  42.350  12.446
50445W        W22870  11.144  19.350   5.052
50446W        W22871  16.168  15.139   2.725
50447W        W22872  41.053   2.500   1.834
50448W        W22873  36.476  30.535  10.376
50449W        W22874   7.103   9.886  13.246
50450W        W22875  24.006  41.592  12.636
50451W        W22876  42.724  39.952  14.753
50452W        W22877  20.131  31.559  14.401
50453W        W22878  13.162   0.287  13.541
50454W        W22879  24.827  13.914  13.469
50455W        W22880  17.230  16.084  10.652
50456W        W22881  31.941   7.242  10.625
50457W        W22882  33.933  13.637  13.342
50458W        W22883   5.357  27.941   1.770
50459W        W22884  19.225  28.524  10.454
50460W        W22885  26.682   4.235   1.896
50461W        W22886  11.369  24.195  11.738
50462W        W22887  41.319  11.708  10.809
50463W        W22888  39.785  20.839   4.110
50464W        W22889  18.344  34.999  11.249
50465W        W22890  22.058  43.982  14.110
50466W        W22891  28.309  25.986   0.218
50467W        W22892   1.139  11.154   2.717
50468W        W22893  42.449  36.126  14.938
50469W        W22894   3.688  27.425   1.907
50470W        W22895   2.273  37.079   0.707
50471W        W22896  30.080  30.085   1.211
50472W        W22897  19.725  13.933   3.724
50473W        W22898  31.491  17.354  12.921
50474W        W22899  32.471  40.535   4.642
50475W        W22900  20.521  21.739   3.904
50476W        W22901   7.945  10.187   2.242
50477W        W22902  10.658  13.214  12.571
50478W        W22903   2.945  25.021  13.827
50479W        W22904  24.748  30.659   4.010
50480W        W22905  16.867  17.225  11.645
50481W        W22906  11.704   8.175   4.415
50482W        W22907  38.390  28.731  12.446
50483W        W22908  31.711  36.340  14.481
50484W        W22909   2.353  33.029   4.671
50485W        W22910  37.462  13.855   0.333
50486W        W22911  33.683  40.817  11.361
50487W        W22912  13.738  27.487  14.024
50488W        W22913  18.801  40.566  14.488
50489W        W22914  31.078  27.828  12.935
50490W        W22915  17.786  43.715  11.454
50491W        W22916  39.854  17.113  11.085
50492W        W22917   7.839  13.321  12.007
50493W        W22918   3.386  22.007  10.554
50494W        W22919  32.988  17.254   1.757
50495W        W22920  38.511  35.561   0.463
50496W        W22921  33.471  32.071  10.337
50497W        W22922  16.558  23.664   3.365
50498W        W22923   8.633  26.450  13.397
50499W        W22924  41.708   9.664  14.850
50500W        W22925   3.752  33.963  12.889
50501W        W22926  11.766   8.476  11.409
50502W        W22927   4.022   2.801   1.234
50503W        W22928  15.522  41.254   0.378
50504W        W22929  41.395  38.803   1.010
50505W        W22930  20.799  29.651   1.572
50506W        W22931   9.697  21.028  14.439
50507W        W22932  14.614  24.486   3.175
50508W        W22933  37.365   6.784   3.263
50509W        W22934  16.347  19.679   4.538
50510W        W22935  35.554  26.358   5.019
50511W        W22936  27.647  32.131   4.991
50512W        W22937   7.295  19.606  14.767
50513W        W22938  21.710  36.535  13.673
50514W        W22939  12.411   4.238  12.082
50515W        W22940  44.725  13.615  12.003
50516W        W22941  39.242  24.304  11.236
50517W        W22942   2.212   7.978  12.523
50518W        W22943  14.049   7.269  11.140
50519W        W22944  15.140  18.118   1.945
50520W        W22945  35.970  29.192   3.987
50521W        W22946  32.713  16.310   3.710
50522W        W22947   7.303  37.655  13.504
50523W        W22948   7.865  10.185   4.092
50524W        W22949  40.877  34.311  14.636
50525W        W22950   4.052  39.907   1.797
50526W        W22951  10.884  21.677   3.796
50527W        W22952  31.572  10.365   2.093
50528W        W22953  13.059  10.223  11.921
50529W        W22954  38.514  44.100  13.048
50530W        W22955  26.697  34.045  11.380
50531W        W22956   4.700   6.121   4.664
50532W        W22957  17.500  32.125  10.143
50533W        W22958  16.499  27.422  11.669
50534W        W22959   6.794  36.908  14.550
50535W        W22960  15.358  37.660   4.192
50536W        W22961  38.823  28.964   3.219
50537W        W22962  13.760  24.561   2.074
50538W        W22963  12.723   7.170  14.017
50539W        W22964  18.223  28.051  12.190
50540W        W22965  20.778  25.387   2.893
50541W        W22966  20.812  21.566  11.749
50542W        W22967  42.014  15.603  11.113
50543W        W22968  16.184  43.252   2.817
50544W        W22969   1.849  41.157  11.903
50545W        W22970  42.804  40.929   4.527
50546W        W22971   3.879  13.825  13.336
50547W        W22972  24.771  37.970   0.964
50548W        W22973  25.275  36.622   0.043
50549W        W22974  39.850  11.086  12.841
50550W        W22975  24.326   6.812   2.344
50551W        W22976  33.014  22.573  13.429
50552W        W22977   9.561  10.077   3.051
50553W        W22978  37.292  30.148   1.008
50554W        W22979   0.326  28.850   2.374
50555W        W22980  31.928  32.436  14.285
50556W        W22981  10.817   5.469  13.076
50557W        W22982  28.899   1.300   0.829
50558W        W22983  18.189  18.961   2.348
50559W        W22984  23.182  26.128   1.952
50560W        W22985  40.061  14.263  14.428
50561W        W22986  10.169  23.034  14.970
50562W        W22987  42.909  16.269   0.287
50563W        W22988  39.675   9.293   3.305
50564W        W22989  28.349  35.093   0.882
50565W        W22990   3.950  22.555   4.139
50566W        W22991  10.270   5.785  12.223
50567W        W22992  35.061   9.174   4.735
50568W        W22993  14.200  10.563  10.963
50569W        W22994  44.017  37.580   4.249
50570W        W22995   1.858   3.251  11.254
50571W        W22996  43.204   5.423  13.845
50572W        W22997  23.242  40.892  14.534
50573W        W22998  14.612  27.772   0.802
50574W        W22999  20.561  33.523  13.604
50575W        W23000  17.178  28.452  14.101
50576W        W23001  40.783  13.095  13.332
50577W        W23002   5.750   7.340  12.455
50578W        W23003  35.352   7.127   2.630
50579W        W23004  25.690  19.089  12.149
50580W        W23005   3.267   5.300   2.691
50581W        W23006  14.186  29.301   2.323
50582W        W23007  28.702  18.741  10.834
50583W        W23008  41.943  38.088   2.946
50584W        W23009  10.868  24.062   4.677
50585W        W23010   9.190  11.237  12.013
50586W        W23011  44.956  43.956  14.398
50587W        W23012   0.265  42.494  14.807
50588W        W23013  11.389  36.578   2.551
50589W        W23014  42.677  35.420  11.916
50590W        W23015  12.094  18.850  12.888
50591W        W23016  17.143  38.849  14.861
50592W        W23017   6.807   2.730   0.443
50593W        W23018   2.712  37.066   2.019
50594W        W23019  20.273  18.936  13.365
50595W        W23020  16.651  27.697   2.724
50596W        W23021  17.978  36.540   3.654
50597W        W23022  27.318   9.733   1.136
50598W        W23023   7.738   7.011   5.335
50599W        W23024  12.140   2.044  12.032
50600W        W23025  14.217  17.209   0.265
50601W        W23026  31.915  10.733   4.666
50602W        W23027  26.442  15.671   4.546
50603W        W23028  34.803  22.310  11.586
50604W        W23029  20.534  26.611   0.444
50605W        W23030  17.177  37.017   1.038
50606W        W23031  13.806  44.142  14.514
50607W        W23032  16.506  16.879  11.644
50608W        W23033  12.532  32.594  13.037
50609W        W23034  36.329  18.683   0.730
50610W        W23035  14.665  44.406   2.137
50611W        W23036   7.107  38.981   4.090
50612W        W23037  43.347  21.032   3.794
50613W        W23038  18.692  11.171   0.859
50614W        W23039  42.051  43.073  13.399
50615W        W23040  10.316   0.983   2.686
50616W        W23041   7.252  21.009   2.686
50617W        W23042  41.428   4.896   3.227
50618W        W23043  24.042  39.637   4.102
50619W        W23044  13.263  31.609  11.595
50620W        W23045   6.006  38.541   1.325
50621W        W23046   4.879  44.766   3.303
50622W        W23047   8.731  38.821  11.712
50623W        W23048  30.095  41.814  14.734
50624W        W23049  33.205  31.373  11.264
50625W        W23050  22.712  33.218  11.070
50626W        W23051  36.830  19.063   4.124
50627W        W23052  24.577  42.537  13.460
50628W        W23053  34.845  39.786  10.766
50629W        W23054  37.919  44.047   2.729
50630W        W23055  44.383  16.760   4.440
50631W        W23056  44.379   0.482   2.861
50632W        W23057  17.122  36.906  10.707
50633W        W23058  16.612  32.227  10.231
50634W        W23059   6.765   6.342  14.058
50635W        W23060  11.898  33.586   0.354
50636W        W23061  31.916   5.552   0.819
50637W        W23062   7.239  25.892  12.419
50638W        W23063  28.568  38.935  12.908
50639W        W23064  39.719  29.648  10.872
50640W        W23065  13.186   0.060  14.919
50641W        W23066  10.650  30.501  13.826
50642W        W23067   3.709  20.881  12.004
50643W        W23068  31.801  41.252  10.984
50644W        W23069  27.922  40.582   4.595
50645W        W23070  31.779  41.334   0.325
50646W        W23071  36.622   4.668  10.671
50647W        W23072  39.070  43.840   4.174
50648W        W23073  38.242  23.090   3.729
50649W        W23074  14.131  24.766   4.752
50650W        W23075  44.383  36.102  10.344
50651W        W23076  41.855   2.385  13.953
50652W        W23077  24.121  44.494  14.543
50653W        W23078   6.948  35.119   3.757
50654W        W23079  21.747  15.611   4.349
50655W        W23080   7.252   6.861   1.168
50656W        W23081   7.058   3.868   4.752
50657W        W23082  16.822  34.433   1.689
50658W        W23083  43.944  28.845  13.064
50659W        W23084   9.778  37.784   1.742
50660W        W23085  26.088  23.044   2.314
50661W        W23086  40.338   1.010  12.361
50662W        W23087  24.174  13.256  12.690
50663W        W23088   8.867  36.797  11.610
50664W        W23089  31.134   0.960  13.982
50665W        W23090  15.722  33.604  10.748
50666W        W23091   7.846  15.736   2.831
50667W        W23092  42.319  33.165  12.814
50668W        W23093  14.095  23.943   3.725
50669W        W23094  42.181  20.005  12.872
50670W        W23095  31.069  32.202  10.854
50671W        W23096   9.307  40.440   0.908
50672W        W23097  28.751  41.303   2.789
50673W        W23098  34.874  13.670   4.826
50674W        W23099  12.676  11.757  11.238
50675W        W23100   9.902  44.528   2.835
50676W        W23101  35.051  33.823  14.043
50677W        W23102  31.038  39.147  10.450
50678W        W23103  44.276  37.767   2.550
50679W        W23104   8.828  10.285   3.056
50680W        W23105  37.140  33.932  13.971
50681W        W23106  24.073   7.967   1.419
50682W        W23107   4.617  25.130  13.343
50683W        W23108   6.245  10.168   2.796
50684W        W23109  30.775  25.392   3.233
50685W        W23110  29.730  33.638  11.115
50686W        W23111  30.216   7.175  11.733
50687W        W23112  44.764   7.389  10.738
50688W        W23113  28.446  42.992   3.710
50689W        W23114  15.709  28.459  14.539
50690W        W23115  26.510  24.182   4.526
50691W        W23116  21.110  25.955  12.591
50692W        W23117  25.456  36.314  10.728
50693W        W23118  24.233   7.684   0.979
50694W        W23119  27.729  14.438  10.929
50695W        W23120  26.317  16.793   2.569
50696W        W23121  17.643   4.842  12.595
50697W        W23122  27.803  12.711   3.835
50698W        W23123  22.697  43.293   3.856
50699W        W23124  23.354   1.095  13.545
50700W        W23125   9.910  37.518   3.296
50701W        W23126  23.616   5.671  13.433
50702W        W23127  17.931  21.051   4.238
50703W        W23128  34.930  37.039  13.482
50704W        W23129  21.410  18.998   4.219
50705W        W23130  26.078  35.390   2.208
50706W        W23131  24.779  41.073  12.812
50707W        W23132  11.335  27.432   0.766
50708W        W23133   7.298  20.756  14.077
50709W        W23134  31.389   8.131  10.641
50710W        W23135  36.376  34.348  13.802
50711W        W23136  28.611   3.433   0.420
50712W        W23137  26.010  18.546  12.861
50713W        W23138  18.623  44.553  12.019
50714W        W23139  19.756  19.106   2.514
50715W        W23140  34.812  20.619  12.377
50716W        W23141  17.706  28.962  14.233
50717W        W23142   3.479  16.836   4.602
50718W        W23143  12.201  41.279   2.151
50719W        W23144   8.265  18.852   1.333
50720W        W23145   7.246  30.471  12.456
50721W        W23146  14.124  16.218   2.889
50722W        W23147  13.904  17.596   0.087
50723W        W23148   5.795  35.848   3.178
50724W        W23149   5.939  10.569  14.402
50725W        W23150  24.580  23.090  11.941
50726W        W23151  18.799  29.011  10.689
50727W        W23152  22.064  39.154  11.516
50728W        W23153  32.400  23.672   0.705
50729W        W23154  18.876  13.701  10.989
50730W        W23155   4.739   8.203  13.515
50731W        W23156  25.123  14.081   3.742
50732W        W23157  34.827  23.245   1.181
50733W        W23158  20.594   1.256  13.787
50734W        W23159  28.735  32.295   4.185
50735W        W23160  25.462  15.142   4.238
50736W        W23161  17.418   6.314  13.277
50737W        W23162  27.040  11.850  12.846
50738W        W23163  19.679  30.936   4.332
50739W        W23164  23.524  11.630   0.471
50740W        W23165  44.220  13.420  12.453
50741W        W23166   5.722  16.033   2.528
50742W        W23167  28.127  10.222   2.800
50743W        W23168  29.425  14.724   4.654
50744W        W23169  41.751  38.568   2.085
50745W        W23170   0.685  36.390  12.923
50746W        W23171  29.354  19.595  11.634
50747W        W23172   8.229  19.943   4.195
50748W        W23173  40.322  16.480   0.431
50749W        W23174  34.547  32.567  14.707
50750W        W23175  20.155  18.312   0.230
50751W        W23176  32.455  22.945   1.457
50752W        W23177   8.501   2.657  13.426
50753W        W23178  38.346  34.052   2.254
50754W        W23179   1.908  31.990   1.265
50755W        W23180   1.182  10.335  11.628
50756W        W23181   4.862  22.825  13.000
50757W        W23182  13.889  21.995   1.380
50758W        W23183   9.201   7.865  13.359
50759W        W23184  37.441  15.675  10.573
50760W        W23185  30.964  25.360  13.142
50761W        W23186  31.536  35.593   2.003
50762W        W23187  16.081  21.696   1.867
50763W        W23188  20.585   9.338  14.587
50764W        W23189  42.844  44.771   1.110
50765W        W23190  30.592   7.414  13.327
50766W        W23191  21.239  19.182   0.790
50767W        W23192  17.742  15.570   2.187
50768W        W23193  27.606   0.863   4.622
50769W        W23194  24.415   4.592  13.530
50770W        W23195  40.318  42.026   0.230
50771W        W23196  29.552   7.305  14.437
50772W        W23197  40.538  31.624  14.936
50773W        W23198  35.586   8.533   0.194
50774W        W23199  32.159  36.815   2.358
50775W        W23200  31.349  15.172   3.168
50776W        W23201  37.178   0.903  13.460
50777W        W23202   7.096  37.802   5.747
50778W        W23203  31.246  36.099  14.424
50779W        W23204  29.533  39.399   2.050
50780W        W23205  34.015  34.771   0.491
50781W        W23206  23.823  18.425   1.389
50782W        W23207  20.793  24.052   1.518
50783W        W23208  32.075  10.714   2.362
50784W        W23209  27.967  31.292  14.327
50785W        W23210  43.221  36.547   3.252
50786W        W23211  18.453   0.413   0.401
50787W        W23212  33.292   7.595   0.772
50788W        W23213  22.912   0.451  13.710
50789W        W23214   6.708   0.423   4.727
50790W        W23215  26.417  36.952  13.964
50791W        W23216  22.306   8.853  12.423
50792W        W23217   3.427   0.283   3.767
50793W        W23218  41.721  43.327  13.747
50794W        W23219  39.956  35.387   2.308
50795W        W23220  29.557  30.396   4.787
50796W        W23221  19.774  40.275   0.737
50797W        W23222  27.618   4.434  12.055
50798W        W23223   1.280   2.725   4.551
50799W        W23224  21.776  32.415   1.853
50800W        W23225  27.961  21.048   3.780
50801W        W23226  20.679  26.382   4.743
50802W        W23227  25.112   5.980   1.465
50803W        W23228  37.079  18.593   0.269
50804W        W23229  35.606  35.971  10.769
50805W        W23230  31.655  15.772   5.566
50806W        W23231  30.119  41.717   3.682
50807W        W23232  31.967  31.073   1.669
50808W        W23233  28.386  17.332   0.399
50809W        W23234  11.255  18.291  13.969
50810W        W23235   8.310  16.064   3.279
50811W        W23236  18.107   1.061   4.596
50812W        W23237  24.856  40.908  11.109
50813W        W23238  41.046  31.180   0.384
50814W        W23239   7.918   3.258  12.925
50815W        W23240  26.678   6.625  12.073
50816W        W23241  16.450  12.173  11.214
50817W        W23242  28.080  38.871  14.566
50818W        W23243  18.001  44.958  11.016
50819W        W23244  19.913  33.633  11.058
50820W        W23245   8.121  10.722  13.425
50821W        W23246  25.050  39.571  13.857
50822W        W23247   1.728  38.582   3.661
50823W        W23248  30.496  31.397  10.606
50824W        W23249  33.812  10.190   2.810
50825W        W23250   2.671   8.085  11.626
50826W        W23251  26.102  13.350  13.290
50827W        W23252  20.741   5.673  10.570
50828W        W23253  29.220   7.752  14.295
50829W        W23254  22.083  24.171   0.800
50830W        W23255  20.001  38.907   3.620
50831W        W23256   1.830   9.946   2.723
50832W        W23257  32.113  35.537  11.036
50833W        W23258   6.361  29.612  12.016
50834W        W23259  35.981  20.736  12.736
50835W        W23260  23.342  19.545  13.405
50836W        W23261  23.313  32.852  13.730
50837W        W23262  21.474  12.844   0.434
50838W        W23263  29.067  25.940   3.145
50839W        W23264  40.341  32.577   2.405
50840W        W23265  42.813  23.525  10.745
50841W        W23266  29.500  18.562   0.950
50842W        W23267  32.689   1.365  10.695
50843W        W23268   1.793  38.321  13.091
50844W        W23269  13.282  24.924  13.368
50845W        W23270  36.899  28.565  14.013
50846W        W23271   4.634  27.625  10.819
50847W        W23272  34.714  36.140   3.643
50848W        W23273  31.873  21.348   2.786
50849W        W23274  17.976  41.119  14.741
50850W        W23275   1.136  37.426   4.219
50851W        W23276  38.491  35.685   2.785
50852W        W23277  44.761  26.631  11.203
50853W        W23278   8.872  26.662   1.987
50854W        W23279  11.380  37.478  14.728
50855W        W23280  18.981  36.034   4.207
50856W        W23281  10.976   1.208  14.491
50857W        W23282  29.081  21.313  12.297
50858W        W23283   0.769  24.741   0.274
50859W        W23284  10.574  24.535   1.864
50860W        W23285  39.032  27.022   3.098
50861W        W23286  27.528  43.037   3.625
50862W        W23287   5.496  37.883  14.813
50863W        W23288  10.818  16.015  10.693
50864W        W23289  22.305   0.906  11.939
50865W        W23290   4.375  27.530   2.697
50866W        W23291  16.047   2.761  10.283
50867W        W23292  35.968  15.157  11.969
50868W        W23293  33.537  23.955  10.671
50869W        W23294  29.625  37.525  13.972
50870W        W23295  24.770   1.976   0.505
50871W        W23296  37.557   6.299   1.082
50872W        W23297   3.668  34.062  13.972
50873W        W23298   7.777   9.874  12.508
50874W        W23299  31.404  10.701  12.877
50875W        W23300   4.087  44.801   1.847
50876W        W23301  29.133  20.658  12.900
50877W        W23302  40.538  31.338   1.755
50878W        W23303  11.417   9.699  12.386
50879W        W23304  29.558  40.560  10.180
50880W        W23305   2.263  30.856   2.795
50881W        W23306  35.127  33.899  14.573
50882W        W23307  15.087   7.085  11.020
50883W        W23308  29.900  36.866   3.651
50884W        W23309  20.222  14.582  13.841
50885W        W23310   8.720   8.172  12.981
50886W        W23311  11.103  17.436  12.539
50887W        W23312  41.584   4.216   4.854
50888W        W23313  10.484   8.748   9.840
50889W        W23314   1.276  37.337   2.806
50890W        W23315  29.193  24.452  14.973
50891W        W23316  17.973  25.663  13.469
50892W        W23317  36.133  41.522  13.840
50893W        W23318  43.257  41.938  14.017
50894W        W23319  36.183  28.810  14.461
50895W        W23320   4.940  26.788  12.941
50896W        W23321  23.661  17.109   3.667
50897W        W23322  43.791  43.786   1.446
50898W        W23323  40.821  16.084   2.259
50899W        W23324  36.451  27.914   3.199
50900W        W23325  20.290   7.928  13.186
50901W        W23326  23.720  15.092  13.889
50902W        W23327   2.189  15.588  12.524
50903W        W23328  26.086  15.640   2.434
50904W        W23329   2.092   1.899  10.339
50905W        W23330  29.243  36.778   2.781
50906W        W23331  11.792  12.702   1.265
50907W        W23332  29.757  32.337  10.891
50908W        W23333  21.079  12.507   2.232
50909W        W23334  22.198  13.880   3.847
50910W        W23335   2.357   9.793   3.656
50911W        W23336  37.797  20.828  14.792
50912W        W23337  11.901  19.429  13.045
50913W        W23338   1.167  26.695  14.841
50914W        W23339  13.893   6.717   4.302
50915W        W23340  24.524  33.572  11.079
50916W        W23341  35.363  31.009   1.526
50917W        W23342   6.972  20.645  11.657
50918W        W23343  10.209   0.795  12.540
50919W        W23344  42.323  19.718  11.186
50920W        W23345  32.571  41.569   4.101
50921W        W23346  31.179  23.685   3.722
50922W        W23347  25.385  14.927   5.039
50923W        W23348  42.465  35.699   0.921
50924W        W23349  12.405  42.872   0.281
50925W        W23350   0.408   0.499   3.698
50926W        W23351  23.124  37.042  11.995
50927W        W23352  37.181  28.159   3.744
50928W        W23353  41.020  30.404  13.027
50929W        W23354  41.715  44.111   9.657
50930W        W23355  22.707  28.317   4.108
50931W        W23356  38.500  20.074  12.193
50932W        W23357  32.460  39.620   1.647
50933W        W23358  31.554  38.656  13.872
50934W        W23359  22.487  37.118  13.983
50935W        W23360  17.863   9.978  10.997
50936W        W23361  32.321  12.137   4.764
50937W        W23362  17.581  41.050   4.082
50938W        W23363   0.857  32.588  14.245
50939W        W23364  36.394  18.691  11.195
50940W        W23365  43.623  14.342   4.196
50941W        W23366  27.537  11.574  13.542
50942W        W23367   6.159  16.294  14.341
50943W        W23368  39.604  11.381  12.137
50944W        W23369   9.837  29.938   1.178
50945W        W23370  36.519  34.449   2.899
50946W        W23371  42.121  27.660  11.253
50947W        W23372  37.016  43.999   2.808
50948W        W23373   5.480  22.658  14.487
50949W        W23374  27.510  29.991  14.069
50950W        W23375  38.336  25.924   2.316
50951W        W23376   3.293  17.683  10.709
50952W        W23377  14.199  20.992   4.141
50953W        W23378  25.233   1.266   3.131
50954W        W23379   9.324  32.982   1.785
50955W        W23380  34.037  12.038   1.347
50956W        W23381  11.781  31.204  12.408
50957W        W23382  25.168  16.777   2.740
50958W        W23383  10.693  39.342   2.868
50959W        W23384   0.359  38.836   3.910
50960W        W23385  42.227  16.603  11.912
50961W        W23386  44.751  40.371   0.214
50962W        W23387  21.480   8.137   9.730
50963W        W23388  38.632  18.083   4.977
50964W        W23389   8.713  15.676   3.994
50965W        W23390  10.664  41.736   2.934
50966W        W23391  21.740   1.051  13.114
50967W        W23392  17.252  20.272  14.364
50968W        W23393   0.718  32.423   0.458
50969W        W23394  38.461  22.172  13.638
50970W        W23395   8.612  21.971  11.602
50971W        W23396   8.235  36.890  14.530
50972W        W23397  33.118  31.099  10.427
50973W        W23398  15.831  36.393   0.478
50974W        W23399  44.794  44.273   3.308
50975W        W23400  33.853  30.187  13.019
50976W        W23401  28.999  16.261  10.728
50977W        W23402  14.972  20.344   0.397
50978W        W23403   1.740  11.382   1.844
50979W        W23404  31.763   8.277  14.316
50980W        W23405  30.683  25.983   4.246
50981W        W23406  28.193   7.329  12.889
50982W        W23407  16.260   7.087  11.186
50983W        W23408  42.705  16.757   0.237
50984W        W23409  19.784  44.603   0.722
50985W        W23410  24.684   7.931   1.772
50986W        W23411  44.754  40.031  12.157
50987W        W23412  26.535  22.683   0.476
50988W        W23413  34.062  11.693   2.317
50989W        W23414   0.353  38.581  12.961
50990W        W23415  31.391  31.181   2.281
50991W        W23416  20.167  35.312   3.301
50992W        W23417  32.077  35.015   2.291
50993W        W23418  43.869  26.565   0.037
50994W        W23419   4.750  18.192   4.320
50995W        W23420  31.654  43.531   1.755
50996W        W23421  33.150   2.243   1.025
50997W        W23422  41.139  10.796  11.535
50998W        W23423  35.453   3.790   3.412
50999W        W23424   3.658   8.710  13.033
51000W        W23425   2.426  41.894  10.686
51001W        W23426   1.491  25.313   0.788
51002W        W23427  31.454  38.563   0.519
51003W        W23428  30.510  30.557   3.353
51004W        W23429  27.648   8.839   1.530
51005W        W23430  38.987   4.978   4.141
51006W        W23431  30.544  33.387  14.813
51007W        W23432   4.711   4.548   1.816
51008W        W23433  33.243   9.238  12.897
51009W        W23434  35.019  26.689   3.681
51010W        W23435   7.533  32.256   3.281
51011W        W23436  36.016   4.522  12.603
51012W        W23437   6.428  16.322  11.565
51013W        W23438  43.805  21.523  11.531
51014W        W23439  24.766  12.353   0.060
51015W        W23440  36.863  37.314   4.431
51016W        W23441  15.999  42.261   2.892
51017W        W23442  32.977   7.333   3.633
51018W        W23443  22.792   4.021  12.583
51019W        W23444  32.982  16.581   2.427
51020W        W23445  32.545   5.726   1.993
51021W        W23446   1.440  15.021   3.949
51022W        W23447  24.001   8.447  13.567
51023W        W23448  17.781  13.714  14.852
51024W        W23449  36.003  38.195   3.807
51025W        W23450  36.951   1.678  14.989
51026W        W23451   7.946  44.504  14.416
51027W        W23452  11.080  18.805   0.764
51028W        W23453   3.859  13.861   4.029
51029W        W23454  21.534  19.326   4.828
51030W        W23455  22.735  23.559   3.839
51031W        W23456  29.685   1.762   3.190
51032W        W23457  34.476  10.885  10.897
51033W        W23458  15.572  39.969   3.853
51034W        W23459   0.758  37.026  13.399
51035W        W23460  24.555  22.165  10.988
51036W        W23461  14.290  31.065  10.843
51037W        W23462  33.628  38.024  13.605
51038W        W23463  13.938  13.578   0.061
51039W        W23464  22.966   7.390  10.234
51040W        W23465   3.694  23.006   4.029
51041W        W23466   4.966   4.852   3.317
51042W        W23467  44.401  32.192   2.740
51043W        W23468  10.776  19.522   3.187
51044W        W23469  12.335  29.395  14.801
51045W        W23470   1.385  18.291   1.378
51046W        W23471  28.986  20.308   0.187
51047W        W23472   3.829  10.112  10.771
51048W        W23473  36.801  33.907  11.899
51049W        W23474  40.931  42.792   3.123
51050W        W23475  12.658  11.070  14.011
51051W        W23476  30.475  36.029  13.407
51052W        W23477  39.838  30.458   0.008
51053W        W23478   9.791  12.368   0.437
51054W        W23479  16.810  39.923  12.979
51055W        W23480  33.354  20.102   0.951
51056W        W23481  22.836  32.894   4.023
51057W        W23482  13.596  28.526  12.555
51058W        W23483  11.310  18.684   2.322
51059W        W23484  27.039  35.503  11.143
51060W        W23485  17.597   4.945  13.518
51061W        W23486   6.280  38.637   1.761
51062W        W23487  37.291  30.896   4.834
51063W        W23488  37.422  36.361  10.656
51064W        W23489   7.580  44.390  10.619
51065W        W23490  21.844  44.867   1.482
51066W        W23491  14.664  34.959  10.652
51067W        W23492  33.417  37.420  12.454
51068W        W23493  28.917  12.542  13.679
51069W        W23494  40.932  21.847   1.531
51070W        W23495   9.308  24.250   3.839
51071W        W23496   0.971  43.827  13.255
51072W        W23497  19.701  15.829  12.141
51073W        W23498  26.744  35.965  13.737
51074W        W23499  20.631  38.211  10.718
51075W        W23500  32.179  19.417   5.425
51076W        W23501  34.012  38.313  13.342
51077W        W23502   2.490  40.350  14.065
51078W        W23503  36.667   1.599   4.165
51079W        W23504  18.871  21.818  13.423
51080W        W23505  36.987  26.173  13.358
51081W        W23506  13.803   2.964  12.892
51082W        W23507   3.937  11.046   2.166
51083W        W23508  20.023  41.822  14.949
51084W        W23509  12.615  27.493   1.692
51085W        W23510  30.640  30.416  13.427
51086W        W23511  32.564  28.191   0.375
51087W        W23512  26.767   9.553  10.738
51088W        W23513  27.696  28.683   4.717
51089W        W23514  40.175   1.467   1.558
51090W        W23515  11.698  42.505   4.733
51091W        W23516   3.766   2.315  11.547
51092W        W23517  19.269  11.618   3.676
51093W        W23518  29.424  18.028   3.771
51094W        W23519  15.816  42.676   1.373
51095W        W23520  15.222   3.167  13.969
51096W        W23521  28.740   2.084  11.996
51097W        W23522  23.280  11.821   1.739
51098W        W23523  30.461  29.169   0.785
51099W        W23524  13.206  44.840  11.681
51100W        W23525  28.489   7.724   2.347
51101W        W23526  15.606   3.925   4.440
51102W        W23527   4.812  36.010   4.429
51103W        W23528  17.661  43.321   4.643
51104W        W23529  13.655  14.275  11.170
51105W        W23530   8.857  29.848  11.371
51106W        W23531  28.213  33.873  10.139
51107W        W23532   8.662  21.434  12.582
51108W        W23533   0.563  30.512  11.997
51109W        W23534  26.039   1.283   0.518
51110W        W23535  11.255   1.837   4.319
51111W        W23536  15.267  42.905   1.317
51112W        W23537  30.004  27.046  14.471
51113W        W23538   9.966  33.609  14.952
51114W        W23539   9.477   9.777  10.016
51115W        W23540   8.640   9.229  12.112
51116W        W23541  30.912  44.914  14.854
51117W        W23542  32.620   6.755   0.845
51118W        W23543  10.256  36.769  13.885
51119W        W23544  40.951  23.042   0.882
51120W        W23545  22.931   1.327  13.287
51121W        W23546  41.816  16.328  14.864
51122W        W23547   3.228  43.035  11.859
51123W        W23548  12.445  29.827   4.138
51124W        W23549  25.551  12.105   1.256
51125W        W23550  39.775  15.241   3.749
51126W        W23551   5.975  28.462   3.045
51127W        W23552   8.063  36.327  10.708
51128W        W23553   2.373  26.478  11.976
51129W        W23554  37.162  19.741   4.527
51130W        W23555  37.005  44.727  12.986
51131W        W23556   0.223   1.514  13.906
51132W        W23557  13.213  19.653  14.284
51133W        W23558  22.055  16.893   4.487
51134W        W23559  17.301   1.472  10.735
51135W        W23560  33.025   0.160   2.368
51136W        W23561  42.030  43.926  11.415
51137W        W23562  37.926   0.823   0.130
51138W        W23563  24.739  22.186   3.786
51139W        W23564   3.789   6.678   3.857
51140W        W23565  19.023  30.283  11.139
51141W        W23566  33.569   2.800   4.370
51142W        W23567  15.682  40.079   4.832
51143W        W23568  37.516  31.297  13.975
51144W        W23569   4.650  38.894  12.025
51145W        W23570   4.467   1.798  11.069
51146W        W23571  41.029  24.019  14.302
51147W        W23572  12.688  12.806   3.310
51148W        W23573  26.586  39.875   4.717
51149W        W23574  31.107  32.958   2.626
51150W        W23575  32.423  10.945  14.749
51151W        W23576  26.026  19.364  12.727
51152W        W23577  35.961  30.205   0.978
51153W        W23578  23.872   0.342  13.773
51154W        W23579  26.924  21.701  10.853
51155W        W23580  31.441  15.325  13.276
51156W        W23581   8.802   2.248   2.878
51157W        W23582  13.590  35.376   0.894
51158W        W23583   2.268  26.719  11.483
51159W        W23584  44.373   2.324   3.256
51160W        W23585  20.807   4.926   1.749
51161W        W23586  12.085  29.943  12.753
51162W        W23587  11.216  23.091   0.028
51163W        W23588  19.741   1.981  13.839
51164W        W23589  16.496  19.577   1.183
51165W        W23590  37.129  22.243  11.146
51166W        W23591   5.842  13.827   2.225
51167W        W23592  23.198  41.940  10.817
51168W        W23593   4.685  20.749  14.851
51169W        W23594  11.277   8.891   0.696
51170W        W23595   3.377  37.708   5.015
51171W        W23596  15.238  26.312  12.127
51172W        W23597  26.734  27.920  14.878
51173W        W23598  36.513   7.846   1.883
51174W        W23599  41.087   6.327   4.216
51175W        W23600   4.364  28.369   0.928
51176W        W23601  11.385  19.767   1.633
51177W        W23602  12.776  30.892  10.270
51178W        W23603  18.720  28.723   1.792
51179W        W23604  41.227  38.742   1.934
51180W        W23605  38.572  29.518  10.475
51181W        W23606  40.081  36.833  10.653
51182W        W23607  26.926  17.219   4.113
51183W        W23608   9.880  14.386   2.840
51184W        W23609  43.777  20.494   0.960
51185W        W23610  35.158  24.704  14.215
51186W        W23611  15.221  29.844  11.665
51187W        W23612  28.386  31.598  11.145
51188W        W23613  19.544  34.062   0.971
51189W        W23614  35.408  36.458  11.629
51190W        W23615  44.900  20.774  14.486
51191W        W23616   5.408  10.303  10.656
51192W        W23617   4.826   6.633  12.857
51193W        W23618   2.352  33.843  13.915
51194W        W23619  12.982  42.036  10.657
51195W        W23620  14.242   2.386  10.425
51196W        W23621  44.194   1.402  13.821
51197W        W23622  27.199   8.465  13.439
51198W        W23623  27.037  43.047   2.344
51199W        W23624  23.186  23.166  10.624
51200W        W23625  11.960  15.296   4.450
51201W        W23626  31.168  33.897   1.907
51202W        W23627   2.713   6.426  11.085
51203W        W23628  36.815   7.301  14.360
51204W        W23629  22.240  11.633   1.724
51205W        W23630   1.409  26.485  13.781
51206W        W23631   1.797  16.734  13.822
51207W        W23632  25.696  33.615   1.783
51208W        W23633  24.776  43.568   2.964
51209W        W23634  38.353  21.766   4.839
51210W        W23635   2.242   6.786   0.920
51211W        W23636  19.427   1.847  13.441
51212W        W23637  12.434  33.657  12.463
51213W        W23638  16.867   3.109   0.745
51214W        W23639   9.665   4.210   0.202
51215W        W23640  38.560  13.781  10.782
51216W        W23641  19.020  35.632   1.394
51217W        W23642  20.516  41.670   0.737
51218W        W23643   5.243  37.595   1.744
51219W        W23644  11.405   9.620   1.859
51220W        W23645  37.992   5.505   2.655
51221W        W23646  39.833  32.371   4.264
51222W        W23647   6.168   1.650  13.043
51223W        W23648  17.506  21.504  11.811
51224W        W23649  25.238  32.632  12.010
51225W        W23650   0.968  37.927  12.407
51226W        W23651  40.665  18.578   4.982
51227W        W23652   9.089  10.900  13.697
51228W        W23653   4.164  31.383  14.705
51229W        W23654  22.626   8.113  13.813
51230W        W23655  44.534  27.381  11.497
51231W        W23656   4.157  44.748   4.120
51232W        W23657  25.246  27.078  13.516
51233W        W23658  12.814  32.382  13.413
51234W        W23659  34.390  37.377   1.964
51235W        W23660  43.822  22.924   4.491
51236W        W23661  35.490   9.884  12.466
51237W        W23662  39.580  40.450  10.710
51238W        W23663  33.037  21.761   1.407
51239W        W23664  34.512  23.800  11.582
51240W        W23665  36.116  17.703  11.101
51241W        W23666  41.655  44.196   4.271
51242W        W23667  44.316  12.363  11.491
51243W        W23668  27.791  21.510   2.233
51244W        W23669  25.056  44.635  13.718
51245W        W23670  13.954  24.672  12.071
51246W        W23671  34.470   1.884   2.075
51247W        W23672  27.149   5.127  12.105
51248W        W23673  40.514  28.491  13.143
51249W        W23674  30.119  44.551   4.634
51250W        W23675  17.210  33.875   2.834
51251W        W23676  34.525   9.006   4.712
51252W        W23677  25.113  32.144  11.917
51253W        W23678  31.047  14.057   3.186
51254W        W23679  18.943   0.484   4.105
51255W        W23680  29.875   5.646   0.255
51256W        W23681  27.872   7.993  14.322
51257W        W23682  43.755   9.262   3.164
51258W        W23683   9.454   0.323  13.872
51259W        W23684   9.748   9.738   2.287
51260W        W23685  43.827   6.038  10.388
51261W        W23686  19.217  42.178   3.647
51262W        W23687  15.353  29.358  12.825
51263W        W23688  29.668  36.373   1.128
51264W        W23689  20.795  26.447   2.472
51265W        W23690  43.317  22.547   0.335
51266W        W23691  42.223  34.038   3.738
51267W        W23692  33.519  19.376   5.025
51268W        W23693  28.907   2.192  13.529
51269W        W23694  22.697   0.834  14.185
51270W        W23695  33.989   3.160  12.100
51271W        W23696  33.373  17.873   1.454
51272W        W23697   2.656   0.318   3.111
51273W        W23698  28.970  18.402  13.394
51274W        W23699  11.399  32.174  14.752
51275W        W23700   8.175  41.929   0.384
51276W        W23701   7.135  14.735   0.409
51277W        W23702  14.887  28.871   1.751
51278W        W23703  39.742  44.414  14.452
51279W        W23704  24.674  32.671  12.918
51280W        W23705   0.962  34.966  11.661
51281W        W23706  27.192  11.326  12.268
51282W        W23707  35.022  14.530  13.970
51283W        W23708  36.911  16.539   2.397
51284W        W23709  38.475  18.219  14.523
51285W        W23710   2.404   3.322   9.989
51286W        W23711   1.643   6.923   2.758
51287W        W23712  23.887  36.580  13.543
51288W        W23713  29.583  11.382  12.159
51289W        W23714  21.144   3.987  13.994
51290W        W23715  43.506  32.403   3.638
51291W        W23716  23.032  26.028   1.210
51292W        W23717  32.851  15.754   0.851
51293W        W23718  10.373  31.069  11.159
51294W        W23719  11.280   0.144  12.046
51295W        W23720  24.616  37.911   3.511
51296W        W23721  18.716  13.960   1.741
51297W        W23722  27.965   8.677   0.651
51298W        W23723  44.502  23.670   4.096
51299W        W23724  40.537  35.900  11.914
51300W        W23725  37.601   3.709   3.678
51301W        W23726  26.882  33.102   4.215
51302W        W23727  12.134  35.513  12.305
51303W        W23728  36.646  32.926  11.011
51304W        W23729   0.800  20.491  13.937
51305W        W23730  19.136   3.191   2.578
51306W        W23731  21.523  40.330   3.295
51307W        W23732  35.131   4.928  14.001
51308W        W23733  41.511   2.782  13.902
51309W        W23734  26.101  43.439  11.219
51310W        W23735  44.450  30.982  14.491
51311W        W23736  18.795  36.085  12.090
51312W        W23737  34.728  31.194   2.364
51313W        W23738  22.705  32.430   3.323
51314W        W23739   3.499   3.468   4.301
51315W        W23740   3.762  18.686  12.627
51316W        W23741  13.052  38.506  14.334
51317W        W23742  18.275  32.470   0.876
51318W        W23743  31.637  17.639   1.201
51319W        W23744  20.679  44.692   3.910
51320W        W23745   6.003  44.695  11.995
51321W        W23746   0.921   7.242   4.676
51322W        W23747  18.137  19.791   2.009
51323W        W23748  26.499  28.973  14.200
51324W        W23749   2.879  40.884  11.524
51325W        W23750  10.782  20.282  11.033
51326W        W23751  16.767  17.616  12.863
51327W        W23752   1.398   6.675  14.417
51328W        W23753  29.015  33.140  11.021
51329W        W23754   9.112   1.497  14.811
51330W        W23755  24.240  13.738   1.370
51331W        W23756  32.645  39.084   2.983
51332W        W23757  22.615  38.117  13.791
51333W        W23758  10.197  28.382   4.525
51334W        W23759   8.779  17.713   2.148
51335W        W23760  43.845  27.408   2.887
51336W        W23761  10.162  31.565  11.642
51337W        W23762  41.489  36.004  11.100
51338W        W23763  29.627  37.278   0.288
51339W        W23764  43.247  35.074  13.048
51340W        W23765   2.949  11.241  11.180
51341W        W23766   6.940  29.424   1.204
51342W        W23767  37.691  23.523  14.524
51343W        W23768  20.411  19.174  14.302
51344W        W23769   2.168  31.543   1.759
51345W        W23770  23.635  25.204  14.957
51346W        W23771   3.378   5.798  13.904
51347W        W23772  24.230   7.404  11.593
51348W        W23773  39.102  17.975   3.662
51349W        W23774  26.366  13.640   2.135
51350W        W23775  23.062  41.873  13.560
51351W        W23776   0.577  26.275   0.519
51352W        W23777  20.306   2.273   3.196
51353W        W23778  41.282  42.389   0.409
51354W        W23779   5.485  43.905  14.368
51355W        W23780  34.432   6.065   3.947
51356W        W23781  11.809  34.688  13.943
51357W        W23782  14.139  17.673   4.927
51358W        W23783  19.651  30.719   1.796
51359W        W23784  36.931  18.502   4.053
51360W        W23785   6.631  22.378   0.330
51361W        W23786  28.682  21.135   1.634
51362W        W23787  10.280  39.321   3.196
51363W        W23788  13.388  20.086   3.821
51364W        W23789  44.495  10.162   0.728
51365W        W23790   3.218  16.198   2.739
51366W        W23791   0.454  22.453  12.415
51367W        W23792  30.991   0.005  12.976
51368W        W23793  10.281  16.624  14.993
51369W        W23794  35.378  16.767  10.675
51370W        W23795   1.987   1.524  12.006
51371W        W23796   5.007   9.093   2.368
51372W        W23797   4.998  11.132   2.931
51373W        W23798   8.981  19.186  11.431
51374W        W23799  17.175  41.289  14.810
51375W        W23800  31.400  14.151  14.328
51376W        W23801  31.854   4.412  14.899
51377W        W23802  13.813  14.858  12.042
51378W        W23803  23.498   2.710  13.584
51379W        W23804   4.402  20.838  11.593
51380W        W23805  18.832  10.370  10.133
51381W        W23806  18.756  29.611  14.865
51382W        W23807  21.577  42.024  11.915
51383W        W23808  20.604  42.673   0.867
51384W        W23809   3.428  22.553   4.125
51385W        W23810   9.543   2.712   3.111
51386W        W23811  17.311  33.080  13.306
51387W        W23812  36.855  43.000   4.575
51388W        W23813  21.476  33.124  13.884
51389W        W23814   9.124   0.347  11.469
51390W        W23815  18.735  26.944   1.691
51391W        W23816  44.867   2.860   0.322
51392W        W23817  12.088  15.538  11.057
51393W        W23818  31.566  35.124  12.061
51394W        W23819   8.708  35.273   4.049
51395W        W23820   4.319   8.230   3.084
51396W        W23821   5.228   5.882  13.378
51397W        W23822  22.734  17.661  14.372
51398W        W23823  42.336  16.995   3.268
51399W        W23824  39.118  17.125   3.529
51400W        W23825  23.199  20.811  13.821
51401W        W23826  39.765  44.248   2.805
51402W        W23827   1.556  30.967   0.852
51403W        W23828  26.199   5.923   4.187
51404W        W23829  42.540  15.526  13.700
51405W        W23830  33.948  18.638  14.832
51406W        W23831  10.771  28.639   3.784
51407W        W23832  18.257  24.319  14.402
51408W        W23833   1.923  41.852  14.498
51409W        W23834   7.755  19.643  14.078
51410W        W23835   2.387  32.224   2.181
51411W        W23836  28.475   0.421   3.771
51412W        W23837  26.704  11.298   0.847
51413W        W23838  15.275  12.134   0.443
51414W        W23839  41.301   2.085   0.773
51415W        W23840  35.569  30.390   4.197
51416W        W23841  25.902  36.819   0.685
51417W        W23842   3.350  31.118   3.590
51418W        W23843  26.374  40.951  14.836
51419W        W23844  28.108   6.940   2.119
51420W        W23845  37.638  30.491   3.640
51421W        W23846   4.713  27.251  14.844
51422W        W23847  41.936   6.223   4.750
51423W        W23848  19.367  21.509   3.128
51424W        W23849  37.811   5.373  12.850
51425W        W23850  17.483  28.723   2.311
51426W        W23851   9.128   7.323   0.323
51427W        W23852  16.329  12.643  12.871
51428W        W23853   7.676  10.939   3.772
51429W        W23854  11.170  10.229   4.140
51430W        W23855  22.639  32.117  11.001
51431W        W23856  41.397   0.770   0.469
51432W        W23857  44.254  11.985   1.581
51433W        W23858  40.574  32.939   2.772
51434W        W23859  19.128  38.596   1.207
51435W        W23860  17.154  32.150  14.736
51436W        W23861  38.803  25.049  11.622
51437W        W23862   3.158   0.080  13.823
51438W        W23863  35.166  33.393   0.720
51439W        W23864  18.158  10.620   1.614
51440W        W23865  13.490  16.145  14.863
51441W        W23866  22.020  22.920  13.306
51442W        W23867   1.902   8.406  13.082
51443W        W23868  44.040   0.531   3.300
51444W        W23869  38.512  26.025  14.132
51445W        W23870   9.848  17.520  12.114
51446W        W23871  20.710  41.433   4.960
51447W        W23872  43.266  27.066   3.281
51448W        W23873  16.045  31.075   2.104
51449W        W23874   1.113  16.567  12.967
51450W        W23875   5.417  12.731  13.475
51451W        W23876  36.544   5.964  12.871
51452W        W23877  17.592  24.183  13.940
51453W        W23878  17.865   1.981   4.939
51454W        W23879   9.268   0.474   0.787
51455W        W23880  37.740  37.921   0.017
51456W        W23881  44.753  18.342  13.367
51457W        W23882  34.669  42.775  11.661
51458W        W23883  28.844  40.364   0.808
51459W        W23884  35.947  29.008  13.391
51460W        W23885  11.053  27.542  12.840
51461W        W23886  40.223  24.257   1.585
51462W        W23887  14.882  34.644  11.018
51463W        W23888  44.793   7.799   2.157
51464W        W23889   5.206   2.043  14.394
51465W        W23890  36.069  43.014   1.648
51466W        W23891  40.840  18.959   2.506
51467W        W23892  42.799  41.483  14.871
51468W        W23893  32.835   8.693   4.658
51469W        W23894  15.276   6.806  12.847
51470W        W23895  26.554  38.954   3.702
51471W        W23896  15.933  20.384  14.026
51472W        W23897  28.753  36.445  12.498
51473W        W23898  27.903  20.525  11.162
51474W        W23899  43.290   6.358   2.284
51475W        W23900  26.170   1.354   3.801
51476W        W23901  38.869   6.165  11.974
51477W        W23902   8.427  30.623  10.719
51478W        W23903  16.397  29.924  12.258
51479W        W23904  42.266  23.734  13.399
51480W        W23905  35.231  30.468   3.799
51481W        W23906  28.627  25.515   4.826
51482W        W23907   3.812   1.747   1.664
51483W        W23908   0.269  38.008   1.708
51484W        W23909  28.119   2.082  12.938
51485W        W23910   4.439  26.953  12.060
51486W        W23911   2.685   2.691  14.821
51487W        W23912  17.725  11.183  13.859
51488W        W23913  15.610  22.034   2.281
51489W        W23914  18.758  19.789   3.248
51490W        W23915  38.035  39.336   0.005
51491W        W23916  27.088  14.208   0.060
51492W        W23917  24.035   3.695   0.132
51493W        W23918   4.981  26.680   3.696
51494W        W23919  29.868  26.552  12.024
51495W        W23920   7.354  25.141   2.633
51496W        W23921  39.453  32.546  14.718
51497W        W23922  12.852  40.390   3.529
51498W        W23923  33.592  43.371  11.939
51499W        W23924   6.201  27.646   4.346
51500W        W23925  41.187  34.852  11.079
51501W        W23926  17.557  31.899   0.802
51502W        W23927  40.936   0.252   1.165
51503W        W23928  37.739  19.798  13.784
51504W        W23929  34.061   1.091   0.409
51505W        W23930  23.921  35.167   2.680
51506W        W23931  16.318  40.479  12.360
51507W        W23932  28.117  28.690   3.754
51508W        W23933   5.920  11.679  12.272
51509W        W23934  12.183  12.778   2.545
51510W        W23935   3.418  33.096   1.070
51511W        W23936   5.938   7.768   3.158
51512W        W23937  14.742   0.072  14.886
51513W        W23938  33.394  24.443  10.711
51514W        W23939  14.923  14.071   3.167
51515W        W23940  11.490   0.798   2.960
51516W        W23941  10.352   5.650   3.709
51517W        W23942   8.132  26.089   4.259
51518W        W23943  39.452  31.664   4.330
51519W        W23944   2.196  11.753  13.827
51520W        W23945  32.194  40.013   4.545
51521W        W23946  18.645  10.287  10.607
51522W        W23947   3.706   5.808  10.526
51523W        W23948  29.424  31.973  13.125
51524W        W23949  32.522  33.821  10.446
51525W        W23950  26.198   2.764  13.353
51526W        W23951   4.536   2.868   1.323
51527W        W23952  28.545  33.231   4.641
51528W        W23953  30.982   9.620   0.461
51529W        W23954  34.147   1.315  10.646
51530W        W23955  33.064  11.107  13.438
51531W        W23956   2.690  42.880  13.533
51532W        W23957  25.994  14.354   2.820
51533W        W23958  12.902  10.106  14.010
51534W        W23959  33.835  16.957   4.297
51535W        W23960  26.622  24.790  13.118
51536W        W23961   2.813  12.283  12.619
51537W        W23962  17.755  41.369   0.191
51538W        W23963  37.268  20.881  11.560
51539W        W23964   7.335  40.922  13.489
51540W        W23965  13.839  31.626   2.509
51541W        W23966   5.140  10.831  14.971
51542W        W23967   9.694  19.625   3.893
51543W        W23968  20.289  36.722   4.201
51544W        W23969   1.889  19.710  10.516
51545W        W23970  19.138   4.163   0.683
51546W        W23971  15.681   8.097  10.540
51547W        W23972  35.608  12.858  10.712
51548W        W23973  39.309   4.882  11.170
51549W        W23974   1.918  15.194   2.758
51550W        W23975   0.244   3.765  11.217
51551W        W23976  19.374  40.021  14.773
51552W        W23977   0.945  39.362   2.211
51553W        W23978  25.283  37.378   3.285
51554W        W23979  30.503   6.020  11.149
51555W        W23980  30.747   8.813  12.163
51556W        W23981  27.536   3.848  12.706
51557W        W23982  44.538  36.871  12.492
51558W        W23983   6.377   4.586  10.726
51559W        W23984  32.295  12.743   1.123
51560W        W23985  21.797  33.511   4.612
51561W        W23986  13.566  21.073   1.307
51562W        W23987  23.688  28.433  14.614
51563W        W23988  34.089   8.111  14.391
51564W        W23989  25.709   7.258  14.302
51565W        W23990  43.541  12.249  11.145
51566W        W23991  20.805  31.565   4.461
51567W        W23992  32.604  38.895  11.690
51568W        W23993   9.663   5.833   2.712
51569W        W23994  35.155  26.903  12.723
51570W        W23995   7.404   4.261  14.551
51571W        W23996  44.316  15.697  11.017
51572W        W23997  43.930  28.167   1.211
51573W        W23998  21.852  31.631   2.495
51574W        W23999  43.043  23.905   2.302
51575W        W24000  32.942  35.996   0.245
51576W        W24001   1.175  21.485   3.764
51577W        W24002  30.577  23.562  12.642
51578W        W24003  22.220  13.664   0.008
51579W        W24004  42.113  19.697  13.981
51580W        W24005  12.170  38.426   4.143
51581W        W24006   1.255  11.119   1.801
51582W        W24007  20.378  11.455   9.696
51583W        W24008   0.927  35.899   4.249
51584W        W24009  35.345  34.187   2.834
51585W        W24010  37.472  29.028  11.470
51586W        W24011  32.598  25.704   2.716
51587W        W24012  40.547  23.786   1.731
51588W        W24013  25.871  35.561  10.619
51589W        W24014  11.580  32.957   0.274
51590W        W24015  21.648   1.775   0.859
51591W        W24016  26.231  28.171  10.543
51592W        W24017  39.065   1.905  14.760
51593W        W24018  17.132  11.837   1.995
51594W        W24019  42.919  35.683   2.818
51595W        W24020  42.222  29.522  12.949
51596W        W24021  14.240   3.938   0.938
51597W        W24022  26.841   5.303   3.557
51598W        W24023   0.421  27.427   1.855
51599W        W24024  35.268   6.429  10.458
51600W        W24025  13.681   0.286  13.428
51601W        W24026   5.169   1.304   4.456
51602W        W24027  28.529  19.352   4.089
51603W        W24028  26.194  36.401   4.588
51604W        W24029  20.218  35.946  12.204
51605W        W24030  35.886  41.991  14.851
51606W        W24031  31.437  19.483  13.595
51607W        W24032  10.852  16.628   2.708
51608W        W24033  37.404  31.867  12.518
51609W        W24034   2.879  33.812   1.632
51610W        W24035  43.642  43.218  12.648
51611W        W24036   5.718  36.613   0.324
51612W        W24037  18.222  40.271  10.955
51613W        W24038  39.330  14.827   2.338
51614W        W24039   7.872  32.102  12.614
51615W        W24040  42.316  42.457   0.388
51616W        W24041  34.430  19.718  12.049
51617W        W24042  20.153  15.921  12.407
51618W        W24043  40.437  44.200  10.588
51619W        W24044   2.225  32.333  12.218
51620W        W24045  38.114   2.045   2.744
51621W        W24046  37.592  40.118   3.206
51622W        W24047  42.882  20.149  10.676
51623W        W24048  18.944  13.767  12.152
51624W        W24049   8.919  42.646   3.653
51625W        W24050   9.803   2.690   4.883
51626W        W24051   8.318  13.323  10.498
51627W        W24052  39.052   8.729   2.910
51628W        W24053   9.367  28.573  13.537
51629W        W24054  24.770  42.073  13.616
51630W        W24055  36.887  27.251  11.930
51631W        W24056  33.067   9.123   4.461
51632W        W24057  16.292   6.479   2.109
51633W        W24058  10.789  26.195   1.707
51634W        W24059  38.404   7.266   1.021
51635W        W24060  16.837   4.976   0.629
51636W        W24061  23.330  42.272  13.756
51637W        W24062  15.751  27.988   1.222
51638W        W24063  16.154  22.967  12.412
51639W        W24064   5.661   4.955  13.648
51640W        W24065  18.659   5.332   3.166
51641W        W24066   0.707   1.936  13.297
51642W        W24067  36.102  12.814   1.865
51643W        W24068  42.570  42.171   1.563
51644W        W24069  43.246  37.347  10.613
51645W        W24070   4.358  40.868  14.838
51646W        W24071   2.230  29.469  14.942
51647W        W24072   3.683  19.653   3.815
51648W        W24073  19.732   1.713  11.556
51649W        W24074  37.945  44.029   0.937
51650W        W24075   1.183  41.626  10.674
51651W        W24076   4.643  40.309  14.271
51652W        W24077   5.975  44.547  12.494
51653W        W24078   9.831  32.337   4.663
51654W        W24079  28.604  33.651   9.798
51655W        W24080   9.684  23.633  12.450
51656W        W24081  25.945  40.107  11.123
51657W        W24082  30.468  17.743  10.469
51658W        W24083   2.524  21.063   0.030
51659W        W24084  24.567   3.595  12.651
51660W        W24085  44.794   8.461  12.048
51661W        W24086  29.543  26.145  11.552
51662W        W24087  39.311  27.502   4.088
51663W        W24088  29.057  24.064   4.839
51664W        W24089  39.251  29.974   3.410
51665W        W24090  41.679  33.458  10.011
51666W        W24091  26.020  42.062   2.249
51667W        W24092   3.020  23.134  10.528
51668W        W24093  30.284  13.611  13.022
51669W        W24094  37.069  12.401   1.190
51670W        W24095  35.390  34.555  11.716
51671W        W24096   9.352  43.903  12.710
51672W        W24097  23.983  24.655  13.020
51673W        W24098   5.240  21.126  11.745
51674W        W24099  38.201   7.728  11.296
51675W        W24100   0.713  29.247   4.133
51676W        W24101   2.411  12.262   4.905
51677W        W24102  35.852  11.243   2.250
51678W        W24103  37.356  17.512  14.887
51679W        W24104  10.885   6.135   9.812
51680W        W24105  29.701  31.104  12.659
51681W        W24106   9.618  23.806   0.176
51682W        W24107  37.626  40.746  13.081
51683W        W24108  37.293  27.488  14.312
51684W        W24109  19.586  44.572  12.933
51685W        W24110  32.495  37.736  14.034
51686W        W24111  33.151  43.954   4.138
51687W        W24112  33.322  41.773  14.592
51688W        W24113   7.665  14.719   0.284
51689W        W24114   4.001   4.033   1.846
51690W        W24115  28.904  35.084  10.811
51691W        W24116  28.698  34.236  14.693
51692W        W24117  13.255   6.443  14.281
51693W        W24118   9.762  10.183  13.875
51694W        W24119   6.281  33.317  12.965
51695W        W24120  42.551   8.123   4.571
51696W        W24121  41.955   0.137  12.438
51697W        W24122  27.406  30.398   0.318
51698W        W24123  11.673   0.914  13.456
51699W        W24124   2.686  11.282  12.516
51700W        W24125  15.255  13.630  10.745
51701W        W24126  35.348   5.454  13.329
51702W        W24127  19.609  24.174  12.852
51703W        W24128  20.233  34.337   4.654
51704W        W24129  43.483  12.295   1.901
51705W        W24130  30.931  31.449  10.998
51706W        W24131  25.827  40.737  12.600
51707W        W24132  20.747  41.444  14.379
51708W        W24133   1.789  18.580  11.656
51709W        W24134  27.513   0.993  13.977
51710W        W24135  11.662   9.130   1.019
51711W        W24136  25.884   8.109  14.868
51712W        W24137  11.213   5.904  11.840
51713W        W24138  41.982  35.901   3.634
51714W        W24139   8.906  43.987  12.005
51715W        W24140  20.687   2.053   1.270
51716W        W24141  21.463  21.040  14.037
51717W        W24142  25.434  25.669  11.557
51718W        W24143  33.633  23.210  13.381
51719W        W24144  12.326  39.121   3.540
51720W        W24145  30.427  37.898   0.426
51721W        W24146  32.123  21.078   3.176
51722W        W24147  16.444  32.402   0.235
51723W        W24148   9.402  20.350  10.598
51724W        W24149  41.006  18.225  11.976
51725W        W24150  32.029   1.435  14.981
51726W        W24151  12.576  43.952  10.652
51727W        W24152  29.094  43.548  11.857
51728W        W24153  36.994  28.497   4.572
51729W        W24154  34.932   0.773  12.788
51730W        W24155  12.677  17.158  12.564
51731W        W24156  44.815  13.996   4.962
51732W        W24157  18.775  19.741  11.532
51733W        W24158  37.091  26.867   2.793
51734W        W24159  25.312  39.486   4.082
51735W        W24160  43.378  22.207   4.667
51736W        W24161  44.686   7.903  10.647
51737W        W24162  44.321  38.768   2.847
51738W        W24163  44.684  29.008   3.331
51739W        W24164  17.346  21.988   1.983
51740W        W24165   1.974   8.684   1.218
51741W        W24166  40.892  21.603   0.745
51742W        W24167  31.684  13.262   2.780
51743W        W24168   2.772   3.401  12.286
51744W        W24169   2.570  32.892   0.262
51745W        W24170  29.086  12.143   2.463
51746W        W24171   4.463  22.624   2.115
51747W        W24172  42.507  12.336   3.313
51748W        W24173  40.536  17.850  14.966
51749W        W24174  20.803   2.248   3.045
51750W        W24175   5.448   0.939   0.185
51751W        W24176  15.241  23.752  12.495
51752W        W24177  13.636  28.047  12.379
51753W        W24178  27.028  32.623   4.115
51754W        W24179  23.620  42.942  10.641
51755W        W24180  21.625  40.390   1.292
51756W        W24181  14.597  43.376  11.918
51757W        W24182  31.855  12.612  11.015
51758W        W24183   8.885  32.655   1.824
51759W        W24184  32.326  13.771  12.495
51760W        W24185  38.980  41.436   0.049
51761W        W24186  23.863  24.605  10.321
51762W        W24187  23.782  18.147  13.049
51763W        W24188  38.055  24.234  14.846
51764W        W24189   5.447   9.399   4.603
51765W        W24190   3.941   7.332   1.671
51766W        W24191  42.136  12.258  10.935
51767W        W24192  24.666   1.854  10.750
51768W        W24193  30.112   8.705   1.696
51769W        W24194  18.673   6.704  14.069
51770W        W24195  16.675   4.954  14.783
51771W        W24196  37.101  31.638   1.396
51772W        W24197   5.474   3.373  12.996
51773W        W24198   6.495  43.290  13.743
51774W        W24199  39.733  24.054  14.989
51775W        W24200   2.826  15.591   2.895
51776W        W24201  29.500   8.757   4.477
51777W        W24202  38.470   0.650  13.926
51778W        W24203  14.432  22.483   4.962
51779W        W24204   2.384  25.662  11.345
51780W        W24205  22.657  18.653  12.539
51781W        W24206  12.876  42.070  14.399
51782W        W24207  24.007  23.435  13.223
51783W        W24208  21.060   2.103  11.144
51784W        W24209  43.050  40.033   3.210
51785W        W24210   5.725  24.665   2.627
51786W        W24211  32.531  27.370  12.078
51787W        W24212  29.493  23.904   0.410
51788W        W24213  42.081  29.913  13.810
51789W        W24214  23.542  36.452   4.198
51790W        W24215   5.384  20.560  14.815
51791W        W24216   6.753   2.035  12.509
51792W        W24217  15.600  32.063  11.375
51793W        W24218  29.527   7.276  11.884
51794W        W24219   4.708  32.866   0.243
51795W        W24220  29.071  22.080   2.944
51796W        W24221  18.610   0.590   3.068
51797W        W24222   0.822  43.445  11.960
51798W        W24223  27.585  41.767  11.510
51799W        W24224   1.399  27.869  10.627
51800W        W24225  10.449  38.953  12.414
51801W        W24226  39.502  18.823   4.466
51802W        W24227   4.292   4.470  14.980
51803W        W24228   9.053  39.986  10.692
51804W        W24229  36.665   3.967  11.517
51805W        W24230  13.284  16.152  13.584
51806W        W24231  37.051  36.600  14.501
51807W        W24232  18.782  34.580  13.545
51808W        W24233  22.118  41.221  14.065
51809W        W24234  38.661   2.222   0.915
51810W        W24235   4.633  29.480  11.673
51811W        W24236  24.194   1.094   2.325
51812W        W24237  43.401  37.005   0.887
51813W        W24238  23.695   4.869   2.261
51814W        W24239  21.567  34.498   2.767
51815W        W24240  17.314  23.581   2.803
51816W        W24241   0.245   7.060  11.137
51817W        W24242  39.941  20.225   1.926
51818W        W24243  27.862  31.527  11.137
51819W        W24244  35.931  41.086   4.906
51820W        W24245  31.488   7.829  11.672
51821W        W24246  21.065   5.479  12.943
51822W        W24247  17.299  36.259   4.096
51823W        W24248  23.210  18.854  14.836
51824W        W24249  12.366  25.139   3.361
51825W        W24250  32.323   3.313   2.891
51826W        W24251  43.982   6.923  10.607
51827W        W24252  12.974  26.773   2.865
51828W        W24253  28.552  42.748   3.244
51829W        W24254  32.917   9.142   3.926
51830W        W24255  33.184  44.114  14.269
51831W        W24256  13.039  42.146   2.759
51832W        W24257  20.630  19.117  14.789
51833W        W24258  12.935  37.236  11.235
51834W        W24259  18.448   4.622   4.789
51835W        W24260  42.753  39.889   2.263
51836W        W24261   0.698   8.516  11.156
51837W        W24262  31.940  24.417  10.983
51838W        W24263  22.179  23.766  13.817
51839W        W24264  27.001  31.436   4.996
51840W        W24265  26.697  14.152   4.242
51841W        W24266  38.930  15.820   0.356
51842W        W24267  29.511  34.446   0.855
51843W        W24268  23.759  36.923  14.396
51844W        W24269  22.075  21.777  11.573
51845W        W24270  13.297  16.744  11.545
51846W        W24271  30.189  29.952  11.632
51847W        W24272   2.577  17.424  12.500
51848W        W24273  30.661  44.471  14.840
51849W        W24274   9.862  28.358   2.092
51850W        W24275  43.652  23.120  12.499
51851W        W24276  41.287  14.387   4.284
51852W        W24277  30.908  26.436   4.159
51853W        W24278  21.863  31.068  12.016
51854W        W24279   5.631  17.111  12.894
51855W        W24280   3.197   6.834   1.858
51856W        W24281  23.138   4.645  10.690
51857W        W24282  11.862   5.325   3.663
51858W        W24283  21.343   5.996   0.507
51859W        W24284  33.834   7.397  10.557
51860W        W24285  30.719  18.378   9.827
51861W        W24286  39.459  35.838  12.532
51862W        W24287   2.456  31.339  13.866
51863W        W24288  12.987  44.111   3.774
51864W        W24289  20.465  42.356  12.986
51865W        W24290  35.072  41.104   1.191
51866W        W24291  39.411  30.053  12.901
51867W        W24292  25.626  30.366   2.280
51868W        W24293  38.433  15.848   0.445
51869W        W24294  14.152  42.897   4.021
51870W        W24295  20.703  37.978  13.865
51871W        W24296  17.205  18.093  10.734
51872W        W24297  27.545  29.196  10.721
51873W        W24298   3.719  31.957   3.077
51874W        W24299  34.083   7.653   2.472
51875W        W24300  13.298  29.648  11.544
51876W        W24301  24.212  11.198  11.936
51877W        W24302  20.446  23.695   3.665
51878W        W24303  34.229  27.284   2.210
51879W        W24304  21.783  41.047  14.966
51880W        W24305   8.619  41.122  11.982
51881W        W24306   8.286  24.613   2.207
51882W        W24307  22.343  27.079   0.824
51883W        W24308  26.891  13.584   4.118
51884W        W24309  20.787  32.075  13.814
51885W        W24310  33.788  20.353   1.675
51886W        W24311  17.092  19.017   4.631
51887W        W24312  16.162  32.416  14.439
51888W        W24313  40.384  37.082  12.840
51889W        W24314  22.178  38.622  13.120
51890W        W24315   3.151  25.170   4.776
51891W        W24316  14.737  13.161   2.846
51892W        W24317   6.152  22.141  14.366
51893W        W24318  12.747  31.053   2.776
51894W        W24319  31.022  14.726   4.340
51895W        W24320   3.540  13.623   1.259
51896W        W24321  16.595   1.050   4.628
51897W        W24322  30.056   2.568  14.457
51898W        W24323  21.759  40.042   0.939
51899W        W24324   4.653  40.027   2.119
51900W        W24325   2.716  29.068  14.395
51901W        W24326  34.615  23.692   1.395
51902W        W24327  26.629  35.064  10.418
51903W        W24328   5.207   7.331  14.206
51904W        W24329  36.316  41.401  14.807
51905W        W24330  43.347   3.273   4.511
51906W        W24331  16.990   1.175  14.853
51907W        W24332   1.476   1.489  14.361
51908W        W24333  26.616   2.715  10.709
51909W        W24334  26.974  32.034   2.668
51910W        W24335  19.563  14.819   2.647
51911W        W24336  37.951   9.596  14.221
51912W        W24337  16.368   2.702   2.270
51913W        W24338  33.604  39.378   3.262
51914W        W24339  18.188  19.704  14.075
51915W        W24340  28.017  38.183   4.110
51916W        W24341   4.497  29.170   4.534
51917W        W24342  12.063  14.832   2.840
51918W        W24343  18.602  15.914   0.551
51919W        W24344   0.784  15.847  10.927
51920W        W24345   2.065  16.114  10.696
51921W        W24346  22.306  44.969   2.428
51922W        W24347  38.428  35.721   0.950
51923W        W24348  12.182  25.974   1.240
51924W        W24349  17.857  32.886  14.429
51925W        W24350  10.028  14.332   0.057
51926W        W24351  17.855   5.392  14.685
51927W        W24352   1.345  10.664  10.826
51928W        W24353   9.784  32.584   3.278
51929W        W24354   3.907  32.398  11.787
51930W        W24355  37.602  42.792  14.501
51931W        W24356   2.868  15.079  11.885
51932W        W24357   7.309  17.384  10.290
51933W        W24358  20.659  29.132  14.750
51934W        W24359  29.844  30.328  11.615
51935W        W24360  28.082  23.353  10.239
51936W        W24361  44.158  19.475  12.006
51937W        W24362  33.982  34.376  12.983
51938W        W24363  29.536  15.882  14.012
51939W        W24364  27.080  15.781  14.229
51940W        W24365  11.178  18.518  14.924
51941W        W24366  15.818   2.223  10.518
51942W        W24367   1.686  10.946   3.725
51943W        W24368  30.507  31.170  11.054
51944W        W24369  10.709  11.605   2.495
51945W        W24370   8.374  34.658   9.974
51946W        W24371  25.138  38.858  11.189
51947W        W24372  37.504  15.869  12.870
51948W        W24373  14.798  26.770  10.498
51949W        W24374  13.300   8.087   3.825
51950W        W24375  30.778   7.394  13.973
51951W        W24376  40.315  21.463  13.838
51952W        W24377  22.945  35.436   3.187
51953W        W24378  14.860   4.066  10.905
51954W        W24379  36.038  30.542  12.949
51955W        W24380   1.807  12.092   4.138
51956W        W24381  28.966  13.381  10.728
51957W        W24382  43.219   4.392  12.559
51958W        W24383  29.887  21.785  13.958
51959W        W24384  14.202  31.442  10.487
51960W        W24385  20.577  12.276   2.432
51961W        W24386  31.042   3.006  11.502
51962W        W24387  30.902  33.574   4.339
51963W        W24388  15.319   2.243   4.209
51964W        W24389  10.434  30.679   3.649
51965W        W24390   7.956  27.535  12.012
51966W        W24391  33.992  13.203   1.840
51967W        W24392  22.590  12.099  11.405
51968W        W24393  32.588  20.518  13.961
51969W        W24394  42.898   4.393   4.556
51970W        W24395  41.056  11.788   2.391
51971W        W24396  43.475   0.184   0.850
51972W        W24397  44.262  39.396   1.166
51973W        W24398  36.951  18.952  11.699
51974W        W24399  12.066  26.115   3.847
51975W        W24400   1.363  22.333  10.675
51976W        W24401  23.317  35.365  13.980
51977W        W24402  42.467  19.736   1.923
51978W        W24403  38.127  21.619  10.690
51979W        W24404  20.348  44.321   4.223
51980W        W24405  34.922  41.190   4.160
51981W        W24406   7.729  21.559  14.047
51982W        W24407  10.145  40.585   3.582
51983W        W24408   8.836   0.926   1.907
51984W        W24409   2.475  18.484  11.918
51985W        W24410   0.332  24.166  13.441
51986W        W24411  22.617  22.472   1.416
51987W        W24412  29.383  35.454  12.087
51988W        W24413  10.737  42.853   1.414
51989W        W24414   2.448  44.379  10.110
51990W        W24415   3.709  44.998   3.007
51991W        W24416  20.972  32.727  14.908
51992W        W24417   9.715  17.941   1.981
51993W        W24418  17.013  33.482  13.126
51994W        W24419  23.667  23.713  13.497
51995W        W24420  22.084  10.897  12.509
51996W        W24421  35.663  38.424  14.450
51997W        W24422  36.699  31.241   4.054
51998W        W24423  16.689  16.358  13.899
51999W        W24424  39.035   4.458  11.240
52000W        W24425   5.357  42.906   0.960
52001W        W24426  28.099  14.128   3.336
52002W        W24427  12.148  15.685   1.452
52003W        W24428  14.976  14.397   4.491
52004W        W24429  38.187   0.184  13.926
52005W        W24430   1.028  24.672  14.771
52006W        W24431  27.271  42.022  13.962
52007W        W24432  31.651  31.989  12.093
52008W        W24433  25.434  44.445   1.885
52009W        W24434  42.123  20.598   1.715
52010W        W24435  42.527  39.245   2.841
52011W        W24436  13.258  17.555   3.711
52012W        W24437  32.047  27.463  10.620
52013W        W24438  17.727   2.972  11.858
52014W        W24439  24.584   0.794  12.120
52015W        W24440  26.214  12.853   2.763
52016W        W24441  23.995  24.188   3.247
52017W        W24442   2.963  39.055  14.756
52018W        W24443   7.014  34.127   0.730
52019W        W24444  39.207   4.974  13.159
52020W        W24445  35.064  32.525  13.431
52021W        W24446  14.018  27.892  13.820
52022W        W24447  16.815  20.904  13.024
52023W        W24448  21.690  22.107   4.527
52024W        W24449  38.609  17.076   1.869
52025W        W24450  12.809  25.483   2.503
52026W        W24451   7.824  15.270   1.328
52027W        W24452   7.963  13.981  11.114
52028W        W24453  42.355  24.142   0.823
52029W        W24454  27.916  27.897   2.246
52030W        W24455  40.949  37.474  10.620
52031W        W24456   8.258  23.070   0.049
52032W        W24457   2.007   9.902  12.459
52033W        W24458  25.514  44.932  12.075
52034W        W24459   9.407  37.600   2.121
52035W        W24460  38.389  31.590  14.503
52036W        W24461  43.365  21.113  13.548
52037W        W24462  11.690  11.156  13.616
52038W        W24463  10.187  32.344  13.857
52039W        W24464  39.015  41.081  13.870
52040W        W24465  12.321  33.269   3.839
52041W        W24466  19.676   8.263   1.734
52042W        W24467   1.411  29.007  14.832
52043W        W24468  44.230   5.150  11.725
52044W        W24469  16.838  38.275  12.392
52045W        W24470  20.245  38.093   1.470
52046W        W24471  25.497  23.452   0.359
52047W        W24472  15.781  21.850  13.294
52048W        W24473  23.739  19.237  13.591
52049W        W24474  20.717  20.658   2.753
52050W        W24475   8.554  39.870   3.599
52051W        W24476  36.844  30.989   1.645
52052W        W24477  31.075  26.180  14.434
52053W        W24478  32.908  44.839   2.764
52054W        W24479  25.962  10.138   1.225
52055W        W24480  14.354  17.398  14.246
52056W        W24481   9.887  13.907   0.319
52057W        W24482  11.056  14.810  14.827
52058W        W24483   8.125  40.812   1.391
52059W        W24484  36.934  30.891   0.760
52060W        W24485   4.550  15.700  13.352
52061W        W24486  40.435  41.393   0.498
52062W        W24487  43.042  23.691   3.674
52063W        W24488   2.921   2.771   2.238
52064W        W24489  19.295  12.850  13.151
52065W        W24490  24.098  41.366   1.937
52066W        W24491  30.596  20.239   2.232
52067W        W24492  18.651  13.750  14.533
52068W        W24493  17.279  10.378   0.276
52069W        W24494  15.181   3.231  13.039
52070W        W24495  14.695   5.904   3.825
52071W        W24496   7.841  23.586  14.697
52072W        W24497  18.488  18.565   0.840
52073W        W24498  34.146  33.508   0.858
52074W        W24499  28.317  42.753  12.807
52075W        W24500   0.713   5.806  12.542
52076W        W24501  13.228  12.365  11.969
52077W        W24502  15.825   3.282  12.375
52078W        W24503  27.706   7.942  12.577
52079W        W24504  16.842  21.131  11.050
52080W        W24505  21.186  10.715   2.681
52081W        W24506  34.433  30.546  12.825
52082W        W24507  42.757   8.911   1.934
52083W        W24508  19.316   7.973  11.162
52084W        W24509  36.474  29.000  11.657
52085W        W24510  25.673  38.701  11.176
52086W        W24511  33.588  12.329   3.307
52087W        W24512   8.172  32.480  12.370
52088W        W24513  12.634  33.994   1.795
52089W        W24514  11.102   3.584   3.752
52090W        W24515  19.093  28.029  10.684
52091W        W24516  27.784   2.827   1.424
52092W        W24517  37.041  18.015  11.756
52093W        W24518  28.883  28.980   1.442
52094W        W24519   5.430  40.562   1.403
52095W        W24520   8.018  36.238   1.222
52096W        W24521   1.012  23.113  12.092
52097W        W24522  19.212   7.671   3.299
52098W        W24523  35.097  20.718  10.670
52099W        W24524   3.902   3.369  13.055
52100W        W24525  24.515  22.901  10.664
52101W        W24526  34.644  31.839   3.262
52102W        W24527   4.254   9.384  13.029
52103W        W24528  27.693   1.142   1.424
52104W        W24529  13.114  12.869   1.429
52105W        W24530  35.047  10.211   3.575
52106W        W24531  10.266  31.233   5.404
52107W        W24532  41.989   4.664   3.328
52108W        W24533  38.116  16.784   1.425
52109W        W24534  21.309  21.486   1.330
52110W        W24535  18.285   8.188   1.491
52111W        W24536   7.897   1.441  14.069
52112W        W24537  31.434  10.057  14.865
52113W        W24538  16.880  42.967   0.846
52114W        W24539  39.980   9.638   1.864
52115W        W24540  38.796  31.669   2.703
52116W        W24541  19.009  13.717   1.398
52117W        W24542  36.893  36.329  13.681
52118W        W24543   8.613   2.397   3.357
52119W        W24544   4.242  15.627   4.624
52120W        W24545  32.900  29.457  13.585
52121W        W24546  33.536  26.338  13.948
52122W        W24547  22.079  40.884  13.653
52123W        W24548  24.420  17.965  10.719
52124W        W24549  40.568   1.924   2.377
52125W        W24550  37.630  35.828  11.556
52126W        W24551   5.031  30.684  12.466
52127W        W24552  32.881  25.536   4.444
52128W        W24553  28.135  36.644   4.571
52129W        W24554  21.785   3.415  13.925
52130W        W24555  39.392   1.333  12.486
52131W        W24556  34.535   4.083   0.455
52132W        W24557  16.471  20.618   2.879
52133W        W24558   2.904  12.124  11.689
52134W        W24559  26.660   8.552  11.710
52135W        W24560  20.722  16.801  12.386
52136W        W24561  28.524  39.716  14.317
52137W        W24562  28.455  12.150  13.065
52138W        W24563  35.565   4.692  10.646
52139W        W24564  19.779  39.517  14.859
52140W        W24565  17.304  25.174   3.112
52141W        W24566  39.047  21.931  10.850
52142W        W24567  12.117   9.163  14.985
52143W        W24568  40.967  38.090   0.381
52144W        W24569  10.230  23.266   2.332
52145W        W24570  34.935   9.902  13.753
52146W        W24571  41.810   7.146   4.605
52147W        W24572  39.581  28.059  10.987
52148W        W24573  33.321  43.404  14.760
52149W        W24574   1.929  25.175   3.331
52150W        W24575  12.069  30.091  11.002
52151W        W24576  19.396  31.130   1.265
52152W        W24577   0.432  43.942   2.752
52153W        W24578  34.612  41.079  13.273
52154W        W24579  35.467   1.040   3.435
52155W        W24580  20.245  11.858  14.973
52156W        W24581  11.188  40.566   4.326
52157W        W24582  44.993  20.662   1.657
52158W        W24583  44.400  31.560   2.097
52159W        W24584   4.483  10.479   0.406
52160W        W24585  43.077  42.863  10.839
52161W        W24586  30.075   4.739   4.656
52162W        W24587   0.387  39.853  14.740
52163W        W24588  23.483  23.905  14.361
52164W        W24589  10.816  35.464   4.268
52165W        W24590  30.419   6.213  14.563
52166W        W24591  43.829  28.578   3.511
52167W        W24592   6.950  19.265   3.138
52168W        W24593   9.621   7.572   4.849
52169W        W24594  11.223   6.749   5.665
52170W        W24595  42.850  39.581  10.673
52171W        W24596  11.922  27.182  12.022
52172W        W24597  40.907  15.398  11.577
52173W        W24598  10.115  13.022   4.136
52174W        W24599  32.788   9.185  11.712
52175W        W24600  36.442   7.185  11.937
52176W        W24601  11.880  42.320   4.290
52177W        W24602  12.701  29.316   2.178
52178W        W24603  10.379  43.130   2.721
52179W        W24604   2.480  26.598   3.244
52180W        W24605  34.093   3.658  13.879
52181W        W24606   6.378   8.301   4.333
52182W        W24607  25.993   0.765  11.933
52183W        W24608  19.655  43.213   2.870
52184W        W24609  31.986  33.610   4.139
52185W        W24610  25.466  15.582   4.541
52186W        W24611  21.213   0.157  13.610
52187W        W24612  18.245   3.083  13.407
52188W        W24613  28.029   1.779  11.021
52189W        W24614  21.490  17.827   4.503
52190W        W24615   5.334  17.106  13.883
52191W        W24616  26.961   1.380   1.937
52192W        W24617  30.823  24.703  14.589
52193W        W24618  21.970  40.821   1.316
52194W        W24619  35.794  21.268   3.046
52195W        W24620  26.974  38.930   3.361
52196W        W24621  23.983  28.078   2.816
52197W        W24622  41.408   7.752  12.080
52198W        W24623   2.728   0.714   2.784
52199W        W24624   5.417  11.951   0.820
52200W        W24625  23.202  44.781   1.982
52201W        W24626  11.798  11.559   2.333
52202W        W24627   6.859  21.681  10.828
52203W        W24628   1.321  21.116   4.737
52204W        W24629  13.175  29.583  12.577
52205W        W24630   0.062  22.000  11.075
52206W        W24631  34.905  12.187  12.934
52207W        W24632  17.773  40.699   1.485
52208W        W24633  24.800  40.831   3.461
52209W        W24634  22.768  15.090   4.163
52210W        W24635  36.327  27.285   1.804
52211W        W24636  37.789   7.375   3.788
52212W        W24637  35.405  10.583   1.733
52213W        W24638   0.042  33.130   4.114
52214W        W24639  43.300  37.867   1.355
52215W        W24640  10.844  16.270  14.924
52216W        W24641  41.955  43.572  13.351
52217W        W24642  39.529  43.958  14.284
52218W        W24643  41.462   2.001   1.248
52219W        W24644  18.243  25.818  12.146
52220W        W24645  44.523  32.604  13.428
52221W        W24646  10.463   0.021  13.057
52222W        W24647  40.330  33.106  12.328
52223W        W24648   8.232   6.907  13.908
52224W        W24649  18.005  29.069  10.467
52225W        W24650  15.831  28.062   2.415
52226W        W24651  13.710  25.123   4.924
52227W        W24652  42.780  24.919   2.265
52228W        W24653  29.641  44.484   2.689
52229W        W24654  16.534   3.631  13.846
52230W        W24655   6.975  30.866  14.400
52231W        W24656  42.564  33.381  11.151
52232W        W24657  40.258   2.903  12.060
52233W        W24658  22.689  28.002   3.686
52234W        W24659  23.906  35.413   2.222
52235W        W24660  42.071  16.307   4.025
52236W        W24661  27.746  44.016   0.771
52237W        W24662  19.113   1.746  11.902
52238W        W24663  31.442  20.958  11.228
52239W        W24664   1.364  20.731   2.727
52240W        W24665  28.921  38.900  13.848
52241W        W24666   2.170   9.316   4.757
52242W        W24667  43.374  25.750  12.388
52243W        W24668   7.515  29.936  13.321
52244W        W24669  28.657  29.587  14.363
52245W        W24670  31.814  29.052   0.943
52246W        W24671  18.215  12.655   0.835
52247W        W24672  38.808  33.762   1.893
52248W        W24673  35.081  41.668   4.099
52249W        W24674   9.529   6.431  13.009
52250W        W24675  28.161  38.139   2.446
52251W        W24676   6.423  42.798  11.083
52252W        W24677  30.921  43.371  14.348
52253W        W24678  43.499  28.748  10.243
52254W        W24679  33.687  13.197  13.448
52255W        W24680  10.966  17.129  13.064
52256W        W24681  37.307  33.954  11.881
52257W        W24682  29.430  33.161  12.922
52258W        W24683  20.232  30.016  13.225
52259W        W24684  21.071  13.450  11.971
52260W        W24685  21.007  35.090   4.598
52261W        W24686  15.520  39.441  12.120
52262W        W24687  26.004  37.851  11.826
52263W        W24688   4.765   9.697   3.017
52264W        W24689  15.691  44.344   3.129
52265W        W24690   9.838   2.238  13.260
52266W        W24691  29.167   1.774   3.322
52267W        W24692  31.534   0.791   1.787
52268W        W24693  34.100  35.239  10.612
52269W        W24694  29.089  16.537  12.467
52270W        W24695  18.025  36.987  10.705
52271W        W24696  41.200  33.562  13.674
52272W        W24697  18.568  16.416  12.959
52273W        W24698   4.203  18.328   2.152
52274W        W24699  36.821  40.759   2.251
52275W        W24700  15.611  35.951   0.671
52276W        W24701  27.238   2.585  13.078
52277W        W24702  21.633  38.542  10.747
52278W        W24703  29.557  33.319   0.357
52279W        W24704  35.841  35.855  11.207
52280W        W24705  21.585  21.846  14.703
52281W        W24706  27.016  31.605   2.318
52282W        W24707  30.462  39.302  13.655
52283W        W24708  39.317   6.268   2.455
52284W        W24709   6.140  31.426  11.556
52285W        W24710   9.460  44.161  13.635
52286W        W24711  22.064  32.442   1.398
52287W        W24712   2.719  25.906  13.384
52288W        W24713   8.906   2.415  12.906
52289W        W24714   0.357  35.609   0.868
52290W        W24715   9.271  17.867  11.471
52291W        W24716  25.214  27.558   4.537
52292W        W24717  32.381  26.480   0.473
52293W        W24718   9.730  18.656   2.251
52294W        W24719  27.464  26.130  11.360
52295W        W24720  18.691  25.448   1.544
52296W        W24721  39.830  43.141  13.906
52297W        W24722  19.165  33.869  10.616
52298W        W24723  35.975   7.770   2.838
52299W        W24724   4.747  25.023  12.843
52300W        W24725   8.307  43.309   4.389
52301W        W24726  29.971  28.837   4.206
52302W        W24727  21.758  17.552   1.019
52303W        W24728  34.827  35.513   1.868
52304W        W24729  34.854  15.202  14.322
52305W        W24730  18.724  25.977   0.789
52306W        W24731   5.003   0.882  12.075
52307W        W24732  37.085  35.627  11.646
52308W        W24733   4.759  42.372  12.901
52309W        W24734  16.247  11.717  14.011
52310W        W24735  32.392  10.266  12.387
52311W        W24736  33.365   5.120   4.154
52312W        W24737  12.086  20.839  13.331
52313W        W24738  26.401  41.442   4.487
52314W        W24739   8.611  17.832   3.304
52315W        W24740  11.368   6.636  11.895
52316W        W24741  33.138  35.453  13.835
52317W        W24742  26.923  18.192   2.229
52318W        W24743   8.996  22.676   4.157
52319W        W24744  25.096  28.906   4.131
52320W        W24745  39.207  10.121   4.040
52321W        W24746   5.289  33.248   2.018
52322W        W24747   6.132  15.060  10.690
52323W        W24748  15.317  23.484  13.331
52324W        W24749  16.388  16.615   3.191
52325W        W24750  39.045  18.546  13.563
52326W        W24751  44.303  21.790   1.353
52327W        W24752  23.071  21.019  12.488
52328W        W24753   2.826  21.706  11.499
52329W        W24754   6.883  12.189   4.877
52330W        W24755  33.331  25.561   4.696
52331W        W24756   1.873  16.510  14.449
52332W        W24757   0.368  31.835   3.679
52333W        W24758   2.939   0.025   4.817
52334W        W24759  20.420  20.759   2.341
52335W        W24760  27.544   9.093  13.962
52336W        W24761  19.568  34.223  14.130
52337W        W24762  24.270  30.689   2.691
52338W        W24763  26.448  18.855  11.031
52339W        W24764   8.479  43.240   0.902
52340W        W24765  25.334  10.329   3.298
52341W        W24766   0.139  26.034   0.423
52342W        W24767  40.723   5.333  12.178
52343W        W24768  13.741  40.443  12.437
52344W        W24769  11.282  37.256  13.893
52345W        W24770  21.015  28.002  12.127
52346W        W24771  38.483   8.094   0.266
52347W        W24772  13.297  38.638   3.672
52348W        W24773  15.369  28.317   4.591
52349W        W24774  14.083  28.598  13.464
52350W        W24775  14.598  10.320  12.795
52351W        W24776  38.059   7.975   2.315
52352W        W24777   3.720  20.215   3.727
52353W        W24778  13.364  29.443  14.825
52354W        W24779  27.328  14.580  11.885
52355W        W24780  32.675  13.836  11.116
52356W        W24781  26.964  22.626  10.039
52357W        W24782  31.168  28.914  11.492
52358W        W24783  27.719  30.482  13.320
52359W        W24784  22.002  18.569   0.005
52360W        W24785  41.397  21.005   3.813
52361W        W24786  18.519   0.544  11.940
52362W        W24787   6.256  37.326   0.503
52363W        W24788  43.827  37.808   4.669
52364W        W24789  40.941  11.404   2.731
52365W        W24790  28.701  13.520  13.055
52366W        W24791   7.823  20.161   4.877
52367W        W24792  38.420  29.450  10.959
52368W        W24793  40.940  40.983   1.655
52369W        W24794  36.157  37.862   2.203
52370W        W24795  20.509  22.936  12.555
52371W        W24796   1.752   7.387  14.313
52372W        W24797  10.228  17.150  14.264
52373W        W24798   7.335   5.983  13.946
52374W        W24799   5.450  13.753  13.575
52375W        W24800  21.190  10.921  14.804
52376W        W24801  31.671   7.361  14.858
52377W        W24802   9.786   3.663  12.601
52378W        W24803  10.249  19.979  13.887
52379W        W24804   1.318   4.056   1.815
52380W        W24805  36.789  15.671   0.941
52381W        W24806  13.330  14.151  10.796
52382W        W24807  21.826  15.011  12.492
52383W        W24808  16.735   4.022  14.165
52384W        W24809  29.520  11.046   0.936
52385W        W24810   7.385  43.902  14.969
52386W        W24811  14.727  25.480   4.321
52387W        W24812   0.318   0.287  11.996
52388W        W24813  23.207  30.170   0.320
52389W        W24814  37.032  34.367   4.600
52390W        W24815   2.390  13.329  13.612
52391W        W24816  10.597  43.990   4.826
52392W        W24817   4.426   3.897  11.249
52393W        W24818  17.115  34.688   1.341
52394W        W24819  19.399  24.246  11.856
52395W        W24820  24.831  21.203   0.423
52396W        W24821  14.862  23.211   0.454
52397W        W24822   6.761  30.669   2.764
52398W        W24823  39.793  21.745   0.225
52399W        W24824   9.478  19.293  11.585
52400W        W24825   5.357  25.257  12.018
52401W        W24826  33.410  30.440  13.382
52402W        W24827  39.147  34.162   1.808
52403W        W24828   4.955  30.164  11.225
52404W        W24829   3.293  25.011  11.603
52405W        W24830  16.240   8.214   4.193
52406W        W24831   5.659  34.825  11.556
52407W        W24832  34.395  22.707  14.337
52408W        W24833  16.052   0.759  14.819
52409W        W24834   1.673  22.089  13.581
52410W        W24835  39.781   1.921  14.363
52411W        W24836  18.572  25.536  11.868
52412W        W24837  37.767   8.534   3.130
52413W        W24838  22.756  32.352   1.775
52414W        W24839  43.859  20.277   3.788
52415W        W24840  22.666  15.103   1.789
52416W        W24841  42.973  37.884  14.901
52417W        W24842   9.793  30.182  14.439
52418W        W24843  40.242  40.444  10.827
52419W        W24844  35.094  41.142  11.164
52420W        W24845  26.780  20.849  10.402
52421W        W24846  13.570   7.844   3.300
52422W        W24847   9.806  31.895   3.288
52423W        W24848  31.466  27.489  13.842
52424W        W24849  24.219   7.623  10.613
52425W        W24850  22.085  27.146   2.589
52426W        W24851  30.591   4.292   4.624
52427W        W24852  36.114   8.916   3.330
52428W        W24853  27.423  30.567  12.914
52429W        W24854  41.323  11.856   0.956
52430W        W24855  40.863   8.285   2.925
52431W        W24856  11.337   6.216  10.569
52432W        W24857  41.980  37.897  14.296
52433W        W24858  34.941  16.799  11.210
52434W        W24859  19.090  10.320  10.854
52435W        W24860  35.404   9.153  13.366
52436W        W24861  38.065  19.906  12.000
52437W        W24862   8.374  16.731   4.647
52438W        W24863   4.770  43.825   1.732
52439W        W24864  18.201  30.579   2.458
52440W        W24865  19.501  17.129   2.398
52441W        W24866   4.379  22.135   0.372
52442W        W24867   1.580  44.838  14.912
52443W        W24868  28.423  10.115   0.684
52444W        W24869  18.185   7.975  13.513
52445W        W24870  35.479  43.350  14.252
52446W        W24871  15.548  36.185   3.576
52447W        W24872  21.297  34.852  10.974
52448W        W24873  22.470  26.688   0.015
52449W        W24874  40.981  36.853   1.746
52450W        W24875  16.074  41.419   1.782
52451W        W24876   4.672  11.484  10.371
52452W        W24877   5.887   9.628   2.632
52453W        W24878  26.254  14.260  10.556
52454W        W24879  27.022  28.442   3.160
52455W        W24880  43.850   2.860   0.522
52456W        W24881  19.208  39.337   2.719
52457W        W24882   7.172  11.108   3.843
52458W        W24883  23.058  13.174   0.321
52459W        W24884  23.618  33.649  11.202
52460W        W24885  40.038  27.981  10.704
52461W        W24886  38.437  39.885  14.310
52462W        W24887  21.276   3.426   0.426
52463W        W24888  21.689  20.821  14.978
52464W        W24889  43.039  43.225  14.388
52465W        W24890  10.128   5.358  11.460
52466W        W24891  21.330  33.604   2.552
52467W        W24892  17.584  27.422   4.239
52468W        W24893  16.401   2.698   4.706
52469W        W24894   2.459  30.813  13.024
52470W        W24895  39.604  28.781  11.592
52471W        W24896  12.695  21.461  13.798
52472W        W24897  43.375  40.916   3.130
52473W        W24898  37.117  38.031   4.581
52474W        W24899  40.862  42.033  14.400
52475W        W24900  32.660   7.337  14.772
52476W        W24901  39.808   0.914   3.240
52477W        W24902  39.109  44.713  11.468
52478W        W24903  19.447  42.412   3.139
52479W        W24904   8.082   7.410   3.200
52480W        W24905  19.595  24.524   2.850
52481W        W24906  14.296  14.596  12.056
52482W        W24907  26.740  10.347   0.454
52483W        W24908  17.462  42.382  12.163
52484W        W24909  18.562  11.660   4.429
52485W        W24910   2.663  28.461   2.415
52486W        W24911   7.205  33.393   0.228
52487W        W24912  10.131  24.693  11.542
52488W        W24913   9.796   3.609  13.118
52489W        W24914  24.996  38.509  11.528
52490W        W24915  18.289  28.600   3.553
52491W        W24916  12.812  32.573   4.169
52492W        W24917  25.064   0.393   1.213
52493W        W24918  24.643  18.120   4.779
52494W        W24919  30.518  11.810  10.682
52495W        W24920  44.993  37.490   3.335
52496W        W24921  42.268  18.078  12.071
52497W        W24922  26.484   0.897   4.603
52498W        W24923   4.376  19.286  11.166
52499W        W24924  41.406  32.392   1.316
52500W        W24925   4.464  18.313   1.725
52501W        W24926   9.834   5.714   0.115
52502W        W24927   0.789   8.764   3.659
52503W        W24928   4.956  16.757  11.711
52504W        W24929  38.036  36.051  10.749
52505W        W24930  35.738  33.974   1.279
52506W        W24931   9.106  40.616  11.620
52507W        W24932   5.719  39.777  11.636
52508W        W24933  41.370  36.318  13.731
52509W        W24934  31.555   6.274  11.558
52510W        W24935  19.188  32.824  14.764
52511W        W24936  39.296  35.995  13.954
52512W        W24937  27.713  22.044   1.012
52513W        W24938  10.242  13.307   0.507
52514W        W24939  43.752  10.276  11.663
52515W        W24940  33.364  10.592  11.113
52516W        W24941  42.625  23.607   2.167
52517W        W24942  23.708  22.259   2.231
52518W        W24943  35.370   7.719  14.893
52519W        W24944  34.408  17.700   1.248
52520W        W24945  12.278   3.051  14.337
52521W        W24946  20.161  44.566   3.250
52522W        W24947  26.591  28.255   2.589
52523W        W24948  29.170  31.791  10.223
52524W        W24949  26.014  25.185   1.361
52525W        W24950  42.894  30.572   4.578
52526W        W24951  11.315   1.791   0.289
52527W        W24952  40.074  32.447   3.828
52528W        W24953   0.212   6.488  12.052
52529W        W24954  34.557  22.714   4.164
52530W        W24955  44.035  22.623  13.924
52531W        W24956  11.760  16.554   1.735
52532W        W24957  25.851  12.524  12.548
52533W        W24958   0.780  20.099   3.129
52534W        W24959  16.101  31.222   1.580
52535W        W24960  16.332  27.859  10.321
52536W        W24961  15.431  29.609   4.146
52537W        W24962  17.060  21.652  11.983
52538W        W24963  38.777  21.856  13.934
52539W        W24964   0.155  26.398   3.540
52540W        W24965  12.116   3.795  12.165
52541W        W24966  37.326  14.562  13.946
52542W        W24967  20.790   5.808   1.137
52543W        W24968  35.346  19.608  10.225
52544W        W24969  22.305  39.625  12.471
52545W        W24970  17.652  10.280  11.435
52546W        W24971  39.344  21.167   4.284
52547W        W24972  29.895  14.684   4.882
52548W        W24973  19.322   7.006   2.513
52549W        W24974   5.643  26.139   0.434
52550W        W24975  10.116   3.322   3.673
52551W        W24976  44.457   6.596   4.586
52552W        W24977   1.703  42.913  13.254
52553W        W24978  42.403  27.743  14.386
52554W        W24979  34.001   1.710   2.330
52555W        W24980  39.460  17.822  11.093
52556W        W24981  39.093  30.720   3.764
52557W        W24982   7.854  37.469  10.303
52558W        W24983  11.860   2.324   2.448
52559W        W24984  38.385  35.859  11.267
52560W        W24985  13.189  32.475   2.678
52561W        W24986  17.372  34.954  11.093
52562W        W24987  38.567   2.284   2.890
52563W        W24988   6.879  15.056  11.137
52564W        W24989  32.513  43.980  14.850
52565W        W24990  29.997  44.036   1.146
52566W        W24991  25.349  26.071   1.895
52567W        W24992  13.306  29.154  11.850
52568W        W24993   9.824  36.451   3.076
52569W        W24994  23.182  43.432  12.666
52570W        W24995  11.211  10.764   4.211
52571W        W24996  16.111  40.642  13.949
52572W        W24997  31.147  10.241   1.203
52573W        W24998  18.767  19.632  12.877
52574W        W24999  38.775  23.963   1.290
52575W        W25000  23.634  13.664  10.760
52576W        W25001  17.849  33.144  13.369
52577W        W25002  17.631  26.009   0.719
52578W        W25003   9.158  16.317   2.344
52579W        W25004   0.854  39.322  11.687
52580W        W25005  13.181   6.225  13.806
52581W        W25006  27.500  37.287   2.957
52582W        W25007  29.599  29.002   0.666
52583W        W25008  30.207  40.817   4.315
52584W        W25009  28.372  40.628  13.529
52585W        W25010   2.249  31.822  12.078
52586W        W25011   9.774  39.413   2.424
52587W        W25012  32.338  41.008   1.894
52588W        W25013  34.384   2.321   1.694
52589W        W25014  30.359  26.960  11.171
52590W        W25015   5.645  37.487   4.913
52591W        W25016  12.571  36.598  10.565
52592W        W25017  28.225  22.180   2.727
52593W        W25018  32.556  15.784  12.061
52594W        W25019  41.589  38.309   3.701
52595W        W25020   2.864  38.543  11.068
52596W        W25021  31.203  18.023   1.005
52597W        W25022  30.483   3.873   2.647
52598W        W25023  29.697   5.681  11.618
52599W        W25024   9.272  29.914   1.708
52600W        W25025  15.797  11.710  11.502
52601W        W25026  25.634  30.530   4.518
52602W        W25027  17.814  40.246  13.456
52603W        W25028  35.426  27.631   4.667
52604W        W25029  12.678  35.839  11.565
52605W        W25030  20.044  23.655  12.102
52606W        W25031   7.560   7.150   2.369
52607W        W25032  33.968  13.644  12.180
52608W        W25033  20.745  28.640   3.528
52609W        W25034  38.560  29.236  12.431
52610W        W25035  16.235  14.124   3.757
52611W        W25036  24.749  18.021   1.331
52612W        W25037  40.477  35.847   0.259
52613W        W25038   2.894  35.521  14.829
52614W        W25039   0.997  17.289  12.445
52615W        W25040  22.467  43.730  13.276
52616W        W25041  33.019  27.590   4.227
52617W        W25042  38.405  38.865  13.859
52618W        W25043  38.372  38.534   3.044
52619W        W25044  13.071  28.671  12.538
52620W        W25045  21.676   1.175   3.649
52621W        W25046  10.364  32.079  12.484
52622W        W25047  15.754  33.572  11.657
52623W        W25048  42.711  14.260   4.769
52624W        W25049  14.797  15.742  14.206
52625W        W25050   4.743  27.473   1.806
52626W        W25051  25.843  22.681  10.823
52627W        W25052  25.480  25.224   2.737
52628W        W25053   9.648   5.210   3.293
52629W        W25054  17.156  16.282  13.083
52630W        W25055  42.037  20.945  13.351
52631W        W25056  39.947   0.445  14.344
52632W        W25057   8.170  27.496   3.317
52633W        W25058  24.187  43.933   0.852
52634W        W25059  44.273  15.656   3.347
52635W        W25060  23.981   9.383   0.381
52636W        W25061  12.289  22.759   5.034
52637W        W25062   8.020   3.597  11.087
52638W        W25063  35.705  29.048   0.310
52639W        W25064   9.760  12.604   3.560
52640W        W25065  41.832  21.683  11.685
52641W        W25066   7.149  36.615  14.352
52642W        W25067   7.171  20.654  12.141
52643W        W25068  22.030   1.729   3.253
52644W        W25069  22.522   0.499  13.379
52645W        W25070   9.075  15.286   2.738
52646W        W25071  19.743  39.982  10.374
52647W        W25072  23.575  12.263  14.491
52648W        W25073  21.499  15.340   4.737
52649W        W25074   3.825   7.453  10.328
52650W        W25075  12.274   6.746   0.252
52651W        W25076  20.674   2.497   4.154
52652W        W25077  18.856   6.255   2.705
52653W        W25078  36.444   8.127  12.936
52654W        W25079  21.838  18.059   4.206
52655W        W25080  36.484  18.218   0.523
52656W        W25081  22.808  44.922   1.138
52657W        W25082  30.907  17.681   1.910
52658W        W25083  34.722  16.932  11.682
52659W        W25084  30.697  20.096   4.141
52660W        W25085  20.495  31.912   2.828
52661W        W25086  28.960  26.685  10.543
52662W        W25087  43.909  11.625   1.709
52663W        W25088  20.036  42.598  13.803
52664W        W25089  13.904  25.678   5.543
52665W        W25090  41.838  29.540   1.701
52666W        W25091  29.406   9.791   0.462
52667W        W25092  41.075  31.997  14.930
52668W        W25093  35.412  27.238  14.416
52669W        W25094   2.432  41.984  13.404
52670W        W25095   8.815  39.572  10.977
52671W        W25096  25.725  35.047  12.505
52672W        W25097  44.724  23.316  10.411
52673W        W25098   4.951  36.851  12.056
52674W        W25099   9.202   7.003   4.525
52675W        W25100  44.217   5.812  12.866
52676W        W25101  37.014  44.218  13.142
52677W        W25102  21.050  11.212   2.849
52678W        W25103   1.668   0.773  10.950
52679W        W25104  43.521  21.234  10.049
52680W        W25105  34.078  42.328  13.435
52681W        W25106  23.013  10.833   5.002
52682W        W25107  39.838  38.448  13.252
52683W        W25108  13.850  18.523   4.514
52684W        W25109  34.293  42.252   1.298
52685W        W25110  43.190  39.036  14.890
52686W        W25111  42.923  26.987   1.394
52687W        W25112  25.305  40.155   3.726
52688W        W25113  12.336  20.236   2.794
52689W        W25114  27.936   0.773   3.824
52690W        W25115  25.660  40.536  10.982
52691W        W25116  28.475   3.535  13.404
52692W        W25117  40.945   9.589  11.562
52693W        W25118  15.076  14.566  14.953
52694W        W25119  27.943  33.103  12.510
52695W        W25120  38.129  44.158   5.036
52696W        W25121   4.796  42.511  10.729
52697W        W25122  24.746  15.025   3.701
52698W        W25123   3.276  15.869  12.972
52699W        W25124   2.460  43.788   4.544
52700W        W25125   5.431  33.932   4.544
52701W        W25126  17.700  36.319  11.109
52702W        W25127   2.515   3.018   2.939
52703W        W25128  37.350  28.644   0.824
52704W        W25129  11.172  43.790  13.455
52705W        W25130  32.067   6.525  12.020
52706W        W25131  31.149  39.540   2.766
52707W        W25132   4.184  31.192   1.872
52708W        W25133  13.872   7.453   0.391
52709W        W25134   8.938  15.365   3.618
52710W        W25135  18.598   1.310  11.107
52711W        W25136  16.694  15.646   0.357
52712W        W25137  32.970  44.214  10.567
52713W        W25138   5.730  29.112  11.181
52714W        W25139  20.773  18.769  10.772
52715W        W25140  33.257  22.401   1.742
52716W        W25141  35.784  44.780   4.088
52717W        W25142  16.120   8.122   4.750
52718W        W25143   8.184  15.554  13.996
52719W        W25144  38.777  11.574  11.070
52720W        W25145  21.617  37.086   0.826
52721W        W25146  17.746  26.078  13.822
52722W        W25147  42.107   1.856  13.939
52723W        W25148  11.443  13.247  14.966
52724W        W25149  33.590  20.999   4.762
52725W        W25150  30.202  43.649  13.684
52726W        W25151   6.218   0.838   1.660
52727W        W25152  18.145  15.718  14.865
52728W        W25153  31.934  42.531  10.632
52729W        W25154  26.531  24.125   5.075
52730W        W25155  42.009  20.646   3.136
52731W        W25156  32.884   7.265  11.404
52732W        W25157  16.192  11.340  12.154
52733W        W25158  31.932  43.745   2.134
52734W        W25159  15.649  15.355  12.903
52735W        W25160   2.274   4.676  13.409
52736W        W25161  30.937  44.019   0.329
52737W        W25162   0.386  31.523   2.458
52738W        W25163  39.986  28.956  12.520
52739W        W25164   2.180  37.476  12.324
52740W        W25165   6.586  42.972   1.210
52741W        W25166  14.873  27.070   0.312
52742W        W25167   2.216   2.985  11.010
52743W        W25168  24.430  44.419  10.888
52744W        W25169  35.423  17.809  12.760
52745W        W25170  32.234  43.049   4.396
52746W        W25171  15.585   6.755   0.370
52747W        W25172  25.676   4.335   4.991
52748W        W25173  28.584  39.944   3.201
52749W        W25174  31.845  30.363  12.893
52750W        W25175  33.392  32.005   0.392
52751W        W25176  15.060  20.283   1.881
52752W        W25177  38.740   7.017   5.015
52753W        W25178  16.237  40.768   1.223
52754W        W25179  17.667   1.891  14.888
52755W        W25180  16.696   9.715  12.122
52756W        W25181  31.770  37.537   2.773
52757W        W25182   8.101  12.346  12.002
52758W        W25183  36.919  11.398  13.317
52759W        W25184  40.113  23.232   3.945
52760W        W25185  25.907  36.450   2.684
52761W        W25186  25.148  39.632  12.119
52762W        W25187  27.636  21.274   2.673
52763W        W25188  35.641  30.620   1.762
52764W        W25189  19.972  34.810   1.234
52765W        W25190  30.963  44.297  14.398
52766W        W25191  25.155  34.038  10.415
52767W        W25192  40.103  40.248  14.649
52768W        W25193  23.122  15.018  12.586
52769W        W25194  14.310  30.588  12.531
52770W        W25195  28.284   9.684   1.427
52771W        W25196  34.914  41.039   0.206
52772W        W25197  17.197  17.813   2.148
52773W        W25198   7.355   0.096  12.078
52774W        W25199   8.986  13.411   5.170
52775W        W25200  42.325   1.472   2.246
52776W        W25201  23.098  25.111  11.888
52777W        W25202  28.860   8.769  13.432
52778W        W25203  16.158  22.497  12.151
52779W        W25204  16.333  42.366   4.009
52780W        W25205   9.483  27.505   1.296
52781W        W25206  37.184  15.674   4.173
52782W        W25207  12.608   9.000  14.956
52783W        W25208  40.327  18.064  14.008
52784W        W25209  18.069  29.986  14.322
52785W        W25210   5.648  26.638   2.029
52786W        W25211  36.168  10.672  14.486
52787W        W25212  19.306  11.885  12.821
52788W        W25213  15.143   7.465  11.909
52789W        W25214   9.446  29.823   2.763
52790W        W25215  17.258  36.932  14.082
52791W        W25216  11.440  17.852   3.243
52792W        W25217  10.086  32.907  10.633
52793W        W25218  43.951  36.838  10.871
52794W        W25219  19.499   6.328   0.980
52795W        W25220  27.687  19.334   1.958
52796W        W25221  16.417  12.396  14.321
52797W        W25222  42.938  24.215   3.733
52798W        W25223   6.847   5.939   1.843
52799W        W25224  19.357  15.729  12.568
52800W        W25225  44.482  43.963  11.312
52801W        W25226  44.026   6.672  13.439
52802W        W25227  17.472  24.298   9.813
52803W        W25228  43.429  33.418  14.365
52804W        W25229  43.470   6.171   4.090
52805W        W25230  11.682  12.446  12.617
52806W        W25231  19.940  16.630   4.201
52807W        W25232  36.592  35.079   4.249
52808W        W25233  28.089   3.972   1.760
52809W        W25234   7.930   8.320  12.003
52810W        W25235  25.026  22.637  14.967
52811W        W25236  20.605  37.180   4.045
52812W        W25237  20.432  15.384  11.032
52813W        W25238  10.059  28.263   3.089
52814W        W25239  18.504   6.213  12.160
52815W        W25240  44.989  40.999   4.260
52816W        W25241  11.376   5.955  11.018
52817W        W25242  21.573  26.338  12.413
52818W        W25243   4.767  20.180   4.553
52819W        W25244  28.995  29.618   2.282
52820W        W25245  39.947  19.693  11.961
52821W        W25246  41.160  18.565  10.830
52822W        W25247  14.213  24.186   2.823
52823W        W25248  42.734  15.044   3.100
52824W        W25249  18.153  17.653  13.966
52825W        W25250  25.195   9.831  11.519
52826W        W25251  38.336   2.955  13.086
52827W        W25252  31.456  44.784   4.202
52828W        W25253   9.150  41.786   2.314
52829W        W25254  44.532  32.952   0.739
52830W        W25255  19.071  27.037  14.461
52831W        W25256   1.193   0.437   3.110
52832W        W25257  23.585  33.476   2.363
52833W        W25258  37.372  24.129   4.072
52834W        W25259  41.173  30.185  14.808
52835W        W25260   9.985  26.366   5.129
52836W        W25261  25.504  12.243   0.229
52837W        W25262  10.573  15.243   2.951
52838W        W25263   8.774  14.673  11.102
52839W        W25264  44.181  37.440  10.854
52840W        W25265  43.487   7.266  13.992
52841W        W25266   1.393  10.265   4.824
52842W        W25267  30.895   6.158   4.393
52843W        W25268  12.489  28.965   1.871
52844W        W25269   3.916  41.450   4.518
52845W        W25270   0.798  41.574  11.010
52846W        W25271  16.937   0.873  13.076
52847W        W25272  15.480   5.979   2.213
52848W        W25273   3.764  21.044  13.995
52849W        W25274  23.465  18.840   0.494
52850W        W25275  34.433  34.630  12.847
52851W        W25276   3.906  17.028   1.816
52852W        W25277  40.920  21.556   3.926
52853W        W25278  43.940   4.190   3.431
52854W        W25279  23.526   0.728   0.272
52855W        W25280  37.328  44.005   0.455
52856W        W25281   3.450  25.261   0.260
52857W        W25282  16.442  41.414  14.599
52858W        W25283  31.806  18.237  14.429
52859W        W25284  10.045  19.338  12.210
52860W        W25285   7.557   7.774   9.817
52861W        W25286   7.343  31.436  12.033
52862W        W25287  26.055  29.536  13.717
52863W        W25288   2.532  24.418   1.957
52864W        W25289  34.586  29.045   4.977
52865W        W25290  15.947  22.331  13.105
52866W        W25291  26.035  35.558   1.265
52867W        W25292   2.950   4.680  10.669
52868W        W25293  33.527  40.178  12.519
52869W        W25294  17.321  15.645   4.535
52870W        W25295   1.336  20.848   5.188
52871W        W25296  39.879  33.550  10.969
52872W        W25297   2.265   3.029   4.735
52873W        W25298  25.262  22.095   3.719
52874W        W25299  22.729  13.611   2.970
52875W        W25300  16.632  35.257  13.064
52876W        W25301  42.450  29.753  13.452
52877W        W25302  22.588  33.627  12.882
52878W        W25303  26.136  31.125  11.843
52879W        W25304   1.090  35.925   1.606
52880W        W25305   2.461  44.681  13.935
52881W        W25306  33.553   7.301   3.252
52882W        W25307  32.435  28.226  13.552
52883W        W25308  23.432  31.374  13.034
52884W        W25309  36.228  30.714  14.894
52885W        W25310  30.017  29.679   2.060
52886W        W25311  14.672  27.152  13.543
52887W        W25312  17.273  37.765  14.032
52888W        W25313  17.357  17.023   4.414
52889W        W25314   8.634  18.725   2.570
52890W        W25315  32.349  40.392   3.616
52891W        W25316  31.610  19.791   0.050
52892W        W25317   4.451  28.170   4.700
52893W        W25318  38.818  38.019   2.718
52894W        W25319  35.100   7.854  12.752
52895W        W25320  41.612   2.328  10.799
52896W        W25321  26.081  15.835   2.929
52897W        W25322   6.437  28.930   1.805
52898W        W25323  13.907  32.440   3.833
52899W        W25324  38.933  39.318  13.327
52900W        W25325  11.751  31.016  11.502
52901W        W25326  13.911  43.936  12.612
52902W        W25327  41.914  42.861   0.022
52903W        W25328  19.213   7.696  10.747
52904W        W25329  41.056   5.687   3.848
52905W        W25330  23.830  13.418   2.810
52906W        W25331  24.971  15.322  14.514
52907W        W25332  14.316  16.094   2.437
52908W        W25333  24.847   8.945  14.329
52909W        W25334  18.548  29.999  14.577
52910W        W25335  30.001  33.843  14.350
52911W        W25336  11.410  42.713  14.817
52912W        W25337  22.110  22.018  12.394
52913W        W25338  20.660   1.211   4.101
52914W        W25339  31.976   8.948   1.856
52915W        W25340  33.231   1.968  11.939
52916W        W25341  26.947   5.871  11.550
52917W        W25342  15.507  21.544   5.097
52918W        W25343  12.208  28.905   4.602
52919W        W25344  15.654  23.646   9.869
52920W        W25345  43.510   3.250   0.205
52921W        W25346   1.425  28.085  12.948
52922W        W25347  26.909  28.854   4.141
52923W        W25348  33.030  34.454   3.055
52924W        W25349   2.872  39.918  10.115
52925W        W25350  13.508  12.214   1.257
52926W        W25351  44.787   3.800   3.959
52927W        W25352  44.987  17.032   5.017
52928W        W25353  27.474  38.829   0.351
52929W        W25354  42.035  16.157  14.323
52930W        W25355  27.196  17.623  13.047
52931W        W25356  29.460   7.271   0.885
52932W        W25357   6.483  15.126   0.765
52933W        W25358  21.133  26.623   4.163
52934W        W25359  17.157   2.262  11.863
52935W        W25360  20.997   9.394   3.794
52936W        W25361  27.908   4.481  11.623
52937W        W25362  38.836  27.024  12.426
52938W        W25363  35.972  26.493   1.934
52939W        W25364  22.618  40.567  10.671
52940W        W25365   9.309   4.681  10.870
52941W        W25366   5.874   0.277   4.086
52942W        W25367  28.959  39.150  10.693
52943W        W25368  31.391   7.981  11.142
52944W        W25369   3.716  25.448   3.689
52945W        W25370  43.011  39.299  12.165
52946W        W25371  15.558  34.103  11.524
52947W        W25372   0.898   2.283   4.979
52948W        W25373  30.454   0.461   4.295
52949W        W25374  25.980  10.801  12.253
52950W        W25375  11.077  21.092   2.166
52951W        W25376  27.558  36.382  13.114
52952W        W25377  42.371   6.109  12.911
52953W        W25378   4.799   9.287   3.891
52954W        W25379  13.851  27.563  11.600
52955W        W25380  12.674   6.557   2.350
52956W        W25381   5.566  21.529   3.408
52957W        W25382  34.332  22.248   2.345
52958W        W25383  13.900   9.634   2.210
52959W        W25384   8.334  26.191   1.019
52960W        W25385   2.815  10.986  11.621
52961W        W25386  25.655  19.011  12.649
52962W        W25387  14.850   8.430  13.503
52963W        W25388  29.063  21.238  14.817
52964W        W25389  32.593  10.333   4.148
52965W        W25390  35.432  42.297   3.748
52966W        W25391  39.921   7.748  12.361
52967W        W25392   7.160  13.272   1.620
52968W        W25393   6.436  10.396   0.011
52969W        W25394   6.442  19.310   0.539
52970W        W25395  23.593  21.897   3.187
52971W        W25396   2.913  11.346  13.007
52972W        W25397  39.387   3.580   4.186
52973W        W25398  32.153  22.028  11.744
52974W        W25399   1.000  36.413  12.490
52975W        W25400  29.965   7.435  12.105
52976W        W25401  19.953  17.979  13.458
52977W        W25402  26.888  38.736   2.721
52978W        W25403  19.524  12.767   0.252
52979W        W25404  32.600  12.156   0.316
52980W        W25405  10.319  20.676   2.125
52981W        W25406   9.354  33.910  13.002
52982W        W25407  35.364  40.001   0.779
52983W        W25408   6.768  38.965  11.032
52984W        W25409  22.109   5.782   2.696
52985W        W25410  16.127  41.560  11.091
52986W        W25411  14.109   8.673   4.702
52987W        W25412  19.110  31.012   0.283
52988W        W25413  30.287  14.680   1.693
52989W        W25414  31.614   0.002  12.460
52990W        W25415  41.103  19.646   1.790
52991W        W25416  31.283  40.583  10.638
52992W        W25417  43.526  37.525   4.155
52993W        W25418  10.523  41.615  10.538
52994W        W25419   1.569  44.487   3.238
52995W        W25420   4.741  21.246   1.880
52996W        W25421  32.107   2.389  10.531
52997W        W25422  38.508  28.138  14.516
52998W        W25423  29.572   1.817  12.932
52999W        W25424  21.948  11.672   0.421
53000W        W25425  43.960  24.546  12.106
53001W        W25426  26.227  21.524   3.105
53002W        W25427  11.414  33.463   4.455
53003W        W25428   5.651  42.358  11.197
53004W        W25429  29.525  33.699   0.018
53005W        W25430  23.045  36.343   4.116
53006W        W25431   1.930  19.122   2.196
53007W        W25432  23.050  14.337   1.875
53008W        W25433  20.358  35.960  10.755
53009W        W25434  11.632  28.422  14.312
53010W        W25435  25.886  20.347  14.964
53011W        W25436  12.342  23.751  12.537
53012W        W25437  33.429   2.061  12.870
53013W        W25438  10.148  43.856  11.566
53014W        W25439  43.210   0.028  14.345
53015W        W25440   0.983  12.306  11.904
53016W        W25441  35.280  40.115   2.744
53017W        W25442  36.876  44.931  10.721
53018W        W25443  38.764  36.593  13.587
53019W        W25444  39.236  33.656  12.212
53020W        W25445  17.241  14.416  13.275
53021W        W25446   7.131   7.935  11.822
53022W        W25447  42.512  41.431   0.867
53023W        W25448  31.715  16.097  14.500
53024W        W25449  26.547  38.075   2.331
53025W        W25450  13.091  41.487   0.364
53026W        W25451  38.387  15.337   3.789
53027W        W25452  12.769  38.483   1.515
53028W        W25453  23.949  26.764  10.360
53029W        W25454  33.875  14.802  11.171
53030W        W25455  31.584   6.361  12.070
53031W        W25456  26.905   1.945   2.399
53032W        W25457  24.968  35.616   4.386
53033W        W25458  16.882  11.331   1.771
53034W        W25459  24.089  29.564   0.881
53035W        W25460   8.408   2.805  12.110
53036W        W25461  18.061   8.690  10.728
53037W        W25462   4.496  42.246  13.328
53038W        W25463  38.644  38.920  10.673
53039W        W25464   2.850   0.880  12.888
53040W        W25465  39.028  30.864  14.480
53041W        W25466  42.005  35.851  14.778
53042W        W25467  41.460  14.313   4.809
53043W        W25468  25.047  13.664  14.431
53044W        W25469  41.778   6.371  14.435
53045W        W25470   0.338  42.486  12.847
53046W        W25471   4.437  11.592  11.876
53047W        W25472  37.632  29.432   0.365
53048W        W25473  38.787  37.654   1.335
53049W        W25474  32.620  21.723  14.532
53050W        W25475  34.570  18.672   3.353
53051W        W25476  41.824   4.303  11.049
53052W        W25477  19.337  37.468  13.351
53053W        W25478  44.793   3.258   2.710
53054W        W25479   3.392  41.135  11.531
53055W        W25480  34.080  10.744  14.537
53056W        W25481  29.755  23.262   4.638
53057W        W25482  27.006  43.907  13.235
53058W        W25483  20.734  32.959   1.428
53059W        W25484  38.514  13.359  12.106
53060W        W25485  29.211   0.757  11.100
53061W        W25486  37.138  13.178   3.434
53062W        W25487   2.669  15.637   4.737
53063W        W25488  11.057  33.879   3.212
53064W        W25489  11.299  40.487   2.978
53065W        W25490  32.047   5.166  12.992
53066W        W25491  44.777   5.864  14.464
53067W        W25492  40.757  18.012   3.215
53068W        W25493  15.093  35.079  10.348
53069W        W25494  29.162  42.714   2.609
53070W        W25495   4.830  41.634   0.458
53071W        W25496  38.257  29.943   3.061
53072W        W25497  27.101  10.726  13.541
53073W        W25498  29.047  16.621   4.201
53074W        W25499   7.443  34.135   2.126
53075W        W25500   6.263   9.414  13.088
53076W        W25501  12.162  24.682  12.138
53077W        W25502   0.667  21.653  13.071
53078W        W25503  39.946  27.728  11.999
53079W        W25504  19.148  11.954  13.908
53080W        W25505  22.515   7.567   1.736
53081W        W25506  27.032  17.253   2.147
53082W        W25507  21.160  16.806  13.434
53083W        W25508  14.142  30.505  10.436
53084W        W25509  20.007  42.921  14.228
53085W        W25510  37.116  30.962  13.921
53086W        W25511  25.285   7.338   1.235
53087W        W25512   3.780  10.080   2.199
53088W        W25513  36.476  16.099   0.999
53089W        W25514  35.122  25.886  11.532
53090W        W25515  11.794   6.811  10.934
53091W        W25516  34.438  44.522  13.391
53092W        W25517  42.000  20.175   0.980
53093W        W25518   8.048   0.459  14.718
53094W        W25519   5.452   7.849   0.314
53095W        W25520  24.125  24.510   1.441
53096W        W25521  11.330  14.618   3.760
53097W        W25522  32.952  38.043  14.028
53098W        W25523  26.262  24.575   4.200
53099W        W25524  40.419  37.829  13.590
53100W        W25525  39.535  11.843   0.308
53101W        W25526  23.619   3.865  10.691
53102W        W25527  18.232  29.208  12.508
53103W        W25528   4.852   3.900   4.182
53104W        W25529  16.859  42.482   1.265
53105W        W25530  13.169  36.406   4.125
53106W        W25531   7.743  21.709  11.742
53107W        W25532   1.900  23.244   4.776
53108W        W25533   2.663  23.595   0.885
53109W        W25534  41.829  21.683   0.551
53110W        W25535  29.228  42.946  14.107
53111W        W25536   8.292  42.010   3.274
53112W        W25537   0.396  28.445   4.265
53113W        W25538  33.447  11.845   3.513
53114W        W25539  25.249  28.368   0.482
53115W        W25540  44.179  18.078   0.938
53116W        W25541  35.977  41.917   0.371
53117W        W25542  39.821   2.893  14.561
53118W        W25543  22.221  15.356  12.428
53119W        W25544  25.550  23.294   4.011
53120W        W25545  40.514  17.304   0.806
53121W        W25546  29.525   4.777  12.110
53122W        W25547  12.765  25.011  12.168
53123W        W25548  19.972  16.706  11.891
53124W        W25549   1.254  17.905   1.051
53125W        W25550   7.894  27.681   0.273
53126W        W25551  32.977   3.858   3.206
53127W        W25552  37.287   3.784   1.016
53128W        W25553  35.685  44.327  12.916
53129W        W25554  43.919  37.294  14.882
53130W        W25555  41.136  30.030  13.378
53131W        W25556   1.573  15.165  12.105
53132W        W25557   6.710  13.298  12.578
53133W        W25558  44.651  30.006  10.485
53134W        W25559  14.292   8.825   2.110
53135W        W25560   0.197  17.628  13.499
53136W        W25561  25.432  20.426   4.563
53137W        W25562  29.613   5.215   1.402
53138W        W25563  29.477  26.400  11.111
53139W        W25564   2.187  42.928   1.952
53140W        W25565  26.998  25.019   4.667
53141W        W25566   1.247  22.717   5.020
53142W        W25567  28.854  24.567   3.587
53143W        W25568  35.910  29.136   2.577
53144W        W25569  19.033  38.126  14.332
53145W        W25570  22.929  13.609  12.672
53146W        W25571  15.636  20.618  10.695
53147W        W25572   3.734   2.875  11.904
53148W        W25573  37.521  17.750   0.319
53149W        W25574  11.176  37.793  13.782
53150W        W25575   6.224  22.277  10.770
53151W        W25576  16.645  29.050  10.705
53152W        W25577  22.249  10.077  12.048
53153W        W25578  33.978  43.356   4.654
53154W        W25579  18.384  44.285   0.993
53155W        W25580  11.960  25.668   0.897
53156W        W25581  15.601  33.077  11.692
53157W        W25582  33.992  26.407  11.822
53158W        W25583  41.878  23.581   3.666
53159W        W25584  29.887   6.842   3.157
53160W        W25585  22.010  30.444  14.510
53161W        W25586   4.155   2.878  12.888
53162W        W25587  10.167  20.104   1.713
53163W        W25588   9.415  41.564  12.518
53164W        W25589  24.675  11.839  11.204
53165W        W25590  18.045  15.033   2.344
53166W        W25591  19.253  37.628   4.312
53167W        W25592  29.956  19.505   2.104
53168W        W25593  41.801  24.654   1.683
53169W        W25594  32.956  44.801  12.915
53170W        W25595  42.264  20.700  11.562
53171W        W25596  34.456  23.610  10.717
53172W        W25597  31.596   8.395   3.164
53173W        W25598  30.920  36.657  12.655
53174W        W25599   5.221  11.181   2.122
53175W        W25600  29.610  29.058   2.250
53176W        W25601  33.462  26.496   1.366
53177W        W25602  10.198  17.334  11.046
53178W        W25603  33.969  40.117   2.181
53179W        W25604  41.519  17.419   1.901
53180W        W25605   5.349  16.306  14.409
53181W        W25606  29.202  23.088  14.377
53182W        W25607  33.210  23.487  13.458
53183W        W25608  23.065   2.066  11.363
53184W        W25609  20.017  35.355   0.649
53185W        W25610  40.729  18.726  10.602
53186W        W25611  27.582  23.434  14.799
53187W        W25612  16.658  24.524  11.469
53188W        W25613  10.270  35.865  13.409
53189W        W25614  40.834  17.071   4.179
53190W        W25615  35.895   6.171   1.722
53191W        W25616   6.705  36.847   0.058
53192W        W25617  43.473  24.453  11.154
53193W        W25618  35.134  17.060   1.580
53194W        W25619  13.269  16.637  14.885
53195W        W25620  42.374  13.399  12.733
53196W        W25621   0.796  14.285   1.677
53197W        W25622   9.247   1.892  12.523
53198W        W25623  10.280  35.154  14.253
53199W        W25624  16.593  20.684  11.134
53200W        W25625  18.022  20.213   1.320
53201W        W25626   8.151  44.368  11.496
53202W        W25627  43.339  36.112  11.716
53203W        W25628  10.650   5.300   0.969
53204W        W25629  30.091  35.998   2.327
53205W        W25630   1.232  16.956   3.972
53206W        W25631  36.878   4.424  12.892
53207W        W25632  42.699   3.914   2.880
53208W        W25633  30.001  36.317  13.336
53209W        W25634  13.543  43.055  13.417
53210W        W25635  24.461  44.015   1.720
53211W        W25636   9.236  14.678   0.532
53212W        W25637  34.013  14.235  10.464
53213W        W25638  16.701  17.102   0.912
53214W        W25639  39.575  22.618   2.680
53215W        W25640  30.479  10.689   4.756
53216W        W25641   1.416  18.238  12.588
53217W        W25642  25.309   8.779   5.075
53218W        W25643   5.832  40.472  13.524
53219W        W25644  21.212  30.161   2.264
53220W        W25645   2.186   2.299  13.779
53221W        W25646  31.869   3.091   4.640
53222W        W25647  34.841  11.290   2.290
53223W        W25648   3.735  26.118  13.414
53224W        W25649  21.206  10.827   0.693
53225W        W25650  17.012   6.030  11.188
53226W        W25651   0.192  18.149  13.573
53227W        W25652  19.194  25.978  11.792
53228W        W25653  27.125   5.005   1.833
53229W        W25654  16.192  13.827  13.300
53230W        W25655  22.189  43.587   2.145
53231W        W25656  18.266   1.981   2.805
53232W        W25657  27.631   0.055   0.301
53233W        W25658  36.648   6.462  13.457
53234W        W25659  28.764  40.068   0.270
53235W        W25660  24.636  13.911   4.798
53236W        W25661  39.745  32.518  13.830
53237W        W25662  35.411  13.682   3.151
53238W        W25663  11.808   5.382   2.248
53239W        W25664  14.220  32.391   1.389
53240W        W25665  10.423  17.055   0.262
53241W        W25666  40.364   2.031  13.581
53242W        W25667  19.943  33.511  13.037
53243W        W25668  21.694   9.214   4.658
53244W        W25669  21.659  17.249  14.895
53245W        W25670  11.109  25.947  11.918
53246W        W25671  40.843  11.615   4.653
53247W        W25672  37.396  24.108  12.101
53248W        W25673  28.094   8.953  10.639
53249W        W25674  37.483  36.023   3.361
53250W        W25675   3.909  16.130   0.801
53251W        W25676  41.274  41.410  11.434
53252W        W25677  30.209  22.561   4.212
53253W        W25678  27.537  15.355  11.255
53254W        W25679  29.205  10.452  12.507
53255W        W25680  41.816  43.398   2.416
53256W        W25681   2.858  21.221  14.329
53257W        W25682  41.115  37.265  13.350
53258W        W25683   1.197  39.844   0.910
53259W        W25684   8.010   9.916   5.086
53260W        W25685  36.982  17.278  13.950
53261W        W25686  44.265  12.569   4.781
53262W        W25687  35.917   2.859  10.634
53263W        W25688  37.467  18.269   0.335
53264W        W25689   6.836  22.046   3.827
53265W        W25690  31.511  40.870   3.986
53266W        W25691  31.149  37.929   3.164
53267W        W25692  27.925  40.302   0.443
53268W        W25693  22.025   8.711   0.955
53269W        W25694   9.078  18.288   4.019
53270W        W25695   0.538  22.516  11.896
53271W        W25696   7.708   3.774   0.998
53272W        W25697  34.193   8.755  11.136
53273W        W25698  17.328  24.486  11.076
53274W        W25699  23.188   3.680  12.667
53275W        W25700  18.825  44.958  11.624
53276W        W25701  19.662  10.175   1.853
53277W        W25702  32.047  10.277  10.618
53278W        W25703  41.759   2.749  11.120
53279W        W25704  44.706  12.035  11.359
53280W        W25705   7.614  39.123  13.367
53281W        W25706   4.317  12.195  13.395
53282W        W25707  22.532  30.381   3.727
53283W        W25708  24.124  19.018   9.800
53284W        W25709  24.141   8.985   4.093
53285W        W25710   2.247   2.132   3.262
53286W        W25711  35.397  12.392  10.724
53287W        W25712  14.188  35.118   0.349
53288W        W25713  40.957   0.667  13.331
53289W        W25714  39.554  16.181   2.799
53290W        W25715  34.360  32.056   4.858
53291W        W25716   2.141  21.065  11.172
53292W        W25717  34.918   0.263   1.214
53293W        W25718  16.272  29.083  11.080
53294W        W25719  42.942  30.141   4.882
53295W        W25720  12.583  18.153  13.787
53296W        W25721  38.827  11.149   2.299
53297W        W25722  25.221  22.194  13.975
53298W        W25723  42.273  28.125   2.828
53299W        W25724   5.242   2.530   4.085
53300W        W25725   0.316  27.695  11.127
53301W        W25726   7.746  38.253   2.704
53302W        W25727   5.642  11.304  12.011
53303W        W25728  17.230  44.733   0.025
53304W        W25729  30.474  28.049   4.766
53305W        W25730  10.730  40.301   4.284
53306W        W25731  33.133  30.239  14.473
53307W        W25732  39.053  22.012  13.518
53308W        W25733  11.845  32.392   1.435
53309W        W25734  26.188  35.523   4.448
53310W        W25735  35.116  23.428  14.808
53311W        W25736  40.017  32.633  13.412
53312W        W25737  29.018   3.238  10.562
53313W        W25738  32.206  19.527   3.359
53314W        W25739  22.135  30.688   3.628
53315W        W25740  30.594   1.934   4.508
53316W        W25741  33.590   2.842   1.655
53317W        W25742  21.538  43.542  14.448
53318W        W25743  31.841  18.736   0.025
53319W        W25744  33.487  19.118  11.061
53320W        W25745  23.747   1.146   0.506
53321W        W25746  27.322  17.595   2.400
53322W        W25747  29.006  21.713   0.790
53323W        W25748  36.971  17.148   5.156
53324W        W25749  41.739  15.813   0.418
53325W        W25750   8.111  18.510  10.942
53326W        W25751  36.576  36.933   3.684
53327W        W25752  18.887  15.841  13.790
53328W        W25753  37.301  42.933  12.853
53329W        W25754  27.087  13.011   0.346
53330W        W25755  22.546  38.948  11.618
53331W        W25756  15.090  30.348   0.709
53332W        W25757  40.102  18.104  14.952
53333W        W25758  40.534   7.197   2.259
53334W        W25759  23.215  17.783   0.472
53335W        W25760  12.961  14.709  13.630
53336W        W25761  10.789  42.562  14.709
53337W        W25762   4.249  11.179  11.659
53338W        W25763  41.986  31.700  11.182
53339W        W25764  43.398  23.581  14.913
53340W        W25765  20.591  33.086   4.744
53341W        W25766  30.384  13.800  10.763
53342W        W25767  24.484  27.934  13.593
53343W        W25768   1.178  11.869   4.451
53344W        W25769  41.467  43.355  13.302
53345W        W25770  33.770  35.950  14.840
53346W        W25771  30.916  17.870  13.694
53347W        W25772  12.620   1.448  12.764
53348W        W25773   7.390   0.860  12.621
53349W        W25774  21.650  24.122  10.675
53350W        W25775   6.440  33.043   1.297
53351W        W25776  28.507  25.278  11.507
53352W        W25777  15.234  36.079   4.408
53353W        W25778  19.275  13.688   2.434
53354W        W25779   8.548  15.604  14.907
53355W        W25780  13.139  38.290   1.213
53356W        W25781  16.379   2.837  14.048
53357W        W25782   2.211  22.676  13.067
53358W        W25783  38.916  20.601   2.733
53359W        W25784  43.765  16.509   4.110
53360W        W25785  24.505  35.427   0.237
53361W        W25786  30.637   8.743  14.839
53362W        W25787  41.333  12.789   4.622
53363W        W25788  44.066  22.976  14.622
53364W        W25789   4.335  10.280  12.165
53365W        W25790  19.952  34.178   2.276
53366W        W25791  32.136   5.621   3.562
53367W        W25792   0.511   3.670   4.676
53368W        W25793  39.108  39.395   4.566
53369W        W25794  30.871  15.057  11.032
53370W        W25795  42.606  43.088   1.153
53371W        W25796  41.400  11.166   2.850
53372W        W25797  10.603  35.638   2.215
53373W        W25798   3.315  16.525   2.282
53374W        W25799  24.257   9.576  14.989
53375W        W25800  38.496  24.636   2.287
53376W        W25801  16.450  21.393  14.477
53377W        W25802   1.048   6.574  11.773
53378W        W25803  42.435  28.228  13.291
53379W        W25804   1.212  31.355  11.212
53380W        W25805  16.318  14.069  13.964
53381W        W25806  28.004  32.212  12.052
53382W        W25807  19.630   9.735   0.650
53383W        W25808  24.566  36.127   1.396
53384W        W25809  25.897  27.703   1.006
53385W        W25810   3.294  20.540  10.827
53386W        W25811  40.411  27.567  13.611
53387W        W25812  35.584   9.078  11.079
53388W        W25813  16.721  35.299  11.506
53389W        W25814  34.805  27.983  10.379
53390W        W25815  25.026  18.811  14.766
53391W        W25816  26.648  24.439   3.294
53392W        W25817  42.016  34.962   0.760
53393W        W25818  21.258  34.974   0.789
53394W        W25819  17.759  19.578   2.823
53395W        W25820  20.783   8.190   2.141
53396W        W25821  30.024  27.311   2.287
53397W        W25822  36.625  22.713  10.161
53398W        W25823  40.127   4.082   3.477
53399W        W25824  10.802  34.352  10.663
53400W        W25825  13.233   6.333   5.047
53401W        W25826  34.799  21.181  13.037
53402W        W25827  11.825  19.709   4.697
53403W        W25828  19.353  20.245   3.791
53404W        W25829   2.558  26.963  11.847
53405W        W25830  41.552  18.075  14.924
53406W        W25831  23.341  27.178  12.518
53407W        W25832   1.791  24.902   0.942
53408W        W25833  36.530  25.468   3.228
53409W        W25834  38.430  35.624   3.852
53410W        W25835  16.441  23.401   2.161
53411W        W25836   5.882  36.000  14.700
53412W        W25837  26.763  37.331  12.473
53413W        W25838   1.423   5.511   1.240
53414W        W25839  38.859  15.046  10.666
53415W        W25840  10.639  37.014   3.594
53416W        W25841  10.752  13.587   4.527
53417W        W25842  16.130  34.099   4.549
53418W        W25843  40.538  40.342  11.238
53419W        W25844   2.789  11.765  12.752
53420W        W25845  35.819   1.907   1.268
53421W        W25846  40.431   2.953  10.778
53422W        W25847  38.547  29.142  13.712
53423W        W25848  23.191   8.856  11.940
53424W        W25849  18.133  24.674   3.269
53425W        W25850  21.288  28.714  11.685
53426W        W25851  28.754  22.168   0.904
53427W        W25852   6.926  36.356  13.456
53428W        W25853  37.950   3.421   1.020
53429W        W25854  21.754  28.402   4.558
53430W        W25855  28.473  44.919  11.672
53431W        W25856   9.122  20.676  12.997
53432W        W25857   3.862  35.860   4.007
53433W        W25858  18.676  12.761  11.020
53434W        W25859  21.688   4.017   0.859
53435W        W25860  38.750  35.218   1.814
53436W        W25861  14.133  40.919  13.464
53437W        W25862  14.155  38.387   2.165
53438W        W25863  13.882  10.341  10.607
53439W        W25864  21.724   3.974   2.773
53440W        W25865  28.737  31.812   4.358
53441W        W25866  15.406  17.578  13.073
53442W        W25867  39.412   7.933   1.781
53443W        W25868  18.264   5.855  13.758
53444W        W25869  27.378  11.163  13.268
53445W        W25870  13.345  29.687  13.979
53446W        W25871  22.565  14.111  11.139
53447W        W25872  36.329   2.694   2.403
53448W        W25873  17.696  24.640   1.133
53449W        W25874  42.801   3.840   0.224
53450W        W25875  23.147   3.702   2.351
53451W        W25876  22.091  13.709   0.855
53452W        W25877  12.665  27.930  12.026
53453W        W25878  13.093  13.362  13.414
53454W        W25879   4.412  19.031   4.248
53455W        W25880  40.061  33.484  12.087
53456W        W25881   7.363  23.861  11.667
53457W        W25882  40.001  17.720   3.918
53458W        W25883  34.843  41.496  13.019
53459W        W25884   7.068  24.191  11.944
53460W        W25885  16.528   9.202   2.823
53461W        W25886   6.788  32.627  13.151
53462W        W25887  14.606  31.188   3.179
53463W        W25888  19.372  11.425   4.147
53464W        W25889  23.873  30.350  14.910
53465W        W25890  40.883  27.478   1.136
53466W        W25891   9.192  42.431   2.650
53467W        W25892  29.906  24.527   4.696
53468W        W25893  41.725  34.518   4.119
53469W        W25894  35.373  26.727  14.406
53470W        W25895  20.173  31.689   2.366
53471W        W25896  43.339  16.143  11.457
53472W        W25897   9.979   6.139  11.035
53473W        W25898  37.479  27.202   1.674
53474W        W25899  12.339  43.855   3.339
53475W        W25900  39.032  20.149  13.975
53476W        W25901   0.064  36.942  12.531
53477W        W25902  12.088  21.709  11.514
53478W        W25903  30.777   4.163   2.973
53479W        W25904  14.820  10.381   2.863
53480W        W25905  17.101  18.206  12.938
53481W        W25906  23.415  27.060   4.744
53482W        W25907  24.234  38.111  11.989
53483W        W25908  10.840  43.984  14.869
53484W        W25909  22.567  18.752  13.036
53485W        W25910  10.314   1.744   0.282
53486W        W25911  32.081   6.934  13.048
53487W        W25912  23.047  41.709  11.660
53488W        W25913   4.354  20.644  10.723
53489W        W25914  22.998  24.427   3.610
53490W        W25915  14.433  30.023   4.101
53491W        W25916  41.066  31.596   3.980
53492W        W25917  40.811  41.822   3.182
53493W        W25918  17.311  25.677  12.922
53494W        W25919   7.667  34.679  12.171
53495W        W25920  22.133  20.722   0.842
53496W        W25921  22.611  22.934   1.897
53497W        W25922  32.325   5.642  11.746
53498W        W25923   6.405  36.751   1.150
53499W        W25924  37.915  27.938  12.660
53500W        W25925  31.019  37.093   1.389
53501W        W25926   6.924  29.058   3.136
53502W        W25927  11.539  34.829  12.794
53503W        W25928  30.378  21.286  10.622
53504W        W25929  13.963  16.194   1.486
53505W        W25930   6.946  25.036   2.328
53506W        W25931   1.842  25.749  12.413
53507W        W25932  41.475  27.335   3.812
53508W        W25933   1.374   0.875   3.257
53509W        W25934  34.585  37.768   2.221
53510W        W25935  35.664  39.787   0.422
53511W        W25936  13.367   3.881  13.478
53512W        W25937  28.646  13.163  11.080
53513W        W25938  29.673  14.630  14.041
53514W        W25939  37.923  17.658   1.573
53515W        W25940   7.108  27.692   0.761
53516W        W25941  22.064  25.134   4.966
53517W        W25942  34.172  40.377  12.458
53518W        W25943   4.684  21.299  13.935
53519W        W25944   1.741   5.338  13.871
53520W        W25945  43.223  43.801   0.755
53521W        W25946   9.199  42.515  14.094
53522W        W25947  10.714   4.428   0.993
53523W        W25948  34.898  30.974  12.030
53524W        W25949  20.864  30.614   1.285
53525W        W25950   6.797  32.325  11.171
53526W        W25951  34.392  32.015   2.269
53527W        W25952  38.844  18.224   2.742
53528W        W25953   5.975  26.400   2.372
53529W        W25954  25.592  27.065   1.849
53530W        W25955  10.210   6.313  12.400
53531W        W25956  34.267  14.565  13.098
53532W        W25957  16.604   7.945   0.605
53533W        W25958  21.161  15.817   5.112
53534W        W25959  14.182  33.719   4.169
53535W        W25960  33.946  42.543  12.128
53536W        W25961  16.844  39.303   3.687
53537W        W25962  43.698   2.374  11.988
53538W        W25963   4.977   8.918  11.456
53539W        W25964  23.183  10.264   4.050
53540W        W25965  33.373   9.798   1.454
53541W        W25966   7.937  39.826  13.792
53542W        W25967  38.796  38.581   3.372
53543W        W25968  22.072  30.077  10.843
53544W        W25969  36.235  26.530   4.268
53545W        W25970  28.692   1.934  14.842
53546W        W25971  34.478  10.244   1.239
53547W        W25972  13.239   1.078   0.097
53548W        W25973  23.795  27.880  11.626
53549W        W25974   8.221  41.362  13.411
53550W        W25975  42.100  32.910   4.175
53551W        W25976  11.087   6.413  10.184
53552W        W25977  30.049  22.810   3.314
53553W        W25978   7.996  18.661  13.486
53554W        W25979  27.669  18.173  12.103
53555W        W25980  24.377  39.957   0.737
53556W        W25981  27.472  30.015  11.836
53557W        W25982  31.244  35.564   1.159
53558W        W25983  13.172   3.244  10.556
53559W        W25984  27.275  39.990  12.200
53560W        W25985  41.815  20.588  12.075
53561W        W25986  24.725  21.991  12.882
53562W        W25987   3.446  29.831  13.824
53563W        W25988   5.401  24.686  12.632
53564W        W25989  15.092  17.174  10.977
53565W        W25990  44.459   3.712  11.610
53566W        W25991  44.718  34.775  11.552
53567W        W25992  21.141  14.333   2.790
53568W        W25993   9.710  19.364  13.297
53569W        W25994  33.615   9.808   0.468
53570W        W25995  42.512   4.807   4.181
53571W        W25996  12.612  24.601  14.501
53572W        W25997   3.315  42.525  11.171
53573W        W25998  33.465  33.872  12.670
53574W        W25999  10.638  24.773   0.463
53575W        W26000  36.909  23.185  13.518
53576W        W26001   7.644  25.872  14.873
53577W        W26002   9.321  22.247  13.125
53578W        W26003   7.846   2.343  14.865
53579W        W26004  31.340  19.025  11.575
53580W        W26005  10.924  38.390  13.427
53581W        W26006  17.551  26.580  13.811
53582W        W26007  21.116   3.668  14.472
53583W        W26008  17.918  15.871   3.624
53584W        W26009  33.061  21.536   2.382
53585W        W26010  36.923   7.958  13.042
53586W        W26011   3.812   8.688  10.261
53587W        W26012  37.004   3.471   0.627
53588W        W26013  30.963  22.075  13.066
53589W        W26014  43.001   1.775   1.090
53590W        W26015   9.202   2.997   2.755
53591W        W26016   7.278  29.707   0.939
53592W        W26017  23.306  25.713   3.577
53593W        W26018   1.839  26.812  12.575
53594W        W26019   4.873   7.179   3.791
53595W        W26020   8.223  16.100  12.446
53596W        W26021  25.924  38.160   0.736
53597W        W26022  34.840  26.418  11.928
53598W        W26023  26.088   3.314   2.565
53599W        W26024   4.275  19.743  12.528
53600W        W26025  22.184  24.149   4.066
53601W        W26026  35.075  32.673   0.373
53602W        W26027  16.698   9.386   4.526
53603W        W26028  10.882   0.061   0.008
53604W        W26029  12.186   4.642  13.447
53605W        W26030  22.021   3.810   3.798
53606W        W26031  31.128  24.595   1.380
53607W        W26032  12.330  11.855  12.129
53608W        W26033  33.140  16.749  11.975
53609W        W26034  27.401  35.601   3.793
53610W        W26035  10.813  10.721   2.344
53611W        W26036  23.634  27.020   1.429
53612W        W26037  32.589  24.732   3.465
53613W        W26038  17.778  11.637  14.391
53614W        W26039  28.925  35.328   2.354
53615W        W26040  22.622  14.907   1.307
53616W        W26041   2.198   5.525   2.712
53617W        W26042  39.918   2.232   4.080
53618W        W26043  43.546  25.538   4.141
53619W        W26044  17.802  30.713   3.693
53620W        W26045   7.537  17.616  11.178
53621W        W26046  39.586  10.701  11.516
53622W        W26047  28.427   7.186   4.165
53623W        W26048  17.706  35.333  11.146
53624W        W26049   3.424  41.649  13.886
53625W        W26050  23.690  32.622  14.226
53626W        W26051  15.303  10.317   0.704
53627W        W26052  14.387  11.669   0.011
53628W        W26053   9.117   9.915   1.212
53629W        W26054  20.826  21.063   4.640
53630W        W26055  23.101   3.298  11.899
53631W        W26056   7.395  15.915   4.052
53632W        W26057  19.834  21.180   3.763
53633W        W26058  17.607  24.074   1.972
53634W        W26059  37.793  39.980  11.082
53635W        W26060   4.735   2.762   0.414
53636W        W26061   0.959  34.140  14.148
53637W        W26062  25.647  18.218  11.049
53638W        W26063  41.205  14.444   3.790
53639W        W26064  32.315  42.831  12.907
53640W        W26065  20.275  10.825  12.013
53641W        W26066   1.170  35.523  12.957
53642W        W26067  31.350  42.906  11.939
53643W        W26068  13.526  10.291   3.864
53644W        W26069   8.047  17.624  11.024
53645W        W26070  12.089  33.424  12.095
53646W        W26071  31.988  22.168   3.739
53647W        W26072   4.523   7.228  13.923
53648W        W26073  27.463  25.958  13.985
53649W        W26074  38.064  15.122   4.152
53650W        W26075  10.217  44.250  12.386
53651W        W26076  22.565  22.801  12.532
53652W        W26077   7.348  12.545   0.444
53653W        W26078  38.516   2.400  11.716
53654W        W26079  23.462  29.186  11.224
53655W        W26080  29.549  38.403  12.848
53656W        W26081  13.729  11.737  11.675
53657W        W26082  37.522  33.549  13.186
53658W        W26083  41.424  21.097   1.320
53659W        W26084   9.363  20.057   0.418
53660W        W26085   4.882  37.109  11.621
53661W        W26086  35.528  10.117   3.802
53662W        W26087  18.485  38.798  14.836
53663W        W26088  31.588  17.041  13.942
53664W        W26089   2.725   8.223   3.874
53665W        W26090  21.214  10.766   2.135
53666W        W26091  30.481  29.446  10.797
53667W        W26092  18.095  18.046  11.682
53668W        W26093   7.968  37.481   1.395
53669W        W26094  12.182   6.766   4.592
53670W        W26095  14.813  36.903  13.890
53671W        W26096  18.548  16.822  12.502
53672W        W26097   7.827   6.678   2.354
53673W        W26098  37.576   7.276  10.564
53674W        W26099   0.698  17.691  13.606
53675W        W26100  20.049   3.210   4.151
53676W        W26101  40.473  28.371   1.146
53677W        W26102  10.189  23.701   2.026
53678W        W26103   2.338  22.293  14.911
53679W        W26104  28.455  41.402  12.118
53680W        W26105  20.718  35.130   1.548
53681W        W26106  30.390  44.006  14.834
53682W        W26107  28.183  34.019  14.786
53683W        W26108  40.816  39.108   0.436
53684W        W26109  15.030  21.186   0.567
53685W        W26110  24.198  40.659  14.730
53686W        W26111  40.912  11.545   0.999
53687W        W26112  15.629  11.606   4.974
53688W        W26113  37.379  42.578  11.036
53689W        W26114  33.643   5.437  14.400
53690W        W26115   5.303   3.185   2.113
53691W        W26116  34.685  10.717   1.372
53692W        W26117   1.221  13.082   4.084
53693W        W26118   3.173  22.183   1.112
53694W        W26119  30.459  12.448  12.487
53695W        W26120  19.682   1.310  10.463
53696W        W26121  43.875   5.358  14.376
53697W        W26122  41.581  44.723  14.338
53698W        W26123  31.899  36.405  14.966
53699W        W26124  20.780  21.641   3.117
53700W        W26125  38.366  18.410   2.648
53701W        W26126  30.343  11.135  14.869
53702W        W26127   3.927  19.962  12.866
53703W        W26128  43.186  44.884   4.300
53704W        W26129   4.286  22.777  13.916
53705W        W26130   8.588  28.423  10.529
53706W        W26131  42.375  25.674  11.703
53707W        W26132  11.098  41.682  12.062
53708W        W26133  28.440  14.901  14.982
53709W        W26134  39.952  35.683  12.483
53710W        W26135  37.510  12.766  13.504
53711W        W26136  22.657  14.837  14.450
53712W        W26137  24.309  23.973   4.149
53713W        W26138  10.387  42.081  10.719
53714W        W26139   2.305   1.149  11.407
53715W        W26140  34.933   7.936  13.953
53716W        W26141  11.765  16.808   1.248
53717W        W26142  28.262  29.482  11.474
53718W        W26143  22.789  22.158   3.732
53719W        W26144  42.448  35.025  11.535
53720W        W26145  22.734  20.599   1.864
53721W        W26146   7.290  38.792   3.184
53722W        W26147  27.098  13.629   1.444
53723W        W26148  37.150   3.615   4.568
53724W        W26149  15.054  23.636   3.711
53725W        W26150  18.722  41.446  13.888
53726W        W26151  13.725   0.864  10.897
53727W        W26152   7.165  24.008  14.812
53728W        W26153   8.524  23.550  13.209
53729W        W26154   8.454   2.824  14.966
53730W        W26155  18.615  27.827  10.598
53731W        W26156  29.680   7.185   0.406
53732W        W26157  36.467  23.515   1.650
53733W        W26158  12.692  43.868  14.663
53734W        W26159  35.601  16.218   0.430
53735W        W26160  33.526  28.448   3.157
53736W        W26161  26.966  40.092  12.586
53737W        W26162  31.065  23.931   2.355
53738W        W26163  20.208  41.505  14.367
53739W        W26164   6.115   5.685  14.580
53740W        W26165  26.383  39.549   2.408
53741W        W26166  20.324  22.214  11.962
53742W        W26167   7.751  25.830  10.763
53743W        W26168   2.858   0.230   0.845
53744W        W26169   6.132   0.509  13.722
53745W        W26170  36.911   6.643  14.853
53746W        W26171   9.184  40.499   1.850
53747W        W26172  16.484  35.539   0.423
53748W        W26173  27.476  24.835  12.845
53749W        W26174  17.264  42.068   0.185
53750W        W26175  25.462  16.012   3.085
53751W        W26176  10.321   5.664  10.320
53752W        W26177  23.028   8.150  11.283
53753W        W26178   6.819  31.547   0.805
53754W        W26179  28.463   6.584   2.335
53755W        W26180  15.555   1.869  11.519
53756W        W26181  21.220  10.567  14.437
53757W        W26182   9.820  17.473   3.710
53758W        W26183  44.236  44.174   3.250
53759W        W26184   4.251  25.723  12.765
53760W        W26185  29.534   1.485   2.782
53761W        W26186  24.185  38.983  13.816
53762W        W26187  41.338  19.127   2.450
53763W        W26188  22.645  16.651   0.976
53764W        W26189  12.094  27.774  13.579
53765W        W26190  17.042  20.108   0.198
53766W        W26191  11.415  32.085   2.157
53767W        W26192   9.201  18.021  14.222
53768W        W26193   4.119   8.081  14.301
53769W        W26194  14.647  20.904  14.118
53770W        W26195  21.202  35.723   2.372
53771W        W26196   4.750   6.796  14.940
53772W        W26197  34.842  16.514  12.588
53773W        W26198  27.107  12.713   4.441
53774W        W26199  36.780  17.487  10.697
53775W        W26200  37.727  34.761  14.114
53776W        W26201  40.139  13.747  14.448
53777W        W26202  13.340  20.678  14.233
53778W        W26203  25.170  13.856   4.199
53779W        W26204  13.988  40.471   1.771
53780W        W26205   7.971  27.496   2.858
53781W        W26206  22.066  15.676  13.734
53782W        W26207  27.587  35.348  13.442
53783W        W26208  32.434  26.174   2.881
53784W        W26209  16.149   2.222   2.284
53785W        W26210   9.657   4.816   1.953
53786W        W26211  40.657  22.594   5.269
53787W        W26212  31.018  17.708   3.766
53788W        W26213  16.244   9.651  14.446
53789W        W26214  13.239  36.891  11.543
53790W        W26215  21.244  24.885   0.010
53791W        W26216  42.260  23.557   4.400
53792W        W26217  34.129  26.566   4.282
53793W        W26218   2.098  24.826  11.466
53794W        W26219  23.188  17.580  14.117
53795W        W26220  44.464   9.122  11.463
53796W        W26221   5.261  40.016  14.235
53797W        W26222  27.113  33.467  11.501
53798W        W26223  30.851  40.452   5.084
53799W        W26224  14.197  33.147   0.431
53800W        W26225  12.829  18.900   2.418
53801W        W26226  34.066  16.612   0.758
53802W        W26227  42.278   9.638  14.840
53803W        W26228  29.039   6.730  13.475
53804W        W26229   6.382   6.326  12.199
53805W        W26230  31.555   8.902  13.524
53806W        W26231  44.975   8.711  13.937
53807W        W26232  40.928  25.246  12.724
53808W        W26233  36.538  39.335   4.906
53809W        W26234   0.200  33.813   2.907
53810W        W26235   6.119  25.200  12.542
53811W        W26236  31.102  35.757   0.640
53812W        W26237  22.444  41.778   4.715
53813W        W26238  22.270   6.343  10.607
53814W        W26239  36.414  14.618  13.324
53815W        W26240  38.932   4.589   2.703
53816W        W26241  27.956  16.832   1.068
53817W        W26242  28.407  23.544   2.412
53818W        W26243  12.681  23.740   4.673
53819W        W26244   4.191  25.966   2.005
53820W        W26245   2.879  23.764   2.578
53821W        W26246  19.241  39.981   0.748
53822W        W26247  20.411  12.913   0.363
53823W        W26248  36.990   1.413   1.745
53824W        W26249  40.137   9.156   2.413
53825W        W26250  12.094  34.479   1.381
53826W        W26251   8.716  14.315  13.779
53827W        W26252  33.351  24.002  11.985
53828W        W26253  44.086   9.938  11.459
53829W        W26254  32.365  43.305   1.349
53830W        W26255   3.153  27.885  14.440
53831W        W26256   4.263  36.805   3.668
53832W        W26257  42.051  17.849  11.657
53833W        W26258  31.573  22.651   2.010
53834W        W26259  40.937  26.568   1.678
53835W        W26260  12.282  18.831  14.057
53836W        W26261  39.379  44.895   4.267
53837W        W26262  14.185  19.758   3.213
53838W        W26263  12.346   3.824   0.930
53839W        W26264  41.171  10.688   3.758
53840W        W26265   4.535  13.861  11.667
53841W        W26266   6.769   0.629  12.451
53842W        W26267  24.754  30.562  14.203
53843W        W26268  35.350  11.340   2.259
53844W        W26269  36.635  27.775   0.033
53845W        W26270  16.327  37.907   3.177
53846W        W26271  42.368  27.157   4.260
53847W        W26272  15.784  18.174  13.646
53848W        W26273  39.316  33.596  12.705
53849W        W26274   7.182  37.373   2.657
53850W        W26275  28.099  43.746   5.126
53851W        W26276  32.441  30.713  12.309
53852W        W26277   8.150  24.650   5.073
53853W        W26278  24.228  36.168   0.967
53854W        W26279   8.895  38.017   0.526
53855W        W26280  27.105   0.192  11.205
53856W        W26281  15.667  26.489  12.608
53857W        W26282  32.766  37.950   2.016
53858W        W26283   2.951  19.345  11.031
53859W        W26284  19.985  44.946   3.634
53860W        W26285  22.241  18.402   4.171
53861W        W26286  42.941  10.950  11.526
53862W        W26287  11.836  44.284   2.806
53863W        W26288  14.186  16.745  14.751
53864W        W26289  39.470  37.885   3.554
53865W        W26290  24.392  10.737   3.223
53866W        W26291  33.422   2.300  13.681
53867W        W26292  31.465  44.256  14.477
53868W        W26293  10.606  17.297  12.728
53869W        W26294   5.712   3.230  13.894
53870W        W26295  28.135   8.548  11.409
53871W        W26296  29.542  22.793   2.653
53872W        W26297  30.745  36.728  11.653
53873W        W26298  37.646  15.705   4.400
53874W        W26299  24.286  11.617  11.676
53875W        W26300  18.926  35.657   5.034
53876W        W26301  11.245  19.788  10.962
53877W        W26302   0.015  15.843   2.224
53878W        W26303   2.695  22.184  13.405
53879W        W26304   6.164  41.704   5.057
53880W        W26305  28.351  11.121  14.964
53881W        W26306   5.751  23.301   3.309
53882W        W26307  19.331  41.127  11.734
53883W        W26308  28.221   0.731   4.784
53884W        W26309  41.597  33.018   0.770
53885W        W26310  31.059  29.616   5.052
53886W        W26311  44.436   7.677  11.052
53887W        W26312   3.878  31.468  14.291
53888W        W26313   4.410  29.454   1.831
53889W        W26314   7.785  40.830   2.663
53890W        W26315  18.250  12.303   1.212
53891W        W26316  32.395  14.824  14.944
53892W        W26317  22.747  20.167   3.676
53893W        W26318  33.388  16.806   2.687
53894W        W26319  21.644  44.327   2.328
53895W        W26320   3.126  21.335  11.086
53896W        W26321  22.707  18.782   1.135
53897W        W26322   7.788  20.300   2.768
53898W        W26323  33.078  13.571  12.130
53899W        W26324  15.024  42.822   5.094
53900W        W26325  36.348   1.530   0.460
53901W        W26326  12.637   4.998  11.161
53902W        W26327   7.919   9.649  12.040
53903W        W26328  28.026  25.332   2.644
53904W        W26329  37.155  21.110   1.262
53905W        W26330   7.443  36.666  12.538
53906W        W26331  18.762  29.104   4.115
53907W        W26332   3.785  19.454  10.279
53908W        W26333  29.396  28.932   0.199
53909W        W26334  44.551  34.507   1.725
53910W        W26335  39.549  42.364  13.507
53911W        W26336  42.478  27.204   2.716
53912W        W26337  40.779  32.562  13.977
53913W        W26338   8.296   6.486   3.577
53914W        W26339  15.304   0.243   3.256
53915W        W26340  18.745  19.521   3.683
53916W        W26341   7.457  28.368  11.116
53917W        W26342  41.603  11.149  14.438
53918W        W26343  35.688  23.727   5.504
53919W        W26344  12.221  33.068  13.359
53920W        W26345  22.247  22.789  13.767
53921W        W26346  33.790  36.391   3.139
53922W        W26347  26.021  30.945   4.214
53923W        W26348  40.876  30.393  13.990
53924W        W26349  39.131  36.972   3.123
53925W        W26350  24.687  40.543  12.056
53926W        W26351  20.182  27.335   1.757
53927W        W26352  14.791  42.524   2.356
53928W        W26353  17.127  22.155  13.349
53929W        W26354  22.057   9.722  14.548
53930W        W26355   8.263   8.687  10.250
53931W        W26356   3.577   0.286  12.617
53932W        W26357  31.592  35.333   2.905
53933W        W26358  11.276   3.532   1.686
53934W        W26359  11.908  20.526   0.315
53935W        W26360  18.282  40.508   4.641
53936W        W26361  37.698   1.960  11.262
53937W        W26362  41.597  24.468  12.477
53938W        W26363  32.889  12.663  12.001
53939W        W26364   7.432  30.567  13.990
53940W        W26365  39.753  12.230   0.007
53941W        W26366   2.694  21.056   0.894
53942W        W26367  18.600   8.808  11.493
53943W        W26368  23.426  35.495  11.611
53944W        W26369  33.573  30.698   1.717
53945W        W26370  18.011  38.331   3.657
53946W        W26371  37.150   0.225  13.073
53947W        W26372  23.069  16.571   3.324
53948W        W26373  41.356  27.613  10.981
53949W        W26374  18.288  34.974  14.523
53950W        W26375  20.723   1.407   3.060
53951W        W26376  23.365  31.040   0.328
53952W        W26377  37.620  41.384  13.663
53953W        W26378  36.439  37.877  14.293
53954W        W26379   1.413  35.604  14.289
53955W        W26380  28.123  13.073  12.002
53956W        W26381  17.019  37.095   3.860
53957W        W26382  32.955  25.512   1.725
53958W        W26383  25.040  10.098  12.877
53959W        W26384  28.416   2.711   0.227
53960W        W26385  14.213   7.445  12.842
53961W        W26386  14.336  30.666  14.997
53962W        W26387   4.183  31.357   2.627
53963W        W26388   6.603  10.158  11.987
53964W        W26389  30.132  20.567  13.950
53965W        W26390  14.584  19.619  14.809
53966W        W26391  26.724  29.038  13.292
53967W        W26392   0.414  26.969  10.379
53968W        W26393   9.421  39.770   0.222
53969W        W26394   5.970  31.921  11.665
53970W        W26395  18.780  18.266  11.094
53971W        W26396   4.345  44.670  12.881
53972W        W26397  26.060  41.716   0.266
53973W        W26398  44.375  40.133  13.983
53974W        W26399  13.571  11.524  12.699
53975W        W26400  28.900  37.047  10.688
53976W        W26401  18.248  19.140  11.775
53977W        W26402  36.715  29.083   3.311
53978W        W26403   2.491  40.069   2.619
53979W        W26404  40.032  44.551   5.130
53980W        W26405  25.517  20.557   4.087
53981W        W26406   9.742  33.079  11.904
53982W        W26407  13.616  38.807   4.758
53983W        W26408  33.022   7.410  11.898
53984W        W26409  26.424  22.452   0.956
53985W        W26410  35.077  27.444  10.570
53986W        W26411   5.885  36.025  10.085
53987W        W26412  29.679  38.053   3.281
53988W        W26413  25.075  23.292  11.197
53989W        W26414  28.209   8.876   1.057
53990W        W26415  27.236  31.543  14.788
53991W        W26416   4.255  34.299  13.050
53992W        W26417  19.810  13.328  13.033
53993W        W26418  10.405  37.449   1.143
53994W        W26419  11.893   5.135  11.115
53995W        W26420   5.711  12.398   2.467
53996W        W26421  28.886  26.467   4.235
53997W        W26422  29.124   9.945  14.962
53998W        W26423   8.123  15.378  12.086
53999W        W26424  29.046  35.427  11.613
54000W        W26425   1.248   5.882  14.975
54001W        W26426  28.735  17.367  11.250
54002W        W26427   5.053  39.262   3.930
54003W        W26428  38.419  18.149   0.376
54004W        W26429  28.598   8.443  11.648
54005W        W26430  19.791  13.563   5.022
54006W        W26431  19.241  22.791  12.938
54007W        W26432   5.297  10.427  12.030
54008W        W26433   9.298   7.691  10.405
54009W        W26434   6.709  14.554  11.187
54010W        W26435   9.799  34.542   1.350
54011W        W26436  31.325  29.401  13.581
54012W        W26437  42.535  34.516  14.476
54013W        W26438  40.549   8.608   2.670
54014W        W26439  32.788  34.673   0.732
54015W        W26440  22.608  36.288   2.218
54016W        W26441  35.744   0.521   2.848
54017W        W26442  22.565  23.833  11.244
54018W        W26443  35.632  12.637   2.183
54019W        W26444   4.712  12.338   0.737
54020W        W26445   5.278   9.788   1.683
54021W        W26446  38.885  23.458  10.681
54022W        W26447  22.264  30.408   0.510
54023W        W26448  38.211  42.576   2.798
54024W        W26449  30.698  28.118  13.652
54025W        W26450  36.114  14.213   0.827
54026W        W26451  39.976  35.630   1.394
54027W        W26452  11.043  26.639   0.413
54028W        W26453  42.841  19.718  11.626
54029W        W26454   9.302   0.794  14.283
54030W        W26455  16.254  13.627  12.495
54031W        W26456  14.772   3.647  13.377
54032W        W26457  40.248  22.289  13.080
54033W        W26458  27.798  23.223   0.894
54034W        W26459   8.301  43.898  10.778
54035W        W26460  18.564  42.028  12.378
54036W        W26461  36.000  18.023  10.429
54037W        W26462  35.939  44.901  10.490
54038W        W26463   5.778  17.675   1.631
54039W        W26464  44.461   3.760   1.710
54040W        W26465  38.406  36.838  11.946
54041W        W26466  31.197  17.808   1.486
54042W        W26467  44.304  41.345  10.083
54043W        W26468  43.369   8.087  14.245
54044W        W26469  12.711  24.266   4.567
54045W        W26470  36.414  16.169   3.675
54046W        W26471  16.781   5.304  12.267
54047W        W26472  10.655  22.322  13.992
54048W        W26473   9.910  10.273   1.315
54049W        W26474  13.807   3.003   3.171
54050W        W26475   3.195  27.609  11.916
54051W        W26476   2.367  19.465  13.084
54052W        W26477  39.496   6.245  12.417
54053W        W26478  27.370   6.348   2.430
54054W        W26479  17.274  10.974  14.032
54055W        W26480  28.151  29.926   3.286
54056W        W26481  27.686  20.585   2.306
54057W        W26482  31.690   9.420   3.069
54058W        W26483  26.033  29.735  11.986
54059W        W26484   0.851  42.986   0.498
54060W        W26485   0.441  20.916  13.748
54061W        W26486  23.035  20.164   1.730
54062W        W26487   8.081  26.579   0.776
54063W        W26488  24.677  26.609  11.009
54064W        W26489  26.554  12.634  14.372
54065W        W26490  20.634  21.460  13.566
54066W        W26491  43.276  32.028  14.504
54067W        W26492  22.016  32.839   4.230
54068W        W26493  39.375  42.219  14.471
54069W        W26494   4.578  14.539  13.049
54070W        W26495  43.911  42.332   4.374
54071W        W26496  38.408  12.038   1.978
54072W        W26497  11.795   0.367   3.758
54073W        W26498  12.332  42.832   2.845
54074W        W26499   7.758  26.073  11.206
54075W        W26500  42.816   3.461  12.400
54076W        W26501  23.522  30.109   0.769
54077W        W26502  39.653  27.203  13.066
54078W        W26503  39.147  23.608   1.239
54079W        W26504  11.811  34.937   0.944
54080W        W26505   1.978  19.480   1.829
54081W        W26506  39.836   4.778   3.570
54082W        W26507  12.143  37.024  14.823
54083W        W26508  34.965  35.671  12.508
54084W        W26509   1.290   9.389  11.687
54085W        W26510  12.323   9.622   2.127
54086W        W26511  37.524  39.992   2.186
54087W        W26512  17.046  41.931   3.778
54088W        W26513  42.429  31.725   1.833
54089W        W26514   7.781  16.717   4.363
54090W        W26515  21.495  20.470   2.253
54091W        W26516  14.484  35.442  14.424
54092W        W26517   9.171  24.410  11.587
54093W        W26518  41.290  25.097  10.822
54094W        W26519  39.752  34.063  11.080
54095W        W26520  28.637  16.413  11.870
54096W        W26521   5.958  10.235  13.639
54097W        W26522  38.849  35.701  13.794
54098W        W26523  18.825  11.289   0.366
54099W        W26524  36.211  10.927  12.668
54100W        W26525  21.283  38.756  12.492
54101W        W26526  28.719  31.926  13.871
54102W        W26527  14.292  18.043  13.530
54103W        W26528   8.680  27.625   1.093
54104W        W26529  36.297   2.570  13.531
54105W        W26530  24.511  17.235   0.270
54106W        W26531  25.970   1.856   1.903
54107W        W26532   6.263  22.604   2.396
54108W        W26533   4.841  24.159  11.926
54109W        W26534  39.553  42.885   3.671
54110W        W26535   5.159   8.227   0.109
54111W        W26536  17.665   3.427  11.211
54112W        W26537  24.951   3.468   2.695
54113W        W26538  17.128  12.725   5.085
54114W        W26539   9.492  27.516   4.068
54115W        W26540  42.938  18.707   0.482
54116W        W26541  17.610  18.375  11.477
54117W        W26542   2.016  14.211  11.442
54118W        W26543  31.561  19.477  14.583
54119W        W26544   6.502  18.255  12.627
54120W        W26545  35.957  15.255   0.748
54121W        W26546  31.466  41.730   0.471
54122W        W26547  31.448  29.186   1.818
54123W        W26548  13.252  11.375  12.176
54124W        W26549  38.321   4.238   4.365
54125W        W26550  10.955  36.132  11.003
54126W        W26551  42.706  28.027  12.382
54127W        W26552  13.347  26.919   3.673
54128W        W26553  32.473  20.067   0.867
54129W        W26554  38.256  26.574   0.500
54130W        W26555   8.670   9.809   4.426
54131W        W26556  42.757  25.599  14.989
54132W        W26557  32.994  18.722  14.102
54133W        W26558  37.457  44.024   4.493
54134W        W26559  23.076  36.313   3.273
54135W        W26560  27.407  40.499   0.765
54136W        W26561  25.343  13.771  13.437
54137W        W26562  19.294  32.391   0.839
54138W        W26563  16.066  16.263   4.096
54139W        W26564  24.716  37.304   4.119
54140W        W26565  14.891  13.680  11.125
54141W        W26566  25.273  17.873  10.998
54142W        W26567  15.531  44.281   2.207
54143W        W26568  34.489  43.289   4.755
54144W        W26569  22.090   4.209  11.936
54145W        W26570  31.439  30.941   4.380
54146W        W26571  36.471  21.543   2.929
54147W        W26572  40.176  40.186   1.100
54148W        W26573  15.661  29.051  10.414
54149W        W26574   7.914  41.323  10.478
54150W        W26575  24.930  41.796   4.109
54151W        W26576   9.379  40.003  11.641
54152W        W26577   9.920  35.712  12.793
54153W        W26578  15.633   3.761   0.473
54154W        W26579  41.414  12.670   3.130
54155W        W26580  11.047  18.553  12.451
54156W        W26581  22.565  40.195  10.315
54157W        W26582  24.110  26.882   0.474
54158W        W26583  33.986   7.509   3.015
54159W        W26584  35.876  14.248   2.844
54160W        W26585  14.220  24.753   4.252
54161W        W26586   9.476  18.085   3.220
54162W        W26587   5.995   5.753  14.079
54163W        W26588   1.537  19.690   3.312
54164W        W26589  11.073   1.685   1.457
54165W        W26590   1.926  20.250   0.281
54166W        W26591  41.787  44.327  12.992
54167W        W26592  16.223  30.682   0.046
54168W        W26593   1.961  37.936   0.905
54169W        W26594  16.727  19.153   1.906
54170W        W26595  31.398  44.810   0.374
54171W        W26596  16.523  16.307  11.550
54172W        W26597   2.481   5.741  14.095
54173W        W26598  44.204   3.271   3.344
54174W        W26599   6.465  12.180   1.190
54175W        W26600  37.509   8.911  11.555
54176W        W26601  41.364  36.493   1.704
54177W        W26602   0.940  12.973  10.293
54178W        W26603  18.291  27.093  11.070
54179W        W26604  25.108  33.185  13.526
54180W        W26605  31.375   9.932   0.363
54181W        W26606  17.031  10.834   0.360
54182W        W26607   6.252   1.879  12.595
54183W        W26608  36.043  15.588  14.798
54184W        W26609  42.392  23.849   1.285
54185W        W26610  27.122   6.751   4.156
54186W        W26611  44.796  22.012  13.847
54187W        W26612  11.335  14.063  12.264
54188W        W26613  39.610   8.819  14.381
54189W        W26614  20.596  20.557   0.544
54190W        W26615  32.662  22.925   2.435
54191W        W26616  34.490  37.170   2.971
54192W        W26617  22.158  37.992   1.888
54193W        W26618  10.809  41.329   4.003
54194W        W26619  39.650   5.684   3.817
54195W        W26620  27.934  14.240  14.434
54196W        W26621   1.541  30.674  12.099
54197W        W26622  18.641  18.375  13.861
54198W        W26623  37.970  11.325  14.055
54199W        W26624   7.368  39.014  12.028
54200W        W26625  23.519   1.046   1.712
54201W        W26626  33.957  30.319   1.689
54202W        W26627  31.670  18.609   0.520
54203W        W26628  17.829   6.924  12.040
54204W        W26629  38.163  25.020   5.546
54205W        W26630  24.935  42.069   1.759
54206W        W26631  14.552  11.769   4.171
54207W        W26632  17.199  10.457  11.988
54208W        W26633  18.530   4.958  14.289
54209W        W26634  29.320  40.929   3.226
54210W        W26635  34.512  24.186  14.369
54211W        W26636  30.181  40.953  13.228
54212W        W26637  20.599   9.781  11.293
54213W        W26638  10.642  30.146  11.168
54214W        W26639  15.244  12.898  12.953
54215W        W26640   8.943  11.595  13.003
54216W        W26641  35.017  44.599  15.000
54217W        W26642  13.551  29.089  11.408
54218W        W26643  25.446  16.611  11.468
54219W        W26644  22.927  36.079  10.519
54220W        W26645  14.699   9.434   2.488
54221W        W26646   4.252  33.539   1.332
54222W        W26647   1.463  34.058   4.255
54223W        W26648  12.217  18.368   1.951
54224W        W26649  33.610   1.420   0.317
54225W        W26650  14.307  13.177   4.214
54226W        W26651  16.307  10.061  12.091
54227W        W26652  13.138   0.298   1.556
54228W        W26653  32.956  21.654   4.600
54229W        W26654  42.855  33.135   1.824
54230W        W26655   2.034  44.534   4.584
54231W        W26656  21.906  44.824  13.295
54232W        W26657  20.243   0.223   1.406
54233W        W26658  23.699  11.590   3.659
54234W        W26659  36.661  29.009  14.622
54235W        W26660  42.509  20.262   1.857
54236W        W26661  19.776  11.699  10.480
54237W        W26662  33.519  40.505   0.447
54238W        W26663  28.957  32.003  14.383
54239W        W26664  30.966  23.485  11.059
54240W        W26665  43.570  22.634  14.892
54241W        W26666  33.227  34.529  14.972
54242W        W26667  18.101  34.330   2.720
54243W        W26668  19.557  13.297   0.371
54244W        W26669  36.520   5.341   0.969
54245W        W26670  33.584  43.342  12.833
54246W        W26671   9.102  19.632   2.559
54247W        W26672  17.238  37.601   0.245
54248W        W26673  33.561  34.383  12.648
54249W        W26674   7.400  40.552  12.466
54250W        W26675  25.559  16.837  13.779
54251W        W26676   4.489  25.530  13.814
54252W        W26677  16.751  28.049   4.635
54253W        W26678  15.105  11.222   1.609
54254W        W26679  42.708  19.470   0.867
54255W        W26680   6.838  36.424   1.823
54256W        W26681  37.817   9.443  13.757
54257W        W26682  23.768  13.920  11.181
54258W        W26683  31.881  37.682  10.783
54259W        W26684   8.012  19.573   3.187
54260W        W26685  32.601  33.936  13.976
54261W        W26686   8.718  39.936   4.841
54262W        W26687  26.748  33.877  14.481
54263W        W26688  39.900  18.565  14.993
54264W        W26689   9.817   7.771   4.420
54265W        W26690  26.522  42.816   4.557
54266W        W26691  14.758  24.585  14.983
54267W        W26692   8.844  36.090   1.315
54268W        W26693  14.883  22.562   2.303
54269W        W26694  37.619   2.706   0.429
54270W        W26695  34.190  25.257   1.544
54271W        W26696   8.351  32.457   3.037
54272W        W26697   6.142  30.385  10.696
54273W        W26698   2.415  14.759  14.835
54274W        W26699   2.512  31.143   1.269
54275W        W26700  11.820  17.247  13.340
54276W        W26701  13.369  40.778  13.810
54277W        W26702  26.607  18.860   1.972
54278W        W26703  19.561   6.696  13.960
54279W        W26704  19.725  30.647   5.522
54280W        W26705  24.454   8.924  12.886
54281W        W26706  15.643  27.918   4.764
54282W        W26707  28.618  43.551   4.598
54283W        W26708  30.945  34.866   3.678
54284W        W26709  22.401  35.050  11.939
54285W        W26710  16.038   1.851   3.710
54286W        W26711  29.492  30.932   2.683
54287W        W26712  27.661  11.399  14.015
54288W        W26713  41.445  12.244  11.720
54289W        W26714   7.416  31.862  14.453
54290W        W26715   0.247   9.326  12.842
54291W        W26716   9.565  38.274   2.921
54292W        W26717  31.607  44.998   2.436
54293W        W26718   6.865  24.362  14.298
54294W        W26719  34.478  11.572  13.379
54295W        W26720  35.804  36.455   3.236
54296W        W26721  37.029  42.242   3.356
54297W        W26722  11.103  13.328  14.133
54298W        W26723  16.193  33.933  12.312
54299W        W26724  17.195  32.719  10.565
54300W        W26725  18.527  43.357   0.919
54301W        W26726  30.371  13.045   3.200
54302W        W26727  39.900  31.454  10.936
54303W        W26728   9.554  15.752  14.778
54304W        W26729  30.229  18.599   0.288
54305W        W26730   3.069  23.264   0.811
54306W        W26731  44.493  35.883  12.655
54307W        W26732  29.245  38.702   0.450
54308W        W26733   9.367  18.293   2.172
54309W        W26734  28.646   6.127   2.638
54310W        W26735  19.832  39.313   0.326
54311W        W26736  24.266   1.812   3.788
54312W        W26737  18.148  23.643   3.153
54313W        W26738  10.170   0.453   4.607
54314W        W26739  32.568  35.068  12.468
54315W        W26740   8.339  44.801  11.722
54316W        W26741  19.681  18.461  11.228
54317W        W26742  11.531  38.540  14.199
54318W        W26743  21.970  39.995  12.620
54319W        W26744  16.486   7.901  12.471
54320W        W26745   1.417   4.511   4.101
54321W        W26746  23.072  16.842   0.318
54322W        W26747  37.658  29.296  14.860
54323W        W26748  15.131  36.472   3.445
54324W        W26749  17.888   2.363  11.609
54325W        W26750  11.770  34.640  10.732
54326W        W26751   2.420  17.667  10.733
54327W        W26752  29.901  19.776   4.230
54328W        W26753  21.540   0.785   3.975
54329W        W26754  40.326  44.037   3.290
54330W        W26755  39.566  28.224   3.343
54331W        W26756  34.821  35.141  12.525
54332W        W26757  26.984  22.577   2.836
54333W        W26758   0.499  15.624   3.125
54334W        W26759  23.731  33.087  13.935
54335W        W26760  37.648  13.380  11.159
54336W        W26761  38.952  26.528  11.457
54337W        W26762  44.772  36.239   4.756
54338W        W26763  26.091  21.298   0.024
54339W        W26764  21.102  14.588  10.977
54340W        W26765  22.887  44.985   0.605
54341W        W26766  25.429  29.102   1.152
54342W        W26767  33.900  37.161   3.872
54343W        W26768   1.495  14.516  14.501
54344W        W26769  16.024  26.603   0.636
54345W        W26770  24.977  13.650  13.904
54346W        W26771  43.957  10.735  10.899
54347W        W26772  39.853   9.313   1.472
54348W        W26773  24.448  35.285  13.918
54349W        W26774   3.926  21.064   0.042
54350W        W26775  33.740  37.893  14.683
54351W        W26776  34.296  22.921   0.491
54352W        W26777  11.253  28.837   3.644
54353W        W26778  13.086  15.566   5.052
54354W        W26779   6.286  23.472   2.912
54355W        W26780  12.624  16.484   1.778
54356W        W26781  20.274  28.086  10.955
54357W        W26782  13.565  16.353   1.903
54358W        W26783  39.573  12.804   4.641
54359W        W26784  18.775  32.687  11.684
54360W        W26785  21.781  32.023   1.206
54361W        W26786  26.622  35.510  13.465
54362W        W26787  24.765   4.547   4.048
54363W        W26788  43.965  41.129   0.441
54364W        W26789  20.756  41.945  14.895
54365W        W26790   7.697  14.832  14.235
54366W        W26791   5.639  32.029  12.036
54367W        W26792  10.730  38.591  10.544
54368W        W26793  18.266  23.109  12.820
54369W        W26794  17.805  10.692  14.938
54370W        W26795  24.225  23.681  12.819
54371W        W26796  13.257  36.129  12.342
54372W        W26797  28.182  26.698   4.806
54373W        W26798  34.563  32.555   0.977
54374W        W26799  29.979  44.823  13.001
54375W        W26800  18.076  18.204  13.086
54376W        W26801  21.093  25.055   2.647
54377W        W26802  43.983  18.073  11.587
54378W        W26803  12.894  16.256   4.187
54379W        W26804   3.947  12.596   0.171
54380W        W26805  25.572   9.717   1.219
54381W        W26806  42.943  42.800   1.444
54382W        W26807   2.226  26.693  13.382
54383W        W26808  28.532   7.509  14.834
54384W        W26809  12.063  34.017   1.631
54385W        W26810  20.231  25.204  11.787
54386W        W26811   2.902  38.431   0.307
54387W        W26812  36.993  33.641   0.424
54388W        W26813  41.808  40.569  11.574
54389W        W26814  22.910   6.332  10.305
54390W        W26815  44.894  24.713   1.799
54391W        W26816  27.978  41.841  10.105
54392W        W26817   2.008   2.871  10.525
54393W        W26818   7.301   9.436  14.977
54394W        W26819  10.526   7.683  13.513
54395W        W26820   3.962  22.579   2.217
54396W        W26821  40.698  28.128   2.285
54397W        W26822  23.452  20.700  12.346
54398W        W26823  43.374  25.981   0.239
54399W        W26824  33.633  17.996  12.930
54400W        W26825  13.186   2.484   2.075
54401W        W26826  10.401  21.082  10.149
54402W        W26827  34.675  10.380   0.255
54403W        W26828  34.583   9.743   1.282
54404W        W26829  28.059   8.186  13.843
54405W        W26830  21.568  13.271  14.820
54406W        W26831  38.114   2.818  12.640
54407W        W26832  10.647  23.248  14.899
54408W        W26833  29.960  35.738   0.315
54409W        W26834  21.332   4.732  14.909
54410W        W26835  36.954  15.688  14.403
54411W        W26836  24.647   2.474   0.757
54412W        W26837   6.242   7.944   2.228
54413W        W26838  32.985  44.589   1.462
54414W        W26839  21.015  12.218  13.265
54415W        W26840  39.297  30.264  13.834
54416W        W26841  16.270  23.318   0.272
54417W        W26842   0.516  18.065  10.714
54418W        W26843  21.089  20.690  14.357
54419W        W26844   3.448  32.136  11.620
54420W        W26845   6.790  11.197   2.516
54421W        W26846  34.565  38.542   3.390
54422W        W26847  27.494  24.546   3.056
54423W        W26848  24.049  30.061   0.697
54424W        W26849   1.309  23.026  13.668
54425W        W26850  19.826  29.539  14.669
54426W        W26851   0.743  32.896   3.771
54427W        W26852  10.905  11.342  11.059
54428W        W26853  36.145  34.647   4.856
54429W        W26854  41.271  13.827  11.952
54430W        W26855  13.562  31.054  12.413
54431W        W26856   2.485   3.306   4.321
54432W        W26857  18.272  43.904  13.046
54433W        W26858  37.391  44.531   5.150
54434W        W26859  11.892   6.955  13.101
54435W        W26860  19.141   2.503   4.277
54436W        W26861   4.962   0.535  10.639
54437W        W26862  41.453  15.823   0.848
54438W        W26863  43.493  29.443   4.655
54439W        W26864   8.176  26.057   3.222
54440W        W26865  18.314  35.062   0.050
54441W        W26866  11.140  42.268  14.924
54442W        W26867  28.919  40.520  12.918
54443W        W26868   2.599  26.528   4.548
54444W        W26869  15.909  14.050   3.338
54445W        W26870   6.647  38.384   3.559
54446W        W26871  38.179  25.675  12.548
54447W        W26872  32.564  24.770   4.494
54448W        W26873  20.181   6.851  10.258
54449W        W26874   8.353  30.036  13.240
54450W        W26875  14.644   4.839   1.849
54451W        W26876   2.794  17.381  13.447
54452W        W26877  39.797  42.818  13.504
54453W        W26878   4.637  20.159   0.406
54454W        W26879  41.827  27.226   1.404
54455W        W26880   0.438   2.248  10.603
54456W        W26881  10.463  23.533   3.325
54457W        W26882   2.764  32.364   4.220
54458W        W26883   3.981  44.780   3.376
54459W        W26884   7.158   7.671   2.427
54460W        W26885   9.800  40.712  12.473
54461W        W26886  42.365   6.132   0.959
54462W        W26887  26.871   6.921   2.667
54463W        W26888   5.896  33.158  11.035
54464W        W26889   3.002  43.776  14.994
54465W        W26890  38.839  10.354   0.009
54466W        W26891  22.147  43.275   1.173
54467W        W26892  22.424  20.772  12.204
54468W        W26893   4.705   1.914  14.383
54469W        W26894  16.742  42.924  14.283
54470W        W26895   9.836  15.810  10.268
54471W        W26896  44.945  16.346  12.983
54472W        W26897  29.023  19.197  13.078
54473W        W26898  22.610   1.930  11.152
54474W        W26899  40.974  43.351  11.655
54475W        W26900  39.505   2.179  11.504
54476W        W26901  29.573  32.071   1.862
54477W        W26902  44.408  22.484   3.771
54478W        W26903  44.418  25.710  10.881
54479W        W26904  40.975   7.285  11.052
54480W        W26905  42.872  13.636   3.522
54481W        W26906  34.407   9.691   0.799
54482W        W26907  38.528  31.365   4.170
54483W        W26908  18.586   6.400   2.267
54484W        W26909  41.046  34.513   1.675
54485W        W26910  10.873   7.878  11.140
54486W        W26911  28.621  11.273   4.629
54487W        W26912  25.736   7.650  12.070
54488W        W26913  34.356  39.083   0.289
54489W        W26914  14.700  18.268   4.647
54490W        W26915  13.643   1.867  11.781
54491W        W26916  35.617  24.179  10.577
54492W        W26917  42.956   3.920   2.293
54493W        W26918  15.121   7.690  13.868
54494W        W26919   8.823  37.496  14.954
54495W        W26920  10.856  11.655   2.003
54496W        W26921   7.469   1.288   2.868
54497W        W26922  33.057  16.651   0.469
54498W        W26923  42.098  20.420   4.162
54499W        W26924  32.419  20.277  14.387
54500W        W26925   1.240  24.457   2.278
54501W        W26926   2.260  42.385  10.603
54502W        W26927  28.189   7.229   1.369
54503W        W26928  13.188   9.842  11.582
54504W        W26929  35.459   0.871  12.116
54505W        W26930  38.467  32.538   2.840
54506W        W26931  24.661  19.521   1.370
54507W        W26932  43.933  40.572   4.610
54508W        W26933   2.526  14.142   2.719
54509W        W26934  39.385   3.420  11.882
54510W        W26935  37.383  44.921  10.819
54511W        W26936  23.657  20.836   4.706
54512W        W26937  21.662  40.720   3.603
54513W        W26938  35.877  26.966  14.327
54514W        W26939   0.988   1.764   3.744
54515W        W26940  44.777  20.189   3.345
54516W        W26941  10.122   1.324   0.031
54517W        W26942  34.896  14.267  14.414
54518W        W26943  32.604  24.949  13.344
54519W        W26944  44.291   6.646  11.967
54520W        W26945  44.462  30.022   1.708
54521W        W26946  11.779  38.386  10.961
54522W        W26947  39.351  35.572   3.330
54523W        W26948  42.825  23.486  13.575
54524W        W26949  31.390  14.598  11.942
54525W        W26950   0.880   7.763  11.127
54526W        W26951  38.187   0.948   4.663
54527W        W26952  28.402   2.844  12.991
54528W        W26953  37.967  22.930   0.403
54529W        W26954  12.783  25.160   0.047
54530W        W26955   1.906   6.481  13.908
54531W        W26956   8.880  23.460   0.979
54532W        W26957  16.780   2.551   0.740
54533W        W26958  38.428  34.466   1.414
54534W        W26959  36.444  18.522  14.753
54535W        W26960  13.268  17.054   2.289
54536W        W26961   6.721  12.639  14.031
54537W        W26962  19.180   1.865   4.634
54538W        W26963  17.042  25.726  11.396
54539W        W26964  36.115  11.485  12.940
54540W        W26965   8.641  28.936   3.837
54541W        W26966  34.530  29.755  12.205
54542W        W26967  19.662  10.752   4.623
54543W        W26968  37.876  22.336   4.299
54544W        W26969  28.434  41.008  13.942
54545W        W26970   4.035  12.723   0.670
54546W        W26971   1.273  42.957   3.237
54547W        W26972  24.212  22.663  12.698
54548W        W26973  24.660  23.609  12.028
54549W        W26974  31.668  42.299   2.194
54550W        W26975  30.916  23.937  13.087
54551W        W26976  12.448  40.850   1.681
54552W        W26977  28.940  23.197  12.616
54553W        W26978  26.514   7.514   2.533
54554W        W26979   6.652  41.895   2.467
54555W        W26980  26.641  19.799   0.957
54556W        W26981  10.642   0.827  14.302
54557W        W26982  31.992  16.647   4.045
54558W        W26983  23.182  37.139   3.674
54559W        W26984  22.302  41.566   1.680
54560W        W26985  33.427   1.798   0.783
54561W        W26986  41.069  37.443  13.853
54562W        W26987  17.034  34.625   2.166
54563W        W26988  39.944  37.071   1.430
54564W        W26989  14.031  28.041  14.302
54565W        W26990  32.909  44.335   3.261
54566W        W26991  34.954  24.946  10.562
54567W        W26992  21.700   6.941  11.699
54568W        W26993  37.373  11.081  14.925
54569W        W26994   4.771  37.099   2.706
54570W        W26995  37.486  14.823  14.361
54571W        W26996   4.320  24.714   4.704
54572W        W26997  33.742  35.980  10.045
54573W        W26998  26.165  19.585   4.080
54574W        W26999  13.364  16.850  10.638
54575W        W27000  39.907  11.704   4.551
54576W        W27001  11.882  29.156  13.891
54577W        W27002  16.701  38.073  11.857
54578W        W27003  11.715  15.086   1.979
54579W        W27004  15.381  27.610  10.617
54580W        W27005  27.666  33.986   0.765
54581W        W27006  39.870   3.695   2.708
54582W        W27007  18.832  19.953   4.478
54583W        W27008   5.790  33.763  12.269
54584W        W27009   8.612   0.050  13.859
54585W        W27010   1.770   4.169  12.148
54586W        W27011  18.182  18.284  12.129
54587W        W27012  22.585   7.311   0.267
54588W        W27013  44.310  41.190   3.495
54589W        W27014  10.600  32.981   4.949
54590W        W27015  37.099  40.134  14.459
54591W        W27016  26.986  41.729   2.697
54592W        W27017  34.037  24.911   0.707
54593W        W27018  40.641  30.468   1.705
54594W        W27019  11.315   0.307  14.040
54595W        W27020   4.283  10.427  10.813
54596W        W27021  23.154  43.956  11.404
54597W        W27022   0.277  31.318   3.720
54598W        W27023   8.163  27.090  10.981
54599W        W27024   6.522  30.449   4.995
54600W        W27025  28.624  11.479  11.880
54601W        W27026  37.860   1.128  13.786
54602W        W27027  23.675  31.656  11.175
54603W        W27028  14.848  20.750  10.584
54604W        W27029  23.703  21.719  12.490
54605W        W27030   2.018   9.771   4.075
54606W        W27031  14.624  23.519   2.726
54607W        W27032  34.464  31.179   3.744
54608W        W27033  38.408  27.760  10.565
54609W        W27034  13.075  27.759  13.414
54610W        W27035  12.082  29.833  14.834
54611W        W27036   1.206   1.305  13.849
54612W        W27037   5.732  41.984  10.784
54613W        W27038   5.393  25.932   4.298
54614W        W27039   7.935  25.602  12.087
54615W        W27040   4.749  31.663  11.109
54616W        W27041   0.404  29.972  13.954
54617W        W27042   0.700  20.946   4.070
54618W        W27043   6.659   6.642   4.254
54619W        W27044  43.487   6.755  14.346
54620W        W27045   9.850  22.765   2.201
54621W        W27046  21.262  13.804   2.936
54622W        W27047  33.297  40.749  11.701
54623W        W27048  37.301  31.630  14.931
54624W        W27049   3.866   1.963   5.025
54625W        W27050   8.477  25.406  13.872
54626W        W27051  44.187  14.254   2.408
54627W        W27052  26.386  29.088  12.826
54628W        W27053  11.559  28.638   1.627
54629W        W27054   8.818   5.787   1.821
54630W        W27055  27.714  13.797   4.264
54631W        W27056  28.283  35.843  13.028
54632W        W27057  20.287  14.127  11.502
54633W        W27058  38.831  31.190   2.856
54634W        W27059  10.702  35.571   3.079
54635W        W27060  17.064  16.084   4.463
54636W        W27061  29.093  19.176   3.958
54637W        W27062  17.806   7.838  12.010
54638W        W27063   9.971  25.923   0.024
54639W        W27064  36.833   1.460   4.645
54640W        W27065  37.873  37.545  14.324
54641W        W27066  42.003  13.130  10.990
54642W        W27067   8.167   4.729   2.824
54643W        W27068   4.866  19.161  11.227
54644W        W27069  20.143  25.662   2.234
54645W        W27070  27.222  29.217  12.365
54646W        W27071  30.650   5.106  12.078
54647W        W27072  24.003   6.737   2.745
54648W        W27073  31.036   6.365  10.170
54649W        W27074  26.020  37.404  12.098
54650W        W27075   4.246   2.301   4.897
54651W        W27076  35.890   9.014   4.835
54652W        W27077   3.429  34.506   4.486
54653W        W27078   0.444  40.331   1.486
54654W        W27079  29.110  34.919  14.272
54655W        W27080  32.020  22.535  10.436
54656W        W27081  22.744   6.995   4.620
54657W        W27082  30.851  14.421   1.863
54658W        W27083  15.896  14.395  12.716
54659W        W27084   4.789   2.255   4.142
54660W        W27085  12.403  39.870   2.054
54661W        W27086   2.950  37.527   1.846
54662W        W27087  10.646  23.097   3.074
54663W        W27088  42.398   2.862  14.486
54664W        W27089   7.523  35.651   0.756
54665W        W27090   4.664  31.152   1.711
54666W        W27091  38.848  35.364   4.538
54667W        W27092   5.079  16.079   4.159
54668W        W27093  29.585   7.716  13.334
54669W        W27094  30.934  39.611  11.846
54670W        W27095  28.086  25.182   3.162
54671W        W27096  27.565  11.208  14.508
54672W        W27097  26.030  18.235   1.471
54673W        W27098  33.681   5.776   0.175
54674W        W27099  35.483   0.722   3.856
54675W        W27100  38.741  43.529  14.346
54676W        W27101  26.290  23.248  12.398
54677W        W27102  35.117   0.940   4.707
54678W        W27103  23.583  35.968  13.264
54679W        W27104  29.058   7.125  12.563
54680W        W27105   2.891  23.792   4.097
54681W        W27106   3.649   4.712   4.514
54682W        W27107  18.835   3.246  10.662
54683W        W27108  19.187  29.603   5.025
54684W        W27109  37.398  38.214   2.929
54685W        W27110  25.799  44.450  12.060
54686W        W27111  11.110  34.582   2.752
54687W        W27112  13.571  27.152  11.467
54688W        W27113   1.233   9.836   1.197
54689W        W27114  37.509  19.570  14.615
54690W        W27115  24.004   2.229   3.615
54691W        W27116  14.874  36.405   2.027
54692W        W27117  26.808  35.619   3.674
54693W        W27118  14.613  32.597   3.372
54694W        W27119  33.395   6.613   2.428
54695W        W27120   5.413   4.002   0.217
54696W        W27121  43.846  20.564   0.427
54697W        W27122  20.925  30.142  10.499
54698W        W27123  35.863  35.148  11.175
54699W        W27124  20.538  35.356   0.203
54700W        W27125   9.516  31.947   3.730
54701W        W27126   6.927   3.040   3.288
54702W        W27127  26.510  44.821   0.969
54703W        W27128  43.363  14.844  10.960
54704W        W27129  15.515  23.747   2.373
54705W        W27130  21.702   8.880   0.358
54706W        W27131  15.273  19.261   2.365
54707W        W27132  34.390   0.131   1.329
54708W        W27133  17.258  39.004  12.843
54709W        W27134   4.084  16.605   3.194
54710W        W27135  12.697  29.200   3.154
54711W        W27136  12.330  14.450  11.971
54712W        W27137  16.440  36.280  14.293
54713W        W27138   2.409  26.166  14.570
54714W        W27139   9.757   3.426  14.877
54715W        W27140  40.450  11.863  10.537
54716W        W27141  43.658  32.709   0.806
54717W        W27142  36.754  18.467  11.528
54718W        W27143  25.268  42.618   4.472
54719W        W27144  17.649  26.477   0.905
54720W        W27145  28.665  35.332   1.210
54721W        W27146  22.924  12.372   2.677
54722W        W27147  31.400  24.486  13.796
54723W        W27148  43.776  29.893  10.370
54724W        W27149   2.982  24.005   0.678
54725W        W27150   4.333  11.850  13.784
54726W        W27151  20.298  37.422   1.755
54727W        W27152  31.882  37.348  10.028
54728W        W27153  25.742   7.956  13.747
54729W        W27154  33.827   3.654  12.096
54730W        W27155  42.943  27.526   0.503
54731W        W27156  22.505   9.923  10.892
54732W        W27157   5.428  24.062   1.331
54733W        W27158  10.212  41.790  11.975
54734W        W27159  17.242  30.418  13.844
54735W        W27160  34.072   5.748   0.888
54736W        W27161  27.177  12.514   0.551
54737W        W27162  12.165   7.476   2.039
54738W        W27163   4.083  15.286  10.682
54739W        W27164   2.236  35.729  12.006
54740W        W27165  40.741  27.324  11.416
54741W        W27166  24.237  39.580   3.621
54742W        W27167  13.041  21.223   1.337
54743W        W27168  15.352  28.995  14.549
54744W        W27169  26.744  25.861  14.587
54745W        W27170  35.915  36.177  12.163
54746W        W27171   6.432  15.648  14.943
54747W        W27172   7.270   6.644  13.389
54748W        W27173  38.822  20.674   0.300
54749W        W27174  25.511  10.816  12.457
54750W        W27175  35.902  12.060  14.514
54751W        W27176  42.267   0.785   0.828
54752W        W27177  27.123  38.151  14.952
54753W        W27178   0.865  31.512   2.707
54754W        W27179  12.825   1.983  13.091
54755W        W27180   1.051  11.227  13.232
54756W        W27181   1.823  27.788  13.546
54757W        W27182  12.607  35.382  13.480
54758W        W27183   9.606  32.679  14.655
54759W        W27184  20.693   8.842  10.803
54760W        W27185  24.405   7.904  11.453
54761W        W27186  35.908   7.377  11.038
54762W        W27187  14.372  10.171  10.594
54763W        W27188  31.355   2.821  13.984
54764W        W27189   2.774   6.304   0.249
54765W        W27190  15.767  10.802   0.059
54766W        W27191  13.882  26.672  11.471
54767W        W27192  33.048   4.432   1.195
54768W        W27193  13.328  31.063  13.343
54769W        W27194  36.833  26.682  13.490
54770W        W27195  39.316  29.123   3.171
54771W        W27196  19.767  41.727  12.782
54772W        W27197  26.646  18.158   0.796
54773W        W27198   3.274   1.321   0.267
54774W        W27199  25.540   7.174  11.184
54775W        W27200  26.451  21.047   3.169
54776W        W27201  23.211   0.283  10.930
54777W        W27202  36.085  15.067  12.503
54778W        W27203   1.235  23.139   4.501
54779W        W27204  43.895  23.006  11.038
54780W        W27205  27.412  29.830  11.330
54781W        W27206  20.522  29.034   2.179
54782W        W27207  14.470  20.974  11.295
54783W        W27208  43.752  26.425   2.238
54784W        W27209  40.148  36.325   0.166
54785W        W27210   4.743  35.277   1.315
54786W        W27211  44.347  28.645  14.788
54787W        W27212  43.042   4.170   0.519
54788W        W27213  38.619  11.089  12.190
54789W        W27214  23.096  41.465  12.471
54790W        W27215   4.747   9.849  14.418
54791W        W27216   2.565  40.677   5.058
54792W        W27217  10.257   6.661   4.624
54793W        W27218   1.745  38.432   0.947
54794W        W27219  18.740  40.262  10.797
54795W        W27220  28.481   9.605   4.128
54796W        W27221   2.002  35.824   3.668
54797W        W27222  31.419   9.804  12.909
54798W        W27223  38.418  31.260  12.535
54799W        W27224  13.584   5.661  12.035
54800W        W27225  30.938  44.681   3.973
54801W        W27226  32.974   8.839  13.929
54802W        W27227  28.838  14.289   1.006
54803W        W27228  24.597   7.617   4.465
54804W        W27229   4.802   5.597  12.973
54805W        W27230  34.578   0.946  13.203
54806W        W27231  40.159  35.852  14.811
54807W        W27232  19.008  33.951   3.228
54808W        W27233   5.905  24.088  14.453
54809W        W27234  15.852  12.761   0.244
54810W        W27235  36.749  41.263   0.493
54811W        W27236  10.770  44.863   4.469
54812W        W27237   5.930   7.714   2.607
54813W        W27238  39.579  24.748   3.203
54814W        W27239  40.459  41.242  14.930
54815W        W27240  17.666  20.801  10.069
54816W        W27241  23.427  25.288  13.330
54817W        W27242   9.261  41.444  10.679
54818W        W27243  12.903  32.152  10.363
54819W        W27244   4.466  33.679  14.773
54820W        W27245  15.580  11.720   2.234
54821W        W27246   7.688  13.866  12.671
54822W        W27247   0.716  17.061  11.522
54823W        W27248  43.241   2.858  14.838
54824W        W27249  36.340   7.472   3.743
54825W        W27250  30.241  42.537  12.659
54826W        W27251  21.662  44.763  14.944
54827W        W27252   0.555   0.007  14.864
54828W        W27253  27.586  20.058   3.166
54829W        W27254   2.876   3.371   2.833
54830W        W27255   3.945   4.019  11.446
54831W        W27256  14.235  22.586   0.580
54832W        W27257  31.500  35.408   3.411
54833W        W27258  35.716  19.289   1.943
54834W        W27259  36.901  24.819   0.035
54835W        W27260  39.816  32.951   1.292
54836W        W27261  26.186  14.602   2.402
54837W        W27262  36.416  43.089   1.268
54838W        W27263  38.091   8.879   3.647
54839W        W27264  17.808   5.303  10.733
54840W        W27265  28.880  10.876  12.634
54841W        W27266  44.352   5.461   4.521
54842W        W27267  10.162  21.821  14.521
54843W        W27268  22.425  21.187  12.978
54844W        W27269  15.620  20.327  12.700
54845W        W27270  12.691  26.407  11.993
54846W        W27271  38.285  15.859   3.686
54847W        W27272  12.122  11.183  14.781
54848W        W27273   4.489  14.592  11.883
54849W        W27274  36.908  14.887  14.025
54850W        W27275  15.003  21.418   5.105
54851W        W27276   1.173   5.260  11.564
54852W        W27277   5.655  16.564   2.429
54853W        W27278   5.397  28.232  11.594
54854W        W27279  15.388  14.725  12.085
54855W        W27280  16.220  25.569   2.198
54856W        W27281  36.002  12.600   4.713
54857W        W27282  23.073  17.303   1.927
54858W        W27283  37.886  27.658   4.199
54859W        W27284  26.748  27.727   4.218
54860W        W27285  17.097  33.058  12.834
54861W        W27286  19.250  26.670   4.777
54862W        W27287   8.958  12.095  12.946
54863W        W27288  42.590  43.562   2.710
54864W        W27289  28.004  17.334   0.021
54865W        W27290  24.249  36.270  13.947
54866W        W27291  27.181  39.887  11.683
54867W        W27292  17.738  36.621  12.579
54868W        W27293  44.681  37.356  10.770
54869W        W27294  31.589  18.122   1.367
54870W        W27295  28.159  36.010   1.432
54871W        W27296  18.214  17.217   4.459
54872W        W27297  36.573  12.766  11.581
54873W        W27298  41.355  29.123   4.179
54874W        W27299   0.432  15.730  13.583
54875W        W27300  20.179   0.776  14.479
54876W        W27301  27.442  19.063  11.068
54877W        W27302  34.956  38.652  12.498
54878W        W27303  31.807  18.744   9.929
54879W        W27304  23.115  24.703   3.180
54880W        W27305  42.220   3.480  10.739
54881W        W27306   3.414  17.730  14.407
54882W        W27307  26.316   1.782   0.791
54883W        W27308  14.263  44.704  11.661
54884W        W27309  22.554  19.494  13.008
54885W        W27310   7.374  31.002   2.240
54886W        W27311   3.347  33.599   2.543
54887W        W27312  24.438  23.927   3.281
54888W        W27313  38.822   5.276  12.987
54889W        W27314  38.253  37.890   0.150
54890W        W27315  20.244   0.782   0.378
54891W        W27316   9.603  39.790   1.511
54892W        W27317   0.506  43.309   4.651
54893W        W27318  27.378  15.677   4.126
54894W        W27319  17.098  32.577   1.414
54895W        W27320  11.776  10.632   1.863
54896W        W27321   8.399  36.856  11.373
54897W        W27322  39.766   6.216  11.970
54898W        W27323  14.611  19.174   4.598
54899W        W27324  33.007  37.486   1.505
54900W        W27325  16.285  15.071   0.886
54901W        W27326  24.187  41.973   4.572
54902W        W27327  27.594  39.998  13.349
54903W        W27328  44.275  37.869   9.982
54904W        W27329  26.020  11.707   2.466
54905W        W27330  16.392  13.008   0.619
54906W        W27331  10.422   4.200  14.768
54907W        W27332  25.786  31.460  13.289
54908W        W27333  38.327  28.224  14.995
54909W        W27334  25.142  10.591  11.158
54910W        W27335   0.788   3.378   0.825
54911W        W27336  42.083   4.767  14.009
54912W        W27337   3.387  12.312  13.849
54913W        W27338  25.673  18.447   0.961
54914W        W27339  42.817  10.351  12.222
54915W        W27340  39.911   3.884   4.126
54916W        W27341   2.513  32.473  14.891
54917W        W27342  12.345  33.843   0.244
54918W        W27343  17.774   9.242   3.226
54919W        W27344  19.623  21.058  11.728
54920W        W27345   8.050  12.099  12.931
54921W        W27346  33.503  16.647   0.775
54922W        W27347  18.622   2.366   2.120
54923W        W27348  32.618   3.902  12.662
54924W        W27349   8.839  43.994  11.488
54925W        W27350  32.264  19.642   4.903
54926W        W27351  21.971  36.708   0.467
54927W        W27352   8.244  36.044  14.539
54928W        W27353  44.891  13.722   2.356
54929W        W27354   7.917  15.089   2.194
54930W        W27355  22.553  42.497  11.937
54931W        W27356  43.867   9.197  14.220
54932W        W27357  42.377   9.811   0.895
54933W        W27358  18.225  26.026  13.172
54934W        W27359  28.201  33.462  11.289
54935W        W27360  22.248  25.212  12.348
54936W        W27361   7.413  10.216   4.366
54937W        W27362   0.743  31.220   2.236
54938W        W27363   6.262   5.608   3.717
54939W        W27364  29.067  19.388  14.472
54940W        W27365  38.273  22.178   0.919
54941W        W27366   6.036  10.312   0.894
54942W        W27367  25.993  16.275  13.478
54943W        W27368  36.871  29.012   0.568
54944W        W27369  17.018  23.156   1.971
54945W        W27370  18.169  36.479   1.375
54946W        W27371   9.778  43.338  11.161
54947W        W27372  18.330  42.111  11.931
54948W        W27373  36.321  36.720   2.056
54949W        W27374  22.623   5.680  13.811
54950W        W27375  32.445  33.472  13.805
54951W        W27376  42.096  15.355  12.911
54952W        W27377   2.384  11.858  10.634
54953W        W27378  16.450  31.034  11.701
54954W        W27379  23.912  30.706  11.977
54955W        W27380  13.832  23.731   1.720
54956W        W27381  23.632  25.230  10.897
54957W        W27382  33.429   7.594   3.670
54958W        W27383  34.138  24.840   3.596
54959W        W27384  18.977  35.934   2.863
54960W        W27385  30.409  13.768  13.529
54961W        W27386  33.006  12.068   3.381
54962W        W27387  34.065   4.357   2.727
54963W        W27388  25.341  26.026  11.989
54964W        W27389  24.165  24.730   1.902
54965W        W27390   7.239  32.944   4.315
54966W        W27391  17.289  13.596  10.983
54967W        W27392  14.534  35.545  12.444
54968W        W27393  31.215  42.974  10.629
54969W        W27394  21.247   3.781  11.415
54970W        W27395  18.966  30.115   9.792
54971W        W27396   7.244  41.171   4.552
54972W        W27397  16.788  16.202   2.895
54973W        W27398  31.981  21.611   3.908
54974W        W27399  37.479  26.163  12.623
54975W        W27400  10.863   9.663  13.525
54976W        W27401  13.286  42.808  12.053
54977W        W27402  41.760  10.432  12.436
54978W        W27403  26.100   9.158  10.652
54979W        W27404   7.683   6.421   2.810
54980W        W27405  14.106  41.847  11.505
54981W        W27406   0.492  23.420   1.259
54982W        W27407  22.166  42.487  13.038
54983W        W27408  25.509  40.415   0.761
54984W        W27409   5.675  30.343   0.857
54985W        W27410  31.950  10.168  12.606
54986W        W27411  18.735   7.971   3.165
54987W        W27412  43.762  42.831  14.336
54988W        W27413  21.697  13.137  12.894
54989W        W27414  17.289  27.651  11.426
54990W        W27415  32.060  16.119  14.877
54991W        W27416   8.833   2.639   2.549
54992W        W27417  10.114  12.411  13.934
54993W        W27418  10.129  30.458  11.945
54994W        W27419   3.358  10.909  11.880
54995W        W27420  38.553  40.301   3.598
54996W        W27421  25.700  13.981  12.581
54997W        W27422   9.133  34.114  12.558
54998W        W27423   8.339   8.419  11.593
54999W        W27424  27.555   7.855   1.273
55000W        W27425  31.866  23.472  14.413
55001W        W27426   5.294  32.388  11.548
55002W        W27427  41.405  40.109  12.046
55003W        W27428  29.665  26.490   4.624
55004W        W27429  29.451   2.813  13.909
55005W        W27430   5.828  27.728  12.200
55006W        W27431  44.205  37.456   3.787
55007W        W27432  11.524  13.703  12.621
55008W        W27433  33.099  30.770  14.540
55009W        W27434  34.907  26.879  11.454
55010W        W27435   8.105  36.143  10.218
55011W        W27436   1.943  31.825  13.462
55012W        W27437  42.537  28.550  14.044
55013W        W27438  24.774  35.465  12.065
55014W        W27439  12.566   2.772  14.693
55015W        W27440   0.758  33.248   5.071
55016W        W27441   0.299  27.633  12.830
55017W        W27442  25.103  43.290  10.670
55018W        W27443  42.435  36.726  13.257
55019W        W27444  32.383  14.707   3.385
55020W        W27445  21.773  21.212   3.554
55021W        W27446  10.050  14.574  11.544
55022W        W27447  19.040   0.045  13.538
55023W        W27448  14.106  21.213   0.372
55024W        W27449  12.408  11.365  11.942
55025W        W27450  33.076  12.368   0.466
55026W        W27451  27.173  18.287  14.839
55027W        W27452  43.215  36.462   1.810
55028W        W27453  34.095  41.502  14.382
55029W        W27454  20.939  25.195  10.892
55030W        W27455   7.165   7.142   3.334
55031W        W27456   9.397  14.655   1.996
55032W        W27457   6.527   1.635  14.692
55033W        W27458   7.980  28.464  13.932
55034W        W27459   4.994  20.471   2.328
55035W        W27460   1.253   4.297   0.803
55036W        W27461   8.855  38.426   2.313
55037W        W27462   5.514  15.448   2.561
55038W        W27463  30.987  31.566   0.930
55039W        W27464  12.928  37.970  14.308
55040W        W27465  38.893   2.853  13.737
55041W        W27466  12.201  10.009   5.087
55042W        W27467   7.731  33.188  13.988
55043W        W27468  25.235  12.883  14.798
55044W        W27469  37.095  38.938  14.944
55045W        W27470   2.551  20.823   3.155
55046W        W27471  11.354   1.472   1.870
55047W        W27472  35.836  18.792   0.765
55048W        W27473   3.730  32.934   2.441
55049W        W27474  18.751  33.562   3.831
55050W        W27475  13.043  18.822   1.943
55051W        W27476  13.670  25.349   0.693
55052W        W27477   9.962  25.572   0.793
55053W        W27478  13.889  38.241  11.677
55054W        W27479   9.820  16.119   3.364
55055W        W27480   4.433  24.989  13.840
55056W        W27481  33.720   1.949   0.354
55057W        W27482  11.597  33.080   4.772
55058W        W27483  14.760  29.056  14.989
55059W        W27484  13.255  29.828   4.624
55060W        W27485  37.374  32.879   2.170
55061W        W27486   7.861  36.945   5.007
55062W        W27487  33.991  43.811  14.550
55063W        W27488  17.552  10.831   3.423
55064W        W27489   4.198  32.890  13.462
55065W        W27490   1.016  35.359   0.413
55066W        W27491  13.216   4.849   3.990
55067W        W27492  10.317  19.053   2.635
55068W        W27493  35.537   9.577  11.082
55069W        W27494  36.508  17.042  14.861
55070W        W27495  13.687   7.187   4.183
55071W        W27496  12.816  41.733   3.099
55072W        W27497  19.798  13.520   2.384
55073W        W27498  23.488  10.700   0.428
55074W        W27499  11.617  29.584  14.065
55075W        W27500  14.048  24.112  13.843
55076W        W27501  23.248  37.086  11.074
55077W        W27502  38.317  39.795   2.685
55078W        W27503  16.501  32.855  11.517
55079W        W27504  44.472  39.866   3.045
55080W        W27505  13.188  37.374  12.424
55081W        W27506  38.930  41.086   0.800
55082W        W27507   3.701   6.927   1.877
55083W        W27508   0.265  33.082   3.653
55084W        W27509  25.189   4.462   0.305
55085W        W27510  39.929  33.842  10.058
55086W        W27511  23.754  24.001   4.140
55087W        W27512  30.872  27.655  13.440
55088W        W27513  34.489  37.019   4.511
55089W        W27514  41.461  10.635   2.980
55090W        W27515  19.156   0.610  14.950
55091W        W27516  35.241  25.457   5.045
55092W        W27517  26.138  30.219  14.499
55093W        W27518   5.418  42.810  11.104
55094W        W27519  26.179  18.980  14.341
55095W        W27520  10.416  35.906  12.914
55096W        W27521  16.834  25.429   1.758
55097W        W27522  14.903   0.943  14.272
55098W        W27523  30.522  40.466   4.106
55099W        W27524  34.962  44.775  13.076
55100W        W27525  13.405   6.748   4.189
55101W        W27526  40.429  13.639   3.169
55102W        W27527  29.069  32.840  10.062
55103W        W27528  17.144  37.261   3.222
55104W        W27529   2.250  12.581  14.365
55105W        W27530  26.954  35.385   2.671
55106W        W27531   5.919  13.536   4.247
55107W        W27532  21.110  37.388   2.755
55108W        W27533  20.701  14.752   0.110
55109W        W27534  27.108  42.219  14.441
55110W        W27535   1.557  16.410  12.468
55111W        W27536   8.490   6.485   1.315
55112W        W27537  20.457  23.284  14.856
55113W        W27538  11.615  36.128  12.332
55114W        W27539  44.123  19.712   2.997
55115W        W27540   9.197  31.615  11.256
55116W        W27541  31.096   8.152  12.906
55117W        W27542   4.873   4.421   4.248
55118W        W27543  18.123  11.777   0.973
55119W        W27544  11.152  23.555  14.818
55120W        W27545  42.061  28.375  12.898
55121W        W27546  21.755   1.862   1.857
55122W        W27547  27.955  13.757  11.574
55123W        W27548  42.426  35.761  10.322
55124W        W27549  26.718  11.705   0.485
55125W        W27550   5.784  16.414  14.706
55126W        W27551  20.025  26.456   0.424
55127W        W27552  43.206  39.746  14.720
55128W        W27553  16.847  22.944  11.481
55129W        W27554  10.353  32.591   9.998
55130W        W27555  42.013  35.050  13.838
55131W        W27556   8.144  41.850  14.875
55132W        W27557   6.180  13.513  10.690
55133W        W27558  42.399  18.290  11.601
55134W        W27559   6.959   9.653  11.602
55135W        W27560  27.009  19.040  13.441
55136W        W27561  35.069  30.836   5.115
55137W        W27562   2.455   2.665   1.328
55138W        W27563  23.241  24.194   4.245
55139W        W27564  28.204  30.664   3.855
55140W        W27565  17.961  13.079   2.847
55141W        W27566  19.045   5.607   0.969
55142W        W27567  38.560  30.209  10.423
55143W        W27568   3.145  22.536  11.640
55144W        W27569  17.256  15.036   1.358
55145W        W27570  26.116  39.897  13.834
55146W        W27571   6.347  17.824   2.900
55147W        W27572  24.976  14.561   0.424
55148W        W27573  27.570  25.455  13.986
55149W        W27574  11.780  13.060   2.315
55150W        W27575  24.725  30.205  14.577
55151W        W27576  42.989  11.129  14.962
55152W        W27577  36.826  27.040  13.953
55153W        W27578  33.586  18.292   1.199
55154W        W27579  34.355  43.544   2.084
55155W        W27580  18.261  23.309  14.489
55156W        W27581   3.661  21.887  11.932
55157W        W27582  35.446   8.079  12.407
55158W        W27583  15.232  32.773  14.675
55159W        W27584  23.552  14.855  13.349
55160W        W27585  10.187  15.848   3.064
55161W        W27586  17.114  39.821  11.745
55162W        W27587  15.425  24.917   0.051
55163W        W27588  10.080  36.304   1.379
55164W        W27589  23.035   5.275   4.592
55165W        W27590  38.900  30.465  10.732
55166W        W27591  19.713   9.643  11.215
55167W        W27592   3.764  16.136  13.742
55168W        W27593   7.314   8.160   2.695
55169W        W27594  30.970  41.065   1.865
55170W        W27595   5.113  21.588  11.067
55171W        W27596   7.404  36.126  13.472
55172W        W27597  24.667   9.178   9.750
55173W        W27598   1.530  41.267  11.528
55174W        W27599  22.528  38.540   0.131
55175W        W27600  41.981  40.429  12.971
55176W        W27601   7.152  16.609  14.366
55177W        W27602  13.788   0.354  12.075
55178W        W27603  22.293  19.295  13.890
55179W        W27604  29.429  11.818   2.230
55180W        W27605  34.888  10.777   4.673
55181W        W27606  23.203  44.685  12.545
55182W        W27607  13.719  16.888   3.157
55183W        W27608  12.378  13.448  11.037
55184W        W27609   3.301  24.515   1.350
55185W        W27610  34.505  36.644  14.035
55186W        W27611  23.812  10.669   0.893
55187W        W27612   1.391   6.984  11.164
55188W        W27613  38.566   7.534   1.447
55189W        W27614   8.632  40.705   3.226
55190W        W27615   8.826   9.146  11.309
55191W        W27616  23.359  22.162   4.462
55192W        W27617  23.231  13.782   4.672
55193W        W27618  26.741   2.758   4.683
55194W        W27619  44.013   6.257   4.106
55195W        W27620  17.266  20.049  13.883
55196W        W27621  12.794   9.438   2.297
55197W        W27622  34.317  23.947  12.860
55198W        W27623  28.485  40.795  13.059
55199W        W27624  13.812  12.332   3.727
55200W        W27625   9.615  30.700  11.175
55201W        W27626  12.836  36.561   3.260
55202W        W27627  40.034  44.480   2.382
55203W        W27628  38.293  23.908  11.061
55204W        W27629  10.648  14.163   3.353
55205W        W27630  22.663  11.182   5.455
55206W        W27631  11.634  42.523   2.467
55207W        W27632  17.725   4.753  13.988
55208W        W27633  32.035  23.934   3.258
55209W        W27634  25.964  19.041   2.258
55210W        W27635  15.596   9.901  14.009
55211W        W27636   4.506  22.962  12.039
55212W        W27637  43.194  17.254  13.516
55213W        W27638  12.776  41.030  10.737
55214W        W27639  42.299  12.210  14.006
55215W        W27640   1.981   7.299  13.848
55216W        W27641  30.930  29.035  11.925
55217W        W27642  10.208  23.065  14.032
55218W        W27643  25.936  39.341   1.324
55219W        W27644  23.249  36.865  14.301
55220W        W27645  39.082  39.104   2.319
55221W        W27646  27.113   6.283  12.896
55222W        W27647  23.238  13.343   1.734
55223W        W27648   7.662  29.506  12.583
55224W        W27649   9.631  14.126   4.610
55225W        W27650  35.343   0.199   2.880
55226W        W27651   7.776  28.387  13.011
55227W        W27652  31.532  18.368  13.170
55228W        W27653  23.578  20.571  14.835
55229W        W27654  43.038   7.308  10.720
55230W        W27655   6.263  32.972  14.782
55231W        W27656  19.091   3.817   3.758
55232W        W27657  27.467   5.315   4.188
55233W        W27658  35.332  11.653  11.497
55234W        W27659  29.089  13.600  12.162
55235W        W27660  38.315  10.597  11.163
55236W        W27661  28.612   6.504  14.940
55237W        W27662  11.829   8.184  13.351
55238W        W27663  34.393   1.797   1.553
55239W        W27664  38.172  16.380  13.773
55240W        W27665   3.416   2.887   2.137
55241W        W27666   1.410   3.316  10.955
55242W        W27667  39.854  35.556   4.795
55243W        W27668  13.580  35.462  14.513
55244W        W27669  33.495  38.552   3.133
55245W        W27670   9.237   6.785  11.192
55246W        W27671  38.775  20.591  13.881
55247W        W27672  30.246  42.988  10.455
55248W        W27673   6.674   1.410   4.679
55249W        W27674  43.281   9.763   3.595
55250W        W27675  44.009   9.982   0.817
55251W        W27676  20.801  10.128  10.552
55252W        W27677   4.975   4.773   0.539
55253W        W27678  24.091  25.882  13.907
55254W        W27679   4.089  42.677   2.317
55255W        W27680  31.639  13.212   1.304
55256W        W27681  38.361  19.190  11.210
55257W        W27682  30.863   8.355   0.720
55258W        W27683   7.288   2.789   3.684
55259W        W27684   4.860   9.647  13.941
55260W        W27685  43.394  10.033  14.390
55261W        W27686   1.425  40.479  12.183
55262W        W27687  40.212   8.868  11.141
55263W        W27688  41.894  12.060  14.309
55264W        W27689  27.406  28.217  12.002
55265W        W27690  40.407  32.937   4.682
55266W        W27691  34.429   9.708   2.737
55267W        W27692  28.369  41.838   3.929
55268W        W27693  28.914  43.122  12.161
55269W        W27694  40.189   7.364   4.072
55270W        W27695  23.040  22.635  14.897
55271W        W27696  39.428  38.388  12.925
55272W        W27697  22.521  14.135   3.222
55273W        W27698   7.655  23.181   3.166
55274W        W27699  36.193  22.266  10.794
55275W        W27700   1.469   8.903   4.129
55276W        W27701  34.082  30.042  13.462
55277W        W27702  40.465  36.745   1.867
55278W        W27703  29.437  12.787  10.530
55279W        W27704   9.832   5.634  10.220
55280W        W27705  29.502  44.764   4.549
55281W        W27706   8.925  20.237   0.674
55282W        W27707  14.655  23.073   1.961
55283W        W27708  13.173  16.104   3.768
55284W        W27709  17.763  10.167   0.318
55285W        W27710  22.610  14.840   3.636
55286W        W27711  36.141  10.639   4.166
55287W        W27712  44.759  22.953   2.262
55288W        W27713  34.060   1.133  13.276
55289W        W27714  22.962  10.153   4.623
55290W        W27715  23.273  41.129   0.878
55291W        W27716  12.977  38.286   0.394
55292W        W27717  21.693   8.303  13.011
55293W        W27718  17.338  25.659   9.922
55294W        W27719  33.861  28.084  12.894
55295W        W27720  12.051   3.355   4.601
55296W        W27721  41.640   0.928   4.267
55297W        W27722   3.280  27.071  14.344
55298W        W27723  25.674   5.525   1.485
55299W        W27724  34.951  31.197   1.890
55300W        W27725  22.463  32.486  11.671
55301W        W27726  10.449   0.068   1.581
55302W        W27727  30.533   1.685  13.017
55303W        W27728   5.685  36.412   5.143
55304W        W27729  29.112  23.143   1.312
55305W        W27730  16.093  11.780   4.086
55306W        W27731  22.293  27.415   4.802
55307W        W27732   8.679  25.159  12.988
55308W        W27733   5.939  41.349   1.657
55309W        W27734  44.366  40.250  11.478
55310W        W27735   1.067  40.589  11.094
55311W        W27736  18.156  34.934  13.981
55312W        W27737  39.147  21.621  10.451
55313W        W27738  26.380   6.797   2.572
55314W        W27739  32.446  26.021  11.548
55315W        W27740  18.954  39.036  14.972
55316W        W27741   2.297   2.624   2.643
55317W        W27742  17.177  31.044   4.609
55318W        W27743   4.022  17.078   0.651
55319W        W27744  19.102   5.524   2.272
55320W        W27745  22.058  21.406  13.488
55321W        W27746  26.266  32.505   2.939
55322W        W27747  42.271  37.092   4.583
55323W        W27748  36.528  36.570  13.413
55324W        W27749  30.930   0.497  13.783
55325W        W27750  42.622  33.694   3.121
55326W        W27751  25.684   2.488  14.350
55327W        W27752   1.387   3.517  11.425
55328W        W27753  34.398  30.087  11.003
55329W        W27754  29.156  35.368  12.542
55330W        W27755  19.915  15.006   0.951
55331W        W27756  38.138  43.339  10.507
55332W        W27757   8.417  28.844   4.704
55333W        W27758  37.942  14.546   0.351
55334W        W27759   9.712   5.762   4.088
55335W        W27760  36.791  14.212  10.430
55336W        W27761  12.308  33.955  14.717
55337W        W27762  44.310  25.165  12.740
55338W        W27763   0.511  10.583   0.277
55339W        W27764  18.236   7.795   3.034
55340W        W27765   5.485  18.582  14.948
55341W        W27766   9.562  30.530  12.069
55342W        W27767  37.785  23.290  11.486
55343W        W27768  28.341  23.117   0.824
55344W        W27769   5.784   5.586   2.436
55345W        W27770  12.039  37.944  11.542
55346W        W27771  11.851   6.382   4.085
55347W        W27772  31.836  42.772   4.155
55348W        W27773  20.692  17.566  11.963
55349W        W27774  24.690  20.039   0.675
55350W        W27775  40.514  16.784   0.827
55351W        W27776  22.529  41.041  14.355
55352W        W27777   3.919   7.764   1.373
55353W        W27778  24.519   9.686  13.930
55354W        W27779   7.175  15.035  10.723
55355W        W27780  39.296   5.333   1.255
55356W        W27781  20.411  18.249  14.284
55357W        W27782  31.327  33.527   0.143
55358W        W27783  42.108   3.839  11.562
55359W        W27784   9.816  13.236  14.508
55360W        W27785  43.860  10.398  13.200
55361W        W27786  40.405  25.226   2.782
55362W        W27787  14.884  43.059  10.878
55363W        W27788  30.150  17.665   0.432
55364W        W27789  15.671  17.021  13.523
55365W        W27790  28.448  17.826  11.174
55366W        W27791  28.122  19.509  11.136
55367W        W27792  39.865  41.360   2.389
55368W        W27793  19.339   5.371  12.002
55369W        W27794   2.819  40.820  10.545
55370W        W27795  16.832  12.191  13.425
55371W        W27796  21.207   6.736  14.279
55372W        W27797  39.074  20.607  13.463
55373W        W27798  21.228   3.064   2.616
55374W        W27799  10.586  28.283  12.382
55375W        W27800  37.574  43.255   2.798
55376W        W27801   8.775   9.138   1.241
55377W        W27802  31.099  21.338  11.142
55378W        W27803  44.926  33.625  13.060
55379W        W27804  15.409  19.432  13.477
55380W        W27805  21.981  21.682   3.726
55381W        W27806  14.177  26.428   0.849
55382W        W27807  27.712   9.011   0.983
55383W        W27808  40.303  13.250  12.056
55384W        W27809  38.407  13.377   3.683
55385W        W27810  39.726   6.596  13.377
55386W        W27811  11.303   3.541  10.862
55387W        W27812  41.221  16.546  11.987
55388W        W27813   9.285  23.387  11.619
55389W        W27814  35.537  18.312  11.121
55390W        W27815  30.961  41.569  14.892
55391W        W27816   9.724  33.631  13.462
55392W        W27817  12.539  38.807  12.365
55393W        W27818  18.132  30.730   1.482
55394W        W27819  28.520  16.733  10.422
55395W        W27820  11.225  43.071  12.325
55396W        W27821  39.059  21.475  13.425
55397W        W27822  33.128  24.565  11.145
55398W        W27823  19.531  18.655   4.378
55399W        W27824  35.841  10.720   0.760
55400W        W27825  13.395  10.205  13.876
55401W        W27826  42.932  15.572   4.733
55402W        W27827  40.224  14.737   2.262
55403W        W27828  14.558  33.150  13.476
55404W        W27829   6.873  22.889  10.992
55405W        W27830   5.393  26.740   0.023
55406W        W27831  29.966  14.661  12.085
55407W        W27832  10.422  17.894   3.074
55408W        W27833  39.102  44.759   0.753
55409W        W27834  12.628  28.009   1.307
55410W        W27835   0.384  31.439  11.502
55411W        W27836  31.525  31.397   3.576
55412W        W27837  20.635  27.491  11.446
55413W        W27838  33.426   8.164   3.584
55414W        W27839  20.285  22.051  10.656
55415W        W27840   8.266  21.204   1.203
55416W        W27841  43.253  44.524   1.325
55417W        W27842  35.696  42.884   4.397
55418W        W27843   9.792  22.235  10.945
55419W        W27844  13.276   0.353   4.475
55420W        W27845  26.134   5.900  13.751
55421W        W27846  19.787   8.905   1.279
55422W        W27847   9.791   0.565   2.561
55423W        W27848  43.856  13.380   3.827
55424W        W27849   3.781  11.180  10.731
55425W        W27850  35.918  24.045   4.177
55426W        W27851  16.205  16.900   1.917
55427W        W27852  20.049   6.795  12.371
55428W        W27853   1.093   9.251   2.468
55429W        W27854  27.634  34.184  11.722
55430W        W27855  38.914  18.961  14.469
55431W        W27856  30.234   3.784   4.617
55432W        W27857  19.547   6.292   2.351
55433W        W27858  33.867   3.926   2.025
55434W        W27859  33.423  17.729   0.014
55435W        W27860  27.090  18.569  12.287
55436W        W27861  37.685  16.280  13.127
55437W        W27862  42.425  33.360   2.786
55438W        W27863  32.498   6.265   2.659
55439W        W27864  44.013  10.814   3.259
55440W        W27865  12.719  43.127   3.728
55441W        W27866   6.416  11.593   3.285
55442W        W27867  34.576  34.457  14.724
55443W        W27868  38.929   4.099   1.500
55444W        W27869  10.171  34.951  10.962
55445W        W27870  42.104  24.658  12.596
55446W        W27871  17.073  28.782  11.695
55447W        W27872   4.853  22.027   2.629
55448W        W27873  22.739  39.905   4.249
55449W        W27874  23.570  23.862   1.808
55450W        W27875  20.318  10.751   0.807
55451W        W27876  10.215  23.135   1.322
55452W        W27877  28.901  22.030  11.684
55453W        W27878  10.368  39.823   3.212
55454W        W27879  20.240   1.565   0.016
55455W        W27880  14.657  19.373  10.821
55456W        W27881  42.967   8.314   2.311
55457W        W27882  41.454   7.811   1.017
55458W        W27883  13.675  32.707  14.348
55459W        W27884  38.624  14.867   3.755
55460W        W27885  24.950   3.923  14.019
55461W        W27886  32.583  29.100   3.561
55462W        W27887  31.675  19.195  12.930
55463W        W27888  31.356  42.802   1.394
55464W        W27889  31.674  24.953  10.253
55465W        W27890  38.335   1.716   1.678
55466W        W27891   8.581   1.510   3.919
55467W        W27892  13.781  28.004   5.103
55468W        W27893   1.435  16.339   4.617
55469W        W27894   4.968  33.573   2.287
55470W        W27895  23.646  32.399   0.677
55471W        W27896  16.322   4.718   2.346
55472W        W27897   0.804  13.328  14.943
55473W        W27898  22.352  31.154   1.445
55474W        W27899  13.558  18.328   1.162
55475W        W27900  26.584  29.982   0.729
55476W        W27901   3.753   0.798  14.293
55477W        W27902  16.541   5.283   2.743
55478W        W27903   5.277   6.235   2.222
55479W        W27904   3.186   8.858  13.873
55480W        W27905  23.242  11.434   0.942
55481W        W27906  33.160  44.296   2.818
55482W        W27907  22.132  43.199  13.837
55483W        W27908  33.574  25.148   1.954
55484W        W27909   9.554   6.097   1.087
55485W        W27910  34.922  18.449  10.921
55486W        W27911   0.905   0.429  14.502
55487W        W27912   6.373  15.103  11.146
55488W        W27913  19.213  19.226   2.715
55489W        W27914  27.194   7.283   2.434
55490W        W27915  34.141  40.577  11.560
55491W        W27916  43.849  30.182  14.345
55492W        W27917  34.754   2.196   0.219
55493W        W27918  34.738  20.073  12.335
55494W        W27919  16.249  12.338   2.258
55495W        W27920   2.885  41.835  13.007
55496W        W27921  41.940   3.750   0.810
55497W        W27922  43.239  35.527  10.565
55498W        W27923  11.637   7.237   3.192
55499W        W27924  33.085  38.879  13.525
55500W        W27925   9.317  37.126   4.039
55501W        W27926  41.379  27.421   4.540
55502W        W27927   5.388  34.310  13.417
55503W        W27928  35.370   8.537   1.927
55504W        W27929  32.474  26.544  13.244
55505W        W27930   4.675  21.137  12.983
55506W        W27931  11.156  19.947   3.297
55507W        W27932   8.383  35.092  12.509
55508W        W27933  44.310  23.731   2.713
55509W        W27934  28.627  37.913   4.632
55510W        W27935   8.659  29.478   0.229
55511W        W27936  26.228  28.302   2.216
55512W        W27937  23.274  31.918  11.370
55513W        W27938  14.137   6.127  11.026
55514W        W27939  34.679  25.098   1.418
55515W        W27940  15.839  25.001  13.375
55516W        W27941  31.582   8.465  13.836
55517W        W27942  32.472   1.906  13.115
55518W        W27943  19.616  29.439   1.274
55519W        W27944  30.102  20.750   3.215
55520W        W27945  38.900  27.622   3.647
55521W        W27946  39.914   7.203  13.953
55522W        W27947  25.035  17.886  13.321
55523W        W27948  13.789  27.574  12.234
55524W        W27949  39.315  44.978   2.465
55525W        W27950  20.442  17.204   0.872
55526W        W27951  42.649  15.039   4.107
55527W        W27952  12.220   8.266  11.270
55528W        W27953  18.615  24.273   0.788
55529W        W27954  42.597   5.792   3.251
55530W        W27955  21.815  23.043   4.654
55531W        W27956  16.162  18.314  12.901
55532W        W27957  36.465  39.138  12.054
55533W        W27958  10.393  17.801   0.936
55534W        W27959  16.600  42.784  13.812
55535W        W27960  35.480  24.241  11.083
55536W        W27961  30.475  24.101  13.318
55537W        W27962   8.854  43.269   3.125
55538W        W27963  11.179   9.706   4.283
55539W        W27964  17.047  10.729   3.629
55540W        W27965  38.816  28.429  10.740
55541W        W27966  24.902  23.528   2.458
55542W        W27967  25.534  27.226   0.296
55543W        W27968  44.692  17.759  13.109
55544W        W27969   0.359  39.079  12.850
55545W        W27970  30.615  31.685   1.854
55546W        W27971   3.199   9.312  10.623
55547W        W27972  26.724   5.511  11.288
55548W        W27973  27.053  39.459   0.292
55549W        W27974  29.495   0.883  12.424
55550W        W27975  39.768  44.275   4.783
55551W        W27976  26.496  20.231  14.263
55552W        W27977  36.564  41.885  12.644
55553W        W27978  30.719  37.138  12.591
55554W        W27979  33.457  44.504   0.571
55555W        W27980  40.464  30.619   2.673
55556W        W27981  34.099  15.147   4.468
55557W        W27982   8.774  24.271  12.564
55558W        W27983  21.738  10.820   2.627
55559W        W27984  28.187  11.428   1.000
55560W        W27985  35.100   1.787   3.722
55561W        W27986  10.802  11.844   1.535
55562W        W27987  12.672  22.804  10.970
55563W        W27988   0.741   1.444   4.134
55564W        W27989  27.708   1.242   3.669
55565W        W27990  37.500  26.140  13.171
55566W        W27991  14.302  24.828   0.061
55567W        W27992  15.062  21.086  14.439
55568W        W27993   5.161  33.180   0.487
55569W        W27994  33.235   9.387  11.579
55570W        W27995  13.718  22.941   4.899
55571W        W27996  23.569  36.115   0.348
55572W        W27997   8.899  42.449   0.431
55573W        W27998   7.495  39.873  14.862
55574W        W27999   6.139  28.388  12.475
55575W        W28000  18.802   9.792  11.340
55576W        W28001  38.438   5.287  14.501
55577W        W28002  35.581  11.268  11.951
55578W        W28003  12.881  28.855  13.956
55579W        W28004  11.993  24.991  13.298
55580W        W28005  42.775  12.767   0.759
55581W        W28006  20.003   4.639  12.588
55582W        W28007  28.580  21.779  12.002
55583W        W28008   2.964   8.354  13.814
55584W        W28009  27.111  17.657   3.891
55585W        W28010   1.630  10.975   2.647
55586W        W28011  13.243  32.175  11.569
55587W        W28012  24.031  38.615   3.828
55588W        W28013  19.047  43.060   2.716
55589W        W28014  40.550  18.066   2.704
55590W        W28015  12.544  41.578   0.401
55591W        W28016  15.701  14.332  11.888
55592W        W28017  41.346  19.453  11.245
55593W        W28018  26.556  15.366   2.451
55594W        W28019  31.108  33.925   0.797
55595W        W28020  29.147  36.104   1.836
55596W        W28021  11.742  22.982   1.335
55597W        W28022  21.441  27.081  11.978
55598W        W28023  30.286  28.429   0.302
55599W        W28024  29.093   1.137   0.002
55600W        W28025  15.186  11.307   2.658
55601W        W28026  43.513  44.404  11.620
55602W        W28027  16.067   0.356  12.023
55603W        W28028  29.234  29.549   3.268
55604W        W28029  21.375  16.369   1.911
55605W        W28030  12.685  33.893  14.356
55606W        W28031   3.850  29.041   0.781
55607W        W28032  15.767  19.839   3.724
55608W        W28033  33.058  33.364  11.083
55609W        W28034  24.697   0.969  13.902
55610W        W28035  42.642  24.556  10.886
55611W        W28036  24.855   8.436  14.537
55612W        W28037  20.295  14.539   3.227
55613W        W28038  43.829  19.719  14.798
55614W        W28039  10.403  11.364  11.151
55615W        W28040  42.377   2.936   1.974
55616W        W28041   6.934  17.757  14.316
55617W        W28042  31.881  14.665  14.026
55618W        W28043  17.307   4.534   1.305
55619W        W28044  17.823  31.154  13.986
55620W        W28045   9.226   9.637   4.322
55621W        W28046  12.590  38.923   2.183
55622W        W28047  23.650  32.538   4.320
55623W        W28048   9.827  22.857  11.514
55624W        W28049  38.995  18.017  11.033
55625W        W28050  37.085  40.736  10.659
55626W        W28051  24.858  40.010   2.514
55627W        W28052   0.519  44.303   3.303
55628W        W28053  37.501  10.873  13.005
55629W        W28054  18.541  27.402   3.225
55630W        W28055  23.037  25.153  14.525
55631W        W28056   2.112   0.613   2.293
55632W        W28057  28.431  26.886  12.572
55633W        W28058  39.068  36.557   1.254
55634W        W28059  14.114  43.443  11.204
55635W        W28060  28.546  29.155  14.901
55636W        W28061  25.766  37.771   3.695
55637W        W28062  17.798  12.328   0.973
55638W        W28063  16.287   2.449   0.946
55639W        W28064   3.459  29.053   3.600
55640W        W28065  20.843  21.755   1.447
55641W        W28066  38.603  10.184  11.007
55642W        W28067  34.037   7.400   4.452
55643W        W28068  32.605  30.234   0.270
55644W        W28069  23.615  43.193  12.559
55645W        W28070  12.981   2.330  12.436
55646W        W28071  17.459  37.232  10.981
55647W        W28072  33.592  34.887   2.242
55648W        W28073  24.593  16.017   0.335
55649W        W28074  23.320  23.080   4.941
55650W        W28075  14.176  22.783   4.632
55651W        W28076   7.083   3.778   2.694
55652W        W28077  30.078   7.256   3.897
55653W        W28078   8.273  26.438  11.525
55654W        W28079  38.368  14.673   0.705
55655W        W28080  33.467  26.602  11.152
55656W        W28081  25.463   9.473   2.629
55657W        W28082  20.849  11.175  11.001
55658W        W28083  18.271  26.123   3.287
55659W        W28084  38.452  31.845   3.274
55660W        W28085  39.394  44.354  11.735
55661W        W28086  20.583  10.105  14.721
55662W        W28087  44.915   7.915  11.119
55663W        W28088   0.678   7.411  12.077
55664W        W28089  40.330  29.486  14.779
55665W        W28090   2.062  19.734  10.992
55666W        W28091  33.328  40.464  12.111
55667W        W28092  20.558  38.354   1.145
55668W        W28093  29.614  40.850  13.261
55669W        W28094   0.366   4.307   3.500
55670W        W28095  32.899  44.239  12.916
55671W        W28096   9.978  18.024   3.318
55672W        W28097   5.276  16.394   1.799
55673W        W28098  28.644  43.504  11.043
55674W        W28099  28.675  20.354  12.500
55675W        W28100  17.837  44.181  13.618
55676W        W28101   3.731  41.845   0.834
55677W        W28102  44.870  38.348  12.916
55678W        W28103  15.696  12.644  13.086
55679W        W28104  12.384   6.798  13.076
55680W        W28105  26.859  44.236   4.432
55681W        W28106  23.943  34.477   0.499
55682W        W28107   4.486  21.551  14.525
55683W        W28108  19.659  15.008   3.794
55684W        W28109  16.815  23.042   4.063
55685W        W28110  24.204  21.009  11.022
55686W        W28111  26.520  28.160   3.600
55687W        W28112  38.465  39.287  14.706
55688W        W28113  24.127  18.745   1.148
55689W        W28114  25.745   0.974   0.885
55690W        W28115  32.899   9.871   1.681
55691W        W28116  24.022  11.882   5.371
55692W        W28117  20.146   7.982  14.984
55693W        W28118  34.853  30.922   1.440
55694W        W28119   1.033  26.234  14.031
55695W        W28120  19.287  21.608  14.902
55696W        W28121  12.124   3.911   4.898
55697W        W28122   5.718  12.195   2.949
55698W        W28123  40.830  40.443  10.741
55699W        W28124  16.737   4.252   2.774
55700W        W28125  36.796  29.885  12.904
55701W        W28126  14.174  20.720  14.004
55702W        W28127  35.894  10.387   1.652
55703W        W28128   5.972  24.601  11.147
55704W        W28129  13.590  18.540  13.007
55705W        W28130  17.973  24.778   4.526
55706W        W28131   6.819  41.247   2.931
55707W        W28132  18.977  34.499  14.740
55708W        W28133  17.997  25.123  12.923
55709W        W28134   7.669  27.971   4.519
55710W        W28135  43.372  24.430  13.755
55711W        W28136  33.925  26.542  12.844
55712W        W28137  33.032  39.799  11.974
55713W        W28138  33.773   6.316  10.553
55714W        W28139  24.043  24.002   1.487
55715W        W28140  34.413  10.780   2.647
55716W        W28141  25.417  24.198   1.813
55717W        W28142  19.455  14.761   0.909
55718W        W28143  12.769  35.999   3.239
55719W        W28144  27.404   8.181   2.951
55720W        W28145   2.218  40.909  12.183
55721W        W28146  31.395   5.417   1.799
55722W        W28147  14.889  32.958   1.882
55723W        W28148  29.459  25.165  14.716
55724W        W28149  13.295  11.334   0.726
55725W        W28150  16.296  37.031   1.904
55726W        W28151  24.189  27.939   3.313
55727W        W28152  13.903  18.909  14.764
55728W        W28153  17.645   8.567  10.448
55729W        W28154   7.251  40.399  11.299
55730W        W28155  34.127  43.359  12.828
55731W        W28156   8.238  17.660   4.542
55732W        W28157  33.168  44.994  11.095
55733W        W28158  10.199   7.950   1.827
55734W        W28159  38.098  37.487  13.865
55735W        W28160  42.894   6.608   0.442
55736W        W28161  19.776  34.152   2.771
55737W        W28162   2.201   0.347  14.582
55738W        W28163  29.881  38.478   1.777
55739W        W28164  18.779  44.393   2.369
55740W        W28165  20.698   4.711   5.064
55741W        W28166  35.047  30.439  14.517
55742W        W28167  13.887  27.919   2.400
55743W        W28168   5.751   4.033   2.385
55744W        W28169  24.570  29.969  13.482
55745W        W28170  34.379  11.293  12.719
55746W        W28171   2.277  34.590   2.378
55747W        W28172  43.934  16.789  13.913
55748W        W28173  18.009  19.754   3.280
55749W        W28174  38.495  25.639  13.727
55750W        W28175   9.413   9.332   2.120
55751W        W28176  43.295  35.600   4.080
55752W        W28177   7.811  42.447  14.124
55753W        W28178  16.476  35.871   4.103
55754W        W28179   9.922  32.580  11.050
55755W        W28180   1.729  11.773   1.444
55756W        W28181  30.005  13.332  11.589
55757W        W28182  17.415  32.195  13.291
55758W        W28183  16.158  33.072  12.868
55759W        W28184  20.189  16.116  13.767
55760W        W28185  23.759  34.019  14.366
55761W        W28186  29.094  14.765  13.340
55762W        W28187  21.589   1.436  12.288
55763W        W28188  29.742  29.545  14.375
55764W        W28189   5.390   3.984  11.136
55765W        W28190  16.928  18.497  12.539
55766W        W28191   6.239   6.623   3.909
55767W        W28192  36.631  35.841   2.346
55768W        W28193   4.259  23.201  12.890
55769W        W28194  38.419  17.244   3.415
55770W        W28195  15.222  36.644   0.767
55771W        W28196  40.976  27.789   0.584
55772W        W28197   1.341  11.077   0.723
55773W        W28198  34.958  11.809   4.580
55774W        W28199  35.979   9.929  13.667
55775W        W28200  29.903   3.760  11.147
55776W        W28201  39.026   2.531   2.791
55777W        W28202  39.876  10.127  13.909
55778W        W28203  36.340  43.591   0.408
55779W        W28204  41.999  22.662  13.976
55780W        W28205  44.268   1.430  11.198
55781W        W28206  26.030   2.411   3.555
55782W        W28207  31.301  28.654   1.760
55783W        W28208  39.814  23.902   3.181
55784W        W28209  37.316   7.674   2.465
55785W        W28210  22.620  26.152   2.864
55786W        W28211   7.809   3.222   4.093
55787W        W28212  15.993   4.873  13.091
55788W        W28213  28.953  11.653   2.430
55789W        W28214  40.093  12.607  14.856
55790W        W28215  28.381  41.996  12.458
55791W        W28216   5.612  25.030  13.413
55792W        W28217   0.867  27.718   4.247
55793W        W28218  13.224  32.512   1.667
55794W        W28219  38.912  36.723  11.222
55795W        W28220  30.918   8.454  12.533
55796W        W28221  36.373  37.649  13.820
55797W        W28222  18.688   9.804   1.290
55798W        W28223  37.625  19.545   2.439
55799W        W28224  43.507   5.389   2.608
55800W        W28225  14.693  35.999  11.572
55801W        W28226  25.306   5.876  10.694
55802W        W28227  41.028  20.625   4.395
55803W        W28228  43.854  18.291   3.273
55804W        W28229  10.319  29.728  11.251
55805W        W28230   2.818   5.181  12.424
55806W        W28231  28.202  29.720   0.347
55807W        W28232  22.990  39.961   2.416
55808W        W28233  28.197  35.172   3.711
55809W        W28234  43.947  10.345  12.674
55810W        W28235  18.684  21.083  10.937
55811W        W28236  24.684  44.475  10.446
55812W        W28237   8.836  14.846  11.937
55813W        W28238   9.692  14.638   3.235
55814W        W28239   8.881  43.320  14.361
55815W        W28240  36.159  26.538   1.452
55816W        W28241  22.485  43.825   0.520
55817W        W28242   1.473  10.689   4.133
55818W        W28243  12.387  22.316   1.480
55819W        W28244  40.914  34.299   3.565
55820W        W28245  44.257  39.749   4.472
55821W        W28246  11.786  13.802   3.884
55822W        W28247  20.471  34.895   1.158
55823W        W28248  33.874  40.048  14.414
55824W        W28249  19.620  16.739   0.820
55825W        W28250   2.307  24.259  14.867
55826W        W28251  32.839  21.779  12.314
55827W        W28252  28.978  13.867   3.688
55828W        W28253   5.679  29.239  14.988
55829W        W28254  13.521   7.790   0.615
55830W        W28255  28.227  44.254  14.374
55831W        W28256  12.906  25.746  13.232
55832W        W28257  35.092  33.138   3.240
55833W        W28258  23.016  42.802   2.246
55834W        W28259  23.185  32.378   1.342
55835W        W28260   9.764  29.199   1.902
55836W        W28261  36.912   6.172   1.738
55837W        W28262  29.456  22.411   4.561
55838W        W28263   7.933   5.875  12.465
55839W        W28264  34.099  15.657  12.089
55840W        W28265  28.162  19.301  13.067
55841W        W28266   7.157  32.682   0.682
55842W        W28267  22.091  42.174  12.055
55843W        W28268  22.177  29.349  12.404
55844W        W28269  25.767  29.419   2.555
55845W        W28270  40.867  36.712  12.887
55846W        W28271  20.643  35.980   0.990
55847W        W28272   2.710  34.828   0.836
55848W        W28273  24.431   0.775   4.538
55849W        W28274  11.479  25.520   0.907
55850W        W28275  26.545  15.549  11.686
55851W        W28276  10.576  33.903   4.564
55852W        W28277   0.469  44.733   2.545
55853W        W28278   6.871  34.408  12.156
55854W        W28279  27.724  11.189   0.885
55855W        W28280  17.838  23.529   2.763
55856W        W28281  31.960   0.772   4.542
55857W        W28282  39.147  17.497   3.879
55858W        W28283  26.109   3.291  14.228
55859W        W28284  21.016  23.092   1.043
55860W        W28285  33.342  38.339   4.651
55861W        W28286  32.136  27.563   2.798
55862W        W28287  24.087   3.433  10.045
55863W        W28288  41.808  41.942  13.945
55864W        W28289   1.459  30.617   3.828
55865W        W28290  19.738  29.945  13.371
55866W        W28291  32.357   9.300   0.797
55867W        W28292  27.563   7.203  12.082
55868W        W28293  20.624  32.534   3.176
55869W        W28294  43.881  19.303  11.072
55870W        W28295  30.197  14.281  13.361
55871W        W28296   3.222  39.166   0.207
55872W        W28297  27.550  25.794  10.574
55873W        W28298  41.209  20.167  12.910
55874W        W28299  24.105  32.216  11.973
55875W        W28300  29.819   0.846   2.093
55876W        W28301  39.541  21.108  11.952
55877W        W28302  26.834  28.547  13.449
55878W        W28303  32.997   4.938   1.282
55879W        W28304  30.481  27.005  14.695
55880W        W28305  35.795   4.841   0.298
55881W        W28306  23.049  18.330  12.463
55882W        W28307   2.552   1.132  11.839
55883W        W28308  24.516  33.648   1.292
55884W        W28309  33.326  29.994   1.326
55885W        W28310  41.045  13.790  10.768
55886W        W28311  35.648   1.866   1.751
55887W        W28312  24.408  41.450   4.510
55888W        W28313  15.779  38.103  10.393
55889W        W28314  13.004  18.037  13.527
55890W        W28315  12.793  42.478   4.398
55891W        W28316  32.492  15.853   3.498
55892W        W28317  42.687  42.276  11.586
55893W        W28318  43.031   0.986  12.403
55894W        W28319  23.589   5.821   3.609
55895W        W28320  24.990  39.993  13.418
55896W        W28321  41.307  43.468   2.434
55897W        W28322  33.148  34.945  13.215
55898W        W28323  14.690  23.504   0.849
55899W        W28324  31.816  27.136   2.800
55900W        W28325  31.002  10.364  12.391
55901W        W28326  22.195  22.456   2.376
55902W        W28327  17.038  23.735  10.650
55903W        W28328  20.836  15.989   0.818
55904W        W28329   7.067   5.930   3.931
55905W        W28330  24.131   9.198   0.834
55906W        W28331   9.030  24.100  11.194
55907W        W28332   5.944  30.567   1.783
55908W        W28333  13.416   5.934   1.926
55909W        W28334  42.669   9.293  13.319
55910W        W28335  24.008   6.657   4.257
55911W        W28336   6.955   4.503  12.488
55912W        W28337   1.651  27.803  14.189
55913W        W28338  32.491  42.078   3.189
55914W        W28339  28.680  25.438  12.538
55915W        W28340  20.654   3.800   0.831
55916W        W28341  16.635  31.514   1.588
55917W        W28342   0.826  23.397   4.786
55918W        W28343  16.380  28.568  13.471
55919W        W28344  36.935  29.951   3.112
55920W        W28345  25.265  35.618  11.972
55921W        W28346  21.005  38.018   3.261
55922W        W28347  40.320  20.225   0.867
55923W        W28348  44.688  20.558   1.035
55924W        W28349  10.194  18.867  12.006
55925W        W28350  36.490  44.793   1.828
55926W        W28351  28.077  20.602  14.328
55927W        W28352  10.843  24.569  14.081
55928W        W28353  10.997   9.198  14.523
55929W        W28354  24.229  20.937   3.661
55930W        W28355   7.780  11.123  13.383
55931W        W28356   3.987  42.597  10.268
55932W        W28357  18.572  26.526   3.134
55933W        W28358  11.715   8.408  14.874
55934W        W28359  11.559  42.868  10.830
55935W        W28360  29.270  35.571   2.678
55936W        W28361   3.369  36.627  13.968
55937W        W28362   2.865  40.325   2.235
55938W        W28363  16.268  18.845   4.291
55939W        W28364   6.812  30.538   4.102
55940W        W28365  38.864  33.510   1.368
55941W        W28366  42.527  28.618  12.948
55942W        W28367   7.427  34.621  10.983
55943W        W28368  35.537  10.392  12.477
55944W        W28369   9.495   1.698   1.555
55945W        W28370  42.844  40.017  11.569
55946W        W28371  35.535   1.498   3.644
55947W        W28372  39.116  39.084   4.095
55948W        W28373  31.730  11.390   3.095
55949W        W28374  16.232  43.662  11.208
55950W        W28375  41.019  42.927  14.758
55951W        W28376  37.464  23.441   2.461
55952W        W28377   6.270  25.268   4.117
55953W        W28378  43.771  13.680   0.777
55954W        W28379  25.565  26.940  12.450
55955W        W28380   7.288  43.880  14.465
55956W        W28381  33.527  27.037   3.319
55957W        W28382  39.026  24.158   2.856
55958W        W28383  18.566  21.812   1.227
55959W        W28384  12.782  36.886  12.758
55960W        W28385  13.647   7.699   3.790
55961W        W28386  13.971   5.269   0.781
55962W        W28387  30.069   6.625  13.569
55963W        W28388   7.769  15.387   4.132
55964W        W28389  37.726  32.745  13.659
55965W        W28390   5.015  22.753  14.213
55966W        W28391  24.545  35.277  10.741
55967W        W28392  12.650  28.191  11.575
55968W        W28393  36.952  44.068   1.832
55969W        W28394  24.992  18.722   2.201
55970W        W28395  35.923  30.448  11.525
55971W        W28396  17.736   7.275   4.247
55972W        W28397  29.465   2.153   4.607
55973W        W28398   7.343   6.975  13.806
55974W        W28399  28.108  23.082  14.629
55975W        W28400  23.724  30.318  14.427
55976W        W28401  38.517  13.190   2.643
55977W        W28402  17.080  28.015  13.568
55978W        W28403   0.552  14.997  11.477
55979W        W28404  30.446  43.003  11.685
55980W        W28405   4.711  15.122   5.087
55981W        W28406   5.152  21.061  13.611
55982W        W28407  39.021   9.606  12.171
55983W        W28408  15.336  14.458  11.304
55984W        W28409  22.666  29.159  13.992
55985W        W28410  28.841  26.096   3.580
55986W        W28411  22.269  11.373   5.053
55987W        W28412   4.453   8.841  10.922
55988W        W28413  16.153   8.386  12.467
55989W        W28414   2.835  31.061   2.857
55990W        W28415   0.864   8.370  13.810
55991W        W28416  10.709  15.646  10.210
55992W        W28417  40.082  43.232  13.434
55993W        W28418  36.608  17.843   4.143
55994W        W28419  42.879  29.431  14.579
55995W        W28420  40.944  17.854  14.512
55996W        W28421  33.936  17.020  10.419
55997W        W28422  35.777   2.369   1.852
55998W        W28423  23.942  31.995   2.648
55999W        W28424  36.653   5.695   3.993
56000W        W28425  34.948  18.648   3.747
56001W        W28426  12.239  31.192   2.152
56002W        W28427  43.269   7.108  13.039
56003W        W28428   0.727  23.156  11.613
56004W        W28429   4.978   4.032   1.023
56005W        W28430   2.942   9.224   1.515
56006W        W28431  24.813  27.013  13.242
56007W        W28432  26.744   9.165  11.621
56008W        W28433  19.096  40.840  13.272
56009W        W28434  38.510   0.292   0.645
56010W        W28435   9.896  19.197   3.679
56011W        W28436  14.701  31.419   2.715
56012W        W28437  43.483  32.395  14.821
56013W        W28438  31.651  37.345  14.396
56014W        W28439  21.869  41.906   4.289
56015W        W28440  24.276   4.928  14.953
56016W        W28441  33.383   3.331   4.603
56017W        W28442   9.986  22.569  12.436
56018W        W28443   6.406  43.574   2.339
56019W        W28444  15.590  37.334  11.157
56020W        W28445  38.563  33.459  13.055
56021W        W28446  19.518  30.168  12.028
56022W        W28447  31.415   8.939   1.404
56023W        W28448  15.557  17.340  12.539
56024W        W28449  39.407  14.294   1.379
56025W        W28450   2.355  40.227   4.900
56026W        W28451  27.953  28.547   2.775
56027W        W28452   6.130   1.190   0.306
56028W        W28453   4.638  17.538  10.894
56029W        W28454  15.596  21.135   2.442
56030W        W28455   0.355  30.578   0.330
56031W        W28456   9.575  37.181  14.902
56032W        W28457  34.147  31.051   4.154
56033W        W28458  28.739  13.251   2.335
56034W        W28459   8.522  29.493  12.002
56035W        W28460  12.344  11.187  10.563
56036W        W28461   8.687  26.111   3.365
56037W        W28462  11.311  29.444   1.379
56038W        W28463  21.006  12.096   0.603
56039W        W28464  14.147   1.944  11.920
56040W        W28465  21.987   6.205  14.794
56041W        W28466  24.504  20.609  12.343
56042W        W28467   6.755   3.929  14.031
56043W        W28468  12.066  14.716  14.899
56044W        W28469   0.817  18.236   4.620
56045W        W28470  10.858  23.766  11.023
56046W        W28471  10.669  32.336  10.328
56047W        W28472   6.531  11.757   9.854
56048W        W28473   8.688  25.301  10.927
56049W        W28474  24.644  13.352   4.722
56050W        W28475  26.751  11.791   1.054
56051W        W28476  10.964  31.182  12.196
56052W        W28477   0.298   6.682  13.319
56053W        W28478  17.813  32.096   4.179
56054W        W28479  36.814  20.190  13.950
56055W        W28480  12.624  33.378  13.456
56056W        W28481  25.027  26.586  13.509
56057W        W28482   5.886   4.432   4.097
56058W        W28483  38.873   2.344  13.488
56059W        W28484  34.751  26.737   1.043
56060W        W28485  31.868  27.255  14.055
56061W        W28486   8.613  30.476  12.301
56062W        W28487  39.057   0.456  13.901
56063W        W28488   0.769  11.403  12.032
56064W        W28489  30.581  43.913   3.583
56065W        W28490   4.464  37.947  12.143
56066W        W28491   4.766  19.088  13.606
56067W        W28492  17.290  12.061  10.724
56068W        W28493  11.212   4.932  12.059
56069W        W28494  42.867  38.165   4.155
56070W        W28495  24.283  34.778  11.068
56071W        W28496   4.279  34.668   4.094
56072W        W28497  10.951  17.672   1.797
56073W        W28498   9.218  30.341  11.125
56074W        W28499  35.207  28.459   1.832
56075W        W28500   8.452  42.513  11.972
56076W        W28501  39.897  29.334   0.745
56077W        W28502  40.299   2.557   4.205
56078W        W28503  20.051  32.896  13.872
56079W        W28504   3.640  42.124  13.604
56080W        W28505  14.420  33.157  14.934
56081W        W28506   2.136  24.102   1.843
56082W        W28507  35.763  29.962  11.634
56083W        W28508   7.890   9.670   2.287
56084W        W28509   8.414  15.710  11.617
56085W        W28510  31.873  39.737   3.209
56086W        W28511   4.314  40.568   3.431
56087W        W28512  11.369   0.234   2.219
56088W        W28513   0.948  17.589   3.277
56089W        W28514   8.170  18.807   3.780
56090W        W28515  14.522  31.118   0.704
56091W        W28516   9.871  25.647   3.611
56092W        W28517  30.799   1.810   2.229
56093W        W28518  41.592   3.899   1.426
56094W        W28519  35.005  22.113   1.777
56095W        W28520   6.857   3.208   4.261
56096W        W28521  37.941  35.526   0.889
56097W        W28522   4.889  13.813   2.440
56098W        W28523   6.978  44.413  13.316
56099W        W28524  17.157  44.384   0.407
56100W        W28525  16.112  39.927   0.081
56101W        W28526  15.019  40.923  11.794
56102W        W28527  39.300  42.947  12.791
56103W        W28528  36.999  34.538  10.753
56104W        W28529   6.286  32.346   2.897
56105W        W28530   4.316  21.096  14.720
56106W        W28531  35.372  43.174  13.773
56107W        W28532  34.944  17.019  12.522
56108W        W28533  44.472  19.359   4.260
56109W        W28534  32.906  39.808   3.214
56110W        W28535   6.660  26.119  14.511
56111W        W28536  27.445  22.455  12.621
56112W        W28537  26.557  10.806   0.691
56113W        W28538   8.871   9.891  12.118
56114W        W28539  44.995   9.183   4.115
56115W        W28540  11.186   9.344   0.989
56116W        W28541  39.521  34.456  13.880
56117W        W28542  21.928  35.740  14.051
56118W        W28543  25.757  11.667   4.542
56119W        W28544  17.601   6.421  14.301
56120W        W28545  40.468   1.922   1.479
56121W        W28546  39.820  20.077  11.632
56122W        W28547  27.184  14.251  10.537
56123W        W28548   7.235   1.365  12.880
56124W        W28549  11.207  17.740   2.253
56125W        W28550  34.416   4.651  14.530
56126W        W28551  16.296  17.807  12.974
56127W        W28552  24.715   8.247   3.827
56128W        W28553  28.040  31.414   2.493
56129W        W28554   8.761  15.988   3.548
56130W        W28555  23.231  32.145   3.676
56131W        W28556  29.160   3.185   2.278
56132W        W28557  14.511   8.394  11.148
56133W        W28558   1.483   8.083  13.060
56134W        W28559  20.164  37.863  12.495
56135W        W28560  44.967  34.599  14.236
56136W        W28561  28.556  20.114  10.742
56137W        W28562  37.488  25.517   4.447
56138W        W28563  11.999  25.060   4.471
56139W        W28564  31.915  18.285  10.631
56140W        W28565  20.847  40.033  11.462
56141W        W28566  15.332  13.805   1.853
56142W        W28567  11.809  21.235  10.774
56143W        W28568  23.715   6.259   4.830
56144W        W28569   1.263   8.768   2.474
56145W        W28570   0.574  25.435   3.954
56146W        W28571  32.325   3.305   4.748
56147W        W28572   3.810  12.073   1.155
56148W        W28573  39.203  15.273   3.108
56149W        W28574  30.615  38.941   4.406
56150W        W28575  37.987  28.534   0.808
56151W        W28576   7.679  37.328   2.833
56152W        W28577  13.707  33.235  14.384
56153W        W28578  30.362   4.467   0.855
56154W        W28579  25.713  13.358   4.934
56155W        W28580  37.764  24.530   4.740
56156W        W28581  31.909  10.351   0.748
56157W        W28582  32.017  39.223   3.203
56158W        W28583  32.931  32.412  12.006
56159W        W28584  31.521  20.591  10.846
56160W        W28585  30.563  33.109  13.371
56161W        W28586  39.940   4.904   0.547
56162W        W28587  31.204  23.638   3.174
56163W        W28588   4.275  12.420   4.412
56164W        W28589  19.318  43.331   3.819
56165W        W28590  34.451  19.293  13.492
56166W        W28591  29.248  42.864  14.938
56167W        W28592  23.691  16.838   2.449
56168W        W28593  19.055  27.619  11.901
56169W        W28594  12.293  26.281  13.481
56170W        W28595   2.878  13.117  13.843
56171W        W28596  24.278  31.057  10.634
56172W        W28597   6.368  29.134   2.271
56173W        W28598  28.129  43.223  12.789
56174W        W28599  44.332  30.410   3.570
56175W        W28600  35.802  21.158  14.380
56176W        W28601   2.979  17.204   2.791
56177W        W28602  36.099  24.368  10.653
56178W        W28603   2.373  29.911  13.188
56179W        W28604  27.543  44.504   3.132
56180W        W28605   5.228   9.683   3.309
56181W        W28606  14.763  19.815   0.885
56182W        W28607   9.595   4.898  11.218
56183W        W28608  33.161  23.664  11.043
56184W        W28609  11.194  35.887   3.264
56185W        W28610   5.635  36.636   4.683
56186W        W28611  24.647  11.836  12.646
56187W        W28612  44.485  34.124   4.123
56188W        W28613  34.999  22.923  14.663
56189W        W28614   4.280  41.981  12.939
56190W        W28615  23.661  16.735   1.548
56191W        W28616   3.024  24.573   0.463
56192W        W28617  22.688  16.619   4.604
56193W        W28618  37.077  41.015  13.831
56194W        W28619  39.744  17.545   1.647
56195W        W28620  42.869  33.365  13.797
56196W        W28621   5.314  34.118   0.302
56197W        W28622  18.459  16.121   1.017
56198W        W28623   2.320   8.696  12.878
56199W        W28624   3.511  42.813   2.238
56200W        W28625  33.460  15.125  13.868
56201W        W28626  22.892   2.223  12.519
56202W        W28627  44.373  23.268  12.833
56203W        W28628  39.779  30.192  13.674
56204W        W28629   8.794  42.999  14.811
56205W        W28630  18.645   6.147  10.401
56206W        W28631  24.428  11.798  10.741
56207W        W28632   5.017  22.177   4.697
56208W        W28633   3.076  34.136  11.187
56209W        W28634   5.280   5.796   2.987
56210W        W28635   0.906  32.670   4.706
56211W        W28636   0.805   3.549  13.583
56212W        W28637  32.934  20.262   0.664
56213W        W28638  27.598  39.979  11.365
56214W        W28639   3.445  39.580  13.756
56215W        W28640  12.703  23.469  13.597
56216W        W28641   5.160  23.095   1.411
56217W        W28642   9.761  29.376  10.625
56218W        W28643  38.530   6.568   3.836
56219W        W28644  34.165   3.130   2.201
56220W        W28645  17.215   2.723  14.984
56221W        W28646   3.365  23.554  14.795
56222W        W28647  34.460  27.407  14.852
56223W        W28648  19.193   5.894   0.261
56224W        W28649  28.530  18.207  10.764
56225W        W28650  17.176  18.279  14.354
56226W        W28651   6.221  19.770  12.711
56227W        W28652  10.304   9.876   0.958
56228W        W28653  30.211  20.727   4.467
56229W        W28654  26.549  26.378   0.265
56230W        W28655  43.042  27.539   3.307
56231W        W28656  24.261  28.766   1.443
56232W        W28657  28.924  33.226   4.088
56233W        W28658  18.049   5.126  14.292
56234W        W28659  40.541  35.093   1.163
56235W        W28660  31.056   5.344  11.025
56236W        W28661  23.520  12.733  11.112
56237W        W28662   5.236  14.642   0.926
56238W        W28663  31.358   8.437  13.352
56239W        W28664  20.983  15.028   3.992
56240W        W28665   3.438  16.271   1.826
56241W        W28666  15.856  27.001  14.943
56242W        W28667  10.645   9.251  12.798
56243W        W28668  22.225  24.215   1.300
56244W        W28669   6.199  37.490   4.771
56245W        W28670  13.264   1.027   4.769
56246W        W28671  20.158  33.915   3.673
56247W        W28672  26.941  29.079  11.935
56248W        W28673  21.571  44.995  11.618
56249W        W28674  11.655  22.790   3.280
56250W        W28675  31.866  23.558   1.728
56251W        W28676  25.699  42.318   3.165
56252W        W28677  38.354  40.347  12.972
56253W        W28678  38.550  44.285   3.113
56254W        W28679  29.940  17.406   1.623
56255W        W28680  13.416   7.232  10.324
56256W        W28681   0.974  21.576  10.737
56257W        W28682  12.567  29.617  10.618
56258W        W28683  25.060  28.843   1.788
56259W        W28684   1.447  16.953   1.994
56260W        W28685   8.944   0.758  11.750
56261W        W28686  15.332  13.900  13.237
56262W        W28687  20.461   4.880  12.518
56263W        W28688   3.497  11.465  13.432
56264W        W28689   1.861  40.918   4.405
56265W        W28690  44.784   1.536   4.298
56266W        W28691   6.320  38.831  10.156
56267W        W28692   9.709  21.215   3.104
56268W        W28693  35.116  31.425  13.853
56269W        W28694  22.431   7.989  11.502
56270W        W28695  12.649  15.271  12.903
56271W        W28696  39.412   6.971  11.089
56272W        W28697   2.629  20.264  13.466
56273W        W28698   5.045  15.709  10.304
56274W        W28699  42.848  21.544   0.866
56275W        W28700  33.153  14.307   0.349
56276W        W28701  11.769  40.592  12.836
56277W        W28702  43.346   6.392   1.208
56278W        W28703   4.932   3.351  12.913
56279W        W28704  11.919  26.127   3.128
56280W        W28705   6.376   9.744   2.386
56281W        W28706   3.931   2.170   3.271
56282W        W28707  14.660  21.564   4.668
56283W        W28708  12.449   6.094  12.401
56284W        W28709   7.606   0.350  12.501
56285W        W28710  30.567  35.432  14.331
56286W        W28711  24.588  10.961  12.850
56287W        W28712  20.487  36.303  14.874
56288W        W28713   0.353  20.753  14.217
56289W        W28714  36.165  36.730   3.945
56290W        W28715   6.395  41.884  11.061
56291W        W28716  24.052  11.338   1.978
56292W        W28717  23.722  20.324  12.105
56293W        W28718  27.938  40.953   3.889
56294W        W28719  18.650   7.811   2.208
56295W        W28720  38.410  24.644   9.777
56296W        W28721  22.161  24.628  14.528
56297W        W28722  18.496  30.533  14.799
56298W        W28723  34.614  10.490  11.150
56299W        W28724  27.407  20.215   3.607
56300W        W28725  21.770  28.706  12.147
56301W        W28726  10.166   4.057  11.852
56302W        W28727  20.191  18.290   4.499
56303W        W28728  27.380  34.431  10.912
56304W        W28729   1.442  37.836  14.933
56305W        W28730  24.179  29.638   1.395
56306W        W28731  42.927  18.397   1.330
56307W        W28732  27.511   5.964   3.765
56308W        W28733   2.388  20.126   0.062
56309W        W28734  41.329   9.331  13.141
56310W        W28735   8.651  30.457   1.295
56311W        W28736  43.136  44.459   2.723
56312W        W28737  36.178   2.622  14.280
56313W        W28738  43.984  39.895   0.920
56314W        W28739   4.722  40.882  11.672
56315W        W28740   7.243  30.968  14.837
56316W        W28741  21.453   5.626   1.714
56317W        W28742   0.891  12.653  12.586
56318W        W28743  22.430  14.624   4.964
56319W        W28744  41.359  30.145  11.518
56320W        W28745   0.436  13.608  10.709
56321W        W28746  19.109  18.712   3.741
56322W        W28747  30.384   7.210  12.300
56323W        W28748  39.400   9.948  13.797
56324W        W28749  37.074  25.263  13.352
56325W        W28750  19.235   7.169  13.040
56326W        W28751  40.272  22.277   3.686
56327W        W28752   3.744  24.048   1.382
56328W        W28753  24.662   6.264  12.964
56329W        W28754  22.319   0.329  11.126
56330W        W28755   9.273  28.247  14.517
56331W        W28756   9.565  41.980  14.748
56332W        W28757   5.401  27.194  11.519
56333W        W28758  31.568  36.000   0.748
56334W        W28759  40.625  13.905   1.129
56335W        W28760  21.958  13.025  14.546
56336W        W28761  19.360   6.364  13.430
56337W        W28762  34.020  39.957  13.447
56338W        W28763  18.728  32.578   1.812
56339W        W28764  13.263  18.443  12.622
56340W        W28765  24.677  41.783   0.464
56341W        W28766  37.798   8.288  14.788
56342W        W28767  30.701  24.534   3.255
56343W        W28768  39.194  39.914   3.952
56344W        W28769  35.951  31.698   2.987
56345W        W28770  30.498  40.660  12.023
56346W        W28771   9.215  27.907   1.444
56347W        W28772   8.579  37.631   0.377
56348W        W28773  16.249  29.482  12.589
56349W        W28774  10.686  13.177  10.702
56350W        W28775  32.454  24.719  12.912
56351W        W28776  36.087  24.591  11.110
56352W        W28777   2.192   2.015  11.107
56353W        W28778  36.409   6.719  11.047
56354W        W28779  22.018  21.503  10.758
56355W        W28780   8.287  22.704  13.786
56356W        W28781  11.883  20.409  13.096
56357W        W28782  21.054  43.734  14.353
56358W        W28783   0.471  26.278  13.479
56359W        W28784  16.253  20.047  11.167
56360W        W28785  23.089  41.235   2.246
56361W        W28786  14.575  32.933   3.794
56362W        W28787  38.039  42.848  10.259
56363W        W28788  39.602  33.136  10.776
56364W        W28789  11.628  41.881  13.817
56365W        W28790  18.159  10.223  13.452
56366W        W28791  19.040   1.727   3.200
56367W        W28792  41.836  28.265  14.525
56368W        W28793  42.179  37.112   0.886
56369W        W28794  12.500  29.192  11.480
56370W        W28795  44.835  16.666   2.842
56371W        W28796  33.516  27.382   2.908
56372W        W28797   9.697  35.826   0.837
56373W        W28798  29.837  16.644  14.452
56374W        W28799  43.429  29.346  12.588
56375W        W28800  39.762   5.693   0.802
56376W        W28801  20.137  10.646  11.555
56377W        W28802  35.822  10.106  12.139
56378W        W28803   8.876   5.238   4.657
56379W        W28804  16.525  19.559  11.354
56380W        W28805   6.652  36.335  12.432
56381W        W28806  27.736  29.076   3.571
56382W        W28807  42.795  21.637  11.605
56383W        W28808  12.668  10.345   0.371
56384W        W28809   5.345  26.545   0.497
56385W        W28810  20.259  34.304  12.469
56386W        W28811  28.488  28.042   4.581
56387W        W28812  36.920  10.832   0.851
56388W        W28813  11.895  24.076   1.524
56389W        W28814  37.982  36.801   4.173
56390W        W28815  41.479  29.428  13.376
56391W        W28816  43.056  29.253   0.790
56392W        W28817  27.718  29.926   0.411
56393W        W28818  28.932  36.487   3.075
56394W        W28819   5.726  33.433   1.255
56395W        W28820  26.711  25.676   0.930
56396W        W28821  10.595  40.995   1.857
56397W        W28822  12.265  16.762  14.082
56398W        W28823  39.010  21.798   0.710
56399W        W28824  42.974   7.025   3.601
56400W        W28825  25.541  44.493  13.848
56401W        W28826   1.492  20.388   4.058
56402W        W28827  33.149  20.798  13.272
56403W        W28828  26.778  22.582   4.114
56404W        W28829   4.792  17.806   0.348
56405W        W28830  43.956  35.560  12.631
56406W        W28831  18.118  29.708   4.099
56407W        W28832  21.006  40.113   1.391
56408W        W28833  40.665  42.425   1.091
56409W        W28834  34.508   6.740  12.065
56410W        W28835  40.542   3.472   4.576
56411W        W28836  41.089  17.328  14.513
56412W        W28837  39.362  31.014   2.559
56413W        W28838   8.261  38.908  13.909
56414W        W28839  36.113  30.953  13.285
56415W        W28840   6.482   5.839   1.454
56416W        W28841  15.720  44.737   1.301
56417W        W28842  35.338  38.824  12.869
56418W        W28843  33.492  40.753  10.820
56419W        W28844  28.882  28.852   2.792
56420W        W28845   9.063  33.211  13.699
56421W        W28846  24.145   7.367   4.617
56422W        W28847  44.851  19.571   2.601
56423W        W28848   1.887  39.274   0.448
56424W        W28849  19.310   9.464   2.320
56425W        W28850  30.003  21.061   0.328
56426W        W28851   4.365  34.049  10.574
56427W        W28852  12.173  18.885   1.908
56428W        W28853  31.254   4.263   2.754
56429W        W28854  32.568  15.109   0.517
56430W        W28855  34.635  30.448   1.348
56431W        W28856   2.911  34.195   0.076
56432W        W28857  38.691  31.864  10.676
56433W        W28858  14.648  39.890   3.150
56434W        W28859   1.524  35.396   0.358
56435W        W28860  25.530   7.708   0.645
56436W        W28861  17.027   8.445   2.361
56437W        W28862  35.928   7.251   0.093
56438W        W28863  16.059  41.959   4.157
56439W        W28864  29.426   3.013   0.872
56440W        W28865  31.001   9.810   1.463
56441W        W28866  10.368  30.902  13.954
56442W        W28867  19.483  23.246   3.285
56443W        W28868  40.070  25.525  12.613
56444W        W28869  23.005  37.934  10.560
56445W        W28870  12.231  39.654  10.778
56446W        W28871  14.791  11.655   1.795
56447W        W28872   9.691  11.893  13.301
56448W        W28873  11.308  20.616  14.266
56449W        W28874  20.722   3.442   0.410
56450W        W28875  10.972  29.853   1.236
56451W        W28876  17.494  17.619  13.345
56452W        W28877  32.334  40.934  13.559
56453W        W28878  15.317  23.817   4.544
56454W        W28879  40.733  28.378  14.077
56455W        W28880   6.185  37.865   4.127
56456W        W28881   2.282  37.389  10.434
56457W        W28882  34.657   1.355  12.432
56458W        W28883  13.334  24.954  10.495
56459W        W28884  11.240   3.686   4.363
56460W        W28885  23.298  23.128  11.138
56461W        W28886  34.871  32.301   1.311
56462W        W28887  41.897  41.562  14.309
56463W        W28888  44.356  22.840  13.119
56464W        W28889   8.623   5.119   0.743
56465W        W28890  15.067  22.649   1.834
56466W        W28891  26.738   4.940  14.896
56467W        W28892  15.712  12.187  14.864
56468W        W28893  26.033  41.498  11.172
56469W        W28894  15.032  34.465   2.139
56470W        W28895   4.796  44.159   3.307
56471W        W28896   5.009   8.247   4.712
56472W        W28897  14.095  16.580   0.861
56473W        W28898   5.781   2.104   1.769
56474W        W28899   8.289  36.029  14.030
56475W        W28900   7.807  23.267   0.589
56476W        W28901  41.507   8.600  14.229
56477W        W28902   6.277  12.889  13.931
56478W        W28903  18.239   0.001   4.504
56479W        W28904  34.366   8.330  12.328
56480W        W28905  25.621  22.245  14.393
56481W        W28906   4.812   7.694  13.996
56482W        W28907  37.329   0.054   1.234
56483W        W28908   2.961  16.003   3.179
56484W        W28909  19.689  16.831  14.027
56485W        W28910  10.164  29.458   4.593
56486W        W28911  12.617  25.086   1.464
56487W        W28912  10.737  24.869   3.402
56488W        W28913  21.597   9.809   4.064
56489W        W28914  40.319  29.086   1.434
56490W        W28915  18.653  33.233  13.860
56491W        W28916  14.708  39.120   1.726
56492W        W28917  18.523  42.910  13.870
56493W        W28918  32.377  31.717   0.013
56494W        W28919   0.707   6.610   4.344
56495W        W28920  17.811  40.066   0.909
56496W        W28921   3.313   1.499  13.917
56497W        W28922   7.065  28.112  14.209
56498W        W28923  24.689  25.916   3.770
56499W        W28924   8.694  13.225   2.352
56500W        W28925  41.494   7.394   3.686
56501W        W28926  15.356  25.427  14.967
56502W        W28927  32.571   6.127   4.253
56503W        W28928  34.565  25.111  12.043
56504W        W28929   7.748   6.094   4.119
56505W        W28930  14.896  26.123  14.451
56506W        W28931  10.770   5.406  10.403
56507W        W28932  10.771  24.659   4.429
56508W        W28933  15.970   2.880  14.390
56509W        W28934  34.527  44.514  11.299
56510W        W28935  22.139  16.562   0.355
56511W        W28936   6.002  37.370   4.273
56512W        W28937   8.831   5.754  12.671
56513W        W28938  37.108  10.531  13.036
56514W        W28939  28.955  43.847   1.930
56515W        W28940  40.927  22.662  13.892
56516W        W28941  24.466  26.194  12.083
56517W        W28942  41.292  33.073  14.410
56518W        W28943  23.199  34.373  14.253
56519W        W28944  19.628  43.254  14.200
56520W        W28945  14.377  34.511   3.136
56521W        W28946  39.121  41.786   2.359
56522W        W28947   5.518   0.272   3.706
56523W        W28948   5.250  11.136  11.503
56524W        W28949  24.928  37.457   3.660
56525W        W28950  23.179  15.708  14.511
56526W        W28951  25.987   0.041   2.243
56527W        W28952  33.056  15.122  10.416
56528W        W28953  28.903  35.880  12.564
56529W        W28954  16.597  24.542   3.317
56530W        W28955  19.744  37.875   0.098
56531W        W28956  24.993  11.992   1.964
56532W        W28957  42.441   7.727  11.102
56533W        W28958   1.973  43.409   0.751
56534W        W28959   9.496   1.658   3.777
56535W        W28960  38.485  12.442  11.102
56536W        W28961  34.647  11.579   3.874
56537W        W28962  32.154   7.102   3.086
56538W        W28963   8.396  34.070   0.327
56539W        W28964  23.521   9.874  11.881
56540W        W28965   6.690  44.780  13.547
56541W        W28966  13.280  43.911  12.057
56542W        W28967  35.026  39.849   1.948
56543W        W28968  25.975  32.079   3.085
56544W        W28969  13.845  28.132  13.371
56545W        W28970  19.157  42.592   3.951
56546W        W28971  27.176  27.576   2.856
56547W        W28972  40.339  38.429  11.903
56548W        W28973   4.478  16.596  11.050
56549W        W28974   3.049  29.879  13.410
56550W        W28975  23.058  20.842   4.193
56551W        W28976  18.006  21.486  11.646
56552W        W28977  38.136  25.196   1.479
56553W        W28978  37.298  12.108  14.021
56554W        W28979  23.737   6.308   3.317
56555W        W28980  39.021  22.675   2.676
56556W        W28981  30.108  20.765   1.675
56557W        W28982  27.849   4.640   1.397
56558W        W28983  31.896   0.937   0.838
56559W        W28984  42.425  29.198   4.109
56560W        W28985  37.227  33.626   2.919
56561W        W28986  44.840  37.962  13.805
56562W        W28987  14.570  30.934  13.878
56563W        W28988   0.379  24.928   1.208
56564W        W28989  41.017   3.251  11.173
56565W        W28990  43.837  11.231  14.112
56566W        W28991  23.024   2.951  13.778
56567W        W28992   1.867  27.643  10.487
56568W        W28993  43.915  12.717   4.416
56569W        W28994   5.714  37.380  12.058
56570W        W28995  38.136  33.586   3.144
56571W        W28996  20.246  40.515  14.302
56572W        W28997  18.021   3.753   3.766
56573W        W28998  39.252  21.754   0.228
56574W        W28999  34.050  38.519  12.853
56575W        W29000  26.205  36.373  12.397
56576W        W29001  10.427   3.823  10.055
56577W        W29002  28.914   4.928  13.988
56578W        W29003  32.049  27.966   4.122
56579W        W29004  33.119  11.576   0.852
56580W        W29005  34.920  36.383  14.266
56581W        W29006   8.844  21.333   1.709
56582W        W29007  42.068   1.508   0.600
56583W        W29008  35.092  32.437   4.506
56584W        W29009  44.057  27.658   3.290
56585W        W29010  38.422  43.412   2.557
56586W        W29011  33.089   8.228   4.408
56587W        W29012   6.255  29.360  13.336
56588W        W29013  22.376  24.970  10.721
56589W        W29014  24.113  20.248  12.474
56590W        W29015   8.768  24.234  10.757
56591W        W29016   5.863  36.262   4.163
56592W        W29017  43.459   6.921   3.440
56593W        W29018   0.910  24.063  12.034
56594W        W29019  39.860  14.241   4.566
56595W        W29020  17.767   0.235   1.427
56596W        W29021  34.357  20.282   0.793
56597W        W29022  31.134  30.202   0.429
56598W        W29023  39.058  11.530   3.125
56599W        W29024  24.969   8.927  12.837
56600W        W29025  10.276  27.455  13.357
56601W        W29026  19.549  33.187  11.960
56602W        W29027   1.477  37.342  12.384
56603W        W29028  29.034  41.345  13.758
56604W        W29029  32.463  13.331   0.956
56605W        W29030  30.511  42.994  11.169
56606W        W29031  26.678  36.395   4.816
56607W        W29032   6.890  14.639   4.622
56608W        W29033  31.117   8.408  10.991
56609W        W29034  17.090  20.248   3.638
56610W        W29035  42.269  35.497  13.973
56611W        W29036  15.963   9.851  14.839
56612W        W29037  42.827   3.262   3.109
56613W        W29038   4.476   4.231  13.066
56614W        W29039  23.311   2.389   2.814
56615W        W29040  14.227  37.375  13.872
56616W        W29041  20.200  30.905  12.981
56617W        W29042  19.044  21.006  12.028
56618W        W29043  11.783  14.184   1.452
56619W        W29044  29.020  44.222  12.670
56620W        W29045  16.082  41.836  14.598
56621W        W29046  24.607   6.760   4.187
56622W        W29047  16.032   0.479  14.390
56623W        W29048  29.464  30.225  12.866
56624W        W29049  19.986  38.480   3.212
56625W        W29050  31.971   4.309   2.796
56626W        W29051  33.616  16.082   2.915
56627W        W29052   8.186  13.981   2.349
56628W        W29053  35.947   7.747   4.610
56629W        W29054   1.521  23.734  14.518
56630W        W29055  21.910  26.146  13.861
56631W        W29056  41.325  20.230   5.144
56632W        W29057   0.853  25.522  13.447
56633W        W29058  38.099  34.038   0.514
56634W        W29059  39.596   0.722  10.314
56635W        W29060  14.841  14.686  12.061
56636W        W29061  33.339  33.463   4.092
56637W        W29062  33.086  14.249  10.405
56638W        W29063  24.642  24.702  13.818
56639W        W29064  20.144   4.912   3.173
56640W        W29065   4.903  19.600  10.371
56641W        W29066  26.082   2.893   3.811
56642W        W29067  36.518  24.581  14.240
56643W        W29068  38.922  17.304   0.255
56644W        W29069  13.745   4.775   2.719
56645W        W29070  18.170   0.986  13.556
56646W        W29071  11.862   1.939   2.072
56647W        W29072  12.830  32.068  14.093
56648W        W29073  16.328  38.874  11.737
56649W        W29074   8.284  35.105   3.833
56650W        W29075  15.724   6.815   3.250
56651W        W29076  21.104   3.727   4.616
56652W        W29077  28.175   5.259  13.911
56653W        W29078  25.941  15.161  14.816
56654W        W29079  21.551   3.403   4.145
56655W        W29080  28.975   7.837  10.760
56656W        W29081  27.817  14.909  11.128
56657W        W29082  30.164  43.596   3.723
56658W        W29083  19.179  23.981  14.295
56659W        W29084  36.095   1.583   1.774
56660W        W29085  15.359  20.524  14.439
56661W        W29086   8.662   5.389  12.337
56662W        W29087   5.271  31.928   1.246
56663W        W29088  39.549  34.421  10.750
56664W        W29089  34.455  35.987  12.924
56665W        W29090  27.674  27.614   4.658
56666W        W29091  35.399  39.877   1.612
56667W        W29092  41.298  29.489   0.814
56668W        W29093  40.426  43.889   1.963
56669W        W29094  18.794  40.859   1.297
56670W        W29095  14.493  30.770  11.216
56671W        W29096   7.608   3.538  13.818
56672W        W29097  43.353  16.519   4.569
56673W        W29098  18.770  39.598   3.313
56674W        W29099  44.526  13.119  10.552
56675W        W29100  11.792  11.704  11.408
56676W        W29101  16.859  38.758  14.040
56677W        W29102  24.555  21.650  13.803
56678W        W29103  23.218  13.236   3.632
56679W        W29104  44.703  34.968  12.913
56680W        W29105  37.036  30.562   1.856
56681W        W29106  18.303  13.130  13.006
56682W        W29107   3.472  30.655   2.176
56683W        W29108   7.897  13.050  12.467
56684W        W29109  19.587  36.334  11.675
56685W        W29110   2.310  12.121  11.085
56686W        W29111   9.928  12.224   3.240
56687W        W29112  12.208  16.053   2.352
56688W        W29113  16.061  15.583   1.864
56689W        W29114  30.403   6.571  11.945
56690W        W29115  19.250  29.462  12.598
56691W        W29116  43.518  28.471   1.075
56692W        W29117  31.903  19.559   2.371
56693W        W29118  24.279  11.157  11.091
56694W        W29119  39.304  26.177  12.963
56695W        W29120  38.481  17.580   4.343
56696W        W29121  44.565   2.675   0.955
56697W        W29122  33.046  35.632   4.537
56698W        W29123  18.781  39.366   3.831
56699W        W29124   8.813  26.376   1.148
56700W        W29125  33.854  32.067   5.012
56701W        W29126  26.037  29.816   3.669
56702W        W29127   7.261  21.254   0.745
56703W        W29128  16.216   5.036   4.950
56704W        W29129  13.791  15.085   1.445
56705W        W29130  37.452  33.326  10.540
56706W        W29131  30.411   3.852   0.387
56707W        W29132  44.902  39.806   3.384
56708W        W29133  26.940   3.342  13.473
56709W        W29134  36.428  40.951   4.167
56710W        W29135  20.944  44.379  12.559
56711W        W29136  23.336  17.715   2.899
56712W        W29137   1.997  41.527  13.149
56713W        W29138  19.620  36.885  10.756
56714W        W29139   6.656   8.580   0.461
56715W        W29140  38.953  35.798  12.974
56716W        W29141   8.972  12.552  14.734
56717W        W29142  20.607  34.637   0.720
56718W        W29143   7.678  36.208   2.046
56719W        W29144  21.128  32.169  12.575
56720W        W29145   0.373  17.803   2.480
56721W        W29146  18.097   7.292   2.864
56722W        W29147  29.210   5.480  13.962
56723W        W29148   2.386  21.536   0.214
56724W        W29149   0.994  13.125   3.351
56725W        W29150  20.735  40.521  14.035
56726W        W29151  34.161  39.857   2.734
56727W        W29152   2.727  28.471   3.297
56728W        W29153  36.428  28.006  14.339
56729W        W29154   3.055  10.099  13.513
56730W        W29155  28.266  12.379  10.691
56731W        W29156  24.215  43.360   4.432
56732W        W29157  29.698  10.112   3.870
56733W        W29158   7.379  26.549   1.967
56734W        W29159  23.616  24.986  14.302
56735W        W29160   4.732  12.289  14.670
56736W        W29161   2.905  14.565  14.810
56737W        W29162  13.576  30.866  12.893
56738W        W29163  13.604   6.916  14.479
56739W        W29164   3.785  25.620   1.166
56740W        W29165   2.924  24.604   2.782
56741W        W29166   6.469  43.378   4.137
56742W        W29167  31.784  19.753   9.730
56743W        W29168  35.192  28.483   2.394
56744W        W29169  22.612  34.536  10.564
56745W        W29170  28.947   0.334   4.181
56746W        W29171  44.992  17.592   0.975
56747W        W29172  27.038  42.494   1.435
56748W        W29173   3.386   9.637   0.367
56749W        W29174   6.173  22.184  12.018
56750W        W29175  39.458  26.133   2.869
56751W        W29176  28.636  11.328   1.772
56752W        W29177  13.759   1.121   3.573
56753W        W29178  22.393  44.972   0.770
56754W        W29179   2.183   2.135   2.532
56755W        W29180  13.108  34.838   1.187
56756W        W29181   9.281  27.314   4.597
56757W        W29182  25.569  16.699  10.958
56758W        W29183  26.945  22.109  13.197
56759W        W29184   2.150  16.091  11.539
56760W        W29185  21.193   2.251  12.574
56761W        W29186  28.296   2.792   2.327
56762W        W29187  31.420  25.982   4.810
56763W        W29188  17.048   1.410   5.219
56764W        W29189  11.383  44.987   1.719
56765W        W29190  43.008  24.074  13.466
56766W        W29191  27.846   5.490   0.915
56767W        W29192  10.383  29.606  13.069
56768W        W29193  13.250  40.083   4.598
56769W        W29194  44.549   0.680   3.322
56770W        W29195  37.461  17.355   3.316
56771W        W29196  31.378  18.699   4.846
56772W        W29197  11.224  41.059   4.107
56773W        W29198   6.063  13.740   0.296
56774W        W29199  43.214  43.910   3.348
56775W        W29200  32.541  23.155  10.890
56776W        W29201  40.126  23.940  11.144
56777W        W29202  13.640   2.714  14.779
56778W        W29203  32.658  12.071  13.414
56779W        W29204  26.725  22.577  11.891
56780W        W29205   3.643  23.208  12.719
56781W        W29206  27.067  27.718   1.155
56782W        W29207  33.839  12.145   1.940
56783W        W29208   6.445  26.409   2.075
56784W        W29209  22.049  11.725  10.350
56785W        W29210  42.894  37.128   2.453
56786W        W29211  22.521   3.130  14.413
56787W        W29212  30.429  13.529  13.996
56788W        W29213   3.642  28.625   2.244
56789W        W29214  40.199  27.619   0.084
56790W        W29215  34.046   8.774   4.775
56791W        W29216   0.733  37.916  14.924
56792W        W29217  26.257  31.329   1.337
56793W        W29218  18.077   2.776  10.714
56794W        W29219  42.013  29.121   1.947
56795W        W29220  19.077   1.429  11.049
56796W        W29221  12.529  29.006  13.151
56797W        W29222   3.885  15.633   0.996
56798W        W29223  41.124  39.106  13.908
56799W        W29224  19.653  36.331   2.765
56800W        W29225  11.407  26.049  13.744
56801W        W29226  15.529  20.701  13.966
56802W        W29227  14.311  34.987  12.631
56803W        W29228   5.674  39.516  13.419
56804W        W29229  12.112  35.326   3.753
56805W        W29230  35.469  21.675   3.095
56806W        W29231  17.678  40.884   1.964
56807W        W29232  13.153   5.729   0.264
56808W        W29233  17.042  36.275  12.407
56809W        W29234  37.900  32.666   0.425
56810W        W29235  12.299  17.538  12.087
56811W        W29236  18.256  44.279  14.945
56812W        W29237  31.375  16.186   0.987
56813W        W29238  43.804   8.282  12.338
56814W        W29239  10.089  35.158   9.936
56815W        W29240  13.836   2.994   4.853
56816W        W29241  32.844  14.288   0.763
56817W        W29242  39.838  23.016   2.872
56818W        W29243  38.389  41.513   3.264
56819W        W29244  11.400  20.509  11.659
56820W        W29245  21.629  18.528  13.514
56821W        W29246  31.905  11.863   1.359
56822W        W29247  25.985   2.425   4.060
56823W        W29248  28.162  25.015   0.790
56824W        W29249   1.317   5.335   2.944
56825W        W29250  13.327   9.845  12.588
56826W        W29251  37.158  29.683  12.509
56827W        W29252  39.828  40.005   3.182
56828W        W29253  17.330  19.487   4.618
56829W        W29254   5.758  30.298  12.093
56830W        W29255  11.284  29.323   3.874
56831W        W29256  25.153  28.705  11.597
56832W        W29257   3.858  36.675  14.940
56833W        W29258   4.439  14.030   5.171
56834W        W29259   2.930   4.270  13.772
56835W        W29260  37.410  23.711  10.830
56836W        W29261  33.024  11.333   2.852
56837W        W29262   0.398  22.900  12.940
56838W        W29263   3.299  19.067  11.964
56839W        W29264  42.339  12.780   3.102
56840W        W29265   4.399  10.902  11.031
56841W        W29266  31.088  34.781  10.715
56842W        W29267  31.085  40.936   1.347
56843W        W29268  16.399  16.302  12.400
56844W        W29269  37.921  11.243  10.682
56845W        W29270  24.058  26.083   2.739
56846W        W29271  27.549  40.065  10.346
56847W        W29272  26.544  21.585  11.648
56848W        W29273  25.475  12.755  13.486
56849W        W29274  44.179   6.392  11.495
56850W        W29275   7.796  32.191  12.098
56851W        W29276  26.457   5.311   0.948
56852W        W29277   8.516   8.528   2.800
56853W        W29278   0.457  24.420  13.898
56854W        W29279   7.410  41.961  13.424
56855W        W29280  24.421  10.622  13.654
56856W        W29281   1.225  40.647  14.438
56857W        W29282  35.346  27.491  11.002
56858W        W29283  38.840  26.024   2.266
56859W        W29284   6.255  38.121   1.774
56860W        W29285  26.111  38.262   2.583
56861W        W29286  34.132  13.045   1.316
56862W        W29287  13.880  26.703   2.698
56863W        W29288  38.861   7.207  14.801
56864W        W29289  43.563  19.085  11.578
56865W        W29290   3.650  39.038  12.127
56866W        W29291   6.261  33.909  13.710
56867W        W29292  32.105  41.934  12.086
56868W        W29293  17.127  24.579   1.417
56869W        W29294  28.168  14.078   2.432
56870W        W29295  13.272  20.822  11.934
56871W        W29296  10.954  29.941   2.189
56872W        W29297  26.505  20.469   4.709
56873W        W29298   0.481   6.689   2.285
56874W        W29299  28.566  35.833   1.185
56875W        W29300   1.415  19.749  12.339
56876W        W29301  17.653  28.571   3.050
56877W        W29302  33.482  42.433  10.446
56878W        W29303  26.638  11.145   3.269
56879W        W29304   1.679  41.791   2.797
56880W        W29305  39.934  23.279   1.430
56881W        W29306   8.629  38.901  10.625
56882W        W29307  17.215  43.724   3.408
56883W        W29308   9.368  41.302   0.374
56884W        W29309  29.844  22.771  12.946
56885W        W29310  36.415  26.770   1.854
56886W        W29311  30.093   4.257   4.458
56887W        W29312  18.446  29.161  13.917
56888W        W29313  20.994  22.037  11.062
56889W        W29314  29.075  35.139   3.721
56890W        W29315  28.246  33.492  10.772
56891W        W29316  43.526  28.697  14.760
56892W        W29317  12.386   4.138  14.715
56893W        W29318  21.672   0.311  13.417
56894W        W29319   5.060   8.668   5.078
56895W        W29320  14.645   4.630  12.997
56896W        W29321  10.699  40.769  12.050
56897W        W29322  29.140  11.116   1.698
56898W        W29323  24.798   2.026  11.644
56899W        W29324   2.293  20.576  12.127
56900W        W29325  23.442  13.691  12.588
56901W        W29326  14.332  35.425  14.948
56902W        W29327  14.844  42.657  12.571
56903W        W29328  39.944  26.050  14.827
56904W        W29329  18.087   8.869   3.791
56905W        W29330  18.784  23.032  12.895
56906W        W29331  35.902  43.338   1.263
56907W        W29332   6.475  17.859  12.989
56908W        W29333  13.261  19.943   4.835
56909W        W29334  26.301  36.687  14.798
56910W        W29335  21.233   7.879   3.392
56911W        W29336  35.339  40.732  14.412
56912W        W29337  37.815  14.354   1.308
56913W        W29338  41.334   0.303  12.024
56914W        W29339  40.366  11.862  12.575
56915W        W29340  12.745  32.648   0.912
56916W        W29341  20.565  22.733   2.365
56917W        W29342  40.973   9.080   3.736
56918W        W29343  36.610  42.276   3.673
56919W        W29344  16.994  40.780   3.398
56920W        W29345  29.647  19.638   1.315
56921W        W29346  43.118   2.968  13.392
56922W        W29347   8.403  30.172  12.753
56923W        W29348  23.085  41.857   0.414
56924W        W29349  29.101   8.931   2.620
56925W        W29350  29.202  22.334  13.345
56926W        W29351  43.100  33.623  13.382
56927W        W29352  13.836  32.935   0.751
56928W        W29353  17.608  10.450   4.603
56929W        W29354  40.320  15.183  14.727
56930W        W29355  29.341  38.438   1.816
56931W        W29356   6.171  25.663  11.593
56932W        W29357  44.614  11.554  13.992
56933W        W29358  39.381  32.031  14.486
56934W        W29359  42.392  35.530   1.834
56935W        W29360  26.407  35.072  14.313
56936W        W29361  29.954  17.203  10.222
56937W        W29362   0.870   2.431  12.831
56938W        W29363  28.898   6.748   3.561
56939W        W29364  22.029  22.744  11.478
56940W        W29365  23.840  29.581  13.952
56941W        W29366  25.241  38.317   2.489
56942W        W29367  14.779   9.937   2.153
56943W        W29368  14.400   6.694   4.324
56944W        W29369  27.143  30.186  13.511
56945W        W29370  15.344  13.446   4.354
56946W        W29371  38.554  19.715  13.446
56947W        W29372   2.456  15.043   1.035
56948W        W29373  34.781  14.294   1.923
56949W        W29374  40.364  17.397   2.188
56950W        W29375  30.374  23.632   4.973
56951W        W29376  30.023  12.097  11.092
56952W        W29377  31.492  26.590   3.588
56953W        W29378   7.254  44.190   2.361
56954W        W29379  28.670  38.301   4.162
56955W        W29380  33.904  35.456  13.416
56956W        W29381  23.196  19.916  14.725
56957W        W29382  20.107  36.906   1.751
56958W        W29383  22.638  24.582  12.376
56959W        W29384  34.976   7.966   2.192
56960W        W29385  20.284  10.822   3.783
56961W        W29386  30.071  16.846  12.468
56962W        W29387  37.838  11.368   1.935
56963W        W29388  26.050  17.117  14.580
56964W        W29389  41.183  26.271   3.283
56965W        W29390  19.140  24.573  11.529
56966W        W29391  12.757  32.951   0.437
56967W        W29392  43.634   9.503  13.741
56968W        W29393  30.682  14.775   0.016
56969W        W29394   6.367   6.769   2.471
56970W        W29395  28.163  32.467  12.940
56971W        W29396  30.445   4.727   2.633
56972W        W29397  44.212   5.387   2.100
56973W        W29398  34.950  38.947  13.731
56974W        W29399  12.847  22.265   0.731
56975W        W29400  25.172  37.812  12.120
56976W        W29401  36.397  27.556  14.615
56977W        W29402  38.837  32.417  12.842
56978W        W29403   6.898  25.189   1.812
56979W        W29404  31.613  27.206  13.392
56980W        W29405   4.876  17.225  14.125
56981W        W29406  20.312  34.518   2.460
56982W        W29407  30.065  12.604  14.778
56983W        W29408  19.936  43.283   2.435
56984W        W29409  36.632  31.206  13.951
56985W        W29410  22.984   7.308  13.971
56986W        W29411   0.785  16.595   1.244
56987W        W29412  37.134  30.500  14.912
56988W        W29413  35.985  38.722   3.757
56989W        W29414  32.431   2.949   0.349
56990W        W29415  41.632  36.316  11.514
56991W        W29416  13.108  40.830   4.162
56992W        W29417  41.918   4.952  14.484
56993W        W29418  22.106  34.035   2.838
56994W        W29419  23.534  42.949   4.116
56995W        W29420  18.273  32.079   0.526
56996W        W29421   7.923   2.339  12.886
56997W        W29422  11.160  14.840  11.626
56998W        W29423   9.494  13.785   1.638
56999W        W29424  16.345  22.718  13.077
57000W        W29425   0.964  14.463  13.720
57001W        W29426  36.413  42.032   2.214
57002W        W29427  10.942  12.245   1.843
57003W        W29428  37.322  25.197   1.760
57004W        W29429  23.404  35.511   2.012
57005W        W29430  12.358  25.604   2.754
57006W        W29431   9.440  12.816  14.587
57007W        W29432  42.968  44.520  14.150
57008W        W29433  17.722  18.330  14.865
57009W        W29434  44.243  38.354   0.258
57010W        W29435  36.983   7.364  12.174
57011W        W29436  14.059  21.686   1.822
57012W        W29437  26.597  37.580   0.801
57013W        W29438  32.910  11.177   3.726
57014W        W29439  16.011  33.532  13.057
57015W        W29440  42.921   3.699   1.814
57016W        W29441  22.474   1.489   4.148
57017W        W29442  24.970  31.076  13.487
57018W        W29443  31.641  24.074  10.721
57019W        W29444  14.506  32.954  10.162
57020W        W29445  30.949  12.829  14.816
57021W        W29446  24.379  13.282  14.759
57022W        W29447  34.399   5.440  11.622
57023W        W29448  41.987  44.035   3.615
57024W        W29449   7.578  15.547  13.354
57025W        W29450  26.234  18.112  13.963
57026W        W29451   0.333  29.502  10.451
57027W        W29452  40.447  34.423   4.316
57028W        W29453   7.654   8.777  12.671
57029W        W29454  25.945   9.912  13.351
57030W        W29455   3.563  11.182   1.674
57031W        W29456  12.692  27.193  11.715
57032W        W29457  17.858  44.754   3.026
57033W        W29458  32.858  12.834  11.037
57034W        W29459  27.778  30.900  12.068
57035W        W29460  18.821  25.579  14.310
57036W        W29461  14.739   5.346   3.748
57037W        W29462  13.519   0.321  12.516
57038W        W29463  40.513  14.284   0.774
57039W        W29464   0.301  44.213   0.244
57040W        W29465  19.139  41.115   4.072
57041W        W29466   8.449  42.903   4.647
57042W        W29467   3.251  35.881  14.973
57043W        W29468   4.984   7.178  13.765
57044W        W29469  18.759  16.156   2.772
57045W        W29470  30.721  44.888  12.511
57046W        W29471  10.744  33.145   1.428
57047W        W29472  16.390  18.173   0.039
57048W        W29473   8.697  30.902  12.563
57049W        W29474  33.880  32.605  10.483
57050W        W29475  40.690  40.637   4.050
57051W        W29476  17.766  13.274   0.646
57052W        W29477  27.509   7.350   0.644
57053W        W29478   5.245   8.536   3.556
57054W        W29479  22.765  33.381   3.867
57055W        W29480  33.493  34.882   3.214
57056W        W29481   1.981  26.308  12.965
57057W        W29482  15.571  19.524  11.226
57058W        W29483  18.790   8.306   2.183
57059W        W29484  35.586  24.073   0.309
57060W        W29485  36.100  43.129   0.786
57061W        W29486  19.440  35.985  10.299
57062W        W29487  19.589  36.363  10.688
57063W        W29488  44.268  43.001   1.221
57064W        W29489  15.503  41.271   1.209
57065W        W29490   8.820   9.224   2.237
57066W        W29491   0.611  40.056  12.922
57067W        W29492  18.717  15.740  10.121
57068W        W29493  31.396  34.950  11.563
57069W        W29494  40.270  27.061   2.290
57070W        W29495  40.497   4.781   4.280
57071W        W29496   2.988  31.143  13.823
57072W        W29497  33.453   0.104  12.067
57073W        W29498   7.226  33.842  14.419
57074W        W29499  19.846  10.130  13.889
57075W        W29500  17.236  33.637   2.377
57076W        W29501  28.173  29.492   4.747
57077W        W29502  21.295  17.720  10.667
57078W        W29503  19.045   4.507   4.128
57079W        W29504   3.141  15.890  11.561
57080W        W29505   7.490  40.005   3.381
57081W        W29506  21.617   5.874   3.147
57082W        W29507   7.103   5.477  14.862
57083W        W29508  44.895  29.719   4.433
57084W        W29509   7.009  21.475  11.265
57085W        W29510  31.914  22.303   2.735
57086W        W29511   8.685  17.517  14.015
57087W        W29512  18.076  37.435  12.115
57088W        W29513  30.825  42.786   3.760
57089W        W29514  27.510  42.960   2.764
57090W        W29515  21.210  32.642  12.381
57091W        W29516  42.866  10.848   1.163
57092W        W29517   6.784  44.444  10.853
57093W        W29518  36.389   0.648  14.408
57094W        W29519   1.320  13.192   1.258
57095W        W29520  29.439   0.346   1.561
57096W        W29521   4.507  16.245  10.635
57097W        W29522  40.213  20.942  13.696
57098W        W29523  21.963  25.471  13.070
57099W        W29524  34.154  30.485  11.647
57100W        W29525  14.289  29.692  11.546
57101W        W29526   5.795   5.212   4.975
57102W        W29527  20.083   4.660  13.417
57103W        W29528   6.863  34.435   5.467
57104W        W29529   8.232  40.575   1.902
57105W        W29530  25.625  38.319   1.171
57106W        W29531  19.149  29.056   5.020
57107W        W29532   1.046  16.316  12.511
57108W        W29533  44.028  32.115  14.247
57109W        W29534   5.902  10.390  14.952
57110W        W29535   6.926  20.679   0.080
57111W        W29536   2.257  15.203  14.541
57112W        W29537   2.495  13.240   3.765
57113W        W29538   5.869  10.829  11.982
57114W        W29539  37.880  18.363  13.409
57115W        W29540  39.373  21.774  11.228
57116W        W29541  17.676  29.650  14.934
57117W        W29542  42.622  20.584   4.171
57118W        W29543  43.898  12.931  13.969
57119W        W29544  22.250  13.310   1.702
57120W        W29545   2.831  32.195   2.870
57121W        W29546  19.505  23.135  14.840
57122W        W29547  14.159  15.686   0.247
57123W        W29548  39.373  38.764  13.921
57124W        W29549  44.474  33.144   4.979
57125W        W29550  36.471  11.789  12.170
57126W        W29551  21.187  34.210   4.294
57127W        W29552  11.512  12.319   1.859
57128W        W29553  13.426  10.318   4.368
57129W        W29554  15.111  44.680  14.877
57130W        W29555  23.409   6.768   2.640
57131W        W29556  15.057   8.783   4.525
57132W        W29557  21.952  18.104  13.314
57133W        W29558   7.798  43.937  10.641
57134W        W29559   8.669  21.773  13.958
57135W        W29560  21.058  16.201  11.185
57136W        W29561  26.070   4.203   1.433
57137W        W29562  40.349  26.988   3.294
57138W        W29563   0.345  41.437   4.376
57139W        W29564  18.104  30.209   4.166
57140W        W29565   4.954  44.840  14.540
57141W        W29566   7.542  41.648  12.555
57142W        W29567   1.518  40.476   3.796
57143W        W29568  35.282  14.352   1.941
57144W        W29569  16.099   8.606   3.819
57145W        W29570  18.188  41.324  13.449
57146W        W29571  10.708  41.978  11.980
57147W        W29572  37.313  34.832   0.828
57148W        W29573  32.898  31.238   2.649
57149W        W29574  13.731  24.141   9.900
57150W        W29575   0.330  24.708  13.466
57151W        W29576  10.842  18.003   3.954
57152W        W29577   5.286  36.810  13.842
57153W        W29578  37.854  19.775  10.759
57154W        W29579  10.363  20.034   2.865
57155W        W29580   5.393   9.860  14.880
57156W        W29581  24.209  40.165  10.535
57157W        W29582   4.413  40.012  11.973
57158W        W29583  13.819   5.399  11.653
57159W        W29584  21.203  35.954  11.248
57160W        W29585  36.467  12.673  13.357
57161W        W29586  10.461  24.127  14.983
57162W        W29587  32.480  25.756  11.106
57163W        W29588  11.562  23.108   5.343
57164W        W29589  29.664  38.556  13.851
57165W        W29590  35.305  28.694  12.714
57166W        W29591  29.539   7.125  12.378
57167W        W29592  23.662   8.227   0.628
57168W        W29593   3.799  43.213   1.330
57169W        W29594  42.893   9.711  13.570
57170W        W29595  17.592  43.213  11.563
57171W        W29596  40.896  44.650   5.446
57172W        W29597  11.588  15.209  13.397
57173W        W29598  20.588  34.641   3.040
57174W        W29599  36.052  36.333  11.271
57175W        W29600  12.430  32.218   0.781
57176W        W29601  44.993  36.801   0.943
57177W        W29602   2.441  15.748  10.708
57178W        W29603  39.816  28.602   3.812
57179W        W29604  19.448   0.489  10.237
57180W        W29605  38.907   2.803  13.238
57181W        W29606  40.467  38.429   2.615
57182W        W29607  38.478  41.288   0.973
57183W        W29608  20.988  11.332  13.430
57184W        W29609  23.985  17.334  14.588
57185W        W29610  13.599  18.698   3.134
57186W        W29611  13.305  32.391   4.123
57187W        W29612   0.304   1.691   0.503
57188W        W29613  39.630  29.216   2.185
57189W        W29614  40.343  26.032   0.828
57190W        W29615  28.001  29.995   1.385
57191W        W29616  33.504  31.042  14.237
57192W        W29617   1.597   2.856  12.001
57193W        W29618  38.847  41.224   3.258
57194W        W29619   4.947   6.782   3.348
57195W        W29620  30.719   1.436   1.880
57196W        W29621   5.415   6.945  12.495
57197W        W29622   6.679  17.261  12.899
57198W        W29623  22.738  10.465   3.754
57199W        W29624  15.782  28.374  11.676
57200W        W29625  33.212  18.297   1.900
57201W        W29626  21.752  28.828   2.727
57202W        W29627  27.986  11.330   2.812
57203W        W29628  16.328  38.099  14.101
57204W        W29629  14.924  18.708   1.230
57205W        W29630  37.844  38.486   2.890
57206W        W29631  17.182   7.692   1.792
57207W        W29632  24.182  13.736  14.935
57208W        W29633  17.838  18.700  10.680
57209W        W29634   0.731  25.174   2.700
57210W        W29635  42.345  20.003   2.807
57211W        W29636  31.656   0.919  13.966
57212W        W29637  31.925  33.714   1.222
57213W        W29638  18.830  27.689  11.454
57214W        W29639   2.694  28.116  13.526
57215W        W29640  20.131  21.985   0.697
57216W        W29641  24.002  39.084   0.764
57217W        W29642   7.881  21.426  14.535
57218W        W29643  44.858   0.804   2.903
57219W        W29644  42.916  22.684   2.607
57220W        W29645  33.524   4.700  13.903
57221W        W29646  13.578  15.570  10.676
57222W        W29647  25.161  33.178   3.810
57223W        W29648  30.450   9.863   3.325
57224W        W29649  19.641  23.171  11.433
57225W        W29650   6.945  16.903  11.627
57226W        W29651  15.657  22.058  11.134
57227W        W29652  38.379  17.014  12.366
57228W        W29653  39.288  34.883  13.641
57229W        W29654  43.357  42.077   1.224
57230W        W29655  26.010  44.677   0.861
57231W        W29656   5.245  39.815  12.500
57232W        W29657  38.243  33.796  12.105
57233W        W29658  10.698   6.778   4.853
57234W        W29659  24.952  16.117   2.368
57235W        W29660  26.122   4.995  12.082
57236W        W29661  12.490  16.591   0.533
57237W        W29662   4.955  11.519  13.418
57238W        W29663  40.233  33.345   0.581
57239W        W29664  27.421  32.477   1.933
57240W        W29665  33.029   8.803   3.148
57241W        W29666  41.627  10.198   2.191
57242W        W29667  13.257  14.272   0.742
57243W        W29668  21.521  43.184  12.647
57244W        W29669  41.283  34.851   4.084
57245W        W29670   2.451  20.047   3.691
57246W        W29671   5.338  38.951   0.269
57247W        W29672  19.004  30.423  10.626
57248W        W29673  10.374  30.176   4.925
57249W        W29674  30.390  24.419  14.575
57250W        W29675  35.774  38.581   0.363
57251W        W29676  12.282  10.208   0.714
57252W        W29677  19.797  38.796  10.453
57253W        W29678  16.295  37.611   4.074
57254W        W29679  17.175  30.116  14.264
57255W        W29680  34.145   2.238   0.810
57256W        W29681  40.676  14.048  13.924
57257W        W29682  40.891  41.331   2.521
57258W        W29683  37.112  32.740  12.492
57259W        W29684  41.413  25.167  14.845
57260W        W29685  14.213  26.943  12.106
57261W        W29686  28.207  42.696   0.624
57262W        W29687  43.938  11.069   2.646
57263W        W29688  33.411  15.617   2.547
57264W        W29689  19.142  33.376   4.443
57265W        W29690  12.656   1.690   4.142
57266W        W29691  11.537  14.029  14.424
57267W        W29692  42.702  36.436   3.218
57268W        W29693  37.703  19.375  13.479
57269W        W29694  36.131  41.116  12.646
57270W        W29695  10.259   8.533  12.153
57271W        W29696   8.009  14.427   1.403
57272W        W29697  15.035  27.119   4.635
57273W        W29698  28.326  30.519   4.844
57274W        W29699   9.460  18.795   1.419
57275W        W29700  17.487  36.960   1.443
57276W        W29701  35.338  36.145  11.183
57277W        W29702  43.558  37.651  14.466
57278W        W29703   3.785   3.357  14.954
57279W        W29704  17.322   2.755   3.139
57280W        W29705  21.564  24.763   1.242
57281W        W29706   5.767   1.082   1.663
57282W        W29707  32.906  23.736   2.385
57283W        W29708  22.101  36.995  14.433
57284W        W29709  40.889  42.762   1.476
57285W        W29710   5.380   2.035   4.094
57286W        W29711  27.621  38.486  14.939
57287W        W29712   5.686  18.521   1.289
57288W        W29713  30.619  39.892  11.556
57289W        W29714  38.349   4.269  12.024
57290W        W29715  33.997  42.494  10.491
57291W        W29716  35.496  12.137   4.141
57292W        W29717  13.407  40.299   3.320
57293W        W29718  42.225  15.200   2.387
57294W        W29719  25.937   1.750  11.076
57295W        W29720   9.808   0.464  12.595
57296W        W29721   0.523  36.653  12.522
57297W        W29722  24.180   7.306  12.886
57298W        W29723  42.306  41.092   1.226
57299W        W29724   8.850   6.309  11.876
57300W        W29725  25.792  32.918   4.881
57301W        W29726  41.574  25.151  13.499
57302W        W29727   5.767  33.533   4.615
57303W        W29728  44.036  10.198   3.753
57304W        W29729   1.587  30.443   4.314
57305W        W29730  20.179  29.120  11.208
57306W        W29731  29.516  34.844  12.479
57307W        W29732  41.997  12.842   2.310
57308W        W29733  26.110  28.527   3.642
57309W        W29734  17.996   8.220   3.298
57310W        W29735   4.911  10.610   2.973
57311W        W29736  16.674  38.392   4.100
57312W        W29737  35.198  10.821   2.216
57313W        W29738  26.611  37.552   2.399
57314W        W29739   7.945  27.952  13.858
57315W        W29740  14.303  35.607   1.336
57316W        W29741  41.025  19.575  12.532
57317W        W29742  22.523  39.949   0.346
57318W        W29743  10.453  13.895   1.671
57319W        W29744  23.237   4.935  11.096
57320W        W29745  42.754  33.983   3.687
57321W        W29746  20.796  26.404  12.525
57322W        W29747  32.905  42.292  13.951
57323W        W29748  38.837  23.173   2.765
57324W        W29749  21.589  20.159   1.826
57325W        W29750   4.015  12.179  12.811
57326W        W29751   7.798  14.200  13.791
57327W        W29752  42.927  22.596  11.950
57328W        W29753   9.403  15.772   4.236
57329W        W29754  39.795  33.069   4.633
57330W        W29755  17.803  27.237   2.633
57331W        W29756  44.029  38.845   0.861
57332W        W29757   6.266  17.776   3.401
57333W        W29758  28.072   1.758   3.831
57334W        W29759   5.813   8.071  13.901
57335W        W29760  25.610  19.946   0.246
57336W        W29761  41.142   0.853   4.182
57337W        W29762  20.789  22.254  14.000
57338W        W29763   8.959  27.442  12.281
57339W        W29764  40.780  27.282   3.275
57340W        W29765  22.129  29.688   2.495
57341W        W29766   5.731  44.973  14.906
57342W        W29767   7.788  43.466   1.285
57343W        W29768   3.916  38.501  12.299
57344W        W29769   2.459  11.747   5.031
57345W        W29770  11.647  31.601   1.021
57346W        W29771  18.216  30.664  11.653
57347W        W29772   5.275  24.583  11.239
57348W        W29773  13.906  15.273  12.340
57349W        W29774   4.847  32.505  14.074
57350W        W29775  36.392  10.419   2.642
57351W        W29776  38.022  42.504   0.485
57352W        W29777  29.404   5.315  13.477
57353W        W29778  38.292  19.276  12.472
57354W        W29779   4.415  18.065  11.964
57355W        W29780  36.328  40.334   0.387
57356W        W29781  42.035   3.112   0.234
57357W        W29782  11.863  10.608  13.068
57358W        W29783   1.000  24.943  11.180
57359W        W29784  35.073  44.019   1.838
57360W        W29785  38.384  44.425  14.440
57361W        W29786  33.944  17.613  11.595
57362W        W29787  18.777  24.978   1.761
57363W        W29788  28.616  27.035   1.883
57364W        W29789   5.289  16.938  10.892
57365W        W29790   1.917  14.220   3.998
57366W        W29791  29.087  24.151   4.303
57367W        W29792  22.102  20.770  11.576
57368W        W29793  12.352  23.469  14.778
57369W        W29794  38.716  38.935   0.017
57370W        W29795  33.696  22.446  11.464
57371W        W29796   5.867  35.698  12.401
57372W        W29797  22.878  42.494  12.862
57373W        W29798  31.459   8.278   1.336
57374W        W29799  13.900  40.326  10.529
57375W        W29800  23.961  11.722  12.057
57376W        W29801   7.802   7.767   4.827
57377W        W29802  17.834  15.386   2.681
57378W        W29803   6.326  38.763  14.893
57379W        W29804  32.767  11.853  11.015
57380W        W29805  40.904  35.858   1.909
57381W        W29806  23.645  32.656  13.388
57382W        W29807  14.628  19.749   1.393
57383W        W29808  13.792  28.734   0.387
57384W        W29809  23.224  34.113   4.565
57385W        W29810  36.819  43.903  14.366
57386W        W29811  40.495  36.585  14.858
57387W        W29812  38.942  19.193   2.921
57388W        W29813  11.172  27.611  14.320
57389W        W29814  14.020  21.061  10.876
57390W        W29815  13.803  25.902   9.547
57391W        W29816   2.558  27.556  13.009
57392W        W29817  20.590  21.029   1.917
57393W        W29818  25.224  31.142  13.960
57394W        W29819   3.818  17.592  12.957
57395W        W29820   6.422  19.702  11.523
57396W        W29821   1.257   1.812   0.889
57397W        W29822   3.756  35.188   0.300
57398W        W29823   6.659  30.365  10.802
57399W        W29824  41.357  32.950   3.686
57400W        W29825  24.417   1.398  14.859
57401W        W29826  36.560  39.462   1.906
57402W        W29827  13.081   0.726  12.464
57403W        W29828  30.161  15.837  11.471
57404W        W29829  33.526  16.583   4.151
57405W        W29830  26.247   3.749   1.690
57406W        W29831  36.917  16.173   3.406
57407W        W29832  16.937   4.736  10.669
57408W        W29833  36.451  37.283   2.654
57409W        W29834  43.844  18.301  14.989
57410W        W29835   0.827   9.338  12.182
57411W        W29836  37.376   2.158  12.146
57412W        W29837   0.416   7.315  11.574
57413W        W29838  16.777  36.931  12.595
57414W        W29839   2.824  30.666   0.146
57415W        W29840  43.980  18.197   0.475
57416W        W29841  11.443  13.043   1.411
57417W        W29842  25.647  27.897  13.067
57418W        W29843  27.037  38.080  12.970
57419W        W29844  25.978  13.915   1.964
57420W        W29845   1.072  44.483  11.199
57421W        W29846   6.973  10.181   5.001
57422W        W29847  40.303   6.736   1.713
57423W        W29848  27.393  20.267   4.548
57424W        W29849   3.280  21.677   1.255
57425W        W29850  13.775  30.192   2.940
57426W        W29851   8.423  14.059  12.906
57427W        W29852  14.698  11.728   3.163
57428W        W29853  23.642  37.469   2.372
57429W        W29854   0.258  25.180   4.508
57430W        W29855  35.070  14.223   0.382
57431W        W29856   3.135  39.008  12.218
57432W        W29857  13.148  34.936  11.714
57433W        W29858  16.851  20.579   0.307
57434W        W29859  13.672  40.947   0.274
57435W        W29860  17.578  19.397  10.511
57436W        W29861  32.952  32.311   3.536
57437W        W29862   2.246  30.063  11.005
57438W        W29863  12.816   2.719   0.172
57439W        W29864   2.997  21.294  12.337
57440W        W29865  44.765  22.201   0.768
57441W        W29866   1.240  42.916  14.050
57442W        W29867  28.528  39.995  13.857
57443W        W29868  24.024   4.841  13.117
57444W        W29869   5.199  19.126  10.795
57445W        W29870   1.817  37.028   0.420
57446W        W29871   4.903  43.655   3.180
57447W        W29872   0.851  39.077   3.837
57448W        W29873  41.309   6.676   2.696
57449W        W29874  44.719  21.495   1.310
57450W        W29875  44.805   2.165  11.129
57451W        W29876  10.215   1.437   4.658
57452W        W29877  33.919  37.092  11.106
57453W        W29878  16.649  31.731  12.152
57454W        W29879  34.178   5.296   1.255
57455W        W29880   8.288  13.992  13.886
57456W        W29881  35.682  27.724  13.466
57457W        W29882   2.610   0.535   2.307
57458W        W29883  38.958  36.604   4.203
57459W        W29884  10.411   0.926   1.280
57460W        W29885  26.400  26.728  11.705
57461W        W29886  10.794  10.839  11.116
57462W        W29887  39.732  31.883  12.963
57463W        W29888  16.027   7.475  14.014
57464W        W29889  21.278  22.187  14.324
57465W        W29890   7.901  22.676   3.251
57466W        W29891  10.326  33.769  12.026
57467W        W29892  23.972  38.818   1.257
57468W        W29893   2.397  17.171  13.800
57469W        W29894  16.730  43.422  11.295
57470W        W29895   5.401  27.011  13.005
57471W        W29896   0.763  33.268  10.980
57472W        W29897  43.589   3.739   4.677
57473W        W29898  27.084  28.918  11.447
57474W        W29899  31.596  18.329  10.212
57475W        W29900  28.569  42.256   1.221
57476W        W29901  40.281  12.723  11.950
57477W        W29902  38.913  29.109  10.337
57478W        W29903  38.477  25.137  12.450
57479W        W29904  28.175  29.559  13.947
57480W        W29905  24.166  37.462   4.683
57481W        W29906   3.978  21.234   3.833
57482W        W29907   8.712   6.225  12.855
57483W        W29908  14.376  28.102   3.769
57484W        W29909  33.899  41.487  11.492
57485W        W29910  41.443  22.464  14.685
57486W        W29911  42.920  41.935   0.184
57487W        W29912   7.180  18.531  12.024
57488W        W29913  41.898  13.836  11.647
57489W        W29914  26.552   6.312   0.675
57490W        W29915   3.446  38.866  11.239
57491W        W29916  19.569  27.982   3.427
57492W        W29917  36.524  17.098   4.886
57493W        W29918  15.060  17.618   1.749
57494W        W29919  23.523  37.159  13.952
57495W        W29920  35.651   1.070  13.569
57496W        W29921  34.575  30.581  14.913
57497W        W29922  35.319  10.822  14.016
57498W        W29923  28.556  22.334  14.553
57499W        W29924   3.956  24.619   3.658
57500W        W29925  42.291  26.433  14.932
57501W        W29926  12.326  12.847   4.582
57502W        W29927  44.325  38.083  14.788
57503W        W29928  36.815  43.830  10.673
57504W        W29929  23.770   7.215   1.690
57505W        W29930  41.921  13.285   2.628
57506W        W29931  37.817  16.014   3.539
57507W        W29932  40.656  41.831   2.671
57508W        W29933  20.627  30.179   3.388
57509W        W29934  13.731  12.053   3.302
57510W        W29935   9.101   5.446  11.562
57511W        W29936  41.471  23.766  14.441
57512W        W29937  24.185  12.694   0.591
57513W        W29938  23.220  26.637   4.425
57514W        W29939   8.128  14.232   4.541
57515W        W29940  17.215  30.265   3.027
57516W        W29941  33.472  29.492  10.741
57517W        W29942  15.841   5.901  11.115
57518W        W29943  37.359   1.463   4.664
57519W        W29944  14.161  33.900   1.760
57520W        W29945  17.208   3.268  14.981
57521W        W29946  29.552  10.585  13.867
57522W        W29947   6.667  20.640   3.832
57523W        W29948  39.102   7.138   2.627
57524W        W29949  26.466  21.583  14.798
57525W        W29950  42.418  29.335  12.483
57526W        W29951  23.497  44.522  10.607
57527W        W29952  20.601  30.494   1.738
57528W        W29953  41.987  26.031   3.645
57529W        W29954   4.737  25.675   3.470
57530W        W29955  15.546  27.006   4.109
57531W        W29956   8.655   4.873  14.361
57532W        W29957  34.535   4.249  11.679
57533W        W29958   2.181   3.368   5.140
57534W        W29959  16.653   8.712  14.924
57535W        W29960  13.880  28.468  12.120
57536W        W29961  44.219  21.498  14.425
57537W        W29962  24.209  10.121  11.019
57538W        W29963   1.981   9.673   3.197
57539W        W29964  41.336  43.457  14.075
57540W        W29965   2.169   0.476  10.174
57541W        W29966   8.201  38.277  14.758
57542W        W29967  33.899  23.661  12.997
57543W        W29968  36.948   9.846  10.550
57544W        W29969  18.780   1.935  10.284
57545W        W29970   4.944  22.001   3.832
57546W        W29971  35.115  38.039   3.749
57547W        W29972  20.684  30.076  14.462
57548W        W29973  32.850  24.666  14.576
57549W        W29974  21.718  23.627   0.085
57550W        W29975  20.239   1.001  10.490
57551W        W29976  23.691  10.197   1.673
57552W        W29977  16.501  28.102  11.153
57553W        W29978  17.828   8.214  10.783
57554W        W29979  31.056  13.794   4.336
57555W        W29980   2.516   1.377  13.387
57556W        W29981   4.653   3.978  10.047
57557W        W29982  40.843  21.715  12.978
57558W        W29983   9.970   1.408   4.196
57559W        W29984  27.735  33.150   3.654
57560W        W29985   3.909  35.365  14.805
57561W        W29986  18.248  22.300   1.749
57562W        W29987  42.930  10.647   0.673
57563W        W29988  10.242  29.079  10.559
57564W        W29989  22.940   1.243  14.774
57565W        W29990  19.795  30.411   1.358
57566W        W29991  38.813   5.462   1.348
57567W        W29992   2.681  14.546   1.726
57568W        W29993  36.925  40.037  11.199
57569W        W29994  34.530  40.448   0.701
57570W        W29995  19.363  36.461   3.193
57571W        W29996  24.897  21.283  12.364
57572W        W29997   2.174  26.334   2.874
57573W        W29998  15.797  39.029   1.754
57574W        W29999  31.088   8.649  13.935
57575W        W30000  23.313  15.670  13.135
57576W        W30001  42.899  44.647   2.303
57577W        W30002  26.074  34.534   4.065
57578W        W30003   4.233  34.187   2.249
57579W        W30004   4.506  21.720   3.225
57580W        W30005   7.746  19.651   4.983
57581W        W30006  29.967  20.993   2.768
57582W        W30007  39.819  19.586   3.589
57583W        W30008   7.835  44.950  13.491
57584W        W30009  14.755   9.805  10.744
57585W        W30010   4.459  28.086  11.598
57586W        W30011   7.109   0.222  12.555
57587W        W30012   0.852  25.226  10.788
57588W        W30013  10.344  35.140   0.929
57589W        W30014   8.689   1.726  12.477
57590W        W30015  20.622  14.545  11.419
57591W        W30016  29.628  32.373   2.346
57592W        W30017  39.105  33.271  10.589
57593W        W30018   4.487  41.344   4.932
57594W        W30019   1.652  28.085   4.070
57595W        W30020   6.775  10.367   4.523
57596W        W30021   0.938  34.896  13.794
57597W        W30022  16.145  17.521   3.691
57598W        W30023   7.384  38.320   2.317
57599W        W30024   7.363  31.227   1.762
57600W        W30025  22.520   4.314  11.647
57601W        W30026  34.822  36.329  12.933
57602W        W30027  36.449   7.799   0.351
57603W        W30028  29.123  19.249   3.463
57604W        W30029   1.968  26.736  10.543
57605W        W30030  16.836  21.426  12.961
57606W        W30031  10.669  27.069   1.303
57607W        W30032  17.472   0.221  12.901
57608W        W30033  29.017  19.574  13.923
57609W        W30034   8.152  42.449   4.534
57610W        W30035  10.263  34.806  13.323
57611W        W30036  17.733  10.146   2.149
57612W        W30037   0.430  16.143   2.931
57613W        W30038  19.858  29.191  10.787
57614W        W30039   5.440  27.859  13.469
57615W        W30040  28.517  30.966  14.039
57616W        W30041  27.418  33.683   1.119
57617W        W30042  13.333  34.027  12.148
57618W        W30043  11.088  27.350  11.616
57619W        W30044   6.806  11.811  12.359
57620W        W30045   7.329   5.944   4.389
57621W        W30046   4.446  42.287   2.995
57622W        W30047  20.406  11.130  14.114
57623W        W30048   4.917  34.497  11.631
57624W        W30049  26.998   2.797   1.769
57625W        W30050  18.607  37.403   3.695
57626W        W30051   0.312  22.094   1.512
57627W        W30052  43.889  10.214  14.450
57628W        W30053  12.078  38.912   2.214
57629W        W30054  25.134  30.792   0.890
57630W        W30055  29.070  27.175  12.042
57631W        W30056  32.139  28.520   2.043
57632W        W30057  29.447   1.238  11.161
57633W        W30058  24.072   0.248  12.412
57634W        W30059  36.747  20.647  13.743
57635W        W30060  30.523  43.432  11.411
57636W        W30061  39.879  37.441   5.103
57637W        W30062  16.708  27.169   0.715
57638W        W30063   8.004  35.006  13.359
57639W        W30064  31.728  37.833  13.531
57640W        W30065  36.862   3.993  14.330
57641W        W30066  29.698  15.649   0.062
57642W        W30067   8.360   5.227   2.742
57643W        W30068   2.550  31.890   1.825
57644W        W30069   2.022  38.646  13.442
57645W        W30070   6.220  38.208  10.970
57646W        W30071  30.663  20.975  11.147
57647W        W30072   0.972  17.215   0.394
57648W        W30073   1.284  14.553   2.696
57649W        W30074  10.572  38.530   4.315
57650W        W30075  16.089   4.516  11.823
57651W        W30076  17.497   5.184  11.666
57652W        W30077  21.647   9.926   2.254
57653W        W30078  34.370  13.203   3.352
57654W        W30079  29.968  14.374   3.071
57655W        W30080  31.791  15.679   4.289
57656W        W30081  43.433   2.366  10.927
57657W        W30082  42.863   7.607   0.191
57658W        W30083  30.583   9.293   1.693
57659W        W30084   2.273   2.839   4.209
57660W        W30085  42.285  17.271   4.104
57661W        W30086   9.618  42.457  12.462
57662W        W30087  43.917  20.641  14.443
57663W        W30088   6.901  40.272   4.614
57664W        W30089   1.699  12.587  13.613
57665W        W30090  23.211  36.853   4.102
57666W        W30091   3.262  25.637  14.479
57667W        W30092  32.174  25.148  10.621
57668W        W30093  32.896  15.181  14.605
57669W        W30094   9.615  26.093   2.867
57670W        W30095   4.653  27.546   3.159
57671W        W30096   5.466   4.566   3.734
57672W        W30097   7.676  10.742  10.541
57673W        W30098   8.094  17.268  10.646
57674W        W30099  32.120   5.650  12.812
57675W        W30100   4.429  28.130   2.271
57676W        W30101  25.521  36.133   0.009
57677W        W30102  29.095   7.342  10.962
57678W        W30103  39.275  13.784  12.836
57679W        W30104   9.290  16.189  10.863
57680W        W30105  19.137  26.993  13.547
57681W        W30106   3.808  16.318   2.230
57682W        W30107  31.105  14.278  11.138
57683W        W30108  44.416  13.424   2.304
57684W        W30109  33.174   0.351  12.535
57685W        W30110  15.518  10.952   0.966
57686W        W30111   0.870  11.571   4.160
57687W        W30112  32.124  21.607  13.337
57688W        W30113   3.615  10.606   2.307
57689W        W30114  18.720   9.854  12.803
57690W        W30115  40.938  11.406   4.194
57691W        W30116  18.534  38.007  14.410
57692W        W30117  42.075   5.702  11.280
57693W        W30118  12.814   4.676   0.724
57694W        W30119  29.092  14.085  12.336
57695W        W30120  22.544  23.906   0.270
57696W        W30121  20.168  17.226   2.180
57697W        W30122  13.979  12.371  11.622
57698W        W30123  40.990  30.092  10.727
57699W        W30124   2.206  40.260  13.612
57700W        W30125  42.292  27.221  14.407
57701W        W30126  37.485  37.609  12.120
57702W        W30127   3.708  16.598  11.899
57703W        W30128  42.288  16.517  13.992
57704W        W30129  41.836  23.920   0.493
57705W        W30130  34.034  27.896  14.349
57706W        W30131  14.371  43.034  10.991
57707W        W30132  18.679  38.290   3.284
57708W        W30133  28.445   8.693   4.267
57709W        W30134  17.982   0.713  11.965
57710W        W30135  29.402   2.505   2.847
57711W        W30136  10.551  32.397   2.829
57712W        W30137   7.505  21.619  11.292
57713W        W30138   0.350  21.324   2.789
57714W        W30139  15.711  41.911  14.199
57715W        W30140  27.782  30.936  12.879
57716W        W30141  29.844  31.083  13.285
57717W        W30142  32.603  39.672  12.585
57718W        W30143  21.627  44.189  12.107
57719W        W30144  13.683  13.386  12.585
57720W        W30145  24.061  32.790  11.107
57721W        W30146  12.884  34.934  13.467
57722W        W30147  33.835  38.740   0.966
57723W        W30148  26.764   6.274   1.143
57724W        W30149  36.498  43.698  12.091
57725W        W30150  28.457  37.526   1.777
57726W        W30151  32.078  42.384  12.994
57727W        W30152  25.197  36.323  11.196
57728W        W30153  42.825  12.778   2.642
57729W        W30154  13.481   8.117  11.183
57730W        W30155  24.541   8.753  12.063
57731W        W30156  18.507  28.333   4.923
57732W        W30157   1.427  30.941  14.867
57733W        W30158  29.408  33.035   1.360
57734W        W30159  16.233   6.429  10.624
57735W        W30160  44.888  10.455  14.846
57736W        W30161  16.023  24.134  10.147
57737W        W30162  27.061  26.132   3.249
57738W        W30163  43.934  33.925  11.018
57739W        W30164  30.413   5.293  12.572
57740W        W30165  22.704  40.353  13.671
57741W        W30166  14.986  20.607   2.777
57742W        W30167  35.278  34.837   1.780
57743W        W30168  30.067  16.931   9.790
57744W        W30169  10.571   3.837  12.996
57745W        W30170  15.569  18.949   2.048
57746W        W30171   4.229  11.709   3.214
57747W        W30172  32.644  19.191   2.606
57748W        W30173  20.617  19.126   0.297
57749W        W30174  15.386  20.646  13.050
57750W        W30175  39.081   0.643   2.305
57751W        W30176   0.941  15.744  14.466
57752W        W30177  44.705  42.622  11.188
57753W        W30178  41.993   7.697   0.244
57754W        W30179  36.576  15.881  12.155
57755W        W30180  39.559  17.645  10.613
57756W        W30181   2.790  40.044  12.042
57757W        W30182  35.775  33.517  14.943
57758W        W30183  42.363  21.711   2.442
57759W        W30184  36.323  14.614   4.186
57760W        W30185  25.068  18.789  12.785
57761W        W30186  34.430  13.792   0.180
57762W        W30187  42.344  21.696   0.738
57763W        W30188  31.621  33.077   1.287
57764W        W30189   0.780  19.275  11.958
57765W        W30190  21.762  25.001  11.960
57766W        W30191  20.695   9.331   0.966
57767W        W30192  14.110   0.768  11.247
57768W        W30193  42.442  14.803  14.787
57769W        W30194   9.608  21.504   4.187
57770W        W30195  17.137  33.495  14.552
57771W        W30196  32.321  40.362   1.103
57772W        W30197  30.177  32.611  10.672
57773W        W30198  12.568   6.964  13.574
57774W        W30199   5.935  24.198   1.370
57775W        W30200  40.307   1.960  11.131
57776W        W30201   4.269   6.176  12.652
57777W        W30202   1.998  21.117   0.058
57778W        W30203  11.884  40.491  13.394
57779W        W30204   6.922  41.822  13.364
57780W        W30205   1.466  36.044   4.177
57781W        W30206   1.496  11.266   3.094
57782W        W30207  41.447  26.786  13.891
57783W        W30208   6.186  33.482   0.795
57784W        W30209  25.555  20.490   0.416
57785W        W30210   5.646  33.352   0.306
57786W        W30211  41.583  43.902  13.950
57787W        W30212  39.431  28.708   3.441
57788W        W30213  24.203  33.254  11.989
57789W        W30214  35.941  22.308   1.505
57790W        W30215  32.690  33.519   3.343
57791W        W30216  21.749  22.049   0.570
57792W        W30217   8.265  20.561   0.866
57793W        W30218  30.659  30.406   0.382
57794W        W30219  26.153  37.802  13.365
57795W        W30220   7.461   6.669   0.286
57796W        W30221  39.351  24.852  10.468
57797W        W30222   9.687  15.759   4.689
57798W        W30223  39.309  24.097   1.341
57799W        W30224   4.351  31.051   4.111
57800W        W30225  30.229  12.136  14.031
57801W        W30226  43.008  17.166   2.796
57802W        W30227  25.074   3.099   5.316
57803W        W30228  27.486  39.904   4.205
57804W        W30229   0.066  36.050  14.776
57805W        W30230  34.079  29.129  11.210
57806W        W30231  42.543  16.866   1.274
57807W        W30232  15.792  20.250   2.611
57808W        W30233  17.709  14.857  10.887
57809W        W30234  29.806  41.302  13.388
57810W        W30235  16.344  15.262  11.205
57811W        W30236  18.258   4.363   1.673
57812W        W30237  40.749   9.596  13.368
57813W        W30238  28.921  23.124   4.444
57814W        W30239  25.658  15.844  10.748
57815W        W30240   6.360  12.499  11.474
57816W        W30241  13.372  11.822   0.907
57817W        W30242  28.151  27.123  11.840
57818W        W30243  27.848  24.658   2.663
57819W        W30244  44.929  13.111   2.947
57820W        W30245  41.847   3.057  14.690
57821W        W30246  37.427  21.202   1.894
57822W        W30247  26.085  32.879  13.918
57823W        W30248  16.120  35.030   4.181
57824W        W30249  13.702  28.217  10.915
57825W        W30250  26.654  18.681  12.590
57826W        W30251  41.224   8.230  10.660
57827W        W30252   5.586  28.653   2.136
57828W        W30253  12.334   6.932   0.725
57829W        W30254  16.065  26.449   0.026
57830W        W30255  26.464   8.701   2.124
57831W        W30256  27.039   0.730   2.669
57832W        W30257  16.362  13.205   2.319
57833W        W30258  42.935  11.791   3.721
57834W        W30259  17.697   1.539  12.936
57835W        W30260  37.943  30.343  11.209
57836W        W30261  16.850  27.056  11.484
57837W        W30262  27.522  14.238   4.543
57838W        W30263  24.900  44.822  13.244
57839W        W30264  10.617  37.657  12.485
57840W        W30265   2.770  38.922   4.089
57841W        W30266   0.538  20.290  14.330
57842W        W30267  25.713   7.407   3.719
57843W        W30268  19.662  25.559   2.018
57844W        W30269  10.792   3.492  10.734
57845W        W30270   5.928   5.251   2.860
57846W        W30271  25.273   4.202   1.754
57847W        W30272  13.075   4.898  12.774
57848W        W30273  19.656  32.618  13.085
57849W        W30274  21.141   9.275   3.302
57850W        W30275   3.386  22.276  13.875
57851W        W30276  41.859   9.417   4.621
57852W        W30277  31.245  33.056   1.636
57853W        W30278   7.864  38.333  10.619
57854W        W30279   9.735  38.051   0.877
57855W        W30280  13.289  41.859   3.376
57856W        W30281  21.603   4.514  11.603
57857W        W30282  28.836  13.836   2.141
57858W        W30283  18.179  14.432   1.228
57859W        W30284  33.062  19.529  14.987
57860W        W30285  30.598  17.114   0.429
57861W        W30286  34.536  34.124   3.151
57862W        W30287  21.646  20.525  11.506
57863W        W30288  20.846  30.429  12.015
57864W        W30289  37.057  34.141   4.109
57865W        W30290   2.852  36.371   2.748
57866W        W30291  26.097  38.568  10.883
57867W        W30292  22.503  20.988  14.502
57868W        W30293  17.189  10.548   0.760
57869W        W30294  32.050   7.412  11.098
57870W        W30295  29.660   0.529  10.683
57871W        W30296   9.395   5.661  14.229
57872W        W30297   5.741   9.612  11.091
57873W        W30298  20.882  31.407   0.272
57874W        W30299  19.606  20.269  13.663
57875W        W30300  18.310  19.475  12.726
57876W        W30301  13.408  34.595   4.917
57877W        W30302   8.373  35.034   4.373
57878W        W30303  34.816  42.472  12.081
57879W        W30304  18.739  22.515  13.753
57880W        W30305  34.737  31.557   0.005
57881W        W30306  19.612  38.814   0.359
57882W        W30307  28.124  42.651   2.877
57883W        W30308  18.736  40.067   2.540
57884W        W30309   6.841  24.713  12.341
57885W        W30310  10.333   4.305  13.839
57886W        W30311  14.222  34.858   3.758
57887W        W30312  32.293  30.361   0.700
57888W        W30313  27.656  29.379  13.000
57889W        W30314  36.165  35.563   0.786
57890W        W30315  31.413  15.996  14.040
57891W        W30316   4.318   6.405  10.958
57892W        W30317   2.698  19.804  14.392
57893W        W30318  26.383  22.129   1.381
57894W        W30319  32.917  26.009  11.227
57895W        W30320  28.941  22.536  11.562
57896W        W30321  14.386  34.815  11.114
57897W        W30322  35.164  41.005   2.782
57898W        W30323  24.000  31.627   1.852
57899W        W30324   5.764  33.170   0.801
57900W        W30325   3.098   0.155  14.467
57901W        W30326   0.270   7.675  12.487
57902W        W30327  29.087  26.408   2.832
57903W        W30328  23.553  17.741   2.446
57904W        W30329   9.317   0.428   1.303
57905W        W30330  25.182  33.663   0.946
57906W        W30331  39.306  37.820  10.317
57907W        W30332  18.116  19.256  14.861
57908W        W30333   7.594  22.551  11.148
57909W        W30334   4.290  17.041  11.954
57910W        W30335  26.089  24.623  12.176
57911W        W30336  20.134  25.888   2.688
57912W        W30337  40.438  26.080  11.294
57913W        W30338   2.783  28.166  12.059
57914W        W30339  44.843  32.642   1.800
57915W        W30340  15.998  33.845   3.525
57916W        W30341  38.808   5.477  14.823
57917W        W30342   5.704   8.773   3.766
57918W        W30343  35.500   2.351  14.890
57919W        W30344   4.845  17.496   4.165
57920W        W30345  37.906  44.247   4.349
57921W        W30346  14.962  25.688  12.465
57922W        W30347  26.548  15.854  11.235
57923W        W30348  17.284   2.043   1.918
57924W        W30349  42.004  22.636   2.219
57925W        W30350   2.916  39.275  10.616
57926W        W30351  21.676   6.419  11.593
57927W        W30352  15.023  20.555   4.116
57928W        W30353  14.341  21.171   9.884
57929W        W30354  39.989  37.872  13.981
57930W        W30355  31.991  21.688   1.239
57931W        W30356  36.868  14.146  13.379
57932W        W30357  40.505  27.655  14.649
57933W        W30358  35.146   2.932   1.341
57934W        W30359  29.154  26.831   1.446
57935W        W30360  34.217   2.229  10.531
57936W        W30361  14.329  15.370   2.369
57937W        W30362  12.807  19.603  14.925
57938W        W30363  10.272  28.932   4.544
57939W        W30364  36.198  26.032   1.798
57940W        W30365   5.173   9.218  12.974
57941W        W30366   1.064  43.255  14.838
57942W        W30367  23.762  40.491   0.361
57943W        W30368   1.792  31.962  14.826
57944W        W30369  35.757  19.530   2.650
57945W        W30370  31.697  25.601  11.433
57946W        W30371   5.872  27.207  12.195
57947W        W30372  26.058   7.226   4.659
57948W        W30373  12.812  32.648  14.951
57949W        W30374   3.194  39.055  12.759
57950W        W30375   9.837  41.821   3.735
57951W        W30376  25.794   2.905   2.399
57952W        W30377   1.828  32.929   1.388
57953W        W30378  17.315  24.135   0.223
57954W        W30379  28.996  13.142  11.466
57955W        W30380  41.205  27.613   3.158
57956W        W30381  20.404  30.267  10.570
57957W        W30382  12.635  44.502  11.245
57958W        W30383  25.796  16.582  12.338
57959W        W30384  12.096  44.249   0.313
57960W        W30385   4.373  28.216   0.435
57961W        W30386   8.726   4.365   2.320
57962W        W30387  14.967  18.200  14.112
57963W        W30388  42.284  43.973  10.511
57964W        W30389  34.605  27.457  13.931
57965W        W30390  29.983   3.823  11.664
57966W        W30391  21.008  40.994  11.132
57967W        W30392   4.143   2.358   3.712
57968W        W30393  20.285  27.522  10.773
57969W        W30394  44.601  17.100   1.654
57970W        W30395   7.486  33.998   0.894
57971W        W30396  25.413  11.028   4.594
57972W        W30397  33.050  12.852  14.365
57973W        W30398  26.898  14.899  13.105
57974W        W30399   2.676  14.155  12.893
57975W        W30400   1.308  14.790  14.009
57976W        W30401  35.550   7.508   0.347
57977W        W30402  23.189  32.647  14.708
57978W        W30403  18.813  19.607   2.772
57979W        W30404  12.837  37.799  11.085
57980W        W30405  42.917   9.861  14.461
57981W        W30406  38.486  21.536   0.761
57982W        W30407  11.055  41.566   3.275
57983W        W30408  35.917   5.717  10.650
57984W        W30409   4.675  40.499  12.399
57985W        W30410   0.426  42.761   0.668
57986W        W30411   3.674  22.014  14.597
57987W        W30412  26.402   3.193   4.631
57988W        W30413  44.359   0.434  11.068
57989W        W30414  29.242   8.294   4.638
57990W        W30415  30.882  14.145  14.419
57991W        W30416  32.056  26.039   4.727
57992W        W30417  13.247  44.146   2.910
57993W        W30418   9.842  27.412   0.922
57994W        W30419   2.794   6.734   3.581
57995W        W30420  29.562   7.376   3.759
57996W        W30421  41.105  35.122  14.068
57997W        W30422   8.298  17.035   4.155
57998W        W30423  24.581  29.184  12.654
57999W        W30424  42.939  28.018  13.350
58000W        W30425  31.896  10.901   3.174
58001W        W30426  32.361  18.654   2.142
58002W        W30427  40.976  14.267   4.667
58003W        W30428  38.515  38.001   2.275
58004W        W30429   2.724   7.711  12.502
58005W        W30430  17.998  11.145  11.116
58006W        W30431   0.056  37.954   4.569
58007W        W30432  12.128  32.259  13.076
58008W        W30433  32.096  17.775   4.623
58009W        W30434   2.219  18.007  11.979
58010W        W30435   7.803  44.437   1.510
58011W        W30436  43.783  16.016  12.426
58012W        W30437  23.687  22.693  12.585
58013W        W30438  18.884  30.038   4.114
58014W        W30439  32.207   4.095  13.999
58015W        W30440  34.475  42.055   2.327
58016W        W30441  18.141   5.704   2.707
58017W        W30442  10.010  14.771  13.906
58018W        W30443   7.158  27.081   4.073
58019W        W30444   3.765  38.421   3.805
58020W        W30445  39.615   6.460   2.844
58021W        W30446  34.691  24.686  13.720
58022W        W30447  35.804   3.476  11.596
58023W        W30448  10.391  26.482  11.737
58024W        W30449   7.219   7.964  12.848
58025W        W30450  40.879  27.581  13.363
58026W        W30451  28.397  35.669  12.149
58027W        W30452  43.508  15.317  11.094
58028W        W30453   0.105  42.282  12.003
58029W        W30454   6.380  34.382  11.530
58030W        W30455  11.365  25.727   3.750
58031W        W30456   2.752   2.328  10.629
58032W        W30457   8.501  24.057  13.964
58033W        W30458   1.175  21.412  12.006
58034W        W30459   7.001  24.739   2.753
58035W        W30460  20.128  11.964   3.699
58036W        W30461   1.909  28.139  13.062
58037W        W30462  42.223  11.917   1.820
58038W        W30463   5.370  30.438  11.190
58039W        W30464  33.154  17.234  12.083
58040W        W30465  31.993  42.726   2.342
58041W        W30466  38.558   3.889  13.402
58042W        W30467  23.514   4.902   0.203
58043W        W30468  42.604  20.478  14.028
58044W        W30469  22.706  20.708   0.030
58045W        W30470  26.201  16.760  11.529
58046W        W30471  36.391  31.045  11.902
58047W        W30472  25.772  43.512  13.986
58048W        W30473  42.475  39.236   0.110
58049W        W30474  31.396  26.716   0.244
58050W        W30475  26.732  25.818   4.681
58051W        W30476  24.682  34.323  10.395
58052W        W30477  18.792   6.951   2.277
58053W        W30478  10.768  12.333  12.014
58054W        W30479  21.616  35.384  13.061
58055W        W30480  26.740  17.232  10.649
58056W        W30481   8.377  36.965   3.422
58057W        W30482   8.441   2.778   4.553
58058W        W30483   3.421  23.038   0.492
58059W        W30484  32.877  10.692   3.509
58060W        W30485  20.458  30.853   9.796
58061W        W30486  29.247  32.098  13.967
58062W        W30487   1.124  13.312   2.182
58063W        W30488   6.685  39.442  12.573
58064W        W30489  23.670  27.636   2.846
58065W        W30490   8.089  38.913   4.918
58066W        W30491  30.167  27.102  13.505
58067W        W30492  29.899  33.411   2.620
58068W        W30493  35.930  13.437  14.071
58069W        W30494  20.702  41.410   0.279
58070W        W30495  27.493  36.535  10.644
58071W        W30496  10.829  42.350  12.839
58072W        W30497  36.457  13.345   4.645
58073W        W30498  38.968  38.453   2.920
58074W        W30499   9.776  10.363  12.345
58075W        W30500   4.776   1.996   1.928
58076W        W30501  29.581   4.330   1.264
58077W        W30502  42.918   4.644   5.010
58078W        W30503  37.388  39.005   2.937
58079W        W30504   6.390  15.126   4.396
58080W        W30505  16.189  31.157  14.879
58081W        W30506  29.625   5.029  10.306
58082W        W30507  37.375  33.406   1.283
58083W        W30508   9.948  36.399   4.972
58084W        W30509  33.702  30.634  11.889
58085W        W30510  44.162  12.603   1.441
58086W        W30511  25.101  24.857   4.677
58087W        W30512  11.222  15.533   1.475
58088W        W30513  32.500  35.661   0.414
58089W        W30514  31.940  29.519   4.641
58090W        W30515  38.328   8.870  11.894
58091W        W30516  20.330  14.383   0.276
58092W        W30517  12.697   7.651  10.686
58093W        W30518  29.414  22.452  12.887
58094W        W30519  24.031  30.353   2.225
58095W        W30520   2.866   8.710  13.466
58096W        W30521  15.640  32.525  10.685
58097W        W30522  14.756  23.001   0.991
58098W        W30523  31.591  26.480  13.919
58099W        W30524  19.818  23.221   2.413
58100W        W30525   9.787  20.262   1.364
58101W        W30526  38.805   9.388   0.269
58102W        W30527  25.657  28.934   2.380
58103W        W30528  43.757  35.703   2.803
58104W        W30529  14.062   2.829   1.589
58105W        W30530  21.717  19.037  13.883
58106W        W30531  15.258   8.201  13.826
58107W        W30532  38.125  40.740  13.256
58108W        W30533  21.809   5.162   3.725
58109W        W30534  24.979  16.055   1.420
58110W        W30535  25.154  19.741  13.249
58111W        W30536  30.575  14.026  13.058
58112W        W30537  10.010  29.170  11.031
58113W        W30538  35.533  32.623   2.804
58114W        W30539   4.809  16.257  13.865
58115W        W30540   0.062   4.125  13.094
58116W        W30541   2.170  23.912  12.426
58117W        W30542  34.830   2.222  13.949
58118W        W30543  35.045  25.926   0.461
58119W        W30544  32.453  29.425   4.657
58120W        W30545  39.996  37.545   0.370
58121W        W30546  32.619  40.280  10.692
58122W        W30547  26.962  41.330  11.939
58123W        W30548  28.606  13.785  12.197
58124W        W30549  10.867  29.924   4.276
58125W        W30550  22.480  41.747  13.193
58126W        W30551  15.471  18.070   2.826
58127W        W30552  13.360  29.569   5.064
58128W        W30553  21.149  36.446  10.726
58129W        W30554  26.088  40.506   3.123
58130W        W30555  15.357  34.298  14.936
58131W        W30556  15.207   4.568  11.940
58132W        W30557  44.822  14.130   1.142
58133W        W30558  29.117  19.520  12.080
58134W        W30559   6.396  30.161   1.345
58135W        W30560   7.166  38.403  12.989
58136W        W30561  39.821   8.648  14.867
58137W        W30562  15.893   2.184   3.030
58138W        W30563  15.369  36.183   2.682
58139W        W30564   0.566  37.475   1.683
58140W        W30565   6.496   4.784   3.053
58141W        W30566  13.175  28.171  10.614
58142W        W30567  42.780  31.579  14.420
58143W        W30568  22.821  21.366   4.571
58144W        W30569  40.928  25.020  14.135
58145W        W30570   9.808   9.714  11.626
58146W        W30571   9.344  44.354   2.026
58147W        W30572   8.638  35.438   0.345
58148W        W30573  34.903   3.138   5.002
58149W        W30574  32.981  36.522   4.251
58150W        W30575  25.067  11.994   1.435
58151W        W30576  39.267  26.637   4.311
58152W        W30577  25.776  42.043  13.025
58153W        W30578  21.268  12.145  10.728
58154W        W30579  43.348   5.924  10.589
58155W        W30580   2.506   6.751   0.350
58156W        W30581  23.203  39.768  11.518
58157W        W30582  15.527  40.386   0.873
58158W        W30583  19.511   9.216   0.435
58159W        W30584  13.592  25.097   1.959
58160W        W30585   0.511   6.441  12.930
58161W        W30586  44.266  42.883  12.027
58162W        W30587   8.084   6.816  12.894
58163W        W30588  22.739  10.703   0.749
58164W        W30589  24.714  34.895   3.238
58165W        W30590  16.307   7.274  11.650
58166W        W30591  36.620  24.207   3.763
58167W        W30592  30.112   7.894   1.004
58168W        W30593   5.963  19.201  12.906
58169W        W30594  15.552   4.672  12.870
58170W        W30595   4.813  22.692  10.519
58171W        W30596  38.024  12.189  11.900
58172W        W30597  32.144  10.380   4.974
58173W        W30598   5.830  16.658   2.922
58174W        W30599   6.222  13.262  11.193
58175W        W30600   2.817  39.054   2.675
58176W        W30601  15.081  22.803  14.466
58177W        W30602   8.963  13.574  11.547
58178W        W30603  23.842  26.537   1.471
58179W        W30604  23.901   9.199  11.555
58180W        W30605   5.280  39.003  10.797
58181W        W30606  40.808  44.131   2.774
58182W        W30607  25.970   7.035   1.661
58183W        W30608  41.885  34.604  13.113
58184W        W30609  24.289  28.367  10.355
58185W        W30610  11.200  29.663  11.107
58186W        W30611  44.556  22.633   2.890
58187W        W30612  15.758   0.006   3.730
58188W        W30613  15.213  36.885  11.469
58189W        W30614  25.722  35.989   1.387
58190W        W30615  34.146   8.834   3.900
58191W        W30616  26.314  38.504  14.553
58192W        W30617  38.593   4.791   4.464
58193W        W30618  21.921  32.075   2.228
58194W        W30619   2.123  35.107   1.832
58195W        W30620  35.909  35.460  13.615
58196W        W30621   1.754  20.369   4.514
58197W        W30622  24.318  33.089   2.126
58198W        W30623  27.702  35.112   2.256
58199W        W30624  34.651  15.361   3.209
58200W        W30625  28.926  39.848   1.967
58201W        W30626  22.855   7.882  10.100
58202W        W30627  18.574  10.307  12.635
58203W        W30628  16.626   9.732  14.086
58204W        W30629   8.243  24.956   0.440
58205W        W30630  29.565  43.526   1.485
58206W        W30631  26.519  14.511   4.627
58207W        W30632  22.148  33.143  14.351
58208W        W30633   0.011  42.597  12.397
58209W        W30634  15.290  22.574  11.704
58210W        W30635   2.496  19.744  13.536
58211W        W30636   1.387  33.318   0.715
58212W        W30637   9.627  36.110   1.270
58213W        W30638  13.469  12.094  11.060
58214W        W30639   1.271  32.419   4.433
58215W        W30640  29.520   7.864   4.473
58216W        W30641  43.566  22.600  12.990
58217W        W30642   3.937  38.214   2.416
58218W        W30643  23.758   4.999  12.102
58219W        W30644  37.773   8.945  14.987
58220W        W30645  41.209  30.047  12.015
58221W        W30646  42.311  33.003  14.696
58222W        W30647   9.710  15.184  13.904
58223W        W30648  38.441   2.893  11.839
58224W        W30649  33.640   3.441  11.643
58225W        W30650  29.479   3.493   3.647
58226W        W30651  36.961   9.078   3.700
58227W        W30652  26.124  30.081  11.599
58228W        W30653   5.070  29.368   3.160
58229W        W30654   1.000  24.437  11.104
58230W        W30655  18.513   2.436   2.701
58231W        W30656  10.793  41.991  13.410
58232W        W30657  37.239  36.318   1.822
58233W        W30658  28.965  28.740   4.276
58234W        W30659   9.757  43.929   3.474
58235W        W30660  38.917   7.117  10.994
58236W        W30661  35.362  37.759  13.734
58237W        W30662  25.173  25.961   3.144
58238W        W30663  29.649  27.559  11.107
58239W        W30664   7.016  23.350  14.548
58240W        W30665  11.592  41.842  12.988
58241W        W30666  19.727  24.397   0.112
58242W        W30667  13.073   9.384  11.792
58243W        W30668  40.630  14.920   1.767
58244W        W30669  40.432  43.184  10.492
58245W        W30670   1.773  31.512  14.304
58246W        W30671   1.663   4.832  13.819
58247W        W30672   9.316  17.957  10.971
58248W        W30673   0.411  29.398   3.276
58249W        W30674  28.560  22.806  11.980
58250W        W30675   5.208  22.610   1.555
58251W        W30676  14.957  20.166  14.363
58252W        W30677  22.667  12.569  11.100
58253W        W30678  18.981  31.678   2.818
58254W        W30679   0.124  27.924  14.286
58255W        W30680  31.461  44.060  11.159
58256W        W30681  38.398  26.412   0.961
58257W        W30682  16.496  35.561  11.106
58258W        W30683  39.429  30.724   4.163
58259W        W30684  40.982  42.434  14.934
58260W        W30685  21.740  22.296  14.527
58261W        W30686   7.422   1.299  13.379
58262W        W30687  22.342  15.201   0.949
58263W        W30688  43.718  26.987  12.729
58264W        W30689  14.893   5.426  12.146
58265W        W30690  27.693  20.571  11.632
58266W        W30691   7.251  39.917  13.145
58267W        W30692  23.356  22.610   4.215
58268W        W30693  41.752  43.245   1.478
58269W        W30694  42.831   8.979  13.707
58270W        W30695  14.276   3.888   4.591
58271W        W30696  20.194  16.465  13.279
58272W        W30697  13.185  41.783   2.400
58273W        W30698   9.528  39.525  11.527
58274W        W30699  29.837  29.120   2.724
58275W        W30700  36.590  31.401  12.189
58276W        W30701  23.367   8.044   5.398
58277W        W30702  17.034  34.890  14.939
58278W        W30703  38.326  41.328   2.338
58279W        W30704  31.313  20.969  12.097
58280W        W30705   4.747  24.213  13.750
58281W        W30706   0.302  27.942   1.313
58282W        W30707   1.372  29.700  12.429
58283W        W30708  39.072  13.226  12.378
58284W        W30709  27.801  17.229  10.966
58285W        W30710  16.135  25.664  10.381
58286W        W30711  13.549  20.174   3.307
58287W        W30712  39.448  18.653  14.776
58288W        W30713  26.479   2.775  14.760
58289W        W30714  21.538  16.580   0.629
58290W        W30715  17.050   1.623   3.124
58291W        W30716  33.184   1.954   1.788
58292W        W30717  11.921  13.920   0.277
58293W        W30718   5.673   7.675   1.551
58294W        W30719  38.868  39.589  14.325
58295W        W30720  10.222  25.650   4.642
58296W        W30721   1.450  12.657   1.482
58297W        W30722  13.057  34.249   2.582
58298W        W30723   0.222  20.433  12.785
58299W        W30724  34.808  20.488  11.038
58300W        W30725  27.281  30.361   3.317
58301W        W30726  23.281   6.472   3.090
58302W        W30727  38.430  43.658  12.309
58303W        W30728  17.269  41.563   0.246
58304W        W30729  14.241  27.445   0.988
58305W        W30730   4.817  34.702   4.213
58306W        W30731  15.103  17.723   0.340
58307W        W30732   0.159  19.928  12.652
58308W        W30733   6.487  19.449  10.261
58309W        W30734  41.928   1.027  11.065
58310W        W30735  32.632  18.043   0.756
58311W        W30736  32.147   1.255  13.163
58312W        W30737   4.589  32.070  13.903
58313W        W30738  40.822  25.477  14.569
58314W        W30739  26.488  43.845   4.447
58315W        W30740   2.746  14.755   3.845
58316W        W30741  24.614  23.664   3.678
58317W        W30742  15.327  21.911   0.476
58318W        W30743  31.490   2.875  11.267
58319W        W30744  18.143  35.393  14.247
58320W        W30745  12.861  12.759  11.817
58321W        W30746  40.278   4.840   1.903
58322W        W30747  41.765   3.211   2.111
58323W        W30748  41.553  11.853   3.311
58324W        W30749   2.640  34.187  12.100
58325W        W30750  14.147   1.463  13.712
58326W        W30751  22.858  15.540   1.588
58327W        W30752  17.515  19.486   0.353
58328W        W30753  39.380   3.377  12.980
58329W        W30754  17.790  26.960   0.712
58330W        W30755  27.992  30.804  11.617
58331W        W30756  32.589  27.997  14.426
58332W        W30757   1.371  34.919  10.714
58333W        W30758   0.527   3.845  14.411
58334W        W30759   0.212  26.532   0.246
58335W        W30760  42.959  15.600  13.397
58336W        W30761  29.116  31.326  13.538
58337W        W30762  20.063  31.806   9.818
58338W        W30763   4.891  14.595  11.103
58339W        W30764  41.302  15.892   2.165
58340W        W30765  35.048   9.667  11.823
58341W        W30766  30.145  36.281   2.789
58342W        W30767  42.547  27.483   0.814
58343W        W30768   1.426  22.796  10.418
58344W        W30769  22.001  22.700   1.947
58345W        W30770  43.560  17.698  14.240
58346W        W30771  24.944  28.064  13.416
58347W        W30772  40.436  13.220  12.966
58348W        W30773  44.013  38.791  14.949
58349W        W30774  31.849  31.589   4.375
58350W        W30775  38.019  15.081   0.380
58351W        W30776   7.675  26.119  13.478
58352W        W30777  19.246  28.832   2.865
58353W        W30778   3.639  38.049  13.902
58354W        W30779  29.884  33.614   4.174
58355W        W30780   4.442  42.510  12.053
58356W        W30781  21.574   5.297  14.474
58357W        W30782  31.509  30.055  14.300
58358W        W30783   7.798   9.883  13.032
58359W        W30784   2.826  26.481   0.644
58360W        W30785   7.276  16.273  13.889
58361W        W30786  28.705  34.472  12.413
58362W        W30787  39.488  41.945   9.767
58363W        W30788  40.024  30.681  13.032
58364W        W30789  37.133   4.695   1.182
58365W        W30790  12.025  44.321  12.412
58366W        W30791  10.152  37.763  14.022
58367W        W30792  41.058  17.063  14.965
58368W        W30793  34.585  13.067  13.879
58369W        W30794  17.654  28.479   0.321
58370W        W30795  13.399  20.169   4.364
58371W        W30796  30.532  41.848   0.041
58372W        W30797  41.813  32.488  10.538
58373W        W30798   1.015  39.602   0.470
58374W        W30799   3.383  43.499  11.660
58375W        W30800  40.297  16.052   3.216
58376W        W30801  19.778  34.239   1.800
58377W        W30802  20.634  15.878   3.908
58378W        W30803  41.629  33.538   3.150
58379W        W30804  37.147  33.971   3.288
58380W        W30805  26.678  26.023  13.331
58381W        W30806  14.815  44.390  11.994
58382W        W30807  27.678   9.338  12.303
58383W        W30808   1.860  33.528  12.052
58384W        W30809  23.550  44.255   1.251
58385W        W30810   1.193  10.865   4.535
58386W        W30811  18.690  44.950   4.839
58387W        W30812  23.635  15.154   1.153
58388W        W30813   5.456  44.378   1.781
58389W        W30814  16.235  42.846  12.496
58390W        W30815   7.177  13.246  13.063
58391W        W30816  18.142  18.807   3.736
58392W        W30817  43.239  32.664   3.285
58393W        W30818  36.574  34.555   1.531
58394W        W30819  27.355  26.477   1.457
58395W        W30820  16.038  36.045   0.962
58396W        W30821  28.955   8.431   2.809
58397W        W30822  11.710  38.740  10.585
58398W        W30823  12.742  20.497  13.820
58399W        W30824   5.002  12.736  14.956
58400W        W30825  36.093   2.912  11.108
58401W        W30826  13.598   9.878   4.174
58402W        W30827  38.403   7.576   0.316
58403W        W30828  34.084  11.429   3.205
58404W        W30829  41.321  39.471   0.729
58405W        W30830  32.184  34.511  11.849
58406W        W30831  41.440  36.870  13.505
58407W        W30832   3.838  44.202   1.253
58408W        W30833  11.196  42.427   2.702
58409W        W30834  38.851  27.157   1.448
58410W        W30835   7.940  21.112   3.664
58411W        W30836   8.151   6.424  14.075
58412W        W30837  44.424  23.617  12.458
58413W        W30838  36.039   5.953  13.952
58414W        W30839  23.972  15.126  13.455
58415W        W30840  12.868  15.703   4.627
58416W        W30841  12.129  41.990   3.979
58417W        W30842   4.911   5.920   4.228
58418W        W30843   1.398  34.447   2.497
58419W        W30844  23.272   0.568  12.903
58420W        W30845   5.144  21.078  14.668
58421W        W30846  27.082  18.610  11.785
58422W        W30847  23.749  21.518  13.897
58423W        W30848   2.984  36.418   1.874
58424W        W30849   6.887  30.442   3.218
58425W        W30850   2.864  26.652  10.819
58426W        W30851   7.650  20.091  13.828
58427W        W30852  27.032  29.427  11.571
58428W        W30853  24.966   0.578   0.737
58429W        W30854   0.529  30.721   2.013
58430W        W30855  16.064  39.010   3.140
58431W        W30856  21.591   4.720   3.567
58432W        W30857  12.143  36.773  10.848
58433W        W30858  10.340   9.721  14.456
58434W        W30859  44.963  12.504   3.684
58435W        W30860   9.199   9.419   0.438
58436W        W30861  39.299  16.090   3.259
58437W        W30862  38.110  30.438   3.869
58438W        W30863  11.120  25.519  13.078
58439W        W30864  27.098  29.552   2.611
58440W        W30865   9.411  10.068  11.552
58441W        W30866  13.172  44.824   4.540
58442W        W30867  39.927  37.943   4.921
58443W        W30868  20.101  24.208  14.748
58444W        W30869  23.052  15.139   3.195
58445W        W30870   0.721  18.843   3.806
58446W        W30871  21.525  43.831  11.214
58447W        W30872  34.008   6.757   3.579
58448W        W30873   3.319  35.819  11.637
58449W        W30874  20.053   2.173  14.218
58450W        W30875  32.899  20.457  11.025
58451W        W30876  35.881  20.268  14.241
58452W        W30877  11.687  37.398   4.476
58453W        W30878   1.669  34.931   1.552
58454W        W30879  25.863   1.780   0.444
58455W        W30880   0.176  30.023  11.186
58456W        W30881  27.988  24.483   1.354
58457W        W30882  39.798   6.379  14.520
58458W        W30883  18.800  31.407   1.948
58459W        W30884  32.208  11.613   2.696
58460W        W30885  24.177  31.328   3.103
58461W        W30886   6.986   3.408  11.646
58462W        W30887  26.913   8.911  12.021
58463W        W30888  42.981  27.711   1.036
58464W        W30889   6.467  43.484  14.241
58465W        W30890  40.495  44.939  11.117
58466W        W30891  16.514  34.615   2.095
58467W        W30892  41.511  43.806   3.732
58468W        W30893  12.753  15.606  11.581
58469W        W30894  39.909  17.132   1.365
58470W        W30895  27.516  17.489   3.182
58471W        W30896   7.310  37.111  14.411
58472W        W30897  24.575   4.108  12.665
58473W        W30898  30.233   2.612   3.174
58474W        W30899  40.350  42.017   1.128
58475W        W30900   9.731  40.277   3.657
58476W        W30901   6.479  30.696  14.352
58477W        W30902  32.029  38.465   4.463
58478W        W30903  33.868  24.424   4.272
58479W        W30904  35.549  32.604   4.620
58480W        W30905   3.912  32.700  12.743
58481W        W30906  17.081  32.420  10.159
58482W        W30907  32.944  13.553  13.818
58483W        W30908  29.473  21.862  12.619
58484W        W30909  33.555  44.617  11.893
58485W        W30910  28.660   0.394  11.586
58486W        W30911  37.487  15.540  11.520
58487W        W30912  22.080   5.383  14.252
58488W        W30913   6.320  33.869  12.371
58489W        W30914   7.775  26.425   2.275
58490W        W30915  30.349  18.671  10.097
58491W        W30916  33.926  34.755  12.577
58492W        W30917  28.423  18.110  14.722
58493W        W30918  22.217  14.348  14.979
58494W        W30919  37.027  27.579   4.669
58495W        W30920   8.606  32.253  12.131
58496W        W30921   2.338  15.598   1.017
58497W        W30922  22.770  24.624  13.832
58498W        W30923   6.877  10.232  11.523
58499W        W30924   5.107  14.233   2.817
58500W        W30925   1.857  21.607   0.106
58501W        W30926  33.810   8.865   2.834
58502W        W30927  21.039  34.799   1.263
58503W        W30928   6.672  38.426  13.138
58504W        W30929  26.042  44.723  13.866
58505W        W30930  30.043   9.967   4.202
58506W        W30931   7.637   2.831   2.780
58507W        W30932  30.112   4.919   2.174
58508W        W30933  21.500  18.324   0.769
58509W        W30934  32.134  15.680  10.170
58510W        W30935  18.678  34.380   3.297
58511W        W30936  37.577  22.363  10.246
58512W        W30937  30.712  34.437  10.629
58513W        W30938  20.233  38.169  13.975
58514W        W30939  38.153  42.475   3.733
58515W        W30940   7.294  29.036   1.266
58516W        W30941  37.876  11.959   1.276
58517W        W30942  18.200  35.261   0.625
58518W        W30943  11.839  42.719  13.851
58519W        W30944  18.645  37.318   1.753
58520W        W30945  29.572  41.292  12.873
58521W        W30946   0.055  44.207   3.782
58522W        W30947  44.813   2.323  11.988
58523W        W30948  17.110   1.211  12.156
58524W        W30949  29.712  30.185   5.241
58525W        W30950  15.695  33.280   0.450
58526W        W30951  29.848  29.993  11.218
58527W        W30952  11.328  25.476  11.698
58528W        W30953  19.995  10.218   3.545
58529W        W30954   2.744  24.897   0.764
58530W        W30955  36.426  30.274   3.375
58531W        W30956  18.721  21.067  11.460
58532W        W30957  30.388  12.690  13.013
58533W        W30958  15.862  17.365  14.968
58534W        W30959  34.378  31.660   2.851
58535W        W30960  22.269  12.173  14.331
58536W        W30961   4.858  40.107  11.141
58537W        W30962  40.518   2.441   3.675
58538W        W30963   5.651  38.998  12.036
58539W        W30964   6.563  40.013   4.913
58540W        W30965  18.571  23.476   4.606
58541W        W30966   2.968  29.119  11.855
58542W        W30967   2.790  32.837   1.811
58543W        W30968  44.193  32.184   4.522
58544W        W30969  16.744  35.905   3.677
58545W        W30970  44.647  19.573  11.971
58546W        W30971  16.762  41.310  11.961
58547W        W30972  11.976  25.627  14.906
58548W        W30973   2.350   9.222  12.007
58549W        W30974   8.355  38.466  10.629
58550W        W30975  10.610  39.597   0.844
58551W        W30976  20.684  26.919   4.959
58552W        W30977  34.315  15.738  12.565
58553W        W30978  24.542  15.127   1.269
58554W        W30979  20.858  38.486   2.604
58555W        W30980  11.683  39.309   4.594
58556W        W30981  33.880   9.542  11.744
58557W        W30982  18.239  37.883   4.743
58558W        W30983  18.075  39.287  11.849
58559W        W30984  35.099  27.955   2.409
58560W        W30985  20.284  31.737  10.278
58561W        W30986  41.289   7.960   4.671
58562W        W30987  33.425  40.215   4.362
58563W        W30988  29.274  42.905  10.733
58564W        W30989  27.637  11.695   4.595
58565W        W30990  14.876  11.944  11.992
58566W        W30991  40.324   6.738   3.948
58567W        W30992  26.163   8.380  11.651
58568W        W30993  42.201  35.969   2.724
58569W        W30994  20.320  12.352  11.420
58570W        W30995  19.663  11.209  12.076
58571W        W30996  16.241  42.597  14.145
58572W        W30997  28.959   4.419   3.610
58573W        W30998  13.288  34.619   1.628
58574W        W30999   6.893  19.521   4.063
58575W        W31000  32.046  27.128   0.485
58576W        W31001  44.223  20.294  11.148
58577W        W31002  11.956  39.855  13.876
58578W        W31003   3.756  42.344  11.997
58579W        W31004  18.705  36.723  12.403
58580W        W31005  13.455  14.749   3.784
58581W        W31006  36.564  36.005   3.646
58582W        W31007   1.293  16.869   2.486
58583W        W31008  39.492  39.824  14.842
58584W        W31009   3.696  24.995  12.333
58585W        W31010   3.957  40.871  13.952
58586W        W31011  24.726  10.131   2.535
58587W        W31012  29.050   2.716  11.120
58588W        W31013  28.861  23.349  13.513
58589W        W31014  18.122  13.718   2.390
58590W        W31015  17.047  36.617  11.578
58591W        W31016  24.019  12.657  10.938
58592W        W31017   2.177  16.780  11.099
58593W        W31018  33.971  43.247   3.628
58594W        W31019  23.094  39.571  11.986
58595W        W31020   1.786  19.716   0.240
58596W        W31021  43.931  21.499   1.579
58597W        W31022  18.204  29.989   3.668
58598W        W31023   4.835   5.367   2.304
58599W        W31024  24.876  14.755   0.907
58600W        W31025  13.668  15.565   4.162
58601W        W31026  12.165   3.230  10.970
58602W        W31027  35.930   2.704   0.728
58603W        W31028  37.490  10.762  13.996
58604W        W31029  37.971  32.375  13.390
58605W        W31030  30.018  10.175  14.903
58606W        W31031   0.013  37.988   2.621
58607W        W31032  24.619  39.544   4.761
58608W        W31033   3.193  40.431  12.440
58609W        W31034   1.639  26.088   1.171
58610W        W31035  37.318  28.723  13.519
58611W        W31036  10.626  44.931  12.313
58612W        W31037   4.990  38.825   3.637
58613W        W31038  24.873   7.878  11.719
58614W        W31039  35.551  39.939  10.802
58615W        W31040   5.767   5.505  14.975
58616W        W31041  23.733  29.356   2.254
58617W        W31042  21.612  29.713  11.191
58618W        W31043  21.521   4.412  14.444
58619W        W31044  25.496  40.479   1.864
58620W        W31045   6.351   7.095  10.675
58621W        W31046  30.831  22.553  12.918
58622W        W31047  35.090  26.437  13.824
58623W        W31048  33.559  28.208   4.538
58624W        W31049   6.333  27.208  11.555
58625W        W31050  19.154  30.577   4.929
58626W        W31051  24.056   2.985  14.281
58627W        W31052  22.057  42.529   2.641
58628W        W31053  16.628  10.443   2.931
58629W        W31054  13.183  27.364   3.911
58630W        W31055   2.651  26.664  14.756
58631W        W31056   5.743  23.580  11.212
58632W        W31057  36.981   8.735   2.862
58633W        W31058  20.732  31.431  10.270
58634W        W31059  40.048   7.873   1.200
58635W        W31060  17.012   1.896  10.769
58636W        W31061  14.108  23.519  14.505
58637W        W31062  31.107  35.037   3.219
58638W        W31063   4.836  22.713   0.240
58639W        W31064   7.305  36.912   1.433
58640W        W31065  21.876  38.982  10.632
58641W        W31066   8.458  42.868   0.209
58642W        W31067  23.415  43.877   1.989
58643W        W31068  38.640  36.769   1.472
58644W        W31069  16.652  27.694   0.799
58645W        W31070  34.612  31.499  13.807
58646W        W31071  13.540  20.208  12.948
58647W        W31072  29.443  11.381  13.568
58648W        W31073  22.608   6.809   0.458
58649W        W31074  31.341  30.671   0.492
58650W        W31075  21.601   9.993  13.810
58651W        W31076  13.059   3.186  13.912
58652W        W31077  17.980  42.219  14.247
58653W        W31078  26.976  30.361  13.061
58654W        W31079  25.684   3.477   0.869
58655W        W31080  28.376  42.527  13.267
58656W        W31081  42.885  12.196  12.413
58657W        W31082  22.462  41.244   4.625
58658W        W31083  29.412  24.567  13.900
58659W        W31084   0.057  37.476   1.760
58660W        W31085  11.755  17.541  14.019
58661W        W31086   8.927  27.537   0.123
58662W        W31087  17.362  31.452  13.894
58663W        W31088  29.332   9.239  14.716
58664W        W31089  18.079  23.155   3.923
58665W        W31090  16.667  23.113   4.565
58666W        W31091  28.765  30.356   5.046
58667W        W31092  41.997  40.881   0.859
58668W        W31093  21.289   8.010   0.637
58669W        W31094  14.862  30.909   2.775
58670W        W31095  38.681  41.743   0.549
58671W        W31096   5.907  18.565   1.762
58672W        W31097  37.586  14.211   0.698
58673W        W31098   4.946   6.977   1.362
58674W        W31099  30.433   9.703   0.389
58675W        W31100  15.547  23.816   1.315
58676W        W31101   0.161  37.315  14.329
58677W        W31102  20.034  36.573  14.804
58678W        W31103  20.322  20.240   0.226
58679W        W31104  20.810  27.421  13.365
58680W        W31105  44.945  27.176   1.731
58681W        W31106  24.097  26.707   4.930
58682W        W31107  25.290  11.864  14.874
58683W        W31108  24.223  42.843   3.614
58684W        W31109  39.303   2.554   4.120
58685W        W31110   2.525  25.256  14.016
58686W        W31111  17.764  30.791   4.571
58687W        W31112  38.711   9.927  10.248
58688W        W31113   4.644  21.064  13.487
58689W        W31114  37.642  25.653  11.102
58690W        W31115  40.775  38.016   4.051
58691W        W31116  12.927  31.517   0.312
58692W        W31117  35.418  27.752  14.448
58693W        W31118  44.441  24.173   1.181
58694W        W31119  32.194   2.696   4.532
58695W        W31120  25.494   9.700   3.384
58696W        W31121  22.200   0.791  12.884
58697W        W31122  42.639  13.698   0.453
58698W        W31123  20.254  23.633  11.200
58699W        W31124  40.659   4.734  10.923
58700W        W31125  15.649  23.405   4.572
58701W        W31126  26.763   3.759   1.686
58702W        W31127  34.632  35.560   4.487
58703W        W31128  25.914  12.828   3.655
58704W        W31129  10.764  43.714  11.092
58705W        W31130  21.695  10.325   1.910
58706W        W31131  14.280  20.635   1.224
58707W        W31132  21.137   0.285  11.561
58708W        W31133  25.098  22.495   4.015
58709W        W31134  38.393  32.004   0.421
58710W        W31135  35.804  13.632   2.359
58711W        W31136  22.197  35.166   1.780
58712W        W31137  25.697  27.572  10.898
58713W        W31138  35.808  23.170   0.463
58714W        W31139  23.558   3.721   3.187
58715W        W31140  39.341   4.410  13.905
58716W        W31141  32.147   6.487  13.898
58717W        W31142   0.546  25.053   3.604
58718W        W31143   0.778  41.521   4.110
58719W        W31144  15.177   9.830  10.440
58720W        W31145  33.835  39.316   4.138
58721W        W31146  15.719  28.568   0.444
58722W        W31147   2.063   8.509  12.496
58723W        W31148  16.755  34.217   3.349
58724W        W31149   1.652   3.911   2.249
58725W        W31150  31.200   6.880   1.907
58726W        W31151  39.264  18.568  13.079
58727W        W31152  11.663  18.330  11.098
58728W        W31153  11.094  16.759   4.178
58729W        W31154  39.851  13.817  10.705
58730W        W31155   6.373  31.459  12.418
58731W        W31156  35.041  21.377  13.431
58732W        W31157  34.049  41.236  13.939
58733W        W31158  40.198   7.140   0.883
58734W        W31159   1.813  10.467   3.600
58735W        W31160  36.334  14.006   2.811
58736W        W31161  29.175  29.695   4.583
58737W        W31162  11.248   9.112   1.956
58738W        W31163  31.798  28.265  14.948
58739W        W31164  43.998  13.470   2.762
58740W        W31165   4.027  27.756   4.212
58741W        W31166  31.631  18.438   3.979
58742W        W31167   7.940  21.787   0.857
58743W        W31168  42.300  11.822   4.558
58744W        W31169  34.317   5.891   1.324
58745W        W31170   2.424   2.512   0.826
58746W        W31171   5.123   1.099  11.064
58747W        W31172  19.335  41.033   4.538
58748W        W31173  14.411  25.889   2.150
58749W        W31174   9.265   9.636  12.372
58750W        W31175  20.197  12.362   1.211
58751W        W31176  10.608  21.649  13.136
58752W        W31177  19.318  29.339   2.960
58753W        W31178  43.448  31.290  12.446
58754W        W31179  30.793  12.775  12.720
58755W        W31180   9.389  11.854   2.473
58756W        W31181  37.501  38.780  14.660
58757W        W31182  15.704  15.305   3.499
58758W        W31183  32.128  34.534   4.087
58759W        W31184  18.003   6.706  14.771
58760W        W31185   1.995   0.331  11.470
58761W        W31186  28.548  38.634   3.751
58762W        W31187  27.905   6.841   4.633
58763W        W31188  19.976  13.146  12.312
58764W        W31189  27.215  30.990  12.108
58765W        W31190  22.526  18.192   1.746
58766W        W31191  23.228   4.845   3.706
58767W        W31192  29.081  30.373  10.372
58768W        W31193  36.891  31.099  14.398
58769W        W31194  19.222  39.055  12.342
58770W        W31195  31.444  36.486   4.063
58771W        W31196  42.751  37.486  13.432
58772W        W31197  11.688  24.380  12.150
58773W        W31198  32.612   4.162   1.094
58774W        W31199  12.400  25.298  13.405
58775W        W31200  42.918  16.838   4.507
58776W        W31201  12.223   8.266   4.248
58777W        W31202  33.446   2.275   4.279
58778W        W31203  34.075  16.068  10.551
58779W        W31204  32.954   9.938   4.591
58780W        W31205   0.306  40.631  13.619
58781W        W31206   8.734  40.472   2.702
58782W        W31207  14.292  20.658  10.582
58783W        W31208  38.109  25.757   4.186
58784W        W31209  39.890  40.958  12.344
58785W        W31210   7.695  31.313  14.671
58786W        W31211   7.075  19.603   2.763
58787W        W31212  38.566   9.190  10.573
58788W        W31213  36.008  40.817   1.452
58789W        W31214  43.812  43.003  11.776
58790W        W31215  35.427  25.604  12.955
58791W        W31216  42.960  26.067   0.902
58792W        W31217  31.558   2.214   2.201
58793W        W31218  16.588  36.875   4.304
58794W        W31219  36.498  33.238   1.639
58795W        W31220   2.404  23.323  11.181
58796W        W31221  20.054  37.829   3.435
58797W        W31222  32.404  10.333  11.872
58798W        W31223   1.796  17.519  14.486
58799W        W31224  38.893  42.482   0.769
58800W        W31225   5.409   0.003   4.123
58801W        W31226  12.386  41.980   0.730
58802W        W31227   9.813  29.921   0.676
58803W        W31228  25.583  14.243  14.581
58804W        W31229  36.866  24.771   0.917
58805W        W31230  10.341  26.424  11.248
58806W        W31231  10.479   8.913   5.068
58807W        W31232  31.168  28.084   5.023
58808W        W31233   5.276  28.906  13.478
58809W        W31234  37.943  19.968   2.401
58810W        W31235  25.916  23.538   2.360
58811W        W31236  20.000  19.157   4.537
58812W        W31237  18.268  12.436   4.300
58813W        W31238   2.463  17.700  13.881
58814W        W31239  29.501  44.228  10.872
58815W        W31240   4.826  31.433   3.820
58816W        W31241  26.184  20.025   4.844
58817W        W31242  24.482  34.117   1.511
58818W        W31243  27.134   5.436   2.776
58819W        W31244  20.274   0.657   4.705
58820W        W31245  23.659  35.094  14.279
58821W        W31246  30.511  17.060  11.558
58822W        W31247  20.535  44.278  12.174
58823W        W31248  11.243   6.252  11.448
58824W        W31249  19.207  23.479   2.409
58825W        W31250  31.371  32.902   4.434
58826W        W31251   9.310  23.909  11.582
58827W        W31252  36.994  13.785  12.245
58828W        W31253  28.624  16.798   4.444
58829W        W31254  39.946   3.361  11.173
58830W        W31255  30.136  17.230  12.104
58831W        W31256  29.422  27.672  13.299
58832W        W31257  32.793  36.100  12.107
58833W        W31258  16.548   1.381   5.032
58834W        W31259  30.621  14.687   4.649
58835W        W31260  15.378   0.957  13.444
58836W        W31261  14.115  30.645   9.792
58837W        W31262  23.907  41.520   4.669
58838W        W31263  18.541  15.262  12.355
58839W        W31264  35.422  26.254  13.473
58840W        W31265  18.049  41.212   1.384
58841W        W31266  41.910  24.310  12.915
58842W        W31267   1.845  34.791  11.607
58843W        W31268  39.519   3.862  11.638
58844W        W31269  28.224  10.182  12.618
58845W        W31270  33.961  19.523   0.993
58846W        W31271  28.688  22.451  13.359
58847W        W31272  34.488  24.285   4.139
58848W        W31273  29.645  13.396  11.975
58849W        W31274  37.575   7.931   2.102
58850W        W31275  31.567  12.178   0.810
58851W        W31276  30.585  43.438  12.980
58852W        W31277  23.792   5.851  13.917
58853W        W31278  30.427  18.111   0.393
58854W        W31279  35.553  27.832   0.165
58855W        W31280   8.477  11.829   2.442
58856W        W31281   1.446   4.333  12.516
58857W        W31282   0.420  17.621  11.917
58858W        W31283  40.515  42.203  13.357
58859W        W31284  41.092  22.462   2.199
58860W        W31285   6.989  30.001   2.171
58861W        W31286   5.953  39.082  14.626
58862W        W31287  13.521  26.095   4.334
58863W        W31288  12.849  40.639  14.531
58864W        W31289  26.351  29.503   4.364
58865W        W31290   0.834   2.279   4.454
58866W        W31291  16.150   4.621  14.015
58867W        W31292   4.893  29.029  11.691
58868W        W31293  11.567  21.213  12.431
58869W        W31294  37.934   8.404  11.005
58870W        W31295   1.337  15.418   3.611
58871W        W31296  41.373   8.669   3.708
58872W        W31297  26.542   2.267  14.897
58873W        W31298  22.780  36.480   3.677
58874W        W31299   6.575  12.416  13.063
58875W        W31300  15.212  35.463  11.175
58876W        W31301  19.079  37.097   3.056
58877W        W31302  14.635  12.401  13.996
58878W        W31303  44.073  26.975   2.761
58879W        W31304  37.374   2.412   1.763
58880W        W31305   4.995  14.252  13.000
58881W        W31306  34.048  40.749   3.236
58882W        W31307  21.598  40.034  14.226
58883W        W31308  10.207  12.844  12.536
58884W        W31309  24.669  27.162  12.785
58885W        W31310  21.234  31.419  13.681
58886W        W31311  38.918   5.055   2.936
58887W        W31312   9.378  42.454  10.904
58888W        W31313   6.720  32.013   1.604
58889W        W31314   4.308  16.884   0.229
58890W        W31315   4.882  13.750  14.875
58891W        W31316  31.816  25.082   0.160
58892W        W31317   8.873  20.009  11.313
58893W        W31318  30.619  34.507   3.867
58894W        W31319  38.061  10.166   2.383
58895W        W31320   9.800   4.374   2.173
58896W        W31321  39.755   4.770   2.263
58897W        W31322  37.256  37.341  13.497
58898W        W31323  18.139  36.083  13.052
58899W        W31324  34.506  27.587   1.501
58900W        W31325   2.146  20.259   1.045
58901W        W31326  26.486  38.358  12.953
58902W        W31327  11.285  22.756  12.147
58903W        W31328   3.626  10.831  11.450
58904W        W31329  39.071  16.692   3.206
58905W        W31330   5.829  25.635   1.114
58906W        W31331  28.367   6.195   1.263
58907W        W31332  38.293   5.539  12.863
58908W        W31333   8.525  12.772   2.676
58909W        W31334   9.755  16.951   3.651
58910W        W31335  23.582  15.343   3.076
58911W        W31336  27.526  22.632   3.699
58912W        W31337  25.224  27.658  14.382
58913W        W31338   7.135   8.805  11.459
58914W        W31339  18.603  19.333  13.958
58915W        W31340   7.300  25.278  13.037
58916W        W31341  23.789  16.209   0.784
58917W        W31342  34.939   2.491  11.215
58918W        W31343  11.906   7.976  12.870
58919W        W31344  39.986  14.454   0.732
58920W        W31345  43.546   5.510   3.550
58921W        W31346   9.845  31.152   1.531
58922W        W31347  31.513  43.671  13.112
58923W        W31348  43.748  27.156   1.468
58924W        W31349  37.395   3.720   4.128
58925W        W31350   2.103  44.880  14.880
58926W        W31351  21.010  44.868  10.602
58927W        W31352  26.549  18.368   0.311
58928W        W31353  29.078   1.164   2.142
58929W        W31354  31.402   6.219   2.820
58930W        W31355   8.133  12.555   1.820
58931W        W31356  35.477  43.708  11.515
58932W        W31357  41.314  40.655  10.378
58933W        W31358  10.108   4.162  14.323
58934W        W31359  32.155  29.765   3.375
58935W        W31360  15.202  17.106   1.640
58936W        W31361  36.153   2.625   3.778
58937W        W31362   7.598  24.995   4.984
58938W        W31363  16.041  36.357  12.485
58939W        W31364   2.347  19.137  13.482
58940W        W31365  23.851  39.386   2.367
58941W        W31366  28.372  13.901   4.661
58942W        W31367  16.589  14.111  13.483
58943W        W31368  24.635  29.382  13.567
58944W        W31369  13.730  44.400   4.545
58945W        W31370  40.701  32.697  12.637
58946W        W31371  23.728  22.103   2.723
58947W        W31372   4.797   4.835   4.694
58948W        W31373  10.659  26.054  11.594
58949W        W31374  16.000  11.573  10.144
58950W        W31375  33.442  23.173   1.369
58951W        W31376  15.373  16.246   3.146
58952W        W31377  16.346  17.060   2.862
58953W        W31378  26.191   7.549  14.452
58954W        W31379   7.845  43.233  14.527
58955W        W31380  10.624  23.948  11.447
58956W        W31381   3.434  38.942   4.775
58957W        W31382  42.336  13.068  13.134
58958W        W31383   8.235  10.901   0.099
58959W        W31384  35.051  16.638  13.453
58960W        W31385  42.309  37.327  12.044
58961W        W31386  24.739  36.651  11.218
58962W        W31387   9.207  40.787   4.059
58963W        W31388  36.599   7.274   3.227
58964W        W31389  17.324   9.978  13.466
58965W        W31390  40.008  29.218   2.567
58966W        W31391  40.564   7.469   2.750
58967W        W31392  27.129  35.585  13.413
58968W        W31393  23.755  15.341   0.179
58969W        W31394  32.551   2.738  14.850
58970W        W31395  23.759  15.203   3.884
58971W        W31396  17.279  23.634  12.506
58972W        W31397  10.142   6.874   1.468
58973W        W31398  28.663  33.696  13.442
58974W        W31399  27.953  30.946   2.722
58975W        W31400  19.714  22.821  13.556
58976W        W31401   6.291  44.873   4.121
58977W        W31402  17.562  29.494   0.447
58978W        W31403  26.528  29.728  12.407
58979W        W31404  27.007   0.048  12.436
58980W        W31405  26.952  44.022  14.971
58981W        W31406  28.127   9.404   0.937
58982W        W31407  41.819  17.133   1.609
58983W        W31408  17.780   9.654   2.365
58984W        W31409   5.512  29.145  11.650
58985W        W31410  23.178  32.290   3.166
58986W        W31411  17.569  32.109  13.943
58987W        W31412  33.716  23.716   0.247
58988W        W31413  29.336  42.810  12.034
58989W        W31414  37.475  24.115   4.588
58990W        W31415  36.523   6.208   0.326
58991W        W31416  31.889  44.874  13.757
58992W        W31417  12.638  43.045   1.274
58993W        W31418  23.274  19.953   1.287
58994W        W31419  31.318   2.972  12.625
58995W        W31420   6.953   1.797   0.495
58996W        W31421  13.667   4.661   4.193
58997W        W31422  19.873  39.822   1.944
58998W        W31423  28.924  40.725  12.434
58999W        W31424  39.995  28.451  11.632
59000W        W31425   9.756   0.377   0.199
59001W        W31426  10.291  34.080   0.681
59002W        W31427   3.487  40.809   4.494
59003W        W31428  38.973   3.120   3.017
59004W        W31429  15.848  29.664   3.794
59005W        W31430  20.093  33.698  12.383
59006W        W31431  33.921  29.411  13.458
59007W        W31432  42.468  23.793  12.414
59008W        W31433  41.084   7.246  10.549
59009W        W31434  24.934  39.298   3.230
59010W        W31435  26.700  41.845   4.535
59011W        W31436  20.485  24.211   2.478
59012W        W31437  26.554   6.684  14.321
59013W        W31438  36.292  34.494  12.513
59014W        W31439  18.538   7.617   3.678
59015W        W31440  38.782   4.205   1.969
59016W        W31441   6.745   7.260  12.951
59017W        W31442  36.176  27.119  14.802
59018W        W31443  33.001  23.584   3.578
59019W        W31444   1.096   8.912   2.947
59020W        W31445  38.390  18.059  12.208
59021W        W31446  34.460   5.070   1.638
59022W        W31447  30.324  25.184   3.046
59023W        W31448  17.879  21.698  14.869
59024W        W31449  12.714  11.988   2.349
59025W        W31450  42.824  35.769   4.170
59026W        W31451  13.232  43.276   0.461
59027W        W31452  17.689   2.626  13.851
59028W        W31453  11.235  38.496  10.690
59029W        W31454  39.218  15.524  12.868
59030W        W31455  25.997  16.572   2.211
59031W        W31456   2.371  40.423   3.370
59032W        W31457   7.857  30.317  14.859
59033W        W31458  42.047  35.326  11.667
59034W        W31459   3.432  26.459   3.872
59035W        W31460   9.104  18.786   2.256
59036W        W31461  17.824  27.021  13.903
59037W        W31462  24.496  30.896  11.166
59038W        W31463  18.506  22.713  12.604
59039W        W31464  44.539  12.691   1.073
59040W        W31465   1.567   9.169   2.264
59041W        W31466  10.730   0.133  13.763
59042W        W31467  40.318  22.501  12.302
59043W        W31468   4.041   0.857   0.279
59044W        W31469  31.417  38.425   2.338
59045W        W31470  36.982  28.083  10.378
59046W        W31471  24.089   2.215  13.792
59047W        W31472  36.109  34.354   1.426
59048W        W31473   4.707  13.129   0.153
59049W        W31474   8.679  43.036   4.109
59050W        W31475  37.076  25.483  13.876
59051W        W31476  12.789  34.546   0.257
59052W        W31477   5.648  35.470  14.313
59053W        W31478  23.388  36.688   0.690
59054W        W31479  17.864  23.214   3.208
59055W        W31480  14.333  19.813  12.454
59056W        W31481   2.845  44.888   1.343
59057W        W31482  32.182  14.016  14.997
59058W        W31483  27.213  18.566  13.312
59059W        W31484   4.371  31.121   0.834
59060W        W31485   7.756   2.713  11.271
59061W        W31486  26.490  26.206  12.870
59062W        W31487  12.373  37.646   0.737
59063W        W31488  21.568  26.859   4.886
59064W        W31489   0.780  38.090   3.708
59065W        W31490  31.889  34.512   9.952
59066W        W31491  32.430  15.182  11.591
59067W        W31492  18.484  20.635  13.932
59068W        W31493  19.547   6.717   3.594
59069W        W31494  40.970  44.485  14.991
59070W        W31495   3.750  34.923   3.669
59071W        W31496   9.288  29.238   0.983
59072W        W31497  34.849  11.169   3.585
59073W        W31498  43.475  26.539  10.684
59074W        W31499  11.180  27.018  12.893
59075W        W31500  18.244  13.157  11.850
59076W        W31501   2.775   5.358   2.097
59077W        W31502   6.154   3.900  11.631
59078W        W31503  29.632  30.836   2.164
59079W        W31504  11.705  18.522  14.066
59080W        W31505   4.956   4.482   9.915
59081W        W31506  19.586  35.640   0.651
59082W        W31507  22.552  17.819  12.006
59083W        W31508  34.022  36.639   1.202
59084W        W31509  24.525   8.096  12.295
59085W        W31510   6.814   2.439   1.717
59086W        W31511   7.715   7.099   0.486
59087W        W31512  11.610  32.302  11.490
59088W        W31513  12.058  10.179  14.780
59089W        W31514  39.916  41.959  11.611
59090W        W31515  41.126   4.392   2.934
59091W        W31516  29.971   7.913   2.824
59092W        W31517  17.745  35.614  10.716
59093W        W31518  40.906  10.839  12.739
59094W        W31519  17.023   8.747  10.802
59095W        W31520   6.651  31.437  11.497
59096W        W31521  22.143  30.939  13.495
59097W        W31522  38.368  35.843   3.266
59098W        W31523  12.794  21.757  14.761
59099W        W31524   8.301  12.502  14.000
59100W        W31525  42.579  24.756  14.912
59101W        W31526  27.640  15.776  14.840
59102W        W31527  35.414   3.806  14.488
59103W        W31528  30.452  35.109   1.623
59104W        W31529   3.751  26.530  11.198
59105W        W31530  40.750  25.163   4.404
59106W        W31531  16.951  10.578  13.903
59107W        W31532  26.358  42.762  12.010
59108W        W31533   0.371  34.302   3.798
59109W        W31534   0.306  23.084   4.709
59110W        W31535  44.856  36.629   1.452
59111W        W31536  38.009  34.577   4.861
59112W        W31537   8.706  13.323   3.218
59113W        W31538   6.380  28.611  11.513
59114W        W31539  38.421  19.998  13.057
59115W        W31540  33.392   7.280  14.249
59116W        W31541  17.184   9.220   4.438
59117W        W31542   4.078   0.390  12.529
59118W        W31543   9.436  39.503  13.920
59119W        W31544  13.156  30.882   2.289
59120W        W31545   1.330   3.813  13.149
59121W        W31546  22.208  10.495   5.151
59122W        W31547  44.368   4.876   2.200
59123W        W31548   6.906  39.453  11.161
59124W        W31549  22.952  35.995  14.868
59125W        W31550  11.838  18.108   1.720
59126W        W31551   1.246  38.443  11.609
59127W        W31552  36.343  41.972   4.351
59128W        W31553   7.536  12.943   1.712
59129W        W31554  31.621   3.316   1.035
59130W        W31555  21.251  11.283   1.422
59131W        W31556  31.567  38.150   3.972
59132W        W31557  36.564  43.356   0.829
59133W        W31558  25.249  30.546  12.318
59134W        W31559   7.693  29.708  11.607
59135W        W31560  40.213  10.109   3.146
59136W        W31561  26.551  26.456   3.230
59137W        W31562   8.916  26.407   4.653
59138W        W31563  23.759  35.444  14.825
59139W        W31564  13.341   6.973   3.247
59140W        W31565  38.029  18.084   2.397
59141W        W31566  13.019  32.941   3.300
59142W        W31567  44.305  33.377  13.943
59143W        W31568  10.493  29.584  12.112
59144W        W31569  27.039  19.669  12.799
59145W        W31570  22.448   4.521   1.854
59146W        W31571  20.508   3.939   3.674
59147W        W31572  25.999  25.252  14.241
59148W        W31573   3.010   9.793  10.716
59149W        W31574  16.289  17.784   3.257
59150W        W31575  31.948  32.066   0.829
59151W        W31576  31.087  19.767   0.326
59152W        W31577  20.706  36.693   3.899
59153W        W31578  30.847  21.748  10.880
59154W        W31579  44.445  27.814  13.745
59155W        W31580  32.866  11.343  12.112
59156W        W31581  37.745  11.180   3.703
59157W        W31582  22.526  26.205  14.809
59158W        W31583  32.472  32.316   2.257
59159W        W31584  27.662   5.806   1.785
59160W        W31585  44.997  12.575  12.051
59161W        W31586  33.071  12.059   2.494
59162W        W31587  17.571  27.542   3.242
59163W        W31588  23.645  35.615   1.587
59164W        W31589   9.446  11.148  11.568
59165W        W31590  44.971   6.265   3.205
59166W        W31591  42.428   2.999  10.703
59167W        W31592  13.610  22.622  10.934
59168W        W31593  29.733  25.070   2.157
59169W        W31594   6.940  18.838  14.856
59170W        W31595   3.904  33.922   1.478
59171W        W31596  27.662  21.549   3.796
59172W        W31597  26.422  27.740   1.793
59173W        W31598  12.370  17.587  12.654
59174W        W31599  20.618  23.173   1.367
59175W        W31600  22.472  28.385   3.206
59176W        W31601  21.245  44.443  14.091
59177W        W31602   4.451   7.208   3.509
59178W        W31603  31.886  12.100  11.054
59179W        W31604   4.214   0.265  14.384
59180W        W31605  17.610   4.915  12.095
59181W        W31606  32.645  19.779   3.449
59182W        W31607  10.764  33.576   2.300
59183W        W31608  17.749  12.337   4.593
59184W        W31609   4.713  15.806   2.370
59185W        W31610  42.461  18.649   3.809
59186W        W31611  30.462  22.719  10.545
59187W        W31612  30.717  26.450  12.983
59188W        W31613   4.986  26.494   2.816
59189W        W31614  17.284  30.882   1.786
59190W        W31615  39.504  31.815   1.285
59191W        W31616  11.362  16.751  11.504
59192W        W31617  12.705   6.763  11.241
59193W        W31618  39.961   1.801   3.267
59194W        W31619  17.717  16.269  12.862
59195W        W31620  10.391  31.211   3.262
59196W        W31621  40.786  33.345  14.579
59197W        W31622  33.152  20.383   2.323
59198W        W31623  30.587  15.019  11.506
59199W        W31624  38.811  13.730   0.855
59200W        W31625  44.952   3.340   3.733
59201W        W31626   9.836  43.679  14.753
59202W        W31627  15.859  27.252   3.737
59203W        W31628   1.277  33.344  12.974
59204W        W31629  34.639  21.711  14.371
59205W        W31630  35.133   0.863  13.761
59206W        W31631  24.871  11.794   3.985
59207W        W31632  16.313  21.072  14.998
59208W        W31633  37.096  19.582   2.399
59209W        W31634  21.504  44.760  13.788
59210W        W31635  42.201  16.044   1.019
59211W        W31636  37.069   7.129   1.777
59212W        W31637  42.295  34.549   0.747
59213W        W31638  16.206  26.633   4.073
59214W        W31639   0.669  29.040  13.570
59215W        W31640   7.946  26.893   2.309
59216W        W31641   5.958  14.315   2.500
59217W        W31642  23.577  37.881   3.647
59218W        W31643   5.418  19.341  11.202
59219W        W31644   7.791   7.424  10.654
59220W        W31645  21.361  24.027   3.598
59221W        W31646  12.545  33.162   3.159
59222W        W31647  39.580  40.858  14.933
59223W        W31648  28.055   3.445  11.623
59224W        W31649  32.659  12.682   0.359
59225W        W31650  35.583  33.102  14.326
59226W        W31651   9.301  38.624   1.244
59227W        W31652  26.014   4.830  11.212
59228W        W31653  16.234   0.993  12.822
59229W        W31654  10.354  14.210  12.448
59230W        W31655  32.070  14.931  11.327
59231W        W31656  43.326  13.129   1.393
59232W        W31657  34.182  14.025  13.127
59233W        W31658  14.283   5.864   2.016
59234W        W31659  34.540   8.784   4.223
59235W        W31660  35.009  21.787   3.638
59236W        W31661  39.416  31.657   4.855
59237W        W31662  13.826  10.597  13.057
59238W        W31663  37.927  17.214  12.162
59239W        W31664  41.686  16.679  14.507
59240W        W31665  28.819  41.557  13.318
59241W        W31666  10.254  22.154  10.688
59242W        W31667   5.276  21.495  13.888
59243W        W31668  23.664  26.624   2.431
59244W        W31669  21.392  17.034  11.083
59245W        W31670   2.713  10.662   1.175
59246W        W31671  14.782  26.049  11.469
59247W        W31672  13.660  20.044  14.974
59248W        W31673  44.615   2.412   2.239
59249W        W31674   9.186  34.633  12.654
59250W        W31675  34.945   0.434   3.201
59251W        W31676  18.509   9.212   3.704
59252W        W31677  10.154  14.876   0.744
59253W        W31678  35.841  23.498   0.884
59254W        W31679   4.480  33.654  13.827
59255W        W31680  36.030   0.808  13.806
59256W        W31681   8.126   0.968   0.725
59257W        W31682   8.586  22.122   3.681
59258W        W31683  25.508  19.655   2.836
59259W        W31684  18.563  25.619   0.233
59260W        W31685  11.621  33.272   1.093
59261W        W31686  28.697  23.630  12.577
59262W        W31687   7.581   9.839   4.676
59263W        W31688   6.456  17.563  11.162
59264W        W31689  13.735   3.693   0.180
59265W        W31690  38.459  39.989   3.196
59266W        W31691  28.806  21.624   2.366
59267W        W31692   6.625  38.792  10.571
59268W        W31693   3.382  34.007  12.507
59269W        W31694  39.928  22.105   1.669
59270W        W31695  35.853   4.459  14.438
59271W        W31696  31.119  33.001   0.357
59272W        W31697  33.386   6.335  14.519
59273W        W31698   9.220  36.742  11.033
59274W        W31699   3.875  42.487   3.612
59275W        W31700  21.509  41.487  14.943
59276W        W31701  18.066  24.682  10.531
59277W        W31702  35.950  43.254   4.654
59278W        W31703  11.720  12.201   1.104
59279W        W31704  11.506  41.913   4.674
59280W        W31705  36.299   6.051   4.928
59281W        W31706  40.590  36.356   4.139
59282W        W31707   6.853  32.595  12.641
59283W        W31708  27.154  39.314   1.804
59284W        W31709   4.021  13.795  11.604
59285W        W31710   6.392  32.880   3.356
59286W        W31711  21.458  35.506   0.809
59287W        W31712  17.889   8.734   3.258
59288W        W31713   3.142  26.624  14.594
59289W        W31714   4.233  33.538   0.313
59290W        W31715  29.442   7.220  13.400
59291W        W31716   2.723  21.759   4.575
59292W        W31717  30.990  16.186   3.077
59293W        W31718  32.875  23.208  14.414
59294W        W31719   7.649  25.292  13.432
59295W        W31720  33.901  16.761   2.596
59296W        W31721  19.405  20.869   5.017
59297W        W31722   9.265  28.925   2.358
59298W        W31723   4.065  26.327   0.891
59299W        W31724  24.450  37.881   1.956
59300W        W31725  39.910  44.726  11.128
59301W        W31726  44.336  29.905   0.292
59302W        W31727   6.397  37.094  11.895
59303W        W31728   9.868  19.173  11.258
59304W        W31729  12.961  33.897   1.411
59305W        W31730  30.568  19.923   0.880
59306W        W31731  18.150   0.747  13.008
59307W        W31732  32.972  38.930  14.574
59308W        W31733  31.061  35.814  13.966
59309W        W31734  34.391   8.925  10.688
59310W        W31735  27.826  36.115   2.289
59311W        W31736  18.241   1.316  10.737
59312W        W31737  19.255   8.959   2.389
59313W        W31738  39.503  42.668   5.392
59314W        W31739  21.065  39.461  10.651
59315W        W31740   8.687  32.699   2.675
59316W        W31741  14.051  20.948   5.026
59317W        W31742  25.126   9.803  13.758
59318W        W31743  21.596  12.763   3.847
59319W        W31744  35.140  35.519  14.883
59320W        W31745  36.400  38.648   1.221
59321W        W31746  15.074  15.859   2.917
59322W        W31747  31.047   4.872  11.243
59323W        W31748  24.193  41.362  14.531
59324W        W31749  27.896  10.280  13.556
59325W        W31750  17.742   9.239  12.468
59326W        W31751  27.461  33.100  11.686
59327W        W31752  40.804   6.745   4.402
59328W        W31753  39.457  10.684   2.219
59329W        W31754  24.110  21.045  13.400
59330W        W31755  20.976  13.027  13.419
59331W        W31756  20.196  30.547  11.506
59332W        W31757   4.878  31.089   4.212
59333W        W31758   2.491   5.346  14.642
59334W        W31759   6.042  35.578  12.868
59335W        W31760  35.661  27.009  14.802
59336W        W31761  31.073  43.899  10.875
59337W        W31762  26.393  14.460   5.160
59338W        W31763  10.564  31.034   1.780
59339W        W31764  21.161  31.701  12.320
59340W        W31765   5.074  11.751  10.160
59341W        W31766  15.705  42.472   1.866
59342W        W31767  24.655  19.672   3.337
59343W        W31768   8.739  36.560   2.248
59344W        W31769   3.621  36.705  11.679
59345W        W31770  28.736  35.594  14.306
59346W        W31771  14.667   5.208   3.241
59347W        W31772  10.698  31.546   2.876
59348W        W31773  36.562  16.078  12.630
59349W        W31774  17.374   9.348   2.460
59350W        W31775  44.472   0.253   0.837
59351W        W31776  24.595  18.558  14.450
59352W        W31777  19.271  24.965  13.404
59353W        W31778  10.048   7.983  14.397
59354W        W31779  29.448  11.566  12.612
59355W        W31780  38.812  24.712  13.407
59356W        W31781  30.118  35.393   3.519
59357W        W31782   7.879   2.946   2.298
59358W        W31783  36.138  16.195   0.283
59359W        W31784  21.047  33.553  12.295
59360W        W31785  32.926   7.263   1.267
59361W        W31786   0.590  35.017   4.487
59362W        W31787  15.146  34.937   2.841
59363W        W31788  17.100   8.379   0.021
59364W        W31789  32.527   7.805   3.318
59365W        W31790  21.925  23.647  10.458
59366W        W31791  26.480  20.507  11.551
59367W        W31792  15.796  21.230  11.476
59368W        W31793  31.693  34.093  12.983
59369W        W31794   1.158  13.065  12.358
59370W        W31795   1.307   3.176   4.986
59371W        W31796  34.759   6.979  11.665
59372W        W31797  35.207   5.918  13.702
59373W        W31798  36.373  33.293  13.620
59374W        W31799   4.975  44.238  12.434
59375W        W31800  15.139  29.421  11.184
59376W        W31801  14.311  26.632   4.811
59377W        W31802   7.950   6.634   0.423
59378W        W31803   4.950  20.627   2.832
59379W        W31804  28.225  41.765   4.451
59380W        W31805  26.645  42.830   3.177
59381W        W31806  31.406  38.028  14.962
59382W        W31807  24.101  11.854  10.344
59383W        W31808  17.176  30.430   1.588
59384W        W31809  39.576  23.972   0.816
59385W        W31810  17.296  31.429   0.759
59386W        W31811  44.862   9.973  10.503
59387W        W31812  36.942  13.498   3.053
59388W        W31813  32.843  25.229   2.712
59389W        W31814  30.680  34.796  13.811
59390W        W31815   4.639  12.453  13.693
59391W        W31816  13.521   8.980   2.735
59392W        W31817  28.233  27.536   2.458
59393W        W31818  32.146  35.247  13.957
59394W        W31819  20.622   0.048   2.283
59395W        W31820  43.503  43.896  11.526
59396W        W31821  39.603  17.454   4.101
59397W        W31822  41.337  43.988   1.825
59398W        W31823  21.228  29.903   1.764
59399W        W31824  16.059  32.542  14.921
59400W        W31825   1.297  20.620  13.798
59401W        W31826  29.422   9.899   4.299
59402W        W31827  15.542  41.580   0.792
59403W        W31828  12.153  19.759   2.851
59404W        W31829   9.686  24.528  13.828
59405W        W31830   5.056  23.092  10.758
59406W        W31831  25.856  41.903  14.377
59407W        W31832   4.767  29.624   0.367
59408W        W31833  36.636  21.817   4.395
59409W        W31834  32.095  34.670  10.410
59410W        W31835   8.706  43.453  12.206
59411W        W31836  19.230  20.124   4.760
59412W        W31837  40.817  22.519  12.443
59413W        W31838  28.828  34.147  11.105
59414W        W31839   3.701  28.695  11.910
59415W        W31840  14.343   2.989   4.883
59416W        W31841   3.036  26.330  11.194
59417W        W31842  37.848  19.385   3.676
59418W        W31843  29.943  29.476  14.853
59419W        W31844   3.230  23.968  10.389
59420W        W31845  38.874   1.487  11.082
59421W        W31846  29.337  23.233  13.346
59422W        W31847  11.201  25.931  10.899
59423W        W31848  31.899  42.069   0.005
59424W        W31849  18.806  15.055   2.871
59425W        W31850  26.106  34.181  13.404
59426W        W31851  40.899  23.738   2.616
59427W        W31852  23.639   6.839   3.102
59428W        W31853   7.142  23.099  14.102
59429W        W31854  23.603   5.314   0.502
59430W        W31855  28.639  21.276  12.040
59431W        W31856  36.122  14.306   1.786
59432W        W31857   1.542  17.276  12.465
59433W        W31858  18.092  29.992   9.943
59434W        W31859   3.875  40.270   3.667
59435W        W31860   5.367  31.657  12.766
59436W        W31861   9.711  23.176  11.881
59437W        W31862  35.175   8.794   3.483
59438W        W31863   3.473  29.961  11.577
59439W        W31864   3.395   4.951   1.405
59440W        W31865  16.798  37.529   4.118
59441W        W31866  34.650  39.783  12.822
59442W        W31867   6.335   9.180   3.240
59443W        W31868  23.177  10.951   1.933
59444W        W31869   4.683  35.596   4.133
59445W        W31870  42.750  23.494   4.577
59446W        W31871  11.310  23.746   3.366
59447W        W31872  24.132  24.185   2.375
59448W        W31873  34.139  34.636  14.498
59449W        W31874  15.574  33.737   3.235
59450W        W31875  30.488   1.758  11.689
59451W        W31876  24.580   1.027   4.094
59452W        W31877  13.026  28.588   0.964
59453W        W31878  31.677   6.641   2.646
59454W        W31879  12.248  43.355   2.824
59455W        W31880  36.921  33.541   1.500
59456W        W31881  31.585  17.558   1.717
59457W        W31882  29.987  12.441   2.688
59458W        W31883   0.918  41.391  12.407
59459W        W31884  35.442  41.345  11.944
59460W        W31885   4.949  34.426   2.750
59461W        W31886  35.648  42.729   3.908
59462W        W31887  42.417  38.998  12.921
59463W        W31888   9.721  15.474  13.457
59464W        W31889  15.075  13.201   3.699
59465W        W31890   8.248  27.774  13.478
59466W        W31891   4.959  33.609  14.794
59467W        W31892  34.324  37.544  11.673
59468W        W31893  18.190  42.551   3.903
59469W        W31894   1.853   1.787   3.193
59470W        W31895  32.641  37.808   0.312
59471W        W31896  28.522   5.734  12.985
59472W        W31897   3.123  33.308  13.006
59473W        W31898   2.261  11.925   2.384
59474W        W31899  21.016   9.768  10.229
59475W        W31900  35.956  23.159   5.020
59476W        W31901   9.934   3.097  13.057
59477W        W31902  39.379  41.683   4.284
59478W        W31903  19.707  26.656  14.893
59479W        W31904  41.029   3.278  13.824
59480W        W31905  17.735  35.939   2.351
59481W        W31906   9.916  39.360   1.560
59482W        W31907  42.343  12.540   2.645
59483W        W31908  42.731  21.721   0.365
59484W        W31909  32.448   6.738   0.359
59485W        W31910  26.041  28.548  14.028
59486W        W31911   7.818   1.750   2.202
59487W        W31912  42.056  24.166   1.887
59488W        W31913  37.245  24.513   2.825
59489W        W31914  30.421  40.503  14.902
59490W        W31915  31.589  41.790  13.040
59491W        W31916  21.143  12.974   4.674
59492W        W31917  30.957  17.298  10.674
59493W        W31918  41.394  20.382   4.652
59494W        W31919   0.289  15.248  10.634
59495W        W31920  11.419  40.635  10.553
59496W        W31921  13.733  12.249  14.785
59497W        W31922  30.178  39.980   2.110
59498W        W31923  16.051   0.510   5.038
59499W        W31924  14.898  29.909   3.906
59500W        W31925  34.091  23.973   0.581
59501W        W31926   7.748   3.373   3.104
59502W        W31927  19.667  40.699  14.168
59503W        W31928  32.048   7.809   5.003
59504W        W31929  21.541  15.006  14.882
59505W        W31930   9.334  29.529  11.510
59506W        W31931  41.944  42.733   3.258
59507W        W31932  15.013   1.808  11.565
59508W        W31933  44.519  41.143  13.872
59509W        W31934  22.818   7.409   2.933
59510W        W31935  31.795  15.286   2.254
59511W        W31936  24.158  42.393  11.688
59512W        W31937   0.510  31.944  13.313
59513W        W31938  43.382   4.379   2.210
59514W        W31939   4.871  19.057  13.072
59515W        W31940  44.212  40.611   4.185
59516W        W31941  14.879   6.550   4.233
59517W        W31942  15.243   1.463   4.559
59518W        W31943   1.833  36.420   0.745
59519W        W31944  35.520  34.030  14.252
59520W        W31945   9.826  38.709   1.519
59521W        W31946  18.843  25.039   1.157
59522W        W31947  43.845  15.062  13.367
59523W        W31948   0.496  36.996   2.764
59524W        W31949  15.813  38.128  10.906
59525W        W31950  13.384  34.162   2.993
59526W        W31951   9.613  10.627   0.849
59527W        W31952  14.129  37.450   1.615
59528W        W31953  36.343   3.262  12.943
59529W        W31954  17.736  15.366  10.979
59530W        W31955  27.982  25.526  13.324
59531W        W31956  32.184  28.560   0.181
59532W        W31957  19.999  17.380   0.640
59533W        W31958  38.472  12.378  12.101
59534W        W31959  13.733   3.832   4.576
59535W        W31960   5.684  22.278  11.068
59536W        W31961  10.744  33.520  11.095
59537W        W31962  37.432  18.179   4.674
59538W        W31963   0.880   8.868   2.132
59539W        W31964  22.090  30.943  10.855
59540W        W31965  44.212   7.681   0.822
59541W        W31966  30.476  31.369  14.050
59542W        W31967   1.992  28.949   0.765
59543W        W31968  31.629   8.707   0.101
59544W        W31969  18.673  11.977   3.607
59545W        W31970   9.149  20.170   4.497
59546W        W31971   2.397  44.567   4.142
59547W        W31972  33.631  33.538  13.556
59548W        W31973  10.579  14.555  10.842
59549W        W31974   6.976  33.011   3.859
59550W        W31975  38.358  40.458   1.520
59551W        W31976  26.230  42.946  13.873
59552W        W31977   4.965   5.181   3.712
59553W        W31978  44.398  21.610   0.863
59554W        W31979  39.998   4.400   1.911
59555W        W31980  22.601   4.748  13.038
59556W        W31981  38.904  18.660  11.828
59557W        W31982   6.174   5.326   0.374
59558W        W31983  15.223   4.144  13.376
59559W        W31984  21.684  44.709  12.025
59560W        W31985  24.699   8.630   1.516
59561W        W31986  28.454  32.026   0.440
59562W        W31987  33.910  41.931  11.207
59563W        W31988   8.263   8.933  10.680
59564W        W31989  19.699  11.786  12.358
59565W        W31990  38.988  13.103  10.964
59566W        W31991  36.164  11.841  13.314
59567W        W31992  19.199  40.928  14.279
59568W        W31993  44.700   6.388  14.462
59569W        W31994  24.311  23.104  11.487
59570W        W31995  29.902  42.326  11.678
59571W        W31996  20.995  40.932  12.991
59572W        W31997  19.759  42.494   1.844
59573W        W31998  29.041  44.134  13.170
59574W        W31999  14.696  36.121   3.643
59575W        W32000  22.489  44.965  13.985
59576W        W32001  19.711  15.741   3.009
59577W        W32002  37.956   5.856  13.908
59578W        W32003  43.107  20.529  14.014
59579W        W32004  26.718  21.200  11.963
59580W        W32005  35.674  22.116  14.245
59581W        W32006  38.817  28.436  12.523
59582W        W32007  41.053  26.635   2.162
59583W        W32008   1.250  24.654  11.502
59584W        W32009  43.248  38.785  12.358
59585W        W32010  36.611  34.055  11.214
59586W        W32011  33.781  35.951   2.706
59587W        W32012  15.767  25.990  11.874
59588W        W32013  30.903  29.360  12.799
59589W        W32014  25.294  21.479   0.438
59590W        W32015  21.550   3.892  14.288
59591W        W32016  40.330  36.811  14.394
59592W        W32017  19.713   9.761  12.372
59593W        W32018  14.139  11.601  11.979
59594W        W32019  13.389  22.642   0.324
59595W        W32020  15.074  21.090  12.525
59596W        W32021  10.287  43.752   4.206
59597W        W32022  37.171  31.865   2.198
59598W        W32023   4.759   9.721  11.249
59599W        W32024  13.222  42.308   3.632
59600W        W32025  27.036  30.529   4.807
59601W        W32026  20.529   7.485   3.835
59602W        W32027  40.943   1.383   0.820
59603W        W32028   9.891   0.883   2.975
59604W        W32029  33.178  11.105   0.671
59605W        W32030  15.339   3.467  14.873
59606W        W32031   7.449  13.506   2.806
59607W        W32032  22.609   7.120  10.678
59608W        W32033  22.195  36.911  11.885
59609W        W32034  16.963   2.811   2.545
59610W        W32035   3.249  13.084  12.503
59611W        W32036  38.072  25.068  14.691
59612W        W32037  44.094   0.421   4.179
59613W        W32038  43.999  16.808  14.451
59614W        W32039  10.278   5.786   3.195
59615W        W32040  13.217  41.409  12.037
59616W        W32041   8.752  36.522  11.203
59617W        W32042  31.667  36.723  11.573
59618W        W32043  20.261   7.332   2.821
59619W        W32044   5.420  33.789  13.509
59620W        W32045  32.337  42.601   0.173
59621W        W32046  14.740  30.860   0.287
59622W        W32047   7.589  29.192  12.168
59623W        W32048   1.024  28.969   4.600
59624W        W32049  15.253  30.314  10.797
59625W        W32050   1.198  41.929  13.983
59626W        W32051   3.732  24.148  13.311
59627W        W32052  39.047  16.090  12.493
59628W        W32053  38.559  25.151  13.930
59629W        W32054  12.837   3.185   0.382
59630W        W32055  23.844  21.683  14.733
59631W        W32056  34.615   4.879   0.882
59632W        W32057  25.814  26.159   2.763
59633W        W32058  10.632   7.790   3.813
59634W        W32059  23.279   0.378  14.682
59635W        W32060  34.757  42.774  14.893
59636W        W32061  33.474  36.603  11.167
59637W        W32062  12.780  15.115   3.853
59638W        W32063  22.584  43.115  11.041
59639W        W32064   2.837  15.096   3.095
59640W        W32065  43.250   6.169   9.949
59641W        W32066  18.543   8.386  14.914
59642W        W32067  13.525   3.090  12.454
59643W        W32068  10.505  17.370   0.664
59644W        W32069  16.599  24.559   1.489
59645W        W32070  10.051  21.599   2.792
59646W        W32071   1.323  34.905   3.326
59647W        W32072  12.204   6.457   0.847
59648W        W32073  33.627  22.170   3.521
59649W        W32074  37.502  34.450  14.493
59650W        W32075  36.822  24.714   4.501
59651W        W32076  14.711  41.067   3.769
59652W        W32077  43.538  11.285   2.892
59653W        W32078   5.450  29.208  12.995
59654W        W32079  23.432  13.338  13.505
59655W        W32080   4.528  14.049   2.108
59656W        W32081  35.148   2.972  11.105
59657W        W32082  30.223  18.191  11.925
59658W        W32083   7.158  29.512  12.442
59659W        W32084   1.852  28.615  11.635
59660W        W32085  19.025  32.103   1.869
59661W        W32086  40.519  39.915   3.754
59662W        W32087  25.690  32.378  12.061
59663W        W32088  30.954  14.638  10.724
59664W        W32089  30.311  19.980  12.192
59665W        W32090  40.296  15.480  10.358
59666W        W32091   5.182   1.210   0.987
59667W        W32092  14.680  10.820   4.075
59668W        W32093  29.679  14.602   2.095
59669W        W32094  42.959  31.587  12.978
59670W        W32095   4.211  29.176   4.096
59671W        W32096  13.869  44.966   1.394
59672W        W32097  24.246  43.498  13.769
59673W        W32098  23.687   3.785  14.404
59674W        W32099   6.174  40.697  13.061
59675W        W32100   9.120  35.057   2.301
59676W        W32101   5.071  40.800  12.443
59677W        W32102   9.391  13.978  13.981
59678W        W32103  23.999  28.288   0.812
59679W        W32104  39.620   4.421  14.406
59680W        W32105  11.879  35.810  13.150
59681W        W32106  20.048  44.416  11.973
59682W        W32107  43.714  32.021   4.413
59683W        W32108  23.523  34.132   1.926
59684W        W32109  42.875   7.379  12.133
59685W        W32110  20.279   9.173   0.614
59686W        W32111  39.354  23.694  13.900
59687W        W32112  29.639   2.427  10.611
59688W        W32113  19.264  20.686  11.642
59689W        W32114  17.864  14.696  11.831
59690W        W32115  16.632  19.540   2.261
59691W        W32116   8.444   0.822  10.407
59692W        W32117   1.275  35.591   3.264
59693W        W32118  36.764   1.767  11.421
59694W        W32119  14.331  36.498   1.248
59695W        W32120  21.704  12.365  11.108
59696W        W32121  26.137   4.696  11.674
59697W        W32122   9.360  34.423   0.915
59698W        W32123   2.236  17.170  14.288
59699W        W32124  11.280  40.540   4.866
59700W        W32125  20.189  16.647  13.764
59701W        W32126  37.811  31.374   2.672
59702W        W32127  25.688   2.237  10.748
59703W        W32128   5.694   7.795   3.636
59704W        W32129  12.464  24.883  13.109
59705W        W32130   4.443  22.833  11.196
59706W        W32131  34.912  23.147   4.099
59707W        W32132  16.165  28.720   4.058
59708W        W32133  33.314  29.136   0.788
59709W        W32134  31.921  30.971  12.353
59710W        W32135  15.873  21.029   0.917
59711W        W32136  21.094   1.761   3.275
59712W        W32137  35.117  30.861  12.528
59713W        W32138  33.881  24.790   1.722
59714W        W32139  36.042  36.780   0.325
59715W        W32140  25.703   4.902  13.413
59716W        W32141  33.528   9.641  14.299
59717W        W32142   4.386  40.935   2.071
59718W        W32143  15.638  19.763   0.456
59719W        W32144  36.589   3.341  14.764
59720W        W32145  12.684  13.287  10.607
59721W        W32146  44.775   3.149   2.212
59722W        W32147  29.049  22.700  14.064
59723W        W32148  32.621  18.443   4.269
59724W        W32149  13.149  29.945   0.712
59725W        W32150  15.767  34.139  10.778
59726W        W32151  14.768  39.448   3.426
59727W        W32152  29.428   8.383  14.352
59728W        W32153  42.749   3.199   0.909
59729W        W32154  11.266  13.784  11.835
59730W        W32155  21.726  35.152  13.936
59731W        W32156  28.671  24.118   2.634
59732W        W32157  23.742  32.532   4.843
59733W        W32158   4.752  24.364   3.290
59734W        W32159   4.909  16.936   0.953
59735W        W32160   5.184  30.199  12.943
59736W        W32161  16.844  14.738   4.453
59737W        W32162   7.684  39.538  11.656
59738W        W32163  15.718  33.405   3.615
59739W        W32164   0.870  29.712  11.618
59740W        W32165  31.951   1.907  10.373
59741W        W32166   7.472  28.356  13.998
59742W        W32167  25.974  30.607  13.061
59743W        W32168  38.910  43.251   2.376
59744W        W32169  28.139  23.586   1.022
59745W        W32170  26.918  11.246  11.819
59746W        W32171  28.631   4.064   3.819
59747W        W32172   5.417  31.066   0.996
59748W        W32173  32.978  42.464  10.737
59749W        W32174   4.432  23.754  12.916
59750W        W32175   0.438  36.725   1.238
59751W        W32176  28.878  22.312  12.495
59752W        W32177   6.797  31.008   1.014
59753W        W32178  35.860  43.983   0.451
59754W        W32179  15.752  15.976   1.708
59755W        W32180  17.120  15.275   0.914
59756W        W32181  24.883  40.539  13.453
59757W        W32182  35.364  40.083   4.688
59758W        W32183  40.071  18.535   1.445
59759W        W32184  14.786   1.940   0.272
59760W        W32185   4.179  35.521   4.400
59761W        W32186  41.459  13.797  13.994
59762W        W32187  12.812  26.993   3.849
59763W        W32188   1.064   1.281   0.761
59764W        W32189   7.783   0.921   1.561
59765W        W32190  29.185  43.851   4.218
59766W        W32191  13.334  36.380   3.219
59767W        W32192  44.822   4.057  10.413
59768W        W32193  16.024  22.516  11.658
59769W        W32194  33.892   2.449  11.465
59770W        W32195   5.811  40.339  13.010
59771W        W32196   9.225   4.212   3.210
59772W        W32197  13.523  44.164   3.754
59773W        W32198   6.350   5.968   1.927
59774W        W32199  26.487  26.175  14.241
59775W        W32200  18.078  15.361  13.554
59776W        W32201  21.338  35.100  14.916
59777W        W32202   2.260  27.629  11.102
59778W        W32203  31.524  31.668   1.938
59779W        W32204  18.223  10.375  13.957
59780W        W32205  35.312  20.470  11.087
59781W        W32206  19.686  37.611  11.470
59782W        W32207  40.783   0.481  12.867
59783W        W32208  10.562   9.715  11.090
59784W        W32209  12.770   6.923  14.773
59785W        W32210  36.603  41.358  10.984
59786W        W32211   6.820   8.969  13.608
59787W        W32212  26.150  11.067   3.145
59788W        W32213  44.827  22.162   2.854
59789W        W32214  39.226  11.728  12.015
59790W        W32215   4.402  32.851   1.930
59791W        W32216  40.834  36.989   2.251
59792W        W32217  37.423  12.332   0.409
59793W        W32218  15.188  36.978   4.688
59794W        W32219  41.211  34.504   2.191
59795W        W32220  11.943  41.739   4.997
59796W        W32221   9.201  29.850  13.809
59797W        W32222  43.441  20.970   2.821
59798W        W32223  26.021  27.927   4.405
59799W        W32224   4.382  43.052   0.939
59800W        W32225   3.205   1.475   3.340
59801W        W32226  39.893  32.406   2.662
59802W        W32227  43.121  14.303   4.104
59803W        W32228  39.985   2.031  10.738
59804W        W32229  40.434  34.558  11.668
59805W        W32230  35.559   4.260  11.000
59806W        W32231  19.753   9.699   2.164
59807W        W32232  33.362  10.816   4.438
59808W        W32233  12.768  43.432   2.835
59809W        W32234   6.327   6.250   4.304
59810W        W32235  17.171  25.515   2.364
59811W        W32236   0.304   7.719   4.129
59812W        W32237  35.665   8.092  11.925
59813W        W32238  23.045   5.945   1.733
59814W        W32239  36.428  41.462   4.298
59815W        W32240  34.002   5.472  10.879
59816W        W32241   8.691  11.378  11.976
59817W        W32242  25.237  28.203  11.637
59818W        W32243  35.402  35.372   4.143
59819W        W32244  30.493  11.358  14.039
59820W        W32245  11.420   8.573   4.953
59821W        W32246  38.427  13.703   1.885
59822W        W32247  26.564  28.467  14.110
59823W        W32248  44.993   9.637   3.239
59824W        W32249  24.630  20.546  12.831
59825W        W32250  39.802   3.334   2.350
59826W        W32251  11.451  30.069   2.125
59827W        W32252  28.592  20.119  13.526
59828W        W32253  16.719   9.972   3.169
59829W        W32254  12.508  10.073  11.065
59830W        W32255  37.096  35.938   4.183
59831W        W32256   2.410   0.981   0.531
59832W        W32257  27.996  16.983   0.416
59833W        W32258  27.189  13.675   3.174
59834W        W32259  27.891  38.480   4.533
59835W        W32260  11.821   0.484  13.738
59836W        W32261  34.555  20.220  12.960
59837W        W32262  38.053  33.395   4.121
59838W        W32263  44.904  15.444   4.123
59839W        W32264  10.616  22.768   1.742
59840W        W32265  25.808  16.270   1.835
59841W        W32266  43.592  10.167  10.638
59842W        W32267   7.892  34.549  13.598
59843W        W32268   2.281  21.207  14.587
59844W        W32269   8.370  28.572  14.781
59845W        W32270  36.082  21.745  12.474
59846W        W32271  42.313  32.356   2.917
59847W        W32272   5.164  16.045  12.128
59848W        W32273  23.175   2.909   3.720
59849W        W32274  40.218  20.690  14.903
59850W        W32275  21.265  29.861   4.055
59851W        W32276  12.198  11.698   1.706
59852W        W32277  22.646   7.593   3.835
59853W        W32278   3.536  30.112   2.796
59854W        W32279  20.989  32.103   4.785
59855W        W32280  20.337  15.879  14.855
59856W        W32281  28.110  44.853   4.250
59857W        W32282   5.324  33.846  11.433
59858W        W32283  37.124  39.606   1.884
59859W        W32284  10.173  11.218  14.820
59860W        W32285   3.570  23.725  13.533
59861W        W32286  26.101  38.265   2.075
59862W        W32287   4.420  44.513   3.242
59863W        W32288  16.549  13.081  11.430
59864W        W32289  43.573  41.769  14.954
59865W        W32290  15.149  11.269   2.128
59866W        W32291   1.712  35.066  14.997
59867W        W32292  44.973  39.453  12.910
59868W        W32293   7.792   4.690  13.352
59869W        W32294  44.595  39.874  13.139
59870W        W32295  22.256  35.142  14.976
59871W        W32296  43.559  13.274  13.763
59872W        W32297  30.156  33.098   2.245
59873W        W32298  26.958  11.863   2.206
59874W        W32299  16.598  13.064   3.754
59875W        W32300  26.406  16.073  11.896
59876W        W32301  36.125  10.811   2.427
59877W        W32302  42.312   5.233  14.261
59878W        W32303  37.157  10.162   2.340
59879W        W32304  24.945  36.998   3.286
59880W        W32305  13.544  42.851  14.367
59881W        W32306  38.028  15.828  12.391
59882W        W32307  18.419   2.434  10.472
59883W        W32308  36.453  30.659   5.192
59884W        W32309  21.087  17.912   0.234
59885W        W32310  25.398  43.369  11.404
59886W        W32311  40.988  32.094  10.215
59887W        W32312  16.204  19.273  10.695
59888W        W32313   0.737   2.767  14.998
59889W        W32314   2.749  21.110   1.925
59890W        W32315   3.648   2.629  12.768
59891W        W32316  26.564  35.770  11.845
59892W        W32317  20.165  39.266   4.055
59893W        W32318  15.554  27.382   2.421
59894W        W32319  15.236   2.320  14.381
59895W        W32320   1.520  25.225   3.783
59896W        W32321  37.957   1.356   0.246
59897W        W32322  31.128   7.413  12.163
59898W        W32323  31.944   0.831  10.438
59899W        W32324  13.447  31.669   4.559
59900W        W32325   0.956  37.377  13.066
59901W        W32326  44.287  12.304   2.373
59902W        W32327  12.558  29.924  11.049
59903W        W32328   1.179   2.212  10.829
59904W        W32329  30.765  19.003   0.770
59905W        W32330  28.974   9.308   1.161
59906W        W32331  27.959  15.076  14.827
59907W        W32332   8.898   7.911   1.464
59908W        W32333   1.477   9.814   3.136
59909W        W32334  23.943  15.607  11.905
59910W        W32335   4.308   2.704   4.091
59911W        W32336  38.062  26.163  13.304
59912W        W32337  11.975  19.312   3.815
59913W        W32338  33.533  22.098  10.386
59914W        W32339  32.641  29.089  10.875
59915W        W32340   9.259  26.932   3.211
59916W        W32341  12.637  38.306   3.396
59917W        W32342  16.777   5.256  13.283
59918W        W32343  37.797   9.417   4.945
59919W        W32344  13.295  16.103   0.896
59920W        W32345  13.120  34.202   1.905
59921W        W32346  31.207  18.688  11.946
59922W        W32347  36.919   5.128   3.660
59923W        W32348  11.129   8.184   1.790
59924W        W32349  10.656  29.701   1.602
59925W        W32350  21.695  30.867  14.311
59926W        W32351   7.676  36.628   2.377
59927W        W32352   3.515  24.046  14.934
59928W        W32353  31.580  35.557  12.907
59929W        W32354  30.338  17.682   4.228
59930W        W32355  18.609  19.495  14.842
59931W        W32356  15.279  22.626   4.595
59932W        W32357  42.877  33.497   5.260
59933W        W32358  19.653   8.997   3.175
59934W        W32359  43.871  23.623  12.449
59935W        W32360  30.020  25.599   4.652
59936W        W32361  19.488  16.555  12.634
59937W        W32362  13.710  12.622  12.044
59938W        W32363  19.076  34.953  13.754
59939W        W32364  33.502  22.178   4.034
59940W        W32365   7.144   9.912   0.216
59941W        W32366  33.338  12.695   4.163
59942W        W32367  22.248  19.503  13.420
59943W        W32368   0.946  33.408   2.834
59944W        W32369   5.267  24.201  12.778
59945W        W32370  20.378   8.789   0.298
59946W        W32371   9.898  30.298   0.338
59947W        W32372  34.129  38.240   4.906
59948W        W32373  27.841  33.907   9.754
59949W        W32374  39.389  13.251  13.341
59950W        W32375  27.283  32.042  10.199
59951W        W32376  10.136  14.053   4.670
59952W        W32377  26.663   8.237  10.483
59953W        W32378  22.016   6.379   1.116
59954W        W32379   0.285  43.881   4.610
59955W        W32380  16.381  35.677  14.028
59956W        W32381  14.523   4.383   2.694
59957W        W32382   5.793   3.171   2.709
59958W        W32383   5.323  36.523  10.411
59959W        W32384   8.116   7.631  11.092
59960W        W32385  43.281  20.262   0.277
59961W        W32386  36.350   7.933   4.133
59962W        W32387   7.916   9.880   0.881
59963W        W32388  40.415  33.776   3.187
59964W        W32389   9.215   6.143  10.620
59965W        W32390   9.068  14.642  12.373
59966W        W32391  32.607  15.703   1.332
59967W        W32392  36.580  25.652  13.936
59968W        W32393  30.129  11.597   1.797
59969W        W32394  35.152   1.576  14.938
59970W        W32395  23.235  22.206  13.572
59971W        W32396   6.821  15.385  12.432
59972W        W32397  41.522  11.924  12.130
59973W        W32398  29.138  38.801   2.736
59974W        W32399  27.193  25.394   0.838
59975W        W32400  11.169  29.217   2.704
59976W        W32401  11.374  21.193   0.803
59977W        W32402  39.502  23.831   4.162
59978W        W32403  10.699  32.448  11.675
59979W        W32404  16.141   5.632   1.931
59980W        W32405   9.549  27.870  11.451
59981W        W32406  42.586  20.779   1.748
59982W        W32407  29.505  16.067   0.999
59983W        W32408   5.324  35.978   1.479
59984W        W32409  30.955  32.455   2.355
59985W        W32410  38.423   4.599   4.020
59986W        W32411  17.305  11.668   4.070
59987W        W32412  15.754  23.985   3.340
59988W        W32413  14.999   4.849   4.483
59989W        W32414  15.086  20.528   0.883
59990W        W32415  35.599   6.339   3.266
59991W        W32416  31.320  22.176  14.082
59992W        W32417  41.044  11.747   1.471
59993W        W32418  44.708  26.497   0.352
59994W        W32419  25.663  38.445  14.213
59995W        W32420  13.278  21.035  14.960
59996W        W32421  12.856   5.414  11.669
59997W        W32422  38.463  20.546   4.450
59998W        W32423  27.460   3.667   3.330
59999W        W32424  19.930   3.157   0.737
60000W        W32425  11.186  28.106  14.497
60001W        W32426  43.980  40.505  11.668
60002W        W32427  23.054  30.868   2.994
60003W        W32428   7.251  14.591   4.978
60004W        W32429   4.323  13.279   4.080
60005W        W32430  32.906   1.515   4.412
60006W        W32431   4.468  26.447  14.750
60007W        W32432  25.139  33.312   0.078
60008W        W32433   0.680  16.557  11.434
60009W        W32434   6.260   4.065  10.751
60010W        W32435   6.505  34.503  13.926
60011W        W32436  24.027  38.827   0.279
60012W        W32437  21.353  14.769   4.251
60013W        W32438  23.980  31.128   2.651
60014W        W32439  43.624   2.830   3.312
60015W        W32440  27.005  34.499   1.375
60016W        W32441  39.483  20.499  12.669
60017W        W32442  23.434  36.903  12.843
60018W        W32443  18.132  13.211  12.376
60019W        W32444  30.916   3.665  13.851
60020W        W32445  42.927  40.597   0.951
60021W        W32446  30.054  13.382  13.615
60022W        W32447  13.508   0.261   0.305
60023W        W32448  28.167  18.607   1.313
60024W        W32449  25.496  42.365   0.820
60025W        W32450  10.163   7.700   3.624
60026W        W32451   3.378  19.447  10.740
60027W        W32452   5.132  18.745  11.154
60028W        W32453  32.791  33.097  13.255
60029W        W32454  28.067  43.547  11.374
60030W        W32455   6.764  33.386  13.627
60031W        W32456  30.223  41.603  13.439
60032W        W32457   3.066  11.288  10.276
60033W        W32458  12.669   9.897  11.523
60034W        W32459  10.170  24.216  11.345
60035W        W32460  15.121  26.188   3.278
60036W        W32461  37.337  18.551  14.817
60037W        W32462  20.987  16.549   3.707
60038W        W32463   9.218  11.301   3.771
60039W        W32464  38.383  12.846   3.770
60040W        W32465  13.240   0.601  10.638
60041W        W32466  15.567  19.795  12.165
60042W        W32467  18.549  34.504  14.438
60043W        W32468  42.840  15.101  13.363
60044W        W32469  11.632  44.572   1.392
60045W        W32470   8.850  17.005  12.453
60046W        W32471  34.556  33.401   1.402
60047W        W32472  25.696  43.959   0.787
60048W        W32473  37.882  19.222  11.058
60049W        W32474  21.083  32.213  14.954
60050W        W32475  28.527  42.302   3.553
60051W        W32476  29.128   0.448   0.346
60052W        W32477  35.021  14.369   2.381
60053W        W32478  35.558  35.020   3.406
60054W        W32479  33.214  17.831   0.538
60055W        W32480  35.185  23.780  12.971
60056W        W32481  30.427  19.759  10.624
60057W        W32482   7.795  11.714   0.931
60058W        W32483  10.926   2.953  14.267
60059W        W32484   1.794  37.776   2.260
60060W        W32485  30.038  15.902   4.877
60061W        W32486   9.692  34.818  12.619
60062W        W32487   5.408  14.828  12.394
60063W        W32488   3.555   1.784   0.317
60064W        W32489  17.789   9.881  12.967
60065W        W32490  38.391  21.735  14.317
60066W        W32491  15.574  16.771   0.351
60067W        W32492   3.695  11.236  12.521
60068W        W32493  28.314  43.604  13.080
60069W        W32494  36.506  22.293  12.390
60070W        W32495  33.554  16.516  12.117
60071W        W32496  12.160  20.772  12.837
60072W        W32497  15.211  41.109   3.271
60073W        W32498   2.863  39.863   2.911
60074W        W32499  27.928   1.318  14.050
60075W        W32500  33.321  23.732  14.323
60076W        W32501   5.234  24.851   5.002
60077W        W32502   2.209  13.189   1.492
60078W        W32503   0.547  40.920   2.928
60079W        W32504  21.974  19.145  14.327
60080W        W32505  36.777  13.787   2.649
60081W        W32506   6.069   9.597   3.453
60082W        W32507  21.686  29.025   4.142
60083W        W32508  10.209   7.225   2.295
60084W        W32509  41.861  35.229  12.355
60085W        W32510   9.011  12.574   2.921
60086W        W32511   5.799  20.051  11.491
60087W        W32512   2.728  33.628  10.906
60088W        W32513  10.358  30.392   2.719
60089W        W32514  20.992  16.373  12.488
60090W        W32515  42.204  26.608  12.510
60091W        W32516  11.901   3.767  14.972
60092W        W32517   1.904   7.339   2.610
60093W        W32518  17.549  27.165  14.332
60094W        W32519  22.453   2.414   3.035
60095W        W32520  17.171  30.550  10.794
60096W        W32521  38.024   9.695   2.100
60097W        W32522  23.641  27.760  13.782
60098W        W32523  39.440  27.910   1.951
60099W        W32524  19.688  13.034   4.987
60100W        W32525  40.624   1.180  11.296
60101W        W32526  36.070  12.941  14.037
60102W        W32527  22.534  14.262   4.610
60103W        W32528  32.430  16.921  12.924
60104W        W32529  22.199   5.184   4.633
60105W        W32530  13.231  28.704  11.554
60106W        W32531  35.172  18.074   3.220
60107W        W32532  12.214  41.400  14.492
60108W        W32533  32.317  21.120   2.646
60109W        W32534   6.190  35.472   4.954
60110W        W32535  17.318  29.700  12.552
60111W        W32536  16.113  31.200   4.190
60112W        W32537   6.853  23.141   4.506
60113W        W32538  32.943  24.515   0.796
60114W        W32539  32.845   2.625   0.266
60115W        W32540   9.046  15.185  12.258
60116W        W32541  10.941  29.677  14.841
60117W        W32542   3.200  32.427   3.755
60118W        W32543  18.020  24.250   4.181
60119W        W32544  10.322  24.688   3.688
60120W        W32545   5.020  19.525  11.570
60121W        W32546  38.164   0.301   0.265
60122W        W32547   9.882  34.846   1.847
60123W        W32548  31.612  36.613  12.075
60124W        W32549   9.648   8.424  13.974
60125W        W32550  39.278  32.842  11.072
60126W        W32551  43.272   7.854   2.227
60127W        W32552   7.915   7.147  11.111
60128W        W32553  30.629  22.197   1.180
60129W        W32554  36.993  33.605  10.604
60130W        W32555  27.186  40.938  10.712
60131W        W32556   1.995   9.594   1.403
60132W        W32557  32.264   4.604   4.733
60133W        W32558  14.237   0.997   1.351
60134W        W32559  30.664  42.355  13.598
60135W        W32560  27.960  26.945   4.127
60136W        W32561  10.344  29.453  14.461
60137W        W32562  36.727  26.039  12.402
60138W        W32563   8.348  34.550  13.860
60139W        W32564  27.439   4.558  11.434
60140W        W32565   7.055  13.597  10.846
60141W        W32566  12.233   6.651   2.121
60142W        W32567  30.071  25.761   2.670
60143W        W32568  30.912  40.952   2.384
60144W        W32569  28.478   8.700   1.999
60145W        W32570  16.157  41.847  10.681
60146W        W32571  29.517   3.009   2.696
60147W        W32572  22.836  38.832   2.266
60148W        W32573  19.299  18.752  10.576
60149W        W32574  40.288  18.006   0.444
60150W        W32575  33.783   6.517   1.787
60151W        W32576  15.079  37.318   3.749
60152W        W32577   8.638  23.473   0.509
60153W        W32578  40.083  41.507  11.388
60154W        W32579  29.211  26.229  10.695
60155W        W32580  43.837  33.523  10.698
60156W        W32581  39.491  27.865  11.815
60157W        W32582  43.279  26.289  12.433
60158W        W32583  28.386  20.933   2.614
60159W        W32584  39.888  14.278  10.494
60160W        W32585  20.965  33.295   2.799
60161W        W32586  13.297  13.196   2.293
60162W        W32587   8.498  22.870  12.306
60163W        W32588  18.599  17.140   2.956
60164W        W32589   2.385   8.182  10.806
60165W        W32590  35.574   0.806   2.430
60166W        W32591  34.463  43.354  10.629
60167W        W32592  33.048  12.195   1.483
60168W        W32593  15.767   5.992   2.682
60169W        W32594  16.432   7.763   4.420
60170W        W32595   8.679  20.434   1.572
60171W        W32596  43.992  35.138  12.322
60172W        W32597  18.087  12.774   4.678
60173W        W32598   8.105   2.337   3.305
60174W        W32599   3.228  15.086  10.822
60175W        W32600   3.307   7.328  11.198
60176W        W32601  34.895  23.527  12.557
60177W        W32602  33.502  16.999   4.681
60178W        W32603  38.122  27.942  11.198
60179W        W32604  35.273  41.108   3.728
60180W        W32605  43.743  25.877  12.927
60181W        W32606  27.397  43.137   4.090
60182W        W32607  44.869   4.992   0.479
60183W        W32608  43.027  17.790  14.041
60184W        W32609   6.141  38.669  14.362
60185W        W32610  32.005  23.684  11.954
60186W        W32611   3.930   4.931  12.890
60187W        W32612  12.837  44.036  11.133
60188W        W32613  29.244  40.450  10.608
60189W        W32614   6.403  32.357  13.372
60190W        W32615  35.057  40.308  14.479
60191W        W32616  15.885  35.054   0.940
60192W        W32617   4.146  26.223  14.385
60193W        W32618  43.494  40.043   1.605
60194W        W32619  39.930  20.540  11.396
60195W        W32620  44.653  26.114  10.076
60196W        W32621  20.108  39.236   3.243
60197W        W32622  41.963  44.808   9.391
60198W        W32623  40.850   1.693  13.538
60199W        W32624  31.964  32.554  12.414
60200W        W32625  15.648  40.909   3.387
60201W        W32626  13.412  37.918   4.345
60202W        W32627  40.971   6.164   1.388
60203W        W32628  39.781   9.158  11.106
60204W        W32629  38.038   9.184  10.626
60205W        W32630  36.472   4.413   4.403
60206W        W32631  31.453  39.495  11.525
60207W        W32632  36.983  24.512   0.489
60208W        W32633  27.074  21.055   5.024
60209W        W32634   4.420  40.746   1.601
60210W        W32635  12.422   9.873  12.595
60211W        W32636  28.639  29.726   2.674
60212W        W32637  36.811  28.364   4.099
60213W        W32638  16.862  10.609  12.643
60214W        W32639   3.677   9.452   0.754
60215W        W32640  26.929  19.821   1.830
60216W        W32641  29.675   1.476  11.569
60217W        W32642  12.703  18.075  11.938
60218W        W32643  42.001  30.448   1.231
60219W        W32644  26.487  22.737   1.838
60220W        W32645  24.082  26.539  12.202
60221W        W32646  24.357  10.485  10.665
60222W        W32647  13.352  31.071  10.742
60223W        W32648  17.714   6.665   1.278
60224W        W32649  31.413  32.385   4.409
60225W        W32650  23.549  24.438   3.182
60226W        W32651   9.562  21.339  12.412
60227W        W32652   8.369  22.208   4.642
60228W        W32653  29.423   9.704  14.494
60229W        W32654  22.411  22.089   1.154
60230W        W32655   2.108  18.112   1.903
60231W        W32656  29.794  10.595   1.005
60232W        W32657   0.953  38.042  13.630
60233W        W32658  31.650   0.719  14.446
60234W        W32659   7.281  12.896   0.839
60235W        W32660  37.421  42.862   4.593
60236W        W32661  40.990   0.509   3.704
60237W        W32662  21.233   9.647  12.591
60238W        W32663  29.628  10.329  12.784
60239W        W32664  29.767  30.487   4.271
60240W        W32665  40.022  41.449  10.739
60241W        W32666  26.981   6.429   2.815
60242W        W32667  37.888  15.370  14.931
60243W        W32668  22.047  21.601   0.503
60244W        W32669  32.898  30.712  10.695
60245W        W32670   8.601  22.755  10.806
60246W        W32671  12.263  22.033  12.571
60247W        W32672  27.413   6.277  12.059
60248W        W32673   6.213  16.751   3.297
60249W        W32674  11.634  41.409   4.745
60250W        W32675  34.368   2.571   0.318
60251W        W32676  39.735  37.854  12.338
60252W        W32677  20.370  35.435   5.058
60253W        W32678  44.091  33.334  11.123
60254W        W32679  11.844  28.612  12.525
60255W        W32680  15.838   2.066   4.171
60256W        W32681  31.541   0.779   4.234
60257W        W32682  34.568  15.998   4.174
60258W        W32683  43.293  11.326   2.230
60259W        W32684   5.551  28.442  14.359
60260W        W32685   2.833   9.728  12.097
60261W        W32686  24.537  35.818  10.768
60262W        W32687  25.968  32.097  11.491
60263W        W32688  26.835  30.628  12.099
60264W        W32689  22.009  43.840  11.958
60265W        W32690  36.001  25.513   3.355
60266W        W32691  43.152   6.592  13.013
60267W        W32692   8.864  19.251   0.921
60268W        W32693  11.813  15.555  14.228
60269W        W32694  43.400  38.342  13.134
60270W        W32695  38.116  13.601  10.627
60271W        W32696   9.320  22.874  11.665
60272W        W32697  40.037   3.951  11.797
60273W        W32698  18.271  21.768   0.264
60274W        W32699   7.287  30.043   3.260
60275W        W32700  13.866  13.773   3.763
60276W        W32701  33.719  27.159  12.996
60277W        W32702   6.004  39.392  14.177
60278W        W32703  36.833  19.530  12.571
60279W        W32704   7.252   1.066  13.882
60280W        W32705  19.622  19.579   3.859
60281W        W32706  15.048   8.344   1.359
60282W        W32707  17.266  15.078  10.709
60283W        W32708  20.950   9.222  12.512
60284W        W32709  27.955  11.723   4.176
60285W        W32710  26.536   3.946  14.312
60286W        W32711   2.821  16.848  13.441
60287W        W32712  36.951  14.711  12.675
60288W        W32713   8.750  41.798   1.974
60289W        W32714  17.332   2.845  13.165
60290W        W32715  31.108  11.674   3.186
60291W        W32716  11.334  26.351  11.602
60292W        W32717  39.358   5.418  12.942
60293W        W32718  22.044   1.809   2.362
60294W        W32719  13.690  38.970  13.950
60295W        W32720  33.481   4.747   1.224
60296W        W32721   0.382   5.377  13.895
60297W        W32722   0.220  37.360  10.718
60298W        W32723  12.749  27.630  14.982
60299W        W32724  19.057  28.537  11.836
60300W        W32725  20.921   2.166   0.063
60301W        W32726  23.743  40.049   3.181
60302W        W32727  23.256  12.085   0.454
60303W        W32728   9.434  28.767  11.040
60304W        W32729  36.120  38.782   2.403
60305W        W32730  13.415  10.804   2.717
60306W        W32731  32.370   8.869  11.625
60307W        W32732  14.731  38.973  11.274
60308W        W32733  42.254  34.993  14.378
60309W        W32734  18.302   1.354  14.006
60310W        W32735   4.769  17.745   4.611
60311W        W32736   6.457  32.395   2.431
60312W        W32737  33.008  42.572   1.247
60313W        W32738  19.462  38.883  13.666
60314W        W32739  17.607  16.511  14.588
60315W        W32740  23.999  44.522   3.712
60316W        W32741  32.921  19.073   3.427
60317W        W32742   4.044  44.313  13.088
60318W        W32743  23.103  34.685  13.273
60319W        W32744  22.284  30.654   1.439
60320W        W32745  40.545  30.476   3.159
60321W        W32746  36.411   5.856  11.423
60322W        W32747  39.437  31.164  14.900
60323W        W32748  37.909  12.502   0.289
60324W        W32749  40.019   7.332   2.763
60325W        W32750  25.236   7.115   0.202
60326W        W32751   2.641  42.466  11.929
60327W        W32752  35.494   1.754  11.537
60328W        W32753  43.080  12.132  10.955
60329W        W32754   3.290  26.761  11.242
60330W        W32755  16.721  35.126   2.179
60331W        W32756  14.138   1.424   3.727
60332W        W32757  30.916  23.635   1.944
60333W        W32758  10.452  28.933   1.318
60334W        W32759  37.938  17.611   4.157
60335W        W32760  21.226   2.842  11.763
60336W        W32761  34.673  43.326  12.961
60337W        W32762  33.445  18.306  12.530
60338W        W32763  37.123  35.567  10.690
60339W        W32764  34.938  34.200   2.347
60340W        W32765  32.289  23.907   4.527
60341W        W32766  41.715  20.221  12.812
60342W        W32767  35.518  14.453   3.685
60343W        W32768   2.279  16.690   4.206
60344W        W32769  32.171  25.078  14.305
60345W        W32770  42.614  25.630  13.949
60346W        W32771  18.828  12.180  12.991
60347W        W32772  43.800  16.046   2.200
60348W        W32773  33.578  24.954   0.959
60349W        W32774   6.626  16.619  12.112
60350W        W32775  20.620   5.375  12.480
60351W        W32776  25.703  13.082   0.996
60352W        W32777  35.560  18.688   2.930
60353W        W32778  18.526  25.050  13.003
60354W        W32779  16.542  16.836  10.676
60355W        W32780   5.945  21.486  12.022
60356W        W32781  44.807  29.351  12.651
60357W        W32782  33.652   8.387  12.984
60358W        W32783  25.071   8.185   1.987
60359W        W32784  14.158  17.110   1.295
60360W        W32785  33.284  34.544   0.829
60361W        W32786  21.983   6.177   3.637
60362W        W32787  33.351  10.124  13.163
60363W        W32788   5.794  15.972  12.020
60364W        W32789  25.866   5.474  13.906
60365W        W32790  25.519  37.924  12.494
60366W        W32791  41.769  25.157  14.446
60367W        W32792  13.855  22.680  14.375
60368W        W32793  43.785  17.528  11.651
60369W        W32794  29.346   1.600   1.467
60370W        W32795  43.382   3.901  12.233
60371W        W32796  10.538  30.635   4.632
60372W        W32797   4.789   5.141  11.206
60373W        W32798  22.337  16.287   3.737
60374W        W32799  42.752  23.994  11.992
60375W        W32800   3.702   3.443  14.423
60376W        W32801   3.440   4.793  11.547
60377W        W32802  34.910  27.657  14.868
60378W        W32803  11.253  19.782  13.831
60379W        W32804  39.056   1.914  13.821
60380W        W32805  27.116   0.768   0.725
60381W        W32806  19.582   4.029  11.356
60382W        W32807  18.713  44.538  14.067
60383W        W32808  10.381   4.010   4.406
60384W        W32809  24.193  41.201  13.377
60385W        W32810  22.474   1.465   3.304
60386W        W32811  16.213  33.519  14.998
60387W        W32812  32.995  26.050   2.881
60388W        W32813   4.908  26.275   2.348
60389W        W32814   6.394  41.605   2.808
60390W        W32815  21.747   3.252  11.049
60391W        W32816  34.340   4.699  11.493
60392W        W32817  18.078   7.384  12.029
60393W        W32818   4.905  14.767   3.426
60394W        W32819  25.225  29.952  12.953
60395W        W32820   2.551   1.319   2.770
60396W        W32821  42.038  16.546   3.568
60397W        W32822  26.188  37.957   4.454
60398W        W32823   2.945  13.276   3.075
60399W        W32824  28.071   3.765  12.055
60400W        W32825   4.361   5.276  12.891
60401W        W32826   4.901  36.472  13.909
60402W        W32827  30.348   8.323   0.727
60403W        W32828  17.268  25.113   0.012
60404W        W32829   4.849  16.922   0.012
60405W        W32830  24.405   2.125  12.514
60406W        W32831  34.000   6.025   1.776
60407W        W32832  38.818  36.211  13.924
60408W        W32833  31.150  33.613  12.569
60409W        W32834  40.232  17.767   1.722
60410W        W32835  33.954   5.435  12.389
60411W        W32836  24.050   0.522  14.254
60412W        W32837  34.935  18.506   1.342
60413W        W32838  44.512  25.203   4.549
60414W        W32839  14.781  37.331   4.684
60415W        W32840  30.698  19.994  11.008
60416W        W32841  43.520  31.066  14.441
60417W        W32842  15.285  23.524  10.270
60418W        W32843  14.289   6.664   3.064
60419W        W32844  42.796  28.242   1.885
60420W        W32845   9.557  31.147  12.460
60421W        W32846   9.589  42.076  11.217
60422W        W32847   0.620  18.663   2.399
60423W        W32848  16.588  28.999   1.404
60424W        W32849   0.507  13.596  12.622
60425W        W32850   8.235  27.612   1.395
60426W        W32851  31.324  11.641  11.991
60427W        W32852  13.928  39.354   1.191
60428W        W32853  19.164  35.418   0.039
60429W        W32854  12.157   9.328  12.650
60430W        W32855  25.222  31.087  12.989
60431W        W32856  24.027  41.416   5.187
60432W        W32857  10.851   1.765  12.675
60433W        W32858  35.445  41.316   3.211
60434W        W32859  43.606   5.966   3.336
60435W        W32860  34.952  40.523   2.712
60436W        W32861   1.157  11.794  12.859
60437W        W32862   5.122   5.699   0.835
60438W        W32863  40.478  34.451   3.805
60439W        W32864  16.245  28.617   1.638
60440W        W32865  24.400  24.066   0.732
60441W        W32866  42.853  25.273  11.077
60442W        W32867  33.267  25.781  12.894
60443W        W32868  24.307  33.482   1.760
60444W        W32869  35.920  10.912   4.602
60445W        W32870  23.511  43.560  13.105
60446W        W32871  39.736   0.752  12.059
60447W        W32872  27.537  27.721  12.048
60448W        W32873  23.800   5.963  12.104
60449W        W32874  11.585  20.961   2.184
60450W        W32875  14.237  32.078  11.105
60451W        W32876  37.813   8.436   0.784
60452W        W32877   0.468  28.987   0.957
60453W        W32878  40.606  12.763  12.618
60454W        W32879  14.703  30.343   0.379
60455W        W32880  17.621  14.077  14.460
60456W        W32881  14.651  12.201   3.427
60457W        W32882  33.091  12.543   2.291
60458W        W32883  10.135  32.976   3.649
60459W        W32884  30.435  29.657   0.719
60460W        W32885  10.201  10.309  12.642
60461W        W32886   4.604  41.736  13.301
60462W        W32887  40.804   2.853   2.940
60463W        W32888   5.428  10.861   2.832
60464W        W32889  33.640   7.311   4.839
60465W        W32890  10.873   0.867   0.986
60466W        W32891  28.265  26.298  12.962
60467W        W32892  40.835   9.445   0.887
60468W        W32893   1.441  21.094   3.554
60469W        W32894  15.721   7.415  12.526
60470W        W32895  17.295  44.882  14.053
60471W        W32896  37.671  28.318  13.523
60472W        W32897  14.408  11.909   0.881
60473W        W32898  30.146  28.880  13.052
60474W        W32899  24.010  42.463   4.489
60475W        W32900  38.812   1.849  11.881
60476W        W32901  43.830  20.197   0.040
60477W        W32902   8.681  16.699   1.745
60478W        W32903  39.003  18.773   4.230
60479W        W32904  29.444  32.595   5.437
60480W        W32905  38.903  16.071  10.709
60481W        W32906  44.310  34.036   1.700
60482W        W32907  20.424  20.458   4.104
60483W        W32908  23.142  16.054  12.573
60484W        W32909  38.183  23.228  11.908
60485W        W32910   6.132  35.865   4.585
60486W        W32911  36.999  35.998  10.917
60487W        W32912  11.805  31.545  11.844
60488W        W32913  16.133  14.590  10.718
60489W        W32914  17.661  19.450  13.949
60490W        W32915  41.910   4.438   2.311
60491W        W32916  37.538   8.479   4.893
60492W        W32917  37.987  16.603   3.303
60493W        W32918  26.862  20.209   2.161
60494W        W32919  25.614  31.996  14.907
60495W        W32920  24.489  43.116   2.160
60496W        W32921  26.437  33.918   3.186
60497W        W32922   8.372  44.025   3.649
60498W        W32923   1.315   0.526  13.331
60499W        W32924   7.700  28.698   0.293
60500W        W32925  31.546   5.911   0.930
60501W        W32926  31.137   3.974  11.671
60502W        W32927   8.474  26.557  13.881
60503W        W32928   2.801  36.349  14.511
60504W        W32929   5.229  26.598  12.545
60505W        W32930  22.587  30.406   1.112
60506W        W32931  15.293   1.370  10.436
60507W        W32932  13.601  40.536  12.935
60508W        W32933  28.332  25.540  14.046
60509W        W32934  35.782  17.413   5.170
60510W        W32935  20.571   7.687  14.984
60511W        W32936  26.076  28.085  11.926
60512W        W32937  33.120  19.641  13.563
60513W        W32938   1.746  32.573  12.982
60514W        W32939   5.444   5.413  13.496
60515W        W32940  23.547  34.538   3.434
60516W        W32941  30.341  12.414   1.351
60517W        W32942  39.668  37.914   3.032
60518W        W32943   1.003  20.055   3.588
60519W        W32944  15.376  21.535   4.212
60520W        W32945  19.311  38.859   0.780
60521W        W32946  17.092  20.717  11.935
60522W        W32947  42.945  34.958  11.379
60523W        W32948  36.166  23.441   5.431
60524W        W32949   4.207  34.550  13.504
60525W        W32950  20.692  16.139   3.153
60526W        W32951  11.342  22.268  11.700
60527W        W32952  30.538  19.080  14.419
60528W        W32953  35.137  18.493   9.902
60529W        W32954  17.247  32.097   0.261
60530W        W32955  44.792  13.990  12.863
60531W        W32956  12.241  30.920  12.989
60532W        W32957  37.353  30.907  13.363
60533W        W32958  28.023   7.913   2.476
60534W        W32959  17.221  18.068  11.617
60535W        W32960  30.369   2.465   1.491
60536W        W32961  44.421  18.380   2.481
60537W        W32962  22.041  33.519   0.297
60538W        W32963  32.562   9.678  13.049
60539W        W32964   3.894   3.259  11.578
60540W        W32965   8.464   9.841  13.408
60541W        W32966  42.059  38.438  12.321
60542W        W32967  14.663  36.027   1.761
60543W        W32968  39.977   3.912   1.227
60544W        W32969  12.312  16.368  11.362
60545W        W32970  15.658  11.193   2.320
60546W        W32971  25.135   1.747  12.932
60547W        W32972  34.015  30.095   3.713
60548W        W32973  27.456  19.820   0.552
60549W        W32974  37.897  28.460  11.968
60550W        W32975  33.416  18.204   0.206
60551W        W32976  19.629  35.472   2.449
60552W        W32977  34.859  33.895   3.678
60553W        W32978  37.062  18.149  11.253
60554W        W32979  25.264  38.899   3.185
60555W        W32980   4.308  44.664   0.768
60556W        W32981  19.560  22.741  14.527
60557W        W32982   8.174  18.529  12.242
60558W        W32983  44.847  44.803   3.266
60559W        W32984  27.139  33.742  14.898
60560W        W32985  31.377  21.249   2.686
60561W        W32986  16.282   4.209  14.365
60562W        W32987  21.674  31.557  12.109
60563W        W32988  19.834   2.785  11.591
60564W        W32989   8.457  18.673   4.672
60565W        W32990   0.922  44.640   3.266
60566W        W32991  25.225  24.942  10.504
60567W        W32992  26.578  40.505   3.750
60568W        W32993  34.465   8.442   1.976
60569W        W32994  29.665  25.270  10.784
60570W        W32995   2.816  28.671  10.626
60571W        W32996  41.138  13.111  13.692
60572W        W32997  42.241   3.695   2.895
60573W        W32998  28.922   3.833   0.250
60574W        W32999   7.920  18.311  10.459
60575W        W33000  14.505  28.507  12.342
60576W        W33001   4.913  25.516  13.520
60577W        W33002  31.658  36.594   2.394
60578W        W33003  41.837   9.865  11.590
60579W        W33004  36.000  16.249   2.488
60580W        W33005  14.066   3.256  13.984
60581W        W33006   3.667  24.182  10.683
60582W        W33007   3.371  19.549  14.584
60583W        W33008  21.852  38.170  12.203
60584W        W33009  42.033  13.902  13.087
60585W        W33010  16.753  29.645   2.784
60586W        W33011  18.942  36.048  11.193
60587W        W33012  30.562  27.922   0.354
60588W        W33013   7.393  42.522   0.459
60589W        W33014  43.247  17.641   0.273
60590W        W33015  22.733   5.813   0.155
60591W        W33016  34.438  37.830   2.706
60592W        W33017   0.564  26.458   1.808
60593W        W33018  34.666  34.092   0.725
60594W        W33019   8.793  19.074   4.566
60595W        W33020  38.362  16.888  13.612
60596W        W33021  31.573  19.768  10.225
60597W        W33022  42.493  26.108   4.813
60598W        W33023  31.678  10.242   4.746
60599W        W33024   1.896  27.901   1.664
60600W        W33025   8.754  27.154   0.866
60601W        W33026   3.949   8.911   4.290
60602W        W33027  29.892  30.924  13.781
60603W        W33028  36.806  22.663  11.018
60604W        W33029  24.607   5.623  14.565
60605W        W33030  24.732  25.459  13.429
60606W        W33031  18.210  33.301   1.599
60607W        W33032  32.193  23.128   4.293
60608W        W33033   5.168  43.472   2.778
60609W        W33034  41.356   3.844   1.880
60610W        W33035  30.009  16.473   2.019
60611W        W33036  38.980  31.748   1.266
60612W        W33037  42.998  41.294  11.475
60613W        W33038  38.671   9.287   2.423
60614W        W33039  44.836  29.706   3.904
60615W        W33040  22.262  12.041   0.271
60616W        W33041  40.562   4.305   3.209
60617W        W33042  27.738   9.402   1.850
60618W        W33043  29.147   5.294   3.731
60619W        W33044   1.755  12.204   2.337
60620W        W33045   7.454  17.089   2.714
60621W        W33046  10.187   8.662   0.371
60622W        W33047  20.210  11.739   2.798
60623W        W33048  21.492  33.217   2.899
60624W        W33049   6.802   4.451   1.689
60625W        W33050  29.729  19.614  12.900
60626W        W33051  33.877  31.899   3.116
60627W        W33052  34.252   4.516  11.995
60628W        W33053  38.406  38.453  10.648
60629W        W33054   0.379  32.365  13.047
60630W        W33055  44.324  22.610   0.410
60631W        W33056  39.318   4.740   3.527
60632W        W33057  30.972  42.871   2.289
60633W        W33058   9.069  23.524  10.717
60634W        W33059  38.396  29.166   1.401
60635W        W33060  10.728  42.398   2.310
60636W        W33061  17.841   9.802  11.519
60637W        W33062  31.521  16.264   5.537
60638W        W33063  42.883  41.202   2.596
60639W        W33064  16.899  31.162   0.511
60640W        W33065  17.603   7.575  14.077
60641W        W33066   7.761  16.210   3.570
60642W        W33067  22.656  18.291   4.797
60643W        W33068   0.085   3.281  11.031
60644W        W33069  37.322  33.454  13.953
60645W        W33070  23.736   8.216   4.550
60646W        W33071  43.218  21.580  11.909
60647W        W33072  14.639  43.549  12.387
60648W        W33073  34.873  18.032   4.536
60649W        W33074  32.586  34.502   2.812
60650W        W33075  42.348  37.073   3.707
60651W        W33076   0.707  35.549   1.884
60652W        W33077  15.910  43.259  11.499
60653W        W33078  37.355   0.702  13.013
60654W        W33079  21.935   0.588  13.887
60655W        W33080  36.324   2.002  13.427
60656W        W33081  39.706  10.889   2.806
60657W        W33082   9.606  39.048  12.100
60658W        W33083  38.640  34.263   1.871
60659W        W33084  17.590  29.913   2.865
60660W        W33085  18.833   5.696  10.601
60661W        W33086  43.850  16.704   4.569
60662W        W33087  43.156  18.943   0.027
60663W        W33088  35.961  26.069   2.283
60664W        W33089   5.211  32.044  14.768
60665W        W33090  40.936  14.720   1.303
60666W        W33091  16.582  36.999   4.829
60667W        W33092   2.790   6.849  11.955
60668W        W33093  18.274   3.786  12.780
60669W        W33094  20.871  10.234  11.446
60670W        W33095  10.234  35.994   4.813
60671W        W33096  38.830  35.579   5.099
60672W        W33097  20.812  38.980  12.325
60673W        W33098  36.294  31.918  14.337
60674W        W33099   8.445  39.524   0.085
60675W        W33100   8.803  33.130   4.168
60676W        W33101  37.890  43.472  11.427
60677W        W33102  27.239   9.222  14.372
60678W        W33103  34.004  20.093  14.314
60679W        W33104  24.644  20.261  11.990
60680W        W33105   8.305   5.546  12.670
60681W        W33106  30.929  36.807  14.806
60682W        W33107  30.691  23.191   2.158
60683W        W33108   3.969  21.280   2.422
60684W        W33109   2.362  18.653  10.905
60685W        W33110   9.215  38.560   2.672
60686W        W33111  39.805  38.539   3.667
60687W        W33112   9.171  12.273   2.172
60688W        W33113  41.311  28.912  10.736
60689W        W33114  15.505  29.580   4.664
60690W        W33115  12.595  23.142   1.257
60691W        W33116   0.862  11.292   0.690
60692W        W33117  26.242  38.320  13.400
60693W        W33118  33.786  22.117   9.921
60694W        W33119   3.297  26.292  12.172
60695W        W33120  20.703  35.109  13.025
60696W        W33121  39.072  12.428  14.174
60697W        W33122  29.034  24.436   1.719
60698W        W33123  11.946  35.919  11.096
60699W        W33124   1.832  17.040  12.115
60700W        W33125   5.268   5.391   0.186
60701W        W33126  20.119  42.458  11.499
60702W        W33127   0.115  12.301  11.582
60703W        W33128  12.923  23.212   0.864
60704W        W33129  22.422  28.867   2.416
60705W        W33130  27.203  40.986  11.230
60706W        W33131   5.652  30.486  11.615
60707W        W33132  20.698  42.340   0.231
60708W        W33133   1.986  34.215  14.804
60709W        W33134   8.680  31.987  13.911
60710W        W33135  36.039  31.404  11.925
60711W        W33136  21.619  38.026   4.782
60712W        W33137  44.976  18.178  12.557
60713W        W33138  26.089  35.777  11.572
60714W        W33139   7.117  44.943   2.758
60715W        W33140  20.434  42.278  14.707
60716W        W33141  14.289  19.786  11.613
60717W        W33142  15.824  16.318  10.698
60718W        W33143  37.993   0.183  10.554
60719W        W33144   6.816  28.111  10.337
60720W        W33145  18.784   1.440  12.930
60721W        W33146   9.277  15.995   0.896
60722W        W33147  12.081  37.882   2.939
60723W        W33148   4.017   6.729   0.459
60724W        W33149  26.771  26.634   2.196
60725W        W33150  19.517  40.069   2.893
60726W        W33151   9.708  36.684  11.930
60727W        W33152  28.632  42.062  13.319
60728W        W33153  44.328  40.140  14.810
60729W        W33154  10.388  19.986   4.957
60730W        W33155  12.220  12.975   1.140
60731W        W33156  23.518  39.829   0.856
60732W        W33157  44.965  40.069   2.927
60733W        W33158  12.545  10.111  13.073
60734W        W33159  12.289  39.541   3.167
60735W        W33160  17.228   8.795   4.165
60736W        W33161  14.793  35.164   4.144
60737W        W33162  22.588  43.026   1.009
60738W        W33163  34.867  29.566   4.842
60739W        W33164  35.379  15.340   1.598
60740W        W33165   1.087  32.929  11.164
60741W        W33166  39.090  26.614   3.620
60742W        W33167  37.292  43.462  14.220
60743W        W33168   5.033  40.207  13.287
60744W        W33169   4.229  32.196  11.207
60745W        W33170  10.292  34.330   1.211
60746W        W33171   5.213   4.809  10.251
60747W        W33172  26.510   9.481   3.814
60748W        W33173   1.371  19.923   0.428
60749W        W33174  44.852   1.898   0.406
60750W        W33175  28.169  14.302  13.499
60751W        W33176  43.042   3.270   4.093
60752W        W33177  12.757   7.500  12.150
60753W        W33178  35.784  38.073  12.536
60754W        W33179  38.611  32.080   1.453
60755W        W33180  16.451  11.099   0.938
60756W        W33181   2.627  21.307   4.002
60757W        W33182  43.752  14.103   4.652
60758W        W33183  33.649   9.092  11.582
60759W        W33184   4.787   6.352   2.430
60760W        W33185  31.904  32.559  10.687
60761W        W33186  37.157  43.776  12.864
60762W        W33187   9.761   4.921   2.873
60763W        W33188  37.579  22.746  12.331
60764W        W33189  44.542   7.386  14.958
60765W        W33190   4.865  10.810   1.877
60766W        W33191  44.327   3.480  13.467
60767W        W33192  42.591  35.883  12.138
60768W        W33193  38.828   2.840   4.229
60769W        W33194  37.291  31.519   3.735
60770W        W33195  15.218  41.297   2.387
60771W        W33196  20.545  10.177   2.172
60772W        W33197   2.839  38.854   2.171
60773W        W33198  43.278   3.459   1.108
60774W        W33199   7.287  14.743  11.177
60775W        W33200  11.230  13.346   3.275
60776W        W33201  38.832  23.640   3.644
60777W        W33202  34.065  13.710   1.811
60778W        W33203  44.402   2.691  10.646
60779W        W33204  34.975  27.898  13.572
60780W        W33205  25.085  17.987   3.131
60781W        W33206   2.083  44.415  11.058
60782W        W33207  16.884   2.559   4.675
60783W        W33208  43.325  20.360   4.488
60784W        W33209  42.513  36.373  11.040
60785W        W33210  19.202  34.409   3.176
60786W        W33211  17.130   2.209   4.992
60787W        W33212   2.944  43.407  11.407
60788W        W33213   7.259  30.141   3.752
60789W        W33214  26.936   4.266  14.439
60790W        W33215  15.274  32.048   3.134
60791W        W33216  44.131  31.475   2.818
60792W        W33217  38.139  19.079   1.954
60793W        W33218  27.984  19.214   3.271
60794W        W33219  11.115   3.726  12.924
60795W        W33220  44.782  21.485  11.706
60796W        W33221   7.763  18.054  11.409
60797W        W33222  44.207  16.304   1.223
60798W        W33223  29.746   9.141  13.380
60799W        W33224  14.806  44.344   3.671
60800W        W33225  40.515   0.524   0.981
60801W        W33226  23.402  38.108   0.414
60802W        W33227  23.079  40.980   4.149
60803W        W33228  36.094  38.600   2.913
60804W        W33229  27.202  27.256  13.303
60805W        W33230  25.067  20.742   1.050
60806W        W33231  37.343   7.671   3.549
60807W        W33232  19.503  20.765  13.973
60808W        W33233  33.148  13.728  12.950
60809W        W33234   2.881  42.021  12.015
60810W        W33235  28.087  20.498   1.433
60811W        W33236  28.840  12.743  12.048
60812W        W33237  31.943   5.871   1.541
60813W        W33238   9.019   3.907   2.258
60814W        W33239  27.949  13.839   3.790
60815W        W33240  41.559  17.238  11.120
60816W        W33241   4.007  30.338   1.542
60817W        W33242   7.416  29.989  12.431
60818W        W33243  40.217  37.149  12.350
60819W        W33244  31.555  23.330  13.118
60820W        W33245  11.689   7.995  11.621
60821W        W33246  42.143  41.281   3.396
60822W        W33247  17.634  13.053   3.896
60823W        W33248  17.875  29.544   3.675
60824W        W33249  15.846  20.110   0.758
60825W        W33250  10.631  39.110  10.664
60826W        W33251   5.839  33.827   4.175
60827W        W33252   1.188  22.031   2.386
60828W        W33253  14.176  12.110   1.307
60829W        W33254  30.509   5.130   3.002
60830W        W33255  21.486  14.756  11.314
60831W        W33256  10.636   2.870  14.692
60832W        W33257  20.644  36.637  12.954
60833W        W33258   5.799  18.128  11.951
60834W        W33259  22.610   3.358   0.805
60835W        W33260  23.075   9.809   4.250
60836W        W33261  22.306  42.093  11.163
60837W        W33262   2.459   3.467   0.712
60838W        W33263  36.132  14.815  10.736
60839W        W33264  41.077  16.393  13.891
60840W        W33265  30.177  25.678  13.348
60841W        W33266  33.397  13.713  14.059
60842W        W33267  15.132  41.324   1.872
60843W        W33268   2.761  15.696  12.968
60844W        W33269  36.724  29.485   2.981
60845W        W33270  20.140  32.818   4.670
60846W        W33271  25.401  14.608  13.854
60847W        W33272   0.497  10.412   2.075
60848W        W33273   1.960  25.348  11.447
60849W        W33274  32.962   9.981   4.077
60850W        W33275   9.143  35.606   3.210
60851W        W33276  37.105  41.806   3.133
60852W        W33277  37.930   5.687   3.554
60853W        W33278  28.500  17.567   3.359
60854W        W33279  39.427  32.713   2.894
60855W        W33280   9.216   8.869   1.295
60856W        W33281  21.310  11.191  10.754
60857W        W33282  38.519  13.358  14.403
60858W        W33283  10.663  32.949   3.948
60859W        W33284  36.492  11.749  10.192
60860W        W33285  42.395  37.589   1.916
60861W        W33286  38.051  30.642  13.804
60862W        W33287  22.448  22.505   4.076
60863W        W33288   9.315   6.828   4.991
60864W        W33289  34.065  42.885  12.536
60865W        W33290  34.921   7.752   5.177
60866W        W33291  27.059  39.510   2.269
60867W        W33292   8.095  30.523   3.896
60868W        W33293  32.655  31.327  11.320
60869W        W33294  43.327  22.671   3.904
60870W        W33295  17.018  36.783   3.427
60871W        W33296   8.490  16.745  12.941
60872W        W33297  39.416  43.393   3.669
60873W        W33298   3.010  31.986  14.340
60874W        W33299  27.639  23.003   1.351
60875W        W33300   3.510   5.735   0.545
60876W        W33301  21.566  39.493  14.220
60877W        W33302   6.710  12.975   3.211
60878W        W33303  27.439   8.727  10.678
60879W        W33304  35.002  41.393   2.385
60880W        W33305  19.735   4.371  14.475
60881W        W33306  10.174  41.985   1.281
60882W        W33307   4.053  29.318   2.661
60883W        W33308  40.093  10.352  13.473
60884W        W33309  22.808  33.628   1.836
60885W        W33310  38.870   1.785  14.293
60886W        W33311  26.673   0.067  14.460
60887W        W33312  40.876  38.254   4.506
60888W        W33313  20.621  13.116   1.453
60889W        W33314  43.694   7.332  10.750
60890W        W33315  31.466  31.975  11.164
60891W        W33316  11.377   7.805  10.355
60892W        W33317  43.371  39.307  10.616
60893W        W33318   6.279   5.353   4.755
60894W        W33319  29.600   1.911  14.937
60895W        W33320   3.285  14.120  12.462
60896W        W33321   2.701  38.795  12.867
60897W        W33322  31.040  21.792   3.264
60898W        W33323   5.950  35.943   5.073
60899W        W33324  37.630  14.799   4.902
60900W        W33325   2.894  15.589  11.992
60901W        W33326  15.214  15.252  14.890
60902W        W33327  26.119  11.235   4.647
60903W        W33328  20.975  35.551  14.923
60904W        W33329   8.832   3.190   9.912
60905W        W33330  20.093  21.220  13.445
60906W        W33331  14.596  20.731  11.915
60907W        W33332  26.519  23.371   4.913
60908W        W33333  39.495  40.632  10.196
60909W        W33334   8.208  10.788  14.090
60910W        W33335  21.620  40.499   1.805
60911W        W33336  17.829  27.511   0.086
60912W        W33337  36.595   2.314  14.416
60913W        W33338   8.779  39.525   1.415
60914W        W33339  27.006  28.578   3.673
60915W        W33340  17.715  11.378   0.842
60916W        W33341  33.425  21.941   4.977
60917W        W33342  44.870  26.671  13.000
60918W        W33343  31.271  24.461   3.223
60919W        W33344   0.698   1.436   1.696
60920W        W33345  39.817  23.133  13.848
60921W        W33346  41.705   7.246   1.744
60922W        W33347  32.434  10.754   3.874
60923W        W33348  39.491  43.473  14.518
60924W        W33349   0.488  31.447  13.037
60925W        W33350   4.820  11.095   1.451
60926W        W33351  24.169  12.867  14.058
60927W        W33352   5.977   7.719   4.169
60928W        W33353  18.777  35.131   4.069
60929W        W33354  19.019  40.799  11.984
60930W        W33355  14.787   7.056   4.146
60931W        W33356  35.916  22.099   3.338
60932W        W33357  33.576  39.186   1.012
60933W        W33358  26.577   2.314  11.547
60934W        W33359  32.639  41.971  10.715
60935W        W33360  43.782  40.344  14.988
60936W        W33361   1.472  31.948   4.329
60937W        W33362  11.809  33.595  14.520
60938W        W33363   0.374  26.702  13.171
60939W        W33364  39.322  16.028  12.928
60940W        W33365   2.687   9.211   4.768
60941W        W33366  43.419  32.272   0.950
60942W        W33367  43.948   4.018  10.557
60943W        W33368  31.421  41.353  14.704
60944W        W33369  23.142  17.140   3.645
60945W        W33370  15.130  28.102  12.402
60946W        W33371  38.133   0.828   2.298
60947W        W33372  40.055  29.941   0.474
60948W        W33373  27.899  10.689   4.522
60949W        W33374   4.920  42.913  11.032
60950W        W33375  24.443  17.506  14.379
60951W        W33376  31.130  14.778  12.376
60952W        W33377   1.829  22.437  10.386
60953W        W33378  43.700  25.586   1.319
60954W        W33379  41.453  22.521   4.878
60955W        W33380   4.916  38.225   0.711
60956W        W33381  41.819  24.851   3.056
60957W        W33382  19.760  18.578   0.004
60958W        W33383  22.746  41.817   1.606
60959W        W33384   0.788  39.916  11.168
60960W        W33385  21.212   1.742  12.460
60961W        W33386  34.449  10.102   4.268
60962W        W33387  42.540  20.041   2.332
60963W        W33388  33.486  28.373   0.048
60964W        W33389  10.682  34.305  11.507
60965W        W33390   6.711  40.499   3.489
60966W        W33391  23.060  28.167   0.269
60967W        W33392  36.107  33.275   0.765
60968W        W33393   4.967  26.221  13.842
60969W        W33394   7.742  14.252   3.127
60970W        W33395  17.328  19.668  12.519
60971W        W33396  44.069  35.414  13.591
60972W        W33397  22.645  24.787   3.351
60973W        W33398  32.646  18.308  10.955
60974W        W33399   5.558   1.874  13.933
60975W        W33400   9.309  26.279  13.011
60976W        W33401  20.797  12.945  12.588
60977W        W33402  16.686   3.864  12.468
60978W        W33403  26.700   9.270   3.386
60979W        W33404  39.374  10.442   2.671
60980W        W33405   1.512  14.777  10.438
60981W        W33406  21.303   0.807   2.340
60982W        W33407  37.896   2.685  10.742
60983W        W33408   0.843  13.624   1.891
60984W        W33409  27.621   9.232  10.539
60985W        W33410  10.659  19.400  14.377
60986W        W33411  28.412   4.722   2.409
60987W        W33412   7.143  23.706   2.736
60988W        W33413   0.941  11.306   3.732
60989W        W33414  39.714   6.200   3.268
60990W        W33415  33.391   1.742   4.242
60991W        W33416  10.258  41.405   1.691
60992W        W33417  44.436  39.133   0.758
60993W        W33418  11.764  21.110   3.496
60994W        W33419   7.202  35.941   1.882
60995W        W33420  29.731   8.460   5.156
60996W        W33421  37.284   2.426  12.579
60997W        W33422  31.121  34.434   0.957
60998W        W33423  18.549  11.665   0.624
60999W        W33424   2.105  26.012   1.396
61000W        W33425  14.172  22.534  13.307
61001W        W33426  29.507  16.300   1.961
61002W        W33427  15.109   0.221  12.056
61003W        W33428  14.974  22.328   9.787
61004W        W33429   5.787  18.118  11.406
61005W        W33430   6.400  34.329   4.669
61006W        W33431  33.812   2.993   0.351
61007W        W33432   9.398  44.239   2.845
61008W        W33433  44.473  35.619   1.043
61009W        W33434  27.889  12.339  11.991
61010W        W33435  12.606  29.895  14.846
61011W        W33436  40.242   3.030   3.459
61012W        W33437  11.784   6.184  11.206
61013W        W33438   3.849  34.528   0.814
61014W        W33439  15.091   6.952  11.876
61015W        W33440  18.293  35.933  11.530
61016W        W33441  34.901  28.679   3.383
61017W        W33442  14.577  30.236   4.573
61018W        W33443  29.142  27.665  14.273
61019W        W33444  40.773  31.816  14.340
61020W        W33445  32.087  35.226   1.423
61021W        W33446  20.096   9.036   3.800
61022W        W33447   6.167  16.477   3.741
61023W        W33448  33.380  33.402   2.196
61024W        W33449  37.138  35.933  13.414
61025W        W33450  29.959  35.482   4.506
61026W        W33451  19.239  43.498  14.524
61027W        W33452  18.189  33.873  11.934
61028W        W33453  19.710  39.345   1.700
61029W        W33454  25.969  26.540  11.525
61030W        W33455   7.663  42.716  13.276
61031W        W33456  23.794   7.628   2.267
61032W        W33457  34.959  38.611  14.847
61033W        W33458  37.008  23.191   4.513
61034W        W33459  28.628  13.608  13.904
61035W        W33460   9.965  15.899  13.267
61036W        W33461   1.761  37.243   2.474
61037W        W33462  16.742   8.125   4.192
61038W        W33463   5.720  36.203  10.534
61039W        W33464  23.704  36.879   1.529
61040W        W33465  12.178  16.504   1.393
61041W        W33466  42.892   4.726   3.246
61042W        W33467  12.050  44.728  13.116
61043W        W33468   9.577  15.333   2.797
61044W        W33469   9.313  38.346   0.744
61045W        W33470   4.731  32.803  12.345
61046W        W33471  44.523   0.768  12.054
61047W        W33472   2.302  32.069  10.338
61048W        W33473  16.593  43.668  10.817
61049W        W33474  43.438  43.130   4.852
61050W        W33475  39.091  43.836  14.572
61051W        W33476  19.252  30.000   2.235
61052W        W33477  26.460  34.872  12.076
61053W        W33478  16.610  26.182  11.907
61054W        W33479  18.154  29.589  10.304
61055W        W33480   7.635   9.370   2.666
61056W        W33481  43.595  11.291   0.304
61057W        W33482   7.871   8.694   1.112
61058W        W33483   9.746  22.335   4.555
61059W        W33484   6.547  36.601  10.277
61060W        W33485  35.025  16.560   1.732
61061W        W33486  39.940   5.931  11.573
61062W        W33487  26.379  12.323   4.207
61063W        W33488  25.587  44.442   0.406
61064W        W33489   0.689  34.053   2.284
61065W        W33490  14.715  25.665   1.205
61066W        W33491  32.412  37.517   3.702
61067W        W33492  11.101  30.305  12.857
61068W        W33493  16.634  13.248  12.445
61069W        W33494  33.018  36.762  14.880
61070W        W33495   9.670  38.793   2.892
61071W        W33496   5.148  35.683  12.834
61072W        W33497  34.303  12.557  13.021
61073W        W33498  44.322  11.890  11.654
61074W        W33499  38.253  15.575   0.866
61075W        W33500  14.610  36.432  10.693
61076W        W33501  36.498   6.791   0.612
61077W        W33502  32.154   9.604   3.166
61078W        W33503  42.225   7.074   0.837
61079W        W33504  31.869  13.608  14.985
61080W        W33505  17.765  24.562   2.794
61081W        W33506  43.045   3.805  13.934
61082W        W33507  33.903  12.572   1.379
61083W        W33508  37.543  31.151   1.848
61084W        W33509  33.833  41.708  12.647
61085W        W33510  10.146  27.382  12.850
61086W        W33511  23.169   2.008  11.853
61087W        W33512  23.458  11.711  13.894
61088W        W33513   7.156  27.038  12.142
61089W        W33514  42.294   4.367   1.207
61090W        W33515  12.234   4.188   2.326
61091W        W33516  21.359   4.197   2.016
61092W        W33517  35.523  33.952   3.269
61093W        W33518  34.879   1.319  14.096
61094W        W33519  24.179   0.370  14.734
61095W        W33520  26.625   6.420  13.060
61096W        W33521  15.408  31.528   3.248
61097W        W33522  33.468  41.745  10.678
61098W        W33523  21.076  34.508   2.929
61099W        W33524  37.675  34.933  14.625
61100W        W33525  42.763  27.614   2.824
61101W        W33526  13.747  28.957   2.364
61102W        W33527  11.307  40.259   1.943
61103W        W33528  33.629  19.098  13.874
61104W        W33529  29.164  10.064  13.487
61105W        W33530  44.878   6.118  14.021
61106W        W33531  44.841  12.114   2.335
61107W        W33532  33.283  20.923  12.040
61108W        W33533  21.221   0.423   0.757
61109W        W33534  37.323  11.808  11.855
61110W        W33535  31.494  12.801   1.848
61111W        W33536   0.988   0.464  12.474
61112W        W33537  18.536   8.751  12.508
61113W        W33538  13.246   4.360   4.159
61114W        W33539  38.463  42.395   9.689
61115W        W33540  40.835  36.372   1.856
61116W        W33541  31.664   9.729  11.920
61117W        W33542   7.621  28.228   3.262
61118W        W33543  16.541  12.264   3.124
61119W        W33544  28.299  44.938   3.756
61120W        W33545   0.442   6.189  11.107
61121W        W33546  27.697  35.191   3.887
61122W        W33547   2.283  31.854  13.012
61123W        W33548  22.216   6.431   3.228
61124W        W33549  27.181  40.027   1.348
61125W        W33550  40.192  44.056   5.011
61126W        W33551  20.812  12.827  14.556
61127W        W33552  10.768   0.439  10.430
61128W        W33553  40.779  17.130   2.135
61129W        W33554   4.953  14.151   4.191
61130W        W33555   7.589  26.427   0.976
61131W        W33556  40.393  28.038   9.879
61132W        W33557  11.104  10.161  13.120
61133W        W33558  10.164  23.563   4.700
61134W        W33559  23.471  36.991  10.611
61135W        W33560   3.724  17.091  12.721
61136W        W33561  23.650  44.933   2.307
61137W        W33562   3.391   9.893  11.040
61138W        W33563  36.457  36.516  11.565
61139W        W33564   0.402  43.436   2.938
61140W        W33565  15.741  14.183  11.392
61141W        W33566   8.932  10.683  13.083
61142W        W33567  34.459  18.718   4.456
61143W        W33568   8.891   7.607   2.886
61144W        W33569  11.791  22.988  12.098
61145W        W33570  40.390  40.275  12.579
61146W        W33571  34.141   6.793  13.982
61147W        W33572  10.614  35.151   1.469
61148W        W33573  30.972  13.925   1.851
61149W        W33574  35.511  10.637  13.581
61150W        W33575   7.249  21.531   4.422
61151W        W33576  24.978  23.142  10.717
61152W        W33577  26.720  43.358   3.162
61153W        W33578  32.012  10.688   0.032
61154W        W33579  26.217   7.288  11.718
61155W        W33580  41.416  23.282   0.914
61156W        W33581  20.273  43.279  11.119
61157W        W33582   5.712  38.329   2.753
61158W        W33583  34.025  36.408  14.819
61159W        W33584  28.920  20.211   2.557
61160W        W33585   3.689  14.695  14.314
61161W        W33586  31.504  31.455  11.050
61162W        W33587   7.123  11.590   4.047
61163W        W33588  35.903  31.802   4.823
61164W        W33589   1.652  15.616  12.463
61165W        W33590  15.355  34.889   1.269
61166W        W33591  31.046  42.452   0.449
61167W        W33592   7.616  33.098  13.450
61168W        W33593  40.074  14.763  12.686
61169W        W33594   3.505  34.069  10.601
61170W        W33595  33.526  17.265  10.223
61171W        W33596  36.569  39.345   3.473
61172W        W33597  28.101  25.144   0.279
61173W        W33598  18.660  19.021   0.616
61174W        W33599  37.393  15.322   2.434
61175W        W33600   3.675  16.795   1.372
61176W        W33601  13.729  39.104  12.055
61177W        W33602  11.234   3.217  12.949
61178W        W33603   8.439  11.535   3.949
61179W        W33604  16.225  25.553  11.426
61180W        W33605  22.699  40.063   3.375
61181W        W33606  23.121  28.991   4.570
61182W        W33607   0.422  42.604   1.207
61183W        W33608  35.032   2.023  11.438
61184W        W33609  11.664  42.385  12.486
61185W        W33610   5.388   0.515   4.149
61186W        W33611  21.201  17.588   4.150
61187W        W33612  15.607  41.370   4.662
61188W        W33613   6.329   5.012   5.178
61189W        W33614  29.178  30.802  12.029
61190W        W33615  42.344  35.844   2.243
61191W        W33616  40.510  38.852  14.481
61192W        W33617   4.736  31.935  14.916
61193W        W33618  30.431  23.059  12.571
61194W        W33619  21.146  32.044  10.673
61195W        W33620  41.449   0.898   3.749
61196W        W33621  23.637   9.628  11.429
61197W        W33622   1.815   7.852   1.856
61198W        W33623  16.216  14.640   3.875
61199W        W33624  13.281  17.545  12.419
61200W        W33625   3.703  22.741   0.854
61201W        W33626  21.257  14.830   1.924
61202W        W33627  30.499  43.460  11.923
61203W        W33628   7.826   3.002  11.672
61204W        W33629  20.068  30.614   4.134
61205W        W33630  11.813  17.071   1.697
61206W        W33631   9.618  12.152  13.743
61207W        W33632  11.841   5.780  13.917
61208W        W33633  27.907   9.399   4.507
61209W        W33634  20.129  28.848  13.555
61210W        W33635  11.998  40.146  14.284
61211W        W33636   0.473  38.020  12.377
61212W        W33637  22.803  14.147   4.159
61213W        W33638  16.038  10.787   0.864
61214W        W33639  40.715  16.611  12.118
61215W        W33640  32.742  28.621  13.592
61216W        W33641  22.046   1.242   4.324
61217W        W33642  36.159   2.949   1.535
61218W        W33643   3.215  42.241  12.879
61219W        W33644  35.978  39.712  10.996
61220W        W33645  15.254  15.493   3.286
61221W        W33646  22.176  25.320  13.959
61222W        W33647  20.183  21.646   4.318
61223W        W33648   3.764  42.718   4.056
61224W        W33649   3.196  27.612  13.895
61225W        W33650  14.728  23.300  11.126
61226W        W33651  40.473   1.661  11.507
61227W        W33652  38.849  40.176  13.064
61228W        W33653  38.437  32.118  12.709
61229W        W33654   4.022  11.402  10.321
61230W        W33655  31.695  36.259  11.377
61231W        W33656  41.389  43.150   0.037
61232W        W33657  23.316  30.848   3.460
61233W        W33658  25.849   6.481   1.346
61234W        W33659  36.063  28.681   2.775
61235W        W33660  10.631  37.916   0.899
61236W        W33661  26.424  41.373  12.100
61237W        W33662  21.502  40.502   0.785
61238W        W33663  17.980  18.508  12.558
61239W        W33664  21.992  35.844   1.399
61240W        W33665  37.848  32.158   0.385
61241W        W33666  25.120  43.314  13.189
61242W        W33667  43.503  39.375   2.415
61243W        W33668  31.087   8.073   2.318
61244W        W33669   7.844   6.134   1.174
61245W        W33670   9.103   5.227  12.042
61246W        W33671  36.402  22.072   1.659
61247W        W33672  23.979  36.589   1.899
61248W        W33673  42.336   8.291  14.512
61249W        W33674  32.476   9.440  12.032
61250W        W33675   1.725   6.756   4.517
61251W        W33676  20.819  42.938  13.625
61252W        W33677   8.416   5.502   4.563
61253W        W33678  24.883  28.614  11.123
61254W        W33679  21.568  27.938   4.397
61255W        W33680  24.773   5.024  14.976
61256W        W33681  36.352  32.987   3.669
61257W        W33682  18.680  41.701   0.294
61258W        W33683   8.211  31.050  12.553
61259W        W33684  36.122   8.398   3.746
61260W        W33685  28.102  19.540   1.359
61261W        W33686  28.100   0.455  10.680
61262W        W33687  20.185   2.383   2.238
61263W        W33688  26.558   5.845   0.956
61264W        W33689   7.181  31.193   2.668
61265W        W33690  37.046  43.476   2.678
61266W        W33691  14.557  18.338   2.629
61267W        W33692  44.746   7.770  11.593
61268W        W33693   4.781  34.003   0.970
61269W        W33694  28.024  40.140   4.890
61270W        W33695  32.164   7.328  12.194
61271W        W33696  12.325  30.119  14.476
61272W        W33697  25.164   5.504  11.901
61273W        W33698   2.766   1.241   4.750
61274W        W33699  21.548   7.258   2.099
61275W        W33700   2.949   1.503  14.376
61276W        W33701  34.115   3.191   0.791
61277W        W33702  13.164  22.180  12.540
61278W        W33703  19.231   0.980   0.308
61279W        W33704  10.174  37.381  11.525
61280W        W33705   0.130   1.304   2.960
61281W        W33706   5.150  29.516  11.673
61282W        W33707  14.685  39.950   4.703
61283W        W33708  16.901  17.195  14.105
61284W        W33709  10.783   6.678   9.854
61285W        W33710   7.521  39.247  10.708
61286W        W33711  34.317  38.939   0.818
61287W        W33712  16.625  24.245   4.110
61288W        W33713  34.999  36.518   1.728
61289W        W33714  12.213  12.396  13.828
61290W        W33715  16.608  36.016   0.258
61291W        W33716  10.874   9.179   1.413
61292W        W33717  27.070  30.623   2.895
61293W        W33718   2.112  43.047  10.899
61294W        W33719  20.656  18.242   3.149
61295W        W33720  10.907  23.678   4.322
61296W        W33721   6.662  27.609   1.945
61297W        W33722   3.501  18.069   2.619
61298W        W33723  38.397   9.106   0.345
61299W        W33724   4.350   0.269   1.786
61300W        W33725   9.682  12.955  13.463
61301W        W33726  43.290  36.078  14.546
61302W        W33727  39.424  21.345   0.490
61303W        W33728   8.717  29.408   4.058
61304W        W33729  42.886  40.381   1.428
61305W        W33730  22.564  44.014   4.118
61306W        W33731   3.863  39.594   1.265
61307W        W33732  35.307  28.963   1.711
61308W        W33733  19.608  18.778  11.632
61309W        W33734  29.386  17.694   4.813
61310W        W33735   0.430  44.135   4.175
61311W        W33736  24.797  27.237   3.661
61312W        W33737  27.156  20.994   4.152
61313W        W33738  13.592  38.754   3.198
61314W        W33739  23.015  30.970  13.862
61315W        W33740  32.088  42.664   1.420
61316W        W33741  13.878   6.091  11.935
61317W        W33742   7.099  19.230   1.402
61318W        W33743  38.872  11.655   3.590
61319W        W33744  20.118  21.981  14.726
61320W        W33745  24.181   7.488   3.626
61321W        W33746  36.396   3.480   0.768
61322W        W33747  31.615  34.609  13.031
61323W        W33748  21.542  13.183  11.913
61324W        W33749  41.823  15.378  11.640
61325W        W33750  34.178  36.405  13.710
61326W        W33751  14.607  18.268  14.494
61327W        W33752   4.193  43.424   3.325
61328W        W33753  21.932  10.314   4.775
61329W        W33754   3.948  16.291  12.770
61330W        W33755   9.761  17.566   2.363
61331W        W33756  27.993  28.439  13.143
61332W        W33757  18.046   7.746   3.506
61333W        W33758   3.662  39.091   0.475
61334W        W33759  19.981  21.490   0.700
61335W        W33760  26.430   0.591   2.955
61336W        W33761   4.969   8.223  14.094
61337W        W33762  32.324   5.642  14.018
61338W        W33763  44.566  26.719  11.952
61339W        W33764  30.365  27.614  13.470
61340W        W33765  29.908  10.034   1.660
61341W        W33766  36.964  16.259  14.261
61342W        W33767  44.875  28.527   0.392
61343W        W33768  24.602   9.540   1.291
61344W        W33769  18.076   3.537   0.317
61345W        W33770  43.424  43.963   3.827
61346W        W33771  34.593   2.687  12.545
61347W        W33772  26.088   1.266  11.939
61348W        W33773  32.445  37.049   1.442
61349W        W33774  12.092  34.908  11.640
61350W        W33775   8.931  43.992  13.021
61351W        W33776  43.801   2.634   2.472
61352W        W33777  11.738  44.340  12.860
61353W        W33778  40.947   3.527   1.833
61354W        W33779  14.235  42.916   0.787
61355W        W33780  24.465  39.438   0.816
61356W        W33781  36.334  30.243   4.906
61357W        W33782  16.877  39.312  11.660
61358W        W33783  30.599  42.907  14.904
61359W        W33784  11.232   8.340   4.531
61360W        W33785  30.305  21.578  13.749
61361W        W33786  42.335   7.827   3.197
61362W        W33787   0.795   2.389   1.978
61363W        W33788  20.995  20.618  12.092
61364W        W33789  20.736  28.239   3.213
61365W        W33790  26.871  10.924   2.128
61366W        W33791  13.667   2.365  11.678
61367W        W33792  38.643  38.080   0.434
61368W        W33793  25.667  21.697  14.404
61369W        W33794  31.886  20.280   1.982
61370W        W33795  38.436  30.833   2.108
61371W        W33796  20.192  20.166   4.471
61372W        W33797   8.758  36.113   4.524
61373W        W33798  43.600  23.826  14.442
61374W        W33799  26.826  17.463  13.419
61375W        W33800   9.112   0.718  13.275
61376W        W33801  10.324  42.825  10.044
61377W        W33802  28.302   9.511  13.444
61378W        W33803  14.799  35.955  10.605
61379W        W33804  27.005   1.025   1.176
61380W        W33805  11.576  42.154  14.684
61381W        W33806   7.269  18.154  14.425
61382W        W33807   9.261  39.531   1.223
61383W        W33808   4.303   3.286  12.470
61384W        W33809  40.220  11.476  12.889
61385W        W33810  13.050  26.480  11.123
61386W        W33811  31.863  25.564   0.418
61387W        W33812  35.828   5.949   3.505
61388W        W33813  10.157  13.460  12.856
61389W        W33814  18.308  15.200   2.756
61390W        W33815   5.234  15.268   4.512
61391W        W33816  33.471  43.455   1.156
61392W        W33817   7.809   4.194   1.304
61393W        W33818  28.685  35.192   3.237
61394W        W33819   1.712   2.260  13.980
61395W        W33820  21.095   4.337   0.174
61396W        W33821  39.906  33.443  10.457
61397W        W33822  38.630  19.004   3.874
61398W        W33823  10.736  39.430   3.893
61399W        W33824  37.687  21.220  11.607
61400W        W33825  41.523   8.796  12.822
61401W        W33826   7.921  24.155   0.340
61402W        W33827  15.495   9.719  12.437
61403W        W33828  23.509   7.301  14.027
61404W        W33829  21.297  22.182  10.650
61405W        W33830  19.536   8.303  12.890
61406W        W33831  31.824  35.032   0.985
61407W        W33832  14.243   3.738  14.954
61408W        W33833  19.291  44.403   0.746
61409W        W33834   8.191   7.793   4.086
61410W        W33835   1.313  44.939   3.097
61411W        W33836  21.135  43.071   0.374
61412W        W33837  22.803  41.414   0.408
61413W        W33838  13.348  14.319  10.314
61414W        W33839  40.054   6.262   1.898
61415W        W33840  31.603  28.683  14.682
61416W        W33841  37.930  44.852   3.250
61417W        W33842  29.528   9.197   0.196
61418W        W33843  26.120  29.459  11.564
61419W        W33844  29.554  30.025   4.446
61420W        W33845  20.649  31.004   1.028
61421W        W33846  19.819  35.000  12.087
61422W        W33847  35.421  35.619  11.932
61423W        W33848  27.259  33.374   0.244
61424W        W33849  10.701  19.142   1.916
61425W        W33850  23.743  23.655   2.804
61426W        W33851  19.734   3.355  10.765
61427W        W33852   2.347  33.562   4.547
61428W        W33853  29.112   2.741  14.302
61429W        W33854  27.644  19.626  12.984
61430W        W33855  33.382  14.014   1.805
61431W        W33856  43.224  11.232   1.285
61432W        W33857   2.410  11.134  11.112
61433W        W33858   0.540  33.174   2.326
61434W        W33859  41.827   9.184  12.989
61435W        W33860  35.317  29.590  12.262
61436W        W33861  27.002  24.445  13.105
61437W        W33862   1.004  43.332  13.815
61438W        W33863   3.512  10.792  12.348
61439W        W33864  23.477  11.271  14.737
61440W        W33865  38.477  41.329  12.622
61441W        W33866  16.100  17.976  12.513
61442W        W33867  39.335  36.168  12.956
61443W        W33868  24.599  12.739   0.905
61444W        W33869  30.718  31.501   4.278
61445W        W33870   7.133  39.269  13.466
61446W        W33871   0.105  22.227   0.397
61447W        W33872  21.325  37.407  12.662
61448W        W33873   3.297  25.442   1.276
61449W        W33874   4.440  43.984   3.735
61450W        W33875   6.842  18.170   0.703
61451W        W33876  17.530  33.913   0.263
61452W        W33877  23.006  28.893  11.267
61453W        W33878  37.593  13.917   2.130
61454W        W33879  33.482  34.387   1.275
61455W        W33880  37.998  14.859  14.894
61456W        W33881  30.552  18.551  14.418
61457W        W33882   8.777  27.170   1.840
61458W        W33883  43.970   0.850   4.794
61459W        W33884  36.620  18.436   3.311
61460W        W33885  35.030   4.151  11.688
61461W        W33886   0.723  14.818   0.972
61462W        W33887   1.429  31.077   1.412
61463W        W33888  33.523   1.840  14.878
61464W        W33889  10.800  27.988   2.331
61465W        W33890  37.757  44.413  12.567
61466W        W33891  13.265  37.523   4.635
61467W        W33892   1.240  15.701  11.106
61468W        W33893  28.678  29.142   3.185
61469W        W33894  25.645  27.543  11.408
61470W        W33895  39.444  20.333  10.834
61471W        W33896   1.912  32.330  13.457
61472W        W33897  30.129   0.423  10.520
61473W        W33898   8.336  32.183   2.189
61474W        W33899  31.961  17.270   4.660
61475W        W33900  23.147  35.322   0.388
61476W        W33901  11.365  38.809   2.668
61477W        W33902  27.757   2.763  14.655
61478W        W33903  41.164  26.539  11.496
61479W        W33904   5.787  15.192  12.663
61480W        W33905  32.516  24.125  10.797
61481W        W33906   6.232   8.962  12.387
61482W        W33907  26.263  41.890  12.911
61483W        W33908  44.267   8.010   3.092
61484W        W33909  19.681  32.374  14.477
61485W        W33910  19.203  24.487  13.596
61486W        W33911   0.738  32.683   0.905
61487W        W33912  30.976   0.492  11.966
61488W        W33913  27.662  44.217   2.167
61489W        W33914  11.822   9.781  13.551
61490W        W33915  26.094  12.369   3.788
61491W        W33916  44.275  10.228  10.242
61492W        W33917  34.785   0.079  12.121
61493W        W33918  23.282  40.877   3.154
61494W        W33919  40.752  10.247   3.632
61495W        W33920  27.104  19.764   0.027
61496W        W33921  24.567  41.319  13.712
61497W        W33922  29.029  25.359  11.638
61498W        W33923  43.438   0.864  14.715
61499W        W33924   9.719   4.297   4.161
61500W        W33925   5.804  20.336  13.521
61501W        W33926  14.838  34.656  14.909
61502W        W33927  39.909  30.926  14.812
61503W        W33928  12.607  44.794   2.735
61504W        W33929  17.207   8.957  11.224
61505W        W33930  28.967  24.858  10.412
61506W        W33931  39.522  44.485   5.189
61507W        W33932  10.595  29.012  13.072
61508W        W33933   4.874   0.116   2.128
61509W        W33934  37.913  10.156   0.911
61510W        W33935  26.599   8.851  14.217
61511W        W33936  36.888  21.178   1.732
61512W        W33937  22.361  26.882   1.730
61513W        W33938  37.961  35.924   3.593
61514W        W33939  42.117  44.982   2.763
61515W        W33940  30.676  43.738   1.859
61516W        W33941  40.898  38.600   0.385
61517W        W33942  24.235   5.701  12.067
61518W        W33943  23.075   7.447   4.602
61519W        W33944  43.299  17.736   3.608
61520W        W33945   9.627  42.137  12.928
61521W        W33946  25.958  22.004  13.341
61522W        W33947  28.096  23.573   1.568
61523W        W33948  28.681   2.310   0.367
61524W        W33949  43.022  26.089  13.393
61525W        W33950   1.696   7.302   3.126
61526W        W33951  28.006  31.726   5.097
61527W        W33952  23.160  15.097   1.417
61528W        W33953  21.134   2.754  13.296
61529W        W33954  36.486  21.740  14.346
61530W        W33955  43.256   8.444   2.901
61531W        W33956  41.222   6.365   3.159
61532W        W33957  41.467  14.093  11.526
61533W        W33958  23.019  42.369  11.040
61534W        W33959  43.451  38.006  11.148
61535W        W33960  15.846  42.460  13.425
61536W        W33961  33.119  13.266   4.763
61537W        W33962  17.659  21.063   3.669
61538W        W33963  24.314  11.187  10.204
61539W        W33964  15.834  37.856  14.062
61540W        W33965  19.940  42.955   3.687
61541W        W33966  12.849  32.133  14.944
61542W        W33967  25.225  42.599   3.145
61543W        W33968   2.812  27.828  11.663
61544W        W33969  28.937   4.384  12.456
61545W        W33970  14.354  27.615  10.741
61546W        W33971  25.458  28.181  13.446
61547W        W33972  44.944  34.662  11.987
61548W        W33973   4.764  33.383   1.263
61549W        W33974  34.406  33.915  10.579
61550W        W33975   5.926  10.686   2.748
61551W        W33976  11.358   3.486   2.204
61552W        W33977   7.778  40.356  11.179
61553W        W33978  12.799  19.826   0.405
61554W        W33979  26.467  22.739  12.315
61555W        W33980  29.168  11.817  14.981
61556W        W33981  39.905   4.769   4.078
61557W        W33982  15.131   5.764   1.404
61558W        W33983   2.807   2.263  12.971
61559W        W33984   5.482   7.218  13.763
61560W        W33985  26.218  11.853   3.810
61561W        W33986   7.183   9.283   4.851
61562W        W33987  43.975   2.590   4.327
61563W        W33988  32.595  36.005   3.857
61564W        W33989   8.336   0.571   3.675
61565W        W33990  32.631  38.576  14.864
61566W        W33991  39.882  37.623   3.838
61567W        W33992   1.507  42.162  14.513
61568W        W33993  27.184  35.183   2.207
61569W        W33994  25.636  19.569   1.430
61570W        W33995  42.880  16.677   2.639
61571W        W33996  11.758  44.066   1.439
61572W        W33997  25.102  34.403  11.322
61573W        W33998  14.780  42.987   0.000
61574W        W33999  11.710   6.208  10.218
61575W        W34000  29.009   3.419   4.468
61576W        W34001   2.357  19.269   0.774
61577W        W34002  33.856  31.464  14.803
61578W        W34003  22.609  40.320   2.223
61579W        W34004   2.244   5.011   2.665
61580W        W34005  10.748  12.328   1.323
61581W        W34006  38.991  15.585  12.368
61582W        W34007  21.522  22.686  10.575
61583W        W34008  18.003  26.224   1.915
61584W        W34009  41.958  31.485   1.792
61585W        W34010  33.370  31.545  14.975
61586W        W34011  15.377  35.104   0.797
61587W        W34012  14.147  41.586   4.323
61588W        W34013  35.557  28.051   0.652
61589W        W34014  16.633  20.080  14.189
61590W        W34015  33.449  29.506   3.164
61591W        W34016  18.723   1.062   3.999
61592W        W34017  10.288   3.852  12.454
61593W        W34018  12.783  16.039   0.902
61594W        W34019  25.174  19.809   4.545
61595W        W34020  28.330  32.858  11.633
61596W        W34021  17.499  44.859   3.363
61597W        W34022  43.765   1.498  11.208
61598W        W34023  29.205  17.564  13.325
61599W        W34024  41.262  32.007  14.444
61600W        W34025  17.228   9.811   2.288
61601W        W34026   0.268  13.779  11.162
61602W        W34027  41.865  10.304   4.531
61603W        W34028  40.320  26.547   1.054
61604W        W34029  23.446  12.695  10.597
61605W        W34030   7.427  28.532   2.295
61606W        W34031  24.550  36.995   1.973
61607W        W34032   6.958  32.527   4.193
61608W        W34033  28.871  43.336  13.413
61609W        W34034  29.177  39.306   2.808
61610W        W34035   7.261   2.926   1.126
61611W        W34036  31.124  32.624   3.336
61612W        W34037   3.177  33.466   3.595
61613W        W34038  23.134  10.715  11.875
61614W        W34039  43.359  21.834   5.063
61615W        W34040  29.995  12.647   0.296
61616W        W34041   7.471  27.853  11.065
61617W        W34042   5.897  18.622  14.477
61618W        W34043  16.772  43.297   0.226
61619W        W34044  41.462  42.479  10.259
61620W        W34045  37.489  14.697   1.667
61621W        W34046  15.800   3.633  11.966
61622W        W34047  11.733  26.587   1.737
61623W        W34048   6.445   3.263   1.461
61624W        W34049   7.776  33.994   4.561
61625W        W34050  23.691  32.345  12.979
61626W        W34051  18.531  41.861  11.496
61627W        W34052  24.585  25.224  13.885
61628W        W34053  25.185  19.836  12.297
61629W        W34054  27.836  29.100   1.217
61630W        W34055  43.819  32.081   2.862
61631W        W34056  35.721  35.295   0.809
61632W        W34057  11.232  29.354  12.561
61633W        W34058  30.364  12.275  11.471
61634W        W34059  32.481  14.154  13.333
61635W        W34060  34.035   0.439   4.687
61636W        W34061  36.310  11.850  11.671
61637W        W34062  25.464  35.421   1.218
61638W        W34063  12.338  27.785  11.661
61639W        W34064  36.891  25.520  12.933
61640W        W34065  23.892   1.253  13.410
61641W        W34066  19.540  26.071  14.103
61642W        W34067  18.287  38.924   0.696
61643W        W34068  35.604   7.126  14.108
61644W        W34069   7.139  35.902  10.568
61645W        W34070  27.162  15.874   0.752
61646W        W34071  28.087   3.280   1.438
61647W        W34072   2.278  37.020   1.734
61648W        W34073  18.327  40.619   2.190
61649W        W34074  36.180  10.166  13.086
61650W        W34075  21.630  38.624   1.078
61651W        W34076  17.259  16.773  14.340
61652W        W34077  24.282  41.909  11.823
61653W        W34078  11.627  41.114   3.742
61654W        W34079  35.660   7.277   0.790
61655W        W34080  20.071   0.510   1.807
61656W        W34081  10.986  37.103   3.239
61657W        W34082  34.117   2.864  11.151
61658W        W34083  28.093  29.990  11.721
61659W        W34084  18.658  32.612   0.501
61660W        W34085  39.258   5.829   1.790
61661W        W34086   0.542  10.251   1.564
61662W        W34087  10.614  38.976   0.876
61663W        W34088   7.853  39.748   1.855
61664W        W34089  11.732  35.940   0.625
61665W        W34090  16.107  11.204   1.346
61666W        W34091  34.450  39.200  13.939
61667W        W34092  16.909  23.543   2.373
61668W        W34093  22.127   0.680   1.273
61669W        W34094  30.818  42.727   2.836
61670W        W34095  44.337   0.116  14.544
61671W        W34096  36.045   4.735   2.683
61672W        W34097  29.111  25.497  14.965
61673W        W34098  42.015   2.299   0.373
61674W        W34099  28.115  37.830  12.164
61675W        W34100  23.007  43.343  11.212
61676W        W34101  42.846  22.668  14.435
61677W        W34102   4.294   5.208   4.153
61678W        W34103  22.166  10.856   0.494
61679W        W34104   8.406  26.789  14.358
61680W        W34105  24.607  19.018   0.895
61681W        W34106  27.090   9.565   3.631
61682W        W34107   1.532  19.876   4.174
61683W        W34108  36.272  44.676   2.339
61684W        W34109   5.267   4.436   2.760
61685W        W34110  43.674  22.113  12.130
61686W        W34111  20.081  36.115  13.974
61687W        W34112  35.862  27.464  14.551
61688W        W34113   1.104   2.238   1.532
61689W        W34114   5.155   0.225  14.272
61690W        W34115  32.830  35.317  13.447
61691W        W34116  40.561  18.629   1.271
61692W        W34117  28.682  18.342   3.107
61693W        W34118  39.573  41.962  13.033
61694W        W34119  17.761   5.201   1.964
61695W        W34120  29.280   3.575  12.439
61696W        W34121  37.992   6.922   0.875
61697W        W34122   6.305   3.284  12.408
61698W        W34123  11.673  26.076   2.639
61699W        W34124  44.110  27.771   1.808
61700W        W34125  41.985   0.309   3.572
61701W        W34126  16.471  13.105  11.941
61702W        W34127   5.507  38.852  14.768
61703W        W34128  16.471  10.684  13.733
61704W        W34129  20.529  42.007  13.458
61705W        W34130  14.166  41.498  11.900
61706W        W34131   7.725  20.823   2.742
61707W        W34132  36.926  22.130   4.929
61708W        W34133  36.773  29.224   2.006
61709W        W34134  44.401  28.928   2.905
61710W        W34135  15.956  38.655  11.451
61711W        W34136  31.900   6.614  13.453
61712W        W34137   1.314   2.122   4.629
61713W        W34138  19.218  32.124  10.952
61714W        W34139   5.531  10.068  11.099
61715W        W34140  18.635   6.566   3.654
61716W        W34141  34.572  23.105  10.701
61717W        W34142  24.300   5.864  13.794
61718W        W34143  40.106  40.948   1.230
61719W        W34144  43.439  14.334  14.639
61720W        W34145  39.958   0.693  13.116
61721W        W34146  34.217   2.090   0.316
61722W        W34147  31.213  38.939   0.816
61723W        W34148  24.021  36.615  11.946
61724W        W34149  21.199   9.138   2.346
61725W        W34150  37.083  43.032  14.450
61726W        W34151  18.976   8.432  12.826
61727W        W34152   8.422  13.963   5.045
61728W        W34153  20.706   5.962   4.140
61729W        W34154  29.948  23.448   0.319
61730W        W34155  13.325  12.677  14.279
61731W        W34156  13.952  24.346   4.419
61732W        W34157  38.096  27.636  11.615
61733W        W34158  17.430  21.474   0.001
61734W        W34159  40.176  14.848   4.457
61735W        W34160   3.863   2.352   1.471
61736W        W34161  38.429  35.921  14.586
61737W        W34162  21.154  13.347   0.184
61738W        W34163  37.928  15.529  12.872
61739W        W34164   1.441  42.894  14.894
61740W        W34165  17.766  33.071   4.563
61741W        W34166  43.399  42.820   0.708
61742W        W34167   2.718  15.433  11.538
61743W        W34168   7.946  41.480   0.239
61744W        W34169  33.700  44.812  12.422
61745W        W34170  39.498  42.858   2.812
61746W        W34171   0.460   3.678   0.377
61747W        W34172  39.253   0.940  11.913
61748W        W34173  30.688  13.409   1.352
61749W        W34174   4.457   5.891   0.387
61750W        W34175   5.250  25.766  14.812
61751W        W34176  35.855  20.828   2.357
61752W        W34177   4.347  34.537   0.979
61753W        W34178   4.286  32.364  13.394
61754W        W34179  37.580  13.785  11.452
61755W        W34180  30.923  18.110   0.531
61756W        W34181  14.895  30.683  13.535
61757W        W34182  12.651  43.224  11.804
61758W        W34183  12.236  38.101   3.749
61759W        W34184   3.364  12.211   2.381
61760W        W34185  22.179  32.357   4.098
61761W        W34186  39.388  19.091   3.165
61762W        W34187  20.183  33.935   1.797
61763W        W34188   2.001  15.773   3.288
61764W        W34189  43.767   7.751   2.216
61765W        W34190  40.502  18.856   3.676
61766W        W34191  36.068  14.652  12.193
61767W        W34192  26.326  31.421   4.229
61768W        W34193  39.153  26.654  12.291
61769W        W34194  42.915  23.259   3.944
61770W        W34195  36.839  14.850  13.144
61771W        W34196  32.792  24.829   0.395
61772W        W34197   8.775  41.614  10.706
61773W        W34198  37.477  21.114  13.925
61774W        W34199  36.048  38.311  12.175
61775W        W34200  31.827   4.716   4.452
61776W        W34201  24.092   5.230  14.314
61777W        W34202  44.087  24.235  11.712
61778W        W34203  23.591  22.233  10.952
61779W        W34204  13.540  28.447   3.136
61780W        W34205   4.200  41.541  14.748
61781W        W34206   4.351  16.767   1.678
61782W        W34207  17.220   2.188   0.011
61783W        W34208  16.611   2.030   5.466
61784W        W34209  14.377   9.233   1.332
61785W        W34210  13.452  14.253  13.001
61786W        W34211   8.252   4.135  12.151
61787W        W34212  11.218   9.267  13.499
61788W        W34213  13.185  40.052  14.887
61789W        W34214  42.340  40.482   3.772
61790W        W34215  28.983  32.929   1.936
61791W        W34216  35.853   8.834   1.822
61792W        W34217  36.590  33.424   3.886
61793W        W34218   0.436  26.942   3.120
61794W        W34219  23.920  22.208   1.410
61795W        W34220   6.805   1.187   2.383
61796W        W34221  31.965  11.057  11.148
61797W        W34222   4.493  11.254  13.100
61798W        W34223   7.485  24.207  12.972
61799W        W34224  14.272  25.268   4.164
61800W        W34225  24.504  27.208   3.112
61801W        W34226   8.144  16.687   1.410
61802W        W34227  18.725  25.219   3.684
61803W        W34228  25.628   1.011  12.957
61804W        W34229  31.147  12.058  13.131
61805W        W34230  26.997  25.097   4.157
61806W        W34231  37.004   6.203   0.080
61807W        W34232   8.559  34.940  11.619
61808W        W34233  18.319  33.316   4.581
61809W        W34234   0.371   5.212   0.469
61810W        W34235  17.366  28.045   2.162
61811W        W34236  44.763  15.801  12.128
61812W        W34237   2.859   6.422   4.220
61813W        W34238   6.211  10.722  13.851
61814W        W34239   3.236  10.887   2.734
61815W        W34240  12.058  32.990   1.108
61816W        W34241   0.543  13.192  11.523
61817W        W34242   8.401   4.556  12.507
61818W        W34243   2.226  41.688   2.799
61819W        W34244  19.072  16.053   9.865
61820W        W34245  18.718   7.357   1.270
61821W        W34246  37.057  17.519   0.337
61822W        W34247  40.812   1.841   0.602
61823W        W34248  30.912  26.229   2.410
61824W        W34249  22.760  28.030  12.537
61825W        W34250  38.908  23.867  14.130
61826W        W34251  10.642  13.209   4.883
61827W        W34252   7.720  13.326   4.158
61828W        W34253  20.205  20.736  14.344
61829W        W34254   7.410  28.547   4.262
61830W        W34255  11.209  10.349   2.234
61831W        W34256  36.876  10.954   4.554
61832W        W34257  11.764  15.109   2.498
61833W        W34258  15.331  15.147   0.918
61834W        W34259  42.891  20.531  11.951
61835W        W34260  37.967   5.406  10.309
61836W        W34261  40.530  34.971   2.813
61837W        W34262  17.752  26.664  14.339
61838W        W34263  11.338  15.180  10.771
61839W        W34264  26.223  28.438  11.555
61840W        W34265  22.724  37.075  11.157
61841W        W34266   3.000  10.258   1.855
61842W        W34267  40.604  42.626   2.293
61843W        W34268  29.417   4.929  13.052
61844W        W34269  14.936  22.619  13.009
61845W        W34270   3.409  23.503  10.533
61846W        W34271  26.780  10.127  11.455
61847W        W34272  31.453  24.062  12.850
61848W        W34273  25.991  38.947  14.517
61849W        W34274   1.436   0.253   1.102
61850W        W34275  12.646  36.063   0.362
61851W        W34276  14.596   1.023   1.866
61852W        W34277   0.930  28.613  12.158
61853W        W34278  29.432   1.926  11.531
61854W        W34279  18.655  11.704  13.852
61855W        W34280  12.880  32.925  14.030
61856W        W34281  41.856  25.978  12.900
61857W        W34282  29.133   1.306  10.420
61858W        W34283  37.513  37.834  14.559
61859W        W34284  24.221  28.703   2.793
61860W        W34285  30.523  11.644   4.554
61861W        W34286   2.165   9.409  10.713
61862W        W34287  24.039  13.139  13.167
61863W        W34288  11.307  21.303  10.596
61864W        W34289  38.489  44.896   5.501
61865W        W34290  11.085  25.219   3.685
61866W        W34291  26.549  13.586  10.611
61867W        W34292  43.052  34.403   3.664
61868W        W34293  12.221  22.677   9.824
61869W        W34294  17.340  23.575   1.965
61870W        W34295   6.187  17.319   1.654
61871W        W34296  13.019  17.709   4.142
61872W        W34297  36.481  25.684   5.529
61873W        W34298  24.102  38.892   4.663
61874W        W34299  16.510  33.695  11.117
61875W        W34300  29.476  27.252  11.495
61876W        W34301  33.865  38.478   0.527
61877W        W34302  17.823  36.055   1.407
61878W        W34303  25.262  11.451   4.233
61879W        W34304  44.910  30.069  13.813
61880W        W34305  15.640  42.297   4.669
61881W        W34306  15.885  32.618   4.746
61882W        W34307  34.200  41.742  13.940
61883W        W34308  31.404  18.820  10.254
61884W        W34309   2.723  20.865  12.095
61885W        W34310  25.410   8.344  13.848
61886W        W34311  20.290   8.914   2.135
61887W        W34312  29.630  43.731   0.443
61888W        W34313  24.515  34.311   3.886
61889W        W34314  20.466  21.750  14.417
61890W        W34315  26.048   9.889  11.111
61891W        W34316  15.663  31.416   1.903
61892W        W34317  31.062  14.131  13.921
61893W        W34318   2.992  30.016  10.565
61894W        W34319  37.588  38.878  11.516
61895W        W34320  23.004  29.068   1.713
61896W        W34321  20.167  20.966  13.892
61897W        W34322  10.875  21.204  13.110
61898W        W34323   4.036  14.033  11.154
61899W        W34324  16.638  36.550   0.288
61900W        W34325   5.865  17.598   3.056
61901W        W34326  30.619  36.056   2.840
61902W        W34327  19.660  42.591   0.950
61903W        W34328  24.029   5.027   4.196
61904W        W34329  14.117  29.416   4.651
61905W        W34330  25.659  38.971   3.556
61906W        W34331  28.258  43.198   9.994
61907W        W34332  18.650   0.367   4.532
61908W        W34333  26.763  23.001   0.067
61909W        W34334  30.438   7.286  14.754
61910W        W34335   7.789  25.103  12.963
61911W        W34336  44.049  40.521  14.573
61912W        W34337   7.765  15.244  13.870
61913W        W34338  25.683  32.413   3.823
61914W        W34339   1.759  44.963   3.345
61915W        W34340  13.939  35.942  10.120
61916W        W34341  15.041  16.927   9.949
61917W        W34342   2.463   7.676  14.985
61918W        W34343  40.289   9.707   3.451
61919W        W34344   4.784  12.796   1.949
61920W        W34345  30.511  38.491  11.927
61921W        W34346  21.798  44.394   0.316
61922W        W34347  29.526  28.796  11.097
61923W        W34348  35.233   4.628  14.876
61924W        W34349  26.121  12.813   0.386
61925W        W34350  42.924  25.175   3.915
61926W        W34351  40.300  39.722   3.327
61927W        W34352  34.824  11.680  13.815
61928W        W34353  25.028  24.370   2.617
61929W        W34354  32.936  30.920   1.077
61930W        W34355  42.872   8.278   0.910
61931W        W34356  31.627   1.967   4.247
61932W        W34357   1.196  30.181   4.530
61933W        W34358  34.384  21.539   1.417
61934W        W34359   3.057  40.361  14.092
61935W        W34360  43.008  43.315   0.891
61936W        W34361  17.331  10.173  14.346
61937W        W34362  11.365  32.094  13.274
61938W        W34363  38.156   3.274  13.926
61939W        W34364   2.814  11.662   2.404
61940W        W34365  13.351  30.495   4.186
61941W        W34366  38.370  17.758   3.310
61942W        W34367  29.934  41.446   0.466
61943W        W34368  38.488  42.521   3.250
61944W        W34369  23.776  38.293   4.163
61945W        W34370  21.086  20.354   0.455
61946W        W34371  36.767  44.384  14.603
61947W        W34372  16.863  36.237  12.908
61948W        W34373  25.659  14.212  13.592
61949W        W34374  15.697  22.638  12.484
61950W        W34375  36.010  37.243   4.315
61951W        W34376  31.924   1.072   4.957
61952W        W34377   1.185  40.290   5.150
61953W        W34378  10.533  33.825  11.473
61954W        W34379  21.364   2.759   0.742
61955W        W34380  26.463   3.290  14.623
61956W        W34381   1.411  35.556   1.747
61957W        W34382  17.646  36.885  14.415
61958W        W34383   4.670  15.653   5.040
61959W        W34384  35.583  14.321   4.595
61960W        W34385  41.782  25.205  10.942
61961W        W34386  13.121  10.245   3.538
61962W        W34387  25.872  39.783   2.639
61963W        W34388   0.272   9.784   1.497
61964W        W34389  43.270   1.970   2.224
61965W        W34390  27.443  44.018   3.352
61966W        W34391  29.446  44.569  10.502
61967W        W34392  15.046  18.981   0.491
61968W        W34393  20.731   2.789   1.790
61969W        W34394  35.583  40.857  11.946
61970W        W34395  35.630  19.722  13.408
61971W        W34396  13.809  15.303   4.600
61972W        W34397  29.579   1.241   3.826
61973W        W34398  33.630  26.128  11.452
61974W        W34399  18.339  40.526  12.603
61975W        W34400   1.536  17.359  13.297
61976W        W34401   8.384  36.881  12.343
61977W        W34402   6.665   5.922  13.417
61978W        W34403   5.633  31.038   0.355
61979W        W34404  44.209  23.044   0.137
61980W        W34405  37.077  24.333   1.867
61981W        W34406  32.850  34.954  11.444
61982W        W34407  15.572   4.830   1.978
61983W        W34408   6.881  24.121   0.217
61984W        W34409  37.949   4.423   1.694
61985W        W34410  38.348   3.198   0.686
61986W        W34411  11.780  24.030   4.943
61987W        W34412  38.961  10.880  14.944
61988W        W34413  11.637   8.909  14.925
61989W        W34414  20.510  42.739   2.469
61990W        W34415  40.239  30.107   0.017
61991W        W34416  20.082  35.654   1.066
61992W        W34417  24.673  41.339   2.739
61993W        W34418   0.747  17.112   1.345
61994W        W34419  27.855   5.039  13.098
61995W        W34420  22.021  27.741   0.245
61996W        W34421  25.595  42.825   4.841
61997W        W34422  32.662  31.891  10.612
61998W        W34423   1.489   3.011  14.314
61999W        W34424  27.989  22.411   3.746
62000W        W34425  10.193  39.034  14.358
62001W        W34426  36.806  31.940   4.929
62002W        W34427   8.102  42.866  12.511
62003W        W34428   0.989  38.916   4.325
62004W        W34429  32.857  42.836  13.985
62005W        W34430   3.754   2.768   1.771
62006W        W34431   1.070  10.126  12.649
62007W        W34432  12.579  10.749  13.584
62008W        W34433  29.363  25.479   1.309
62009W        W34434  33.587   4.412   5.197
62010W        W34435  15.682  22.683   2.895
62011W        W34436   3.750  44.710   1.337
62012W        W34437  20.309  37.150  11.027
62013W        W34438   7.068  37.411  13.979
62014W        W34439  41.002  30.466   4.313
62015W        W34440  44.658  38.830  14.428
62016W        W34441  28.844   4.745   0.412
62017W        W34442  19.469  37.967  13.521
62018W        W34443   7.389  18.026   4.564
62019W        W34444  12.692   6.819   1.902
62020W        W34445  17.850  23.257   2.297
62021W        W34446   2.658  13.739  11.990
62022W        W34447  19.753  20.737  11.326
62023W        W34448  39.073  39.411  10.128
62024W        W34449   1.365  29.534   1.015
62025W        W34450  28.416  25.378   1.345
62026W        W34451  17.652  18.107  11.907
62027W        W34452   8.338  23.138  11.023
62028W        W34453  26.538   9.693   0.510
62029W        W34454  28.812  10.284   3.241
62030W        W34455   8.959  23.060   3.648
62031W        W34456  41.688  19.083   2.854
62032W        W34457  28.893  33.427   5.515
62033W        W34458  33.781   3.652  13.353
62034W        W34459  22.624  42.275   3.365
62035W        W34460  22.252  38.749   3.280
62036W        W34461  14.385  13.730   0.391
62037W        W34462  44.985  30.368  10.660
62038W        W34463  17.823  20.683   0.433
62039W        W34464   4.801  26.494   4.611
62040W        W34465  14.162  28.150  10.654
62041W        W34466  42.845  42.484   0.398
62042W        W34467  32.887   6.326   0.177
62043W        W34468  12.856  23.521   2.711
62044W        W34469  29.989   2.659   2.274
62045W        W34470  38.702  23.508  14.445
62046W        W34471   4.226  39.938  12.865
62047W        W34472  16.258  23.774  13.524
62048W        W34473  20.993   3.723  13.053
62049W        W34474  24.039  32.342   3.009
62050W        W34475   9.252   3.168  14.131
62051W        W34476   0.502  40.017  10.751
62052W        W34477  24.949   9.334  13.562
62053W        W34478   1.065  27.912   1.628
62054W        W34479  42.868  32.915  11.144
62055W        W34480  44.245  40.011  11.057
62056W        W34481   9.317  13.412   4.765
62057W        W34482  28.990  33.930   1.856
62058W        W34483  11.660  17.399  11.945
62059W        W34484  26.673  31.049  10.116
62060W        W34485  20.617  27.422  12.456
62061W        W34486   2.438  31.560  14.338
62062W        W34487  41.895  12.521  14.053
62063W        W34488  43.800  39.979  12.528
62064W        W34489  21.130   8.105  12.642
62065W        W34490  32.315  43.619   4.113
62066W        W34491  44.023  37.794   0.739
62067W        W34492   7.778  27.281  11.583
62068W        W34493  13.168  22.184  12.013
62069W        W34494  35.522  40.762  13.937
62070W        W34495  30.303   1.262   3.831
62071W        W34496  10.876   9.492   1.870
62072W        W34497  14.352  43.521   3.655
62073W        W34498   8.871  23.527   3.411
62074W        W34499  20.664   4.862   3.108
62075W        W34500  22.963  38.400   1.848
62076W        W34501  34.125  19.037   0.958
62077W        W34502  29.902  28.598  13.401
62078W        W34503   8.209  39.806   4.005
62079W        W34504  40.397   8.377  11.312
62080W        W34505  43.319   9.271  11.096
62081W        W34506  18.870  23.212  11.698
62082W        W34507  26.981  27.142   3.053
62083W        W34508  27.788   7.307  10.658
62084W        W34509  28.034  16.461   3.951
62085W        W34510  37.589  17.345   2.302
62086W        W34511  43.260  29.306   5.138
62087W        W34512   3.839  32.933  14.287
62088W        W34513   5.792  36.640  11.551
62089W        W34514   1.909  19.144  14.410
62090W        W34515  42.813  13.154  14.916
62091W        W34516  44.422  24.588  13.916
62092W        W34517  12.100  25.113   1.214
62093W        W34518  28.665   9.009   3.921
62094W        W34519  43.238   6.647   4.379
62095W        W34520  37.858  40.598   0.249
62096W        W34521   9.362  38.434   0.215
62097W        W34522  14.288  26.438  12.144
62098W        W34523  40.074  23.210   4.500
62099W        W34524  35.826   7.747  10.508
62100W        W34525   7.858  39.435   0.954
62101W        W34526   9.755  19.109  10.759
62102W        W34527   3.419  29.487   4.064
62103W        W34528  12.666  35.259   1.827
62104W        W34529   1.519  18.565  14.946
62105W        W34530  23.260  16.413   1.733
62106W        W34531  38.483  12.547  14.947
62107W        W34532  12.646  15.861   5.086
62108W        W34533  33.584   8.856   1.830
62109W        W34534  21.465  22.286   1.477
62110W        W34535   9.831  44.565   1.299
62111W        W34536  34.600  22.613  14.798
62112W        W34537  13.874  20.758   0.375
62113W        W34538  15.697  38.029  13.119
62114W        W34539  19.162  19.934  14.433
62115W        W34540  35.930  15.132   4.896
62116W        W34541  36.726  25.865   1.780
62117W        W34542  11.421  23.245   1.866
62118W        W34543  10.195  28.047  13.458
62119W        W34544  11.503  24.018  12.672
62120W        W34545  39.358  36.534   4.856
62121W        W34546   8.453  18.942   4.201
62122W        W34547   6.787  36.151  11.940
62123W        W34548   0.495   0.350   1.925
62124W        W34549   7.736  35.464  11.193
62125W        W34550  30.138   3.375  10.845
62126W        W34551  19.084  19.411  11.310
62127W        W34552  31.638  13.687  10.960
62128W        W34553  23.098  24.183   3.167
62129W        W34554  23.020  36.022   1.299
62130W        W34555  33.209  25.410  13.754
62131W        W34556   8.344  17.106  11.055
62132W        W34557  13.937  33.294  14.898
62133W        W34558  40.923  44.822   3.232
62134W        W34559  27.517  34.636  13.965
62135W        W34560  37.032  42.906  13.933
62136W        W34561  37.891  21.952   5.025
62137W        W34562  44.388   4.033   3.678
62138W        W34563  44.035  41.746  11.155
62139W        W34564  26.208  25.217   3.140
62140W        W34565  36.391  34.124  13.325
62141W        W34566  10.528  18.963  14.015
62142W        W34567  12.141   7.258  12.780
62143W        W34568  27.170  21.513   4.132
62144W        W34569  24.253  26.976  13.924
62145W        W34570   9.783  41.302   2.675
62146W        W34571  41.499  20.854   1.814
62147W        W34572  18.778  31.490   0.743
62148W        W34573  25.239  21.057  13.909
62149W        W34574  28.857  33.098  12.504
62150W        W34575   5.249   4.874  11.187
62151W        W34576  12.572  16.108  14.023
62152W        W34577   5.835   3.484  12.422
62153W        W34578  44.957  10.388   0.867
62154W        W34579  32.119  30.111   3.806
62155W        W34580  20.955   4.859  11.619
62156W        W34581  43.994  35.870  11.145
62157W        W34582  32.905  10.850   2.736
62158W        W34583  31.478  40.894   0.997
62159W        W34584   8.660  42.409  14.965
62160W        W34585  37.621   0.911   2.349
62161W        W34586   6.175  29.443  11.579
62162W        W34587  43.052  32.571   3.821
62163W        W34588  15.122   7.654  12.843
62164W        W34589  24.024  21.588   0.216
62165W        W34590   1.258  33.984  11.520
62166W        W34591  25.349  30.618   0.381
62167W        W34592  20.012  18.002  10.092
62168W        W34593  43.396  10.942  12.481
62169W        W34594   6.105  11.595  10.481
62170W        W34595  38.812  21.084  12.614
62171W        W34596   7.428  16.221   1.847
62172W        W34597   4.941  32.662  11.286
62173W        W34598  35.311  43.817  14.399
62174W        W34599   8.611  22.071   1.354
62175W        W34600  10.194  33.141  12.680
62176W        W34601   9.649  13.105  14.982
62177W        W34602  17.987  11.826   2.332
62178W        W34603   5.635  19.775   3.665
62179W        W34604  18.155  22.140  12.338
62180W        W34605  13.222  44.810  13.944
62181W        W34606   2.311  22.567  10.213
62182W        W34607  20.677  39.232   0.983
62183W        W34608  30.622  24.961  13.289
62184W        W34609   7.890   6.101   5.028
62185W        W34610  36.285  13.814  13.965
62186W        W34611  31.931  11.166   0.259
62187W        W34612   4.419  32.604  13.825
62188W        W34613  32.493  13.641  11.572
62189W        W34614   7.540  16.669   1.262
62190W        W34615   0.894  13.844  10.602
62191W        W34616   0.508  23.803   0.787
62192W        W34617  38.044  36.334   4.413
62193W        W34618   1.205  37.565   3.307
62194W        W34619  23.228   2.724  14.176
62195W        W34620  26.898  21.986   1.414
62196W        W34621  44.827  27.977   2.261
62197W        W34622  32.458  39.556  13.463
62198W        W34623  11.812  13.732   1.726
62199W        W34624  32.370  19.987  13.949
62200W        W34625  44.302   9.144   0.521
62201W        W34626  20.245   4.732   0.693
62202W        W34627  14.653  43.921   3.425
62203W        W34628   4.383   0.980  13.281
62204W        W34629  39.685  32.036   4.626
62205W        W34630  25.063  40.776   0.230
62206W        W34631  20.135   3.451   2.306
62207W        W34632  43.315  38.752  12.854
62208W        W34633  36.231  44.973  11.650
62209W        W34634  16.714  22.996   2.356
62210W        W34635  36.583  29.486   0.394
62211W        W34636  12.089  16.275  13.975
62212W        W34637   8.230  26.188  11.071
62213W        W34638   0.791   9.412   4.593
62214W        W34639  20.576  27.621   1.995
62215W        W34640  22.257  44.743  14.399
62216W        W34641  14.475  38.113   1.846
62217W        W34642  30.080  21.747   0.727
62218W        W34643  33.350  26.888   0.875
62219W        W34644  19.350  30.704  13.141
62220W        W34645  17.622  30.419   1.832
62221W        W34646  16.249  23.080  10.871
62222W        W34647  19.694  44.066  12.949
62223W        W34648   4.904  29.085   0.315
62224W        W34649  15.344  23.057   4.328
62225W        W34650  13.074  32.087   1.394
62226W        W34651  44.256  31.853  12.157
62227W        W34652  17.673  42.786   3.822
62228W        W34653  36.687  29.453  11.475
62229W        W34654  30.161   7.630   2.412
62230W        W34655  43.479   6.201  12.995
62231W        W34656   5.212  12.665  13.015
62232W        W34657   5.502  33.486   2.422
62233W        W34658   1.778  43.060   0.284
62234W        W34659  44.786  30.339  13.366
62235W        W34660  21.221  28.751   3.724
62236W        W34661   1.718  34.575  13.880
62237W        W34662  34.666  24.643  11.225
62238W        W34663  41.860  43.331   0.232
62239W        W34664  31.888   2.553   3.091
62240W        W34665  27.958  20.662  12.059
62241W        W34666  43.503  14.763  14.328
62242W        W34667  30.688  27.686  11.907
62243W        W34668  13.737  39.873   4.660
62244W        W34669  28.131  38.932  12.466
62245W        W34670  33.672  17.277   5.128
62246W        W34671  18.315  13.666  11.035
62247W        W34672  44.331  22.755  12.060
62248W        W34673  27.017  44.855  11.568
62249W        W34674  22.210   4.667   4.707
62250W        W34675  41.465  44.965   0.206
62251W        W34676  12.899  10.600  13.193
62252W        W34677  43.710   5.576  10.688
62253W        W34678  14.644   7.366   4.539
62254W        W34679  44.514  20.653   1.989
62255W        W34680  23.189   6.033  11.101
62256W        W34681   3.223  22.151  13.384
62257W        W34682  28.248  26.169   4.709
62258W        W34683  38.244  25.553   9.800
62259W        W34684  19.647  17.791   3.383
62260W        W34685  22.792  35.091   4.354
62261W        W34686  22.309  23.006   0.460
62262W        W34687  28.684   0.946  13.855
62263W        W34688   9.697   6.739   1.194
62264W        W34689  25.044  15.816   3.855
62265W        W34690  40.753   4.756   3.839
62266W        W34691   3.378  37.637   2.731
62267W        W34692  33.517  34.151  13.120
62268W        W34693  16.346   7.926   1.296
62269W        W34694  24.662  42.150   2.181
62270W        W34695  12.382  15.312   4.154
62271W        W34696  17.094  26.994  13.414
62272W        W34697  17.285  35.412  10.846
62273W        W34698  29.190  38.416   0.892
62274W        W34699  16.075  23.145   4.820
62275W        W34700  42.107  42.987   1.075
62276W        W34701  19.733  14.785  11.364
62277W        W34702  37.176  36.986   4.667
62278W        W34703  25.017  44.256  14.084
62279W        W34704  44.811  38.906  13.941
62280W        W34705  25.763  20.960  13.245
62281W        W34706  41.713  38.774  12.035
62282W        W34707  12.703  44.850  14.759
62283W        W34708  11.246   7.837   4.585
62284W        W34709   9.683   0.784   2.070
62285W        W34710  35.701  27.949  11.665
62286W        W34711   9.240   2.809   2.265
62287W        W34712   3.663   3.698   1.296
62288W        W34713   1.965  11.680   0.563
62289W        W34714  36.463   7.815   4.665
62290W        W34715  10.202   7.998   2.699
62291W        W34716   4.684  40.274  10.687
62292W        W34717   7.891  30.536  10.704
62293W        W34718  11.745  18.160   0.848
62294W        W34719  27.623  37.939   0.122
62295W        W34720  18.227  23.137  13.347
62296W        W34721  12.419  30.053   4.636
62297W        W34722  33.155  12.589  12.422
62298W        W34723  28.736  20.647   2.348
62299W        W34724  44.282  42.495   1.378
62300W        W34725  32.372  20.156   3.704
62301W        W34726  17.964   0.104  14.524
62302W        W34727  42.484   8.461   3.309
62303W        W34728  42.760  26.573   4.919
62304W        W34729  31.442   8.646   1.842
62305W        W34730  35.595  30.070  14.468
62306W        W34731  27.469  28.132  14.354
62307W        W34732   4.876  28.044  10.594
62308W        W34733  20.128  29.299   0.867
62309W        W34734  23.091  10.137   3.527
62310W        W34735   9.835  38.478   0.002
62311W        W34736  42.100  44.369   2.087
62312W        W34737  18.186  29.103  14.374
62313W        W34738  14.995  25.068   2.022
62314W        W34739  16.262  33.650  10.656
62315W        W34740  26.477  25.642   5.087
62316W        W34741   5.601   4.847   2.790
62317W        W34742  27.310  14.684  14.886
62318W        W34743  25.158  37.119   4.281
62319W        W34744  41.663  12.324   3.415
62320W        W34745  38.863  24.254  12.497
62321W        W34746  28.189  21.942  13.098
62322W        W34747  18.616  23.588  10.235
62323W        W34748  32.955  44.295   0.682
62324W        W34749  16.552  12.205  12.986
62325W        W34750  26.166   7.662   3.737
62326W        W34751  43.048  31.851  10.347
62327W        W34752  35.005  44.170   4.494
62328W        W34753  39.869  43.293   2.422
62329W        W34754  39.111  34.426  10.430
62330W        W34755  18.774   8.803   2.237
62331W        W34756   3.445  31.187   2.155
62332W        W34757  21.573  13.186   3.077
62333W        W34758   3.947  40.815   2.797
62334W        W34759  24.446  25.674  13.061
62335W        W34760  24.408   6.186  12.515
62336W        W34761   8.516   5.270  10.027
62337W        W34762  43.007  25.594   3.236
62338W        W34763  10.278  43.916  10.182
62339W        W34764   2.716  10.200   4.026
62340W        W34765  28.359   2.337   3.209
62341W        W34766  32.325  10.837   1.907
62342W        W34767   1.231  44.853   4.576
62343W        W34768  20.504   9.265   0.107
62344W        W34769  33.949  29.997  10.681
62345W        W34770  15.362   7.202  11.453
62346W        W34771  41.610  29.029   0.159
62347W        W34772  21.716  17.559   4.082
62348W        W34773  36.055   3.940  11.535
62349W        W34774  38.962  31.630   3.207
62350W        W34775  28.996  29.918   0.032
62351W        W34776  18.276  35.073   2.321
62352W        W34777  17.202  28.893  12.211
62353W        W34778  20.762  30.581  13.683
62354W        W34779  14.754  18.503  11.506
62355W        W34780   1.453  33.759   0.462
62356W        W34781  33.177  23.603   1.154
62357W        W34782   3.880  15.812   2.315
62358W        W34783  27.950  26.619  12.643
62359W        W34784  11.329  15.374  14.535
62360W        W34785   1.514   9.737  13.904
62361W        W34786  28.401  39.412  12.865
62362W        W34787  39.918  41.312   4.846
62363W        W34788  36.080   3.187   3.256
62364W        W34789  24.701  29.389  14.089
62365W        W34790  22.563   2.983  11.615
62366W        W34791   7.420   3.249  10.653
62367W        W34792  35.140  39.407   3.261
62368W        W34793  15.492  16.109   2.137
62369W        W34794   4.653  43.422  10.361
62370W        W34795   3.242  39.326  11.052
62371W        W34796  20.615  38.918   2.798
62372W        W34797  25.586  44.438  12.997
62373W        W34798  10.174   6.979  14.250
62374W        W34799   7.930  31.481  13.817
62375W        W34800  28.431   5.859  12.492
62376W        W34801  12.941  28.169   0.404
62377W        W34802  11.280  18.594  11.998
62378W        W34803  43.986  28.145   4.218
62379W        W34804   3.279  28.120  11.643
62380W        W34805   1.247  44.471   0.157
62381W        W34806   0.383   0.856   2.809
62382W        W34807  23.704  21.766   4.600
62383W        W34808   7.066  15.272   1.842
62384W        W34809   8.134  22.636  11.034
62385W        W34810   1.161  28.019   3.965
62386W        W34811  24.873  25.568  11.542
62387W        W34812  35.498   5.976   0.393
62388W        W34813  30.190  35.992  12.938
62389W        W34814   1.369  44.551  12.929
62390W        W34815  18.839  35.110  11.246
62391W        W34816  26.416   8.148  14.945
62392W        W34817   2.017  44.864  11.279
62393W        W34818  38.765  28.340  11.640
62394W        W34819  33.968  26.903  14.368
62395W        W34820   5.511   8.361  14.747
62396W        W34821  38.554  20.141   0.451
62397W        W34822  37.456   1.467  14.981
62398W        W34823  33.061  33.656  12.445
62399W        W34824   4.406  35.923   3.642
62400W        W34825  22.707  17.069   4.163
62401W        W34826  17.260  20.780  14.293
62402W        W34827  28.653   8.208   2.285
62403W        W34828  38.931  29.628  14.841
62404W        W34829   1.189  40.900  11.453
62405W        W34830  41.783   2.458  11.922
62406W        W34831  22.142  24.660  11.636
62407W        W34832   8.076   7.634  12.794
62408W        W34833  26.116  14.360   0.855
62409W        W34834  15.342  34.403  11.061
62410W        W34835  40.225  14.131  10.917
62411W        W34836  30.007  33.071  10.524
62412W        W34837  18.076  29.834   4.588
62413W        W34838  11.771  29.433  11.201
62414W        W34839  30.127  22.649  12.486
62415W        W34840  32.127  24.527  12.113
62416W        W34841  41.250   2.478  13.523
62417W        W34842  27.454  30.851  11.667
62418W        W34843  19.529  25.083  13.860
62419W        W34844  20.401  26.467  12.199
62420W        W34845  11.143   7.440  11.052
62421W        W34846  20.696  16.120  11.553
62422W        W34847  38.931  20.105  11.600
62423W        W34848  35.284  32.213  10.808
62424W        W34849   2.253   6.842  11.173
62425W        W34850  32.624  15.284  12.215
62426W        W34851  21.940   9.232   1.459
62427W        W34852  44.937  38.812   4.636
62428W        W34853  19.069  16.026   4.601
62429W        W34854   8.791  21.120  12.978
62430W        W34855  30.994  27.221  12.036
62431W        W34856   5.053  25.538   4.243
62432W        W34857  16.388  37.501  13.427
62433W        W34858  40.721  21.333  11.144
62434W        W34859  32.863  36.096   1.266
62435W        W34860  21.130  42.152  13.555
62436W        W34861  19.356   5.270   1.763
62437W        W34862  44.890  36.164   4.190
62438W        W34863  21.718  32.564  10.229
62439W        W34864  40.318   1.008   3.211
62440W        W34865  40.425  38.397   3.852
62441W        W34866  20.853  38.722  12.766
62442W        W34867   5.468  22.401   1.942
62443W        W34868  40.525  25.838  12.633
62444W        W34869  41.452  43.401   4.644
62445W        W34870   9.176  43.832  10.676
62446W        W34871  16.006  32.944  13.823
62447W        W34872  18.701  38.317   1.414
62448W        W34873  23.140  41.472  13.870
62449W        W34874  33.968  39.934   1.210
62450W        W34875   5.000  37.406  10.525
62451W        W34876  39.429  41.667  12.623
62452W        W34877  35.941  23.040  10.851
62453W        W34878   1.337  31.188   4.840
62454W        W34879  28.397  15.489   2.221
62455W        W34880  24.983  42.519  13.794
62456W        W34881  38.102  21.307  14.703
62457W        W34882  34.833  23.413  11.685
62458W        W34883  42.421  16.305   4.454
62459W        W34884  12.871  15.813  13.649
62460W        W34885  23.136  16.991  14.828
62461W        W34886  23.622  21.193  12.461
62462W        W34887  10.772  35.846   2.651
62463W        W34888  44.353  21.142   4.148
62464W        W34889  34.829  10.981   0.954
62465W        W34890  40.299  33.862   3.682
62466W        W34891  10.012   3.892   0.521
62467W        W34892  16.392   1.515   1.632
62468W        W34893  30.842   0.695  10.231
62469W        W34894   1.902  13.563  13.447
62470W        W34895  11.118  26.461  13.752
62471W        W34896   0.530   2.891  14.551
62472W        W34897   7.053   9.396   3.370
62473W        W34898   4.322   3.689  12.122
62474W        W34899   5.125  19.636  10.840
62475W        W34900  44.178  29.943  10.685
62476W        W34901  39.081   9.225   2.755
62477W        W34902   7.614  41.474   3.651
62478W        W34903  33.118   4.592   0.282
62479W        W34904  10.864  25.674   2.852
62480W        W34905   1.977  42.917  12.800
62481W        W34906   9.569  37.331  13.530
62482W        W34907  32.031  36.249   1.642
62483W        W34908  10.825  42.776   0.517
62484W        W34909  26.143  33.870   1.790
62485W        W34910   3.759  36.302  13.784
62486W        W34911  44.328  26.466  10.285
62487W        W34912  29.101   8.919   0.233
62488W        W34913   6.910   4.964   3.721
62489W        W34914  10.886  44.208  11.073
62490W        W34915  26.235  22.557  11.610
62491W        W34916  30.358  19.142   4.234
62492W        W34917  29.988  36.564   3.210
62493W        W34918   8.707  33.640   4.206
62494W        W34919  33.324  26.571  10.131
62495W        W34920  16.108  14.237   1.233
62496W        W34921   9.408   2.348  13.011
62497W        W34922  14.148  14.508   2.575
62498W        W34923  15.819  21.963   5.066
62499W        W34924  19.263  16.117  12.908
62500W        W34925  27.547  32.710  14.493
62501W        W34926  34.954   3.231  13.400
62502W        W34927   0.289  27.851   2.128
62503W        W34928  12.618  42.904   4.186
62504W        W34929  36.137  17.231   3.381
62505W        W34930   3.336  24.226  13.652
62506W        W34931   7.343   6.497  10.650
62507W        W34932  32.452  33.540   4.952
62508W        W34933  10.137  34.896  10.442
62509W        W34934  10.298  33.852   2.900
62510W        W34935   4.798   2.439  14.476
62511W        W34936  24.079  28.558   1.904
62512W        W34937  35.521  38.070   0.262
62513W        W34938  28.525  27.699  14.993
62514W        W34939  20.186  38.487   1.821
62515W        W34940  43.767  19.725  14.262
62516W        W34941  33.569  16.388   5.521
62517W        W34942   8.038   8.451  12.507
62518W        W34943  36.690  20.084  11.076
62519W        W34944  39.113  24.343  14.294
62520W        W34945   7.284  38.508   4.212
62521W        W34946   5.437  32.761   1.381
62522W        W34947  24.739  18.764  12.411
62523W        W34948  30.838  31.918   2.256
62524W        W34949  33.443  15.253   0.759
62525W        W34950  43.062   3.031  12.250
62526W        W34951  23.979   6.167   1.877
62527W        W34952  33.108  24.606  14.136
62528W        W34953  11.807  13.559  11.197
62529W        W34954  29.137  44.389   4.514
62530W        W34955  27.962   5.919  11.609
62531W        W34956  24.644  26.692  11.919
62532W        W34957  31.067  14.671   3.836
62533W        W34958   1.983  39.328  14.064
62534W        W34959  28.181  43.664   0.796
62535W        W34960   8.500  20.196  10.598
62536W        W34961   0.119  13.821  14.394
62537W        W34962  41.643   5.423  10.516
62538W        W34963  42.095  21.002  11.949
62539W        W34964  39.265  24.180   2.380
62540W        W34965  35.110  22.566   0.058
62541W        W34966   6.181  36.289   9.746
62542W        W34967  12.769  29.238  11.906
62543W        W34968   9.873  22.051   2.641
62544W        W34969   0.476  20.580  12.368
62545W        W34970   3.446  40.301  11.000
62546W        W34971  41.541  37.458   1.858
62547W        W34972  44.848  15.061   0.739
62548W        W34973  27.358  30.496  12.045
62549W        W34974  12.310   6.859  11.552
62550W        W34975  31.916  43.303   4.033
62551W        W34976  30.820  40.944  13.600
62552W        W34977  14.645   3.090   2.769
62553W        W34978  16.780  12.672   0.494
62554W        W34979   0.495  44.265   2.308
62555W        W34980  18.889  11.276   4.280
62556W        W34981  32.057  29.524  12.618
62557W        W34982  12.374  15.267  12.452
62558W        W34983  18.785   7.645   0.262
62559W        W34984  31.606   0.991   0.422
62560W        W34985  18.515  10.884  14.449
62561W        W34986  18.117  40.742  10.773
62562W        W34987  11.796   8.874   2.325
62563W        W34988  33.400   3.762   2.200
62564W        W34989   0.752   0.172   2.383
62565W        W34990  15.468  43.218  14.520
62566W        W34991   2.294  11.978   3.272
62567W        W34992  21.563  21.695   0.205
62568W        W34993  34.116  15.796  11.133
62569W        W34994  16.553   9.287  11.822
62570W        W34995  15.491  25.610  12.634
62571W        W34996  37.516  31.892   1.191
62572W        W34997   7.899  41.560   3.199
62573W        W34998  40.797  15.241  14.562
62574W        W34999  41.183  32.515  12.851
62575W        W35000  13.095  27.591   2.443
62576W        W35001  23.602   2.457   2.247
62577W        W35002  16.612  30.986   0.886
62578W        W35003   5.267  22.462   3.315
62579W        W35004   4.948  33.118   9.974
62580W        W35005  10.380   0.931   4.713
62581W        W35006  10.851  39.519   2.224
62582W        W35007  40.402  15.589   1.286
62583W        W35008  31.697   3.212  13.932
62584W        W35009   1.523  25.439  10.663
62585W        W35010  41.491  23.231  13.451
62586W        W35011  44.536  24.739  11.131
62587W        W35012   6.730  44.947  10.835
62588W        W35013  39.586  23.283   3.311
62589W        W35014  17.358   9.703  11.670
62590W        W35015  22.794  30.779   1.507
62591W        W35016   7.111  35.695  13.493
62592W        W35017  42.212  39.692   0.067
62593W        W35018  18.646  35.123   5.069
62594W        W35019  11.606  40.887   0.697
62595W        W35020  31.527   9.740   4.869
62596W        W35021  19.664  29.557   3.280
62597W        W35022  21.254   4.674   1.858
62598W        W35023  32.437  33.670   2.443
62599W        W35024  13.111  41.765  11.072
62600W        W35025   3.665  36.518  10.570
62601W        W35026   0.539   8.842   0.300
62602W        W35027  39.440   9.328  12.069
62603W        W35028  12.277  19.944   1.948
62604W        W35029  44.474  39.238  11.470
62605W        W35030   6.373   4.128  13.462
62606W        W35031  26.417  24.561  11.232
62607W        W35032  15.132  23.718   9.822
62608W        W35033  16.976  21.571   4.104
62609W        W35034  12.146  42.882  13.392
62610W        W35035   2.362  40.013   1.620
62611W        W35036  24.052  43.502   3.580
62612W        W35037   7.165  39.609   1.278
62613W        W35038   9.909  23.498  13.749
62614W        W35039  14.486  23.466  10.663
62615W        W35040  32.143  26.881  11.302
62616W        W35041  39.881  24.777   1.181
62617W        W35042  25.551  24.196   2.725
62618W        W35043  23.524   8.001  11.001
62619W        W35044  28.069  13.703   1.436
62620W        W35045  34.978  38.381   1.327
62621W        W35046  36.916  29.059  13.277
62622W        W35047  30.932  10.775   3.223
62623W        W35048  18.187  27.801   3.334
62624W        W35049   3.200  17.559   1.493
62625W        W35050  20.495  26.688  14.469
62626W        W35051  20.740   1.992  12.478
62627W        W35052  24.055  18.366   2.224
62628W        W35053   6.462   3.746  12.023
62629W        W35054  14.633  33.578  12.526
62630W        W35055  36.124  39.366  14.309
62631W        W35056  33.642   1.999   3.291
62632W        W35057  12.734  29.168  13.586
62633W        W35058  33.451  14.740   0.345
62634W        W35059  36.753  25.021  14.596
62635W        W35060  31.618  34.042   1.499
62636W        W35061  13.853  18.046  12.742
62637W        W35062  38.827   5.626  12.056
62638W        W35063   9.316  34.733   1.381
62639W        W35064  25.177  38.128   4.216
62640W        W35065  35.681   2.389  10.650
62641W        W35066  15.063   0.744  12.060
62642W        W35067  24.040   6.435   0.014
62643W        W35068  20.681  27.153   1.664
62644W        W35069  30.675  15.362  10.628
62645W        W35070  22.247  15.644   4.208
62646W        W35071  13.207  23.240   2.406
62647W        W35072  11.816  21.978   3.791
62648W        W35073  17.777  27.447  11.492
62649W        W35074  22.980  33.463  14.239
62650W        W35075   1.724  18.845   4.592
62651W        W35076   7.104   9.307   0.790
62652W        W35077  38.853  14.312  13.532
62653W        W35078   1.196  28.456   4.645
62654W        W35079  39.775   6.646   1.715
62655W        W35080  43.743  32.811  14.974
62656W        W35081  28.063  31.085  11.221
62657W        W35082  40.452  39.106   4.613
62658W        W35083  17.660   2.722   0.270
62659W        W35084  11.711  18.892   1.373
62660W        W35085  23.577  17.440  14.906
62661W        W35086  28.211  14.493  11.073
62662W        W35087  29.756  15.479   5.144
62663W        W35088  43.063  27.045  13.332
62664W        W35089  11.771  19.972  13.564
62665W        W35090   6.961  37.308   1.243
62666W        W35091   9.769  29.451   0.965
62667W        W35092  11.206  34.031   2.194
62668W        W35093   0.916  23.144   2.908
62669W        W35094   2.813   3.220   3.325
62670W        W35095  28.463   1.197   3.124
62671W        W35096  38.478  30.915  10.800
62672W        W35097  40.061  25.165  14.770
62673W        W35098   3.741  31.689  14.772
62674W        W35099  24.521  10.010  10.604
62675W        W35100   2.071   5.420  10.664
62676W        W35101  13.186   8.343   2.381
62677W        W35102  19.110  15.767  14.472
62678W        W35103  11.292   2.980   0.747
62679W        W35104   4.226  44.939   1.210
62680W        W35105  18.103  15.617  10.614
62681W        W35106  13.517  11.757  13.511
62682W        W35107   0.955  29.160  10.745
62683W        W35108   5.165  33.373  13.314
62684W        W35109  40.918  40.229   2.829
62685W        W35110   3.980  33.581  14.832
62686W        W35111  37.764  22.930  11.853
62687W        W35112   7.949  20.405  12.450
62688W        W35113  24.531  25.967  12.596
62689W        W35114  30.555  30.805   1.367
62690W        W35115  24.012   3.474   0.616
62691W        W35116   8.975  17.219   4.178
62692W        W35117  21.482  20.890   1.340
62693W        W35118  38.464  39.099  13.387
62694W        W35119  10.321  10.557   2.534
62695W        W35120  28.179   1.737   4.703
62696W        W35121  44.987   9.217  10.598
62697W        W35122  29.559  12.614   2.903
62698W        W35123  36.356  18.857   4.166
62699W        W35124  26.008  30.704  10.554
62700W        W35125  16.392  39.124   4.033
62701W        W35126  26.207   8.112  13.576
62702W        W35127  17.746   5.893  11.316
62703W        W35128  11.839  23.971  11.844
62704W        W35129   5.738  41.885   2.019
62705W        W35130  41.340  43.579  10.432
62706W        W35131  42.569  16.267  14.344
62707W        W35132  27.748  33.886   4.583
62708W        W35133  26.897  32.475   2.187
62709W        W35134  27.958  32.447   0.318
62710W        W35135   9.729  44.324  13.212
62711W        W35136  35.403  33.411  13.951
62712W        W35137  44.741  11.279  12.111
62713W        W35138  17.078  30.759   0.234
62714W        W35139  42.833   7.447  13.347
62715W        W35140  26.195  39.458   0.880
62716W        W35141   0.063  25.400  10.423
62717W        W35142   0.297   3.331  14.394
62718W        W35143   8.492  36.499   4.218
62719W        W35144  20.455  34.017  14.373
62720W        W35145   3.901   0.382  10.619
62721W        W35146   5.652  26.022   2.678
62722W        W35147  15.109   4.403   4.103
62723W        W35148  43.475   4.263  10.433
62724W        W35149  32.989  43.264   4.615
62725W        W35150  35.552  42.567  12.464
62726W        W35151  10.317  36.974   4.553
62727W        W35152  25.006  19.597  10.463
62728W        W35153   9.099  39.896  12.072
62729W        W35154  25.722   2.131   2.767
62730W        W35155   1.512   9.666   1.596
62731W        W35156  22.608   1.216  12.880
62732W        W35157  25.529  28.190   2.853
62733W        W35158   2.806  38.236  13.168
62734W        W35159  33.051  37.278   3.135
62735W        W35160  39.801  22.576   1.899
62736W        W35161   1.014  39.314  12.569
62737W        W35162  11.010   9.637  10.060
62738W        W35163  38.333  13.592  13.024
62739W        W35164  15.169   3.667  11.644
62740W        W35165   2.680   9.990  13.154
62741W        W35166  44.673  36.885   2.325
62742W        W35167  15.084   2.010  12.635
62743W        W35168  18.329   4.784  14.762
62744W        W35169  44.720  31.077   4.606
62745W        W35170  23.471  10.156   4.733
62746W        W35171  11.667   7.192   2.251
62747W        W35172  21.675  26.493  13.090
62748W        W35173  17.660  30.209  14.897
62749W        W35174  25.598  22.028   0.950
62750W        W35175  34.990  30.689  13.009
62751W        W35176  30.920   2.741   2.167
62752W        W35177   6.375  22.495   1.386
62753W        W35178   6.825   8.504   4.527
62754W        W35179  24.499  21.652  10.904
62755W        W35180   8.134  32.023   4.650
62756W        W35181   6.183  16.872  11.985
62757W        W35182   4.389  33.556  12.412
62758W        W35183  30.292  32.285  13.908
62759W        W35184  17.761  12.597  12.977
62760W        W35185  27.745  18.360   2.792
62761W        W35186  15.104   9.359  10.668
62762W        W35187  13.237  42.985   0.002
62763W        W35188  10.798  35.636  11.226
62764W        W35189  33.723  16.194   0.911
62765W        W35190  17.803  31.942   1.438
62766W        W35191  28.695  39.244  11.134
62767W        W35192   9.137  20.325   1.882
62768W        W35193   9.600   0.881  13.382
62769W        W35194   4.787  17.936   1.275
62770W        W35195  14.571  44.462  12.429
62771W        W35196  10.557  36.604  14.301
62772W        W35197   1.044  35.816  13.891
62773W        W35198   7.680   5.738  11.123
62774W        W35199  25.737  24.600  11.788
62775W        W35200   6.437  44.442  12.132
62776W        W35201  10.332  27.493   0.158
62777W        W35202  17.517  10.541   2.423
62778W        W35203  24.751  20.273   0.201
62779W        W35204  16.780  42.240   2.284
62780W        W35205  12.929   0.745   1.751
62781W        W35206  25.130   1.029   2.096
62782W        W35207  44.016  39.068  11.210
62783W        W35208  30.684  39.886  12.471
62784W        W35209  30.606   8.801  10.844
62785W        W35210  26.442  17.675   0.841
62786W        W35211  44.555  34.903   3.689
62787W        W35212  24.561   0.490   4.094
62788W        W35213  18.131  15.223  13.061
62789W        W35214  33.989  28.703   1.264
62790W        W35215  27.418  41.118   0.703
62791W        W35216  32.652   3.703   5.254
62792W        W35217  24.224  26.478  11.724
62793W        W35218  34.541  17.342  12.540
62794W        W35219  41.314  14.593  10.832
62795W        W35220  35.325  34.400  12.787
62796W        W35221  26.143   2.492  10.622
62797W        W35222  26.432  17.884   1.331
62798W        W35223  37.593   9.364   2.283
62799W        W35224  17.053  13.335  14.403
62800W        W35225  11.199  44.868  13.752
62801W        W35226  10.822  26.407   2.339
62802W        W35227  13.822  25.481  13.950
62803W        W35228   0.893   2.174   3.412
62804W        W35229   7.658  11.671  10.433
62805W        W35230  41.913  11.390  12.351
62806W        W35231  42.256  42.474   2.342
62807W        W35232  12.641   2.322   3.289
62808W        W35233   1.235  13.813   3.820
62809W        W35234  18.657   3.492  11.104
62810W        W35235  11.649   6.735   9.951
62811W        W35236  13.690  16.111   3.772
62812W        W35237   3.734  28.195  11.913
62813W        W35238  41.868  19.795   0.669
62814W        W35239  43.367   5.731   2.950
62815W        W35240  21.266  20.716  13.420
62816W        W35241  42.007   9.424  10.729
62817W        W35242   8.021  44.432   1.978
62818W        W35243  11.783  41.492   2.382
62819W        W35244  21.723   6.519   1.799
62820W        W35245   1.368  15.566  13.007
62821W        W35246  28.597   4.325   0.246
62822W        W35247   6.283  16.600   1.895
62823W        W35248  35.292  13.691   2.294
62824W        W35249   1.802   5.288   1.507
62825W        W35250   3.835  20.718  10.695
62826W        W35251   7.934  37.711  11.842
62827W        W35252  38.457   4.958   3.636
62828W        W35253  35.407  43.178   0.350
62829W        W35254   5.246   6.997   4.920
62830W        W35255  41.909   1.388  11.663
62831W        W35256  40.782  12.788  10.687
62832W        W35257  36.067  18.577  13.860
62833W        W35258  10.781   1.194  13.335
62834W        W35259   4.378  35.267   0.281
62835W        W35260  14.346  11.139  10.745
62836W        W35261   6.360  18.945  11.150
62837W        W35262  13.682  36.082  13.920
62838W        W35263  16.363  18.307   3.322
62839W        W35264  17.612  12.888  12.532
62840W        W35265  35.158   1.356   4.361
62841W        W35266   3.758  38.415   2.886
62842W        W35267  16.743  12.486   1.815
62843W        W35268  18.055  15.363  14.066
62844W        W35269  37.313  34.292   0.810
62845W        W35270  17.541  15.104   2.241
62846W        W35271  35.451  11.894   1.439
62847W        W35272   6.026  42.360   3.362
62848W        W35273  28.116  43.723   1.655
62849W        W35274   1.419  27.097   0.560
62850W        W35275   5.729  19.112  11.582
62851W        W35276  33.410  19.951   1.461
62852W        W35277   2.480  27.993   0.719
62853W        W35278  20.483   8.538   3.104
62854W        W35279  25.033  25.888   2.313
62855W        W35280  27.509  40.514  10.651
62856W        W35281   2.441  10.208  12.067
62857W        W35282  17.730  17.190  11.561
62858W        W35283  12.169  33.917  13.783
62859W        W35284  19.596  42.146  10.786
62860W        W35285  13.258   4.772   0.021
62861W        W35286  27.336   0.283   2.657
62862W        W35287  27.062  34.409   2.873
62863W        W35288  24.001   2.723  13.836
62864W        W35289  32.808  19.234  13.402
62865W        W35290  24.697  29.642   1.331
62866W        W35291  12.393  23.104   0.751
62867W        W35292  32.340  43.067   3.886
62868W        W35293  31.572   7.278  13.952
62869W        W35294  17.941  34.356  11.152
62870W        W35295   5.219  26.040   1.835
62871W        W35296  31.777  26.042  10.634
62872W        W35297  29.995  21.734   4.528
62873W        W35298  23.491  33.563   3.318
62874W        W35299  16.014  26.299  13.183
62875W        W35300  36.216  12.289  12.386
62876W        W35301  39.052  16.106   2.531
62877W        W35302   1.537  40.997   3.537
62878W        W35303   0.382  30.589  14.299
62879W        W35304  32.435  44.144   2.409
62880W        W35305  23.067  21.634   2.337
62881W        W35306  34.819  43.735   2.208
62882W        W35307  41.992  16.103  11.116
62883W        W35308  24.443  13.007  13.464
62884W        W35309  44.963  20.799  13.551
62885W        W35310  13.180  35.295  12.087
62886W        W35311   9.660   8.333   5.542
62887W        W35312  39.081  20.565   0.776
62888W        W35313  24.209  13.276  12.176
62889W        W35314  21.350   6.777   2.042
62890W        W35315   0.759   2.582  10.887
62891W        W35316  37.063  32.602  11.036
62892W        W35317   7.333   4.750  10.290
62893W        W35318  13.111   7.801  11.487
62894W        W35319  14.183  18.482   3.710
62895W        W35320  27.655  43.206   2.338
62896W        W35321  30.147   3.408   0.451
62897W        W35322  36.327   3.199  14.324
62898W        W35323  24.736   8.513  13.038
62899W        W35324  31.022  25.549  12.661
62900W        W35325  26.524  33.363  13.128
62901W        W35326  14.739   0.476  14.543
62902W        W35327  10.195  36.364  13.524
62903W        W35328  16.250   9.950  10.496
62904W        W35329   8.259   7.469  12.369
62905W        W35330  39.895  22.993   0.897
62906W        W35331  35.103  18.170   0.929
62907W        W35332   4.875  24.796  10.503
62908W        W35333  38.475   6.741  12.359
62909W        W35334   9.379   6.823  13.973
62910W        W35335  41.897  20.071  12.366
62911W        W35336  40.943   9.453  13.980
62912W        W35337  29.512  18.452  12.596
62913W        W35338  12.701  24.597   0.141
62914W        W35339  43.460  35.180   3.307
62915W        W35340   2.888  26.621  12.096
62916W        W35341  19.975  15.746  11.678
62917W        W35342  22.519  30.052   2.625
62918W        W35343  38.883  35.186  13.761
62919W        W35344  44.146   3.943   4.613
62920W        W35345  33.632  17.011  12.040
62921W        W35346  11.747  36.136  14.386
62922W        W35347  36.579   7.495  11.526
62923W        W35348  37.316  16.649  12.526
62924W        W35349  35.979  38.119   0.440
62925W        W35350  35.407   6.232  13.296
62926W        W35351  36.474  12.056   1.623
62927W        W35352  38.076  31.202  11.171
62928W        W35353  32.206  13.705   2.747
62929W        W35354  41.100  17.193   4.620
62930W        W35355  14.246  16.055   0.673
62931W        W35356  34.480  40.581   2.924
62932W        W35357   5.783   8.796   0.490
62933W        W35358  13.150  41.344   4.121
62934W        W35359   7.719  22.606   3.728
62935W        W35360   2.353  23.718  10.787
62936W        W35361  30.228  15.646   3.723
62937W        W35362  32.480  23.716  13.089
62938W        W35363   3.518  34.447   3.619
62939W        W35364  36.802   8.585   0.826
62940W        W35365  15.093   0.235  12.886
62941W        W35366  33.486  24.220  14.143
62942W        W35367  34.952   2.185  13.452
62943W        W35368  20.338  42.776  13.407
62944W        W35369  34.316  13.521  13.997
62945W        W35370   4.832  35.563  13.863
62946W        W35371  30.432  32.203   3.038
62947W        W35372  42.355  41.901  11.766
62948W        W35373  32.800  19.660   4.690
62949W        W35374   2.748   2.972  14.407
62950W        W35375  20.803  43.538   2.186
62951W        W35376  20.957   8.065  14.242
62952W        W35377  13.221  15.700  10.329
62953W        W35378  30.294  28.938  13.575
62954W        W35379  18.147  29.725   1.240
62955W        W35380  24.056  38.756  11.577
62956W        W35381  39.776   5.722   4.316
62957W        W35382  32.384  41.837   2.719
62958W        W35383  17.761  41.261   3.615
62959W        W35384  22.105  34.930   1.311
62960W        W35385  31.683  22.850  13.016
62961W        W35386  37.466   9.333   3.376
62962W        W35387  42.379  42.790  13.679
62963W        W35388  29.593  11.893  13.475
62964W        W35389  13.140   2.555  14.793
62965W        W35390  24.859   0.783   1.682
62966W        W35391  40.395  36.438   0.955
62967W        W35392  23.669   2.702  14.431
62968W        W35393   0.966  28.415  14.339
62969W        W35394  33.491  39.876   2.392
62970W        W35395  43.915  19.750   1.677
62971W        W35396  31.566  14.811   0.004
62972W        W35397  33.487   1.355   1.376
62973W        W35398  44.397   7.621  13.454
62974W        W35399  28.053  30.368  12.347
62975W        W35400  38.357  15.735  13.120
62976W        W35401  29.028  38.857  11.116
62977W        W35402  10.802  14.120   1.986
62978W        W35403  37.941  13.275   4.379
62979W        W35404  25.121  26.767  13.981
62980W        W35405  38.091  27.120   2.946
62981W        W35406  24.058  18.930  12.840
62982W        W35407  39.942  34.009   3.227
62983W        W35408   8.277   9.905  12.392
62984W        W35409   5.675  30.916  10.738
62985W        W35410  30.969  15.005   3.484
62986W        W35411  29.683  43.553  13.631
62987W        W35412  34.137  41.814  12.234
62988W        W35413  36.113  28.973  10.719
62989W        W35414  27.473  16.407  12.615
62990W        W35415  21.786  41.582  12.072
62991W        W35416  22.189  16.400   4.433
62992W        W35417  18.579  13.676   4.732
62993W        W35418  18.735  12.571   2.669
62994W        W35419  14.330  14.587   3.577
62995W        W35420   2.258  18.711   1.327
62996W        W35421  34.317  14.178   4.300
62997W        W35422  39.004  17.142  13.421
62998W        W35423   6.981  20.167   0.944
62999W        W35424  39.411  33.561   0.791
63000W        W35425  41.149  37.397   0.946
63001W        W35426  39.813  33.601   0.439
63002W        W35427   4.927  15.128  11.143
63003W        W35428   3.405  25.774   0.334
63004W        W35429   8.617  26.205  12.906
63005W        W35430   7.332  16.418   4.273
63006W        W35431   2.731  24.406  14.529
63007W        W35432   2.498   2.776  10.646
63008W        W35433  39.972   1.300   3.544
63009W        W35434  39.896  43.759  14.684
63010W        W35435  36.520  38.297   2.942
63011W        W35436   5.356   2.798  11.845
63012W        W35437  37.864  27.798   0.053
63013W        W35438   1.781   4.907   3.573
63014W        W35439  28.381  20.339   0.943
63015W        W35440   4.432   3.952  14.868
63016W        W35441  16.717  12.257  14.757
63017W        W35442  18.686  17.202   4.717
63018W        W35443  42.329  25.483   1.945
63019W        W35444   3.555  31.033  11.013
63020W        W35445  11.640  34.491  12.189
63021W        W35446  30.718   0.917   3.100
63022W        W35447  21.448  14.626  12.661
63023W        W35448  16.340  24.578  11.052
63024W        W35449  40.831  21.513  11.609
63025W        W35450   3.539  31.617  11.701
63026W        W35451  24.599  26.712   1.687
63027W        W35452  32.627  37.594  12.068
63028W        W35453  18.066  29.406   3.221
63029W        W35454  42.127  18.666  14.839
63030W        W35455  38.421  14.318   4.725
63031W        W35456  28.447   6.372  12.595
63032W        W35457   4.063  37.520  13.063
63033W        W35458  28.118  11.771  10.663
63034W        W35459  41.779  20.673  13.014
63035W        W35460  16.749   9.894   1.391
63036W        W35461  26.986  12.730  10.704
63037W        W35462  21.342  26.088  13.472
63038W        W35463  30.826  30.252   4.322
63039W        W35464  10.326   2.754   1.469
63040W        W35465  31.333  31.946  11.653
63041W        W35466  22.705  41.411   1.962
63042W        W35467   5.402   9.664  11.527
63043W        W35468  31.131  23.816  11.452
63044W        W35469   2.160  33.525  10.193
63045W        W35470  17.063   3.371   3.637
63046W        W35471  40.059   3.199  14.964
63047W        W35472  41.061  12.374   0.173
63048W        W35473  42.005  10.132  13.362
63049W        W35474  23.241  39.607   1.241
63050W        W35475  41.692   9.842   3.843
63051W        W35476  13.712   5.907  13.901
63052W        W35477  31.642   3.517   0.565
63053W        W35478  42.846  24.225   5.185
63054W        W35479  20.287  39.343  13.804
63055W        W35480   7.720  39.074   3.124
63056W        W35481  31.591  13.794  13.267
63057W        W35482  31.602  39.492   4.378
63058W        W35483  44.230  36.076  13.509
63059W        W35484  19.408  25.194  14.881
63060W        W35485  17.605  16.747   1.912
63061W        W35486  34.016   3.694  11.247
63062W        W35487  44.005   3.943  11.633
63063W        W35488  11.694  28.069  13.787
63064W        W35489  16.141   4.099  13.327
63065W        W35490   2.977  42.472   3.740
63066W        W35491   3.844  22.584   2.716
63067W        W35492   6.233  43.288   4.579
63068W        W35493  29.014  42.290   4.042
63069W        W35494  44.617  30.892  12.083
63070W        W35495  22.270  44.446   4.164
63071W        W35496  22.691  12.630  13.575
63072W        W35497  21.038   0.351   2.248
63073W        W35498  29.653  38.042   1.968
63074W        W35499  42.122  31.884   0.866
63075W        W35500  39.081  16.537   4.086
63076W        W35501  16.711   2.461  12.037
63077W        W35502  27.629  37.263   1.486
63078W        W35503  24.243   3.452   3.152
63079W        W35504  16.207  20.033   4.902
63080W        W35505  22.077  42.703  12.032
63081W        W35506   8.569  20.021  12.080
63082W        W35507  21.271  32.328   3.066
63083W        W35508   4.025  12.209  11.370
63084W        W35509  35.822   7.204   2.841
63085W        W35510  42.324   1.973  11.873
63086W        W35511  17.554  13.182   1.670
63087W        W35512  10.752  18.969  11.040
63088W        W35513   8.826  28.123   2.815
63089W        W35514  17.545  16.050   0.955
63090W        W35515  14.365  17.041  12.003
63091W        W35516  27.430  37.137  13.992
63092W        W35517  12.244  19.742  13.899
63093W        W35518  38.978  12.841  11.415
63094W        W35519   5.668   1.523  11.137
63095W        W35520  14.709   9.134   0.472
63096W        W35521  23.193  12.993  14.375
63097W        W35522   6.716  26.888  11.441
63098W        W35523   7.418  42.887   0.870
63099W        W35524  14.714  23.998   2.926
63100W        W35525  24.469   5.993   1.842
63101W        W35526  41.247  22.865   1.895
63102W        W35527  36.518   5.702  12.432
63103W        W35528  25.897  17.771   0.143
63104W        W35529   8.464  24.454  13.045
63105W        W35530   6.545  44.198  11.208
63106W        W35531   1.746  30.066   0.353
63107W        W35532  38.398   7.012  11.944
63108W        W35533   4.450   7.828  10.635
63109W        W35534  42.799  17.265  10.636
63110W        W35535  38.342  36.505  13.333
63111W        W35536  34.799  19.027  12.512
63112W        W35537  15.206  12.300  14.717
63113W        W35538  12.143  13.277   0.641
63114W        W35539  29.371   3.747  14.292
63115W        W35540   3.835  19.263  13.391
63116W        W35541  21.695  20.782  12.784
63117W        W35542  20.740  23.586   1.755
63118W        W35543  19.068  18.104  13.972
63119W        W35544  16.064   4.442   2.717
63120W        W35545  40.536  23.750   0.346
63121W        W35546  18.939   0.843   4.480
63122W        W35547  33.644  19.021  12.048
63123W        W35548   0.369  36.418  11.727
63124W        W35549  22.564  18.022  14.888
63125W        W35550  43.350   6.634   4.877
63126W        W35551   4.482  27.056  12.909
63127W        W35552  43.491  27.665  12.777
63128W        W35553   2.189   1.218   3.165
63129W        W35554  13.907   3.302  12.091
63130W        W35555  38.725  28.861  13.336
63131W        W35556   0.314  13.755   2.657
63132W        W35557   0.413  11.105  11.809
63133W        W35558  20.356  24.621  14.501
63134W        W35559  24.168  29.262   4.114
63135W        W35560   5.831  26.042  10.743
63136W        W35561   8.455   6.871  10.686
63137W        W35562   7.168   6.328   3.601
63138W        W35563  21.558  27.487   0.817
63139W        W35564  34.658   3.301  10.793
63140W        W35565  15.846  40.074   2.376
63141W        W35566   8.379  27.001  14.858
63142W        W35567   7.236  32.114   1.448
63143W        W35568   6.741  10.606  13.923
63144W        W35569   8.254   3.346   0.925
63145W        W35570   9.583  36.288  13.766
63146W        W35571  35.881  40.639   0.323
63147W        W35572  40.466   0.029   4.613
63148W        W35573  32.341  22.038  13.093
63149W        W35574  28.084  44.889   0.482
63150W        W35575  39.339   8.341  11.174
63151W        W35576  42.418  20.288   3.252
63152W        W35577  39.241  22.232   0.505
63153W        W35578  25.492  41.314   4.524
63154W        W35579   8.953  35.043   0.368
63155W        W35580   7.746  21.579  13.089
63156W        W35581   5.226  13.935  12.231
63157W        W35582  17.615  44.706   0.394
63158W        W35583  41.311  36.979  11.004
63159W        W35584  42.846  11.844  13.183
63160W        W35585   8.935  34.429   1.220
63161W        W35586  24.567  32.964   4.627
63162W        W35587  17.654  16.656   4.146
63163W        W35588  40.377   5.682  13.488
63164W        W35589  26.817  26.905  13.288
63165W        W35590  24.944  40.935  11.840
63166W        W35591  43.962  39.810  10.667
63167W        W35592  34.139  29.811   1.691
63168W        W35593  22.833  34.448   0.899
63169W        W35594  29.583  43.163  13.267
63170W        W35595  10.343   0.894   0.231
63171W        W35596  39.507   9.876  11.402
63172W        W35597  33.422  28.622  10.680
63173W        W35598  19.972  40.227   3.175
63174W        W35599  33.948  30.473  12.598
63175W        W35600  15.118   7.936   3.878
63176W        W35601  12.365  24.036  14.765
63177W        W35602  40.824  37.984  12.462
63178W        W35603  27.566  44.477   3.641
63179W        W35604  23.714   1.505   2.961
63180W        W35605   4.868   2.649   2.727
63181W        W35606  12.169   3.699  13.098
63182W        W35607  26.058  17.977  14.412
63183W        W35608  22.174   5.993  14.293
63184W        W35609   8.830  44.499  12.103
63185W        W35610  26.112   3.750  12.498
63186W        W35611  42.211   6.339  13.340
63187W        W35612   5.759  17.330   0.751
63188W        W35613  13.599  42.963  12.547
63189W        W35614   7.688   9.909   1.862
63190W        W35615  27.339  41.416   2.906
63191W        W35616  40.000  38.780  10.492
63192W        W35617  13.224  16.244   2.811
63193W        W35618  35.796  41.143   0.472
63194W        W35619  22.228  30.144  12.919
63195W        W35620  38.862  13.629   3.741
63196W        W35621  13.820   4.465  14.032
63197W        W35622  42.529  33.632  12.853
63198W        W35623  29.540  37.116   4.134
63199W        W35624  42.720  25.196   4.388
63200W        W35625   5.907   0.695   0.414
63201W        W35626  11.998  29.816   4.381
63202W        W35627  39.731   8.648  11.006
63203W        W35628  22.717  32.982   3.505
63204W        W35629   9.175   8.353   4.639
63205W        W35630   9.830  31.605   1.847
63206W        W35631  29.322   8.174  14.800
63207W        W35632  33.594  11.252   1.898
63208W        W35633   0.801  44.346  13.468
63209W        W35634  44.069  35.071   2.352
63210W        W35635  23.535  23.925   3.217
63211W        W35636   3.259  44.687  10.504
63212W        W35637  33.780  16.291  12.563
63213W        W35638  35.998  23.721   1.784
63214W        W35639  17.761  23.292   1.248
63215W        W35640   7.248  43.494  12.329
63216W        W35641  27.456  17.340   3.682
63217W        W35642  17.742  33.493  12.385
63218W        W35643  23.809   6.737   2.271
63219W        W35644   5.265   7.336  10.894
63220W        W35645  37.629  26.122   1.788
63221W        W35646  14.326  14.393  14.012
63222W        W35647  17.692   1.392   4.539
63223W        W35648  21.376  23.057   0.084
63224W        W35649  14.723  21.828   5.671
63225W        W35650  17.670  44.491  12.104
63226W        W35651   8.940  35.298  11.599
63227W        W35652  36.109  26.418   2.906
63228W        W35653  18.671  12.125   0.875
63229W        W35654  17.912   5.361   4.266
63230W        W35655   4.715  29.784   0.963
63231W        W35656  12.294  32.202   3.051
63232W        W35657  16.365  24.051  11.097
63233W        W35658  44.723  35.747  11.655
63234W        W35659  26.438  38.828   4.215
63235W        W35660  10.355  18.743  13.549
63236W        W35661  34.083  39.383  14.284
63237W        W35662  33.551  13.114   4.502
63238W        W35663  31.359   6.777   5.103
63239W        W35664  25.945  42.810  10.685
63240W        W35665  29.511  14.700  11.494
63241W        W35666  42.830  22.125  14.729
63242W        W35667  10.375  19.458  13.938
63243W        W35668  17.072  31.963   2.725
63244W        W35669  18.096  27.724  10.602
63245W        W35670  40.201  14.704   3.964
63246W        W35671  17.006   3.014   1.258
63247W        W35672  39.203  41.178  11.016
63248W        W35673   6.821  33.581   1.866
63249W        W35674  12.639   9.776   1.194
63250W        W35675  34.282  19.069   0.409
63251W        W35676  27.536  15.245  10.750
63252W        W35677  36.131  22.246   2.876
63253W        W35678  12.786   4.622   0.210
63254W        W35679  30.580  33.946   4.640
63255W        W35680  37.044   5.654   1.743
63256W        W35681  13.203  19.312  13.879
63257W        W35682  41.349  15.614  11.788
63258W        W35683  27.731  13.600  11.116
63259W        W35684   9.638   2.208   3.147
63260W        W35685  16.572  39.784  13.436
63261W        W35686  10.595   1.295  11.577
63262W        W35687  31.880  15.109   3.160
63263W        W35688  14.660  27.487   1.810
63264W        W35689   6.500   8.669   3.180
63265W        W35690  20.932  29.469   4.118
63266W        W35691   0.568  33.576   4.713
63267W        W35692  23.686  26.170  14.033
63268W        W35693   5.511  29.695  14.808
63269W        W35694   6.956  24.127  12.923
63270W        W35695  28.483  33.951  10.702
63271W        W35696  38.066  38.160   3.225
63272W        W35697  18.203  16.124  12.709
63273W        W35698  39.531  21.829   0.658
63274W        W35699  22.082   2.715  11.596
63275W        W35700  13.595  42.281   2.863
63276W        W35701  17.976  38.895  10.919
63277W        W35702   6.768   4.213   4.463
63278W        W35703  31.099   8.550   3.270
63279W        W35704  37.866   8.388   4.489
63280W        W35705  10.680  36.296   4.744
63281W        W35706  41.272  43.909   2.885
63282W        W35707  10.450  22.421  12.661
63283W        W35708  21.716  21.198   2.207
63284W        W35709  41.015  21.511  10.723
63285W        W35710  22.419  44.017   1.905
63286W        W35711  33.629   2.191   1.567
63287W        W35712  16.518  26.257  13.027
63288W        W35713   8.780  27.946  11.975
63289W        W35714   8.631  42.529   4.252
63290W        W35715   5.348   0.842  12.487
63291W        W35716  27.077  15.548  11.920
63292W        W35717  11.029  32.587  14.804
63293W        W35718   7.395  24.170   0.282
63294W        W35719  23.247   9.701  10.598
63295W        W35720  16.083  16.859  13.804
63296W        W35721  39.619  41.044  11.911
63297W        W35722  23.232  41.745   2.321
63298W        W35723  27.443  17.797  12.394
63299W        W35724  23.564  18.170   2.170
63300W        W35725  28.805   2.789   2.269
63301W        W35726  36.103  11.692   2.259
63302W        W35727  42.331  28.700  13.585
63303W        W35728  31.874  18.999  13.970
63304W        W35729  40.509   4.413   1.654
63305W        W35730   3.897  37.007   0.334
63306W        W35731   6.736   1.993  13.485
63307W        W35732  36.203  29.806  14.985
63308W        W35733  33.443  23.640   1.625
63309W        W35734   3.266  42.942   0.661
63310W        W35735   9.758   4.951   3.711
63311W        W35736  40.959  41.342  12.050
63312W        W35737   9.735  18.740   3.839
63313W        W35738  22.514  35.101  14.502
63314W        W35739   7.860  10.351   9.923
63315W        W35740  38.823  40.791   1.686
63316W        W35741  30.620  14.217   2.321
63317W        W35742  19.328  19.540   0.293
63318W        W35743  36.386  36.376  10.734
63319W        W35744  29.879  20.967  11.570
63320W        W35745   7.018  18.069   1.537
63321W        W35746  15.176  27.211  13.387
63322W        W35747  34.996  10.150   4.692
63323W        W35748  23.499   2.387   3.608
63324W        W35749   0.288  24.120   1.772
63325W        W35750  33.960   1.173   2.269
63326W        W35751  22.610  25.088   4.203
63327W        W35752  15.634  37.651   4.992
63328W        W35753  39.332  18.740   3.631
63329W        W35754  42.444  28.588  11.591
63330W        W35755  34.471  27.185  14.355
63331W        W35756  35.147  37.465   4.628
63332W        W35757   3.391  20.239   4.171
63333W        W35758  23.323   5.361   3.652
63334W        W35759  30.425  28.095  12.674
63335W        W35760  38.335   6.902   4.185
63336W        W35761  23.387  19.791   1.847
63337W        W35762  16.782  30.590   9.478
63338W        W35763  33.117  19.825  14.573
63339W        W35764  33.587  37.292   2.191
63340W        W35765   4.896  40.952   2.806
63341W        W35766  38.874  44.007  10.857
63342W        W35767  26.616   1.846   1.227
63343W        W35768   6.857  38.854  13.361
63344W        W35769  21.237   1.834  11.960
63345W        W35770  37.156  10.883   0.365
63346W        W35771  35.647  30.944   0.678
63347W        W35772  10.159   4.258  10.624
63348W        W35773  41.430  29.212   2.244
63349W        W35774  10.807  37.457  13.832
63350W        W35775  17.859  37.371  13.559
63351W        W35776  38.272   8.290  13.088
63352W        W35777  36.226  26.360  12.875
63353W        W35778  40.458  25.402  12.919
63354W        W35779   7.196  24.281   2.611
63355W        W35780  41.520   6.820   0.466
63356W        W35781  22.591  40.801  11.141
63357W        W35782  41.749  21.913  12.237
63358W        W35783   3.527  42.009   3.222
63359W        W35784  13.277  25.451  13.458
63360W        W35785   5.991  23.544   0.709
63361W        W35786  31.048   3.981  10.717
63362W        W35787  39.888  22.265  12.527
63363W        W35788  17.086  11.348   4.676
63364W        W35789  19.332  27.653   2.845
63365W        W35790   9.245  34.401   3.149
63366W        W35791  17.342   5.981  14.196
63367W        W35792   0.515  25.474  13.898
63368W        W35793  18.241  44.791  10.594
63369W        W35794  25.262  43.383  13.879
63370W        W35795  35.279   5.686   2.211
63371W        W35796   4.730  41.781   5.034
63372W        W35797  25.628  26.408  11.047
63373W        W35798   4.349  23.929   4.589
63374W        W35799  38.442   7.444   2.841
63375W        W35800  14.395   3.635  14.099
63376W        W35801  23.058   8.037  13.512
63377W        W35802  16.867  35.181  11.013
63378W        W35803  39.332  26.244  10.418
63379W        W35804  38.783  18.127  11.885
63380W        W35805  23.644   8.224   1.179
63381W        W35806   2.245  15.807  12.991
63382W        W35807  18.798  37.772  11.345
63383W        W35808  38.820  19.626  11.664
63384W        W35809  33.150  27.299  14.367
63385W        W35810   3.639   9.835  13.569
63386W        W35811  38.249  22.465   0.412
63387W        W35812  10.812  32.484   3.274
63388W        W35813   5.741   0.443  12.456
63389W        W35814  39.773  27.588   1.325
63390W        W35815  33.534   2.053  11.544
63391W        W35816  19.448  13.209  14.417
63392W        W35817  15.611  27.092  13.113
63393W        W35818  20.198  29.061  13.073
63394W        W35819  14.743   1.713   3.227
63395W        W35820  33.910  32.385  14.366
63396W        W35821  21.511  10.425  11.206
63397W        W35822  33.710  33.790  11.510
63398W        W35823  24.777  38.834  12.174
63399W        W35824  36.908  30.131   3.585
63400W        W35825  32.192  24.859  11.080
63401W        W35826   2.808  19.695   4.394
63402W        W35827   1.287  18.743   1.716
63403W        W35828  44.854  24.166   2.801
63404W        W35829  18.848  37.848  14.798
63405W        W35830  37.918   1.983  13.510
63406W        W35831  10.404   2.988  12.847
63407W        W35832   6.210  13.359  14.497
63408W        W35833   0.827  11.058   4.189
63409W        W35834   7.925  18.401  14.752
63410W        W35835  24.749  13.739  12.977
63411W        W35836  10.871  33.807  12.905
63412W        W35837  40.691  33.933   1.878
63413W        W35838  42.153  41.976   0.895
63414W        W35839  19.463   0.533   0.498
63415W        W35840  37.843  32.623  10.410
63416W        W35841  43.323  15.696  14.532
63417W        W35842  39.267  30.063   2.180
63418W        W35843  30.458   3.727  11.059
63419W        W35844  37.415   5.363  10.555
63420W        W35845  12.222  39.765   1.025
63421W        W35846  27.637  18.845  11.529
63422W        W35847  22.743  24.376  11.361
63423W        W35848  10.401   9.369   1.642
63424W        W35849  21.726  13.610   2.788
63425W        W35850   2.980  19.147  10.556
63426W        W35851   8.902   9.315  12.557
63427W        W35852  17.548  39.340   0.575
63428W        W35853   3.757  42.808  11.258
63429W        W35854  44.913  14.399   4.126
63430W        W35855   9.468   2.165  10.993
63431W        W35856  44.021  44.789   1.616
63432W        W35857  34.358   4.359   4.775
63433W        W35858  43.156  39.918   4.583
63434W        W35859  19.927  34.305  12.876
63435W        W35860  19.299  36.120  12.070
63436W        W35861  19.108  28.073  11.646
63437W        W35862  42.409  30.578  13.125
63438W        W35863  28.173  22.308   1.887
63439W        W35864  30.680   3.414   1.334
63440W        W35865  32.729  18.609  12.150
63441W        W35866  40.990  43.755   0.580
63442W        W35867  34.555  26.344  14.707
63443W        W35868  11.689  12.559   2.314
63444W        W35869   0.169  19.642   3.680
63445W        W35870  39.420  12.194  13.772
63446W        W35871  16.951  21.009  13.891
63447W        W35872   9.441  40.753   2.261
63448W        W35873  29.660  15.221  10.721
63449W        W35874   9.854   1.256   3.344
63450W        W35875  37.752  37.048   1.157
63451W        W35876   3.447  26.348  13.028
63452W        W35877   8.879  12.081  14.521
63453W        W35878  25.566  40.754   1.421
63454W        W35879  12.299  13.611   1.609
63455W        W35880  15.661  21.616  10.868
63456W        W35881  38.262  36.119   2.672
63457W        W35882  39.547  30.575   2.804
63458W        W35883  27.431  42.325  10.650
63459W        W35884  28.093  26.452  14.530
63460W        W35885   6.720   7.856  14.841
63461W        W35886  14.448  18.038  14.040
63462W        W35887  11.331  13.409  11.475
63463W        W35888   4.401  34.563  10.359
63464W        W35889  28.926  21.699   4.721
63465W        W35890  34.011  10.039  11.694
63466W        W35891  39.928  40.127  11.529
63467W        W35892  27.106  36.359   3.154
63468W        W35893   5.256   9.640  14.382
63469W        W35894  29.849  20.087   0.378
63470W        W35895  33.509  30.560  12.879
63471W        W35896  29.932  17.998   3.646
63472W        W35897  35.762  16.606  11.066
63473W        W35898   1.510  32.678  11.272
63474W        W35899  19.794  39.700  11.656
63475W        W35900  25.000  25.592   2.771
63476W        W35901  24.015   8.855  10.161
63477W        W35902  44.462  43.454   2.396
63478W        W35903   3.255  31.557  12.684
63479W        W35904  32.829  31.003  12.085
63480W        W35905  10.336  24.371   4.268
63481W        W35906  23.697  31.636  12.061
63482W        W35907  29.573  25.029   4.060
63483W        W35908  32.253  16.493   1.937
63484W        W35909  30.439  27.903   2.756
63485W        W35910   8.215  14.698  11.580
63486W        W35911  42.473  28.889   1.803
63487W        W35912  24.210  22.005   2.910
63488W        W35913  24.634  23.064   3.586
63489W        W35914  22.166  32.954   1.465
63490W        W35915  34.879  30.934  14.621
63491W        W35916  11.828  27.934  10.973
63492W        W35917  25.202  43.728  13.496
63493W        W35918  22.463  28.090   2.767
63494W        W35919  14.144  21.709   0.917
63495W        W35920  36.051  19.286   4.848
63496W        W35921   8.692  39.936  13.470
63497W        W35922   5.505   1.033   4.173
63498W        W35923  41.094   0.064  12.988
63499W        W35924  13.215   3.916   4.414
63500W        W35925  17.142  37.906  11.615
63501W        W35926  24.578  16.534   0.468
63502W        W35927  38.363  42.593   5.028
63503W        W35928  33.149   8.595  14.379
63504W        W35929  35.455  38.979  13.360
63505W        W35930  38.926   2.313   1.809
63506W        W35931  43.084  11.949   4.176
63507W        W35932   7.855  34.422  11.185
63508W        W35933  21.036   9.799   3.189
63509W        W35934  23.040   3.261  12.388
63510W        W35935  39.342  18.230   4.480
63511W        W35936  32.913  23.165   0.891
63512W        W35937  36.407   1.422   4.973
63513W        W35938   6.056  34.578  10.659
63514W        W35939  19.173   7.924   0.539
63515W        W35940  25.153  36.402  14.088
63516W        W35941   8.894  20.737  10.773
63517W        W35942   3.822  39.985   0.268
63518W        W35943  13.052  15.240   1.593
63519W        W35944  18.767  35.136   4.572
63520W        W35945  31.956  25.325  11.082
63521W        W35946  18.571  17.123  13.475
63522W        W35947  29.481  27.601   3.239
63523W        W35948  19.612  36.431   1.359
63524W        W35949  44.276   2.984   1.485
63525W        W35950  34.376  27.029   0.833
63526W        W35951   0.794   6.663  13.979
63527W        W35952  37.367  26.605  14.405
63528W        W35953  29.105  41.578  12.894
63529W        W35954  14.530  25.136  11.481
63530W        W35955   2.943  31.418   2.182
63531W        W35956  43.830  30.565  11.711
63532W        W35957  17.734  14.368  12.539
63533W        W35958  29.097  40.835  13.281
63534W        W35959  17.763  37.810  12.306
63535W        W35960  26.505  16.839   4.153
63536W        W35961   1.138  24.295   3.637
63537W        W35962  40.304  29.758   4.149
63538W        W35963  15.567   9.083  14.440
63539W        W35964  39.024   4.704  14.865
63540W        W35965  26.601  35.452   4.786
63541W        W35966  35.899  27.674   0.548
63542W        W35967  32.291  40.549  10.980
63543W        W35968  13.553  40.368  10.902
63544W        W35969  17.145   5.615  12.450
63545W        W35970  31.396   5.695   2.695
63546W        W35971  25.744  34.184   2.766
63547W        W35972  38.608  14.087  10.367
63548W        W35973  23.916  42.371   1.808
63549W        W35974  34.069   5.400   3.419
63550W        W35975   7.641   0.258   0.797
63551W        W35976  27.645   3.349   2.953
63552W        W35977  39.889  11.128   0.843
63553W        W35978  43.899  29.147  11.624
63554W        W35979  14.720   6.309   1.932
63555W        W35980  29.693  22.637   4.179
63556W        W35981  37.396  13.844  10.389
63557W        W35982  31.306  32.236  12.961
63558W        W35983  37.523  44.235  13.984
63559W        W35984   2.480  40.265  14.922
63560W        W35985  36.975  34.153  14.453
63561W        W35986  39.547  21.557  14.802
63562W        W35987  33.433  35.783  10.984
63563W        W35988  38.054  27.715  13.963
63564W        W35989  27.835  31.456  13.384
63565W        W35990  19.027  28.562   4.082
63566W        W35991   5.464  35.809   3.807
63567W        W35992  30.171  11.367   0.848
63568W        W35993   8.758  38.384   4.220
63569W        W35994  10.328  22.025   0.852
63570W        W35995  15.531  38.468  11.659
63571W        W35996  14.037   5.551  14.943
63572W        W35997  38.645  11.624   2.205
63573W        W35998  29.693  21.009  10.165
63574W        W35999  24.777   4.154   0.409
63575W        W36000  12.859  21.298  13.087
63576W        W36001  26.444  19.229   2.275
63577W        W36002  17.134   0.818   4.628
63578W        W36003   6.696  34.102   2.796
63579W        W36004   9.401  31.230  10.969
63580W        W36005  35.179  27.937  10.744
63581W        W36006  38.651  44.908   1.002
63582W        W36007   6.128  40.096  10.756
63583W        W36008  25.368  11.476   0.432
63584W        W36009  36.357  18.637   3.703
63585W        W36010  42.937  21.333  10.605
63586W        W36011  17.696  21.311  12.420
63587W        W36012  10.814   2.355   4.134
63588W        W36013  20.588  29.520   0.689
63589W        W36014  29.949   7.405   2.883
63590W        W36015  29.271  22.988  10.355
63591W        W36016  27.516  32.593   0.584
63592W        W36017  30.465  33.968  10.691
63593W        W36018  28.948  13.439   0.849
63594W        W36019  42.965  34.829   0.347
63595W        W36020  37.314  12.700   0.842
63596W        W36021  15.243  43.762   2.636
63597W        W36022  42.908   6.173  12.699
63598W        W36023  14.761   3.377  11.505
63599W        W36024  21.241  36.496   4.593
63600W        W36025  30.033  40.005   4.901
63601W        W36026  10.170  38.260  11.090
63602W        W36027  15.632  32.876  11.231
63603W        W36028  35.973   9.938   0.300
63604W        W36029  17.208  43.183  11.163
63605W        W36030  11.569  21.018  14.476
63606W        W36031  44.751  15.175   4.541
63607W        W36032  20.991  14.833  10.011
63608W        W36033  21.176   0.790  11.479
63609W        W36034  31.719  39.609  13.929
63610W        W36035  21.459  32.186  11.606
63611W        W36036  26.959   8.866   2.211
63612W        W36037  16.598   6.266  11.915
63613W        W36038  25.117   2.534   3.236
63614W        W36039  41.258  39.865   4.177
63615W        W36040   7.931  36.480   1.666
63616W        W36041  15.684   3.908  12.402
63617W        W36042  37.141  18.400   1.292
63618W        W36043  24.648  29.238  10.570
63619W        W36044  39.312  23.891   1.941
63620W        W36045  11.720  16.343  14.820
63621W        W36046  19.544   1.756   3.301
63622W        W36047   7.933   3.300  10.653
63623W        W36048  18.011  36.287   0.483
63624W        W36049  44.786  36.833  10.649
63625W        W36050   1.836   0.247  13.091
63626W        W36051  25.556   2.480  11.971
63627W        W36052   4.811   3.723   1.399
63628W        W36053  23.038  22.560  12.435
63629W        W36054  26.070   0.510  12.390
63630W        W36055  32.679  18.187   3.836
63631W        W36056  13.127   8.461  13.005
63632W        W36057   2.320   6.567   4.153
63633W        W36058   8.314  32.415  14.532
63634W        W36059   0.748  10.815   2.784
63635W        W36060  22.024  41.848   3.800
63636W        W36061  27.097  16.084   4.368
63637W        W36062  12.259  36.300  11.860
63638W        W36063  14.806  28.269  13.171
63639W        W36064  11.600  23.520   3.721
63640W        W36065  26.496  38.599  11.907
63641W        W36066  12.836  11.871   3.195
63642W        W36067  24.081  24.410  14.847
63643W        W36068  34.025  26.287   3.487
63644W        W36069  30.046  29.033  14.019
63645W        W36070   2.685  11.787   1.198
63646W        W36071   4.274  12.252   0.478
63647W        W36072   3.326  37.350  11.428
63648W        W36073   4.799  39.530  12.420
63649W        W36074  44.073  41.915   3.247
63650W        W36075   3.029   6.290   4.697
63651W        W36076  19.586  28.130  12.516
63652W        W36077  42.350  10.654   1.569
63653W        W36078  27.997   7.883  10.625
63654W        W36079   5.633  29.514   2.415
63655W        W36080   6.427   0.789   0.544
63656W        W36081  18.241  23.657  13.500
63657W        W36082  10.293  15.260   2.017
63658W        W36083   2.205  44.680   3.257
63659W        W36084  11.706  22.256   1.831
63660W        W36085   5.614  24.048   3.459
63661W        W36086  43.394   9.642  12.734
63662W        W36087  36.655  23.457   0.305
63663W        W36088  12.740  22.159  13.326
63664W        W36089  12.299  32.516   1.187
63665W        W36090  37.525  20.998   5.333
63666W        W36091  27.343  20.921   4.610
63667W        W36092  17.595   8.575   3.630
63668W        W36093  38.408  42.767  12.406
63669W        W36094  34.033  42.063   2.641
63670W        W36095  41.939  32.103   3.631
63671W        W36096  11.536  32.198   3.836
63672W        W36097  20.522  29.402   1.207
63673W        W36098  10.877  17.629   0.977
63674W        W36099  24.485   5.107   0.410
63675W        W36100  12.399  26.090   2.914
63676W        W36101  44.280  38.283  11.545
63677W        W36102  14.604  35.590   4.389
63678W        W36103  10.017  32.630  12.571
63679W        W36104   3.262  13.275  10.909
63680W        W36105   4.006  24.287   1.799
63681W        W36106  17.562  10.870   0.939
63682W        W36107  17.066  27.088  11.024
63683W        W36108  10.381  26.135   2.207
63684W        W36109  20.622  11.325  13.056
63685W        W36110  25.562  17.540   3.892
63686W        W36111  21.018  22.737  13.361
63687W        W36112   1.280  12.638   0.988
63688W        W36113  10.171  42.986  14.211
63689W        W36114  33.918  22.464  14.296
63690W        W36115  29.195  34.434  10.712
63691W        W36116  28.423  24.060   3.134
63692W        W36117  13.666  31.979  12.161
63693W        W36118  39.855   0.224  13.325
63694W        W36119   7.616   7.550  11.106
63695W        W36120   0.966  11.846   2.883
63696W        W36121  27.390   2.689   3.272
63697W        W36122   7.857   8.148  13.479
63698W        W36123  35.634  41.852  11.224
63699W        W36124  25.424  25.262  13.547
63700W        W36125  22.211  18.273  14.596
63701W        W36126  33.538  28.222  11.972
63702W        W36127  41.824  20.278   4.983
63703W        W36128   3.319   4.626  13.824
63704W        W36129  29.452  42.332   0.779
63705W        W36130   8.317   8.647   0.851
63706W        W36131  14.781  43.906  14.835
63707W        W36132  16.060  11.740  13.514
63708W        W36133  40.784  16.182   3.251
63709W        W36134  35.061  43.309   2.923
63710W        W36135   9.846  10.170   4.434
63711W        W36136  35.550  43.051  13.307
63712W        W36137  20.720   6.369  11.996
63713W        W36138  35.588   4.886  13.074
63714W        W36139  18.311  15.846   1.412
63715W        W36140   1.492   1.066   4.755
63716W        W36141  44.377  14.766   3.295
63717W        W36142  17.185  24.921   4.613
63718W        W36143  34.996  13.233   4.573
63719W        W36144  35.362  18.141  13.399
63720W        W36145  32.579  44.436   1.997
63721W        W36146  22.726  12.140  10.381
63722W        W36147  30.730  42.144  11.828
63723W        W36148  43.992   6.201  13.121
63724W        W36149  27.215  29.407   3.099
63725W        W36150   7.677  11.435   1.943
63726W        W36151  37.514  12.974   3.738
63727W        W36152   5.333  30.534   3.677
63728W        W36153   3.812  15.852  13.028
63729W        W36154   7.774  23.602   4.674
63730W        W36155  41.971  24.357   4.167
63731W        W36156  42.100  12.554   4.196
63732W        W36157  20.283   2.509  10.728
63733W        W36158  37.050   2.570   4.516
63734W        W36159  27.800  20.515  13.408
63735W        W36160  22.122  14.295  13.411
63736W        W36161  40.812  41.087  12.492
63737W        W36162  42.120  32.417   0.041
63738W        W36163   8.342  36.541   2.831
63739W        W36164  10.459  22.256  14.487
63740W        W36165  32.249  21.217   3.696
63741W        W36166   1.506  40.466  10.853
63742W        W36167  44.932  28.928  12.911
63743W        W36168  36.781  25.699  13.427
63744W        W36169  11.227   2.520   3.542
63745W        W36170   2.710  38.723  12.359
63746W        W36171  35.063  26.518   5.001
63747W        W36172  25.202  28.120  13.889
63748W        W36173  26.116  17.345  10.722
63749W        W36174  20.062  17.063   3.683
63750W        W36175  13.662  39.483   0.164
63751W        W36176  25.701  35.518   1.665
63752W        W36177  25.647  30.655   4.010
63753W        W36178  12.209  25.805  10.699
63754W        W36179  23.893  29.392  13.044
63755W        W36180  39.531  20.312   0.266
63756W        W36181  13.110  33.826  14.055
63757W        W36182  18.038  26.562  14.987
63758W        W36183  11.835  12.212  11.028
63759W        W36184  16.684   4.916   4.185
63760W        W36185   8.270  27.986  12.097
63761W        W36186  40.791  15.406  10.562
63762W        W36187  15.337   8.901   2.283
63763W        W36188  42.675  41.349   3.306
63764W        W36189  23.263   9.355  14.854
63765W        W36190  11.316  12.399  13.989
63766W        W36191  30.868  36.742  10.999
63767W        W36192  22.025  38.895  14.095
63768W        W36193  39.265   8.305  13.432
63769W        W36194  33.022  13.696   4.070
63770W        W36195   1.803   6.959   1.829
63771W        W36196   8.270  17.570  12.354
63772W        W36197  32.124  24.811  14.819
63773W        W36198  33.504  14.254  11.198
63774W        W36199  15.189  13.001  14.020
63775W        W36200   5.292   5.840   3.488
63776W        W36201  13.726  11.750   3.746
63777W        W36202  44.438  13.310   0.271
63778W        W36203  44.717  27.927  13.337
63779W        W36204  27.549  33.059   2.613
63780W        W36205  40.469  33.252  11.865
63781W        W36206  26.541   4.333  14.820
63782W        W36207  42.806  12.306  13.918
63783W        W36208   6.668  34.029  13.988
63784W        W36209  30.147   6.326  14.995
63785W        W36210  12.390   4.871  14.352
63786W        W36211   1.963  35.315   1.327
63787W        W36212  15.623   9.316  10.639
63788W        W36213  41.722  27.101   3.067
63789W        W36214  25.774  22.789  11.652
63790W        W36215  38.844  26.380  14.402
63791W        W36216  13.760  24.012   2.143
63792W        W36217   9.476  21.036   0.195
63793W        W36218  32.206  38.773  12.431
63794W        W36219  24.791   9.161   3.314
63795W        W36220  34.595   2.822  14.903
63796W        W36221  44.260  35.608  10.578
63797W        W36222  18.015  34.619  14.815
63798W        W36223  38.635  28.000  11.231
63799W        W36224   7.773   8.224  14.813
63800W        W36225  22.425  44.125   2.862
63801W        W36226  36.079  37.401  12.133
63802W        W36227   8.473  20.137   3.681
63803W        W36228  28.834  44.343   2.082
63804W        W36229  13.698  41.596   1.220
63805W        W36230  17.844   6.241  14.946
63806W        W36231  38.628  36.257  12.979
63807W        W36232  14.106  21.500   4.179
63808W        W36233  41.757  30.181   0.864
63809W        W36234  37.519  33.984  11.058
63810W        W36235  17.579  10.368   1.120
63811W        W36236  33.319  25.032  14.518
63812W        W36237  30.700   6.972   3.423
63813W        W36238   8.127  32.406   0.932
63814W        W36239  44.292  25.668  14.818
63815W        W36240  28.492  43.565   1.983
63816W        W36241  43.973   0.119  10.621
63817W        W36242   8.511  24.690   1.758
63818W        W36243  34.442  26.329   2.237
63819W        W36244  10.065  12.694   2.998
63820W        W36245  37.416  18.248   2.738
63821W        W36246  10.576  34.023   3.313
63822W        W36247  26.190  29.058   3.593
63823W        W36248  35.944  30.308  12.021
63824W        W36249  43.823  10.721  11.399
63825W        W36250  28.166  20.200  14.654
63826W        W36251  11.832  23.763  12.364
63827W        W36252  15.650  42.873   0.269
63828W        W36253  26.521  17.870  13.599
63829W        W36254  31.531  11.926  10.470
63830W        W36255  18.309  37.858  12.337
63831W        W36256  26.042  20.622   4.123
63832W        W36257  44.937  19.517  13.907
63833W        W36258  35.787  10.106   2.546
63834W        W36259  27.137  41.425  10.412
63835W        W36260  32.049  30.963   1.180
63836W        W36261  40.378   6.217  11.632
63837W        W36262  20.700  13.252   3.459
63838W        W36263  28.987   2.256   2.653
63839W        W36264  32.970  38.282  12.977
63840W        W36265   7.217  43.280   2.348
63841W        W36266   8.715  24.656  11.673
63842W        W36267  36.478  21.686   3.898
63843W        W36268   7.781  17.781  12.112
63844W        W36269  23.886  19.336  12.574
63845W        W36270   2.744  27.366  12.544
63846W        W36271   6.396  14.655  14.986
63847W        W36272  25.453  40.986  11.850
63848W        W36273  12.130   4.719  11.617
63849W        W36274  17.102  25.807   3.678
63850W        W36275  28.973  28.076   2.034
63851W        W36276  28.631   7.837   1.861
63852W        W36277  35.816  12.533   4.246
63853W        W36278  42.504  34.341   2.806
63854W        W36279  33.009  44.793   2.019
63855W        W36280  42.489   6.890   3.137
63856W        W36281   4.144   2.429   2.159
63857W        W36282  23.602  44.554  13.324
63858W        W36283  21.647  33.613  13.986
63859W        W36284   2.879  28.546   1.945
63860W        W36285  31.419   3.309   4.724
63861W        W36286   6.472  33.462  11.577
63862W        W36287  19.830  40.220  13.984
63863W        W36288  18.936  21.066   4.989
63864W        W36289  44.403  37.247   4.228
63865W        W36290  41.506  12.260  14.938
63866W        W36291   5.217  30.263   2.748
63867W        W36292  10.726   8.615  12.368
63868W        W36293  41.219  15.762  10.430
63869W        W36294  15.707  36.506  14.950
63870W        W36295  33.681  26.869  13.806
63871W        W36296  26.171  14.834   4.144
63872W        W36297  22.992  34.625  12.440
63873W        W36298   8.247  10.455   5.123
63874W        W36299   4.630  31.066   0.391
63875W        W36300  15.183  21.711  11.071
63876W        W36301  29.610  43.799   4.524
63877W        W36302  32.311  11.852  11.238
63878W        W36303  42.616  17.251  11.356
63879W        W36304  40.911   6.712   0.418
63880W        W36305  10.901  11.364   1.068
63881W        W36306  14.070  44.393  12.485
63882W        W36307  25.236  39.456   0.613
63883W        W36308  12.044  43.834   2.309
63884W        W36309  39.518  17.339   2.202
63885W        W36310   0.659  34.708  13.384
63886W        W36311  30.116  29.123   0.410
63887W        W36312  24.836  32.342   5.128
63888W        W36313   8.302   0.276  13.454
63889W        W36314   5.319   0.502   0.449
63890W        W36315  32.880  19.697  13.108
63891W        W36316  37.057  14.360  14.890
63892W        W36317  17.589  29.908  14.483
63893W        W36318  37.038   0.037  11.194
63894W        W36319  17.854  25.601  14.005
63895W        W36320  39.631  12.369   2.763
63896W        W36321  14.086  24.901  11.528
63897W        W36322  25.157  12.291  10.600
63898W        W36323  41.459  37.554   1.347
63899W        W36324  33.647  36.897  14.255
63900W        W36325  14.789  19.449   1.894
63901W        W36326  14.673   7.246  11.920
63902W        W36327  29.160  44.460   3.640
63903W        W36328  10.764  34.003  11.916
63904W        W36329   8.676  44.986  12.099
63905W        W36330  19.013  42.062  11.512
63906W        W36331  38.125   4.907  10.376
63907W        W36332  17.106   5.655   0.720
63908W        W36333  30.916  28.458  11.506
63909W        W36334  14.622  14.762  10.746
63910W        W36335  38.939   8.938  10.151
63911W        W36336   2.644   5.237  11.478
63912W        W36337  31.360  24.191  11.136
63913W        W36338  33.331  34.597   3.799
63914W        W36339  25.485  28.374  14.970
63915W        W36340  10.428  31.613   5.091
63916W        W36341   8.737   8.629   0.540
63917W        W36342  19.818  29.407  13.239
63918W        W36343  30.845  28.444   4.827
63919W        W36344   6.256  16.014  11.125
63920W        W36345  27.517  13.627  12.434
63921W        W36346  21.662  29.609  12.509
63922W        W36347  11.891  29.418   0.102
63923W        W36348  28.983  12.653   4.676
63924W        W36349  18.717   2.908   2.810
63925W        W36350  43.326   0.261   3.840
63926W        W36351  31.183   9.399   3.151
63927W        W36352  35.847  30.866   3.298
63928W        W36353  32.418  13.092  12.541
63929W        W36354  43.403   9.620   1.828
63930W        W36355  17.085  22.502   4.162
63931W        W36356  25.459  23.820  14.481
63932W        W36357   8.153   3.862   0.647
63933W        W36358  38.313  33.367  10.669
63934W        W36359  17.582  31.325   2.690
63935W        W36360  39.895  39.392   3.282
63936W        W36361  35.075  27.202   3.658
63937W        W36362  17.670  17.856  10.933
63938W        W36363  35.342  33.262  12.711
63939W        W36364  31.687  35.309  14.345
63940W        W36365  21.918   9.619  12.050
63941W        W36366   8.018  22.411  12.897
63942W        W36367   4.995  22.522   4.162
63943W        W36368  29.041   1.372  12.093
63944W        W36369  16.567  14.402  11.671
63945W        W36370   4.137  15.660   0.020
63946W        W36371  13.127  19.541   1.435
63947W        W36372   6.810  13.312  11.244
63948W        W36373  15.791  30.478   2.406
63949W        W36374  39.330  32.748   1.388
63950W        W36375  27.182  24.513  13.982
63951W        W36376  23.493  29.042  12.961
63952W        W36377   0.739   7.446  13.313
63953W        W36378  31.637  10.246  11.645
63954W        W36379  17.036  29.806   3.193
63955W        W36380  29.215  43.831  11.020
63956W        W36381  27.386  14.609   4.870
63957W        W36382  32.046   7.971   3.621
63958W        W36383  17.297  38.386  13.516
63959W        W36384  31.873  33.046   3.290
63960W        W36385  15.075  42.435   1.202
63961W        W36386  39.864  19.727  13.885
63962W        W36387  36.590  12.167   3.107
63963W        W36388   4.450  26.623  10.769
63964W        W36389   1.891  37.764  10.470
63965W        W36390   2.732  43.788   0.897
63966W        W36391  24.165  41.295  14.021
63967W        W36392   5.334   8.650  13.385
63968W        W36393  14.298  11.389   3.162
63969W        W36394  17.750  20.034  14.541
63970W        W36395  10.925  28.223   1.047
63971W        W36396   2.406  27.265   2.051
63972W        W36397  27.598  15.011  11.638
63973W        W36398   2.803  29.598  11.978
63974W        W36399  33.076   1.230  12.593
63975W        W36400  21.037  37.253   2.231
63976W        W36401  17.152  37.886  12.130
63977W        W36402  35.853  33.912  11.840
63978W        W36403  13.594  12.889  12.537
63979W        W36404  23.915  11.905  10.837
63980W        W36405  40.471  32.433  11.516
63981W        W36406  41.672  13.235   3.511
63982W        W36407  29.443  34.635  11.112
63983W        W36408  11.167  32.529  11.493
63984W        W36409  11.707  38.630   3.213
63985W        W36410  32.679  36.489   2.175
63986W        W36411  16.768   4.345   1.721
63987W        W36412  25.219  31.642   1.372
63988W        W36413  18.210  37.105   2.223
63989W        W36414  21.445  37.058   2.459
63990W        W36415  27.904  23.729   0.128
63991W        W36416  34.968   3.995  12.795
63992W        W36417  18.143   7.815  10.693
63993W        W36418  34.011  10.556  11.645
63994W        W36419  29.857  10.437  14.449
63995W        W36420  14.427  27.850   4.515
63996W        W36421  10.847  18.468   4.172
63997W        W36422   4.196  22.966   0.889
63998W        W36423  44.445  14.579   1.433
63999W        W36424  39.107  37.949  11.574
64000W        W36425  15.723   8.991   1.772
64001W        W36426   3.759  13.091   0.423
64002W        W36427  27.362  13.766   2.377
64003W        W36428  43.982  39.428   2.192
64004W        W36429  15.281  42.966  12.497
64005W        W36430  38.805   2.219  10.540
64006W        W36431  43.467   3.258  12.513
64007W        W36432  23.011  30.612  13.145
64008W        W36433  25.868  28.903   1.289
64009W        W36434  37.806  39.943   4.624
64010W        W36435  29.464   6.731   3.477
64011W        W36436  35.402   6.327   4.883
64012W        W36437  12.895  11.043   0.916
64013W        W36438  38.388  28.172  12.572
64014W        W36439  44.007  41.461   4.604
64015W        W36440  24.161  19.308  14.560
64016W        W36441  23.073  15.815  12.103
64017W        W36442  25.510  31.653  14.065
64018W        W36443  29.064  14.717   0.772
64019W        W36444  21.124  24.711   0.941
64020W        W36445  37.581   7.867  13.943
64021W        W36446   7.417  41.499   2.737
64022W        W36447  34.037  37.768  13.315
64023W        W36448  17.147  27.551  13.840
64024W        W36449   1.993  25.951  13.805
64025W        W36450  20.894  17.218  12.615
64026W        W36451  32.250  21.342  12.927
64027W        W36452  36.007   9.325  14.369
64028W        W36453  16.500  28.861  11.552
64029W        W36454  15.867   7.341  14.506
64030W        W36455  40.363  27.717   2.722
64031W        W36456   5.769  31.678   0.879
64032W        W36457  37.825  40.363   2.379
64033W        W36458  24.037  22.575  13.558
64034W        W36459   5.739  21.153  11.667
64035W        W36460  35.834   0.366   0.962
64036W        W36461  29.542  19.606  14.395
64037W        W36462   7.326  19.495  11.872
64038W        W36463  26.154  11.784  10.870
64039W        W36464  21.203  15.617   1.344
64040W        W36465  13.389  32.201   4.965
64041W        W36466  41.842  43.031  12.070
64042W        W36467  37.076   3.328   3.170
64043W        W36468  34.143   1.868   3.301
64044W        W36469  16.109  40.575   1.696
64045W        W36470  31.931  17.538   4.142
64046W        W36471  22.746  38.235  14.766
64047W        W36472  12.413  14.958  11.144
64048W        W36473  23.997  17.598  11.593
64049W        W36474  11.776  13.710   1.207
64050W        W36475  33.430  36.046   3.306
64051W        W36476  34.808   7.984  12.342
64052W        W36477  37.979  17.629   2.089
64053W        W36478  11.264   5.914  10.160
64054W        W36479   4.213  28.351  13.375
64055W        W36480  18.720  37.975   1.005
64056W        W36481  32.401   2.975   3.848
64057W        W36482  32.926  37.849  14.886
64058W        W36483   3.379  34.303  12.955
64059W        W36484  13.180  29.703   2.726
64060W        W36485  15.539   5.474   0.767
64061W        W36486  31.515   3.191  14.485
64062W        W36487  31.736  29.987   0.987
64063W        W36488  20.236  28.546   4.963
64064W        W36489  37.401   3.408  14.332
64065W        W36490  38.951  12.028  10.445
64066W        W36491  44.849   3.348   0.832
64067W        W36492  14.261  33.359   3.788
64068W        W36493  37.619  38.843  10.645
64069W        W36494  22.503  40.491   3.167
64070W        W36495  16.243  32.779   1.227
64071W        W36496  42.225  23.328   3.360
64072W        W36497  40.076  11.720  11.447
64073W        W36498  26.732  29.426  14.484
64074W        W36499  25.155  33.477  12.917
64075W        W36500   7.034  11.195  14.848
64076W        W36501  35.998  18.775  14.705
64077W        W36502  43.857  43.937   0.432
64078W        W36503  26.676   5.024  11.435
64079W        W36504  11.289  13.396   2.340
64080W        W36505  18.223  15.843  13.440
64081W        W36506  39.382   4.154   0.798
64082W        W36507  10.672   6.938  10.291
64083W        W36508  29.959  31.115   4.327
64084W        W36509  13.070  34.198  14.504
64085W        W36510  19.535  23.736   4.581
64086W        W36511   4.796  20.040   3.113
64087W        W36512  42.986  31.063  14.472
64088W        W36513   4.216  27.053   2.613
64089W        W36514  17.756  17.382   1.369
64090W        W36515  29.506  27.754  11.562
64091W        W36516  27.500  37.437   1.945
64092W        W36517   7.658   6.182   0.202
64093W        W36518  35.382  19.538   1.267
64094W        W36519  28.355   7.443   0.897
64095W        W36520  20.610   6.298   4.852
64096W        W36521  18.745  40.262   1.881
64097W        W36522  42.945  17.743  13.534
64098W        W36523  26.760  35.934   5.074
64099W        W36524  17.128   4.214  13.846
64100W        W36525  29.071  22.166   4.317
64101W        W36526  42.043   3.007   1.114
64102W        W36527  16.580  42.222  13.094
64103W        W36528  31.359   0.455  11.119
64104W        W36529  43.374  31.896  12.478
64105W        W36530  39.917  43.219   4.337
64106W        W36531  23.306  30.864   1.605
64107W        W36532   9.122   5.345  12.531
64108W        W36533  23.092  32.875   1.350
64109W        W36534  41.385  11.380   3.305
64110W        W36535   0.419  40.094   3.238
64111W        W36536   3.079  37.510   0.463
64112W        W36537  27.993  11.620   0.577
64113W        W36538  13.689   2.408   0.837
64114W        W36539  24.384   8.358   1.850
64115W        W36540  28.555  43.755  11.482
64116W        W36541  14.893   1.524  12.844
64117W        W36542  18.206   1.762  14.918
64118W        W36543  20.639  36.639   3.397
64119W        W36544   3.709   3.085  11.151
64120W        W36545  27.282  44.947   4.652
64121W        W36546  28.671   5.413   3.605
64122W        W36547  39.693  41.332  11.121
64123W        W36548  19.020  10.142   3.715
64124W        W36549  23.168   7.292  11.253
64125W        W36550  18.349  40.380  10.463
64126W        W36551   3.752  35.525   2.219
64127W        W36552  29.337  13.705  10.861
64128W        W36553  26.089   8.571  14.886
64129W        W36554  18.987  14.921   0.754
64130W        W36555  12.326  32.034  14.921
64131W        W36556   6.762  24.720   1.535
64132W        W36557  13.317  26.544   4.567
64133W        W36558  36.903  41.402   3.413
64134W        W36559   3.281   9.902   3.601
64135W        W36560  41.888  15.099   4.653
64136W        W36561  21.780  18.666  14.515
64137W        W36562  18.036  32.054   3.724
64138W        W36563  41.075  32.860   2.890
64139W        W36564  44.438  29.406   2.693
64140W        W36565  22.048  37.880  13.830
64141W        W36566  41.442   6.752  14.274
64142W        W36567  29.528  44.236  13.002
64143W        W36568  20.612  33.011  13.372
64144W        W36569  43.346  38.291  12.613
64145W        W36570  16.263  32.908   2.182
64146W        W36571   3.652  18.213   3.561
64147W        W36572   5.580  17.269   0.247
64148W        W36573  23.727  33.896   4.586
64149W        W36574  30.009   4.420  14.422
64150W        W36575  41.999  31.572   3.559
64151W        W36576  11.871  21.109   0.878
64152W        W36577  19.188  23.233   2.862
64153W        W36578   0.390  12.080  13.948
64154W        W36579  26.036  37.018  10.720
64155W        W36580  12.031  32.953  14.720
64156W        W36581  13.852  11.197  10.532
64157W        W36582   9.858  14.309  12.311
64158W        W36583  11.885  16.629  11.510
64159W        W36584  36.655  13.100   3.646
64160W        W36585  13.497  38.362   0.267
64161W        W36586  39.306   0.797  12.413
64162W        W36587  21.220  40.108   4.432
64163W        W36588  35.796  19.231  13.345
64164W        W36589  25.926  13.935  11.585
64165W        W36590  33.152  42.787   1.736
64166W        W36591  37.308   7.789   4.063
64167W        W36592  37.844  44.348  11.709
64168W        W36593   0.231  14.918   1.687
64169W        W36594  33.539  39.710   1.037
64170W        W36595   3.818  29.208  14.333
64171W        W36596  17.306   7.415   5.157
64172W        W36597  41.332  41.880   4.111
64173W        W36598  26.705  24.812  11.651
64174W        W36599  16.341   2.750  14.940
64175W        W36600  22.091   2.695   4.581
64176W        W36601  28.904  34.160   1.419
64177W        W36602  21.276   9.672   0.165
64178W        W36603   0.903  10.535   2.367
64179W        W36604   3.309  23.251  11.375
64180W        W36605  34.202  12.359   0.950
64181W        W36606  17.278  42.252   1.043
64182W        W36607  33.005  25.130   4.735
64183W        W36608  11.787  34.815  14.757
64184W        W36609  20.336  18.035   2.776
64185W        W36610  30.570   8.269   4.100
64186W        W36611   5.109   3.174  12.123
64187W        W36612  36.893  33.217  13.446
64188W        W36613  39.066  10.788   3.747
64189W        W36614  29.887  33.035   1.170
64190W        W36615  25.055  19.774  14.776
64191W        W36616  22.539   4.111   0.324
64192W        W36617  32.338   2.507   1.732
64193W        W36618  38.133  27.637   1.654
64194W        W36619   4.299  32.306  14.237
64195W        W36620  34.483  17.687  13.923
64196W        W36621   8.893  13.586   2.748
64197W        W36622  23.481  43.859  13.543
64198W        W36623   6.534  39.754   3.797
64199W        W36624  37.366  13.609   0.798
64200W        W36625  27.914  15.395   1.768
64201W        W36626  24.771   7.857   3.200
64202W        W36627   1.247  24.145   1.272
64203W        W36628  19.318  13.327  12.906
64204W        W36629  12.795   9.567   4.701
64205W        W36630  18.555  41.896  13.685
64206W        W36631  13.314  38.386   4.656
64207W        W36632   2.689  43.952   0.421
64208W        W36633  44.836   9.805  13.269
64209W        W36634  28.560  30.690  13.025
64210W        W36635  42.075   1.918  12.623
64211W        W36636  37.962   5.708  11.927
64212W        W36637   9.718  25.909  11.245
64213W        W36638  23.172  27.686  13.990
64214W        W36639  21.160  13.488   4.712
64215W        W36640  26.677  28.623  12.472
64216W        W36641   2.492  22.515   3.126
64217W        W36642   3.243  13.604   0.785
64218W        W36643  22.117  40.829  12.251
64219W        W36644   5.220  12.858   4.673
64220W        W36645  42.337  22.655  13.550
64221W        W36646  44.256  33.456  12.137
64222W        W36647  42.481  16.787  10.485
64223W        W36648  43.443   5.851   2.335
64224W        W36649  22.234   3.380  10.369
64225W        W36650  33.055  36.987   4.487
64226W        W36651  16.101  34.337   3.670
64227W        W36652  35.890  41.273  14.552
64228W        W36653  27.716  29.733   4.636
64229W        W36654  22.989  37.029  13.881
64230W        W36655  33.879  44.343  10.695
64231W        W36656  35.917   4.978  14.338
64232W        W36657  28.388   5.312  13.354
64233W        W36658  17.804  21.695   4.085
64234W        W36659  39.678  31.351   0.350
64235W        W36660  33.555  39.472   0.570
64236W        W36661  44.534  24.348   5.011
64237W        W36662  32.219   5.921  11.207
64238W        W36663   4.694  38.454   3.860
64239W        W36664  35.576  33.899   0.795
64240W        W36665  43.646  31.086  11.190
64241W        W36666  36.448  14.767   1.207
64242W        W36667  20.500  20.639  13.101
64243W        W36668  20.245  15.596  13.852
64244W        W36669  30.030  35.021  10.787
64245W        W36670  11.902  17.744  13.109
64246W        W36671  11.450  41.071  10.946
64247W        W36672  33.111  36.540   2.456
64248W        W36673   3.204  36.911   4.577
64249W        W36674  12.574   6.301   1.857
64250W        W36675  41.042  17.911   2.752
64251W        W36676  44.362  18.739   1.405
64252W        W36677  37.357  29.244  13.582
64253W        W36678  28.479   3.873  14.983
64254W        W36679  32.901  35.621   2.225
64255W        W36680   5.209  17.602   4.904
64256W        W36681   8.382  11.033   4.050
64257W        W36682  18.977  26.475  10.532
64258W        W36683  40.020  41.839   9.695
64259W        W36684  14.190  41.067  10.728
64260W        W36685   7.775  42.043  11.667
64261W        W36686  44.348  30.420   0.265
64262W        W36687  32.138  15.175  10.332
64263W        W36688  23.018  14.565   1.410
64264W        W36689  34.609   0.427  13.297
64265W        W36690  21.505  10.286  12.899
64266W        W36691  20.271  25.046   0.391
64267W        W36692  26.045   5.653  14.347
64268W        W36693  28.034  39.459   2.720
64269W        W36694  29.946  42.353   0.959
64270W        W36695  38.041  17.112   4.690
64271W        W36696  31.512  31.426   0.890
64272W        W36697  24.512  27.204   4.115
64273W        W36698  12.794  13.565   2.817
64274W        W36699  10.244   3.368  10.659
64275W        W36700  31.581  27.943  11.436
64276W        W36701  37.665  43.206  10.420
64277W        W36702  40.498  24.043  14.457
64278W        W36703  27.383   5.451  14.591
64279W        W36704  24.601   5.856   1.349
64280W        W36705  31.118  17.136  14.152
64281W        W36706  25.788   8.914   3.439
64282W        W36707  43.747  28.020   3.511
64283W        W36708  37.883  19.540   1.825
64284W        W36709  37.386   8.835  13.596
64285W        W36710  33.933  28.067   1.674
64286W        W36711   2.701  44.291  12.979
64287W        W36712  40.749  22.318  12.959
64288W        W36713  36.806   9.962  12.104
64289W        W36714  25.068   0.712  11.966
64290W        W36715   7.419  22.741  14.369
64291W        W36716  28.598  17.251   4.702
64292W        W36717  23.769  11.621   0.004
64293W        W36718  21.929   4.644  13.738
64294W        W36719  34.962  25.944  11.031
64295W        W36720  11.808  26.884  11.627
64296W        W36721  20.207  30.912   0.784
64297W        W36722   4.935  16.108   3.598
64298W        W36723  39.216  40.363  14.715
64299W        W36724  38.699  44.807  10.662
64300W        W36725  26.182  13.871  12.026
64301W        W36726  31.319  41.008  13.531
64302W        W36727  37.305  16.682   0.975
64303W        W36728  30.870  18.690  12.460
64304W        W36729  11.733  18.652   3.776
64305W        W36730   1.474  32.492  12.500
64306W        W36731  31.512   7.663   1.495
64307W        W36732   9.080   2.161   2.391
64308W        W36733   5.098   4.959   2.841
64309W        W36734   3.932  43.164   2.293
64310W        W36735  19.582  23.697  13.061
64311W        W36736  24.868   3.600  13.065
64312W        W36737   5.214  42.959   4.532
64313W        W36738  28.823  15.872  11.545
64314W        W36739  15.998  25.098   4.900
64315W        W36740  30.593   9.278  11.968
64316W        W36741   5.716   0.090  11.566
64317W        W36742  25.045   5.443  10.569
64318W        W36743  44.984  12.957   3.426
64319W        W36744  28.212  39.974  12.056
64320W        W36745  22.267  14.274   4.170
64321W        W36746  38.416  39.607  13.333
64322W        W36747  42.995  32.276  14.959
64323W        W36748  25.040  35.464  13.034
64324W        W36749  10.933   4.265   4.697
64325W        W36750  28.097  43.390   0.305
64326W        W36751  40.490   2.293   0.026
64327W        W36752   9.256  41.836   0.461
64328W        W36753   7.223  27.491  10.802
64329W        W36754  41.817  13.324  14.668
64330W        W36755  27.410  34.191   1.182
64331W        W36756  36.545   7.390  13.877
64332W        W36757  21.169  19.152   3.770
64333W        W36758  39.551  28.228  11.462
64334W        W36759  21.517  27.174   1.229
64335W        W36760  19.334  32.491   5.013
64336W        W36761  34.068  35.516  14.797
64337W        W36762  38.504  29.485   3.143
64338W        W36763  25.667   6.205   2.615
64339W        W36764   9.327   4.804  10.370
64340W        W36765  33.565  43.225  14.332
64341W        W36766   3.641  27.201   1.441
64342W        W36767   9.367  23.473   2.001
64343W        W36768   5.494  14.198   0.929
64344W        W36769   9.824   1.091   2.508
64345W        W36770  14.060  18.333  11.188
64346W        W36771  10.883  12.164  10.677
64347W        W36772  19.665  36.080   1.767
64348W        W36773  32.392  38.872  12.912
64349W        W36774  20.077  30.414  13.749
64350W        W36775   8.417  33.595  10.248
64351W        W36776  12.382   8.730  13.994
64352W        W36777   5.874  31.521   2.809
64353W        W36778  40.819  20.769  12.010
64354W        W36779  22.473  28.840   1.441
64355W        W36780  28.925  29.408  13.378
64356W        W36781  17.109  43.325  13.368
64357W        W36782  29.409   4.336   3.331
64358W        W36783  12.355  14.460   1.230
64359W        W36784   4.205  22.604  11.615
64360W        W36785   1.871  23.677   5.014
64361W        W36786   7.725  13.718  13.581
64362W        W36787  36.105  24.972  12.941
64363W        W36788  12.344   1.210  12.122
64364W        W36789  41.789  33.011  10.659
64365W        W36790  24.259  34.815  13.019
64366W        W36791  11.853   2.345  12.385
64367W        W36792  39.954  23.285  12.459
64368W        W36793  31.949  41.336   1.807
64369W        W36794  27.582  36.351   4.451
64370W        W36795  23.749  31.528   2.878
64371W        W36796  26.652  11.290   1.790
64372W        W36797  28.508  16.205  10.534
64373W        W36798  43.028  26.905   1.914
64374W        W36799   8.668  23.289  14.374
64375W        W36800  18.728  39.549   2.796
64376W        W36801  38.955  30.962   4.223
64377W        W36802  20.544  38.462   4.584
64378W        W36803  42.858  15.684   1.915
64379W        W36804   5.862  31.158   4.641
64380W        W36805  10.722   7.259  12.568
64381W        W36806   8.528  40.215   3.118
64382W        W36807   6.376  44.459   2.764
64383W        W36808  21.681  12.657   1.402
64384W        W36809  43.236  28.896  13.461
64385W        W36810  12.274   7.747  11.996
64386W        W36811   7.678   2.264  13.495
64387W        W36812  29.581  23.934  10.270
64388W        W36813  43.504   0.900  10.768
64389W        W36814  41.407   4.914  14.389
64390W        W36815  15.231   3.479   2.332
64391W        W36816  44.902  19.237   2.174
64392W        W36817  42.041  33.152   3.536
64393W        W36818  18.527  15.380   3.167
64394W        W36819  19.567  13.073  10.619
64395W        W36820  10.171  43.834   0.866
64396W        W36821  28.473   1.001   0.627
64397W        W36822  28.583  19.006  11.985
64398W        W36823  32.971  28.482   2.362
64399W        W36824  38.780   1.650   3.668
64400W        W36825  39.411  34.151  12.069
64401W        W36826  12.713  43.552  10.945
64402W        W36827   0.832  39.659   3.771
64403W        W36828  44.898  43.079  13.864
64404W        W36829  24.062   2.873  12.990
64405W        W36830  32.400   0.924   0.853
64406W        W36831  12.163  15.835   9.867
64407W        W36832  37.253   8.885   0.068
64408W        W36833   3.901  30.865   3.842
64409W        W36834  34.517  41.269  12.149
64410W        W36835  19.419  30.536  10.873
64411W        W36836   8.664  12.302   2.269
64412W        W36837  16.514  40.857   3.211
64413W        W36838  32.506  22.242  10.917
64414W        W36839   0.277  42.419   4.081
64415W        W36840   4.229  19.853   4.488
64416W        W36841  26.461  15.287   4.158
64417W        W36842  15.689  42.475  14.908
64418W        W36843  18.648   0.964   0.728
64419W        W36844  28.653  16.334  13.779
64420W        W36845  44.304  40.832   2.167
64421W        W36846  36.771   3.849   1.861
64422W        W36847  16.688  38.495   1.939
64423W        W36848   8.686  18.561   1.558
64424W        W36849  36.989  43.649   0.834
64425W        W36850  39.365  14.182  10.663
64426W        W36851   0.021  18.063  10.774
64427W        W36852  32.425  44.849  13.781
64428W        W36853   4.477   9.719   4.824
64429W        W36854  14.096  34.613   1.083
64430W        W36855  17.720  22.583   0.002
64431W        W36856  12.233  41.690   1.394
64432W        W36857  13.232  24.149  11.074
64433W        W36858   2.881  31.527  11.102
64434W        W36859  24.594   6.102   4.834
64435W        W36860  12.005  22.353   4.240
64436W        W36861  43.405  42.816   2.738
64437W        W36862  38.577   2.010  14.894
64438W        W36863  32.656  28.657   0.055
64439W        W36864  44.361  32.565  12.531
64440W        W36865  33.479  42.403   1.994
64441W        W36866  33.015  38.315   1.456
64442W        W36867  37.237  37.259   2.936
64443W        W36868  40.873  38.531   4.063
64444W        W36869  27.110  24.648  12.225
64445W        W36870  14.157  38.878   2.336
64446W        W36871  32.483  14.335   4.177
64447W        W36872  28.473  13.419   4.803
64448W        W36873  31.111  35.801  14.838
64449W        W36874   7.225  14.528  11.648
64450W        W36875  23.781   8.739  14.726
64451W        W36876  10.123  24.414   3.282
64452W        W36877  12.609  37.621   1.846
64453W        W36878  34.530  28.502   0.491
64454W        W36879  42.986   1.693   4.327
64455W        W36880  18.645   4.027   0.846
64456W        W36881  29.452   0.430   0.737
64457W        W36882  27.925   4.434  13.400
64458W        W36883  11.392  10.168   0.344
64459W        W36884   0.330  40.594   3.306
64460W        W36885  43.278  19.986   2.735
64461W        W36886  30.989  21.287   0.428
64462W        W36887   5.666  19.544  14.923
64463W        W36888  13.612  16.849  11.115
64464W        W36889  14.249  32.042   0.477
64465W        W36890  27.724  33.524   5.318
64466W        W36891  38.795  30.190  13.888
64467W        W36892  42.019  42.023   2.853
64468W        W36893  11.368  32.496   0.170
64469W        W36894  26.688  18.789  14.378
64470W        W36895  22.622   7.824  14.347
64471W        W36896  17.559  15.027   0.869
64472W        W36897  41.173   4.701  11.052
64473W        W36898  26.189   3.345   3.554
64474W        W36899  26.641   0.440  11.121
64475W        W36900  42.561  40.449   3.305
64476W        W36901  31.410  41.193   5.324
64477W        W36902  33.853   6.923   4.536
64478W        W36903  30.971   2.625  12.771
64479W        W36904   4.452  27.583   3.649
64480W        W36905  29.629  29.274  11.267
64481W        W36906  34.888  34.406  14.293
64482W        W36907  43.052  35.867  14.124
64483W        W36908  12.332  43.010   4.604
64484W        W36909   8.117  22.833   4.050
64485W        W36910  21.670  30.991   3.072
64486W        W36911  28.542  38.649  11.041
64487W        W36912  23.601  38.927   3.860
64488W        W36913  24.520  32.685  12.417
64489W        W36914  42.046  24.140   3.697
64490W        W36915   9.677  31.497   0.209
64491W        W36916  44.359  39.303   2.995
64492W        W36917  42.413   7.589  12.017
64493W        W36918  11.774  27.588  10.571
64494W        W36919  26.994  14.776   4.574
64495W        W36920  11.749   1.524   1.521
64496W        W36921   9.321  40.458   4.450
64497W        W36922  30.353  15.844  12.649
64498W        W36923  22.171  15.784   1.640
64499W        W36924  39.771   4.310   3.855
64500W        W36925  12.415   2.857   3.343
64501W        W36926  29.494  15.614  12.533
64502W        W36927  29.653   8.777  14.044
64503W        W36928  28.664  10.372   0.318
64504W        W36929  17.124  26.750   1.612
64505W        W36930   0.030  26.585   4.374
64506W        W36931  23.929   1.206  12.467
64507W        W36932  17.798  38.513  13.429
64508W        W36933  36.381   8.406  14.900
64509W        W36934  38.378  29.941  11.731
64510W        W36935  31.588  23.679  11.650
64511W        W36936  26.969  28.728   4.644
64512W        W36937  41.519   3.481   2.826
64513W        W36938   4.325  36.940  13.677
64514W        W36939  32.949  33.692   2.328
64515W        W36940  29.989  10.463  12.016
64516W        W36941  35.849   4.264   2.954
64517W        W36942  39.459  44.785   0.344
64518W        W36943   8.017  15.421  13.017
64519W        W36944  29.374  10.395   4.174
64520W        W36945  35.795  21.053   4.412
64521W        W36946  30.549   9.279  11.440
64522W        W36947   6.432   0.586  13.262
64523W        W36948   2.089  17.140  11.683
64524W        W36949  24.506  30.838  13.417
64525W        W36950  18.709  33.479  11.445
64526W        W36951  16.219  34.339   1.023
64527W        W36952  18.605  36.218  13.958
64528W        W36953  24.111  44.772   2.010
64529W        W36954  35.892  17.072   1.854
64530W        W36955  40.389   1.698  10.668
64531W        W36956   7.340  15.119   1.412
64532W        W36957   9.338  34.982  12.298
64533W        W36958  29.057   2.352  12.593
64534W        W36959   3.349  21.484  10.647
64535W        W36960  36.087  12.721   2.400
64536W        W36961  20.263  36.106   2.277
64537W        W36962  23.953   0.709  12.596
64538W        W36963  32.573  16.966   2.384
64539W        W36964  42.931  16.767  13.529
64540W        W36965  32.491   3.219  10.638
64541W        W36966  27.981  44.735  12.532
64542W        W36967   0.863  19.562  11.522
64543W        W36968  25.046   5.933   4.264
64544W        W36969  27.809  12.682  10.711
64545W        W36970   0.883  37.934   0.941
64546W        W36971  38.039  35.608  10.455
64547W        W36972   5.780  17.998   3.345
64548W        W36973  40.480   4.430   2.187
64549W        W36974  14.679  15.119  12.949
64550W        W36975  10.280  41.541   3.762
64551W        W36976   6.518  32.385   3.328
64552W        W36977  38.962  24.202   1.708
64553W        W36978  16.454   2.867  11.836
64554W        W36979  13.726  20.753  11.705
64555W        W36980  15.572  29.942  13.382
64556W        W36981  33.304   2.981   3.207
64557W        W36982   2.210   7.444  12.497
64558W        W36983  40.764   7.615   1.748
64559W        W36984  25.414  12.848   1.393
64560W        W36985   0.323  35.841  12.041
64561W        W36986   7.165  42.900  10.397
64562W        W36987  40.417  23.745   3.824
64563W        W36988  14.300  36.972  14.781
64564W        W36989  14.264   9.497  13.788
64565W        W36990  38.594  15.136  11.095
64566W        W36991  24.100  32.427   1.534
64567W        W36992  19.832  32.571  10.730
64568W        W36993  30.134  36.880  13.333
64569W        W36994  36.606  11.391   4.340
64570W        W36995   0.349  23.894  12.011
64571W        W36996   2.727   8.318  11.171
64572W        W36997  40.058  34.025  13.140
64573W        W36998   0.314  34.791  13.778
64574W        W36999  38.312  20.810   2.074
64575W        W37000  25.548  42.294  13.463
64576W        W37001  21.146   5.149   0.703
64577W        W37002   2.465  17.239   2.838
64578W        W37003  13.927  25.101   3.426
64579W        W37004  43.972  12.946  12.142
64580W        W37005  28.476  27.561  13.470
64581W        W37006  31.871   3.479  14.820
64582W        W37007  39.878   2.473  13.267
64583W        W37008   7.330   3.750  14.517
64584W        W37009  20.513  20.051  13.473
64585W        W37010  29.574   1.270   2.309
64586W        W37011  44.027   0.077  13.801
64587W        W37012  34.772  11.495   1.001
64588W        W37013  33.369   3.023  11.509
64589W        W37014   4.829  21.798   0.248
64590W        W37015  31.446  31.871  14.958
64591W        W37016  29.594  25.565  14.402
64592W        W37017   2.735   3.301   3.835
64593W        W37018  26.139  21.669   2.252
64594W        W37019   4.158  18.515  11.082
64595W        W37020   2.181   7.614   4.166
64596W        W37021  17.840  37.522   2.643
64597W        W37022  40.932  30.967  13.812
64598W        W37023  16.115   3.280  14.017
64599W        W37024  42.836  21.230   0.468
64600W        W37025   8.530   0.842  10.907
64601W        W37026   2.017  37.839   3.259
64602W        W37027  15.700  17.755  14.034
64603W        W37028  27.580   4.673  14.905
64604W        W37029  25.488  27.508   1.232
64605W        W37030  14.521   2.775   4.381
64606W        W37031  21.692   7.112   3.709
64607W        W37032  38.508  25.400   4.147
64608W        W37033  26.724  33.347   5.254
64609W        W37034  22.106  16.323  12.545
64610W        W37035   5.118  23.679   3.442
64611W        W37036  26.731  35.468  14.856
64612W        W37037  23.195  35.197   0.889
64613W        W37038  42.758   3.396   2.226
64614W        W37039  39.972  12.102  11.099
64615W        W37040  11.095   7.480   2.819
64616W        W37041   3.039  16.812  10.664
64617W        W37042  13.164  43.331   4.593
64618W        W37043  21.579  10.904  10.309
64619W        W37044  40.836  37.506  11.115
64620W        W37045  44.880  44.014   2.760
64621W        W37046  23.829  19.734  13.363
64622W        W37047  41.629  21.016   2.338
64623W        W37048  13.813  41.796   0.742
64624W        W37049  18.084  36.014  14.930
64625W        W37050  18.345  34.448  12.765
64626W        W37051  13.913   2.896   0.747
64627W        W37052  33.853  16.609  11.232
64628W        W37053  16.827  38.901   0.698
64629W        W37054  35.989  42.186  13.036
64630W        W37055   6.813  15.637  14.569
64631W        W37056  23.279  21.327  13.780
64632W        W37057   0.498  25.426  12.228
64633W        W37058  38.641  43.880   3.878
64634W        W37059  17.603  32.672  13.428
64635W        W37060  41.071   1.819   2.182
64636W        W37061  21.554  22.126  13.509
64637W        W37062  32.581  17.786  14.369
64638W        W37063  30.866  27.888   0.876
64639W        W37064  13.168  17.034  12.492
64640W        W37065   0.407  33.085   0.750
64641W        W37066  28.942  28.611  14.305
64642W        W37067  44.987  31.238  11.775
64643W        W37068  28.579  29.522  11.975
64644W        W37069  24.017  22.538   2.905
64645W        W37070  31.491  42.486  10.982
64646W        W37071   2.021  44.304  14.535
64647W        W37072  32.880  28.793  12.964
64648W        W37073  19.223   7.522  13.941
64649W        W37074   3.014  37.136   3.290
64650W        W37075   1.849  22.455  14.825
64651W        W37076  33.329  41.402  12.110
64652W        W37077   0.821  18.045   2.230
64653W        W37078  34.697  32.935  11.992
64654W        W37079  39.510  39.406   2.200
64655W        W37080  22.067  22.721  10.631
64656W        W37081   2.417  13.047  12.704
64657W        W37082  44.412  15.373   0.759
64658W        W37083  25.054  38.610  14.962
64659W        W37084   4.188   8.693   2.874
64660W        W37085  23.994  27.855  11.148
64661W        W37086  39.018  21.196  10.162
64662W        W37087  17.553   6.942  14.913
64663W        W37088  16.742  36.310   4.164
64664W        W37089   8.295  29.056  14.648
64665W        W37090  17.703  28.926   4.358
64666W        W37091  26.730  36.931   0.350
64667W        W37092  44.071  32.985   4.255
64668W        W37093  32.311  24.566  14.415
64669W        W37094  44.723  16.911   4.078
64670W        W37095  27.870  10.386  14.370
64671W        W37096  27.515  34.248   3.007
64672W        W37097  37.595  44.608   1.370
64673W        W37098   1.020   2.112   0.505
64674W        W37099  38.607  37.507   0.363
64675W        W37100   6.744  11.637   2.173
64676W        W37101  19.135  23.171  11.256
64677W        W37102   3.736   3.776   4.638
64678W        W37103  28.102  22.767  12.477
64679W        W37104  39.073  18.757  11.347
64680W        W37105   9.267  38.821   0.523
64681W        W37106  35.640  27.155   3.753
64682W        W37107  12.203   6.463  11.047
64683W        W37108  25.528  22.234  13.526
64684W        W37109  11.438  30.117   3.155
64685W        W37110  12.869  13.056  14.761
64686W        W37111  11.964   0.836   2.081
64687W        W37112  13.632  41.432  12.369
64688W        W37113  25.904  29.644  11.126
64689W        W37114  14.804   3.055  11.036
64690W        W37115  43.922  19.255   4.186
64691W        W37116  25.080  16.151  13.553
64692W        W37117  42.344  39.432  14.634
64693W        W37118  44.858  36.541  14.041
64694W        W37119  12.239  34.456  12.885
64695W        W37120  28.520  37.820  12.478
64696W        W37121   6.285  13.036  12.073
64697W        W37122  22.468  39.417  12.925
64698W        W37123  28.941  30.854  13.410
64699W        W37124  30.916   4.421  11.518
64700W        W37125   9.251  34.512   4.442
64701W        W37126  17.388   0.830   4.143
64702W        W37127   5.782  22.777   2.612
64703W        W37128  21.574  14.617   2.881
64704W        W37129   2.015  32.029   0.434
64705W        W37130  17.347  44.889   1.954
64706W        W37131  34.330  29.399   3.606
64707W        W37132   3.254   2.298   0.356
64708W        W37133  28.499  34.063   1.830
64709W        W37134  23.990  36.409   1.406
64710W        W37135  14.395  28.227   0.867
64711W        W37136   3.225  10.675  14.804
64712W        W37137  40.549   2.543  14.540
64713W        W37138  29.046   1.951   0.231
64714W        W37139  11.559  29.306   1.844
64715W        W37140  34.363  31.598  14.290
64716W        W37141  21.071  34.975   3.749
64717W        W37142  43.632   3.216  12.015
64718W        W37143  28.679   8.613   1.534
64719W        W37144  34.681  22.801  10.289
64720W        W37145  22.576  33.617   1.370
64721W        W37146  42.826   3.675   1.225
64722W        W37147   5.432  11.219   3.201
64723W        W37148  23.050  10.011   1.983
64724W        W37149   6.766  30.684  12.623
64725W        W37150  40.037  27.991   0.398
64726W        W37151  41.187  16.504  12.486
64727W        W37152   6.675  33.313   3.205
64728W        W37153  23.718  11.115   4.353
64729W        W37154  33.496  14.310  11.738
64730W        W37155  14.156  36.932  11.664
64731W        W37156  33.606  29.208  11.500
64732W        W37157   9.450  15.771  10.612
64733W        W37158  30.136  31.274  11.377
64734W        W37159  33.614  15.733  11.184
64735W        W37160  18.226  24.577  14.918
64736W        W37161  39.994  11.640  12.328
64737W        W37162   9.675  15.746  11.113
64738W        W37163  20.167  21.278  11.081
64739W        W37164  42.898  17.235  12.816
64740W        W37165  30.365  16.585   3.482
64741W        W37166  39.959  24.793  11.921
64742W        W37167  40.316  41.885  13.712
64743W        W37168   9.584  23.680  11.956
64744W        W37169   3.819  41.157  10.716
64745W        W37170  37.343  10.593   1.754
64746W        W37171  28.428   4.297  12.488
64747W        W37172   0.814   2.424  14.521
64748W        W37173  17.918  14.188   2.405
64749W        W37174  19.693   7.717  13.809
64750W        W37175   2.004  19.604  13.439
64751W        W37176   6.302  15.203   1.247
64752W        W37177  15.570  25.893   3.307
64753W        W37178  19.709  28.585   2.758
64754W        W37179  19.714  28.622  13.843
64755W        W37180  38.465  36.310  12.006
64756W        W37181  36.281  25.655  12.083
64757W        W37182  18.805  22.809   2.819
64758W        W37183  24.002  23.163  12.796
64759W        W37184  37.782   7.902   3.750
64760W        W37185  41.928  31.088   4.657
64761W        W37186  27.086  43.354  12.033
64762W        W37187  38.684  25.647   0.552
64763W        W37188  29.451   2.862  11.411
64764W        W37189  22.717  32.189  13.022
64765W        W37190   6.681  20.955  10.493
64766W        W37191  37.186  35.749  12.477
64767W        W37192  10.083  30.386   1.353
64768W        W37193  29.061  44.377  11.130
64769W        W37194  41.708  21.875   1.775
64770W        W37195  27.045   9.686  11.407
64771W        W37196  37.151  42.706  11.502
64772W        W37197   2.806  30.158   0.338
64773W        W37198  36.874  22.397   1.612
64774W        W37199  42.978   3.924  12.550
64775W        W37200  36.466  38.373   4.629
64776W        W37201  28.499  15.150   2.575
64777W        W37202  22.387  36.583   0.945
64778W        W37203  27.068   7.326   3.360
64779W        W37204   9.309  16.140  14.480
64780W        W37205  30.663   4.866  11.610
64781W        W37206   2.302  27.903  12.142
64782W        W37207  19.139  44.562  10.748
64783W        W37208   9.779  19.797  12.358
64784W        W37209  37.295  17.085   4.149
64785W        W37210  32.983  37.879  11.277
64786W        W37211  11.790   0.333   4.286
64787W        W37212  32.994  28.270  10.652
64788W        W37213  41.348   0.435   4.448
64789W        W37214   8.911   3.663  12.405
64790W        W37215   7.266  25.652   4.440
64791W        W37216   5.129   6.273   3.253
64792W        W37217  40.322   0.450  11.051
64793W        W37218  44.461  42.973   2.194
64794W        W37219  17.268  34.102   4.257
64795W        W37220  44.890  24.546  11.894
64796W        W37221   8.809  41.607  12.069
64797W        W37222  24.354  19.651  13.236
64798W        W37223   4.812  40.281   0.774
64799W        W37224  12.413  13.029  11.922
64800W        W37225  35.607  25.052   4.154
64801W        W37226  34.785  17.489   2.383
64802W        W37227  26.642  27.386  13.264
64803W        W37228  14.312   3.221   4.125
64804W        W37229  41.034  28.518   2.319
64805W        W37230  26.571  44.220  12.472
64806W        W37231  24.739  35.029  11.176
64807W        W37232   6.445   6.815  12.412
64808W        W37233  14.203  36.038  11.734
64809W        W37234   7.131  40.110  14.396
64810W        W37235  13.573  21.790  10.647
64811W        W37236  42.205  33.670   0.984
64812W        W37237  21.065  25.979  11.277
64813W        W37238   8.646  20.566   2.764
64814W        W37239  27.973  34.621  13.606
64815W        W37240  17.286  38.381   0.010
64816W        W37241  21.653  39.148  12.054
64817W        W37242   2.133  22.490   0.723
64818W        W37243   8.449  17.124  13.319
64819W        W37244   3.379  11.086  13.011
64820W        W37245  31.891  44.526   3.272
64821W        W37246  30.125  29.294  12.141
64822W        W37247  10.757   9.900  12.158
64823W        W37248  29.361  40.415  13.447
64824W        W37249  36.559  29.759   3.429
64825W        W37250  22.256  34.013  14.357
64826W        W37251  40.029  43.890   1.135
64827W        W37252  17.296   4.463   2.494
64828W        W37253  22.749  19.968  11.228
64829W        W37254  26.809   1.888   3.710
64830W        W37255  26.457  15.877   3.317
64831W        W37256   1.964  40.621  11.045
64832W        W37257  29.831  32.553   1.893
64833W        W37258  33.348  33.843   4.732
64834W        W37259   2.788  12.151  10.838
64835W        W37260  19.588  38.324   1.244
64836W        W37261  39.433  29.018   0.940
64837W        W37262   7.320  25.146   4.374
64838W        W37263  28.624  30.524   0.474
64839W        W37264  33.790  41.142   3.856
64840W        W37265  42.812  29.457  14.064
64841W        W37266   1.689  44.811   4.281
64842W        W37267  43.785  43.722   2.442
64843W        W37268  20.383  31.383   9.897
64844W        W37269  29.429  18.563  12.061
64845W        W37270  33.192  34.888  11.809
64846W        W37271  21.044   0.871  14.476
64847W        W37272  30.970  32.225  13.370
64848W        W37273  32.312  33.524   2.909
64849W        W37274  43.707   9.282   4.535
64850W        W37275  44.691   3.964  12.465
64851W        W37276  40.000   3.140   3.910
64852W        W37277   5.296  30.981  11.687
64853W        W37278   8.030  37.834  12.340
64854W        W37279  20.559   2.825   3.739
64855W        W37280  32.629  13.647   3.679
64856W        W37281  22.300  40.302  12.330
64857W        W37282  34.842  21.753   0.180
64858W        W37283  32.929   9.356  13.308
64859W        W37284   1.743   6.311  11.615
64860W        W37285   0.483   1.621   2.612
64861W        W37286  19.749  44.538  11.557
64862W        W37287  13.690   8.290   2.335
64863W        W37288  24.758  20.251   3.701
64864W        W37289  31.436  30.944   3.828
64865W        W37290  13.379  21.707   0.513
64866W        W37291  31.201   6.796  10.408
64867W        W37292  31.975  18.741   3.699
64868W        W37293   7.591  38.076  12.468
64869W        W37294  28.167   6.480   1.890
64870W        W37295  24.018  41.824   3.696
64871W        W37296  35.339  30.197   3.076
64872W        W37297  33.376  13.318  11.613
64873W        W37298  27.944   3.503   3.365
64874W        W37299  40.892   4.914  12.638
64875W        W37300  30.106  33.186   4.961
64876W        W37301  34.938  40.735   3.196
64877W        W37302  32.107  36.811  12.047
64878W        W37303  11.744  37.941  13.361
64879W        W37304  15.342   9.724  10.923
64880W        W37305  22.310  10.705  11.175
64881W        W37306  34.015   4.010   0.383
64882W        W37307   3.948  14.924  11.117
64883W        W37308   3.227  25.035   0.688
64884W        W37309  15.051  41.782   3.847
64885W        W37310  13.356  34.111   3.697
64886W        W37311  31.209  42.341   2.935
64887W        W37312   7.256  11.856  12.091
64888W        W37313  26.396   5.396  11.648
64889W        W37314  17.884   8.238   2.780
64890W        W37315  14.585  36.125  13.406
64891W        W37316  17.030  13.254   1.711
64892W        W37317  25.219  38.875   2.317
64893W        W37318  17.617  30.601   3.178
64894W        W37319  15.883  35.837   3.798
64895W        W37320  12.820  33.977  14.915
64896W        W37321  29.156  37.389   3.795
64897W        W37322   1.695  13.618  11.967
64898W        W37323  42.055  27.026   0.934
64899W        W37324  33.332   9.319   1.150
64900W        W37325  17.872   5.675  12.931
64901W        W37326  29.439  22.653  10.714
64902W        W37327  40.055  30.536  11.518
64903W        W37328  11.282  27.550   1.780
64904W        W37329  13.628   2.591   4.552
64905W        W37330  40.335  15.435   2.645
64906W        W37331  12.034  11.860   2.737
64907W        W37332  16.707   7.135   2.180
64908W        W37333  15.196  29.728   1.255
64909W        W37334  31.440  17.096   4.684
64910W        W37335  35.444   8.890   4.452
64911W        W37336  36.586  13.678  13.555
64912W        W37337  43.747  42.535  11.551
64913W        W37338  21.026  26.017   3.923
64914W        W37339  31.113   7.761  14.167
64915W        W37340  33.042   8.286   4.930
64916W        W37341  29.877  17.054  13.650
64917W        W37342  25.704  16.199  13.015
64918W        W37343  39.780  44.401  12.974
64919W        W37344  33.420   8.618  11.541
64920W        W37345  13.668  26.953   0.306
64921W        W37346  27.697  20.275   1.854
64922W        W37347  39.528  44.040   4.404
64923W        W37348  31.380  16.271   1.774
64924W        W37349  15.729   9.690  11.563
64925W        W37350  39.617   0.953   0.866
64926W        W37351  40.293  37.592  11.000
64927W        W37352  20.206   2.749   1.451
64928W        W37353  13.252  43.493  12.648
64929W        W37354  39.379  31.044   3.072
64930W        W37355  12.690  11.766  14.348
64931W        W37356  19.061   4.322  11.171
64932W        W37357  12.337   5.166   3.673
64933W        W37358  32.061  40.751  14.007
64934W        W37359  20.214  34.795   3.370
64935W        W37360   8.559  43.022   2.710
64936W        W37361  17.478  20.068  11.774
64937W        W37362  15.216  30.218   3.638
64938W        W37363  38.481   3.262   2.625
64939W        W37364  13.539  27.964  14.096
64940W        W37365   2.299  13.506  14.108
64941W        W37366  26.690  12.188  12.645
64942W        W37367  39.070  37.757   0.406
64943W        W37368  18.853  15.709   5.029
64944W        W37369  30.513   3.231  12.126
64945W        W37370  24.993  30.563  10.645
64946W        W37371   3.586  37.422  14.519
64947W        W37372  37.426  21.539   1.366
64948W        W37373  36.121  41.307   3.916
64949W        W37374   9.408  12.369   2.626
64950W        W37375   0.001  40.815   0.326
64951W        W37376  26.893  37.055   4.749
64952W        W37377   9.761   8.233   1.877
64953W        W37378   5.953   1.460   4.097
64954W        W37379  27.062  22.153  11.774
64955W        W37380   8.260   7.717   5.069
64956W        W37381  32.430  15.708  10.626
64957W        W37382  34.857  28.449  12.845
64958W        W37383   5.589   0.990  11.210
64959W        W37384   8.718  40.344   3.588
64960W        W37385   9.020  10.188   2.565
64961W        W37386   1.401   9.355   0.329
64962W        W37387  31.198   5.086  14.002
64963W        W37388  12.577  21.965  14.317
64964W        W37389   0.054   5.235  12.987
64965W        W37390  12.862  14.631   1.236
64966W        W37391  14.150  29.150  13.513
64967W        W37392  40.290  34.596   4.780
64968W        W37393   5.838   2.274  14.080
64969W        W37394  14.307  27.449  12.948
64970W        W37395   8.675   6.969   1.381
64971W        W37396  29.575  29.530  10.378
64972W        W37397   1.399  24.926  13.964
64973W        W37398  40.284  23.176  13.499
64974W        W37399   4.591  12.683   3.317
64975W        W37400   0.165  11.728   4.688
64976W        W37401  23.689   2.935   1.274
64977W        W37402   9.189  11.786  12.579
64978W        W37403   5.854  38.932   0.133
64979W        W37404  33.571  29.056  10.996
64980W        W37405  25.075  10.865  12.184
64981W        W37406  11.929  26.415   1.283
64982W        W37407  25.786  26.897  12.917
64983W        W37408   3.546   8.839  11.119
64984W        W37409   7.721   5.190  13.104
64985W        W37410  16.727  24.589  14.337
64986W        W37411  31.147  39.948  11.504
64987W        W37412  35.998  16.880   2.677
64988W        W37413   1.996  17.798  14.872
64989W        W37414  29.510  17.100   3.065
64990W        W37415  24.249   5.459   1.281
64991W        W37416  44.514  26.195  11.069
64992W        W37417   7.236  40.503   3.682
64993W        W37418   7.846  16.237   3.064
64994W        W37419  10.762  41.354   0.273
64995W        W37420  39.461   4.432  14.905
64996W        W37421  24.171  14.805  11.186
64997W        W37422  27.749  26.945  13.091
64998W        W37423  24.023  16.163   4.775
64999W        W37424  32.404  39.135  12.087
65000W        W37425  17.151  44.421  14.271
65001W        W37426  37.984   7.457   0.752
65002W        W37427   5.183  23.611   1.405
65003W        W37428  31.061   6.519  13.805
65004W        W37429  39.471  20.275  11.334
65005W        W37430   2.006   6.729   0.424
65006W        W37431   2.221   1.685  11.556
65007W        W37432  35.617  43.265   2.795
65008W        W37433  31.078  32.166   3.592
65009W        W37434   2.368  23.460   2.336
65010W        W37435  19.160   5.512   4.158
65011W        W37436  10.676   5.270   3.527
65012W        W37437   5.894  26.327  11.183
65013W        W37438   3.199   5.862   2.792
65014W        W37439  41.041  33.026   1.908
65015W        W37440  12.739  17.958  11.443
65016W        W37441  37.619   9.641   1.802
65017W        W37442  31.017  21.618   2.763
65018W        W37443  16.438  44.001   3.558
65019W        W37444   9.681  43.010  11.583
65020W        W37445  37.954  21.108   1.831
65021W        W37446  41.726   8.923   4.846
65022W        W37447   2.049  15.695   2.379
65023W        W37448  39.265  36.073   3.242
65024W        W37449  38.438  34.982  14.542
65025W        W37450   2.025  16.205  14.832
65026W        W37451   2.110  11.188   0.488
65027W        W37452  30.575   5.495   1.223
65028W        W37453   7.320  20.636   3.370
65029W        W37454  34.690  21.205   0.842
65030W        W37455  35.426   7.403  10.696
65031W        W37456   5.155  13.177   3.724
65032W        W37457   5.465  33.473   4.180
65033W        W37458  34.483  16.216   4.647
65034W        W37459  42.099  22.370  10.697
65035W        W37460  41.810  33.874  12.012
65036W        W37461   2.939  22.838   0.414
65037W        W37462  31.505  36.638  10.572
65038W        W37463   8.953  44.429  11.054
65039W        W37464  19.597   1.500  11.036
65040W        W37465   2.389  36.396  14.857
65041W        W37466   2.721   2.333  13.842
65042W        W37467  30.418  33.497  12.196
65043W        W37468  10.562  27.707  12.979
65044W        W37469  21.659  30.842  13.792
65045W        W37470   1.645  41.093  13.120
65046W        W37471  30.622  22.465  12.446
65047W        W37472   6.993  30.587  13.712
65048W        W37473  14.384   7.211  13.268
65049W        W37474  11.581  31.173   0.215
65050W        W37475  31.677  16.139   4.592
65051W        W37476  41.312  21.681  11.556
65052W        W37477  28.058  20.301  10.716
65053W        W37478  12.267  11.814  13.151
65054W        W37479  25.331   8.946  11.683
65055W        W37480  26.006  13.079   3.215
65056W        W37481  23.761  38.389  12.490
65057W        W37482  34.063  10.519   3.779
65058W        W37483  38.389  14.356  14.358
65059W        W37484  17.111   6.265  14.574
65060W        W37485  25.739   1.260   3.342
65061W        W37486  28.043  16.551  12.468
65062W        W37487  29.983  12.780   1.286
65063W        W37488  25.060  22.685  13.812
65064W        W37489  13.391  31.629  13.732
65065W        W37490  10.109  38.298   4.214
65066W        W37491  22.252  26.114   0.732
65067W        W37492  40.585  10.991  10.344
65068W        W37493  21.091  35.876   1.899
65069W        W37494  36.288  40.367  13.097
65070W        W37495  37.644   0.697  14.704
65071W        W37496  20.796  25.960   1.030
65072W        W37497  13.166  13.705  12.164
65073W        W37498  21.728  18.032  13.795
65074W        W37499  16.254  36.916   0.849
65075W        W37500   2.976  29.341   1.322
65076W        W37501  37.512  40.927   1.146
65077W        W37502  24.951  20.507  11.559
65078W        W37503  43.128  44.384  10.303
65079W        W37504   8.246  25.958   2.724
65080W        W37505  10.216  31.402   4.106
65081W        W37506  24.583  22.674   4.001
65082W        W37507   9.797  26.136  13.092
65083W        W37508  42.386  36.053  14.413
65084W        W37509  41.243  20.262   2.679
65085W        W37510  18.600  17.821   0.307
65086W        W37511  29.010  30.998  13.925
65087W        W37512   0.328   4.198  10.930
65088W        W37513  21.445  14.577   0.881
65089W        W37514   9.028   5.813   3.289
65090W        W37515   3.011  30.350  12.591
65091W        W37516  21.778   7.398  11.402
65092W        W37517  33.617  31.818  12.551
65093W        W37518  13.320  10.265   0.712
65094W        W37519   0.296   5.874   0.228
65095W        W37520  26.353  36.049   1.930
65096W        W37521  28.300  12.319  14.954
65097W        W37522  27.470  13.725   4.713
65098W        W37523  43.292   8.850   3.656
65099W        W37524  32.585   2.225  14.828
65100W        W37525   6.097  31.750  13.967
65101W        W37526  29.437  44.300   4.104
65102W        W37527   8.619  42.857  13.412
65103W        W37528  24.907  39.362  12.510
65104W        W37529  42.149  18.167   3.163
65105W        W37530  12.615  19.599   1.754
65106W        W37531   9.041  19.521  14.022
65107W        W37532  41.308  20.582   2.247
65108W        W37533  29.810   4.500   2.084
65109W        W37534  22.642  29.897   3.590
65110W        W37535  43.418  25.895   0.755
65111W        W37536  35.485   3.402  10.395
65112W        W37537  31.643  27.939   1.348
65113W        W37538  37.387  27.960   1.230
65114W        W37539  19.226  33.317  12.389
65115W        W37540  39.096  25.990   4.290
65116W        W37541  16.438   0.947   3.255
65117W        W37542  27.594  21.628   1.791
65118W        W37543   8.722  17.783  12.074
65119W        W37544  13.821  36.578   0.269
65120W        W37545  32.001  34.152   4.865
65121W        W37546  42.337  38.094   0.402
65122W        W37547  27.470  36.031   0.928
65123W        W37548  18.393  22.619  12.127
65124W        W37549   2.231   9.179  13.949
65125W        W37550   6.717  41.561  14.478
65126W        W37551   3.247  29.978  12.068
65127W        W37552  35.049   0.526   0.247
65128W        W37553  44.818  42.957  12.002
65129W        W37554   0.403  40.794   1.252
65130W        W37555   6.690  22.719  11.515
65131W        W37556   4.157  25.580  14.820
65132W        W37557  15.836  38.138  11.413
65133W        W37558  18.270  27.451   2.780
65134W        W37559  14.445   3.865   1.848
65135W        W37560  12.178  18.336  14.023
65136W        W37561  35.073   8.401  12.498
65137W        W37562   7.676  36.816   4.140
65138W        W37563  29.837  12.037   1.950
65139W        W37564  28.082   9.656   3.208
65140W        W37565   5.992  20.850  13.611
65141W        W37566  18.191  38.128   2.225
65142W        W37567  19.055  34.556   3.629
65143W        W37568   1.686  20.517  13.409
65144W        W37569  19.591  17.723   0.588
65145W        W37570  17.680  42.383   4.662
65146W        W37571   7.386  18.376   1.361
65147W        W37572  42.711   3.558   5.081
65148W        W37573   8.404   6.876   3.959
65149W        W37574  27.272  11.230  11.451
65150W        W37575  43.544  24.907   4.664
65151W        W37576   0.767  42.414  13.885
65152W        W37577  12.063  14.122  14.413
65153W        W37578  39.870  10.605  14.090
65154W        W37579  17.787  39.991   4.214
65155W        W37580   9.459  11.221   1.457
65156W        W37581   8.935   9.290   3.111
65157W        W37582  11.287  29.060  14.446
65158W        W37583  17.478  44.367   3.196
65159W        W37584  26.486  21.236  12.531
65160W        W37585  35.421   8.159  13.962
65161W        W37586   7.968  27.013   4.553
65162W        W37587  19.042  13.635   3.066
65163W        W37588  28.641  25.668  11.829
65164W        W37589  30.731  22.301  13.467
65165W        W37590  43.340  26.462   1.918
65166W        W37591  41.395  33.851   1.448
65167W        W37592  14.086  32.890   3.655
65168W        W37593  37.327  16.627  14.371
65169W        W37594   6.638  41.031  14.475
65170W        W37595  16.529  13.359  14.226
65171W        W37596  17.709  26.055  11.484
65172W        W37597  35.845  12.361  14.973
65173W        W37598  25.583  24.680   4.701
65174W        W37599   4.334   7.976   0.267
65175W        W37600  18.625  16.788   3.741
65176W        W37601  43.734  21.041  14.715
65177W        W37602  17.387   8.866   3.254
65178W        W37603  35.528   0.800   0.960
65179W        W37604  11.541   6.816  14.416
65180W        W37605  17.213  25.222  14.511
65181W        W37606  14.194  36.978   1.014
65182W        W37607  35.212  35.423   0.833
65183W        W37608   3.946  36.270  10.986
65184W        W37609  34.696  29.060   0.298
65185W        W37610  37.061   9.012   4.216
65186W        W37611  25.129  34.497  11.846
65187W        W37612  22.484  18.709   0.150
65188W        W37613   3.248  21.774  14.823
65189W        W37614  15.735  39.491   1.424
65190W        W37615  30.418  18.757   5.064
65191W        W37616  20.435  44.004   1.817
65192W        W37617  35.166  12.779   1.549
65193W        W37618  31.906  24.085  13.481
65194W        W37619  38.615  16.533  13.962
65195W        W37620  34.226   4.888  14.955
65196W        W37621   3.492  29.577  13.333
65197W        W37622  21.168  29.490   3.084
65198W        W37623  11.527  35.224   5.017
65199W        W37624  12.547  43.027  14.327
65200W        W37625   1.746   9.253  14.970
65201W        W37626  35.839  15.210  13.965
65202W        W37627  13.846   0.714   2.131
65203W        W37628  11.436  31.896   4.265
65204W        W37629  14.178  17.089   0.763
65205W        W37630  12.935  28.447  11.918
65206W        W37631  23.174  34.878   2.280
65207W        W37632  14.830  34.803  14.223
65208W        W37633  43.367  15.126   3.695
65209W        W37634  39.294  32.486  12.620
65210W        W37635   4.460   0.315   2.730
65211W        W37636  13.813   8.293  12.484
65212W        W37637  36.805  11.654  12.559
65213W        W37638  16.607   2.095   3.767
65214W        W37639  34.335  19.680   3.078
65215W        W37640   5.931   2.384   4.808
65216W        W37641  15.672  31.391   0.606
65217W        W37642  29.045   8.753   3.662
65218W        W37643  27.538  19.998   1.441
65219W        W37644  15.183  17.752  13.928
65220W        W37645  25.999  31.025   3.215
65221W        W37646  23.591  26.551   4.771
65222W        W37647  39.286  32.331   3.219
65223W        W37648  18.233  37.391  14.863
65224W        W37649  32.299  32.982  13.112
65225W        W37650  28.635  14.302  12.113
65226W        W37651   8.070  38.573  11.057
65227W        W37652   9.677   1.484   2.220
65228W        W37653  28.869   5.219  12.401
65229W        W37654  20.731   8.315   4.853
65230W        W37655  43.436  32.461   1.433
65231W        W37656  42.814  41.402  10.695
65232W        W37657  16.310   6.586  11.171
65233W        W37658  12.689   0.799   0.898
65234W        W37659  27.167  23.816   1.889
65235W        W37660  12.790  26.002  11.103
65236W        W37661  25.490  17.606  12.500
65237W        W37662  27.641  40.522   2.337
65238W        W37663  41.099  32.545   4.060
65239W        W37664  30.443   0.678  13.498
65240W        W37665  38.850  37.100   4.076
65241W        W37666  30.098  38.096  14.731
65242W        W37667  31.903  11.210  13.867
65243W        W37668  39.676   9.269  14.142
65244W        W37669   5.294  36.423  13.510
65245W        W37670  36.875  32.590   2.312
65246W        W37671  14.490  15.105  12.044
65247W        W37672  24.694   9.706   5.351
65248W        W37673  16.591  11.574   2.122
65249W        W37674   3.799  15.326   4.931
65250W        W37675  21.061  26.953   3.561
65251W        W37676  32.650  37.452  10.748
65252W        W37677  12.759  11.421   0.511
65253W        W37678   9.002  13.733   1.868
65254W        W37679   1.681   2.723   1.828
65255W        W37680  22.878  27.715  10.579
65256W        W37681  33.651  43.853   4.245
65257W        W37682   8.582  22.130   2.345
65258W        W37683  24.107  36.124  10.719
65259W        W37684   6.620  19.436   1.325
65260W        W37685  38.498  39.472   0.861
65261W        W37686  29.234   7.745   3.547
65262W        W37687  32.874  22.468   2.555
65263W        W37688  41.575  43.837  13.096
65264W        W37689   9.858  39.814  12.580
65265W        W37690  13.595   3.936  10.893
65266W        W37691  20.991  10.799   3.182
65267W        W37692  20.322  30.691   1.301
65268W        W37693  26.576  22.844  12.816
65269W        W37694   7.633  19.630   3.562
65270W        W37695  34.129  16.474   9.696
65271W        W37696  28.946  27.535  10.437
65272W        W37697  38.050  18.852  12.142
65273W        W37698   4.885  11.921  11.949
65274W        W37699  38.593  13.642   4.235
65275W        W37700  13.766  31.943  13.490
65276W        W37701  26.034  40.414   0.636
65277W        W37702  26.259  14.729  14.877
65278W        W37703  42.333  31.927   1.354
65279W        W37704  41.354  40.497   2.193
65280W        W37705  31.369  21.784  14.944
65281W        W37706  11.981  41.764   4.472
65282W        W37707  30.988  11.523  14.295
65283W        W37708  28.597   1.347   2.243
65284W        W37709  24.918  11.765  12.185
65285W        W37710  34.830  15.255   2.320
65286W        W37711  35.054  14.843   2.589
65287W        W37712  17.327  20.905  13.096
65288W        W37713  25.757  43.391  11.765
65289W        W37714  35.579  28.158  14.749
65290W        W37715  31.542  42.953  10.156
65291W        W37716  17.607   2.379  10.118
65292W        W37717  32.712   6.608   1.847
65293W        W37718   5.686   0.080  10.731
65294W        W37719  43.866  15.835   0.407
65295W        W37720   5.787  30.895  13.845
65296W        W37721  25.194  28.415   4.072
65297W        W37722  29.132  35.687  13.639
65298W        W37723  12.210  40.829  14.371
65299W        W37724  15.046  43.819  13.814
65300W        W37725  34.884   7.461  11.481
65301W        W37726   7.728  16.243  12.087
65302W        W37727  14.314   5.624  14.500
65303W        W37728  13.659  36.314  10.594
65304W        W37729  20.519  44.146  12.688
65305W        W37730  16.770  10.935   1.407
65306W        W37731  27.967   0.803   0.772
65307W        W37732  18.253  32.430  13.003
65308W        W37733   9.208  42.934   1.360
65309W        W37734  42.023  29.595   4.650
65310W        W37735  13.304  19.357  10.659
65311W        W37736  36.025  40.852  13.135
65312W        W37737  24.191  34.166   4.501
65313W        W37738   9.174   4.520  11.516
65314W        W37739  37.194  28.986  14.771
65315W        W37740   0.276  31.883   0.739
65316W        W37741  31.432  15.841  13.148
65317W        W37742  12.677  25.124   0.942
65318W        W37743  42.085   4.474  13.543
65319W        W37744  21.482   7.453  14.982
65320W        W37745  37.070  15.622   1.429
65321W        W37746  29.636  12.827   1.976
65322W        W37747  33.996  14.322  10.972
65323W        W37748  37.924  26.715   2.648
65324W        W37749   1.905  40.906  11.465
65325W        W37750  23.031   4.645   4.225
65326W        W37751   1.691  15.392  11.125
65327W        W37752   7.506  34.358   9.995
65328W        W37753   5.159   4.970  12.407
65329W        W37754  32.632  17.775  11.029
65330W        W37755   2.805  12.107   0.804
65331W        W37756  34.461  29.717  14.734
65332W        W37757  29.317  34.888  12.977
65333W        W37758   1.489   4.872   3.151
65334W        W37759   3.512  36.925   3.291
65335W        W37760  13.305  10.034   1.619
65336W        W37761  37.526   6.661   0.711
65337W        W37762  32.999  24.389  12.030
65338W        W37763  35.846  43.443  13.897
65339W        W37764  21.219  38.141   1.333
65340W        W37765  28.522   6.869   2.756
65341W        W37766  36.802  28.608  13.490
65342W        W37767  33.991  20.683   4.549
65343W        W37768  40.408  23.056   3.093
65344W        W37769  14.738  22.581   2.804
65345W        W37770  14.636  15.748  11.527
65346W        W37771  23.925   3.204   4.888
65347W        W37772  26.128  11.668  12.876
65348W        W37773  17.208  34.415  10.210
65349W        W37774  40.752   7.917   2.570
65350W        W37775  15.966  10.866   1.725
65351W        W37776  21.493   9.688   0.655
65352W        W37777   7.603  38.886   4.099
65353W        W37778  32.919  40.947   4.702
65354W        W37779  29.069  17.271   4.939
65355W        W37780  28.538  42.439  10.935
65356W        W37781  41.323  21.108  12.394
65357W        W37782  44.766  28.790  10.765
65358W        W37783  31.383  44.841  11.507
65359W        W37784  22.165  19.759  14.759
65360W        W37785  44.803  26.857   5.051
65361W        W37786  38.441  39.981   1.318
65362W        W37787   7.184  16.002   4.526
65363W        W37788  21.854  11.331   2.375
65364W        W37789  29.577  21.346  12.506
65365W        W37790  39.461   5.387  11.080
65366W        W37791  28.808  27.933   3.772
65367W        W37792  19.549  13.791  13.007
65368W        W37793   2.961   2.823   1.266
65369W        W37794  23.568   2.414   4.449
65370W        W37795  18.722  42.440   1.876
65371W        W37796  44.900  28.390  14.444
65372W        W37797  43.336   7.199  11.109
65373W        W37798  11.670  28.156  11.966
65374W        W37799  20.488  44.813  14.155
65375W        W37800  20.928  18.199  13.385
65376W        W37801  42.039   2.669   1.575
65377W        W37802  28.145  41.419   3.651
65378W        W37803  32.302  18.635  10.712
65379W        W37804  38.004  33.617  13.893
65380W        W37805   9.292  43.396   3.375
65381W        W37806  43.549  40.539  14.446
65382W        W37807   0.991  35.916  11.278
65383W        W37808  38.308   0.460  11.760
65384W        W37809  33.099  18.095  11.069
65385W        W37810  28.001   7.127   3.317
65386W        W37811  10.172   8.014  12.069
65387W        W37812  28.038  18.937  10.144
65388W        W37813  14.380  10.468  14.149
65389W        W37814   3.911  41.344   2.846
65390W        W37815  36.970   8.936  12.118
65391W        W37816   8.222   7.990   4.617
65392W        W37817   8.213  18.497   4.209
65393W        W37818   6.819  43.393   1.021
65394W        W37819  42.063  42.515   0.833
65395W        W37820   4.698   6.829   1.798
65396W        W37821  15.941  43.402  12.001
65397W        W37822   7.800  20.557  14.032
65398W        W37823  12.518  22.257   2.370
65399W        W37824   9.763  35.364   5.124
65400W        W37825   7.631  40.994  14.544
65401W        W37826  30.992  12.361  12.449
65402W        W37827   6.214   5.232  14.865
65403W        W37828  32.017  26.569  10.448
65404W        W37829   1.367  21.882  11.496
65405W        W37830  40.851   0.992  12.949
65406W        W37831  22.253   8.975   0.566
65407W        W37832  44.694  37.097   4.656
65408W        W37833  30.562  13.934   0.423
65409W        W37834  37.597  37.054   4.406
65410W        W37835  20.693   2.554   1.305
65411W        W37836   7.089  14.341   1.887
65412W        W37837  23.034  29.631  13.425
65413W        W37838  37.085  17.845   1.583
65414W        W37839  20.486  31.783  11.481
65415W        W37840  25.243   9.373   1.982
65416W        W37841   8.811  42.545  10.971
65417W        W37842  16.120   0.985   0.284
65418W        W37843  36.900  30.146   2.184
65419W        W37844  37.031  37.903  10.605
65420W        W37845  42.849  10.248  13.541
65421W        W37846  43.293   2.571  10.480
65422W        W37847  43.720  20.005   4.607
65423W        W37848  13.622  16.012  12.816
65424W        W37849  22.534   1.719  13.019
65425W        W37850  43.957  25.591  10.693
65426W        W37851   4.150  35.061  13.598
65427W        W37852   1.364  39.986   1.366
65428W        W37853   8.440  39.022   3.666
65429W        W37854  17.801  42.088  13.006
65430W        W37855  21.255  17.684  14.257
65431W        W37856  30.672  27.560   1.765
65432W        W37857   1.482   9.938  12.384
65433W        W37858  33.474  25.025   1.465
65434W        W37859  27.362  35.547  14.247
65435W        W37860   7.324   0.945   0.305
65436W        W37861  12.339  40.552  10.668
65437W        W37862  43.513   3.872   3.434
65438W        W37863  17.741  31.289   3.619
65439W        W37864  18.456  32.607   1.368
65440W        W37865  24.710   0.310   4.548
65441W        W37866  33.845  39.867  14.893
65442W        W37867  24.711  24.103  14.061
65443W        W37868  25.041  17.999   0.384
65444W        W37869  28.267   6.378  11.575
65445W        W37870  28.509  39.276   0.668
65446W        W37871  35.572  44.359   0.681
65447W        W37872   0.832  40.189   2.815
65448W        W37873  30.296  30.568   2.869
65449W        W37874  27.056  23.591  14.878
65450W        W37875  39.773  34.542  11.334
65451W        W37876  26.540  17.615   1.943
65452W        W37877  25.444  31.140   1.762
65453W        W37878   0.748  42.026   3.916
65454W        W37879   8.367  43.401  10.545
65455W        W37880  15.517  32.924   3.552
65456W        W37881  32.817  43.533   4.194
65457W        W37882  11.853  16.113  11.533
65458W        W37883   9.908  38.035   3.225
65459W        W37884  10.761  24.814   1.413
65460W        W37885  29.429  22.636  11.598
65461W        W37886  17.501  34.457  12.172
65462W        W37887  28.189  24.488   2.301
65463W        W37888  17.582  26.034   1.230
65464W        W37889  34.669  33.462   0.870
65465W        W37890  22.153   8.377   3.312
65466W        W37891  33.512  15.891   0.331
65467W        W37892  34.462  16.971  12.872
65468W        W37893   3.337  35.142  12.388
65469W        W37894   6.254  33.032  11.391
65470W        W37895   9.630  12.580  12.007
65471W        W37896  41.317  14.241  14.985
65472W        W37897  28.863   4.877   3.886
65473W        W37898  30.695   0.433   3.793
65474W        W37899   8.239  36.893  12.840
65475W        W37900   6.894  10.564  11.943
65476W        W37901  32.542  36.274  12.929
65477W        W37902  18.989  42.314   2.320
65478W        W37903   3.378   1.977   3.286
65479W        W37904  37.445  11.184   4.604
65480W        W37905   0.237   6.996  11.942
65481W        W37906  32.941  37.569   3.701
65482W        W37907  31.708  40.889  12.688
65483W        W37908  42.231  43.236  13.946
65484W        W37909  18.211  20.008  10.703
65485W        W37910   9.468  43.306   0.659
65486W        W37911  17.551  26.935   4.074
65487W        W37912   1.263  10.889   2.281
65488W        W37913  22.635   2.738   1.677
65489W        W37914  42.379   8.326  13.003
65490W        W37915  36.974  22.847  10.593
65491W        W37916  26.489   9.680  13.438
65492W        W37917  16.040   8.677   1.490
65493W        W37918  29.553  12.705   5.043
65494W        W37919  14.561   8.872  10.301
65495W        W37920   2.909  26.507   2.649
65496W        W37921   6.677   9.696  12.965
65497W        W37922  29.895  16.817   4.864
65498W        W37923  21.109   4.169  14.662
65499W        W37924  10.225  18.619   0.364
65500W        W37925  18.096  23.190  10.892
65501W        W37926  11.283  24.171  10.283
65502W        W37927  25.648   4.465  10.827
65503W        W37928  10.948   1.846   1.935
65504W        W37929  34.333  44.928  13.981
65505W        W37930  24.172  20.885   4.841
65506W        W37931  14.416  23.954  13.052
65507W        W37932  25.294   5.389   2.919
65508W        W37933  15.608  42.367  11.971
65509W        W37934  39.787   6.127  13.559
65510W        W37935  42.502  16.065  11.892
65511W        W37936   1.746  29.560   3.357
65512W        W37937   2.383  27.093   0.008
65513W        W37938  17.082  16.846   1.789
65514W        W37939  44.202  12.701  10.702
65515W        W37940  27.987   3.874   2.245
65516W        W37941  11.295  33.519  14.629
65517W        W37942  13.503  23.529   2.077
65518W        W37943   7.731  36.850  12.921
65519W        W37944  41.190  18.690   0.322
65520W        W37945  14.572   7.876   4.703
65521W        W37946  36.391   0.529   4.623
65522W        W37947  22.344  37.985  11.412
65523W        W37948  11.140  40.804  12.940
65524W        W37949  28.680   3.725   3.419
65525W        W37950  21.993  21.775   4.260
65526W        W37951   8.228   1.695  11.491
65527W        W37952  37.878  12.291   2.713
65528W        W37953   5.152  27.627  10.703
65529W        W37954  39.529   0.835   2.439
65530W        W37955  20.676  12.652  13.184
65531W        W37956  26.195  22.407   4.743
65532W        W37957  40.873  39.602   2.358
65533W        W37958  15.756  40.996   1.678
65534W        W37959  32.365  21.601  14.970
65535W        W37960  28.397  38.403   4.618
65536W        W37961   4.202  21.113  13.724
65537W        W37962  40.069  13.350  11.597
65538W        W37963  15.443   7.836  12.425
65539W        W37964  17.795   1.051  12.801
65540W        W37965   2.427  16.701   3.298
65541W        W37966   6.750  13.694   3.659
65542W        W37967  17.226  29.584  14.354
65543W        W37968  44.380   5.617  11.961
65544W        W37969   5.120  16.840  12.587
65545W        W37970  24.583  32.136   1.336
65546W        W37971  25.680  28.995   4.737
65547W        W37972   5.854  36.557  13.976
65548W        W37973  18.455  36.408  14.872
65549W        W37974  15.853  31.694  13.886
65550W        W37975  17.621  41.893  13.491
65551W        W37976   9.830  16.788  14.321
65552W        W37977  40.310  20.239  12.433
65553W        W37978   6.196  28.092   4.090
65554W        W37979   4.418  20.236  14.932
65555W        W37980  35.709  26.517   4.207
65556W        W37981  33.454   9.357  13.348
65557W        W37982  14.855  43.404   3.763
65558W        W37983  39.564   6.176  14.925
65559W        W37984  15.603  14.772  11.619
65560W        W37985  12.710   6.467  13.534
65561W        W37986  13.589   8.303   1.456
65562W        W37987  24.262  27.382  11.113
65563W        W37988  15.229  44.226  12.934
65564W        W37989   3.721  21.594  14.875
65565W        W37990  37.826  16.637   2.803
65566W        W37991   7.481  33.544  14.798
65567W        W37992  42.783  36.863  14.251
65568W        W37993  30.523  39.317  11.635
65569W        W37994  43.095  26.309  11.170
65570W        W37995   5.194  16.715   4.118
65571W        W37996  25.161   1.207  14.422
65572W        W37997   0.721  13.422  11.095
65573W        W37998  23.603   3.450   1.280
65574W        W37999  35.329   8.758  14.822
65575W        W38000  22.612   0.843   1.200
65576W        W38001  38.345   9.613  13.537
65577W        W38002  28.855  35.507  11.128
65578W        W38003  26.965  28.601   2.655
65579W        W38004  36.084   6.243   3.136
65580W        W38005  40.625  13.871   2.394
65581W        W38006  27.705  31.631   4.297
65582W        W38007  11.739  20.011   9.987
65583W        W38008  40.288  17.787   3.116
65584W        W38009  38.952  40.288   3.273
65585W        W38010  27.004   7.936   1.155
65586W        W38011  41.469  14.921   2.833
65587W        W38012  29.688  20.569   2.907
65588W        W38013  37.873  25.985   4.589
65589W        W38014  36.881   7.735  14.618
65590W        W38015  43.867   7.212   3.303
65591W        W38016  34.481  18.617  11.162
65592W        W38017  14.250  21.479  12.931
65593W        W38018  15.266   0.755   3.391
65594W        W38019  26.395   8.782  12.079
65595W        W38020  23.492   3.398  11.428
65596W        W38021  44.774   3.751   3.410
65597W        W38022  12.163   2.450  14.806
65598W        W38023  35.471  16.652  13.005
65599W        W38024   3.995  29.946  11.536
65600W        W38025  21.574  37.793   2.781
65601W        W38026  43.512  19.310  10.728
65602W        W38027  19.474  11.811   3.224
65603W        W38028  22.174   6.304  11.544
65604W        W38029  39.281  40.523   0.210
65605W        W38030  18.734  31.665   3.322
65606W        W38031  18.812  22.489  12.942
65607W        W38032   7.739  35.378   3.613
65608W        W38033  14.737  43.942   0.730
65609W        W38034   2.505   3.677   1.875
65610W        W38035  43.484   4.596  12.151
65611W        W38036  27.115   0.971   2.203
65612W        W38037  18.115  16.296  13.203
65613W        W38038   7.314  44.801  13.401
65614W        W38039  12.526   7.706   3.210
65615W        W38040  35.849   8.193  14.878
65616W        W38041  43.201  28.053  12.535
65617W        W38042   9.271  16.651  10.309
65618W        W38043   6.227  33.368  12.387
65619W        W38044  41.600  38.382   1.188
65620W        W38045   6.403  21.916   4.711
65621W        W38046   8.499  43.307  11.528
65622W        W38047  31.805  32.371  12.867
65623W        W38048  42.388  15.694  13.207
65624W        W38049  17.908  28.273  14.770
65625W        W38050  38.879  10.287   0.550
65626W        W38051  24.830   7.757   2.320
65627W        W38052  10.195   8.966  13.454
65628W        W38053  22.200   0.787  14.388
65629W        W38054  22.694  26.517   0.434
65630W        W38055  14.660   6.389   2.424
65631W        W38056   2.213  22.058   3.324
65632W        W38057  36.022  40.277  12.285
65633W        W38058   1.882  22.354   1.711
65634W        W38059  31.871  25.495  14.434
65635W        W38060   2.775  23.286   4.202
65636W        W38061  37.550  32.655   0.866
65637W        W38062   9.057  41.381  12.869
65638W        W38063  20.139   0.044   0.008
65639W        W38064   5.866  24.158   4.424
65640W        W38065  19.074  10.926  13.860
65641W        W38066  10.942   3.957   1.658
65642W        W38067  27.527  10.242   3.635
65643W        W38068   6.142  15.082   3.947
65644W        W38069  19.084  12.682  14.503
65645W        W38070  32.867  38.088   3.751
65646W        W38071  34.266  15.712   1.245
65647W        W38072  33.509  43.991   0.353
65648W        W38073  21.669  15.074   2.663
65649W        W38074  34.826   4.338  14.689
65650W        W38075  44.380  37.569  14.839
65651W        W38076  29.136  22.198  11.243
65652W        W38077  33.990  21.591  11.099
65653W        W38078   6.230  16.336   0.386
65654W        W38079  24.974  33.224   5.188
65655W        W38080   4.981  28.071  13.557
65656W        W38081  23.672   9.727   4.962
65657W        W38082  28.663  44.581   3.734
65658W        W38083  33.434  27.536   3.427
65659W        W38084  30.580   6.390  13.130
65660W        W38085  25.699  36.970  13.407
65661W        W38086  25.439  12.627   3.581
65662W        W38087  19.301  37.580   3.001
65663W        W38088  42.436   2.419   1.306
65664W        W38089   5.152  16.560  14.826
65665W        W38090  38.291  30.169  13.893
65666W        W38091  20.616  22.617  12.156
65667W        W38092  27.777  23.607   2.710
65668W        W38093  40.255  44.815   2.701
65669W        W38094  33.099  15.021  12.365
65670W        W38095  19.147  41.571   4.624
65671W        W38096   7.700   6.338  14.724
65672W        W38097  30.072  39.538   1.358
65673W        W38098  29.308  26.057  14.932
65674W        W38099  41.320  15.087  14.335
65675W        W38100   1.942  23.001  11.096
65676W        W38101  39.012  13.309   2.123
65677W        W38102  20.249   0.250  12.056
65678W        W38103  40.343  22.296   4.575
65679W        W38104  38.613  26.198   2.700
65680W        W38105  17.098   2.761  10.664
65681W        W38106  14.602  40.272  11.135
65682W        W38107  22.695  10.308   4.227
65683W        W38108  30.746  24.218  12.309
65684W        W38109  28.007  20.047   1.191
65685W        W38110  25.721  37.148   0.312
65686W        W38111  35.199  39.500  12.107
65687W        W38112  19.627  37.985   2.290
65688W        W38113  29.363  26.897  11.146
65689W        W38114  12.423  42.418  14.924
65690W        W38115  30.983  11.579  10.657
65691W        W38116  21.501  10.686  10.759
65692W        W38117   5.983  43.776  14.258
65693W        W38118  22.544  10.878   3.242
65694W        W38119   1.783  34.692  14.634
65695W        W38120  20.262   3.674   4.043
65696W        W38121  22.742  35.804  11.454
65697W        W38122   7.767  35.186  12.056
65698W        W38123   3.760   6.484   0.057
65699W        W38124  36.941  10.216   3.299
65700W        W38125   8.762  15.551   0.893
65701W        W38126  24.466  37.968  12.424
65702W        W38127   0.791  10.898  14.959
65703W        W38128  18.542  25.481  12.386
65704W        W38129   4.735   0.943   3.658
65705W        W38130   6.781   9.903  10.653
65706W        W38131  24.702  11.412   4.280
65707W        W38132   2.844  16.364   4.128
65708W        W38133  14.338  21.671   0.383
65709W        W38134  15.273  14.538   3.653
65710W        W38135  36.611   7.612   5.121
65711W        W38136   7.149  15.750   2.986
65712W        W38137  43.859   6.689   0.788
65713W        W38138  22.250   5.233  11.324
65714W        W38139   5.880  38.485  14.862
65715W        W38140  37.237  20.041   4.073
65716W        W38141  20.016  10.257  11.886
65717W        W38142  14.688  40.480  11.627
65718W        W38143  31.082   5.404  11.968
65719W        W38144  41.857  14.036   2.049
65720W        W38145  31.494  42.975  13.837
65721W        W38146  11.748  37.577   4.018
65722W        W38147  42.021  36.888  11.606
65723W        W38148  27.598  18.205  10.775
65724W        W38149  35.710  31.160   1.155
65725W        W38150  36.010  21.248   2.112
65726W        W38151  22.826   5.626  10.585
65727W        W38152  28.526  26.442   2.400
65728W        W38153  10.901  39.335   1.738
65729W        W38154  18.003  15.793   1.809
65730W        W38155  15.818   9.466  13.367
65731W        W38156  33.146  40.432  14.381
65732W        W38157   5.634  12.217  13.879
65733W        W38158  22.011  31.448  13.261
65734W        W38159   0.842  15.871   2.783
65735W        W38160  14.806  17.130  13.624
65736W        W38161  27.770  35.201  14.385
65737W        W38162  26.631  17.524  14.983
65738W        W38163   1.470  19.151   1.404
65739W        W38164  18.846  33.316   0.967
65740W        W38165  19.623   4.184  12.586
65741W        W38166  44.840  23.046   2.797
65742W        W38167   7.902  34.114  11.587
65743W        W38168  36.112  14.740   0.783
65744W        W38169  35.957  27.166  12.822
65745W        W38170  21.575  17.302   4.541
65746W        W38171  15.813   7.226  11.674
65747W        W38172  36.501   5.275  12.177
65748W        W38173  39.055  34.663   3.231
65749W        W38174  25.573  10.823  12.977
65750W        W38175  13.243  37.016   2.683
65751W        W38176  39.484  25.711  11.040
65752W        W38177   9.016  14.202   0.401
65753W        W38178   0.135  26.443   2.112
65754W        W38179   4.824  39.878  14.041
65755W        W38180  31.885  36.761  12.527
65756W        W38181   5.218  41.958   1.849
65757W        W38182  11.298  43.530   2.730
65758W        W38183  19.731  43.753  14.268
65759W        W38184  15.635  32.018  10.853
65760W        W38185  33.842  14.756  13.756
65761W        W38186  23.475  27.025   4.191
65762W        W38187  29.918  32.459  11.638
65763W        W38188  21.059  29.810  13.533
65764W        W38189  17.489  15.189   3.281
65765W        W38190   3.517  36.305   0.857
65766W        W38191   2.017  26.554  11.024
65767W        W38192  40.118   2.780   1.531
65768W        W38193  35.390  40.257   4.173
65769W        W38194  34.909  21.776  13.711
65770W        W38195  12.620  16.156   4.632
65771W        W38196  24.217  21.242  13.912
65772W        W38197  26.729  41.176  10.610
65773W        W38198  42.865  32.092  12.651
65774W        W38199  33.849  12.752  11.881
65775W        W38200  15.084   0.674  13.807
65776W        W38201   8.224   8.829   4.219
65777W        W38202   0.962  27.738   0.903
65778W        W38203  17.165  38.263  14.023
65779W        W38204  16.631  31.962  10.714
65780W        W38205   9.407  42.501   3.707
65781W        W38206  42.253  31.639  11.977
65782W        W38207  25.764  13.261  13.705
65783W        W38208  16.261   4.707   4.377
65784W        W38209  29.174  11.395   0.758
65785W        W38210  23.730  24.220   9.986
65786W        W38211  44.140  31.087  11.064
65787W        W38212   7.915  32.034  11.608
65788W        W38213  36.050  15.319  10.758
65789W        W38214  39.072  28.871  10.802
65790W        W38215  26.138  33.401  13.882
65791W        W38216  24.561  18.157   3.284
65792W        W38217  37.383  34.352  11.524
65793W        W38218  28.397  16.265   2.752
65794W        W38219  26.440  29.080  10.697
65795W        W38220   5.375  27.534  14.745
65796W        W38221  32.174   1.733  11.198
65797W        W38222  20.219  27.211  11.381
65798W        W38223  32.658  24.237   2.745
65799W        W38224  38.129  23.537  13.584
65800W        W38225   8.946   4.853   3.286
65801W        W38226  12.350  39.814  11.241
65802W        W38227  30.086  10.883   0.698
65803W        W38228  44.342   0.068  11.434
65804W        W38229  14.786  11.435  14.071
65805W        W38230  17.812   7.684  12.913
65806W        W38231  44.269   2.773  13.957
65807W        W38232  39.857  13.036   3.214
65808W        W38233  26.545  16.668  14.017
65809W        W38234  33.709   1.286   0.818
65810W        W38235  32.167  13.225   1.383
65811W        W38236   0.872  28.864   5.108
65812W        W38237  27.074  19.981  13.218
65813W        W38238  10.898  31.911  13.096
65814W        W38239  43.955  28.754  14.467
65815W        W38240   7.239   3.523   4.389
65816W        W38241  25.511  26.466  12.810
65817W        W38242   9.330  10.192  12.067
65818W        W38243  36.587  38.126   2.414
65819W        W38244   8.132  32.936   2.869
65820W        W38245  22.997  24.068   4.723
65821W        W38246  24.042   3.441  11.121
65822W        W38247  15.397  31.074   1.344
65823W        W38248   3.881  20.670   1.166
65824W        W38249  28.138  38.409  14.037
65825W        W38250   2.804   7.464  11.117
65826W        W38251  43.379  11.571   3.955
65827W        W38252  17.302   8.002   2.246
65828W        W38253  39.419   5.772  13.447
65829W        W38254  21.140  41.352   4.031
65830W        W38255  15.258  18.662  14.119
65831W        W38256  24.608  35.114   1.249
65832W        W38257  25.935   7.220  14.842
65833W        W38258  38.922  41.565   1.030
65834W        W38259  43.541  19.683  11.167
65835W        W38260  23.532  33.952  10.373
65836W        W38261  26.575  34.380  12.628
65837W        W38262  14.927   9.647  11.192
65838W        W38263  37.487  28.280  12.335
65839W        W38264  22.688  15.288  12.667
65840W        W38265  44.745  33.943  12.676
65841W        W38266   1.421   6.820   3.231
65842W        W38267  36.568  16.696   4.571
65843W        W38268  43.722  28.577   4.070
65844W        W38269  25.658  37.257   3.651
65845W        W38270  32.011   6.089   1.064
65846W        W38271  15.072  36.875  14.342
65847W        W38272  21.000  37.511   0.213
65848W        W38273  30.583  21.135  14.303
65849W        W38274  25.557  31.345  10.924
65850W        W38275  10.886  27.640   4.626
65851W        W38276   3.116  20.788  11.243
65852W        W38277   8.670  16.310   2.119
65853W        W38278  44.743  32.901  12.456
65854W        W38279   1.922  34.110  13.802
65855W        W38280  26.473  15.627   2.006
65856W        W38281   4.345   6.957  13.516
65857W        W38282  12.130  12.104   4.227
65858W        W38283   0.238   5.779  14.207
65859W        W38284   8.562  21.284   2.129
65860W        W38285  38.760  41.579  14.567
65861W        W38286  24.159  14.154  12.430
65862W        W38287  12.127  18.201   4.180
65863W        W38288  32.610   7.350  13.824
65864W        W38289   0.615  30.115  12.639
65865W        W38290  15.836   8.906   4.177
65866W        W38291   8.019  26.421   3.548
65867W        W38292  13.757  16.302   4.599
65868W        W38293   6.148   0.375  10.806
65869W        W38294  18.229   9.767   0.053
65870W        W38295  39.653  23.150  12.843
65871W        W38296  26.944  31.403   1.256
65872W        W38297   9.206  33.581  13.381
65873W        W38298   9.238  20.669   4.673
65874W        W38299  10.785  27.368  14.921
65875W        W38300  18.292  32.713  11.214
65876W        W38301  19.537  38.334  14.383
65877W        W38302  34.839  18.509  12.594
65878W        W38303   4.006   5.758  10.957
65879W        W38304  34.686  16.043  13.256
65880W        W38305  33.916  15.726   2.611
65881W        W38306   8.530   0.285  11.118
65882W        W38307  24.463   9.853  14.458
65883W        W38308  14.725  24.094  11.930
65884W        W38309  12.955  20.309   2.202
65885W        W38310  19.800  34.049   4.594
65886W        W38311  19.753   6.383  12.593
65887W        W38312   0.350   9.400  14.427
65888W        W38313   5.761  23.983   0.004
65889W        W38314  20.244   8.499  14.899
65890W        W38315  15.134   0.559   2.824
65891W        W38316  40.373  22.779   4.761
65892W        W38317   7.467  21.188  14.338
65893W        W38318  16.187  28.538  11.092
65894W        W38319   7.380  42.891   2.724
65895W        W38320  16.115  14.323  13.555
65896W        W38321  14.511  37.667  11.057
65897W        W38322  30.522  11.872  13.265
65898W        W38323  36.926   0.040   3.727
65899W        W38324  16.562  36.455  12.562
65900W        W38325  41.044  28.488  14.483
65901W        W38326   9.433  33.480   0.851
65902W        W38327  44.553  24.033  11.575
65903W        W38328  15.636  19.697  13.969
65904W        W38329  36.396  42.320   3.198
65905W        W38330  33.521  22.414  12.351
65906W        W38331  10.085  37.029  12.064
65907W        W38332  11.080  44.654   0.301
65908W        W38333  33.182  18.025  10.128
65909W        W38334  12.653  25.561   3.336
65910W        W38335   2.662  25.753  14.804
65911W        W38336   6.180  14.786   0.458
65912W        W38337  13.746  21.873  10.157
65913W        W38338  23.210  26.616  11.685
65914W        W38339  33.965  10.340   3.277
65915W        W38340  38.304   4.803  13.562
65916W        W38341  41.859  22.104  11.376
65917W        W38342  32.177   5.691   0.233
65918W        W38343  12.401  22.393  14.023
65919W        W38344  18.755  39.373  11.151
65920W        W38345  11.197  38.446   1.179
65921W        W38346  27.531   3.356   0.693
65922W        W38347  28.232  12.367   3.693
65923W        W38348   8.239  12.553   1.056
65924W        W38349  35.506  42.541  13.382
65925W        W38350  44.636  27.609   4.565
65926W        W38351  30.535  16.601  12.587
65927W        W38352  16.210  28.708  11.961
65928W        W38353   9.619   3.509   3.571
65929W        W38354   4.893  15.139  12.466
65930W        W38355  10.083   1.885   3.169
65931W        W38356  44.989  13.333  10.655
65932W        W38357   8.408  25.548   1.644
65933W        W38358  34.665  25.851  10.611
65934W        W38359   6.286  38.373   3.935
65935W        W38360  19.512  24.057  10.986
65936W        W38361  22.031   3.039  14.181
65937W        W38362  29.088  32.587   3.291
65938W        W38363  16.088  22.780   3.241
65939W        W38364  19.515  12.243  12.506
65940W        W38365  17.111  22.102   4.562
65941W        W38366   9.253  29.983  13.312
65942W        W38367  20.052  41.961  11.483
65943W        W38368   5.744  10.465   2.312
65944W        W38369  36.726  26.461  12.993
65945W        W38370  23.943  14.669  14.084
65946W        W38371   3.456  36.419   4.689
65947W        W38372  14.367  34.955  14.359
65948W        W38373  21.804  33.994   1.137
65949W        W38374   4.481  44.460  12.430
65950W        W38375  10.123  34.573  12.391
65951W        W38376  31.968  20.716   4.085
65952W        W38377  11.060  26.490   4.032
65953W        W38378  32.353  21.921   4.031
65954W        W38379  29.350  23.758  13.328
65955W        W38380  14.820  10.764   3.594
65956W        W38381   3.383  41.941  10.382
65957W        W38382  19.060  24.215  11.150
65958W        W38383  32.169   2.848   5.033
65959W        W38384  12.130  16.053   3.774
65960W        W38385  42.079  28.746  14.462
65961W        W38386  21.633  43.724  13.973
65962W        W38387  12.886  19.207  12.952
65963W        W38388   2.886   9.608   3.757
65964W        W38389  13.886  17.169  14.123
65965W        W38390  31.923   1.941   0.723
65966W        W38391  19.458   1.727   4.142
65967W        W38392  15.855   2.380   1.902
65968W        W38393   2.284   5.947   0.953
65969W        W38394   3.756  23.221  11.661
65970W        W38395  17.306  34.974  14.510
65971W        W38396   2.822  35.674  11.414
65972W        W38397  20.244  37.006  12.989
65973W        W38398  32.339  36.886   3.327
65974W        W38399  31.553  27.141   1.760
65975W        W38400  25.242   3.755  14.426
65976W        W38401  19.709  16.308  13.094
65977W        W38402  41.335   4.330   1.690
65978W        W38403   1.726  18.577   4.167
65979W        W38404   6.555  26.607   4.569
65980W        W38405  12.722  16.848  13.853
65981W        W38406   0.249  14.658  14.079
65982W        W38407   4.654  30.970   1.234
65983W        W38408  14.976   1.669  10.692
65984W        W38409   5.005   1.633  13.071
65985W        W38410  35.010   5.990  12.381
65986W        W38411   7.492  34.499   1.320
65987W        W38412  37.046  25.299   0.878
65988W        W38413  30.230  22.246   0.835
65989W        W38414  28.513  12.795  13.441
65990W        W38415  11.667  20.302  11.056
65991W        W38416  20.792  10.814   1.024
65992W        W38417  33.048   1.712   2.236
65993W        W38418   0.759  41.230   4.586
65994W        W38419   5.737  20.468  12.678
65995W        W38420  29.092  16.566  11.141
65996W        W38421  44.968   1.434  12.532
65997W        W38422  25.039   0.854   3.385
65998W        W38423  28.858   8.312   0.019
65999W        W38424  31.879   4.473   1.804
66000W        W38425  19.193  25.048  10.700
66001W        W38426  41.480   4.843   0.274
66002W        W38427  16.997  28.616   1.333
66003W        W38428  43.769  25.104  12.857
66004W        W38429  35.245  27.152  11.774
66005W        W38430   8.404   4.537   1.886
66006W        W38431  40.277  29.447  11.592
66007W        W38432  35.642  14.583  15.000
66008W        W38433  22.507  19.936  13.297
66009W        W38434  20.729  25.321  13.432
66010W        W38435  23.093  33.410   2.268
66011W        W38436  26.977   3.816   4.429
66012W        W38437   6.775  13.570  13.011
66013W        W38438   3.104  36.955  13.326
66014W        W38439  43.418   8.269  14.962
66015W        W38440  13.522   4.790  11.393
66016W        W38441  30.073  30.923  14.850
66017W        W38442   8.538   6.198  14.974
66018W        W38443  31.616  21.226  13.918
66019W        W38444  23.632  20.472   3.413
66020W        W38445   9.809  44.187  14.894
66021W        W38446  44.879  35.771   4.548
66022W        W38447  42.446  33.571   3.634
66023W        W38448  29.544  18.939  12.387
66024W        W38449  43.892   0.166  11.132
66025W        W38450  16.164  28.190  12.022
66026W        W38451  42.402  17.222  14.800
66027W        W38452  26.900  20.779  11.685
66028W        W38453  43.192  15.317   3.239
66029W        W38454  17.554  37.900  12.813
66030W        W38455   0.441  16.005   4.727
66031W        W38456   3.031   6.293   1.913
66032W        W38457   1.909  41.879   0.403
66033W        W38458  38.124   8.824   0.975
66034W        W38459  15.057  40.351   2.625
66035W        W38460  19.264  19.857   1.242
66036W        W38461  31.405  36.697   2.849
66037W        W38462   4.754  30.688   0.718
66038W        W38463  42.778  19.029   3.633
66039W        W38464  42.333  36.721  10.673
66040W        W38465  35.438  43.811   4.501
66041W        W38466  21.776  40.020  12.133
66042W        W38467  22.669   1.288   1.472
66043W        W38468   4.274  13.060  13.046
66044W        W38469  37.333  22.609   1.395
66045W        W38470   8.669   7.464   1.474
66046W        W38471  20.105  20.269   3.154
66047W        W38472  19.727  20.513   4.164
66048W        W38473   7.347  35.118  11.120
66049W        W38474  32.601  19.503  14.755
66050W        W38475  17.545  26.887  10.828
66051W        W38476  23.877  22.209  12.714
66052W        W38477   6.993  43.792   1.306
66053W        W38478  35.175  30.797   4.181
66054W        W38479  27.869  29.121   2.563
66055W        W38480   9.190  35.796  12.416
66056W        W38481  28.942  43.975   1.420
66057W        W38482  38.841  23.558   3.139
66058W        W38483  10.683   9.008  10.237
66059W        W38484  27.086   4.310   4.322
66060W        W38485  36.286  43.760   5.059
66061W        W38486  37.362  35.161  13.003
66062W        W38487   4.304  12.212  14.961
66063W        W38488  19.646  41.882   2.960
66064W        W38489  34.537   5.436  14.058
66065W        W38490  12.311  32.687  14.308
66066W        W38491  14.834  28.291  12.014
66067W        W38492   7.314  27.951   1.980
66068W        W38493  18.184  10.861  12.007
66069W        W38494  31.180  44.692  12.371
66070W        W38495  32.363  27.085   1.155
66071W        W38496  24.065  15.519   4.132
66072W        W38497   6.994  12.894   1.307
66073W        W38498   8.286  37.336  14.267
66074W        W38499  23.910  18.811  13.338
66075W        W38500  27.182  38.514  13.717
66076W        W38501   2.426  43.510   4.094
66077W        W38502  26.515   3.749   4.685
66078W        W38503  44.246  42.958   4.629
66079W        W38504  32.191  24.222  12.547
66080W        W38505  44.470  30.568   1.771
66081W        W38506  17.675  26.622   4.809
66082W        W38507  44.232  16.773   1.483
66083W        W38508  17.552  10.051   2.642
66084W        W38509  11.189  43.712  12.913
66085W        W38510   4.917   5.737   0.264
66086W        W38511  31.965  22.449  14.415
66087W        W38512  21.767  31.091  12.945
66088W        W38513  40.837  15.889  10.747
66089W        W38514  33.977  30.583   3.927
66090W        W38515  16.260  19.512   4.997
66091W        W38516   4.898  29.971  11.679
66092W        W38517   9.814   1.042  11.267
66093W        W38518  34.981  27.712   3.695
66094W        W38519  21.982   4.865   1.262
66095W        W38520  41.500  41.595  12.908
66096W        W38521  13.890  24.208   3.312
66097W        W38522  40.022   5.818  12.793
66098W        W38523  29.934  15.665   1.383
66099W        W38524  19.678  36.621   1.833
66100W        W38525  33.879  35.681   2.265
66101W        W38526  28.129   8.253   4.117
66102W        W38527  36.118  42.462  14.821
66103W        W38528  32.564  14.068   3.382
66104W        W38529  18.030  37.417  12.617
66105W        W38530   8.285  30.332   0.942
66106W        W38531  12.469  15.531  13.352
66107W        W38532  25.495   4.378   0.757
66108W        W38533  36.796  27.602  11.143
66109W        W38534  13.105  32.598   3.693
66110W        W38535  25.671  15.592  14.887
66111W        W38536  28.879  27.517  13.808
66112W        W38537  26.071   1.267  13.031
66113W        W38538  25.015  18.129  14.351
66114W        W38539  31.069  17.636   4.521
66115W        W38540  26.900  44.347  13.547
66116W        W38541  33.010  25.058   3.244
66117W        W38542  38.612  16.762  11.995
66118W        W38543  11.404   3.320  10.393
66119W        W38544  14.754   3.903  11.378
66120W        W38545   3.843  22.941  13.668
66121W        W38546   4.717  18.470   2.171
66122W        W38547   2.415  19.116   2.819
66123W        W38548  35.334   8.234  14.837
66124W        W38549  26.384  31.548   3.740
66125W        W38550  27.430  35.834  11.040
66126W        W38551   1.962  13.119  13.814
66127W        W38552  37.899  23.473   3.638
66128W        W38553  26.669  25.524   4.227
66129W        W38554   4.129  37.554  10.669
66130W        W38555  44.663  14.666   3.753
66131W        W38556  26.533  15.028  11.595
66132W        W38557  44.832   4.917  13.369
66133W        W38558  14.713  13.544  14.355
66134W        W38559  40.527  19.160  10.787
66135W        W38560  30.981  15.543   0.379
66136W        W38561   8.337  13.738   4.569
66137W        W38562  34.095   1.739  13.937
66138W        W38563  13.026   2.640   1.616
66139W        W38564  42.041  42.301  11.676
66140W        W38565  17.698  12.386  12.483
66141W        W38566  43.285  34.607  13.999
66142W        W38567  11.207   6.649  12.546
66143W        W38568  10.163  40.785  13.337
66144W        W38569   0.180  33.491  14.922
66145W        W38570  43.256  10.110  11.438
66146W        W38571   8.404  38.335   1.136
66147W        W38572  41.300  34.138  14.919
66148W        W38573   8.928  19.807   0.283
66149W        W38574  33.718  14.126   3.662
66150W        W38575  32.592   1.494  12.847
66151W        W38576  26.135   3.718  14.563
66152W        W38577   2.878   8.213   1.354
66153W        W38578   7.213  29.514  10.670
66154W        W38579  19.256   3.367   2.083
66155W        W38580   6.435  29.619  11.149
66156W        W38581  15.090   2.692  13.360
66157W        W38582  25.535  11.004   0.363
66158W        W38583  42.446  14.104   1.934
66159W        W38584  17.315   2.490   9.692
66160W        W38585   1.531  15.815   2.287
66161W        W38586  38.935  11.616  12.540
66162W        W38587   3.340  38.870   0.979
66163W        W38588  41.847  13.346   4.515
66164W        W38589   5.987  23.035   0.381
66165W        W38590  31.649  42.944   0.964
66166W        W38591  42.614  22.399  12.886
66167W        W38592  34.040  28.171   3.270
66168W        W38593   0.245  39.530  11.076
66169W        W38594  28.228   2.049  11.942
66170W        W38595  42.182   1.287  14.597
66171W        W38596  13.157   4.776   2.542
66172W        W38597  22.497  12.602   3.383
66173W        W38598  39.599  10.796  10.611
66174W        W38599  29.443   0.230   4.349
66175W        W38600   8.609  15.060   2.735
66176W        W38601  11.616  39.037   0.501
66177W        W38602  36.695  41.034   2.677
66178W        W38603  32.292  31.465   4.597
66179W        W38604  38.480  28.453  13.058
66180W        W38605  18.290  31.021  14.934
66181W        W38606  23.584  38.149  11.770
66182W        W38607  23.024  24.017  10.674
66183W        W38608  32.430  19.817   2.966
66184W        W38609   4.285  41.237  12.378
66185W        W38610  32.642  28.108   1.368
66186W        W38611  26.287  39.831  11.379
66187W        W38612  30.189  35.859   4.229
66188W        W38613  43.101  15.858   3.202
66189W        W38614  13.177  35.014   3.121
66190W        W38615  26.008  17.663   4.093
66191W        W38616  17.999  12.679   3.770
66192W        W38617   6.758   7.711  12.125
66193W        W38618   4.968  20.382  13.617
66194W        W38619   9.610  33.946  12.503
66195W        W38620   5.605  12.000   4.224
66196W        W38621  25.253  19.372   1.776
66197W        W38622   9.010   7.719  11.390
66198W        W38623  17.967  19.677   0.546
66199W        W38624  38.260  32.797  13.557
66200W        W38625  39.472  24.200  12.984
66201W        W38626  40.391   0.456   0.457
66202W        W38627  30.950  15.895   1.333
66203W        W38628   2.988  28.109  13.989
66204W        W38629  17.158  24.127   1.675
66205W        W38630  41.697  22.081  10.885
66206W        W38631  19.583  29.098  14.760
66207W        W38632  10.294  14.674   3.620
66208W        W38633  12.637  35.308   3.722
66209W        W38634  35.652  31.344   3.302
66210W        W38635  25.096  32.420  14.794
66211W        W38636  44.837  26.653   3.876
66212W        W38637  43.780  19.019   3.739
66213W        W38638  27.426  36.884   0.741
66214W        W38639   9.363  37.560   5.406
66215W        W38640  25.186   1.138   4.128
66216W        W38641  33.779  21.525   4.074
66217W        W38642  30.900  34.823  14.890
66218W        W38643   2.215  10.821   3.639
66219W        W38644  20.739  44.326  13.938
66220W        W38645  32.695   8.280   0.380
66221W        W38646  35.410  12.876   1.093
66222W        W38647  10.944  39.924  13.929
66223W        W38648   6.830  40.869   2.488
66224W        W38649   6.996   1.234   0.017
66225W        W38650  35.022  34.283  11.456
66226W        W38651  21.089  44.523   3.651
66227W        W38652  31.157   8.239   4.107
66228W        W38653  44.352  11.641   3.046
66229W        W38654  26.958  24.220   1.646
66230W        W38655  22.026  41.773   0.405
66231W        W38656  32.017  22.203   1.296
66232W        W38657  19.284  34.622   0.698
66233W        W38658  18.215  15.805  14.298
66234W        W38659  38.764   9.719  10.732
66235W        W38660  13.738   9.722   3.176
66236W        W38661  23.092  18.661  12.891
66237W        W38662   7.190  20.687   3.860
66238W        W38663  40.637  23.108  13.101
66239W        W38664  44.344  19.729  14.793
66240W        W38665   1.239  12.683   3.754
66241W        W38666  43.536  41.465  12.708
66242W        W38667  41.014  42.781   5.602
66243W        W38668   9.728   6.931   3.839
66244W        W38669  31.020  28.241  14.250
66245W        W38670  10.042  27.968  10.711
66246W        W38671  36.327  18.789  12.497
66247W        W38672  42.342   7.875   4.165
66248W        W38673   3.695  13.118   1.439
66249W        W38674  19.058  33.803   4.156
66250W        W38675  25.956  40.243   1.798
66251W        W38676   0.723   5.280   1.453
66252W        W38677  40.563  14.086  14.437
66253W        W38678   2.957  38.553   0.809
66254W        W38679  33.463   0.554   3.358
66255W        W38680  38.591  39.398   4.607
66256W        W38681  14.883  32.468  14.941
66257W        W38682  20.573  22.999  13.490
66258W        W38683  24.947   5.818   1.926
66259W        W38684  31.358  23.624   1.700
66260W        W38685  29.635  15.547   0.979
66261W        W38686   0.373  28.656  11.228
66262W        W38687  14.134  17.202  12.421
66263W        W38688   5.677  10.716   3.732
66264W        W38689  33.842  13.341  13.917
66265W        W38690  33.559   6.985   1.836
66266W        W38691   7.403  43.438  14.719
66267W        W38692   0.419  43.928   1.690
66268W        W38693  36.913  41.888  10.654
66269W        W38694  39.469   3.415  11.373
66270W        W38695  13.171  39.069   3.916
66271W        W38696  25.267  43.967   3.589
66272W        W38697  18.837  11.288  10.722
66273W        W38698  31.100  30.429   2.423
66274W        W38699   2.275  23.102   4.296
66275W        W38700  31.053  12.847   4.595
66276W        W38701  41.885  35.905  10.731
66277W        W38702  36.514  13.765  14.440
66278W        W38703  18.522  25.385   2.034
66279W        W38704  30.074  37.821  14.311
66280W        W38705  27.429  22.243  13.092
66281W        W38706   2.983  18.787   2.081
66282W        W38707  40.962  40.080  12.383
66283W        W38708   1.788  14.632   3.633
66284W        W38709  30.385   1.296   3.331
66285W        W38710  43.272  14.365   0.889
66286W        W38711   9.900  44.920   3.274
66287W        W38712   4.708  13.895   2.951
66288W        W38713  35.479   9.632  13.537
66289W        W38714   9.266  30.361  13.919
66290W        W38715   3.969   1.259   3.488
66291W        W38716  17.342   1.196  13.066
66292W        W38717  27.947   6.862   1.627
66293W        W38718  35.865  28.712  12.029
66294W        W38719  11.601  44.888   3.637
66295W        W38720  32.655  15.851  11.093
66296W        W38721  10.315  22.275  13.598
66297W        W38722  20.615  34.336   0.288
66298W        W38723  24.743   8.426   4.865
66299W        W38724  37.356  28.363  13.924
66300W        W38725  25.604  19.742   1.932
66301W        W38726   3.946  22.480   1.246
66302W        W38727   4.274   8.714   3.807
66303W        W38728   3.357  29.413   1.872
66304W        W38729  40.771   9.453  12.586
66305W        W38730   8.620   6.771  12.923
66306W        W38731  14.739   7.511  10.364
66307W        W38732  17.324  22.420   3.697
66308W        W38733  34.142  30.781   0.434
66309W        W38734  13.264  26.720   1.893
66310W        W38735  29.219  14.846   2.212
66311W        W38736   3.342  36.993   0.386
66312W        W38737  26.582  13.725   1.252
66313W        W38738  11.122  13.018   3.671
66314W        W38739  29.688  37.427   3.091
66315W        W38740  38.847  37.081   3.561
66316W        W38741  22.059   6.145  12.043
66317W        W38742  30.844  15.585   2.392
66318W        W38743  12.894  37.854   3.305
66319W        W38744  17.019  10.286  11.080
66320W        W38745  20.515   4.945  11.088
66321W        W38746   2.777  19.306   0.369
66322W        W38747  35.708   4.173   0.890
66323W        W38748   0.349  42.103  13.453
66324W        W38749  44.050  18.971  11.427
66325W        W38750   0.245  12.320   0.435
66326W        W38751  43.362  21.566  13.860
66327W        W38752  19.800  25.130  12.478
66328W        W38753   4.715  23.876  11.099
66329W        W38754  38.041  18.097   1.852
66330W        W38755  25.543  25.509  14.005
66331W        W38756   5.221  17.562   3.833
66332W        W38757  25.942  25.486  12.679
66333W        W38758  28.952  16.155   0.242
66334W        W38759  13.707  25.133  12.153
66335W        W38760  40.767  12.253   4.095
66336W        W38761  30.300  23.519   0.952
66337W        W38762  15.849  35.484   1.861
66338W        W38763  14.701  13.024  14.769
66339W        W38764  34.842   7.932  10.659
66340W        W38765  12.199  25.963   1.757
66341W        W38766  33.400  34.913  10.719
66342W        W38767  30.880  25.719   2.323
66343W        W38768  38.072  17.885  14.450
66344W        W38769  30.138  41.059   4.771
66345W        W38770  43.662   1.731  13.029
66346W        W38771   7.390  40.530   2.795
66347W        W38772   9.282   4.609   0.336
66348W        W38773  20.342  41.336   4.588
66349W        W38774  14.716  25.146   0.312
66350W        W38775  34.858  11.215   1.416
66351W        W38776  29.078   1.904   3.863
66352W        W38777   4.490  10.383   1.847
66353W        W38778  44.873   8.361   0.069
66354W        W38779  24.612  29.517   2.866
66355W        W38780  28.094   1.451   4.279
66356W        W38781  41.413  43.450   0.472
66357W        W38782  27.463   6.783  11.737
66358W        W38783  35.800   8.553   4.631
66359W        W38784  12.173  27.265  13.517
66360W        W38785  41.962  16.128  11.881
66361W        W38786  27.284  34.985  12.576
66362W        W38787  11.046   3.976  10.716
66363W        W38788  13.676  23.628   0.868
66364W        W38789  40.114   7.420   0.404
66365W        W38790   8.575  29.978   0.421
66366W        W38791  42.285   4.422  14.865
66367W        W38792   1.947  21.965  14.769
66368W        W38793  23.474  38.287   1.814
66369W        W38794  23.609  34.582  12.026
66370W        W38795  30.182  18.354   9.700
66371W        W38796  40.734  12.721   2.383
66372W        W38797  18.652  37.958   2.403
66373W        W38798  44.230  44.642  13.561
66374W        W38799  27.463  40.341   1.887
66375W        W38800  39.346  16.733  13.472
66376W        W38801   2.833  32.067  10.328
66377W        W38802  33.208  31.684   1.314
66378W        W38803   5.865   5.334   4.458
66379W        W38804  37.888  18.105   4.896
66380W        W38805  27.129  11.595   0.171
66381W        W38806  13.842  44.754   4.081
66382W        W38807  20.645   6.224  11.487
66383W        W38808   2.980  39.517  13.485
66384W        W38809   2.980  30.116  13.868
66385W        W38810   8.159  31.148   2.771
66386W        W38811  29.449   6.197   1.254
66387W        W38812   2.886  43.482  12.412
66388W        W38813  23.655  13.151   4.781
66389W        W38814  40.942  31.592  12.567
66390W        W38815  29.878  40.432  13.451
66391W        W38816  24.290  15.334   3.727
66392W        W38817  42.964  21.485   4.103
66393W        W38818  33.042  42.011   0.429
66394W        W38819   5.199   3.700   2.186
66395W        W38820  17.338  12.178   4.199
66396W        W38821  29.345  40.586  11.599
66397W        W38822  39.763  18.081   2.321
66398W        W38823  41.858  20.621   4.597
66399W        W38824  20.833   7.960  12.203
66400W        W38825   0.758  39.449  13.493
66401W        W38826  21.336   5.879   1.105
66402W        W38827  32.713  25.592  11.579
66403W        W38828  12.206   4.636  14.771
66404W        W38829  34.296  15.562  10.594
66405W        W38830  23.796  25.719   1.423
66406W        W38831   5.263  15.291   2.092
66407W        W38832  44.743  40.049  11.149
66408W        W38833  26.515   3.742   2.130
66409W        W38834  34.092  27.591   1.811
66410W        W38835   1.084   2.923  11.127
66411W        W38836   7.318   8.474  12.953
66412W        W38837  40.898  34.879  10.656
66413W        W38838  26.538   6.578   3.576
66414W        W38839  34.791   5.858   3.125
66415W        W38840  35.754  30.605   3.747
66416W        W38841   2.005  13.303   3.554
66417W        W38842   5.911  16.075   3.535
66418W        W38843  18.311   8.862  14.928
66419W        W38844  14.891  15.004   1.178
66420W        W38845  25.449  39.138   1.346
66421W        W38846  31.226   7.591   3.406
66422W        W38847  20.179  40.355   3.686
66423W        W38848  16.119   3.568  13.330
66424W        W38849   1.795  40.035   4.538
66425W        W38850  31.947   2.784   3.657
66426W        W38851  24.056  37.079  14.785
66427W        W38852  10.664  11.684  10.748
66428W        W38853  32.508   3.755   4.581
66429W        W38854   8.066  16.196  10.715
66430W        W38855  31.405  38.381  12.972
66431W        W38856  23.488  39.609   3.291
66432W        W38857   4.331  23.930   3.379
66433W        W38858  33.814  22.666  12.006
66434W        W38859  42.068  19.765  10.190
66435W        W38860   1.779  44.531   1.463
66436W        W38861  19.073  20.449  14.380
66437W        W38862   5.196  19.018  14.795
66438W        W38863   5.201   7.776  13.045
66439W        W38864  35.013  41.945   1.680
66440W        W38865  41.241  24.063   3.161
66441W        W38866  43.359   6.535   0.703
66442W        W38867  25.079   6.877   1.125
66443W        W38868  37.975  29.834  11.132
66444W        W38869  21.141  26.483  13.826
66445W        W38870  30.381   7.811   4.299
66446W        W38871  36.041  29.213  11.952
66447W        W38872  38.996  16.509  14.787
66448W        W38873  43.728  26.042  10.589
66449W        W38874  20.205  43.294   2.885
66450W        W38875  33.814  37.078   0.386
66451W        W38876  40.352  24.425   2.454
66452W        W38877   7.230  23.671  10.728
66453W        W38878   3.466   1.893   2.380
66454W        W38879  31.910   0.362  14.007
66455W        W38880  18.780  31.872  13.327
66456W        W38881  16.182  39.418   1.694
66457W        W38882  24.532  16.850  11.428
66458W        W38883  30.263   5.356  13.920
66459W        W38884   1.214   2.528   3.604
66460W        W38885   6.698  10.865   4.710
66461W        W38886  16.043  39.341  12.104
66462W        W38887  27.420  25.718   0.449
66463W        W38888  41.128   4.650   4.202
66464W        W38889   7.667   8.597   9.693
66465W        W38890  36.043  31.249   0.770
66466W        W38891  22.953   0.821   3.733
66467W        W38892  25.562  22.710   1.749
66468W        W38893  42.056  42.934   2.477
66469W        W38894  30.363  25.459  13.781
66470W        W38895  15.219   8.165  12.778
66471W        W38896  34.960  44.343  14.423
66472W        W38897   4.614  10.841  11.500
66473W        W38898  33.873  23.599   2.460
66474W        W38899  12.392  37.835   3.324
66475W        W38900   4.404  43.035   3.602
66476W        W38901  42.598  19.128  12.864
66477W        W38902  28.866  23.000   1.756
66478W        W38903  26.990  14.333  14.576
66479W        W38904  35.873  31.854  14.038
66480W        W38905  34.601   3.211  14.257
66481W        W38906  25.124  16.589   2.252
66482W        W38907  18.845  40.846   3.656
66483W        W38908  19.617  32.817   4.095
66484W        W38909  13.740  37.681   1.263
66485W        W38910  41.563  12.896  12.353
66486W        W38911  13.718  34.624   3.754
66487W        W38912  24.012  12.782  12.023
66488W        W38913  31.327  33.683  12.076
66489W        W38914  40.359   3.938  14.949
66490W        W38915  38.576   0.447  14.380
66491W        W38916  38.883   8.568   2.441
66492W        W38917  16.787   1.042   0.800
66493W        W38918   2.883  26.789   4.121
66494W        W38919  11.673  19.163  10.736
66495W        W38920   0.043   8.227   2.296
66496W        W38921  24.213  20.169   0.914
66497W        W38922   9.134   7.592  10.882
66498W        W38923   6.390  33.842   1.711
66499W        W38924   8.207  30.346  12.002
66500W        W38925   2.379  15.625   0.495
66501W        W38926   3.861   6.649  12.211
66502W        W38927   3.211  29.227   3.160
66503W        W38928  37.748  34.018   1.645
66504W        W38929  22.740  19.365  10.765
66505W        W38930   0.240  18.933   0.940
66506W        W38931  38.830  25.571  14.132
66507W        W38932  25.955  21.571   1.265
66508W        W38933   6.426  13.420   2.468
66509W        W38934  18.144  24.215  13.477
66510W        W38935  40.341  33.530  10.742
66511W        W38936   2.773  38.883   1.151
66512W        W38937   2.152   1.819   1.758
66513W        W38938  37.118  27.043   4.556
66514W        W38939  14.261  23.996   2.294
66515W        W38940   7.871  41.957  13.926
66516W        W38941  27.425  35.410   3.317
66517W        W38942   7.285  13.423  13.589
66518W        W38943  40.948  16.520   0.865
66519W        W38944  32.068   2.923  10.740
66520W        W38945  38.198   3.609  11.586
66521W        W38946  16.818  18.367   4.233
66522W        W38947  39.040  29.172   3.689
66523W        W38948   1.004  35.699   5.087
66524W        W38949  16.797  33.609  11.981
66525W        W38950  29.575  34.570  11.978
66526W        W38951  33.945   4.407   1.215
66527W        W38952  26.232   4.894  14.722
66528W        W38953  27.311   0.212  13.621
66529W        W38954  21.676  16.106  14.840
66530W        W38955  42.277  12.519  14.998
66531W        W38956  13.979   8.533  12.023
66532W        W38957  41.301  29.665  13.785
66533W        W38958  28.943  18.227   3.766
66534W        W38959  15.104  14.603   2.277
66535W        W38960  42.850  21.852  10.654
66536W        W38961  28.514  42.421  13.755
66537W        W38962   3.827  23.722   3.229
66538W        W38963  11.241  41.355  11.693
66539W        W38964   1.459  21.813  10.662
66540W        W38965   5.882  26.669  12.157
66541W        W38966  15.843  17.310  11.734
66542W        W38967  36.372  15.277   1.421
66543W        W38968  12.698  13.690   1.277
66544W        W38969   9.427  40.760   4.871
66545W        W38970  39.859   3.837   2.182
66546W        W38971  28.301  39.579  11.243
66547W        W38972   1.954  26.977   1.811
66548W        W38973  27.715  17.295  10.464
66549W        W38974   5.021  12.503   5.022
66550W        W38975  28.175  25.715   1.658
66551W        W38976  27.699  36.244   1.387
66552W        W38977  22.175  17.851   0.869
66553W        W38978   5.410  28.989  14.372
66554W        W38979   3.819  28.439  14.025
66555W        W38980  17.173   8.701   2.817
66556W        W38981   8.750  11.066   1.796
66557W        W38982  43.010  41.871   1.530
66558W        W38983  36.484   5.166  10.742
66559W        W38984  23.296  26.033  14.419
66560W        W38985  29.590  17.220   4.868
66561W        W38986  15.852  36.311  11.163
66562W        W38987  21.702  10.540  11.660
66563W        W38988  42.767  27.031   4.573
66564W        W38989  42.417  17.026  12.860
66565W        W38990  42.910   5.833  11.883
66566W        W38991  28.189  35.235  12.411
66567W        W38992  29.178  34.030   0.985
66568W        W38993  15.210  38.121   0.737
66569W        W38994   6.881  19.348  14.941
66570W        W38995  29.381   3.324   1.790
66571W        W38996  19.621  15.138   4.305
66572W        W38997  32.858  20.958  10.782
66573W        W38998  40.856  30.856  10.396
66574W        W38999   3.746  36.866   4.613
66575W        W39000  40.778  25.112   3.859
66576W        W39001  27.021  20.495   4.860
66577W        W39002  28.056  40.939  10.570
66578W        W39003  18.316  36.720   0.439
66579W        W39004  37.870  10.125   1.889
66580W        W39005  12.255  16.884  10.701
66581W        W39006  37.507   6.664   4.600
66582W        W39007  35.919   0.895  12.380
66583W        W39008  28.745  17.202   3.672
66584W        W39009  32.929  16.160  13.831
66585W        W39010  21.563  12.685   2.339
66586W        W39011  39.187  25.748  12.681
66587W        W39012   7.179  34.199  13.308
66588W        W39013  12.180   0.400   1.679
66589W        W39014  44.750   1.129  12.954
66590W        W39015   6.286  18.682   4.120
66591W        W39016   7.387  14.281   0.371
66592W        W39017  10.405  44.531   2.655
66593W        W39018  22.233  38.440  13.931
66594W        W39019   6.754  40.918  10.748
66595W        W39020  25.647   9.860  13.837
66596W        W39021   6.392  34.359   3.753
66597W        W39022  34.376  34.100  11.927
66598W        W39023   3.713  19.296   2.139
66599W        W39024  29.577  27.398   3.743
66600W        W39025  34.441  36.447  14.509
66601W        W39026  15.169  36.110   0.873
66602W        W39027   4.932  24.132  14.754
66603W        W39028  42.880   8.609   4.646
66604W        W39029  13.323  15.122   0.174
66605W        W39030  34.072   6.312  12.849
66606W        W39031  28.141  21.802   3.131
66607W        W39032  36.026  23.643  11.572
66608W        W39033   7.108  42.456   0.916
66609W        W39034  24.784  29.653   2.251
66610W        W39035  31.268   1.434   3.679
66611W        W39036  21.715  43.372  11.236
66612W        W39037  10.282  20.474   1.360
66613W        W39038  38.413   7.996   1.851
66614W        W39039  37.797   6.013   0.662
66615W        W39040  41.261  44.958   0.802
66616W        W39041   6.692  23.532   4.210
66617W        W39042  34.724  30.347   3.826
66618W        W39043  17.727  33.511   2.272
66619W        W39044  17.203  29.895  13.799
66620W        W39045  27.755  17.649   2.144
66621W        W39046  44.834  26.637  14.827
66622W        W39047   2.771  17.017   2.280
66623W        W39048  25.014   9.745  13.246
66624W        W39049  44.149  16.598  14.926
66625W        W39050  19.351   4.814   5.110
66626W        W39051  29.598  11.398   1.916
66627W        W39052  10.343  15.265  14.905
66628W        W39053  25.397  38.217  13.838
66629W        W39054  12.162  42.784   1.222
66630W        W39055   7.853  22.044  10.310
66631W        W39056  29.656  13.875   4.194
66632W        W39057  34.448   5.734   4.360
66633W        W39058  33.917  12.216  13.074
66634W        W39059   8.269  25.229  11.203
66635W        W39060   4.289  24.378   4.278
66636W        W39061  38.952  22.586  11.618
66637W        W39062  20.983  34.112  14.835
66638W        W39063  28.605  30.224  10.153
66639W        W39064  19.274   0.945   4.105
66640W        W39065  37.533   6.184  13.861
66641W        W39066  19.798  31.011  14.825
66642W        W39067  30.122   3.742   1.722
66643W        W39068  18.352  16.618  13.864
66644W        W39069  34.268  35.901   2.815
66645W        W39070  17.845  40.487   2.256
66646W        W39071  20.705   5.792   4.648
66647W        W39072  17.434  21.075  13.725
66648W        W39073   4.009   8.360  12.908
66649W        W39074   5.252  31.057   3.473
66650W        W39075  10.039   1.960   4.072
66651W        W39076  19.726  33.635   3.694
66652W        W39077  23.784  41.317   0.173
66653W        W39078  43.953   8.888  10.883
66654W        W39079  37.488  43.771   2.725
66655W        W39080  16.913   4.906  14.265
66656W        W39081   6.034  41.982  13.546
66657W        W39082  25.344  33.515  10.589
66658W        W39083   5.586  36.005   5.471
66659W        W39084  12.309   9.746   4.631
66660W        W39085  27.558  27.713   3.668
66661W        W39086   5.994  13.746  11.121
66662W        W39087  38.501  36.787  12.889
66663W        W39088   3.379  32.719  14.419
66664W        W39089  25.048  16.711   0.801
66665W        W39090  23.368  33.603  12.484
66666W        W39091  15.065  14.924   4.560
66667W        W39092  18.035   8.291  12.154
66668W        W39093  20.792  31.065  13.903
66669W        W39094  24.312   6.148   5.266
66670W        W39095  19.519  23.076   2.033
66671W        W39096  31.874  14.633   3.387
66672W        W39097   3.245  32.898  11.911
66673W        W39098  18.374  27.016   4.655
66674W        W39099  18.983  30.933  12.874
66675W        W39100  23.346  32.983   4.142
66676W        W39101  16.742  38.477  14.861
66677W        W39102  15.030  32.138   2.595
66678W        W39103   8.554  17.119   0.831
66679W        W39104  28.970  17.495   4.059
66680W        W39105  14.306  19.251  11.228
66681W        W39106  11.865  42.981   3.713
66682W        W39107  11.716   8.780  10.193
66683W        W39108  44.900  31.603  11.435
66684W        W39109   0.183  19.092  12.521
66685W        W39110  21.729   0.306   0.745
66686W        W39111   4.812  30.035  14.426
66687W        W39112  19.563  15.305   3.298
66688W        W39113  20.558  15.056   4.278
66689W        W39114  32.166  17.040  11.195
66690W        W39115  32.839  37.321   4.141
66691W        W39116   0.852  18.354   3.687
66692W        W39117  26.874   7.780   4.061
66693W        W39118  34.881  21.968   4.558
66694W        W39119   7.096  13.362   1.103
66695W        W39120  12.816  25.173   2.070
66696W        W39121  24.715  31.100  13.030
66697W        W39122  38.465  29.625   4.107
66698W        W39123  19.071  42.085  10.719
66699W        W39124  12.177  16.770   0.913
66700W        W39125  10.779  31.888   0.441
66701W        W39126  13.358   6.397  10.773
66702W        W39127  32.080  17.552   1.475
66703W        W39128  34.414  40.571  11.053
66704W        W39129  26.363   9.344   1.098
66705W        W39130  34.888  26.059   2.284
66706W        W39131  24.280   2.608   4.190
66707W        W39132  16.289  38.358   2.250
66708W        W39133  44.841   0.386   2.118
66709W        W39134  21.883  23.248   2.401
66710W        W39135  24.117  39.331   1.209
66711W        W39136  27.198  39.457   4.238
66712W        W39137  25.982  26.618  13.532
66713W        W39138  16.711  34.625  11.021
66714W        W39139   1.030  31.827   4.607
66715W        W39140  29.877  15.026  14.874
66716W        W39141  33.066  26.726  11.457
66717W        W39142   9.676  31.432  10.562
66718W        W39143  15.629   6.238   3.355
66719W        W39144  29.159  12.991   1.794
66720W        W39145  30.063  24.134  13.008
66721W        W39146   8.224  24.674   3.515
66722W        W39147  14.232  19.513   3.680
66723W        W39148  37.423  41.305   2.656
66724W        W39149  30.897   5.425  10.554
66725W        W39150  38.108   5.369   3.149
66726W        W39151   7.287  26.520   0.568
66727W        W39152  44.796  38.867   0.196
66728W        W39153  10.296  38.509  12.604
66729W        W39154  18.277  24.666   2.372
66730W        W39155   5.256   9.911   2.852
66731W        W39156  31.621   4.949   1.814
66732W        W39157   0.386   0.221   2.761
66733W        W39158  43.276   9.412   1.359
66734W        W39159  43.951  26.501   2.953
66735W        W39160  44.504   5.145   1.762
66736W        W39161  28.802   3.404  12.416
66737W        W39162  18.406   4.476  12.008
66738W        W39163  18.563   5.267  12.481
66739W        W39164  25.473  39.787   4.492
66740W        W39165  26.202  30.705   0.819
66741W        W39166   0.352  34.984  12.003
66742W        W39167  28.680  23.180  14.510
66743W        W39168  21.541  13.174   1.327
66744W        W39169  22.312  33.087   0.545
66745W        W39170  31.574  14.151   1.442
66746W        W39171  33.442   0.858   0.944
66747W        W39172   9.186  15.695   3.280
66748W        W39173  24.088  18.234  10.984
66749W        W39174  27.800  32.823  13.463
66750W        W39175  33.178  16.114  14.276
66751W        W39176  20.578  39.879   2.215
66752W        W39177   2.414  27.005   4.584
66753W        W39178  28.470   0.808  12.483
66754W        W39179  33.599  10.768   2.165
66755W        W39180   8.480   6.136   2.549
66756W        W39181  18.621  43.242   0.400
66757W        W39182  42.514  12.927  14.492
66758W        W39183  21.496  34.159   0.765
66759W        W39184  40.024  17.590  10.842
66760W        W39185  22.662  12.119  10.891
66761W        W39186  20.116  37.685   2.188
66762W        W39187  42.873  15.086  12.512
66763W        W39188  10.901   8.359  11.009
66764W        W39189  31.228   2.452   3.700
66765W        W39190  19.139  37.893  13.122
66766W        W39191  10.789   3.755   4.643
66767W        W39192  30.981  39.964   3.849
66768W        W39193  36.572  33.811   0.170
66769W        W39194  39.119  38.269   0.549
66770W        W39195  26.687  33.917  12.391
66771W        W39196  35.511  38.389   3.687
66772W        W39197  25.645   8.505  11.549
66773W        W39198  23.175  33.457   4.197
66774W        W39199  34.187  42.462  14.882
66775W        W39200  32.087  13.807  13.051
66776W        W39201  44.943   9.828   1.903
66777W        W39202  23.043  16.015   1.468
66778W        W39203  30.476  44.299   0.289
66779W        W39204   8.131  10.852   3.482
66780W        W39205  29.031   2.228   0.709
66781W        W39206  25.688   1.294   2.301
66782W        W39207  29.511  44.233   0.443
66783W        W39208  12.672  24.239   9.701
66784W        W39209   2.710  41.528  12.159
66785W        W39210  16.272   7.575   0.459
66786W        W39211  33.952  19.461   0.492
66787W        W39212   4.678  34.909  11.396
66788W        W39213  37.654  33.074   4.246
66789W        W39214  12.312  33.146   2.603
66790W        W39215   2.880  34.048   2.629
66791W        W39216   2.431  16.147   0.421
66792W        W39217   3.279  41.958   4.104
66793W        W39218  14.305  17.836   4.149
66794W        W39219  39.790  38.402  11.870
66795W        W39220  26.577  35.008   0.146
66796W        W39221  15.589  35.586  14.409
66797W        W39222  19.943   4.012  12.958
66798W        W39223  34.409  41.598  10.620
66799W        W39224  24.450  23.712   1.604
66800W        W39225  19.432  23.776   1.446
66801W        W39226  16.039  40.147  12.633
66802W        W39227  44.231  30.851   4.595
66803W        W39228  42.388   2.580  12.770
66804W        W39229   5.604   8.456   4.774
66805W        W39230   0.368  38.338  11.983
66806W        W39231  12.716  43.806   1.760
66807W        W39232  41.451   3.901  14.460
66808W        W39233  16.997  34.870  11.409
66809W        W39234  42.825  26.411  11.611
66810W        W39235  37.126  20.650   0.995
66811W        W39236  44.746  19.520   1.222
66812W        W39237  22.431  35.965  10.657
66813W        W39238  10.148   4.628   3.808
66814W        W39239  33.396  30.186  11.902
66815W        W39240   6.894   2.476   3.779
66816W        W39241  40.371   1.484  13.642
66817W        W39242  43.806  27.679   1.382
66818W        W39243   8.682  17.271  14.457
66819W        W39244  33.554  36.555  12.092
66820W        W39245  44.716  26.241   3.350
66821W        W39246  10.525   7.385   4.092
66822W        W39247  19.474  22.204   1.962
66823W        W39248   3.097  25.535  14.961
66824W        W39249  43.987  42.716  13.478
66825W        W39250  26.170  41.925   1.318
66826W        W39251   4.852  10.105   0.465
66827W        W39252  18.607  18.088  13.356
66828W        W39253  39.825  10.794  11.075
66829W        W39254  24.719  32.475  13.457
66830W        W39255  11.121  41.471  10.753
66831W        W39256  31.694  27.627   1.792
66832W        W39257  21.557  41.584   3.098
66833W        W39258  13.748  38.074   2.356
66834W        W39259  23.439  30.495  10.673
66835W        W39260  24.838  12.248  14.542
66836W        W39261  39.931  25.580  13.576
66837W        W39262  14.826  10.399  13.247
66838W        W39263  40.045  35.933   3.879
66839W        W39264  22.066  32.805   2.080
66840W        W39265  36.973  31.627  13.408
66841W        W39266   6.994  37.588   4.230
66842W        W39267  22.944  34.393   2.338
66843W        W39268  31.919  21.733  12.298
66844W        W39269  11.171   3.983  11.210
66845W        W39270   6.328  20.538   2.684
66846W        W39271  23.042  28.677  12.899
66847W        W39272   3.186  11.083   3.632
66848W        W39273   3.359  13.778  14.920
66849W        W39274  43.433  35.435   1.726
66850W        W39275  19.109  16.844   4.103
66851W        W39276  28.236   9.841   3.697
66852W        W39277  32.265  38.757   3.115
66853W        W39278  14.079   0.973  13.802
66854W        W39279  30.202  29.350   1.196
66855W        W39280  11.274  38.440   2.265
66856W        W39281  11.096   5.755  10.639
66857W        W39282  10.862  15.069   0.811
66858W        W39283  33.681   2.172   1.044
66859W        W39284  33.338  28.636   4.095
66860W        W39285  39.364   3.559  14.311
66861W        W39286   6.915  22.660   0.747
66862W        W39287  35.122  30.040   0.818
66863W        W39288  18.217   1.616  12.059
66864W        W39289  41.276  30.850   3.305
66865W        W39290  26.632  24.877  14.805
66866W        W39291  18.662   5.741  14.082
66867W        W39292  33.145  32.938  12.905
66868W        W39293  33.423  19.603  12.865
66869W        W39294  26.089  39.834  12.296
66870W        W39295  15.175   2.420   4.668
66871W        W39296  29.859  15.074  11.163
66872W        W39297  17.791  30.981  10.980
66873W        W39298  11.199  42.323   3.240
66874W        W39299  17.482  37.311   4.549
66875W        W39300  25.722  11.265   3.340
66876W        W39301   9.222  36.644   2.472
66877W        W39302  22.921  31.372  10.758
66878W        W39303  36.497  36.837   0.695
66879W        W39304   1.710  44.878   4.808
66880W        W39305  36.047  38.887  13.507
66881W        W39306  18.636  10.260   1.023
66882W        W39307   5.395  24.725   0.809
66883W        W39308   5.749  23.912  11.602
66884W        W39309  15.130  35.835   3.678
66885W        W39310  42.463   0.834   4.569
66886W        W39311  25.743   2.882  13.606
66887W        W39312  10.158  25.506   2.386
66888W        W39313   7.307   7.699   4.650
66889W        W39314  17.696  42.859   4.386
66890W        W39315  25.803   1.837   3.674
66891W        W39316   0.529  21.643  14.427
66892W        W39317  22.075  22.721   4.354
66893W        W39318  10.469  28.236  13.058
66894W        W39319   4.957  35.999  14.139
66895W        W39320  37.920  26.615  14.325
66896W        W39321   6.877   7.433   2.839
66897W        W39322  41.293  35.424   4.517
66898W        W39323   1.776  44.495  12.530
66899W        W39324  33.823  19.261   4.614
66900W        W39325  21.036   3.977   2.367
66901W        W39326  41.801  19.909   0.167
66902W        W39327  26.617  14.101   0.906
66903W        W39328  18.038  10.223   3.234
66904W        W39329  25.870  31.534  14.907
66905W        W39330  31.104  41.076   0.012
66906W        W39331  37.098  18.001   3.907
66907W        W39332  11.738  41.334  14.904
66908W        W39333   1.734   1.276  12.962
66909W        W39334  11.571  33.094   3.361
66910W        W39335  31.802  16.273   5.076
66911W        W39336  26.702  39.380   4.605
66912W        W39337  34.635  39.412   3.198
66913W        W39338   8.376   9.672   0.717
66914W        W39339  38.883  17.602  11.709
66915W        W39340  35.374  25.753  13.434
66916W        W39341  21.026  19.645   0.940
66917W        W39342  17.537  35.659  13.503
66918W        W39343  18.961  18.438  11.560
66919W        W39344  13.700   4.331  14.517
66920W        W39345  21.766   6.253  12.456
66921W        W39346  15.994  10.731   4.443
66922W        W39347   9.088  19.735   4.785
66923W        W39348  33.316  33.858  14.452
66924W        W39349  41.176   0.798   3.287
66925W        W39350  34.895   7.942  14.872
66926W        W39351  27.107   1.879  13.606
66927W        W39352  38.509  25.965  11.150
66928W        W39353  27.816   0.470  10.222
66929W        W39354  19.765   1.798  12.478
66930W        W39355  17.636  16.747  12.054
66931W        W39356  38.877  25.546   4.479
66932W        W39357  34.086  43.557  11.350
66933W        W39358  18.824  35.793  11.645
66934W        W39359  29.173  20.202  11.446
66935W        W39360  28.197  18.586  13.308
66936W        W39361   0.429   3.311  11.416
66937W        W39362  14.524  28.897  11.566
66938W        W39363  38.021  27.427  10.659
66939W        W39364  12.858  17.049  11.600
66940W        W39365  14.713  28.613   0.762
66941W        W39366  11.548  28.666   0.212
66942W        W39367  39.572   0.858   5.025
66943W        W39368  21.070  15.616   4.630
66944W        W39369   9.361  27.180   3.652
66945W        W39370  15.292  40.821   1.818
66946W        W39371  12.151  18.565   1.482
66947W        W39372  25.027  31.529  14.250
66948W        W39373  40.457  21.333   3.700
66949W        W39374  35.949  38.341   2.182
66950W        W39375  43.850   5.898   4.452
66951W        W39376  42.460  22.180  12.456
66952W        W39377  30.732   4.667   3.077
66953W        W39378  33.842  14.373   4.103
66954W        W39379  17.695  23.760   1.017
66955W        W39380  44.859   5.435  11.203
66956W        W39381  35.451   4.052   2.657
66957W        W39382  25.997  34.466  11.366
66958W        W39383  33.628  36.792  10.709
66959W        W39384  39.124  27.883  13.341
66960W        W39385   7.956  39.496  13.279
66961W        W39386  27.954  30.584  10.591
66962W        W39387  11.297  39.226   3.374
66963W        W39388  21.007  14.883  11.397
66964W        W39389  41.450  40.544  13.032
66965W        W39390  17.500  16.069   4.822
66966W        W39391  26.060  20.973  14.608
66967W        W39392  18.666  41.732   1.494
66968W        W39393  31.131  13.216   1.185
66969W        W39394  31.135  19.253  10.370
66970W        W39395   6.669  41.928   4.335
66971W        W39396  44.719  17.554   4.044
66972W        W39397  19.152   7.852   2.825
66973W        W39398  36.014  35.978   3.228
66974W        W39399   4.138  24.814  13.323
66975W        W39400  37.874  43.371   3.799
66976W        W39401  41.046  43.797   4.578
66977W        W39402  31.888   6.314   1.856
66978W        W39403  28.204  15.200  10.449
66979W        W39404  34.681  23.672  13.049
66980W        W39405  28.939   0.348   1.373
66981W        W39406  42.885  20.614   4.630
66982W        W39407  38.155   7.615  12.548
66983W        W39408  11.252   5.159  12.996
66984W        W39409   3.793  40.308  10.464
66985W        W39410   2.661  30.601  11.686
66986W        W39411   9.863  21.053   1.713
66987W        W39412  33.179  31.765   1.904
66988W        W39413   8.078  12.189  10.615
66989W        W39414  39.520  36.030   2.800
66990W        W39415   3.970  13.354   2.345
66991W        W39416  16.332  20.224   2.491
66992W        W39417  12.927  34.109  13.137
66993W        W39418  27.364   2.531  13.913
66994W        W39419  12.345  15.693   4.637
66995W        W39420  34.879  12.530  14.581
66996W        W39421  40.506   2.949  14.891
66997W        W39422  22.262  25.016  13.050
66998W        W39423  41.247   4.832   3.719
66999W        W39424  23.757  32.096  13.469
67000W        W39425  18.322  11.221   0.268
67001W        W39426  33.539  35.166  12.080
67002W        W39427  44.035  38.291   4.581
67003W        W39428   6.661  27.168   4.133
67004W        W39429   1.530  26.619   5.056
67005W        W39430   5.833  26.774   1.261
67006W        W39431   2.164  39.638   0.685
67007W        W39432   0.864   0.858   3.131
67008W        W39433  41.030  27.196  12.165
67009W        W39434  40.420   3.425  12.023
67010W        W39435  38.989   6.882   3.269
67011W        W39436  24.617   3.882  11.670
67012W        W39437  41.297  21.810  13.869
67013W        W39438  34.862  33.015  13.446
67014W        W39439  26.213  24.693   3.196
67015W        W39440  44.333   9.075  13.036
67016W        W39441   9.247  35.260   1.422
67017W        W39442  28.717  12.238  12.648
67018W        W39443  23.053  26.459   2.932
67019W        W39444  41.672  37.898   4.283
67020W        W39445  24.034  13.991  11.610
67021W        W39446  30.136  44.468  14.874
67022W        W39447   3.191  33.968  13.777
67023W        W39448   8.444  10.169   0.455
67024W        W39449   9.164  13.780  14.412
67025W        W39450  33.716   8.196   1.178
67026W        W39451  27.912  35.381  10.416
67027W        W39452  10.345  41.317   4.228
67028W        W39453   4.557  41.850   3.230
67029W        W39454  33.698  27.405   1.488
67030W        W39455  36.346  11.786   2.787
67031W        W39456  27.322  36.185   0.266
67032W        W39457  32.128   8.367  12.914
67033W        W39458  36.167  42.889   4.200
67034W        W39459  23.115  27.270  14.336
67035W        W39460  42.490  42.049  10.811
67036W        W39461   9.921  27.923  13.881
67037W        W39462  14.086  32.930  14.565
67038W        W39463   1.836   3.510   0.583
67039W        W39464  27.120  14.363   0.963
67040W        W39465  35.902   3.337   2.799
67041W        W39466   5.521   3.492   5.077
67042W        W39467  19.739  14.741  13.901
67043W        W39468  41.873  14.754   4.266
67044W        W39469  19.810   6.876  10.656
67045W        W39470   1.712  42.971   0.809
67046W        W39471  19.631  29.440   0.748
67047W        W39472  23.685  44.403  14.822
67048W        W39473  32.975  23.227   4.642
67049W        W39474   3.234   5.458  12.631
67050W        W39475  28.449  26.120   1.410
67051W        W39476  12.179  22.808  13.752
67052W        W39477  17.310  16.297  11.995
67053W        W39478  27.578  15.070   3.515
67054W        W39479  14.773  26.654   4.557
67055W        W39480  12.486  43.011  12.564
67056W        W39481  34.472  21.499  12.280
67057W        W39482  18.681  23.316  13.539
67058W        W39483   0.895  21.612  14.803
67059W        W39484  13.766  21.158   4.414
67060W        W39485   0.967  35.680  14.557
67061W        W39486   8.278  38.840  11.472
67062W        W39487  20.001  23.562   2.072
67063W        W39488  17.071   5.384   2.412
67064W        W39489  14.265  13.250   3.268
67065W        W39490  30.451   3.928  12.907
67066W        W39491  20.917  15.323  11.168
67067W        W39492  36.817  42.791  13.035
67068W        W39493  44.444   8.173   3.574
67069W        W39494  41.980   1.070  12.080
67070W        W39495  33.095  13.215   1.642
67071W        W39496  19.985   5.825  14.785
67072W        W39497  37.295  40.383  13.126
67073W        W39498   2.938  43.809   1.371
67074W        W39499  43.634  29.998   4.191
67075W        W39500  20.697  37.491  13.401
67076W        W39501  38.807  12.068  10.941
67077W        W39502  42.706  32.587   0.282
67078W        W39503  16.985   2.414   2.862
67079W        W39504  35.507  35.046  14.009
67080W        W39505   6.739  26.228   4.965
67081W        W39506  37.582  41.985   4.050
67082W        W39507  18.554  28.061   1.159
67083W        W39508  25.137  35.527  14.452
67084W        W39509   9.430  23.616  12.921
67085W        W39510  35.297  34.177   3.686
67086W        W39511  20.002  33.531   2.084
67087W        W39512  28.300  37.341  13.710
67088W        W39513  26.253  43.329   2.906
67089W        W39514   8.809  25.084  11.934
67090W        W39515  42.068  31.378  11.559
67091W        W39516   5.979  34.456   1.628
67092W        W39517  30.792   0.706  11.532
67093W        W39518  42.336  25.204  11.538
67094W        W39519  26.194   5.126   4.622
67095W        W39520  30.004  21.096   1.288
67096W        W39521  38.867  11.127  12.662
67097W        W39522   0.419  34.547  14.909
67098W        W39523  38.402  32.907   3.222
67099W        W39524  10.353  18.639   4.145
67100W        W39525  42.186  35.331   0.406
67101W        W39526   6.837  14.257   1.037
67102W        W39527  19.195  13.243   1.502
67103W        W39528  18.627  44.418  10.661
67104W        W39529  21.077  28.980  13.046
67105W        W39530  24.986  34.524   2.247
67106W        W39531  14.107  36.906   3.795
67107W        W39532   4.405  38.691   5.026
67108W        W39533   5.094  25.024  14.479
67109W        W39534   6.970  13.424   2.613
67110W        W39535  40.285   7.984  14.157
67111W        W39536   1.576  20.590   3.185
67112W        W39537   7.343   1.648   0.901
67113W        W39538  31.987  29.533   0.932
67114W        W39539  21.292  11.671  10.954
67115W        W39540  37.413   8.641   4.383
67116W        W39541  15.129  32.999  13.730
67117W        W39542   7.308  34.877   1.937
67118W        W39543  22.440  27.089   4.409
67119W        W39544   4.416  24.281  11.101
67120W        W39545  43.050  32.289   2.293
67121W        W39546  23.815   0.004   3.807
67122W        W39547  30.894  13.088   3.175
67123W        W39548  26.682  38.327  13.707
67124W        W39549   5.625  20.559   0.822
67125W        W39550  25.483   8.809  10.475
67126W        W39551  19.234  42.262  13.266
67127W        W39552  36.558   0.389   0.351
67128W        W39553  17.347  27.406  10.103
67129W        W39554  36.085  24.022  12.881
67130W        W39555   3.462   6.289  12.014
67131W        W39556  19.037  15.593   1.828
67132W        W39557   1.836   0.927   3.421
67133W        W39558  17.753  39.268  11.228
67134W        W39559  20.806   0.062  14.487
67135W        W39560  21.582  33.992   4.585
67136W        W39561   9.386  11.174  13.340
67137W        W39562  40.418  11.590  14.810
67138W        W39563  26.418  39.833  10.802
67139W        W39564  31.496   6.725  12.514
67140W        W39565  43.777  21.550   0.545
67141W        W39566  19.816  22.490   2.814
67142W        W39567  16.007  14.560   4.643
67143W        W39568   2.574  19.258  12.589
67144W        W39569  14.570  10.042  13.541
67145W        W39570  11.686  19.671   2.580
67146W        W39571   9.923  36.339   0.873
67147W        W39572  23.504  10.236   2.695
67148W        W39573  10.412  16.853   0.779
67149W        W39574  24.801  17.519   1.362
67150W        W39575   0.795  15.359   9.957
67151W        W39576  11.796  24.115  10.065
67152W        W39577  20.338  23.476  12.953
67153W        W39578  26.006  16.918  12.003
67154W        W39579  16.742  21.800  13.325
67155W        W39580  21.075  10.823  10.501
67156W        W39581  22.530   4.379   4.150
67157W        W39582  23.210  31.851  14.300
67158W        W39583  43.511  28.743  13.872
67159W        W39584  11.786  32.597  12.638
67160W        W39585   4.182  24.086  10.693
67161W        W39586  21.266  43.301  11.459
67162W        W39587   1.216  29.062  11.188
67163W        W39588  38.900  35.867   0.756
67164W        W39589  44.306   6.221   2.747
67165W        W39590  19.297   8.746  14.631
67166W        W39591  13.608  12.535   3.196
67167W        W39592  13.860  20.753   3.277
67168W        W39593   4.222  10.777   0.049
67169W        W39594   4.605  13.279  13.417
67170W        W39595  13.455  22.016   3.578
67171W        W39596  11.666  33.124  14.392
67172W        W39597  42.726  43.576  11.233
67173W        W39598  25.447   5.159  14.065
67174W        W39599  17.264  13.673  14.778
67175W        W39600  24.258  35.550  12.060
67176W        W39601   2.813  37.828  13.518
67177W        W39602  30.389  27.520  14.885
67178W        W39603  33.235  10.637  14.907
67179W        W39604  14.714  17.757  11.721
67180W        W39605   5.794  43.762   3.324
67181W        W39606  42.413  43.757   3.797
67182W        W39607   8.659  16.772  14.281
67183W        W39608  22.089   0.753   4.155
67184W        W39609   6.676  39.039   3.849
67185W        W39610  18.060  11.623   0.489
67186W        W39611  22.675  29.466  12.498
67187W        W39612   6.478  30.457  13.888
67188W        W39613  15.594  16.757  13.972
67189W        W39614  39.810  12.502  11.880
67190W        W39615  10.045  10.004   3.224
67191W        W39616  41.657  10.727  14.051
67192W        W39617  24.157   9.045   9.702
67193W        W39618  17.262  38.784   4.669
67194W        W39619   4.373  38.450  12.043
67195W        W39620  43.929  26.570   3.468
67196W        W39621  31.530  25.498  13.923
67197W        W39622  43.930  44.895   4.614
67198W        W39623   0.302   8.651   3.337
67199W        W39624   6.514  22.459   4.076
67200W        W39625   2.546  12.972   1.915
67201W        W39626  14.389  15.699   4.541
67202W        W39627  40.733  41.312   3.465
67203W        W39628   8.744  28.552   1.018
67204W        W39629  19.507  39.083  14.937
67205W        W39630  23.357   9.395  11.799
67206W        W39631  30.133  29.975   3.460
67207W        W39632   2.644  44.962  12.490
67208W        W39633  24.058  23.985  13.281
67209W        W39634  24.265  34.521   1.842
67210W        W39635  43.935  22.654   2.195
67211W        W39636  41.283  10.182   3.757
67212W        W39637  16.460  34.024  11.887
67213W        W39638  44.026  29.692  11.515
67214W        W39639  41.597  27.101  10.921
67215W        W39640  34.823  37.701   0.020
67216W        W39641  26.166   4.272   4.227
67217W        W39642  17.746  27.743  12.354
67218W        W39643  43.249   5.136  11.439
67219W        W39644  35.886  41.973   4.637
67220W        W39645  23.052  44.318   3.334
67221W        W39646   5.607  42.145   4.560
67222W        W39647  11.210  12.576  11.893
67223W        W39648  21.762   3.004  10.595
67224W        W39649  22.059  19.979  12.562
67225W        W39650  14.611  13.775  12.456
67226W        W39651   3.405   3.831   5.099
67227W        W39652  27.178   2.186  14.536
67228W        W39653  12.723  29.076  12.673
67229W        W39654  41.343   3.786   0.971
67230W        W39655  11.791  41.978   1.411
67231W        W39656  21.741  35.118   0.959
67232W        W39657  12.618  26.140   0.961
67233W        W39658  23.758  40.791   0.933
67234W        W39659  29.489  39.778   1.251
67235W        W39660  37.371  35.068  13.863
67236W        W39661  18.089  16.183   4.092
67237W        W39662  26.485  27.489   0.375
67238W        W39663  26.547  26.779   3.637
67239W        W39664  37.326  40.550   3.269
67240W        W39665  10.024  24.108   2.366
67241W        W39666  30.610  28.440  14.503
67242W        W39667  40.782  16.800   4.712
67243W        W39668  33.963  27.498   4.792
67244W        W39669  38.067   1.068   0.865
67245W        W39670   0.684  15.671  14.028
67246W        W39671  29.609  12.627  10.988
67247W        W39672  22.709  14.266  11.623
67248W        W39673  19.547  32.895   3.270
67249W        W39674  31.182  22.922   2.227
67250W        W39675   3.842  29.985  12.461
67251W        W39676   7.850  17.682   0.935
67252W        W39677   5.329  37.277  13.627
67253W        W39678   3.924   4.257  10.601
67254W        W39679   3.203  10.556   3.592
67255W        W39680  36.230  22.138  11.429
67256W        W39681   2.933  21.785  10.478
67257W        W39682  39.093  22.022  12.219
67258W        W39683  40.433  33.629   5.140
67259W        W39684  26.578  19.308  14.371
67260W        W39685  33.476  12.796  14.635
67261W        W39686  17.875  11.400   4.232
67262W        W39687  11.854   6.752   0.539
67263W        W39688  19.545  18.583   0.934
67264W        W39689  29.101  13.769   1.671
67265W        W39690  38.908  42.829  14.069
67266W        W39691  15.114  38.118  14.972
67267W        W39692  18.105  29.445  12.064
67268W        W39693   4.791  39.901  11.593
67269W        W39694  12.224  10.877  14.314
67270W        W39695  21.271  25.912   1.226
67271W        W39696   4.175  25.858  13.548
67272W        W39697  37.268  32.764  11.633
67273W        W39698  19.721   9.155   2.162
67274W        W39699  29.917  32.410  12.415
67275W        W39700  22.555  38.345   1.091
67276W        W39701  32.555  36.263  11.460
67277W        W39702  12.773   4.102   4.149
67278W        W39703   2.499   1.825  13.055
67279W        W39704  11.817  13.337  12.929
67280W        W39705  41.955  36.558  12.956
67281W        W39706  10.860  28.453  12.772
67282W        W39707   0.921  24.929   3.205
67283W        W39708   8.178  39.960  13.337
67284W        W39709  10.834  33.011  10.921
67285W        W39710   7.586  37.314   0.377
67286W        W39711  33.958  31.918   2.596
67287W        W39712  13.896   3.895  11.304
67288W        W39713  37.520  27.417  10.701
67289W        W39714  15.817   1.885  13.092
67290W        W39715  21.831  30.444   1.329
67291W        W39716   9.476  22.221  14.085
67292W        W39717  26.704  35.725   1.752
67293W        W39718   8.430  22.557   1.453
67294W        W39719  40.348  28.392  10.795
67295W        W39720   8.741   4.199  11.540
67296W        W39721  37.479  30.924  14.915
67297W        W39722  16.296  36.127   1.906
67298W        W39723  29.008  11.689  13.522
67299W        W39724  33.722   5.803   2.238
67300W        W39725  37.787   4.739   0.378
67301W        W39726   8.759  35.334  10.251
67302W        W39727  28.435  30.971   4.248
67303W        W39728   3.319  37.356   2.183
67304W        W39729   4.738  34.090  14.961
67305W        W39730  21.138  28.104   4.164
67306W        W39731  40.505  21.699   2.385
67307W        W39732  34.072  16.111   4.340
67308W        W39733  20.928  20.047  13.815
67309W        W39734   9.298   0.374   3.954
67310W        W39735  15.992  33.079  12.028
67311W        W39736  18.343  44.650   3.187
67312W        W39737  10.611  28.517  10.377
67313W        W39738   6.070  26.755   4.427
67314W        W39739  39.014  34.145   3.317
67315W        W39740  24.449  15.156   3.282
67316W        W39741   7.456  33.332  11.628
67317W        W39742  12.514  36.297  11.398
67318W        W39743  16.029  15.781   1.321
67319W        W39744  17.574   1.497   9.987
67320W        W39745   0.361  24.225   3.376
67321W        W39746   5.866  17.478   3.567
67322W        W39747  37.035  37.383  14.802
67323W        W39748  16.028  41.902   2.290
67324W        W39749  16.890  31.405  14.711
67325W        W39750  25.198  28.628  14.622
67326W        W39751  34.995  37.279  10.317
67327W        W39752   0.866  26.668   2.721
67328W        W39753  14.221   9.352   4.377
67329W        W39754  24.165  27.027   1.766
67330W        W39755   7.892  18.212   1.868
67331W        W39756  21.634  37.051  13.850
67332W        W39757  11.256  25.029   0.852
67333W        W39758  24.818  43.646   0.243
67334W        W39759  11.283  44.784  14.809
67335W        W39760  35.888  15.251   1.684
67336W        W39761  33.259  24.748  13.402
67337W        W39762   2.388  32.754   2.118
67338W        W39763  22.687   0.389   2.449
67339W        W39764   0.417  27.967  13.822
67340W        W39765  38.565   8.914  12.929
67341W        W39766  28.940   0.478  13.814
67342W        W39767  20.428  38.927   1.861
67343W        W39768  41.251  17.818   3.228
67344W        W39769  28.627  21.626   3.319
67345W        W39770   5.300   3.634  10.730
67346W        W39771  43.804   0.352   0.438
67347W        W39772   9.410   0.841   3.149
67348W        W39773   7.867  15.334  11.114
67349W        W39774  29.263  28.006  11.168
67350W        W39775  23.434  37.471   0.886
67351W        W39776  22.594  43.018  11.984
67352W        W39777  20.645  38.226  11.408
67353W        W39778  32.970   6.298   3.964
67354W        W39779  22.662  39.039  14.279
67355W        W39780  10.148  15.944   4.531
67356W        W39781  34.592  39.556   2.676
67357W        W39782   3.552  35.341  11.695
67358W        W39783   3.756  40.082  14.765
67359W        W39784  41.057  36.545  10.903
67360W        W39785   1.496  24.722   0.064
67361W        W39786  25.489  16.792  11.972
67362W        W39787  22.318  21.980   2.421
67363W        W39788  10.794   9.691   0.287
67364W        W39789  14.167  44.588   2.891
67365W        W39790  25.922  12.771   1.425
67366W        W39791  39.460  16.299  14.389
67367W        W39792  22.281  25.520   4.616
67368W        W39793  11.241  15.136   2.420
67369W        W39794   5.755   6.749   4.242
67370W        W39795  24.917   2.071   0.986
67371W        W39796  22.172  43.568   1.629
67372W        W39797   0.813   8.548   3.183
67373W        W39798   9.308  29.442   1.918
67374W        W39799  30.464  26.756  13.813
67375W        W39800  24.996   9.349  11.609
67376W        W39801  18.207  16.370   1.464
67377W        W39802  25.733  40.209   4.702
67378W        W39803   8.456  23.750   1.817
67379W        W39804  18.184  20.810  12.990
67380W        W39805  21.422  36.268  14.897
67381W        W39806  40.531  15.338  12.078
67382W        W39807  42.340  21.967  10.481
67383W        W39808   9.171   4.104   0.256
67384W        W39809   5.872   0.926  14.872
67385W        W39810  42.513  27.166  11.903
67386W        W39811  35.961  43.936  13.875
67387W        W39812   9.244   7.321  12.556
67388W        W39813   5.197  35.584   3.356
67389W        W39814   7.139  19.140  12.558
67390W        W39815  43.978   0.173   0.904
67391W        W39816  24.671  23.682   2.881
67392W        W39817  25.132  32.074  11.406
67393W        W39818   3.779  17.343   2.286
67394W        W39819  32.930  42.352  12.053
67395W        W39820   9.456  21.735  10.671
67396W        W39821  32.692   1.681  13.918
67397W        W39822  29.434  29.477   0.817
67398W        W39823  11.893  27.900   2.852
67399W        W39824  37.618  33.098  11.847
67400W        W39825  41.583   5.900  14.391
67401W        W39826  14.301  24.293  13.442
67402W        W39827  24.526  11.179  11.548
67403W        W39828   8.153  26.194  11.976
67404W        W39829  44.805   7.219  12.191
67405W        W39830  43.829  16.544  12.434
67406W        W39831  21.858  24.708  13.268
67407W        W39832  35.960  30.269  14.944
67408W        W39833   1.472  28.178   1.795
67409W        W39834   3.868  41.363   0.965
67410W        W39835   5.191   7.653   3.791
67411W        W39836  13.303  14.120   0.235
67412W        W39837  37.142   0.977   3.330
67413W        W39838  40.351  11.385   4.454
67414W        W39839  36.872   3.838  11.973
67415W        W39840  41.385  34.850  11.552
67416W        W39841   0.758   9.282   3.698
67417W        W39842  37.943  25.393  12.895
67418W        W39843   0.931  18.115  14.346
67419W        W39844  18.286  12.129   2.795
67420W        W39845  22.139  17.319   0.792
67421W        W39846  27.395  13.410   4.145
67422W        W39847  24.225  42.266  13.096
67423W        W39848  14.698  33.300   0.355
67424W        W39849  17.963  16.307  13.704
67425W        W39850  26.370  29.701  13.344
67426W        W39851   0.207   4.621  11.196
67427W        W39852  35.397   9.200  13.892
67428W        W39853  34.883  28.154   3.388
67429W        W39854   1.888   4.398  11.702
67430W        W39855   3.906  10.732   0.475
67431W        W39856   7.694  26.295  11.649
67432W        W39857  13.584   8.740  12.352
67433W        W39858   5.700   2.833   4.097
67434W        W39859  29.941  25.600   3.555
67435W        W39860  20.079  39.450  10.471
67436W        W39861  16.358  18.377   2.409
67437W        W39862  38.135  11.708   2.258
67438W        W39863   7.718   4.254  10.682
67439W        W39864   9.822  27.376   0.024
67440W        W39865  42.404  40.762   2.667
67441W        W39866  40.327  18.013  10.775
67442W        W39867  10.802  12.736  12.727
67443W        W39868  21.217  37.983   0.482
67444W        W39869   0.907  37.513  13.584
67445W        W39870   4.177  19.332  14.816
67446W        W39871  38.633  41.533  13.071
67447W        W39872  38.337  16.732  11.579
67448W        W39873  40.073  17.072  14.807
67449W        W39874  25.101  41.578  14.731
67450W        W39875  32.761  26.010  10.725
67451W        W39876  30.677  39.049   0.653
67452W        W39877  30.454   9.763  11.231
67453W        W39878  14.705  29.924  13.879
67454W        W39879  28.770  20.790   3.326
67455W        W39880  31.389  23.810   4.631
67456W        W39881  16.626   8.356  12.284
67457W        W39882   2.722  27.797  10.766
67458W        W39883  22.684  23.581  12.169
67459W        W39884  35.391   5.014   3.275
67460W        W39885  24.071  12.666  13.390
67461W        W39886  34.619  11.887  14.438
67462W        W39887   9.360  33.181   2.286
67463W        W39888  44.561  19.867  11.145
67464W        W39889  23.527  36.518   1.164
67465W        W39890  10.780  30.983   0.933
67466W        W39891   7.365  23.532  13.932
67467W        W39892  12.329  37.495   1.233
67468W        W39893   1.819  22.919   1.573
67469W        W39894   9.718  16.224   2.868
67470W        W39895  43.130   0.704   4.086
67471W        W39896  29.747   7.367   4.639
67472W        W39897  27.117  25.646   3.430
67473W        W39898  34.204  35.454   3.192
67474W        W39899  39.137  34.617   4.122
67475W        W39900  33.880  32.942   0.460
67476W        W39901  42.342  25.052   0.250
67477W        W39902  16.250  15.148   2.105
67478W        W39903  39.970  44.026   4.130
67479W        W39904   8.227   5.234  11.775
67480W        W39905  10.827  19.761   5.071
67481W        W39906  30.976  20.312  12.838
67482W        W39907  13.058  31.126  12.430
67483W        W39908   4.844  22.180  10.608
67484W        W39909  44.691   6.677  12.840
67485W        W39910   3.996  11.693  11.258
67486W        W39911  26.130  29.175   2.216
67487W        W39912  13.537  11.597   4.207
67488W        W39913   8.205  16.753   0.892
67489W        W39914  19.875  31.607  13.943
67490W        W39915  31.527  27.214   4.142
67491W        W39916  35.156  38.296  14.472
67492W        W39917  31.483  30.829   0.029
67493W        W39918  42.286  10.870   3.206
67494W        W39919  35.465  43.193   3.704
67495W        W39920  33.048  29.599   4.498
67496W        W39921   4.229  38.196  11.599
67497W        W39922  37.619   3.889  12.507
67498W        W39923  37.310  18.514   3.693
67499W        W39924  33.934  27.402   4.278
67500W        W39925  22.145   8.785   0.061
67501W        W39926  37.326  34.596   4.088
67502W        W39927  20.484  36.980  13.452
67503W        W39928  10.125  28.973  14.446
67504W        W39929   0.139  16.236   3.884
67505W        W39930  34.647  26.005  12.966
67506W        W39931  41.096  28.037  13.362
67507W        W39932  41.782   0.342   2.559
67508W        W39933   8.296  23.920  11.541
67509W        W39934  12.182  19.963  14.802
67510W        W39935  17.575  21.342   2.218
67511W        W39936  23.891  28.537  13.415
67512W        W39937  16.024  25.585   3.239
67513W        W39938  20.413  15.476  12.398
67514W        W39939   2.216  35.001  13.116
67515W        W39940  29.121  29.076   3.914
67516W        W39941  11.790  29.554   3.982
67517W        W39942  16.178  28.787   4.558
67518W        W39943   6.161  34.089  14.196
67519W        W39944  19.649  31.761   0.833
67520W        W39945  33.464  23.667   0.693
67521W        W39946  38.172  11.337  12.139
67522W        W39947  39.782  42.047   0.296
67523W        W39948  11.370  13.922   2.427
67524W        W39949  35.125  44.930  12.553
67525W        W39950  36.453   9.923  12.494
67526W        W39951  16.545  11.661   3.903
67527W        W39952  32.905  34.127   4.070
67528W        W39953   4.604  30.569   0.242
67529W        W39954  23.583   2.438   1.306
67530W        W39955  40.571  15.669  14.786
67531W        W39956  13.358   3.898  14.494
67532W        W39957  42.460  42.313  13.530
67533W        W39958  23.617   3.194  11.891
67534W        W39959  42.377   3.190   4.852
67535W        W39960  34.558  28.972  13.920
67536W        W39961  27.245  34.640  12.993
67537W        W39962  14.635  15.536   4.119
67538W        W39963   4.718  25.936  12.879
67539W        W39964  22.748   9.613  10.550
67540W        W39965  35.954  24.475   4.494
67541W        W39966  16.537  38.030  14.673
67542W        W39967   2.501  32.637  12.578
67543W        W39968  28.962  28.920  11.543
67544W        W39969  16.323  20.008  14.787
67545W        W39970  18.657   4.794   4.354
67546W        W39971  34.289  35.746   4.963
67547W        W39972  42.330  11.149  13.506
67548W        W39973  26.440  20.095   4.382
67549W        W39974  36.932  34.370  11.747
67550W        W39975  32.569  30.641   5.101
67551W        W39976  35.659  22.184  13.349
67552W        W39977  41.013  29.667   1.901
67553W        W39978   7.447  26.594  10.359
67554W        W39979  44.297  26.042   2.697
67555W        W39980   1.909  44.286   1.005
67556W        W39981  37.444  14.318   3.169
67557W        W39982   7.441  33.602  13.865
67558W        W39983  34.654  16.460  11.466
67559W        W39984  28.652  36.873   0.253
67560W        W39985  26.348  11.163  14.465
67561W        W39986  34.067  32.954   4.143
67562W        W39987   3.855  36.006   4.519
67563W        W39988  41.558  36.072  12.038
67564W        W39989  38.303  10.716  12.040
67565W        W39990  31.204  27.212  10.924
67566W        W39991  10.359  17.891  13.818
67567W        W39992  10.784   3.972   0.731
67568W        W39993  17.746  14.377  10.725
67569W        W39994   5.211   1.579  10.936
67570W        W39995  34.881  40.979   4.628
67571W        W39996  38.305  40.933  12.314
67572W        W39997  10.179   9.328   4.208
67573W        W39998  35.295  20.487   0.558
67574W        W39999  39.895  23.066  14.437
67575W        W40000  20.152  42.751  10.993
67576W        W40001  34.800  30.243  13.120
67577W        W40002   2.889  12.265   3.185
67578W        W40003  31.008  31.214   3.572
67579W        W40004  35.381  33.136  13.430
67580W        W40005   5.407  36.648   3.431
67581W        W40006  30.824   9.663  11.649
67582W        W40007  11.803  31.714  12.337
67583W        W40008  12.792  15.085   2.446
67584W        W40009  32.066  43.496   2.558
67585W        W40010  39.235   7.658  10.367
67586W        W40011   9.878   2.978   3.385
67587W        W40012  30.052  33.281  14.723
67588W        W40013  32.468  42.093   4.136
67589W        W40014   0.127  21.217   1.535
67590W        W40015  15.107  13.026   1.444
67591W        W40016  37.615  35.339  10.654
67592W        W40017  40.452  28.948   3.867
67593W        W40018  20.233  42.464  14.264
67594W        W40019  17.756  30.261   4.728
67595W        W40020  31.542  13.315   1.815
67596W        W40021  32.539  39.900   0.976
67597W        W40022  42.451  28.730   0.377
67598W        W40023  39.423  28.815  12.766
67599W        W40024  16.230  43.797   4.642
67600W        W40025   7.667  30.982   3.341
67601W        W40026  30.429  40.312   1.796
67602W        W40027  21.632  34.828  11.426
67603W        W40028  22.369  22.925  11.048
67604W        W40029  29.994  11.049   1.768
67605W        W40030  21.715  23.176   0.453
67606W        W40031  34.649  26.567   2.804
67607W        W40032  23.796  37.860   3.170
67608W        W40033  44.423   8.257   0.291
67609W        W40034   4.517   0.483   2.240
67610W        W40035  36.975  23.423   3.682
67611W        W40036  10.725  10.326  11.890
67612W        W40037  43.527  43.328   2.700
67613W        W40038  37.256  43.587   0.100
67614W        W40039   6.229  29.992  13.829
67615W        W40040  20.081  24.414  12.922
67616W        W40041  12.783  43.635   3.600
67617W        W40042  29.098  18.717   1.200
67618W        W40043  26.777   2.344  11.061
67619W        W40044   7.840   2.813  10.776
67620W        W40045  20.653  20.263   2.381
67621W        W40046   5.634  19.710  12.119
67622W        W40047   5.223   6.223   2.730
67623W        W40048  35.028   8.726  11.954
67624W        W40049  13.824  11.547   3.292
67625W        W40050   8.448   0.468   1.221
67626W        W40051  33.557  20.844  10.470
67627W        W40052  31.471  36.966  14.768
67628W        W40053   7.586   1.729  12.907
67629W        W40054   8.786   9.739   2.416
67630W        W40055  13.298   1.968   2.821
67631W        W40056  27.183  36.660  13.371
67632W        W40057  39.306  11.280  14.028
67633W        W40058   9.715  31.226   2.678
67634W        W40059  26.704  32.110  12.093
67635W        W40060   8.782  41.528  14.248
67636W        W40061  10.324  38.021   2.921
67637W        W40062  14.835  12.775   1.797
67638W        W40063  27.791  26.146   0.284
67639W        W40064  36.751  31.058   3.189
67640W        W40065   0.990  12.583   1.903
67641W        W40066  19.475  23.906  10.218
67642W        W40067  37.869  27.555  13.517
67643W        W40068  34.634  38.361   5.001
67644W        W40069   9.946  22.959   3.738
67645W        W40070  31.066  13.310  10.440
67646W        W40071  31.555  32.539  13.294
67647W        W40072   8.026   4.554  13.842
67648W        W40073   9.281   7.820   5.120
67649W        W40074  33.586  34.136  14.006
67650W        W40075  35.747   9.391   1.770
67651W        W40076  32.189  36.453   4.630
67652W        W40077  16.376  35.056  11.078
67653W        W40078  30.155  16.672  12.974
67654W        W40079  16.679  31.011  14.430
67655W        W40080  25.220  29.633   0.014
67656W        W40081  24.577   6.609   4.685
67657W        W40082  34.989  15.731  14.909
67658W        W40083  20.199   1.790  14.530
67659W        W40084   2.678  33.312   3.786
67660W        W40085  29.550   2.808   4.079
67661W        W40086  40.820   9.397   0.005
67662W        W40087  27.704  33.416   4.818
67663W        W40088  13.038  26.274  13.220
67664W        W40089   8.781  42.130  12.185
67665W        W40090  14.046  44.073  13.999
67666W        W40091  33.065  11.233   1.863
67667W        W40092  42.738  32.877  12.883
67668W        W40093   3.587  34.929  14.897
67669W        W40094  44.096  14.216  11.886
67670W        W40095  27.446  32.138   2.942
67671W        W40096   9.018  42.863   2.835
67672W        W40097  27.051  22.132  13.874
67673W        W40098  13.610  14.249  13.494
67674W        W40099   2.731   9.066  11.511
67675W        W40100  37.366  34.089  12.888
67676W        W40101  24.127  15.725   5.095
67677W        W40102  11.860  23.746   3.329
67678W        W40103   9.201  21.579  14.862
67679W        W40104  31.271  36.959   2.309
67680W        W40105  24.316  12.820  12.430
67681W        W40106   6.498   9.268  11.005
67682W        W40107  41.696  27.004  14.889
67683W        W40108  10.350  42.559   4.561
67684W        W40109  15.871  31.709   1.529
67685W        W40110  41.780  36.556   3.297
67686W        W40111  19.628  38.841   1.207
67687W        W40112   2.511  39.128   3.177
67688W        W40113   5.849   9.088   4.443
67689W        W40114  35.857  21.442  11.090
67690W        W40115  44.621  28.468   4.637
67691W        W40116  26.050  32.159  13.344
67692W        W40117  37.078  25.305  14.908
67693W        W40118  19.058  33.546   1.445
67694W        W40119  22.083  27.782  11.089
67695W        W40120  34.401  37.502   0.923
67696W        W40121  34.201  17.340  11.099
67697W        W40122  13.964   3.773   1.744
67698W        W40123   0.937   4.829  14.202
67699W        W40124   8.316  30.229   4.880
67700W        W40125  26.467  25.565   0.454
67701W        W40126  25.446  29.213  10.766
67702W        W40127  28.602  28.953   0.441
67703W        W40128  20.690  43.081   2.850
67704W        W40129  35.054  29.997   3.614
67705W        W40130  21.236  40.907  14.125
67706W        W40131   6.493  25.024   0.858
67707W        W40132   4.397  13.776  13.479
67708W        W40133  20.665  40.799  12.090
67709W        W40134  12.834  22.773   2.372
67710W        W40135  18.898  12.798  11.927
67711W        W40136  40.879  26.017  14.603
67712W        W40137   9.662  35.525   3.191
67713W        W40138   1.253  40.525  13.636
67714W        W40139  28.187  39.033   2.923
67715W        W40140  26.787  26.631  12.860
67716W        W40141  43.445   1.901   0.803
67717W        W40142  28.160  38.615   0.006
67718W        W40143  27.536  36.550   2.237
67719W        W40144   1.735  40.805   3.079
67720W        W40145  38.546   2.332   4.604
67721W        W40146   1.870   6.772   4.020
67722W        W40147  14.582   4.014   2.334
67723W        W40148  15.741  39.536   2.473
67724W        W40149   7.180  28.514   1.271
67725W        W40150  31.894  28.626  14.204
67726W        W40151   4.702  19.810  14.907
67727W        W40152   6.916  27.994   1.196
67728W        W40153  16.440   5.242   1.756
67729W        W40154  43.756   3.592   2.149
67730W        W40155  15.317  28.188   1.429
67731W        W40156  20.660   0.720   0.723
67732W        W40157  38.400   0.748  10.974
67733W        W40158  14.607  35.934   0.218
67734W        W40159  28.200   4.443  11.160
67735W        W40160  29.250   9.912   2.377
67736W        W40161  28.563  31.832   0.937
67737W        W40162  20.479  15.636   0.987
67738W        W40163  35.501  42.803  11.199
67739W        W40164  43.039  36.467   0.778
67740W        W40165  41.948  13.691   3.739
67741W        W40166  29.342   4.477   0.779
67742W        W40167  31.610  38.785  13.238
67743W        W40168  21.078  27.724   0.852
67744W        W40169  25.746  20.905  11.322
67745W        W40170  34.016  18.128   0.793
67746W        W40171  15.136  26.225  11.152
67747W        W40172  10.788  37.978  12.121
67748W        W40173  34.687  26.140   1.819
67749W        W40174  28.701   8.306   4.524
67750W        W40175  44.803  31.427   4.235
67751W        W40176   1.746   6.118  11.129
67752W        W40177  23.190  11.667   4.132
67753W        W40178   5.252  18.174   3.283
67754W        W40179  24.564  40.745   0.531
67755W        W40180  43.143  22.626  11.499
67756W        W40181  14.392   3.297  11.876
67757W        W40182  39.399   7.632   3.135
67758W        W40183  44.446  19.586   1.663
67759W        W40184  35.160  31.405  11.861
67760W        W40185  34.215  26.164   0.331
67761W        W40186   5.159  17.670  12.539
67762W        W40187  20.116  15.747   2.628
67763W        W40188  32.036  31.467  12.487
67764W        W40189  32.006  40.258   3.254
67765W        W40190   1.946  20.832   2.243
67766W        W40191  44.013  12.231  10.569
67767W        W40192  18.898  29.391   3.681
67768W        W40193  26.935  14.659   3.702
67769W        W40194  24.567  33.389   0.675
67770W        W40195  35.346  36.910   1.796
67771W        W40196  35.504  12.393   1.225
67772W        W40197  22.249  37.122   0.315
67773W        W40198  34.925  40.874   2.300
67774W        W40199   3.867  26.165   2.363
67775W        W40200  44.133  31.083   1.971
67776W        W40201  12.244  40.106  13.552
67777W        W40202  44.742   1.672   1.671
67778W        W40203  35.902  11.848   3.163
67779W        W40204  29.852  18.790   3.198
67780W        W40205  39.427  28.511  14.770
67781W        W40206  10.729  10.421   1.699
67782W        W40207  21.216  44.927   0.935
67783W        W40208  26.524   5.566   3.924
67784W        W40209  36.225  39.075   1.971
67785W        W40210  26.834  34.363   1.871
67786W        W40211  10.550  12.368  14.875
67787W        W40212   2.621  25.030   3.671
67788W        W40213   1.256  14.796  12.287
67789W        W40214   4.437  11.427  11.233
67790W        W40215  32.956  17.696  14.735
67791W        W40216  28.133   6.692   1.173
67792W        W40217  10.211  30.432  14.129
67793W        W40218  30.854  41.290   0.417
67794W        W40219   5.989  37.241   5.216
67795W        W40220  28.753  40.588   1.406
67796W        W40221  28.833  16.413   1.419
67797W        W40222   0.932  21.122  10.520
67798W        W40223  14.870  17.202   2.483
67799W        W40224  38.868  44.353  11.758
67800W        W40225  23.109  21.227  10.532
67801W        W40226  42.270   9.549  11.592
67802W        W40227  25.746  29.413  14.106
67803W        W40228  44.925   3.005   1.231
67804W        W40229  44.029  10.246   2.186
67805W        W40230   8.327   2.490   0.437
67806W        W40231  38.050  31.974  13.045
67807W        W40232  29.320   4.172   4.558
67808W        W40233  15.963  25.032   2.933
67809W        W40234  39.949  26.437  14.384
67810W        W40235  30.546  15.290   1.681
67811W        W40236   0.286  23.026   2.164
67812W        W40237  11.669   7.098   4.599
67813W        W40238  23.506  10.855  14.415
67814W        W40239  18.244  29.207   4.069
67815W        W40240  11.357  32.737  11.910
67816W        W40241  41.923  25.712   3.216
67817W        W40242  13.279  44.298   2.424
67818W        W40243  37.097   6.958   0.708
67819W        W40244  35.383  29.101   0.727
67820W        W40245  32.619  32.071   2.690
67821W        W40246  21.849  18.099  14.281
67822W        W40247  18.810  26.481  12.519
67823W        W40248  22.501  24.958   4.689
67824W        W40249   0.774  21.703  12.199
67825W        W40250   9.862  34.977   3.217
67826W        W40251  39.321  13.677   0.907
67827W        W40252  44.048  22.536  12.821
67828W        W40253  42.229   0.241   2.289
67829W        W40254  39.762  27.546  10.595
67830W        W40255   2.615   5.258  13.848
67831W        W40256  18.710  40.405   4.378
67832W        W40257  31.647  35.780   4.557
67833W        W40258  24.324  11.933   2.192
67834W        W40259   2.964  29.362   4.259
67835W        W40260  34.792  24.072   3.303
67836W        W40261  19.659   8.928  13.334
67837W        W40262   3.502   3.816  14.941
67838W        W40263  16.082  14.546  11.575
67839W        W40264  38.560  34.386   3.295
67840W        W40265   9.772  36.126  13.313
67841W        W40266  21.109   8.204  11.715
67842W        W40267  41.323   4.248  12.304
67843W        W40268  42.317  34.575  14.965
67844W        W40269  19.551  31.952  10.593
67845W        W40270   2.505  11.361   1.435
67846W        W40271  33.561   0.466  11.608
67847W        W40272  22.075  20.826   2.698
67848W        W40273  44.346  42.019  12.123
67849W        W40274   6.134  40.052   0.536
67850W        W40275  30.610  14.611  12.441
67851W        W40276  20.798  22.162  14.527
67852W        W40277  31.888   3.358  13.456
67853W        W40278  39.578   4.858   4.474
67854W        W40279   6.613  29.466   3.240
67855W        W40280  31.711  27.437   4.590
67856W        W40281   0.377  13.243   2.740
67857W        W40282  21.761  40.975   0.823
67858W        W40283  26.146   0.382  14.409
67859W        W40284  32.375  32.232   0.173
67860W        W40285  16.052  23.659   1.216
67861W        W40286   4.793  21.442  12.586
67862W        W40287  23.189  38.287  14.401
67863W        W40288  36.100  23.861   1.300
67864W        W40289  30.329  16.009   0.184
67865W        W40290  17.311   8.290  10.760
67866W        W40291  28.117  25.675   4.766
67867W        W40292   0.693  36.095  14.168
67868W        W40293  32.402   6.628  14.859
67869W        W40294  42.355  39.399  10.766
67870W        W40295  41.747   1.834   1.644
67871W        W40296  35.819  39.925   1.898
67872W        W40297  14.845  16.515  12.985
67873W        W40298  19.606   1.520   2.483
67874W        W40299  19.866  11.214  10.764
67875W        W40300  41.639  18.734  13.946
67876W        W40301  31.417   2.261  12.140
67877W        W40302  30.166  30.597   0.477
67878W        W40303  31.315  29.035   0.952
67879W        W40304  14.688  41.848   2.846
67880W        W40305  32.711  30.008   1.927
67881W        W40306  26.426  17.348  12.832
67882W        W40307  21.294   2.283   2.196
67883W        W40308  43.848  11.753  13.373
67884W        W40309  22.751  30.652  11.964
67885W        W40310   4.689   0.896  10.899
67886W        W40311  34.608   2.968   4.598
67887W        W40312  15.553   0.567  12.013
67888W        W40313  11.417  28.949   1.206
67889W        W40314   6.194  36.376  10.642
67890W        W40315  21.946  21.241  13.973
67891W        W40316  11.127  42.148   0.434
67892W        W40317   6.330  32.662  11.909
67893W        W40318  19.662   2.680   0.643
67894W        W40319  26.346  19.746  12.021
67895W        W40320  41.586  21.207  13.382
67896W        W40321  30.421  22.647   1.335
67897W        W40322  42.066  19.518  14.878
67898W        W40323  22.489  13.119   3.195
67899W        W40324  17.562  28.961  13.743
67900W        W40325  42.984   3.750  13.088
67901W        W40326  10.313  11.545  11.711
67902W        W40327  35.981  37.976  14.530
67903W        W40328  44.228  30.141  11.140
67904W        W40329  22.283  22.124  14.814
67905W        W40330  39.073  37.551   2.224
67906W        W40331  25.024  40.594   0.730
67907W        W40332  21.258  20.524  14.991
67908W        W40333  20.652  41.755   4.580
67909W        W40334  13.025  32.078   3.689
67910W        W40335  26.789  24.663   0.856
67911W        W40336  40.007  42.861   2.692
67912W        W40337  13.372  30.173  11.578
67913W        W40338  18.173   4.346  13.829
67914W        W40339  24.934  12.299   4.130
67915W        W40340  16.511  40.809  13.015
67916W        W40341  15.188  42.732   2.656
67917W        W40342  35.288  14.077  14.095
67918W        W40343  27.517  31.571  14.353
67919W        W40344  13.042   5.478   0.733
67920W        W40345  31.547   9.765  12.410
67921W        W40346  40.588  16.675   3.240
67922W        W40347  34.613  31.090  13.475
67923W        W40348  30.543  42.560   2.402
67924W        W40349   4.859  41.554   1.828
67925W        W40350  19.216  21.752   2.706
67926W        W40351  15.582  38.998  11.448
67927W        W40352  42.758  34.965   1.827
67928W        W40353  10.393  24.682  11.086
67929W        W40354  40.750  20.642   4.811
67930W        W40355   9.939  34.913  13.966
67931W        W40356  27.110  17.713  14.867
67932W        W40357  35.218  27.576  13.265
67933W        W40358  17.224  38.091   0.957
67934W        W40359  20.044  28.840   3.078
67935W        W40360  41.948  17.033   2.640
67936W        W40361  20.750  13.284   4.472
67937W        W40362  15.377  14.143   2.254
67938W        W40363  30.536   2.679  10.354
67939W        W40364  19.073  36.425  13.993
67940W        W40365  36.463  38.576  12.420
67941W        W40366  42.942  10.686  12.598
67942W        W40367  20.052  23.689  13.413
67943W        W40368  36.124  44.401   1.410
67944W        W40369  43.691  39.479  11.019
67945W        W40370   5.632   7.901   0.783
67946W        W40371  12.969   4.985   4.407
67947W        W40372   8.638  27.667  13.146
67948W        W40373   6.831   2.243   2.858
67949W        W40374  30.639  38.446  13.683
67950W        W40375  44.123  27.251   4.110
67951W        W40376  39.323   6.128   3.627
67952W        W40377  14.316   6.614  11.104
67953W        W40378   7.179  26.885   3.184
67954W        W40379  17.116  44.390   2.808
67955W        W40380   5.034   0.467   3.755
67956W        W40381  16.549  30.711  14.006
67957W        W40382  42.592   8.657  11.493
67958W        W40383  29.222  38.321  14.877
67959W        W40384  26.519  22.696   2.662
67960W        W40385  30.197   5.638  13.493
67961W        W40386  20.130  30.760  12.463
67962W        W40387  27.969  21.930   3.600
67963W        W40388  10.199   9.851   4.199
67964W        W40389   0.910  29.958  14.054
67965W        W40390  12.766   0.895  12.038
67966W        W40391  36.126  13.231   3.713
67967W        W40392  18.626  41.856  14.775
67968W        W40393   3.516   4.955  12.034
67969W        W40394   9.279   2.416   1.923
67970W        W40395   9.645  25.172  14.460
67971W        W40396  27.658  21.422   0.370
67972W        W40397  20.673   8.691   4.014
67973W        W40398   1.265   8.262   1.316
67974W        W40399   7.853  43.237   4.173
67975W        W40400  27.713  39.005   2.722
67976W        W40401  14.366  23.106   0.677
67977W        W40402  29.658  19.283  13.818
67978W        W40403  38.426  42.908   9.633
67979W        W40404   2.420  39.450  13.804
67980W        W40405  20.116  34.438   3.758
67981W        W40406  14.544  29.557   3.689
67982W        W40407  43.080   9.639   0.896
67983W        W40408  42.850  16.068  14.718
67984W        W40409  42.890  31.116  12.438
67985W        W40410  12.829  26.701  11.588
67986W        W40411   6.949  43.852   0.775
67987W        W40412  12.729  31.048   0.248
67988W        W40413  27.184  39.369  13.778
67989W        W40414  42.833  30.565   2.677
67990W        W40415  30.149   5.920   3.577
67991W        W40416  40.371  12.326  13.886
67992W        W40417  22.339  18.195  14.094
67993W        W40418   7.525   5.805   3.737
67994W        W40419  25.749  13.422  11.086
67995W        W40420  28.110  22.302   3.240
67996W        W40421  27.949   3.811   1.285
67997W        W40422  36.382  28.967  11.166
67998W        W40423   5.311  16.415  10.896
67999W        W40424  20.788  40.316  12.234
68000W        W40425   3.334   5.745   0.025
68001W        W40426  18.074  21.991   3.144
68002W        W40427  24.686  32.134   2.180
68003W        W40428   0.974   0.150  13.492
68004W        W40429  33.324  37.114   1.768
68005W        W40430  40.805  19.091  12.468
68006W        W40431  36.606  44.535   3.273
68007W        W40432  10.639  12.095   4.862
68008W        W40433  21.829   5.927   0.854
68009W        W40434  21.099   0.321   1.259
68010W        W40435  34.596  40.095   3.729
68011W        W40436  38.745   8.064   5.039
68012W        W40437  23.504  10.718  11.513
68013W        W40438  42.788   8.841   0.371
68014W        W40439  11.227  20.278  10.780
68015W        W40440  29.647  13.698   0.380
68016W        W40441   5.812   2.168  12.197
68017W        W40442  12.206  13.622   4.209
68018W        W40443   6.725  42.908   2.172
68019W        W40444  28.044  19.449  10.295
68020W        W40445  34.140  18.084   5.001
68021W        W40446  37.913  10.544   4.123
68022W        W40447  24.551  37.095   0.384
68023W        W40448  43.818  18.623  12.356
68024W        W40449  34.321  23.729  14.493
68025W        W40450  18.626  34.207  13.142
68026W        W40451  16.677  42.024  11.625
68027W        W40452  22.930  26.186  13.379
68028W        W40453  33.596  30.438   1.255
68029W        W40454   4.333  36.384  14.955
68030W        W40455  10.633  31.973  11.145
68031W        W40456  10.702  42.317   0.715
68032W        W40457   5.799  38.608  12.577
68033W        W40458  43.592  37.425   5.073
68034W        W40459  39.798   1.879   4.821
68035W        W40460  41.995  33.959  13.770
68036W        W40461  27.975   0.213   0.898
68037W        W40462  40.718  44.638   2.803
68038W        W40463   6.984   2.458   1.223
68039W        W40464  33.021  29.974  10.662
68040W        W40465  12.895  17.600   2.333
68041W        W40466   7.011  11.750   2.620
68042W        W40467  43.913  17.054  12.682
68043W        W40468  31.014   8.946  12.578
68044W        W40469  19.959   1.740  10.189
68045W        W40470   2.383   6.169   1.742
68046W        W40471  31.294  23.319   4.542
68047W        W40472  13.677  30.794  14.890
68048W        W40473  20.309  32.870  14.814
68049W        W40474   6.263  26.128   3.744
68050W        W40475  15.553   8.509  11.315
68051W        W40476  10.934   6.999  13.012
68052W        W40477   7.575  43.999   2.730
68053W        W40478   5.289   1.575  13.544
68054W        W40479  25.804  39.405  11.537
68055W        W40480  25.531   1.969  11.957
68056W        W40481  18.024   1.751   2.359
68057W        W40482   0.111  32.012   4.483
68058W        W40483  31.383   3.332  13.525
68059W        W40484  22.122  13.356   0.491
68060W        W40485  33.105  32.510   0.026
68061W        W40486  34.844   2.752   0.352
68062W        W40487  32.817  28.127  14.902
68063W        W40488  10.786  36.601   3.877
68064W        W40489   5.009  28.173   2.953
68065W        W40490  20.047   4.834   4.584
68066W        W40491   0.493  26.067  11.045
68067W        W40492  25.781  18.813   3.881
68068W        W40493  41.277  26.020  11.110
68069W        W40494  16.319  19.711   2.649
68070W        W40495   5.675  30.103  13.099
68071W        W40496  22.701   9.134   1.062
68072W        W40497  32.050   5.434  14.421
68073W        W40498  42.265  19.094   3.617
68074W        W40499  27.438  42.729   2.291
68075W        W40500  19.165   5.414   0.524
68076W        W40501   5.767  11.769   0.020
68077W        W40502  35.919   7.594   4.122
68078W        W40503  40.388  10.977  12.872
68079W        W40504  29.952   4.357  12.489
68080W        W40505  39.033  19.061  13.076
68081W        W40506  38.039  44.352   3.262
68082W        W40507  13.210  38.841  13.376
68083W        W40508  21.549  15.130   1.602
68084W        W40509  23.130   3.657  10.635
68085W        W40510  39.534  41.655   2.846
68086W        W40511  41.026  40.584  11.203
68087W        W40512   0.874  43.140  11.550
68088W        W40513   0.217  12.695  10.820
68089W        W40514  15.559  30.361  14.282
68090W        W40515  36.996  14.784   1.411
68091W        W40516  37.423  29.151   0.778
68092W        W40517  27.276  12.304  10.698
68093W        W40518   9.391  41.056  12.496
68094W        W40519   6.237   2.979  11.663
68095W        W40520   1.361  41.970   2.309
68096W        W40521  44.509  42.364  12.790
68097W        W40522  43.671  21.876   1.859
68098W        W40523  13.931  23.773   5.037
68099W        W40524  16.660  22.744   1.881
68100W        W40525   5.406   5.194  10.545
68101W        W40526  38.474   6.239   0.678
68102W        W40527   2.974  31.447  14.457
68103W        W40528  44.414  10.638  14.937
68104W        W40529  41.845  21.259   3.855
68105W        W40530  12.779  23.740  14.921
68106W        W40531  19.288  21.234   2.702
68107W        W40532  38.684  22.124   2.627
68108W        W40533  17.627   3.270   0.293
68109W        W40534  14.576  35.551  13.360
68110W        W40535  34.218  16.226  14.968
68111W        W40536  35.096   6.325   1.274
68112W        W40537  39.480  29.984   4.597
68113W        W40538  18.247   3.684   2.861
68114W        W40539   5.321  21.993   0.281
68115W        W40540   5.350  20.080  13.388
68116W        W40541  36.449  43.274  12.351
68117W        W40542   2.697   3.522   2.353
68118W        W40543   0.051  30.017   2.946
68119W        W40544  10.707  21.002   0.334
68120W        W40545  19.622  12.419   0.937
68121W        W40546  35.313   0.004  14.496
68122W        W40547   6.597  12.247  10.752
68123W        W40548  34.597   5.359   3.490
68124W        W40549  37.068  21.728  11.726
68125W        W40550  34.186   0.825   1.273
68126W        W40551  34.466  21.117  13.530
68127W        W40552   9.479   3.939   1.333
68128W        W40553  12.387  32.938  13.860
68129W        W40554  27.796  24.807  11.553
68130W        W40555  26.983  38.556  12.067
68131W        W40556  19.133  33.516   1.964
68132W        W40557   7.658  35.621  14.237
68133W        W40558  23.404  16.246   4.089
68134W        W40559  21.671   0.480   4.393
68135W        W40560  11.707  31.566   4.806
68136W        W40561   0.979  44.082   4.115
68137W        W40562  27.760  33.501   0.188
68138W        W40563  24.170   2.810   2.792
68139W        W40564  28.437  26.632  10.606
68140W        W40565  16.831  21.930  12.805
68141W        W40566  37.793  24.568   0.722
68142W        W40567  18.753   8.166   2.669
68143W        W40568  21.975  34.048   3.872
68144W        W40569   9.606  24.657   3.992
68145W        W40570  37.936  32.928  12.657
68146W        W40571  28.540  22.892   1.275
68147W        W40572  32.566  29.485   3.223
68148W        W40573  18.566  20.112   0.543
68149W        W40574   8.855   5.390   3.632
68150W        W40575  33.867  39.101   3.673
68151W        W40576  39.038  37.396   0.008
68152W        W40577  30.993  38.627  12.035
68153W        W40578   2.171  43.757  11.754
68154W        W40579  10.202  29.003  13.442
68155W        W40580  12.381  28.505  14.877
68156W        W40581  18.208  41.497  13.957
68157W        W40582   8.788  18.208  13.030
68158W        W40583  35.477   5.220   0.942
68159W        W40584  16.196  29.602  13.073
68160W        W40585  23.457  10.263   2.166
68161W        W40586  11.187  20.665   0.265
68162W        W40587  42.787   1.028   5.004
68163W        W40588   5.413  35.005  13.144
68164W        W40589  19.363  35.261  13.383
68165W        W40590  26.729  22.173   2.683
68166W        W40591  18.525  39.408  12.037
68167W        W40592  34.224  18.266   3.731
68168W        W40593   8.974  22.117  14.820
68169W        W40594  34.145   0.442  14.837
68170W        W40595  30.546  31.593   3.197
68171W        W40596  36.078   2.676  12.368
68172W        W40597  41.465  35.452  13.248
68173W        W40598  39.056  41.434   2.802
68174W        W40599  44.520  20.894   4.688
68175W        W40600  25.091  22.091  14.478
68176W        W40601  18.686  22.225  14.499
68177W        W40602  40.239  42.498   1.384
68178W        W40603  28.152  31.400   0.254
68179W        W40604  38.509  37.931   4.397
68180W        W40605  29.627   3.383   0.475
68181W        W40606  32.059   3.814   3.720
68182W        W40607  18.193  22.949   2.916
68183W        W40608  14.039   1.997   9.987
68184W        W40609  33.947   9.454   0.801
68185W        W40610  30.405  10.807   0.260
68186W        W40611  26.326   5.739   2.936
68187W        W40612  10.417   1.588  12.929
68188W        W40613  31.463   1.854   0.957
68189W        W40614   8.823  31.065   1.146
68190W        W40615  36.635  33.652  13.351
68191W        W40616  32.374  12.771   1.647
68192W        W40617  13.677  27.557   4.321
68193W        W40618  20.084   3.958   2.275
68194W        W40619  16.746   5.784  12.105
68195W        W40620  16.676  24.307  13.885
68196W        W40621  26.238  11.000  14.976
68197W        W40622  27.175   1.210   2.849
68198W        W40623  18.474  30.280  11.868
68199W        W40624  25.740  32.643  10.356
68200W        W40625  35.109   6.308   0.251
68201W        W40626  23.555  25.285  12.009
68202W        W40627  20.571  39.014  14.114
68203W        W40628  36.803   4.784   0.308
68204W        W40629   5.876  44.473   2.842
68205W        W40630  27.147  39.426  14.287
68206W        W40631  11.358  23.226  11.951
68207W        W40632  43.924  31.010   4.208
68208W        W40633  20.072   7.044   1.488
68209W        W40634  15.560  39.876  10.945
68210W        W40635   9.558   0.953   1.307
68211W        W40636  35.976  31.524  10.433
68212W        W40637  19.298  40.924   1.406
68213W        W40638  10.728  29.470  13.963
68214W        W40639  31.690  28.325  11.762
68215W        W40640   5.185  18.643   2.289
68216W        W40641  41.460   6.356   1.644
68217W        W40642  27.006  36.486  12.908
68218W        W40643   5.911  27.636  13.546
68219W        W40644  18.847   5.194  10.722
68220W        W40645  26.413  28.117   4.099
68221W        W40646  32.462  22.693  10.679
68222W        W40647  36.521  30.496  12.717
68223W        W40648  38.362  11.664  14.281
68224W        W40649   0.499  16.197   1.019
68225W        W40650  23.730  13.198   1.838
68226W        W40651  39.526  40.455  11.322
68227W        W40652   9.395  40.134   4.038
68228W        W40653  43.804  26.248   1.744
68229W        W40654   3.922   0.012   4.827
68230W        W40655  26.520  16.916   5.091
68231W        W40656  35.360  41.305   0.201
68232W        W40657  26.056  16.331   3.155
68233W        W40658  22.622  27.023  11.960
68234W        W40659   2.333  12.638  12.372
68235W        W40660  10.098  36.594  11.073
68236W        W40661  36.887  39.748   4.172
68237W        W40662  29.126  16.127  13.796
68238W        W40663  11.451  14.674   2.419
68239W        W40664  20.086  28.171  11.429
68240W        W40665  39.415  33.423   4.694
68241W        W40666  13.178   4.781   1.539
68242W        W40667  25.659  39.642  12.058
68243W        W40668  19.692   3.673   2.097
68244W        W40669   9.837  11.723   2.219
68245W        W40670  44.682   5.093   3.366
68246W        W40671  40.005  41.628  12.899
68247W        W40672  20.265   2.163   4.179
68248W        W40673   1.133  10.176  10.685
68249W        W40674  40.840  12.093   1.146
68250W        W40675  11.979  12.298   1.598
68251W        W40676  43.816  17.742   4.796
68252W        W40677  38.070  23.504   4.570
68253W        W40678   6.269   9.793  10.797
68254W        W40679   3.971  38.058  12.033
68255W        W40680  13.838   5.897  12.414
68256W        W40681  30.150  24.606   3.308
68257W        W40682  12.126  25.243  12.862
68258W        W40683   5.801   8.848  11.606
68259W        W40684   0.781  24.220   1.497
68260W        W40685  27.886  21.091   4.649
68261W        W40686  16.758  25.096  13.348
68262W        W40687  26.427  16.824   1.490
68263W        W40688  40.072  16.222   1.888
68264W        W40689  24.810  35.751   1.726
68265W        W40690  35.040   0.391  11.054
68266W        W40691  32.352  39.819  10.718
68267W        W40692  14.407  27.737   2.457
68268W        W40693  40.067  32.192  13.188
68269W        W40694  14.228   5.120  11.879
68270W        W40695  26.484  17.134  12.023
68271W        W40696  37.785  40.801   3.487
68272W        W40697  43.748  43.117  14.766
68273W        W40698  22.524  24.208  10.892
68274W        W40699  37.347   3.504  10.406
68275W        W40700  15.281  14.359  12.921
68276W        W40701  33.894  20.180   4.411
68277W        W40702  14.285  21.618   2.318
68278W        W40703  28.380   9.075  11.071
68279W        W40704   4.196  22.089  14.461
68280W        W40705  30.886  27.646   2.237
68281W        W40706  31.363  28.028   0.910
68282W        W40707  13.851  37.363  11.659
68283W        W40708  25.476  22.503  11.994
68284W        W40709   5.064  10.624  11.585
68285W        W40710  35.855   4.293   1.910
68286W        W40711  36.104   8.805  14.351
68287W        W40712  23.528   7.381  14.554
68288W        W40713  40.983  24.001   4.885
68289W        W40714  36.122  21.691   1.862
68290W        W40715  11.672  38.552  11.991
68291W        W40716  17.808   2.380  12.484
68292W        W40717  17.505  39.965  10.721
68293W        W40718   5.452  13.959  14.176
68294W        W40719  42.358   1.839   5.065
68295W        W40720  13.839  23.296   2.825
68296W        W40721  12.376  12.269  13.345
68297W        W40722  30.015  36.800  14.243
68298W        W40723  33.920  21.748   4.862
68299W        W40724  38.285  16.161   3.265
68300W        W40725  39.080   7.358   4.047
68301W        W40726   1.437   7.756   3.239
68302W        W40727  26.752  10.099   3.070
68303W        W40728   1.821  34.349   2.232
68304W        W40729   4.393   4.748  13.027
68305W        W40730   4.314   2.278   2.695
68306W        W40731  34.590  33.140   4.176
68307W        W40732  32.002  42.323   3.284
68308W        W40733  28.815  11.605   3.411
68309W        W40734  31.015  38.799   0.350
68310W        W40735  17.190   2.398   5.463
68311W        W40736  32.479   3.510   3.888
68312W        W40737  12.442  39.890  11.732
68313W        W40738  10.287  18.624  14.365
68314W        W40739  17.114  15.054   1.880
68315W        W40740  29.005  26.822   5.105
68316W        W40741  23.956   3.781   2.852
68317W        W40742  10.840  29.606   2.607
68318W        W40743   9.854  41.881   4.639
68319W        W40744  20.281  34.331  11.596
68320W        W40745   6.178  42.087  12.950
68321W        W40746  23.193  31.514  12.104
68322W        W40747  37.090   5.704  14.968
68323W        W40748  34.835   9.754   4.396
68324W        W40749  44.355  36.022   1.808
68325W        W40750  11.931   1.031   3.136
68326W        W40751  39.757   4.341   4.360
68327W        W40752  42.615  36.916  11.050
68328W        W40753  41.143  17.618  14.091
68329W        W40754  22.249   8.461  13.873
68330W        W40755  20.607  44.429   0.455
68331W        W40756  24.983  15.315   4.131
68332W        W40757  23.488   8.381  12.143
68333W        W40758  23.244  22.172  14.993
68334W        W40759  16.250  33.524  12.007
68335W        W40760  27.691  31.250   3.146
68336W        W40761  29.738  12.671  11.469
68337W        W40762  32.318  33.900  13.547
68338W        W40763   6.030   7.790  12.508
68339W        W40764  27.859  27.529  11.683
68340W        W40765  22.440  38.893   2.631
68341W        W40766   6.655  14.976   0.316
68342W        W40767  16.066  31.904  11.141
68343W        W40768  38.300  39.339   1.374
68344W        W40769  14.803  40.130  13.878
68345W        W40770  34.825  39.075   0.759
68346W        W40771  31.905  38.919  12.828
68347W        W40772   1.151  16.410  11.618
68348W        W40773  25.440  29.926   2.655
68349W        W40774   3.429  18.732   3.312
68350W        W40775  29.889  26.466   4.157
68351W        W40776  23.462  20.222  11.652
68352W        W40777  26.015  12.230   0.207
68353W        W40778  14.233  21.957  11.217
68354W        W40779  12.146  39.791  13.164
68355W        W40780  36.149   2.082   1.629
68356W        W40781  11.097  12.687  11.110
68357W        W40782  11.248  34.034  13.778
68358W        W40783  40.297  32.250   1.724
68359W        W40784  37.810  35.798   1.332
68360W        W40785  33.413  44.358  13.703
68361W        W40786  31.377   5.365   3.931
68362W        W40787  25.520  26.507  13.791
68363W        W40788  26.948  14.563  13.538
68364W        W40789  34.426  42.735   3.125
68365W        W40790  38.556  16.005  11.107
68366W        W40791  36.307  40.040   3.640
68367W        W40792  27.153  28.185   2.308
68368W        W40793  26.002  36.489   1.236
68369W        W40794   2.706  44.957  13.558
68370W        W40795  16.672  31.639   2.610
68371W        W40796   6.828  38.846   3.417
68372W        W40797   9.400  20.852  10.639
68373W        W40798  32.271  43.548  14.961
68374W        W40799  38.973  32.648   4.532
68375W        W40800  22.863  23.594   2.605
68376W        W40801  22.055  34.684  12.805
68377W        W40802  41.957  15.705   1.715
68378W        W40803  25.199  36.009   9.826
68379W        W40804  28.112  22.532  10.309
68380W        W40805  38.777   8.771  11.693
68381W        W40806  18.580  11.547  12.409
68382W        W40807  14.336  29.491   2.809
68383W        W40808  17.479  19.606  14.417
68384W        W40809   2.489  44.614   2.312
68385W        W40810   5.252  38.112  14.399
68386W        W40811  20.334  18.692   1.431
68387W        W40812  19.928  27.171  10.682
68388W        W40813   0.922   8.256   3.741
68389W        W40814  28.103  31.025   1.652
68390W        W40815  36.476   2.860  13.930
68391W        W40816  10.890  40.974  11.626
68392W        W40817  41.319   1.329   4.280
68393W        W40818  23.913   8.803   5.401
68394W        W40819  41.963  12.096  12.382
68395W        W40820  38.337  30.917   0.772
68396W        W40821  11.830  14.207   1.991
68397W        W40822  38.677  13.079  10.091
68398W        W40823  28.627  19.090  14.495
68399W        W40824  23.539  31.329   3.779
68400W        W40825   4.466  41.838   0.094
68401W        W40826  28.849   3.705  14.309
68402W        W40827   1.291  27.920  12.387
68403W        W40828  32.426  39.924  14.555
68404W        W40829  38.002   5.703   4.646
68405W        W40830   8.278  34.212  13.396
68406W        W40831  24.338  17.381   2.094
68407W        W40832  30.670  18.041   0.961
68408W        W40833   9.117  19.713  13.048
68409W        W40834   0.291  20.702   3.647
68410W        W40835  24.242  35.668   4.751
68411W        W40836  30.040  10.004  13.371
68412W        W40837  21.991   2.202   4.404
68413W        W40838  42.871  42.412   3.345
68414W        W40839  24.577   1.844  12.086
68415W        W40840  26.519  31.904  10.670
68416W        W40841  26.690  25.727  10.791
68417W        W40842  14.174  17.985   3.645
68418W        W40843  11.306  12.560   0.476
68419W        W40844  15.767  18.894   1.553
68420W        W40845  22.031  26.683  14.320
68421W        W40846  34.972  37.573  13.414
68422W        W40847  40.404  41.522   4.020
68423W        W40848  28.168   3.318   2.925
68424W        W40849  26.945  41.989   4.107
68425W        W40850  44.385   2.058   3.710
68426W        W40851   1.096  38.155   0.206
68427W        W40852  25.567  12.953   4.007
68428W        W40853  20.408  10.511  12.714
68429W        W40854  36.095  33.955  11.404
68430W        W40855  11.928   6.819   3.338
68431W        W40856  37.255  40.028   0.784
68432W        W40857  25.829  17.505  14.355
68433W        W40858  38.477  37.442   3.586
68434W        W40859  14.122   2.309  13.936
68435W        W40860  41.270   0.919  12.663
68436W        W40861  29.825  13.050  10.253
68437W        W40862  38.876  21.235   3.350
68438W        W40863  12.751  24.650   2.192
68439W        W40864  42.350  11.146   4.086
68440W        W40865   6.949  29.503  11.107
68441W        W40866  28.028   3.697  14.711
68442W        W40867  38.806  37.219  11.008
68443W        W40868  40.888   9.670   4.586
68444W        W40869  17.351  43.694   3.913
68445W        W40870  14.304   4.137   4.097
68446W        W40871  21.779   3.856   4.239
68447W        W40872  29.161  37.602   2.410
68448W        W40873  15.010  19.666   2.654
68449W        W40874  34.017   9.642   3.871
68450W        W40875  35.213  42.963   0.832
68451W        W40876  39.608  10.848   1.740
68452W        W40877  43.395  21.021  10.530
68453W        W40878  42.976  42.704  12.529
68454W        W40879  28.445  28.653   0.026
68455W        W40880   7.323  33.361   1.812
68456W        W40881  44.961   9.692   4.133
68457W        W40882   0.949  41.351  11.491
68458W        W40883  12.182  40.282  11.482
68459W        W40884  32.066  17.092   3.779
68460W        W40885   4.426   7.413   0.946
68461W        W40886  30.390  24.727   4.671
68462W        W40887  41.432  36.790  11.485
68463W        W40888  20.804  13.231  11.555
68464W        W40889   3.234   2.005   3.771
68465W        W40890  40.050  31.037   3.700
68466W        W40891  12.317   5.282   2.264
68467W        W40892  19.756  44.977   1.313
68468W        W40893  23.109   4.132  13.647
68469W        W40894  17.653   3.240   1.377
68470W        W40895  42.056  40.366   3.261
68471W        W40896  14.180  29.970   2.709
68472W        W40897  33.626  30.021   0.855
68473W        W40898   7.670   0.812   5.040
68474W        W40899  25.172  43.954   3.082
68475W        W40900  18.813   3.263   4.664
68476W        W40901  15.351  36.904  14.784
68477W        W40902  31.494  33.903  11.630
68478W        W40903  43.400  17.769   4.488
68479W        W40904  37.347  23.603   1.470
68480W        W40905  39.431  27.956  10.514
68481W        W40906   4.711  14.744   2.445
68482W        W40907   0.844  33.662  14.302
68483W        W40908  39.347  14.973   1.829
68484W        W40909  31.561  30.322   0.148
68485W        W40910  12.720  44.906   2.207
68486W        W40911   8.174  33.201  11.060
68487W        W40912  15.693   3.856  10.763
68488W        W40913  38.633  25.068  14.959
68489W        W40914  18.528  23.220  10.609
68490W        W40915  43.251  10.040   2.115
68491W        W40916  22.542  13.170   2.685
68492W        W40917   9.150  19.324   2.142
68493W        W40918  19.117   3.809  13.947
68494W        W40919   4.810   3.952  14.507
68495W        W40920  27.195  44.716  12.041
68496W        W40921   9.924  12.738   0.791
68497W        W40922  41.936  39.196  12.885
68498W        W40923  23.889  29.453  11.119
68499W        W40924  16.346  23.707   4.813
68500W        W40925  12.256  38.935   4.064
68501W        W40926  16.707  24.548  10.672
68502W        W40927  12.654  44.750   0.811
68503W        W40928  15.574  27.953  12.684
68504W        W40929  29.034   5.944  14.144
68505W        W40930  15.801   5.588   2.346
68506W        W40931  18.154  25.041   0.932
68507W        W40932   6.012  16.983   3.722
68508W        W40933   4.882  32.037   5.013
68509W        W40934  39.422  19.038   1.725
68510W        W40935  13.912  19.619  10.384
68511W        W40936  31.951  28.012   4.632
68512W        W40937  35.133   9.135  14.489
68513W        W40938  36.031  33.417   1.281
68514W        W40939  42.171   4.699  12.059
68515W        W40940  14.230   6.150   0.627
68516W        W40941  25.420   7.839  11.594
68517W        W40942   6.889  44.227  12.021
68518W        W40943  25.117  10.409  12.460
68519W        W40944  35.572  31.950  12.958
68520W        W40945  34.517  28.272  12.055
68521W        W40946  19.675  13.988   2.257
68522W        W40947  32.049  13.635   0.878
68523W        W40948  33.827  34.523   0.900
68524W        W40949  19.021  42.747  13.904
68525W        W40950  34.912  26.919  13.729
68526W        W40951  38.349  44.202   1.749
68527W        W40952   8.903  25.960  14.244
68528W        W40953   1.185   6.953  13.840
68529W        W40954  42.559  41.362  13.050
68530W        W40955   6.014  21.479  13.351
68531W        W40956  38.827  14.675   0.979
68532W        W40957  24.208  17.514  13.898
68533W        W40958  28.381  23.415  13.327
68534W        W40959  43.333  21.143   2.068
68535W        W40960  29.465   1.010  10.697
68536W        W40961   1.562  39.128  11.090
68537W        W40962  42.987   0.720   9.882
68538W        W40963  24.389  29.206  13.127
68539W        W40964   0.778  11.063   2.322
68540W        W40965  25.436   0.762  14.415
68541W        W40966  33.540  31.138  11.658
68542W        W40967  26.109  25.293   0.217
68543W        W40968   4.263  30.634   1.186
68544W        W40969   6.675  10.742  13.389
68545W        W40970   2.557  43.521  14.831
68546W        W40971   3.289  34.384  14.065
68547W        W40972  32.450  27.032  13.034
68548W        W40973  42.912  38.374  12.360
68549W        W40974  31.086   3.744   2.004
68550W        W40975   5.241  32.516  13.733
68551W        W40976  42.387  29.335   4.948
68552W        W40977  34.848  41.816   4.903
68553W        W40978  10.854   2.854   2.295
68554W        W40979  36.195  27.556  14.137
68555W        W40980  30.285  11.698   0.459
68556W        W40981  40.801  10.089  11.565
68557W        W40982  32.026   3.696   2.321
68558W        W40983  39.902  25.096   0.775
68559W        W40984  11.676   1.192  11.064
68560W        W40985  29.099  28.119  13.996
68561W        W40986  15.335   1.174  11.975
68562W        W40987  43.508  12.101  10.653
68563W        W40988  34.530  38.383  10.740
68564W        W40989  33.599  11.037  10.925
68565W        W40990   4.727  32.387   0.489
68566W        W40991   8.316  15.016  13.128
68567W        W40992  43.857   4.216  13.523
68568W        W40993   3.788  37.585  11.493
68569W        W40994  26.003  11.320   3.767
68570W        W40995  39.332  37.636  11.183
68571W        W40996  26.268  22.583   4.257
68572W        W40997  28.717  34.742   0.890
68573W        W40998  10.331  36.158  14.430
68574W        W40999  12.920  43.389   4.133
68575W        W41000  29.647  22.937  14.628
68576W        W41001  12.909  12.572  14.932
68577W        W41002   9.873  35.860  13.773
68578W        W41003  25.597  14.239   1.810
68579W        W41004   4.288  19.470   3.008
68580W        W41005  36.691   4.367   3.252
68581W        W41006  14.240  23.075  11.137
68582W        W41007  23.172   5.343  12.507
68583W        W41008  26.669  29.594   1.516
68584W        W41009  11.719  15.113   0.935
68585W        W41010  15.063  12.718  14.973
68586W        W41011  11.405   6.679   3.312
68587W        W41012  21.046  19.146  10.552
68588W        W41013  18.985  15.731  11.595
68589W        W41014  42.583  32.659   0.840
68590W        W41015  12.247  36.377   1.798
68591W        W41016   5.450  24.566  13.170
68592W        W41017  13.027  30.620   2.725
68593W        W41018  29.174  27.680  11.974
68594W        W41019  35.887  26.965   0.261
68595W        W41020  17.659  31.716   5.053
68596W        W41021  20.720  37.662  14.291
68597W        W41022  19.005   9.290   1.943
68598W        W41023  17.831  27.990   2.363
68599W        W41024  17.075   3.739   3.249
68600W        W41025   2.668  28.418   1.493
68601W        W41026  30.034  13.170  13.116
68602W        W41027  23.281  15.798   0.488
68603W        W41028  36.352  21.197   1.706
68604W        W41029  39.091  25.077   3.290
68605W        W41030   6.592  13.770   2.824
68606W        W41031   5.113  40.849  10.513
68607W        W41032  30.502  22.635  14.389
68608W        W41033   6.707   7.294   1.680
68609W        W41034  32.310  28.598   1.552
68610W        W41035  43.841  24.473   4.606
68611W        W41036  31.117  18.155   1.872
68612W        W41037   0.248  20.927  13.123
68613W        W41038  24.272  13.169   2.730
68614W        W41039  42.192  32.156  12.053
68615W        W41040  15.165  28.000   5.017
68616W        W41041  17.110  43.742  12.051
68617W        W41042  21.973   7.870  12.496
68618W        W41043  28.391  18.968   2.282
68619W        W41044  16.742   0.005  10.249
68620W        W41045  28.614  41.766  12.884
68621W        W41046   6.442  40.502   4.175
68622W        W41047  33.651  22.041  13.964
68623W        W41048  34.905  29.310  10.010
68624W        W41049  24.467  24.876  14.284
68625W        W41050  17.722  28.620  12.899
68626W        W41051  10.897  35.910   0.986
68627W        W41052  32.977  39.778   1.712
68628W        W41053  44.872   6.203  12.648
68629W        W41054  24.288  31.606  13.808
68630W        W41055   1.129  15.312   0.259
68631W        W41056  29.211  11.781   3.810
68632W        W41057  25.468  11.577   1.248
68633W        W41058   0.277  32.695  12.220
68634W        W41059  29.063  10.168  11.475
68635W        W41060  20.012  21.723   2.439
68636W        W41061  22.607  28.830  13.099
68637W        W41062  16.449   3.743  11.124
68638W        W41063  43.814  34.532  12.720
68639W        W41064   0.298   0.082   3.987
68640W        W41065  29.691  28.644  10.633
68641W        W41066  32.077  27.996  10.677
68642W        W41067  26.432  40.280   0.293
68643W        W41068  23.267   6.087  14.500
68644W        W41069  24.186   5.278  12.376
68645W        W41070  10.841  17.112   0.981
68646W        W41071   2.708   6.886   4.055
68647W        W41072  10.831  33.446  11.620
68648W        W41073  31.513  26.548  12.340
68649W        W41074  24.656  13.265   0.684
68650W        W41075   9.857  44.701   4.157
68651W        W41076  37.608   2.199   0.471
68652W        W41077  27.213  41.050   2.100
68653W        W41078   5.060  25.309   3.671
68654W        W41079  32.849  39.974  14.273
68655W        W41080  24.151   1.118  10.107
68656W        W41081  33.324   6.761   1.410
68657W        W41082   7.507  24.764   1.787
68658W        W41083   6.347   1.182  11.077
68659W        W41084  34.234   5.858   2.245
68660W        W41085  16.112  21.647  13.664
68661W        W41086  30.342  14.914   4.228
68662W        W41087  18.977  30.535  14.992
68663W        W41088   3.401   8.017   1.375
68664W        W41089  19.011  14.167   4.186
68665W        W41090  43.591  34.390   3.674
68666W        W41091   8.260   0.855   4.128
68667W        W41092   3.540   4.089  12.006
68668W        W41093   0.314  25.249  13.450
68669W        W41094  44.099   0.671   0.912
68670W        W41095  13.559   0.424  11.102
68671W        W41096  29.004  16.751   2.369
68672W        W41097  36.324  33.355   2.890
68673W        W41098   2.784  42.205   4.164
68674W        W41099  30.392  38.380  12.693
68675W        W41100  22.393  17.004  11.021
68676W        W41101  12.391  26.989  13.941
68677W        W41102  43.195  15.625   3.648
68678W        W41103   7.350  37.399   5.503
68679W        W41104   2.028   9.397   3.655
68680W        W41105  41.897  37.097   3.165
68681W        W41106  13.454  41.129   4.467
68682W        W41107  19.674  42.070   3.445
68683W        W41108  34.767   4.817   2.426
68684W        W41109   3.924  39.263   0.885
68685W        W41110  43.357  12.762   3.132
68686W        W41111  36.826  20.746  14.254
68687W        W41112  23.252   5.922   3.221
68688W        W41113  11.162  31.387  11.584
68689W        W41114  27.742  25.263  12.723
68690W        W41115   0.762  15.613   0.956
68691W        W41116  27.038  24.111  14.928
68692W        W41117   6.753  18.813   2.274
68693W        W41118  40.304  33.149   1.301
68694W        W41119  23.080  14.088  11.311
68695W        W41120  43.448  15.107  13.944
68696W        W41121   1.429  17.373   3.730
68697W        W41122  11.748  27.990   1.299
68698W        W41123  33.683  14.255   0.399
68699W        W41124   8.918  43.961   2.836
68700W        W41125  27.463   5.471   2.365
68701W        W41126  30.817  41.260  11.258
68702W        W41127  34.806  14.087  13.836
68703W        W41128  32.439  43.662   2.184
68704W        W41129  19.661  12.347  14.531
68705W        W41130  40.911  27.926  14.313
68706W        W41131  36.211   4.449   3.443
68707W        W41132  26.554  23.116  11.954
68708W        W41133  15.672  38.423   1.822
68709W        W41134  44.409  34.680   3.233
68710W        W41135  17.423  32.864  11.636
68711W        W41136   4.330   6.915  12.113
68712W        W41137  12.730  19.276  12.412
68713W        W41138  18.257  24.716  13.579
68714W        W41139  28.313  10.707   3.576
68715W        W41140  22.214  26.286   0.240
68716W        W41141  33.054  43.837   3.140
68717W        W41142  39.565  27.525   2.880
68718W        W41143  30.549  23.991  14.341
68719W        W41144   7.724  16.842   1.703
68720W        W41145  28.183  35.495   2.655
68721W        W41146   3.836   1.213  11.659
68722W        W41147  41.116  21.574  12.522
68723W        W41148  44.553  37.318   9.874
68724W        W41149  36.658   6.226   1.280
68725W        W41150  31.050  26.442  13.863
68726W        W41151  42.030  26.916  10.683
68727W        W41152  43.208  31.476   1.183
68728W        W41153  20.739   9.723   1.784
68729W        W41154  11.817   5.443  14.832
68730W        W41155   8.419   9.305  13.448
68731W        W41156  18.668  21.113  10.418
68732W        W41157  41.835   4.288  13.958
68733W        W41158   8.833  32.654   0.248
68734W        W41159   7.275  24.937  13.437
68735W        W41160  39.520   6.957  13.018
68736W        W41161  40.832  19.503  10.496
68737W        W41162  10.776   9.425   5.076
68738W        W41163  26.419   6.289  11.114
68739W        W41164  34.406  32.497  11.972
68740W        W41165  33.903   4.756  11.180
68741W        W41166  38.227  43.937  13.473
68742W        W41167  24.777  11.320  11.129
68743W        W41168  25.217  36.134  11.821
68744W        W41169  32.118  36.895   4.361
68745W        W41170  16.018  17.042   0.373
68746W        W41171   7.633  33.092   2.793
68747W        W41172  11.914  30.151   3.344
68748W        W41173  33.071  11.935  10.611
68749W        W41174  19.283  25.629  14.079
68750W        W41175   7.388  39.890   4.413
68751W        W41176   5.191  15.318   0.364
68752W        W41177  15.979  17.118  11.260
68753W        W41178  41.718   3.657  10.621
68754W        W41179  41.407  38.415  14.645
68755W        W41180  43.075   0.749   3.240
68756W        W41181   5.401  23.988   4.609
68757W        W41182  24.942  19.663  11.855
68758W        W41183  42.552   5.853   4.131
68759W        W41184  17.584  25.590   2.944
68760W        W41185  33.523   5.724   3.460
68761W        W41186  39.316  10.739  11.048
68762W        W41187  11.152  29.757   4.665
68763W        W41188  11.814  29.003  10.767
68764W        W41189  28.530  37.364   0.399
68765W        W41190   2.594   3.588  13.092
68766W        W41191  16.459  42.760   3.684
68767W        W41192  15.607  36.661   3.346
68768W        W41193  27.894  19.157   1.057
68769W        W41194  22.645  43.018  10.543
68770W        W41195  35.452  28.083   1.558
68771W        W41196   7.062  38.328  14.020
68772W        W41197   5.769  23.525   4.195
68773W        W41198  33.024  18.030  12.418
68774W        W41199  39.944  18.255   3.980
68775W        W41200  15.784  25.496  12.221
68776W        W41201  16.205  10.391   2.592
68777W        W41202  36.002  19.091   1.188
68778W        W41203  27.031  42.690  10.675
68779W        W41204   3.007   8.067   2.322
68780W        W41205   5.517  17.128   3.772
68781W        W41206  33.472   5.898   2.957
68782W        W41207  37.606  11.439   0.918
68783W        W41208  15.146  15.279  12.878
68784W        W41209  31.226   1.956   2.946
68785W        W41210   3.931  28.394   1.830
68786W        W41211  12.690  38.515   2.903
68787W        W41212  30.418  22.313   3.734
68788W        W41213  21.499  28.884   1.292
68789W        W41214   3.171  38.384   2.200
68790W        W41215  16.152   1.513  10.000
68791W        W41216  35.646  10.876  12.531
68792W        W41217  43.428  30.514   1.968
68793W        W41218  38.987   4.448  12.522
68794W        W41219  24.694  42.627   3.650
68795W        W41220  38.296  37.732   1.235
68796W        W41221  37.809  11.688  12.004
68797W        W41222  21.173  43.547  11.895
68798W        W41223   9.121  20.810  11.631
68799W        W41224  35.915  15.707  13.791
68800W        W41225  41.333  20.571   1.390
68801W        W41226  25.992  25.191   2.669
68802W        W41227  32.967  31.700  11.553
68803W        W41228   1.894  41.340   2.594
68804W        W41229  24.680  10.123  12.486
68805W        W41230  14.710   8.052   1.702
68806W        W41231  31.929   9.404   4.940
68807W        W41232  22.522  22.954   3.173
68808W        W41233  20.009  40.313   1.826
68809W        W41234   3.856   8.359   2.386
68810W        W41235  20.465  22.711   4.665
68811W        W41236  30.403  39.588  12.799
68812W        W41237   5.778   8.769  12.504
68813W        W41238  28.240   9.938   5.081
68814W        W41239  38.555   6.728  14.158
68815W        W41240   7.004  39.756   4.772
68816W        W41241  12.100  35.332   4.587
68817W        W41242  12.638   1.775  10.550
68818W        W41243  41.846   8.826   4.004
68819W        W41244   2.388  39.397  10.681
68820W        W41245  30.350  12.226   3.119
68821W        W41246  21.449  35.745  11.644
68822W        W41247  39.000  33.325  14.331
68823W        W41248  34.163   5.526  14.482
68824W        W41249  16.050  23.737  12.079
68825W        W41250  35.835  25.540  12.330
68826W        W41251   4.687  28.010  10.026
68827W        W41252  17.271  23.309   1.527
68828W        W41253  19.486  18.514   4.954
68829W        W41254  40.088  40.098   2.173
68830W        W41255  16.641  31.920   4.915
68831W        W41256  40.746  31.340  14.537
68832W        W41257  23.771  10.834  13.983
68833W        W41258  26.567  34.364  10.553
68834W        W41259  22.256  28.961   3.709
68835W        W41260   5.859  18.907  12.507
68836W        W41261  33.126  21.974  14.069
68837W        W41262   4.032  32.573  10.808
68838W        W41263  39.158  32.674   0.513
68839W        W41264  15.868   1.425  12.857
68840W        W41265   5.307   6.246  12.009
68841W        W41266  27.028   8.253   3.869
68842W        W41267  39.363   1.228   0.372
68843W        W41268  36.490  34.954   1.874
68844W        W41269  38.843  17.714  13.090
68845W        W41270  23.124   4.926   0.973
68846W        W41271   2.179  38.922  10.454
68847W        W41272  26.469  28.793  11.176
68848W        W41273  26.398  39.827   2.858
68849W        W41274  20.996  22.236   1.268
68850W        W41275  15.363   8.626   1.777
68851W        W41276   3.422  42.052  11.376
68852W        W41277  28.911  30.454   0.037
68853W        W41278  21.619   5.559  10.746
68854W        W41279  44.711  44.889   2.366
68855W        W41280  20.153  34.666  11.223
68856W        W41281   1.554  12.667   1.979
68857W        W41282  38.553   7.897  10.944
68858W        W41283  40.338  26.747  14.612
68859W        W41284  35.040  12.094   0.967
68860W        W41285  13.169  40.161   2.063
68861W        W41286  22.899  33.157  10.183
68862W        W41287  32.015   6.639  12.591
68863W        W41288  15.170  28.872   3.773
68864W        W41289   8.714  26.525   5.112
68865W        W41290   3.692  31.027  13.370
68866W        W41291  16.506  21.469  10.667
68867W        W41292   9.911   4.818  13.942
68868W        W41293  12.248  13.121   4.159
68869W        W41294  27.097  44.405  13.059
68870W        W41295  28.827  10.662  13.115
68871W        W41296  10.139  15.772  11.926
68872W        W41297  36.542  11.786  14.073
68873W        W41298  19.520  12.811  14.743
68874W        W41299  36.979  32.975  12.992
68875W        W41300  13.935  14.673  13.535
68876W        W41301  40.238  35.916   3.411
68877W        W41302  17.037  13.719   0.918
68878W        W41303  36.256   8.767  11.725
68879W        W41304  38.958  37.620   3.561
68880W        W41305  23.260  39.215   3.572
68881W        W41306  17.188   3.601  12.305
68882W        W41307   0.317  43.699   3.922
68883W        W41308  18.282  11.812  10.732
68884W        W41309  41.356  38.300  10.379
68885W        W41310  27.939  15.433   0.947
68886W        W41311  27.735  43.992  12.040
68887W        W41312  38.526  23.040  10.142
68888W        W41313  15.924  38.447   3.635
68889W        W41314  31.034  43.923   1.533
68890W        W41315   3.505  27.166   4.593
68891W        W41316  20.189  27.557  14.480
68892W        W41317  26.422  27.017   2.198
68893W        W41318   8.856  31.050   3.206
68894W        W41319  37.462  14.784  10.393
68895W        W41320  19.586  23.751   3.270
68896W        W41321  23.467  25.701  14.046
68897W        W41322  27.897  40.543   0.984
68898W        W41323  28.115   7.511  10.268
68899W        W41324  38.266   2.376   4.122
68900W        W41325  33.256  11.681  13.934
68901W        W41326  22.018  15.228  14.975
68902W        W41327  13.369  13.465   4.119
68903W        W41328  15.553   9.397  11.957
68904W        W41329  35.915  26.602   3.340
68905W        W41330  25.513  18.715  13.039
68906W        W41331   1.094  29.437  12.909
68907W        W41332  23.486  10.692   4.142
68908W        W41333  42.433  30.538   4.307
68909W        W41334  21.339  14.078  12.826
68910W        W41335  24.335  29.698  12.059
68911W        W41336  39.575  17.461  12.177
68912W        W41337  18.617  42.885   2.267
68913W        W41338  29.732  38.382   4.531
68914W        W41339  10.555  18.774   0.737
68915W        W41340   4.426  30.048   2.334
68916W        W41341  37.431   7.868  11.568
68917W        W41342  40.294   5.789   0.801
68918W        W41343  31.093  18.597  13.304
68919W        W41344  38.602   5.237  11.657
68920W        W41345  13.127  27.021  12.791
68921W        W41346  31.053  37.616   1.417
68922W        W41347   2.859  11.904   4.743
68923W        W41348  36.638  16.914   1.433
68924W        W41349  28.908  11.837  11.568
68925W        W41350  36.121   1.813  13.944
68926W        W41351  38.790  16.509   2.789
68927W        W41352  39.991   2.745  12.504
68928W        W41353  13.834  23.066  10.824
68929W        W41354   2.409  16.270  11.944
68930W        W41355   9.791  23.685  13.285
68931W        W41356  31.852   4.180   2.260
68932W        W41357  10.708  29.958   0.777
68933W        W41358  32.010  11.796  10.660
68934W        W41359  41.013  34.333  11.123
68935W        W41360  30.134  25.003   0.929
68936W        W41361  18.660  34.834  14.030
68937W        W41362   6.930   0.690   2.146
68938W        W41363  14.265  31.953  10.611
68939W        W41364  11.366  43.696   1.411
68940W        W41365  34.891  23.960   1.030
68941W        W41366  14.033  20.224  14.259
68942W        W41367   7.614  37.502   2.351
68943W        W41368   9.659  33.011  10.930
68944W        W41369   6.063  43.071   1.136
68945W        W41370  34.046  33.912  13.994
68946W        W41371  17.714  15.051  11.379
68947W        W41372  30.579  28.142   4.262
68948W        W41373  31.688  14.179  10.619
68949W        W41374  39.433  32.958  12.475
68950W        W41375  26.149   2.838   4.335
68951W        W41376  27.063  29.231  14.936
68952W        W41377  42.994  29.243   2.864
68953W        W41378  35.084  20.969   4.655
68954W        W41379  12.205   4.727  11.098
68955W        W41380  37.176  27.239   3.648
68956W        W41381  14.046  19.706   2.290
68957W        W41382   3.827  14.755  11.591
68958W        W41383   8.731  16.054   0.754
68959W        W41384   6.191  42.448  13.366
68960W        W41385  44.426  27.227  14.529
68961W        W41386  18.981   1.768   2.284
68962W        W41387  10.841  21.770  14.828
68963W        W41388  24.065   1.707  13.691
68964W        W41389   8.958  11.130  14.150
68965W        W41390  34.995  23.808  13.868
68966W        W41391  26.082  39.989   4.373
68967W        W41392  35.914  24.491   3.296
68968W        W41393   3.889  29.958   1.182
68969W        W41394  33.544  12.851  14.120
68970W        W41395  45.000  29.095   2.932
68971W        W41396  16.885   8.338  10.467
68972W        W41397  18.714  43.844   2.296
68973W        W41398  14.268  31.152   0.260
68974W        W41399  37.397  41.597  10.635
68975W        W41400  13.699  24.817  13.081
68976W        W41401  18.925  21.155   0.583
68977W        W41402   6.995  17.725   2.326
68978W        W41403   7.218  16.384  12.039
68979W        W41404   0.285   5.936  12.037
68980W        W41405  32.859   0.532   1.440
68981W        W41406  24.514  32.636   1.238
68982W        W41407  24.439  14.702  13.873
68983W        W41408   7.007  17.361   1.030
68984W        W41409  39.322  43.082  14.933
68985W        W41410   5.245  16.583  10.370
68986W        W41411   6.443  19.140  10.675
68987W        W41412  39.250   8.239  12.041
68988W        W41413   7.848  12.399   0.352
68989W        W41414  22.734  30.886  11.528
68990W        W41415  34.449  29.218  14.845
68991W        W41416  38.471  25.003   0.458
68992W        W41417  26.664  45.000   1.941
68993W        W41418  21.996  28.123  13.365
68994W        W41419  44.243  25.238   4.128
68995W        W41420  32.079  13.332  14.241
68996W        W41421   7.230   9.174   2.918
68997W        W41422  30.629  35.255   3.321
68998W        W41423  18.237  14.806   4.165
68999W        W41424  16.161   2.867   3.702
69000W        W41425  25.484  14.106  12.052
69001W        W41426  22.316  34.051   1.164
69002W        W41427   2.241   7.581   0.903
69003W        W41428  21.732  29.627   4.215
69004W        W41429  15.882  23.387   2.168
69005W        W41430  26.063  12.372   4.619
69006W        W41431  44.588  31.991  13.370
69007W        W41432  31.639   7.366   2.327
69008W        W41433  37.057   2.931  11.982
69009W        W41434  17.608  35.595  12.993
69010W        W41435  32.907  38.052   4.646
69011W        W41436  36.493   3.787   2.808
69012W        W41437  39.564  29.290  11.617
69013W        W41438  39.831  34.862  10.712
69014W        W41439   5.321  27.717   3.866
69015W        W41440  30.418  28.490  13.397
69016W        W41441  30.056   0.054   0.399
69017W        W41442  15.698   5.828  14.462
69018W        W41443  37.780  38.402  11.605
69019W        W41444  32.178  22.176   4.834
69020W        W41445  28.644  29.704  11.093
69021W        W41446  23.256  12.243   1.311
69022W        W41447   0.538  34.520  10.890
69023W        W41448  28.516  33.332   3.730
69024W        W41449  27.885  35.885  10.237
69025W        W41450  35.833  39.018   1.652
69026W        W41451  15.834  24.240  12.937
69027W        W41452  31.597  17.299   3.654
69028W        W41453  16.672  44.822  10.770
69029W        W41454   6.236  38.373  11.488
69030W        W41455  42.898   4.864  14.429
69031W        W41456  11.610  30.167  12.877
69032W        W41457   9.231  12.157  14.946
69033W        W41458  41.770  11.291  11.853
69034W        W41459  34.698   5.351   1.177
69035W        W41460  10.265  31.702   3.141
69036W        W41461  15.518  21.172  10.635
69037W        W41462  14.244  19.916   0.762
69038W        W41463  26.455  20.258  12.467
69039W        W41464  10.038  28.143   0.747
69040W        W41465   0.176  23.065  13.377
69041W        W41466   6.887  36.220  10.239
69042W        W41467  28.730  21.696   0.321
69043W        W41468   1.379  25.472   2.420
69044W        W41469  14.681  39.349   0.466
69045W        W41470  20.047  20.944  12.999
69046W        W41471  37.759   1.681   3.572
69047W        W41472  31.658  16.059  13.570
69048W        W41473  28.592  20.653   3.834
69049W        W41474  34.391   0.775   2.206
69050W        W41475  24.015  17.192   0.115
69051W        W41476   5.664   8.845   2.168
69052W        W41477  28.446  16.123  14.501
69053W        W41478  32.987  18.688   5.449
69054W        W41479  41.557  18.599  14.900
69055W        W41480   1.502  29.155  10.763
69056W        W41481  16.747   6.265   1.952
69057W        W41482  38.325  27.552  12.087
69058W        W41483  14.336   7.398  10.695
69059W        W41484  15.635  27.584  11.340
69060W        W41485  23.965  44.875   4.681
69061W        W41486  13.456  11.573  10.553
69062W        W41487  30.381  24.989   2.586
69063W        W41488   8.107  14.852   3.583
69064W        W41489   6.906  41.862  11.192
69065W        W41490  20.823  27.167  12.844
69066W        W41491  35.914   6.393   4.815
69067W        W41492  22.231   8.366  12.988
69068W        W41493  21.632  21.039  11.410
69069W        W41494   1.394  43.325   2.671
69070W        W41495  44.160  34.369  14.876
69071W        W41496  19.259  33.619  14.372
69072W        W41497  31.120  34.068   3.932
69073W        W41498  11.334  35.429  12.528
69074W        W41499   7.716  24.567   4.747
69075W        W41500  28.678  26.101   2.786
69076W        W41501   7.826  27.728   1.963
69077W        W41502  15.212  18.611  11.290
69078W        W41503  12.928  17.603  14.534
69079W        W41504  18.777  32.114   0.544
69080W        W41505  16.009  26.007   1.972
69081W        W41506  25.870  21.251   2.216
69082W        W41507  19.057  37.842  13.816
69083W        W41508  40.521  13.190   0.431
69084W        W41509  39.396  36.860  12.937
69085W        W41510  35.325  23.285   2.961
69086W        W41511   1.814  25.180   2.339
69087W        W41512  32.894  13.269  11.367
69088W        W41513  34.956  15.652   3.648
69089W        W41514  36.509   2.969   5.289
69090W        W41515  31.510   2.339  14.933
69091W        W41516  21.543  28.368   1.269
69092W        W41517  31.470  17.153  10.648
69093W        W41518  30.713  42.227   2.764
69094W        W41519  41.182  24.491  11.553
69095W        W41520  33.652  21.566  10.422
69096W        W41521  20.724   6.810   3.627
69097W        W41522  25.409  19.022   4.527
69098W        W41523  38.253  20.192  13.518
69099W        W41524   9.472   5.133  14.301
69100W        W41525  18.794  29.776   0.824
69101W        W41526  11.717  40.852  13.995
69102W        W41527   3.275  30.655   1.255
69103W        W41528  38.842  27.600  10.776
69104W        W41529  39.437   2.859   2.881
69105W        W41530  36.068  35.073   2.143
69106W        W41531  44.250  35.345  14.770
69107W        W41532  35.691   9.623  14.996
69108W        W41533  27.694   9.303   2.955
69109W        W41534  13.220  29.925   1.272
69110W        W41535  43.083   2.353   4.060
69111W        W41536   0.348  44.972  12.431
69112W        W41537  34.417  11.042   4.533
69113W        W41538  29.499  32.018  14.405
69114W        W41539  25.727  34.865  13.024
69115W        W41540   3.411  36.385   3.327
69116W        W41541  28.315   4.763   0.392
69117W        W41542  41.885   3.633   3.253
69118W        W41543  21.674   8.599   3.578
69119W        W41544  22.786  20.107  14.163
69120W        W41545  19.022   5.304   3.602
69121W        W41546  14.812  20.234  10.644
69122W        W41547  28.587  21.268   4.086
69123W        W41548  27.630  15.256  13.833
69124W        W41549  19.994   9.179  10.456
69125W        W41550  44.776  21.197   0.448
69126W        W41551  29.576  16.813   9.958
69127W        W41552   8.184  37.253  13.771
69128W        W41553  34.860   2.786  14.409
69129W        W41554  26.968  41.732   0.318
69130W        W41555   9.376  17.653   4.513
69131W        W41556  16.607   5.256   2.238
69132W        W41557  43.178  32.547  12.028
69133W        W41558  13.168  13.206  11.806
69134W        W41559  41.757  34.361   4.631
69135W        W41560  43.755   1.064   0.944
69136W        W41561   3.607  32.615  14.863
69137W        W41562  11.061  43.753   2.311
69138W        W41563  44.638  31.047   1.936
69139W        W41564  13.258  22.020   4.585
69140W        W41565  23.289  11.312   5.067
69141W        W41566  32.891   5.442  14.862
69142W        W41567   3.986  25.067   3.152
69143W        W41568  24.682   7.388   3.532
69144W        W41569  13.317  29.157  14.255
69145W        W41570  12.087  32.997  11.394
69146W        W41571   4.491  40.507   2.404
69147W        W41572  22.493  36.465  14.058
69148W        W41573  43.626  12.695   3.569
69149W        W41574   0.936  38.382   1.975
69150W        W41575  21.106  22.201  11.564
69151W        W41576   9.360  38.811   1.754
69152W        W41577   8.766  16.056   2.564
69153W        W41578  40.643   5.805   4.163
69154W        W41579   4.721  27.406  12.427
69155W        W41580   4.430  42.438  14.758
69156W        W41581  43.441  31.949   0.514
69157W        W41582  35.022  24.504  10.865
69158W        W41583  15.576   1.818  12.617
69159W        W41584  30.227  20.650  11.354
69160W        W41585  32.370  29.161  12.876
69161W        W41586  22.752  19.204   0.271
69162W        W41587   1.624  13.166   2.129
69163W        W41588  43.623   4.468   2.652
69164W        W41589  42.680  24.276  13.067
69165W        W41590  36.814  37.503  11.418
69166W        W41591  19.958  23.506   3.602
69167W        W41592   9.894   4.463  11.997
69168W        W41593  17.424  17.903   2.614
69169W        W41594  33.330  14.772   0.908
69170W        W41595  11.124  19.068   3.164
69171W        W41596  27.042   4.864   4.273
69172W        W41597   8.751  15.380   3.138
69173W        W41598  43.755  35.123   3.723
69174W        W41599  37.859  14.039  10.575
69175W        W41600   5.661   9.296   3.599
69176W        W41601  23.932  10.775  13.510
69177W        W41602  18.866  32.939  12.498
69178W        W41603  44.264   1.896  13.515
69179W        W41604  14.594  11.536  11.065
69180W        W41605  19.795  37.397  13.606
69181W        W41606  17.234  35.370   1.744
69182W        W41607  37.133  11.157   2.878
69183W        W41608   1.650  10.280  10.674
69184W        W41609  15.297   1.819  14.510
69185W        W41610  21.686  10.986   0.259
69186W        W41611  23.714  23.555  13.990
69187W        W41612   5.162  18.370   1.242
69188W        W41613  20.811  16.768   4.139
69189W        W41614  29.278  10.624   1.104
69190W        W41615  38.876  32.570  10.922
69191W        W41616  44.522  43.835  12.794
69192W        W41617  12.757  19.058  13.972
69193W        W41618  43.722  22.144  10.779
69194W        W41619  22.198  42.257   1.280
69195W        W41620  22.993  19.736   3.762
69196W        W41621  24.982   6.235  13.373
69197W        W41622  15.230  33.389   3.431
69198W        W41623   4.917  43.023   3.560
69199W        W41624   7.462   1.289  14.334
69200W        W41625  32.915  37.272  14.795
69201W        W41626  35.966  40.783  13.636
69202W        W41627  24.148  23.630  13.691
69203W        W41628   5.918  34.138   3.734
69204W        W41629   2.229  10.805  12.623
69205W        W41630  33.040  24.071  12.411
69206W        W41631   1.182   9.337  13.038
69207W        W41632   2.711  39.063  11.911
69208W        W41633  41.591  41.948  13.265
69209W        W41634  19.592  16.880  12.189
69210W        W41635  17.729  16.297   0.531
69211W        W41636  21.140   4.452  12.747
69212W        W41637  32.206  19.099   5.033
69213W        W41638   3.496  40.626  13.979
69214W        W41639  27.313  25.110  12.392
69215W        W41640  25.650  29.635   3.028
69216W        W41641  42.952  33.030   4.052
69217W        W41642  43.286  11.660   4.548
69218W        W41643  34.620  38.096   3.652
69219W        W41644  12.648  31.491   3.118
69220W        W41645   9.877  20.598   4.124
69221W        W41646   6.815  30.476  14.688
69222W        W41647  13.938  11.993  11.272
69223W        W41648  39.063  23.737  11.104
69224W        W41649  25.499  35.546   2.135
69225W        W41650  13.275  18.054   0.092
69226W        W41651  21.641   5.520   4.576
69227W        W41652  16.067  30.340   0.413
69228W        W41653  17.084  12.467  11.962
69229W        W41654  10.914   1.842  14.044
69230W        W41655   0.225  39.967   0.660
69231W        W41656  31.381  30.659  12.986
69232W        W41657  31.485  10.751   3.437
69233W        W41658   2.791  14.583  11.178
69234W        W41659   5.198  37.507   4.671
69235W        W41660  37.351  38.894   4.486
69236W        W41661  37.041  43.214   5.011
69237W        W41662  39.099   7.932  11.622
69238W        W41663  29.645  11.107   4.885
69239W        W41664  39.791  14.421   4.080
69240W        W41665   6.293  15.863  12.110
69241W        W41666  26.049  19.609   4.579
69242W        W41667  34.957  18.850   4.210
69243W        W41668  14.149  10.884   0.791
69244W        W41669  24.954  26.063   0.667
69245W        W41670  42.874  35.885  11.724
69246W        W41671  21.939  42.392  13.502
69247W        W41672  34.693  26.911  12.937
69248W        W41673  38.903   5.919   3.315
69249W        W41674   6.459   3.624   3.574
69250W        W41675  11.433  19.301  13.889
69251W        W41676  33.954  38.495  11.373
69252W        W41677  42.352  35.775   3.962
69253W        W41678   6.747  10.739  14.799
69254W        W41679  31.738  43.068  12.291
69255W        W41680  22.031  30.047  14.883
69256W        W41681  42.347  20.555   0.329
69257W        W41682  10.680  27.405  11.165
69258W        W41683  43.844  12.426  13.893
69259W        W41684  41.007  39.786   3.703
69260W        W41685   5.135  21.863  12.405
69261W        W41686   7.349  27.624   3.719
69262W        W41687   7.445  21.951  12.525
69263W        W41688  26.972  37.138  13.065
69264W        W41689  19.144  11.598  12.416
69265W        W41690  11.302  35.330   4.165
69266W        W41691  12.057  27.123   4.216
69267W        W41692  18.356  22.274  12.832
69268W        W41693  11.239  31.698  11.994
69269W        W41694  40.535  29.541   1.696
69270W        W41695  28.614  15.320   0.368
69271W        W41696  39.771  36.850   2.305
69272W        W41697  30.984  34.398  13.718
69273W        W41698  32.492  37.403  12.989
69274W        W41699   5.608   1.776  10.691
69275W        W41700  31.537  25.743  10.976
69276W        W41701  32.821   8.447  12.058
69277W        W41702  30.485  35.919  11.485
69278W        W41703  37.853  19.215  13.002
69279W        W41704   7.192  31.089   3.560
69280W        W41705  31.671  18.613  13.597
69281W        W41706  12.711   3.951   2.344
69282W        W41707  10.465  12.609  14.276
69283W        W41708  42.885  31.754  14.883
69284W        W41709  22.459   4.236  11.132
69285W        W41710   4.890  20.698   1.322
69286W        W41711  43.801  44.346  12.923
69287W        W41712  28.890   8.191  14.499
69288W        W41713   3.765  27.960   0.246
69289W        W41714  13.169  37.363   0.412
69290W        W41715  37.625  33.807   4.953
69291W        W41716  29.382  42.897   1.415
69292W        W41717   8.250  24.931  13.147
69293W        W41718  17.270   4.028  14.308
69294W        W41719  37.566  37.918   4.897
69295W        W41720  11.871   1.078  11.927
69296W        W41721  40.928  24.528  14.301
69297W        W41722   4.032  37.518   1.532
69298W        W41723  33.039   2.968  14.815
69299W        W41724   1.929   2.876  12.425
69300W        W41725  14.608  26.949   3.208
69301W        W41726   8.494  15.258  14.368
69302W        W41727  35.923   2.474   1.331
69303W        W41728  26.701  24.628   1.891
69304W        W41729  38.123  42.967   0.275
69305W        W41730  27.425  23.173  13.507
69306W        W41731  36.912  32.619   0.221
69307W        W41732  37.513  24.251   3.593
69308W        W41733  43.656  28.695  11.917
69309W        W41734   2.623  21.285  11.109
69310W        W41735  16.965  35.051   4.314
69311W        W41736  18.564  33.526  11.925
69312W        W41737  30.972  43.534  11.707
69313W        W41738  39.978  24.424   3.141
69314W        W41739   7.338   7.167  13.326
69315W        W41740   4.274  16.095   2.432
69316W        W41741  40.327  25.729   2.694
69317W        W41742  17.869  33.517   0.683
69318W        W41743  39.728  27.555   2.166
69319W        W41744  14.762  34.128  13.539
69320W        W41745  36.174   1.037  11.030
69321W        W41746   9.774  29.967  14.931
69322W        W41747  24.446  15.687   1.752
69323W        W41748  42.041   6.305   2.858
69324W        W41749   7.544  38.413  10.202
69325W        W41750  16.955  10.841   4.139
69326W        W41751   3.670   4.605  10.281
69327W        W41752  39.321  23.941  12.500
69328W        W41753   3.672  36.682   5.093
69329W        W41754  17.659  24.119  11.681
69330W        W41755  43.429   6.501  14.810
69331W        W41756  22.082   5.297   2.886
69332W        W41757   7.592  29.463  14.644
69333W        W41758  10.873  27.537   3.577
69334W        W41759  34.288  11.472   0.846
69335W        W41760  34.532   5.878  14.403
69336W        W41761  20.452  41.538  14.829
69337W        W41762  11.806  25.910  12.503
69338W        W41763   2.760  40.406  14.507
69339W        W41764  22.993   6.655   3.855
69340W        W41765  11.998  11.872   5.461
69341W        W41766   6.389  24.662  10.708
69342W        W41767  18.289   3.326  10.723
69343W        W41768  24.649  29.133   2.112
69344W        W41769  22.520  28.494  12.522
69345W        W41770  40.564   5.763   0.328
69346W        W41771   4.671   7.823  13.137
69347W        W41772  34.284  16.795  11.443
69348W        W41773  13.546  33.547  13.940
69349W        W41774  25.694   2.268  11.532
69350W        W41775   0.358   6.183  12.488
69351W        W41776  10.867  37.625   1.322
69352W        W41777   9.278  17.516  13.407
69353W        W41778   5.785   6.883   3.733
69354W        W41779   4.732   9.782   4.026
69355W        W41780  38.877  30.945  12.000
69356W        W41781  43.832   2.231   2.805
69357W        W41782   8.766  12.836  10.829
69358W        W41783  33.492  29.955   3.412
69359W        W41784  20.624  22.423  12.629
69360W        W41785  18.534  32.326   2.206
69361W        W41786  26.144   8.869  13.935
69362W        W41787  39.833  13.023  11.910
69363W        W41788  18.104   0.469  13.446
69364W        W41789  10.460  20.769  11.547
69365W        W41790   2.534  10.240   0.921
69366W        W41791  38.508   8.495   2.785
69367W        W41792   8.647   1.844   5.072
69368W        W41793  22.001  31.950   5.052
69369W        W41794  15.614  38.038   3.668
69370W        W41795  24.133  11.944  12.500
69371W        W41796   6.834  32.663   2.221
69372W        W41797  11.652   4.793  13.786
69373W        W41798  36.799  41.405  12.184
69374W        W41799  20.779  32.632   0.865
69375W        W41800   8.699   0.422   2.031
69376W        W41801  34.924  38.007   2.553
69377W        W41802  33.778  29.447   0.879
69378W        W41803  44.675   3.434   4.657
69379W        W41804  23.472   6.280   1.764
69380W        W41805  10.628  28.909  14.962
69381W        W41806  37.854  22.961   2.765
69382W        W41807  42.335  11.978  13.071
69383W        W41808  36.505  32.313  11.805
69384W        W41809  29.241  17.039   3.949
69385W        W41810  14.244  26.703  12.609
69386W        W41811  29.994  23.716   4.609
69387W        W41812  16.593  37.613  14.349
69388W        W41813   3.795  12.276   0.672
69389W        W41814  36.704  42.026  11.112
69390W        W41815  22.813  23.086   3.630
69391W        W41816  38.530   3.942  10.364
69392W        W41817  18.269   5.575   3.961
69393W        W41818  28.002  33.789   2.187
69394W        W41819  30.110  29.930  14.299
69395W        W41820   8.176   1.818   1.243
69396W        W41821   9.491   9.107   0.119
69397W        W41822  32.563   4.165   3.073
69398W        W41823  22.752  35.024   1.968
69399W        W41824  43.811  13.720  12.532
69400W        W41825  28.016  33.138   1.743
69401W        W41826  28.215  43.799  10.950
69402W        W41827  25.179  41.615   2.703
69403W        W41828   3.742  20.935   5.177
69404W        W41829  13.435  41.301   5.003
69405W        W41830  12.148  32.980  10.883
69406W        W41831  33.693  43.771  11.610
69407W        W41832   1.831  34.736   4.193
69408W        W41833  18.711  34.052   2.796
69409W        W41834  32.412  22.590   0.307
69410W        W41835  20.221  12.923   2.887
69411W        W41836  16.396  30.225  11.830
69412W        W41837  35.350  41.533  12.427
69413W        W41838   7.072   1.850  13.016
69414W        W41839   5.149  29.208  13.965
69415W        W41840  35.411  21.129   3.389
69416W        W41841  13.721  42.919   4.288
69417W        W41842  32.890  21.439   1.006
69418W        W41843  18.137  38.845   3.734
69419W        W41844  20.264  17.617   1.840
69420W        W41845   7.022  22.894  12.494
69421W        W41846   7.528  26.595   3.439
69422W        W41847  23.486  11.208  13.759
69423W        W41848  36.600  17.191   0.407
69424W        W41849  29.551  28.821   3.752
69425W        W41850  30.916   1.474  10.388
69426W        W41851  42.274  34.843  13.397
69427W        W41852  14.946   2.803  11.464
69428W        W41853  23.663  12.338   3.859
69429W        W41854  44.895  43.750  13.127
69430W        W41855  25.820  11.759  14.903
69431W        W41856  10.056  22.104  12.140
69432W        W41857  31.432  19.315  11.161
69433W        W41858   0.549  37.255   0.244
69434W        W41859  41.350  18.845   0.796
69435W        W41860  14.793  36.459   1.504
69436W        W41861  31.841  44.268   3.731
69437W        W41862  31.901   8.170  12.484
69438W        W41863   2.676  31.855   0.972
69439W        W41864  25.594  29.952   3.439
69440W        W41865  16.729   5.350  12.781
69441W        W41866  10.319   8.922  12.502
69442W        W41867   6.210  36.163   3.255
69443W        W41868  14.591   8.388   4.755
69444W        W41869   0.240  43.127  13.446
69445W        W41870  34.101  38.811   2.747
69446W        W41871  22.300  13.035  10.679
69447W        W41872  14.766  23.095   2.460
69448W        W41873   9.408  10.818   3.637
69449W        W41874   1.365  22.707  11.431
69450W        W41875   4.488  40.389  12.874
69451W        W41876  35.675  37.633   2.283
69452W        W41877  23.125  24.128   2.287
69453W        W41878   7.901   1.211   4.132
69454W        W41879  27.059   0.430  11.651
69455W        W41880  40.878  44.147   1.996
69456W        W41881  43.748  39.058   1.741
69457W        W41882  33.810  34.984  11.051
69458W        W41883  11.755  24.665   2.441
69459W        W41884  37.835  33.622   1.195
69460W        W41885  23.788  31.123   4.207
69461W        W41886  38.341  39.482   3.281
69462W        W41887  30.788  32.357  13.845
69463W        W41888  40.461  38.342   0.312
69464W        W41889   1.941  19.049   3.284
69465W        W41890   2.223   7.667  11.647
69466W        W41891   8.015  43.061   0.000
69467W        W41892   7.975  32.068   5.149
69468W        W41893  14.846  37.922   0.418
69469W        W41894  17.295  23.598   9.837
69470W        W41895   7.218  24.747   4.682
69471W        W41896  30.608  21.531   3.088
69472W        W41897  40.565  29.721   0.200
69473W        W41898  39.865  29.219  14.844
69474W        W41899  24.972  35.487  13.959
69475W        W41900  26.090   8.666   3.781
69476W        W41901   0.797   9.347   2.880
69477W        W41902  23.313  22.261  11.601
69478W        W41903  16.820  36.083   1.184
69479W        W41904   3.891  42.108  12.563
69480W        W41905   5.155   4.138   3.705
69481W        W41906  12.801  11.885  12.668
69482W        W41907  22.011  21.918  13.403
69483W        W41908  24.014  28.766   0.995
69484W        W41909  15.718   6.782   4.282
69485W        W41910  40.052  27.152  13.954
69486W        W41911  41.019  20.038   0.987
69487W        W41912   5.895  21.259   4.394
69488W        W41913  24.741  34.840  13.817
69489W        W41914  23.050  38.318   3.173
69490W        W41915  20.344  29.615  11.158
69491W        W41916  22.917   5.119  10.697
69492W        W41917  37.535  20.763  13.541
69493W        W41918  18.119   2.485   1.368
69494W        W41919  35.923  33.149  13.384
69495W        W41920  31.157   3.340   0.489
69496W        W41921  28.432  23.504   4.933
69497W        W41922   0.173  43.995  10.770
69498W        W41923  12.231  16.046  12.814
69499W        W41924  21.235  24.038  12.016
69500W        W41925  24.462  30.120  12.521
69501W        W41926   1.722  42.100   0.851
69502W        W41927  32.519  43.438  10.686
69503W        W41928  31.494  33.857  11.124
69504W        W41929  27.889  33.755  11.024
69505W        W41930  24.354  32.050   5.179
69506W        W41931  44.756  40.903  11.766
69507W        W41932  33.297  16.440  12.654
69508W        W41933  37.952  36.363   3.895
69509W        W41934  19.760   4.232  10.937
69510W        W41935  34.391  24.156  11.971
69511W        W41936  11.907   6.927   4.177
69512W        W41937  23.475  11.305   9.784
69513W        W41938  43.879  28.885  13.565
69514W        W41939   5.682   6.699   4.815
69515W        W41940  16.317  30.014   4.482
69516W        W41941   1.950  37.740   4.537
69517W        W41942   4.357  36.036  13.225
69518W        W41943  31.739   1.879  13.864
69519W        W41944  23.270  32.931   0.455
69520W        W41945  36.884  21.507  13.499
69521W        W41946   6.584   2.467  13.367
69522W        W41947  40.448   4.828   3.422
69523W        W41948  35.629  33.910   0.277
69524W        W41949  34.315  14.939   3.176
69525W        W41950  21.737  41.810  14.009
69526W        W41951  23.123  39.271   0.275
69527W        W41952  27.372  17.510  13.527
69528W        W41953   3.869  43.015   3.617
69529W        W41954  18.371  17.541  12.555
69530W        W41955  16.197  38.847  12.249
69531W        W41956  32.017   9.848   4.089
69532W        W41957   5.363  37.939   2.730
69533W        W41958   6.174   2.658  14.088
69534W        W41959  18.707  27.793  14.799
69535W        W41960   6.140   7.753   1.745
69536W        W41961  38.050  35.642  13.309
69537W        W41962  16.978  17.601  13.355
69538W        W41963  31.061  33.828   1.321
69539W        W41964  11.059  18.060  14.445
69540W        W41965   8.128  25.136   4.849
69541W        W41966  42.082  34.347   1.911
69542W        W41967  17.601   2.998   3.578
69543W        W41968  33.091   4.883  13.666
69544W        W41969   4.894  34.945   2.728
69545W        W41970  20.215  13.860   3.769
69546W        W41971  17.750  19.270   1.313
69547W        W41972  41.573  20.232  13.306
69548W        W41973  16.669  22.756  14.410
69549W        W41974   2.821  34.587  13.925
69550W        W41975   1.263  15.913  11.571
69551W        W41976  14.657  11.396   2.329
69552W        W41977  36.585  22.618   4.222
69553W        W41978  25.653  23.971   2.237
69554W        W41979  21.123  16.350  13.197
69555W        W41980  25.551  28.955   1.699
69556W        W41981  19.005  34.353  12.815
69557W        W41982  27.178   7.860   2.083
69558W        W41983  32.466   6.678   2.295
69559W        W41984   8.784  18.809  14.312
69560W        W41985  23.623  21.244  10.657
69561W        W41986   8.893  43.025  11.183
69562W        W41987   8.336  32.896  13.193
69563W        W41988  32.453   6.200   2.145
69564W        W41989   7.231   8.800   4.652
69565W        W41990  38.858  40.999   4.020
69566W        W41991  35.143  10.856   4.226
69567W        W41992  22.031  23.991   0.328
69568W        W41993   3.138  33.459   1.321
69569W        W41994  21.983  17.264  14.416
69570W        W41995  17.520  27.575   2.360
69571W        W41996   0.052  30.543   0.807
69572W        W41997  20.676  38.394   1.636
69573W        W41998  32.462   3.703   3.242
69574W        W41999   8.308  35.985  13.002
69575W        W42000  21.226   9.395   1.005
69576W        W42001  38.886  38.878  11.955
69577W        W42002  20.388  41.763   1.545
69578W        W42003   7.473  20.550  13.632
69579W        W42004  18.320  10.649  11.550
69580W        W42005   2.779  16.632  12.802
69581W        W42006  26.226  32.673   4.659
69582W        W42007  12.781  20.077  10.699
69583W        W42008  18.129   7.204  14.934
69584W        W42009  12.768  15.157  14.404
69585W        W42010  15.040  34.456  12.617
69586W        W42011  36.272  22.685   4.661
69587W        W42012  34.429   1.897  13.087
69588W        W42013  40.716  12.199  12.445
69589W        W42014  32.894  38.574  13.897
69590W        W42015  39.557  37.565   1.828
69591W        W42016  32.247  30.516  14.040
69592W        W42017  31.715  17.078   4.232
69593W        W42018  21.063  39.273  13.334
69594W        W42019   8.295  37.105   5.316
69595W        W42020  39.909  20.540  10.887
69596W        W42021  16.236  26.731  13.387
69597W        W42022  10.575  25.221   3.764
69598W        W42023  40.073   1.342   2.521
69599W        W42024  20.965  34.349  13.088
69600W        W42025  11.727  14.876  13.004
69601W        W42026   5.685  28.627  12.542
69602W        W42027  28.906  18.557  12.025
69603W        W42028  36.923  25.479   2.729
69604W        W42029   1.268  24.884   0.947
69605W        W42030  11.594  35.481  14.023
69606W        W42031  19.181  27.292  14.008
69607W        W42032  15.828   2.336  14.437
69608W        W42033  12.094  11.423  13.427
69609W        W42034  35.146  24.225   2.958
69610W        W42035  42.485   4.827   0.378
69611W        W42036  34.892  10.262  12.915
69612W        W42037  27.950  14.908   0.868
69613W        W42038  33.542  32.988  10.327
69614W        W42039  15.244  21.903  11.899
69615W        W42040   1.848  38.137  13.586
69616W        W42041  40.295  24.758   0.042
69617W        W42042  12.107  21.301   4.835
69618W        W42043   3.964  26.604   2.610
69619W        W42044  24.617  13.790   1.814
69620W        W42045  39.859  20.836  12.875
69621W        W42046   4.100  10.800   2.587
69622W        W42047   3.875  33.136   4.675
69623W        W42048   0.743   2.968   1.775
69624W        W42049  24.623  15.141   2.282
69625W        W42050  43.974  14.345   0.407
69626W        W42051   3.501  17.838   1.824
69627W        W42052  29.424  31.554   1.894
69628W        W42053   4.843  31.507  14.525
69629W        W42054  31.431  38.523   4.775
69630W        W42055  43.342  24.083   0.450
69631W        W42056   3.025  21.128   2.391
69632W        W42057  19.698  32.683  11.765
69633W        W42058  43.602  26.006  13.835
69634W        W42059  35.893  14.240  14.716
69635W        W42060   6.676  16.640  13.511
69636W        W42061  31.053  16.926   1.257
69637W        W42062   1.939  37.351   1.988
69638W        W42063  39.915  29.679   3.290
69639W        W42064  36.540  26.919  11.048
69640W        W42065  22.659  43.850  11.563
69641W        W42066  43.378   5.582  14.357
69642W        W42067   2.351  25.174  12.140
69643W        W42068  37.170  38.383  14.059
69644W        W42069  21.471  11.274   1.899
69645W        W42070  26.646   6.247  12.589
69646W        W42071  34.861  42.609  11.209
69647W        W42072   7.911  30.226  13.437
69648W        W42073  36.473  22.142  12.912
69649W        W42074  10.607  17.132   2.638
69650W        W42075  40.883  18.065   4.683
69651W        W42076  34.482  23.015   2.817
69652W        W42077   7.243  36.362  13.919
69653W        W42078   9.972   3.411   2.228
69654W        W42079  11.061  32.887   0.443
69655W        W42080  27.977  12.691  12.355
69656W        W42081  11.633  29.025  14.852
69657W        W42082   4.275  11.400   0.771
69658W        W42083  16.115  32.588  12.158
69659W        W42084  43.484   6.787  13.409
69660W        W42085  22.243  30.117   1.398
69661W        W42086  34.308  12.576  11.136
69662W        W42087  19.373  27.621  11.444
69663W        W42088   6.045  24.932   5.104
69664W        W42089   7.390  12.446  13.409
69665W        W42090  14.127  22.836  14.820
69666W        W42091  14.060  42.264  13.054
69667W        W42092  40.987  33.469   3.856
69668W        W42093   4.679  41.348   2.270
69669W        W42094  33.049  19.053  10.297
69670W        W42095  41.161  19.836   2.289
69671W        W42096  26.931  43.817  12.255
69672W        W42097  19.007  37.170   1.359
69673W        W42098   1.005   7.806  13.066
69674W        W42099  11.593   8.404  11.931
69675W        W42100  22.005  18.871   4.240
69676W        W42101  26.435   3.239  12.444
69677W        W42102  26.548   4.241   0.805
69678W        W42103  43.738  33.339  11.975
69679W        W42104  21.242  18.588  12.624
69680W        W42105  18.220   9.801  12.599
69681W        W42106  38.388  38.354   3.575
69682W        W42107  35.451  11.650   4.315
69683W        W42108  26.387  39.563   1.457
69684W        W42109  22.028   3.769  12.832
69685W        W42110  14.625  17.871   2.821
69686W        W42111  37.873   2.636  14.975
69687W        W42112  39.981  37.545   4.568
69688W        W42113  41.292   0.239   2.380
69689W        W42114  26.494  27.860  12.133
69690W        W42115  19.228  37.560  12.366
69691W        W42116  19.155  44.542   4.263
69692W        W42117  12.768  44.234  13.154
69693W        W42118  14.735  19.510  12.967
69694W        W42119  35.253  17.687  10.792
69695W        W42120  41.987  16.825   4.080
69696W        W42121  32.448   8.861  14.021
69697W        W42122   9.802  11.207  14.020
69698W        W42123  10.713  23.045   2.213
69699W        W42124  36.320  32.091   4.060
69700W        W42125  29.767  29.731  12.485
69701W        W42126  29.526  38.086  11.040
69702W        W42127  43.373  37.066   3.934
69703W        W42128  25.453  18.120   2.203
69704W        W42129  37.954  18.388   0.371
69705W        W42130  12.076  20.639   0.778
69706W        W42131   4.451  38.587   1.523
69707W        W42132  11.560   3.278   4.499
69708W        W42133  11.704   3.206  13.149
69709W        W42134  33.472  12.381  14.308
69710W        W42135  11.221  17.561   1.348
69711W        W42136  11.613  34.373   0.002
69712W        W42137  21.509  37.241  11.180
69713W        W42138  24.822  19.315   0.492
69714W        W42139   6.426  25.941   2.345
69715W        W42140   1.925  26.542   2.129
69716W        W42141  22.931  43.584   0.666
69717W        W42142   3.752   0.272  12.134
69718W        W42143  22.818   1.277   0.964
69719W        W42144  23.461  33.151   1.829
69720W        W42145   9.268  37.828   1.647
69721W        W42146  13.793  28.891  13.800
69722W        W42147  20.315  33.493   3.362
69723W        W42148  27.909  30.156   2.346
69724W        W42149  21.687  37.835  12.589
69725W        W42150  15.342  28.185  13.834
69726W        W42151  31.178   3.778  12.651
69727W        W42152  14.720   7.747   2.776
69728W        W42153  12.168  32.014   1.546
69729W        W42154   4.668   9.719  13.463
69730W        W42155   6.625  11.753   4.129
69731W        W42156   7.343   4.514  11.195
69732W        W42157  26.184  27.952  11.425
69733W        W42158  43.461  13.677  10.999
69734W        W42159  34.715   8.838  14.499
69735W        W42160  35.625  15.286  11.546
69736W        W42161  15.789   5.466  12.576
69737W        W42162  13.770  29.759   4.828
69738W        W42163   1.552  10.673  13.940
69739W        W42164  36.412  22.862  11.806
69740W        W42165   7.655  15.431  14.804
69741W        W42166  13.649  17.546  13.842
69742W        W42167  13.749  40.808   0.867
69743W        W42168   2.379  18.533  11.397
69744W        W42169  38.122  25.463   2.020
69745W        W42170  19.632  43.773  14.789
69746W        W42171  33.411  42.941   3.606
69747W        W42172  25.174   1.019  14.890
69748W        W42173  36.720  15.681   1.861
69749W        W42174   8.237  31.557   0.537
69750W        W42175  39.268  26.857   1.281
69751W        W42176  29.967  25.211  14.529
69752W        W42177   2.480  22.597  12.099
69753W        W42178   2.076  16.523   0.260
69754W        W42179  20.034  36.429  11.418
69755W        W42180   1.792  23.036   1.073
69756W        W42181  44.482  29.526  10.607
69757W        W42182   8.380  32.194  10.706
69758W        W42183  39.385   6.239   1.039
69759W        W42184  41.148  32.061   3.360
69760W        W42185  19.585  31.597   4.993
69761W        W42186  37.327   0.959  12.564
69762W        W42187   7.752  24.294   5.190
69763W        W42188  24.165   0.396   3.742
69764W        W42189  26.165  21.442   1.791
69765W        W42190  20.264  27.990  10.038
69766W        W42191  19.667  44.822  14.770
69767W        W42192   6.791   0.265   2.441
69768W        W42193  22.556   7.052   1.641
69769W        W42194   2.666  38.553  14.337
69770W        W42195  29.146   6.914  10.646
69771W        W42196  11.405  18.383  11.554
69772W        W42197   3.753  29.828  11.104
69773W        W42198  42.362  16.885  12.342
69774W        W42199  18.794  44.534  11.139
69775W        W42200   3.569   4.677   2.334
69776W        W42201  12.651  22.551   1.949
69777W        W42202  27.815   9.820   4.793
69778W        W42203  30.643  39.397  10.790
69779W        W42204  42.785  26.036   4.174
69780W        W42205  25.737   1.735  11.563
69781W        W42206  38.490  22.718   1.735
69782W        W42207  33.906  33.893  11.992
69783W        W42208  37.238  38.444   4.238
69784W        W42209  11.886  21.453   3.902
69785W        W42210   9.409  21.732   4.624
69786W        W42211  31.087  21.647  11.834
69787W        W42212  40.330  10.580  14.828
69788W        W42213  32.905  11.743   1.277
69789W        W42214  14.245  28.899  11.121
69790W        W42215   6.368   3.705  13.766
69791W        W42216  31.946  35.519   2.398
69792W        W42217   8.804  23.181  11.694
69793W        W42218  10.396  38.557   3.822
69794W        W42219  29.568  34.804   1.229
69795W        W42220  37.808   6.163  14.341
69796W        W42221  31.868  37.017   3.530
69797W        W42222  38.539  21.148   3.815
69798W        W42223  33.519  15.226  11.108
69799W        W42224  22.649   1.164   1.988
69800W        W42225  17.452  31.123  13.081
69801W        W42226  44.252  29.133   4.208
69802W        W42227  29.434  20.964   4.538
69803W        W42228  29.957  21.194   4.517
69804W        W42229  18.799   9.862  10.828
69805W        W42230  12.280  27.030   3.780
69806W        W42231  32.544  17.195   0.932
69807W        W42232   7.325  31.400   0.407
69808W        W42233  35.469   9.381  12.460
69809W        W42234  13.287  17.229  11.343
69810W        W42235  12.607   5.356  14.469
69811W        W42236  11.383  14.061   4.129
69812W        W42237  20.719  27.590  11.991
69813W        W42238  39.212   9.078   3.255
69814W        W42239   5.814   3.045   0.836
69815W        W42240  27.142  33.921   0.767
69816W        W42241  42.292   6.853   4.636
69817W        W42242   2.453   8.619   4.093
69818W        W42243  25.602  34.424   3.201
69819W        W42244  11.144   0.712  14.356
69820W        W42245  11.724  35.604  11.636
69821W        W42246  28.917  22.785  10.689
69822W        W42247  42.823   7.312   1.457
69823W        W42248  32.586  43.372  11.853
69824W        W42249  23.032  13.170   1.214
69825W        W42250  14.376  32.675  13.613
69826W        W42251  31.680  22.122  12.524
69827W        W42252   4.355  13.743   3.871
69828W        W42253  44.376  25.272  10.615
69829W        W42254  21.661   8.838  12.948
69830W        W42255  29.581   2.476  14.257
69831W        W42256  41.536   4.969  10.743
69832W        W42257  38.312   1.992  11.970
69833W        W42258   7.211  35.594  11.235
69834W        W42259  23.997  24.549  13.532
69835W        W42260  39.431  16.983   0.403
69836W        W42261   2.842  41.261   0.938
69837W        W42262  36.881  15.935  11.009
69838W        W42263   9.237   6.376  12.566
69839W        W42264  40.452  29.575  13.218
69840W        W42265  30.989   6.573   3.252
69841W        W42266  12.747  26.081  13.590
69842W        W42267  39.837  41.773   4.085
69843W        W42268   2.577  32.556   1.213
69844W        W42269   4.020  27.904   3.630
69845W        W42270  13.349  41.437   3.655
69846W        W42271  36.306  27.062  13.959
69847W        W42272   2.518  24.482   0.549
69848W        W42273  38.172  17.128   0.772
69849W        W42274  20.759  37.151  14.356
69850W        W42275  21.731  25.288  12.427
69851W        W42276  15.163  12.303  12.351
69852W        W42277  11.595  23.315   3.208
69853W        W42278   5.813  33.145   2.677
69854W        W42279  23.261  28.065  12.474
69855W        W42280  40.974   4.624   1.293
69856W        W42281  30.532  12.208  12.010
69857W        W42282  35.858  21.955  11.136
69858W        W42283  21.572  21.758  10.777
69859W        W42284  11.658  28.128  14.765
69860W        W42285  16.846  42.501  13.453
69861W        W42286  10.797  18.566  13.786
69862W        W42287  37.211  37.835  14.977
69863W        W42288  10.051  22.222   1.251
69864W        W42289   3.926   4.792   0.531
69865W        W42290   4.359  37.948   4.618
69866W        W42291  18.188  44.013   4.123
69867W        W42292   7.919  38.562  14.395
69868W        W42293  41.526  35.079   4.937
69869W        W42294  43.329  27.455   2.893
69870W        W42295   8.162  15.931  11.155
69871W        W42296  25.523  29.247   4.243
69872W        W42297  12.118  40.186  10.953
69873W        W42298  10.790  33.367   3.188
69874W        W42299  44.319  44.416   5.007
69875W        W42300   6.625  40.730  12.209
69876W        W42301  39.674  23.063   3.753
69877W        W42302  21.449  35.243  11.720
69878W        W42303   8.599   8.135   3.804
69879W        W42304  17.034  36.315   3.652
69880W        W42305  30.642  14.884   2.014
69881W        W42306  28.328   8.354   0.904
69882W        W42307  38.405  25.755  13.002
69883W        W42308  26.008   2.236  13.280
69884W        W42309  30.917  11.674   1.357
69885W        W42310  35.171  19.231   0.189
69886W        W42311  22.118  41.367  10.607
69887W        W42312   3.768  33.147  11.309
69888W        W42313  27.570  35.048  12.999
69889W        W42314  39.255  22.249  13.086
69890W        W42315  11.387  12.933  13.967
69891W        W42316   7.964  35.318  13.761
69892W        W42317  37.873   0.247  14.841
69893W        W42318   1.734  44.214   2.826
69894W        W42319  14.989  28.198  14.508
69895W        W42320   6.251  42.097   2.720
69896W        W42321  11.159   5.096   1.792
69897W        W42322  11.783  26.708   4.131
69898W        W42323  36.305  26.824  11.493
69899W        W42324   7.689  19.767  12.106
69900W        W42325   3.026  44.813  12.127
69901W        W42326  42.474  15.292  14.949
69902W        W42327  37.679  21.142  14.400
69903W        W42328   8.222   7.416  13.837
69904W        W42329  16.787  15.278  11.492
69905W        W42330  33.051  43.778   4.596
69906W        W42331  16.995  21.564  14.511
69907W        W42332  18.053  26.647  12.118
69908W        W42333  36.464  39.820   3.199
69909W        W42334  23.994  43.425   3.074
69910W        W42335  20.998  41.807  11.589
69911W        W42336  17.506   1.974   3.658
69912W        W42337   9.218  28.728   0.905
69913W        W42338  16.193  43.354   1.866
69914W        W42339   7.364  31.099  11.582
69915W        W42340  19.157   1.776   5.147
69916W        W42341  20.201  33.391  10.679
69917W        W42342  38.921  34.778  12.847
69918W        W42343  37.310  42.709   2.846
69919W        W42344  40.919  44.978  11.892
69920W        W42345   7.835  33.326  10.676
69921W        W42346  18.975  28.026   2.824
69922W        W42347  21.141  21.651  10.482
69923W        W42348   6.153   5.869  13.343
69924W        W42349  19.972  25.916   1.770
69925W        W42350  33.299  36.334  13.496
69926W        W42351  17.360  23.103  14.098
69927W        W42352  36.780  35.523   3.607
69928W        W42353   8.537  17.144   1.960
69929W        W42354  14.858  41.031  14.836
69930W        W42355  24.985  23.019   4.009
69931W        W42356  12.842  33.387  14.268
69932W        W42357  33.993   8.240  11.207
69933W        W42358  10.327   3.337  13.795
69934W        W42359  26.367  37.859   2.824
69935W        W42360  17.929  12.741  12.154
69936W        W42361  21.224  34.150   0.311
69937W        W42362  14.808  31.709   3.163
69938W        W42363  26.247  15.138   4.623
69939W        W42364  15.120  30.911  14.811
69940W        W42365   3.461   8.273  13.806
69941W        W42366   1.408  10.414   2.348
69942W        W42367  27.628  14.350  12.297
69943W        W42368  20.430  30.535   0.247
69944W        W42369  22.285  42.630   4.407
69945W        W42370  35.092  10.705  12.661
69946W        W42371  27.143  37.612  11.078
69947W        W42372  24.253  30.386  14.334
69948W        W42373  30.508  28.903   1.242
69949W        W42374  22.238  32.731   0.956
69950W        W42375  11.197  44.360  13.947
69951W        W42376   6.399  35.382  10.348
69952W        W42377  28.065  36.985  11.107
69953W        W42378   2.061  30.479  13.019
69954W        W42379  19.069  36.649  13.518
69955W        W42380   9.983  43.119  12.916
69956W        W42381  27.597  19.497   1.488
69957W        W42382  12.183  37.571   3.712
69958W        W42383   8.975  10.328  11.457
69959W        W42384  29.562  29.999   2.622
69960W        W42385  33.905  22.274   1.232
69961W        W42386  22.620   9.748   1.823
69962W        W42387  24.246  15.965   4.284
69963W        W42388  11.333  11.293  10.735
69964W        W42389  41.033  24.775  11.144
69965W        W42390  21.767  26.308   3.389
69966W        W42391  23.653  23.981  11.482
69967W        W42392  38.516  21.177  10.366
69968W        W42393  39.648  36.115   3.599
69969W        W42394  12.301  15.082   3.670
69970W        W42395   5.275  14.614   3.777
69971W        W42396  39.235  17.199  11.839
69972W        W42397  42.419  28.977  11.243
69973W        W42398  38.571  39.960   0.275
69974W        W42399  39.993  41.882   2.723
69975W        W42400   0.506  22.364   2.923
69976W        W42401   2.969  40.025   3.956
69977W        W42402   9.369  21.561   3.327
69978W        W42403  37.619  13.790  13.519
69979W        W42404  37.024  34.733  12.102
69980W        W42405  41.547  38.826  12.945
69981W        W42406   3.900  20.186  14.948
69982W        W42407  31.678   1.826  12.111
69983W        W42408   2.736  22.600  13.053
69984W        W42409  12.747   3.625  14.006
69985W        W42410  20.816  23.102   0.225
69986W        W42411  23.495  36.589  11.197
69987W        W42412  29.929  24.109   1.271
69988W        W42413  42.140  19.033  13.116
69989W        W42414  17.536  43.117  13.059
69990W        W42415  13.471  18.012  13.714
69991W        W42416  40.627  14.826  14.931
69992W        W42417  16.356  18.545  11.096
69993W        W42418  38.823  43.945   0.563
69994W        W42419  25.030   3.543  13.550
69995W        W42420  27.504  15.654   1.080
69996W        W42421  41.677  11.746  10.129
69997W        W42422  12.596  17.095  12.048
69998W        W42423  42.449   7.882  14.230
69999W        W42424  13.238  20.031   0.613
70000W        W42425   2.873   2.803   3.766
70001W        W42426  25.217   4.666  12.103
70002W        W42427  10.940  10.132   1.318
70003W        W42428  17.793  11.232   3.177
70004W        W42429   9.272   1.649   2.487
70005W        W42430  42.293  37.499  14.504
70006W        W42431  12.601  34.956   1.382
70007W        W42432  15.519   6.752  11.680
70008W        W42433  18.434  34.434   3.778
70009W        W42434  29.414  12.155   4.150
70010W        W42435  21.762   3.556   0.656
70011W        W42436  24.958   0.510  14.829
70012W        W42437   2.422  25.164  11.646
70013W        W42438  12.362   2.247  12.444
70014W        W42439  43.285  43.326  11.697
70015W        W42440   4.992  23.283   1.859
70016W        W42441  16.121  16.738   0.980
70017W        W42442   5.029  37.050   4.210
70018W        W42443  23.024  13.570  14.546
70019W        W42444   4.125  20.633  14.804
70020W        W42445  13.566   8.636  11.189
70021W        W42446  39.301  23.438   4.509
70022W        W42447  43.454  11.435  12.539
70023W        W42448   9.728   2.527  14.276
70024W        W42449  22.244  42.873  14.760
70025W        W42450  28.163  17.106  13.566
70026W        W42451  28.490  41.026  12.524
70027W        W42452  23.266  32.191  13.325
70028W        W42453  27.887  41.253  14.018
70029W        W42454  32.682  40.060   4.427
70030W        W42455  11.812  35.171   4.167
70031W        W42456  13.382   1.528  11.033
70032W        W42457  43.323  26.596  11.566
70033W        W42458  18.886  17.825   1.917
70034W        W42459   7.155  32.859   0.187
70035W        W42460   0.425   5.887   3.686
70036W        W42461   5.402   8.386  13.823
70037W        W42462  21.595  14.305   4.628
70038W        W42463  27.047  32.903  14.438
70039W        W42464  17.327  22.160  14.364
70040W        W42465  33.392  11.508   0.405
70041W        W42466  41.523  26.023  13.283
70042W        W42467  43.422  43.795  12.017
70043W        W42468  38.102   7.109  12.375
70044W        W42469  22.741  10.730   1.738
70045W        W42470  39.109  29.169   2.350
70046W        W42471  12.299  36.996  12.565
70047W        W42472  42.898  11.935  10.513
70048W        W42473   5.274  39.090  13.110
70049W        W42474  26.383  21.202   2.267
70050W        W42475  23.606  43.987  11.159
70051W        W42476  32.985  16.820  11.054
70052W        W42477  26.128  14.113  13.781
70053W        W42478  24.711  14.102  10.829
70054W        W42479  43.912  28.678   0.438
70055W        W42480  22.238  12.138   3.311
70056W        W42481  35.533  13.369   0.985
70057W        W42482  17.464   1.406  14.958
70058W        W42483  20.925  18.537   2.795
70059W        W42484   4.777   7.238  10.102
70060W        W42485  14.599  25.622   4.893
70061W        W42486  11.818  27.566   4.206
70062W        W42487   7.450   5.229   1.752
70063W        W42488  13.547  24.316  12.038
70064W        W42489   3.006  35.956   2.111
70065W        W42490  37.141   3.583  13.013
70066W        W42491  39.863  35.504  13.954
70067W        W42492  13.279  17.463   3.206
70068W        W42493  26.966  31.130  13.439
70069W        W42494   6.521  34.372  10.681
70070W        W42495  32.911  14.325   1.796
70071W        W42496   4.752  35.393   3.105
70072W        W42497   4.995  44.273   4.128
70073W        W42498  37.583  22.635  11.461
70074W        W42499  44.973   6.655   2.329
70075W        W42500  23.304  23.375   2.741
70076W        W42501  34.254  30.148  14.944
70077W        W42502  12.275  44.301  12.909
70078W        W42503   6.822  28.215  13.374
70079W        W42504  42.623  14.193   4.127
70080W        W42505  10.139  11.181   4.662
70081W        W42506  27.038  40.969   3.064
70082W        W42507  36.927  11.291   3.365
70083W        W42508  18.288  10.910   2.059
70084W        W42509  43.747   1.851  11.672
70085W        W42510   2.900  40.207   0.885
70086W        W42511  29.402  44.735   0.328
70087W        W42512   2.155   6.597   1.885
70088W        W42513  21.214  35.091  14.030
70089W        W42514   2.638  35.527   4.188
70090W        W42515  15.771   8.213  12.174
70091W        W42516  15.409  34.116   0.835
70092W        W42517  31.251  36.388  11.629
70093W        W42518  43.814  20.119   2.919
70094W        W42519   6.411  29.672  14.714
70095W        W42520   0.647  12.252  12.365
70096W        W42521  29.375  23.898   3.363
70097W        W42522  43.255  13.259  11.621
70098W        W42523  40.635  34.074  11.444
70099W        W42524  21.825   6.441   4.197
70100W        W42525  16.332   3.817  12.894
70101W        W42526  27.084   4.679  13.628
70102W        W42527   2.722  12.821  11.023
70103W        W42528   2.049  32.070   1.770
70104W        W42529  28.181   8.126   3.174
70105W        W42530  37.462  33.121  12.875
70106W        W42531  15.110  40.164  12.499
70107W        W42532  30.916   9.131  13.033
70108W        W42533  33.946   3.923  14.318
70109W        W42534  17.787  20.048   4.187
70110W        W42535   7.924  24.593  12.917
70111W        W42536  22.919  21.435   2.792
70112W        W42537  28.476  44.091   3.750
70113W        W42538  14.097  28.015   1.246
70114W        W42539   0.904  22.635  12.240
70115W        W42540  43.498  20.072   4.115
70116W        W42541  41.437  12.079  10.468
70117W        W42542  33.074  11.739  12.363
70118W        W42543  22.671   4.936   0.714
70119W        W42544  44.433  25.553   2.781
70120W        W42545  10.236   0.005   2.885
70121W        W42546   7.804   3.510  10.185
70122W        W42547  32.625  42.314   2.726
70123W        W42548  26.294  30.112   1.665
70124W        W42549  31.437   1.956  12.564
70125W        W42550  18.112  43.498   2.854
70126W        W42551  31.250  14.327  14.808
70127W        W42552  42.263  10.273   4.879
70128W        W42553  14.013  14.060   0.259
70129W        W42554  28.707  21.516  11.041
70130W        W42555  37.560  12.708  11.684
70131W        W42556  22.809  19.383  13.990
70132W        W42557  30.911  15.905  13.960
70133W        W42558  20.708  15.644  14.125
70134W        W42559  43.667   9.015  13.289
70135W        W42560  37.419  37.138   2.342
70136W        W42561  18.142  35.352  13.712
70137W        W42562   7.158  20.150   2.222
70138W        W42563   8.571  30.662  11.826
70139W        W42564  16.116  40.760   0.349
70140W        W42565  14.709   9.751  13.922
70141W        W42566  42.843  23.053  12.164
70142W        W42567  40.883  28.212   1.807
70143W        W42568  31.885  27.150  12.116
70144W        W42569  29.331  10.738  12.951
70145W        W42570   0.291  32.675   3.992
70146W        W42571  31.500  39.053   0.384
70147W        W42572  16.101  12.068  10.342
70148W        W42573  17.130  24.235  10.661
70149W        W42574  24.227  30.467  11.138
70150W        W42575  32.436  21.080  14.787
70151W        W42576   5.415  30.577   1.293
70152W        W42577  35.031   1.393   4.976
70153W        W42578   3.553   8.617   3.384
70154W        W42579  13.792  26.523   4.194
70155W        W42580  39.684   5.238   4.086
70156W        W42581  28.920  32.326  12.095
70157W        W42582  13.314  40.656   2.181
70158W        W42583  38.987  20.085  14.862
70159W        W42584  33.805  26.703  13.314
70160W        W42585  30.117   6.813  14.062
70161W        W42586  12.121  33.446  11.098
70162W        W42587   5.977  23.191   4.558
70163W        W42588  18.174  31.139   0.442
70164W        W42589  25.708   2.943  14.117
70165W        W42590  16.265  35.183   1.911
70166W        W42591  32.219  11.200  14.299
70167W        W42592  12.572  26.211   1.476
70168W        W42593  23.674  17.481  11.116
70169W        W42594  35.788  25.153   5.381
70170W        W42595  44.832  42.204   4.877
70171W        W42596  20.668  27.496  13.879
70172W        W42597  17.341  32.927  14.301
70173W        W42598  31.480  27.474   3.223
70174W        W42599   8.655  27.621   3.358
70175W        W42600   8.487  28.138  12.550
70176W        W42601  36.326  39.111   1.428
70177W        W42602  44.421   4.399   0.041
70178W        W42603   0.766  17.359   4.812
70179W        W42604  11.745  19.040   4.221
70180W        W42605  26.063  42.967  12.973
70181W        W42606  41.812   1.278   3.912
70182W        W42607  22.119  36.363   1.401
70183W        W42608  23.231  18.797   1.841
70184W        W42609  24.426   8.922   1.833
70185W        W42610  25.391  27.180  11.666
70186W        W42611  14.247  18.159  14.923
70187W        W42612  40.534   3.466  14.959
70188W        W42613  24.994  11.798  14.402
70189W        W42614  24.120   6.502  10.561
70190W        W42615  17.368  42.773  12.639
70191W        W42616  44.726  19.224  14.361
70192W        W42617  30.493   8.850   4.200
70193W        W42618  29.584  20.014   4.823
70194W        W42619   5.853   5.409   1.420
70195W        W42620  38.034   1.923   0.277
70196W        W42621  39.302  14.759  13.878
70197W        W42622  42.941  30.419  14.477
70198W        W42623  26.671  33.569   4.283
70199W        W42624  10.687  21.516   0.308
70200W        W42625   6.631  16.329   2.410
70201W        W42626   7.480  37.816   2.879
70202W        W42627  41.567  23.986   3.551
70203W        W42628   5.785  34.626  13.355
70204W        W42629  23.916  11.190  12.341
70205W        W42630  14.781  33.901   4.796
70206W        W42631  18.679  44.009   3.823
70207W        W42632   7.009  37.084   3.743
70208W        W42633  12.808  27.975   2.256
70209W        W42634   7.454   9.269  10.588
70210W        W42635  26.954  43.084   4.758
70211W        W42636  20.066  44.562  10.676
70212W        W42637  18.470  24.521   1.754
70213W        W42638   4.137  41.926  13.509
70214W        W42639  25.052  15.203   1.072
70215W        W42640  24.502  29.729  14.427
70216W        W42641  39.982  21.196   1.099
70217W        W42642  39.861   4.509   0.223
70218W        W42643  18.008  12.799   1.364
70219W        W42644  21.737  33.927  12.436
70220W        W42645  19.183   5.006   4.180
70221W        W42646  26.869  23.334   3.184
70222W        W42647   6.208  12.139  12.250
70223W        W42648  18.384  24.111   1.273
70224W        W42649  34.851  38.947  11.088
70225W        W42650   6.198  22.669  12.872
70226W        W42651  37.525  10.913  10.773
70227W        W42652  27.597   2.948  13.167
70228W        W42653  35.094  39.299  10.736
70229W        W42654  27.890  17.560  13.570
70230W        W42655   4.268  42.208   4.422
70231W        W42656  35.402  19.680  11.125
70232W        W42657  35.360  10.321   4.241
70233W        W42658  33.976  38.507   1.403
70234W        W42659  19.257  31.095   1.776
70235W        W42660  27.730  20.875   0.176
70236W        W42661  27.204  24.208  13.548
70237W        W42662  34.915  25.887   1.409
70238W        W42663   9.330  40.969   3.581
70239W        W42664  19.857   8.621  11.152
70240W        W42665  44.238  41.942   4.492
70241W        W42666  33.026   3.969  12.352
70242W        W42667  35.135   4.903   2.798
70243W        W42668  12.376  40.493   3.214
70244W        W42669  10.401   2.827  13.939
70245W        W42670  12.214  26.742   2.376
70246W        W42671  18.431  16.109  14.709
70247W        W42672  34.909  24.944   0.987
70248W        W42673  21.242  43.244   4.133
70249W        W42674  41.330  38.982  11.520
70250W        W42675  28.629  38.874  11.506
70251W        W42676  28.171  20.603   3.536
70252W        W42677  16.648  43.526  12.298
70253W        W42678  40.041   4.263  13.495
70254W        W42679  37.455  37.858   3.848
70255W        W42680   9.441   5.796  14.766
70256W        W42681  36.586  29.823  13.368
70257W        W42682  43.385  32.859  11.295
70258W        W42683   3.998  23.675  12.148
70259W        W42684  13.856  42.944   3.153
70260W        W42685  43.099   5.800   4.811
70261W        W42686  36.883   8.467  13.044
70262W        W42687  27.116  21.637  12.406
70263W        W42688   3.904  36.590   3.361
70264W        W42689  31.525  21.233   1.925
70265W        W42690  20.009  26.883   2.656
70266W        W42691  34.072  13.891  14.304
70267W        W42692   9.573  43.810   0.503
70268W        W42693   3.687  35.824  14.686
70269W        W42694  34.666  28.148   2.183
70270W        W42695   1.508  31.967  12.586
70271W        W42696  34.368  30.481  13.322
70272W        W42697   2.689  12.696  11.973
70273W        W42698  41.330  39.597  13.831
70274W        W42699  32.824  21.018   0.711
70275W        W42700  33.799  21.788   2.713
70276W        W42701   9.227   8.751   0.383
70277W        W42702   2.949  41.901   1.884
70278W        W42703  39.262  31.115  12.721
70279W        W42704   8.190  17.841  10.559
70280W        W42705  36.624   5.401  14.955
70281W        W42706   0.903  10.428   4.616
70282W        W42707   1.858  40.323  12.815
70283W        W42708  26.653  19.724   3.934
70284W        W42709  43.241  12.132  12.984
70285W        W42710   2.039  43.382   2.141
70286W        W42711  11.799  12.794   3.374
70287W        W42712  11.385   2.019   0.757
70288W        W42713   5.243  42.700   2.344
70289W        W42714  23.947  31.596   0.951
70290W        W42715   2.124  21.205   4.071
70291W        W42716   9.953  23.117   4.517
70292W        W42717   9.089  13.587  12.393
70293W        W42718  33.460  44.934   4.064
70294W        W42719  10.851  37.644   4.146
70295W        W42720  15.442  29.080   3.029
70296W        W42721  15.791  38.986  14.825
70297W        W42722  26.656  22.234   1.817
70298W        W42723  18.185  16.790  13.392
70299W        W42724  11.238  20.102   1.261
70300W        W42725   3.023  32.521   1.461
70301W        W42726   9.407  35.372   0.061
70302W        W42727  13.729  20.944  12.673
70303W        W42728   5.380  10.193  11.573
70304W        W42729  16.465  20.584  13.980
70305W        W42730   3.742  44.150   0.291
70306W        W42731  13.641  43.317   1.804
70307W        W42732  26.471  26.965   4.496
70308W        W42733  21.454  21.060  11.931
70309W        W42734  39.139  26.720  10.438
70310W        W42735  41.375  14.858   1.008
70311W        W42736  23.127   5.413   1.842
70312W        W42737  13.799  14.147   2.390
70313W        W42738  39.908   4.698  14.744
70314W        W42739   0.949  37.786  10.403
70315W        W42740  24.706  37.838  13.331
70316W        W42741  33.421   3.396  14.411
70317W        W42742  26.142  41.219  13.538
70318W        W42743  40.351  26.679   2.862
70319W        W42744  22.646   5.400   0.459
70320W        W42745   9.878  22.732   1.274
70321W        W42746  33.422  21.203  14.480
70322W        W42747  43.372  22.240   2.081
70323W        W42748   4.790  27.577  10.312
70324W        W42749   4.664  43.962   2.821
70325W        W42750  23.993   3.853  10.331
70326W        W42751   5.858  36.010  11.895
70327W        W42752   5.148  27.417  13.475
70328W        W42753  44.341  36.532  10.684
70329W        W42754  20.963  38.774  13.269
70330W        W42755  20.474  18.471   3.567
70331W        W42756  39.539  36.101   1.902
70332W        W42757  10.522  38.567  11.313
70333W        W42758   6.713  16.253  12.911
70334W        W42759  27.037  16.316  13.411
70335W        W42760  30.043  44.444  14.019
70336W        W42761  28.744  18.937   0.420
70337W        W42762   8.597   7.304   3.173
70338W        W42763  18.115  38.750   0.214
70339W        W42764  16.564  28.456   4.360
70340W        W42765   1.560  36.893   2.848
70341W        W42766   0.657  11.813  12.897
70342W        W42767  33.009  14.289   4.855
70343W        W42768  42.978  27.201  11.127
70344W        W42769  23.446  29.530  10.819
70345W        W42770  44.068  21.144  11.849
70346W        W42771   0.751  39.389  11.126
70347W        W42772  10.088  37.113  14.819
70348W        W42773  26.066   8.146   2.857
70349W        W42774  18.786   2.286   4.593
70350W        W42775  20.899  17.243  11.093
70351W        W42776  30.045   9.721   3.644
70352W        W42777  11.638  22.499   0.516
70353W        W42778  30.606  38.892  10.701
70354W        W42779  39.540   4.161  13.494
70355W        W42780  28.210  16.583  11.573
70356W        W42781  31.109  44.216   2.480
70357W        W42782  12.842  36.328  14.954
70358W        W42783  25.524   9.720  11.009
70359W        W42784   0.975  32.195  13.311
70360W        W42785  18.770  44.178   4.285
70361W        W42786  14.646  33.109  13.976
70362W        W42787  12.285  29.355  12.061
70363W        W42788  23.257  18.295   3.574
70364W        W42789  43.932  25.725   0.885
70365W        W42790  24.029   0.707   0.363
70366W        W42791  20.696  43.344  10.789
70367W        W42792  18.127  25.121  14.903
70368W        W42793   8.638  25.938  13.399
70369W        W42794  18.509  32.927   0.934
70370W        W42795  14.768  15.246   0.180
70371W        W42796  12.331  34.678   2.375
70372W        W42797  38.382  39.090  11.106
70373W        W42798  33.504  18.488   9.804
70374W        W42799  26.579  22.335  12.679
70375W        W42800  43.198  23.519   4.320
70376W        W42801   8.403  43.940  14.785
70377W        W42802  28.506  22.788  14.828
70378W        W42803   6.870  17.559   4.217
70379W        W42804  21.505  19.523   3.580
70380W        W42805   4.440   8.196   4.021
70381W        W42806  21.644  20.680   1.790
70382W        W42807  39.481  34.575   1.762
70383W        W42808  42.076   9.731  11.120
70384W        W42809  37.323  38.939  11.942
70385W        W42810   8.970   7.430  13.472
70386W        W42811   1.223  21.742   1.467
70387W        W42812  36.782  22.123  11.576
70388W        W42813   8.641   9.191  13.913
70389W        W42814  16.143  35.069  12.969
70390W        W42815  21.418  18.055  13.410
70391W        W42816  34.885  26.721   0.166
70392W        W42817  31.340  26.724  10.990
70393W        W42818  29.952  28.556  14.324
70394W        W42819  39.316  22.986   2.975
70395W        W42820  32.526  16.420   5.371
70396W        W42821  39.813  21.090  12.386
70397W        W42822  21.161  23.231  13.492
70398W        W42823  20.480  16.938  11.053
70399W        W42824  35.352  14.639   0.455
70400W        W42825  22.698   8.708  13.832
70401W        W42826  31.398  27.590   2.256
70402W        W42827  41.514  39.547   2.658
70403W        W42828  12.627  39.569   1.651
70404W        W42829   9.888  25.065   2.419
70405W        W42830  38.389  42.697  10.999
70406W        W42831  13.764  14.190   0.938
70407W        W42832  25.031   9.169   3.783
70408W        W42833  39.565   5.120  11.556
70409W        W42834  20.153   1.503  11.886
70410W        W42835  33.700  17.819   5.005
70411W        W42836  19.872  21.743   3.304
70412W        W42837  15.421  25.574   3.701
70413W        W42838  38.633  39.437   1.787
70414W        W42839   2.501  24.747  13.871
70415W        W42840  17.258  32.935   0.181
70416W        W42841  44.645  10.190   0.219
70417W        W42842  22.542  21.658  10.737
70418W        W42843  36.675  25.168   1.196
70419W        W42844  22.936   5.834   2.826
70420W        W42845   2.725  35.899   2.535
70421W        W42846  32.495  18.602   5.549
70422W        W42847  41.238  35.231   3.733
70423W        W42848  12.139   2.932   1.805
70424W        W42849   1.681   8.163  14.958
70425W        W42850  24.711  37.554  14.264
70426W        W42851   6.684  33.764  14.436
70427W        W42852   4.980  18.088  12.337
70428W        W42853  34.690   6.760  14.446
70429W        W42854  10.204   1.955  10.636
70430W        W42855  15.638   2.556  14.917
70431W        W42856   7.731  19.816  14.567
70432W        W42857  36.120  16.089   1.419
70433W        W42858  38.798  14.685  13.898
70434W        W42859  40.825  25.631   1.854
70435W        W42860  15.079   5.450  11.645
70436W        W42861  17.305  15.619  12.516
70437W        W42862  23.721  43.794   1.019
70438W        W42863   5.004  11.894  11.462
70439W        W42864  17.476   9.486  12.839
70440W        W42865   3.326  42.412   0.471
70441W        W42866  39.778  42.807  14.796
70442W        W42867  30.452  15.742  10.943
70443W        W42868  41.756  28.246   0.740
70444W        W42869  35.813   3.821  11.970
70445W        W42870  15.544  42.830   2.245
70446W        W42871  17.928  15.812  13.857
70447W        W42872  28.237  17.805   2.197
70448W        W42873  23.707  28.666   0.500
70449W        W42874   8.778  34.863  11.152
70450W        W42875   0.145   1.960  14.552
70451W        W42876  40.392  38.876   0.291
70452W        W42877   7.777  40.146  11.666
70453W        W42878  16.982  31.168  13.277
70454W        W42879  26.952  43.355   1.654
70455W        W42880  34.662  28.621   2.424
70456W        W42881  37.876  21.527  12.080
70457W        W42882   9.975  33.563  14.039
70458W        W42883  28.155  30.461   3.318
70459W        W42884  15.635   3.295  14.280
70460W        W42885   7.492  20.664  11.668
70461W        W42886  12.722  27.512   3.677
70462W        W42887  41.845   0.503   4.047
70463W        W42888  10.720  38.058   4.433
70464W        W42889  19.222  31.932  14.901
70465W        W42890   2.888  35.316   0.788
70466W        W42891  20.806   9.871   2.708
70467W        W42892   7.839  44.704  14.900
70468W        W42893  11.245  22.980  13.519
70469W        W42894  34.830  16.511   2.287
70470W        W42895  15.871  25.092   1.429
70471W        W42896   3.151  37.315   4.165
70472W        W42897  35.731  38.630  11.945
70473W        W42898  34.357  23.731   2.338
70474W        W42899   2.443  22.142   3.801
70475W        W42900  38.217   6.974  11.082
70476W        W42901   5.935  40.362  14.403
70477W        W42902  11.761  33.222  13.621
70478W        W42903  19.208  26.193   0.546
70479W        W42904  12.449  20.298   2.279
70480W        W42905  12.588  17.174   0.023
70481W        W42906  44.867  44.278   0.556
70482W        W42907  27.025  15.327  14.486
70483W        W42908  36.426   0.088  13.538
70484W        W42909  28.594  20.960  14.827
70485W        W42910  32.545  12.120   3.167
70486W        W42911   8.736  21.749  12.117
70487W        W42912  35.092  20.935  11.135
70488W        W42913  13.712  27.928   1.896
70489W        W42914  30.063   5.740  12.504
70490W        W42915  21.127  15.858  13.342
70491W        W42916  19.087  30.051  14.776
70492W        W42917  27.924  44.241  14.910
70493W        W42918  30.352  21.792  10.698
70494W        W42919  18.037  41.051   2.326
70495W        W42920  39.023  31.465   4.107
70496W        W42921   5.351  14.322   0.449
70497W        W42922  23.446  17.811   3.419
70498W        W42923   6.825  21.273   2.733
70499W        W42924   9.412  16.003  13.314
70500W        W42925   5.987   3.343  12.898
70501W        W42926  24.084  27.917   2.317
70502W        W42927  29.274  39.377  14.087
70503W        W42928  19.165   0.227   2.339
70504W        W42929  24.514  42.349  10.849
70505W        W42930  17.315  22.701   2.741
70506W        W42931  30.434  17.251  10.648
70507W        W42932  44.726   2.247  12.849
70508W        W42933  23.596  26.615   0.170
70509W        W42934   1.759  12.545  11.757
70510W        W42935  23.582   3.249  14.437
70511W        W42936   9.950   0.911  10.742
70512W        W42937  35.424   0.321  11.409
70513W        W42938  36.380  14.214   1.293
70514W        W42939  27.123  23.758   3.226
70515W        W42940  24.363  42.551   4.050
70516W        W42941  25.858   8.820   4.237
70517W        W42942  21.668  29.877   2.220
70518W        W42943   2.482  21.707  13.230
70519W        W42944  34.379  34.090   3.636
70520W        W42945  24.438  25.665  12.204
70521W        W42946  38.454  16.588  13.204
70522W        W42947  30.568   7.425   1.667
70523W        W42948   7.769  14.844  11.063
70524W        W42949  12.603  19.829   3.573
70525W        W42950  30.338   8.436  13.492
70526W        W42951   3.643  41.596   4.104
70527W        W42952   1.152  18.264  14.797
70528W        W42953  39.053  28.049  11.994
70529W        W42954  43.422  24.655   0.276
70530W        W42955  28.087  33.475   9.845
70531W        W42956   6.793  33.121  14.070
70532W        W42957  18.582  23.673   3.405
70533W        W42958   2.294  11.173   0.008
70534W        W42959  44.469   1.927   2.021
70535W        W42960  12.694   7.219  10.978
70536W        W42961  31.881  24.546  11.665
70537W        W42962  28.212  26.243  11.540
70538W        W42963  12.541   3.207  14.959
70539W        W42964   8.725  11.151   4.848
70540W        W42965  22.296  12.799   1.858
70541W        W42966  29.710  22.120  13.575
70542W        W42967   9.648  31.557   1.200
70543W        W42968  43.775  24.660   3.695
70544W        W42969  30.996  21.077   1.309
70545W        W42970  20.988  35.508  13.824
70546W        W42971  16.646   8.168   4.731
70547W        W42972  28.015  30.361  11.341
70548W        W42973  14.593   4.596   4.300
70549W        W42974  36.862  37.476  12.494
70550W        W42975  12.500  19.502  11.559
70551W        W42976  35.883   3.274   1.837
70552W        W42977  25.937  16.853  10.628
70553W        W42978  10.790  36.423  10.559
70554W        W42979  13.173  32.978   0.070
70555W        W42980  44.606  12.289   1.401
70556W        W42981   6.693  16.139   4.580
70557W        W42982  29.507  41.133   1.533
70558W        W42983  35.578  15.491   0.022
70559W        W42984  18.497   9.347  12.012
70560W        W42985  36.802  19.806  14.923
70561W        W42986  26.135  30.896  12.680
70562W        W42987  34.738  27.260   2.256
70563W        W42988  17.932   0.891   4.144
70564W        W42989  41.258   3.207   2.289
70565W        W42990  13.941  44.971   0.343
70566W        W42991   4.645  23.621   3.646
70567W        W42992  36.959   2.216  14.067
70568W        W42993  43.513   7.723   2.690
70569W        W42994  37.308  18.750   0.875
70570W        W42995  42.913  41.467   4.717
70571W        W42996  40.431  22.155  14.691
70572W        W42997  25.292  11.214   0.896
70573W        W42998  13.297  14.318   2.184
70574W        W42999  26.938   3.337  12.381
70575W        W43000  26.265  41.076  10.817
70576W        W43001  40.021  38.066   0.342
70577W        W43002  38.627  40.343  11.751
70578W        W43003  15.210  35.992   3.178
70579W        W43004   3.671  33.626   4.569
70580W        W43005   6.748  15.120  14.419
70581W        W43006   4.461   0.923   1.406
70582W        W43007  34.446  31.106   4.592
70583W        W43008  19.273  10.603  12.099
70584W        W43009  39.559  14.730  12.572
70585W        W43010   6.203   0.025  13.560
70586W        W43011  27.103   3.727   0.362
70587W        W43012  16.096  44.916   0.962
70588W        W43013  29.869  33.019   3.214
70589W        W43014  22.299  41.975  14.940
70590W        W43015  10.317  10.607  14.167
70591W        W43016  31.627  18.167   2.399
70592W        W43017   9.409  17.771   2.786
70593W        W43018   4.297   9.593   3.864
70594W        W43019  17.733   5.522   3.808
70595W        W43020  29.661  12.208  13.045
70596W        W43021  14.629  32.930  11.595
70597W        W43022   3.262  32.282   0.060
70598W        W43023   8.712  28.304  11.563
70599W        W43024  25.103  30.151  14.191
70600W        W43025  13.032  30.107  11.967
70601W        W43026  21.715   0.578  12.924
70602W        W43027  39.150  31.336  12.132
70603W        W43028  12.813  33.523   4.534
70604W        W43029  33.536  36.617  13.067
70605W        W43030  20.995   3.881   0.418
70606W        W43031  32.911  14.279  13.057
70607W        W43032   9.187  34.401  14.877
70608W        W43033  41.033  32.358   0.922
70609W        W43034  43.047  28.055  13.854
70610W        W43035  21.518  35.975   4.580
70611W        W43036  10.805  21.287  14.002
70612W        W43037  18.591  13.025  12.606
70613W        W43038  43.502  17.178   1.060
70614W        W43039  21.420  20.042  11.458
70615W        W43040  30.133  39.549  10.783
70616W        W43041  33.054   8.435   1.924
70617W        W43042  38.918  28.352   4.118
70618W        W43043  38.855   9.588  13.568
70619W        W43044  20.958  25.734   4.515
70620W        W43045  14.680  17.583  13.862
70621W        W43046  33.128  31.308  13.323
70622W        W43047  38.000  28.085   4.437
70623W        W43048   0.907  36.395   0.906
70624W        W43049  28.204  15.072   4.774
70625W        W43050   6.727  16.645   1.630
70626W        W43051  35.376  39.308  11.577
70627W        W43052  12.679  44.290   3.411
70628W        W43053  17.509  23.012  14.782
70629W        W43054  17.716   2.811  14.360
70630W        W43055  40.077  34.177   4.045
70631W        W43056   5.181  36.191  12.662
70632W        W43057  28.872   5.245   4.651
70633W        W43058   3.873  43.669   2.194
70634W        W43059  10.778  39.819   0.401
70635W        W43060  35.894  23.505  14.106
70636W        W43061  14.222  13.797   1.868
70637W        W43062  41.075  14.567   5.102
70638W        W43063  15.668  30.945   5.084
70639W        W43064  11.189  28.620  13.596
70640W        W43065  30.671   1.839  12.174
70641W        W43066  19.783  23.772  12.547
70642W        W43067   5.271  23.529   4.407
70643W        W43068   0.930  25.287   2.236
70644W        W43069  17.599  31.775  13.532
70645W        W43070   7.984  27.987  12.549
70646W        W43071   8.770  11.641  14.859
70647W        W43072  42.240  30.237  11.651
70648W        W43073  28.985  10.210  10.460
70649W        W43074  41.164  44.439   2.993
70650W        W43075  35.362   5.916   4.501
70651W        W43076  27.436  18.065   2.204
70652W        W43077  25.245  32.949  13.951
70653W        W43078  25.700  13.645  13.048
70654W        W43079   2.628  20.139  12.586
70655W        W43080  10.869  38.879   2.744
70656W        W43081  19.272   3.776  12.501
70657W        W43082  36.069  26.568  14.009
70658W        W43083   4.154  21.152  11.924
70659W        W43084  28.447  41.209  11.656
70660W        W43085  43.514  30.015   1.235
70661W        W43086  27.305  31.556  13.283
70662W        W43087  21.021   9.210   0.055
70663W        W43088   8.854   4.039  13.898
70664W        W43089  33.667   8.171  11.619
70665W        W43090  11.571  43.809  10.700
70666W        W43091  28.072  18.051  13.910
70667W        W43092  14.310  35.412  13.811
70668W        W43093  21.024   6.285  13.035
70669W        W43094  22.988  29.575   0.910
70670W        W43095  38.811  32.893   4.974
70671W        W43096  40.641  12.293   3.102
70672W        W43097  32.149  21.252  12.426
70673W        W43098  25.161  20.229  11.968
70674W        W43099  28.127   9.149   3.256
70675W        W43100  28.412  35.964  10.840
70676W        W43101   7.529  32.331  10.624
70677W        W43102   1.952   2.858   3.780
70678W        W43103   2.004   1.247   0.955
70679W        W43104  21.581  42.071  10.746
70680W        W43105   7.657  31.157   2.854
70681W        W43106  24.617  42.618  10.409
70682W        W43107   4.764  13.927  10.489
70683W        W43108  36.835  14.181   5.086
70684W        W43109  21.697  26.263  10.688
70685W        W43110   0.830  34.949  10.768
70686W        W43111  22.742  10.483  12.119
70687W        W43112  29.596  35.840   3.570
70688W        W43113  31.201  29.014  10.668
70689W        W43114  23.513   9.276   3.819
70690W        W43115  15.592  36.929   0.238
70691W        W43116  23.838   4.292  14.407
70692W        W43117  30.469  12.896   0.466
70693W        W43118  37.539  35.652   4.748
70694W        W43119  34.095  31.464   4.750
70695W        W43120  29.691  10.195   2.325
70696W        W43121  10.998  33.259   4.197
70697W        W43122  21.476  21.680   2.263
70698W        W43123   0.153  12.306  12.548
70699W        W43124  42.251  11.168   0.451
70700W        W43125  34.156  23.126   4.633
70701W        W43126   2.131   9.637  14.910
70702W        W43127  10.296  41.498  12.699
70703W        W43128   8.636   4.995  11.993
70704W        W43129  21.525   6.978  13.882
70705W        W43130  21.724  37.745   3.770
70706W        W43131  14.306  35.322  11.232
70707W        W43132  14.379   7.651  13.523
70708W        W43133  44.343  11.702  11.176
70709W        W43134  22.686  20.045  14.832
70710W        W43135  44.559  23.122   4.103
70711W        W43136   9.429  41.325   2.273
70712W        W43137  25.213  18.965   0.435
70713W        W43138   6.466  37.054  11.010
70714W        W43139  38.758  23.181   3.855
70715W        W43140  40.038  32.200  12.658
70716W        W43141  31.592  17.639   4.523
70717W        W43142  14.654  23.922   5.635
70718W        W43143  10.378  39.453  11.907
70719W        W43144  20.783   1.848  14.570
70720W        W43145   4.295   3.254  10.630
70721W        W43146  20.165  14.864   2.321
70722W        W43147  34.485   2.870   2.555
70723W        W43148  44.771  41.999  10.431
70724W        W43149  39.643  39.997  13.968
70725W        W43150  31.776  12.124   2.358
70726W        W43151  12.727  21.150   4.796
70727W        W43152   2.730  39.882   1.293
70728W        W43153  33.316  40.905  13.336
70729W        W43154   3.721   8.301  11.522
70730W        W43155   0.163  10.273  11.588
70731W        W43156   0.173  35.011  11.484
70732W        W43157   5.898  40.357   0.859
70733W        W43158   8.576   5.839  11.168
70734W        W43159   5.356   1.793   3.615
70735W        W43160  20.102  28.913   3.591
70736W        W43161  29.680  28.201  14.697
70737W        W43162  32.926  22.162  14.494
70738W        W43163  17.635  43.435   3.593
70739W        W43164  39.959   7.611   3.703
70740W        W43165  40.543  15.742   3.550
70741W        W43166  25.763  22.792  14.376
70742W        W43167  26.006  23.148  13.387
70743W        W43168  16.332  27.071   1.948
70744W        W43169  19.766  27.371  11.153
70745W        W43170  20.378  11.435   0.410
70746W        W43171  28.593   4.290   1.666
70747W        W43172  20.779   7.336  10.995
70748W        W43173  27.092  13.232  11.600
70749W        W43174  26.794  32.966  13.367
70750W        W43175  19.064  32.119  10.219
70751W        W43176  16.108  36.336  14.666
70752W        W43177  35.572  26.173   2.817
70753W        W43178  26.085  27.320  13.028
70754W        W43179  31.155  14.821   1.865
70755W        W43180  14.844  39.590   1.944
70756W        W43181  44.822  32.970  11.547
70757W        W43182  44.282  27.659  11.887
70758W        W43183  42.294  13.277   3.752
70759W        W43184  20.881  22.535   0.858
70760W        W43185  29.659  16.148  14.448
70761W        W43186  24.445  33.440  14.267
70762W        W43187  10.386  25.472  10.700
70763W        W43188  29.427  19.926   4.329
70764W        W43189  27.067   3.846  10.741
70765W        W43190  35.889  12.910  11.129
70766W        W43191  26.653  40.104  13.834
70767W        W43192  35.718  12.363  12.352
70768W        W43193  10.738  20.514  11.941
70769W        W43194  37.463  10.034   2.773
70770W        W43195  36.490  32.518   4.346
70771W        W43196   4.266  24.467   2.351
70772W        W43197   0.709  33.214   3.345
70773W        W43198   9.859  24.213   0.441
70774W        W43199  20.437  14.254  10.506
70775W        W43200  44.234  26.897  12.774
70776W        W43201  22.873  11.591   4.538
70777W        W43202   8.915  25.682  13.780
70778W        W43203  39.081  41.235  10.295
70779W        W43204  29.550   5.267   3.413
70780W        W43205  21.264  18.182   2.573
70781W        W43206   1.558  19.744  11.035
70782W        W43207  43.643  33.554  11.236
70783W        W43208   8.555  31.938   3.818
70784W        W43209  24.800  31.465  13.780
70785W        W43210   4.506  44.808  11.974
70786W        W43211   7.308  34.442  11.905
70787W        W43212   1.560  35.400  10.765
70788W        W43213  34.976  43.213   0.028
70789W        W43214   0.117  22.591   0.877
70790W        W43215  10.840  42.734   4.565
70791W        W43216  11.732  44.726  10.923
70792W        W43217  23.594  39.932  13.692
70793W        W43218  14.907  28.447   2.855
70794W        W43219  39.822  24.587   4.571
70795W        W43220  28.017   1.196   4.720
70796W        W43221  14.523   0.602   0.551
70797W        W43222  10.612  32.215   2.323
70798W        W43223  41.094  24.473   4.664
70799W        W43224  29.360  13.077  14.275
70800W        W43225  33.355  31.906  11.208
70801W        W43226   8.003   6.297  10.073
70802W        W43227  25.611  18.035   0.680
70803W        W43228   6.352  33.028  13.823
70804W        W43229   7.708  40.425   3.193
70805W        W43230   5.695  22.605   0.699
70806W        W43231   6.434   3.412   4.041
70807W        W43232  24.414  36.126  12.875
70808W        W43233  43.943   0.036   3.314
70809W        W43234  17.198  16.727  13.360
70810W        W43235  14.743  13.082   3.345
70811W        W43236  42.632  27.885   4.557
70812W        W43237   3.677  29.166   2.272
70813W        W43238  40.334  19.542  12.908
70814W        W43239  29.019   8.445   4.114
70815W        W43240  23.981  30.202   2.722
70816W        W43241  40.016  12.393   3.833
70817W        W43242  19.581  34.530  11.109
70818W        W43243  38.503  19.574  12.107
70819W        W43244  13.105  37.160   3.695
70820W        W43245   1.695  35.917  10.744
70821W        W43246  11.420  37.942  14.221
70822W        W43247  27.967  36.923  14.868
70823W        W43248  20.305  39.038   4.504
70824W        W43249  41.882   4.276  13.087
70825W        W43250  35.062  38.089   0.919
70826W        W43251  41.031   9.864  11.143
70827W        W43252  35.881  41.101   2.353
70828W        W43253  31.037  15.165   1.484
70829W        W43254  15.751  40.775  11.085
70830W        W43255  12.149  27.927   3.294
70831W        W43256  39.531   6.458  11.065
70832W        W43257  10.707   5.288   1.500
70833W        W43258  37.442   5.373   4.101
70834W        W43259  34.869  24.613   3.182
70835W        W43260  35.687  38.518  13.399
70836W        W43261  44.218  36.960  12.090
70837W        W43262  13.313  21.967  14.529
70838W        W43263   7.760  24.263  12.526
70839W        W43264  36.395  44.103   0.348
70840W        W43265  12.998   8.713  14.734
70841W        W43266  22.042   0.769   3.051
70842W        W43267   0.973  18.251  12.919
70843W        W43268   6.879  42.524   0.446
70844W        W43269  41.204  33.723  10.811
70845W        W43270  29.121   3.266  14.475
70846W        W43271  12.660  28.506   3.697
70847W        W43272  26.688   4.694  13.325
70848W        W43273   0.496  24.355   4.812
70849W        W43274  34.479  26.224   4.386
70850W        W43275   8.327  35.091  10.264
70851W        W43276  39.306  43.804  13.398
70852W        W43277  26.132  32.925   2.692
70853W        W43278  42.237  36.606   1.848
70854W        W43279  37.046  37.291  13.950
70855W        W43280   8.366  36.317  12.317
70856W        W43281  27.718  34.494   0.883
70857W        W43282   9.687  30.027   2.351
70858W        W43283   5.785  23.744   1.138
70859W        W43284  13.749  38.525   3.931
70860W        W43285  16.059  43.375   0.988
70861W        W43286  39.555  26.077  14.461
70862W        W43287  17.513  28.969  13.212
70863W        W43288  32.100  21.313   5.260
70864W        W43289  29.774  22.057   1.005
70865W        W43290  19.185   5.207  12.873
70866W        W43291  35.248  22.564  11.598
70867W        W43292  21.157  37.919  14.386
70868W        W43293  20.944  32.023  11.551
70869W        W43294  18.186  34.438  13.290
70870W        W43295  20.758  36.507  13.472
70871W        W43296  30.163  42.735  10.891
70872W        W43297   7.230  26.162   1.664
70873W        W43298  37.590  31.482  11.126
70874W        W43299  15.483  35.535   0.368
70875W        W43300  44.792  35.699   1.809
70876W        W43301  30.422  35.809  10.989
70877W        W43302  11.667  13.074  13.554
70878W        W43303  26.705  27.990   0.401
70879W        W43304  15.560  43.979   3.839
70880W        W43305  20.069  40.954   2.770
70881W        W43306  34.187  28.533   1.744
70882W        W43307  16.237  20.027  13.825
70883W        W43308  27.537  31.642   0.226
70884W        W43309  18.737   8.080   1.719
70885W        W43310  39.847  13.121   2.176
70886W        W43311  20.618   8.674   1.771
70887W        W43312  42.520   2.893  11.573
70888W        W43313  36.155   2.244  10.507
70889W        W43314  25.550  15.702   5.010
70890W        W43315  18.089  20.292  12.972
70891W        W43316  21.034   1.747  11.499
70892W        W43317  25.936   8.224  12.689
70893W        W43318  13.105  27.661   0.358
70894W        W43319   6.112  10.779  12.448
70895W        W43320   4.734   3.499  14.763
70896W        W43321  42.071  22.998  12.905
70897W        W43322   3.880  30.741   1.861
70898W        W43323  39.060  21.071  13.077
70899W        W43324   0.805  10.087   4.179
70900W        W43325  31.895   5.407   3.164
70901W        W43326  25.382  35.951  14.272
70902W        W43327  30.632   6.913  11.616
70903W        W43328  37.865  40.765   9.935
70904W        W43329  13.212  11.547   5.021
70905W        W43330   1.166  31.163  10.738
70906W        W43331  41.591  22.520  11.569
70907W        W43332  16.576  40.862  10.815
70908W        W43333   7.077  40.315  12.846
70909W        W43334  25.740  37.452  14.141
70910W        W43335  36.389  41.122  12.030
70911W        W43336  36.632  36.042  13.319
70912W        W43337  16.576  17.394   4.275
70913W        W43338  24.662  28.139   3.158
70914W        W43339  36.952  28.571   3.236
70915W        W43340  27.155  11.038   4.087
70916W        W43341  31.851  24.298  13.940
70917W        W43342  11.052   5.111  10.075
70918W        W43343  41.744  43.890   2.642
70919W        W43344  30.997  31.597  14.874
70920W        W43345  42.480  23.089   1.489
70921W        W43346   0.959  41.379   5.073
70922W        W43347  24.143  37.073   1.694
70923W        W43348  30.438  36.270   3.250
70924W        W43349  11.292  19.079   0.232
70925W        W43350  40.773   1.123  14.348
70926W        W43351  39.272  36.828  12.434
70927W        W43352  30.493  43.717   3.121
70928W        W43353   9.353  32.146   0.595
70929W        W43354  35.090  39.384   1.718
70930W        W43355  21.960   1.725   4.128
70931W        W43356   6.338  15.910  10.387
70932W        W43357  12.122   7.887   4.592
70933W        W43358   1.229  43.843   3.713
70934W        W43359   3.425  41.042   1.631
70935W        W43360   0.992  33.172   4.623
70936W        W43361   3.923  15.076   0.689
70937W        W43362  12.649  19.783  11.121
70938W        W43363  27.929  32.403   3.785
70939W        W43364   9.181  28.230   1.048
70940W        W43365  21.712  33.624   2.186
70941W        W43366   0.484   5.489  12.208
70942W        W43367   4.929  44.270   1.948
70943W        W43368   6.915   8.259   0.781
70944W        W43369  39.004  39.580   2.122
70945W        W43370  34.959  36.830   1.289
70946W        W43371  39.472  26.227  11.011
70947W        W43372  38.040  24.080   0.809
70948W        W43373  27.112  43.811   1.883
70949W        W43374  29.348  20.180   0.555
70950W        W43375   3.985   4.764  10.678
70951W        W43376  16.098  30.057  10.391
70952W        W43377  36.986  21.514   4.134
70953W        W43378   6.414  28.773  14.528
70954W        W43379   0.514  27.028   0.503
70955W        W43380  41.854  32.853  14.950
70956W        W43381  21.283  35.270   1.245
70957W        W43382  28.061  12.181  11.546
70958W        W43383  22.048  27.908  11.961
70959W        W43384  42.132  38.875   2.843
70960W        W43385  39.632  39.217   3.718
70961W        W43386   8.584  11.152  14.823
70962W        W43387  13.270  27.006  14.657
70963W        W43388  13.310   4.325   3.250
70964W        W43389  27.027  31.165   2.600
70965W        W43390  35.124  36.013  11.629
70966W        W43391  39.948  17.188   2.445
70967W        W43392  36.039  40.598  12.688
70968W        W43393  20.204  39.472   0.968
70969W        W43394  23.580  31.893   0.554
70970W        W43395  44.581  37.936  10.414
70971W        W43396  24.453  14.860  13.361
70972W        W43397   8.559  11.128  13.829
70973W        W43398   1.005  19.623   1.821
70974W        W43399  15.202   2.523  12.509
70975W        W43400  32.097   3.201  13.006
70976W        W43401  40.873  28.771  11.151
70977W        W43402  35.000  33.351  12.007
70978W        W43403  16.144  25.587   1.277
70979W        W43404  28.933  44.846  14.507
70980W        W43405   4.189   3.776   2.285
70981W        W43406  24.021  39.759  14.375
70982W        W43407  30.700  42.964  10.688
70983W        W43408  14.217  40.570   0.924
70984W        W43409  26.592   1.540  14.534
70985W        W43410  11.815  14.129  12.564
70986W        W43411   8.471  30.151  11.553
70987W        W43412  33.700  19.860   0.288
70988W        W43413  43.148  27.882  11.534
70989W        W43414   4.468   4.672   3.961
70990W        W43415  41.077  15.159  12.995
70991W        W43416   4.524   8.472  12.200
70992W        W43417  32.640  11.128   4.169
70993W        W43418  30.983  24.184  14.591
70994W        W43419  36.346  37.873   1.355
70995W        W43420   1.769  15.963  13.094
70996W        W43421  31.206   3.484   1.322
70997W        W43422  30.181  34.344  14.859
70998W        W43423  21.985  38.065  10.596
70999W        W43424  39.955  44.986   0.337
71000W        W43425  16.066  24.773   0.558
71001W        W43426  25.967  30.415   1.373
71002W        W43427  24.301  19.164   0.478
71003W        W43428   3.688  19.605  12.548
71004W        W43429  26.955  33.037   5.604
71005W        W43430  28.333   3.376  14.994
71006W        W43431  33.846  39.275  13.838
71007W        W43432  12.599   7.760  13.364
71008W        W43433   1.971   4.292  12.630
71009W        W43434   4.822  24.549   4.978
71010W        W43435  33.393  32.228  13.413
71011W        W43436  22.022  11.812   4.695
71012W        W43437  16.370  31.278   3.348
71013W        W43438  33.562  17.779  13.449
71014W        W43439  12.352  18.339  11.565
71015W        W43440  33.037  39.429  12.403
71016W        W43441  31.441   3.421  12.394
71017W        W43442  32.844  26.000   0.983
71018W        W43443  40.198  13.584   0.256
71019W        W43444  33.041  11.832   2.945
71020W        W43445  34.429  43.791  12.922
71021W        W43446  43.383  15.737  10.791
71022W        W43447   7.917  43.277  13.941
71023W        W43448  41.342  42.874  11.627
71024W        W43449  39.345  13.440  13.811
71025W        W43450  38.548  14.291   2.976
71026W        W43451  37.893  33.515   1.708
71027W        W43452   4.333  18.830  11.470
71028W        W43453  32.597  29.898  13.432
71029W        W43454  40.255  12.874  10.694
71030W        W43455  35.992   7.214  14.595
71031W        W43456  34.125  30.427   1.224
71032W        W43457  10.139  20.764  12.858
71033W        W43458  21.278   7.363   4.183
71034W        W43459  29.276  37.399   5.091
71035W        W43460  21.029  10.622   0.243
71036W        W43461  22.453   0.932   3.325
71037W        W43462  16.606  31.438   0.152
71038W        W43463  29.536  33.689  14.518
71039W        W43464   5.654  14.064  11.942
71040W        W43465   0.347  10.674  14.788
71041W        W43466  44.290  31.438   4.372
71042W        W43467  12.632  32.871  10.748
71043W        W43468  23.616  26.028  12.582
71044W        W43469  30.392  24.904  14.371
71045W        W43470  26.599  12.152   4.630
71046W        W43471  27.737  42.569  11.009
71047W        W43472  34.785  32.632   4.107
71048W        W43473  35.844  15.329  13.409
71049W        W43474  19.322  23.277   1.389
71050W        W43475  19.300   0.991   2.702
71051W        W43476  13.650  31.347  14.792
71052W        W43477  42.354  23.231  13.387
71053W        W43478  21.290  32.434   4.510
71054W        W43479  12.781  39.637  13.254
71055W        W43480   5.840  20.335   0.009
71056W        W43481  34.958  30.238   1.776
71057W        W43482  40.560   6.385  13.881
71058W        W43483  36.632  41.865   3.352
71059W        W43484   5.502   1.990   4.626
71060W        W43485  20.267  17.713  10.498
71061W        W43486  24.180   3.350   1.936
71062W        W43487   0.042  36.286   1.072
71063W        W43488  14.076  29.910  11.110
71064W        W43489   6.603   3.919   2.615
71065W        W43490  32.611  12.576  14.320
71066W        W43491  22.830   7.402  13.495
71067W        W43492  15.973  21.563  12.398
71068W        W43493  28.576  30.589  14.388
71069W        W43494   9.724   8.845   5.534
71070W        W43495  36.318  15.826   4.464
71071W        W43496  12.501  41.552   1.838
71072W        W43497   9.437  19.773   2.928
71073W        W43498   8.616  11.668   4.628
71074W        W43499  22.555  22.541   0.541
71075W        W43500  30.644  28.551  10.655
71076W        W43501  26.679   7.763  14.545
71077W        W43502  10.214  26.154   4.709
71078W        W43503  35.700   2.920   1.175
71079W        W43504  19.795   1.455  14.766
71080W        W43505  40.473  36.458  13.518
71081W        W43506  13.894  15.821   4.534
71082W        W43507  26.239  13.567  11.138
71083W        W43508  19.253  13.295  14.911
71084W        W43509   2.191  16.782   1.290
71085W        W43510  40.752  36.331   2.803
71086W        W43511  18.681  22.677  14.722
71087W        W43512   2.748  17.111   3.251
71088W        W43513  30.655   1.298   4.552
71089W        W43514   3.733  29.488  11.574
71090W        W43515  25.978   7.137   2.655
71091W        W43516  23.038  13.369   2.620
71092W        W43517  24.150  19.703   3.197
71093W        W43518  13.427  39.849   2.393
71094W        W43519   4.216  42.719   4.562
71095W        W43520   0.208  21.421  12.988
71096W        W43521  24.676   1.340  14.402
71097W        W43522  20.018  10.446   0.471
71098W        W43523  30.094  10.178  11.033
71099W        W43524  10.096   0.544   3.896
71100W        W43525  12.849  22.245  10.136
71101W        W43526   5.322  22.578  13.043
71102W        W43527  35.121   1.451  12.121
71103W        W43528  11.908  40.254   0.714
71104W        W43529  44.339   3.262   0.734
71105W        W43530  34.301  22.768  12.094
71106W        W43531  35.564  23.349  11.629
71107W        W43532  28.900  37.607  10.666
71108W        W43533  30.904  14.361   2.765
71109W        W43534   6.339  32.116  11.981
71110W        W43535  28.554  22.104  14.064
71111W        W43536  31.864  32.899  12.838
71112W        W43537  28.257  11.607   1.480
71113W        W43538  32.578  14.510   5.095
71114W        W43539   7.185  37.144  13.521
71115W        W43540  42.936  11.387   1.857
71116W        W43541   2.452  37.803   0.057
71117W        W43542  39.792   2.719   4.217
71118W        W43543  10.746   9.615   0.795
71119W        W43544  17.795  27.729   2.811
71120W        W43545  42.860  10.924   4.044
71121W        W43546   2.408  30.465  10.713
71122W        W43547  44.468  31.009   4.150
71123W        W43548   5.409  37.887  10.900
71124W        W43549  18.976  18.289  12.562
71125W        W43550  31.165  22.053   4.123
71126W        W43551  13.326   6.254   1.518
71127W        W43552  13.513  26.092   1.969
71128W        W43553  36.471  22.931   1.720
71129W        W43554  27.608  21.414  13.542
71130W        W43555   4.703  16.801  12.165
71131W        W43556  18.388  18.990   4.246
71132W        W43557  42.517  11.378   0.876
71133W        W43558  25.479   6.750  12.119
71134W        W43559  29.973  17.727  10.276
71135W        W43560  32.081  10.359   1.957
71136W        W43561  42.471  43.961  11.000
71137W        W43562  33.312  11.576  10.900
71138W        W43563  31.141  18.302  12.288
71139W        W43564   0.887  23.039   0.509
71140W        W43565   1.006  30.444   2.693
71141W        W43566  32.947  29.077  14.895
71142W        W43567  14.449  38.620  11.053
71143W        W43568  42.813   2.032   0.115
71144W        W43569  38.863  11.680  11.561
71145W        W43570  37.106  43.848   2.319
71146W        W43571   0.445  27.870  14.996
71147W        W43572  20.543  26.976   2.596
71148W        W43573   3.479  41.613  11.667
71149W        W43574  35.419  29.963  12.610
71150W        W43575  14.273  42.451   2.187
71151W        W43576   0.196  12.296  14.430
71152W        W43577  38.864  36.398   0.798
71153W        W43578   9.959   8.975   5.102
71154W        W43579  26.309   1.808   3.576
71155W        W43580  15.548  17.448   1.807
71156W        W43581  15.366  14.956  11.161
71157W        W43582   0.756  32.899  13.828
71158W        W43583  14.337  34.894  14.871
71159W        W43584  42.494  43.454  12.115
71160W        W43585   0.653  39.043   2.464
71161W        W43586  42.913  14.083  12.623
71162W        W43587  34.268  21.024   3.728
71163W        W43588  28.072  11.119  12.597
71164W        W43589   4.232  16.064  13.957
71165W        W43590  30.680   2.839  12.384
71166W        W43591  31.370  30.613  14.166
71167W        W43592  21.566  37.917  11.598
71168W        W43593  44.833  10.859   1.761
71169W        W43594  31.061  14.596  14.288
71170W        W43595  39.938  44.018  10.599
71171W        W43596   7.182  20.165   3.171
71172W        W43597  30.603   1.876  14.839
71173W        W43598   8.674  35.015   4.788
71174W        W43599  39.268  41.367   1.398
71175W        W43600   6.121  10.861   1.251
71176W        W43601  10.284  10.214  11.042
71177W        W43602  29.123  23.502   0.229
71178W        W43603   5.288  41.394   0.331
71179W        W43604  12.183  21.258  12.123
71180W        W43605  12.203  43.758  14.840
71181W        W43606  43.757  11.765  14.928
71182W        W43607   4.724  21.706   4.621
71183W        W43608  14.322  12.306  13.433
71184W        W43609   2.728  14.950  14.476
71185W        W43610  18.146   4.603  13.333
71186W        W43611  33.903  35.568   1.748
71187W        W43612  15.703   3.088  11.905
71188W        W43613   3.506  22.477  10.416
71189W        W43614  15.601  29.978   3.338
71190W        W43615  28.459  41.293  13.008
71191W        W43616  37.564   1.220  13.050
71192W        W43617   3.014  29.005  13.964
71193W        W43618  14.263  12.690  10.711
71194W        W43619  34.606  36.064  13.397
71195W        W43620  16.141  13.258   2.788
71196W        W43621  18.532   9.100   1.885
71197W        W43622  23.113   4.964  14.265
71198W        W43623  19.562   3.197  13.083
71199W        W43624  37.111  13.752  13.588
71200W        W43625  24.537   5.773   0.449
71201W        W43626   3.892  39.424  11.840
71202W        W43627  15.663  22.146   2.814
71203W        W43628  16.578   7.088  12.028
71204W        W43629  31.186  41.430   3.182
71205W        W43630  20.170  12.314   1.731
71206W        W43631  21.260  17.837  12.064
71207W        W43632  11.566  28.988  11.721
71208W        W43633  25.043  18.713  10.966
71209W        W43634   8.292  24.965  11.670
71210W        W43635  40.090  36.086   1.179
71211W        W43636  16.694  43.152  10.840
71212W        W43637  36.420   3.924  13.774
71213W        W43638  32.555  44.976   0.758
71214W        W43639  14.512  16.346  14.731
71215W        W43640   0.916  11.335   4.624
71216W        W43641  23.658  15.280   2.146
71217W        W43642  32.888   7.383  14.287
71218W        W43643  35.084  19.248  12.085
71219W        W43644  25.884   5.663  11.508
71220W        W43645  41.278  20.186   0.534
71221W        W43646  21.592  42.028  13.357
71222W        W43647   7.615   3.778   2.800
71223W        W43648   0.003  33.135   0.284
71224W        W43649  13.814   8.731  12.911
71225W        W43650  25.302   2.529  10.536
71226W        W43651   8.652  15.124   1.785
71227W        W43652  16.385  36.293  12.086
71228W        W43653  15.515  26.993  12.587
71229W        W43654  18.498  12.726   1.533
71230W        W43655   0.292  37.560  12.489
71231W        W43656  29.088  24.939  12.206
71232W        W43657  38.410   8.808  11.344
71233W        W43658   1.792   5.603  11.063
71234W        W43659  18.562   1.782  11.660
71235W        W43660  15.581  24.041  14.759
71236W        W43661  39.582  12.543  14.121
71237W        W43662  18.810  32.308  13.600
71238W        W43663   3.412  23.062   3.606
71239W        W43664  32.073  20.022   3.273
71240W        W43665  18.729  21.971   1.791
71241W        W43666  42.950  25.444  10.583
71242W        W43667  42.444  14.571   1.655
71243W        W43668   3.299   5.843   4.585
71244W        W43669   6.871  29.397  14.725
71245W        W43670  19.256  39.997  12.900
71246W        W43671  23.594  29.576  14.426
71247W        W43672  27.462  40.417   0.246
71248W        W43673   1.897  43.176   2.800
71249W        W43674  40.991  17.564   0.826
71250W        W43675  31.077  41.427   2.257
71251W        W43676  18.644  14.545   2.841
71252W        W43677  32.016   0.986   1.744
71253W        W43678  19.078  28.214   0.510
71254W        W43679  16.848   7.259  14.423
71255W        W43680  30.588  10.120  12.577
71256W        W43681  14.353  31.373  13.523
71257W        W43682  37.328  34.158  13.395
71258W        W43683  32.376   7.696   0.495
71259W        W43684  28.937   9.101  13.820
71260W        W43685  25.012  40.334   1.796
71261W        W43686   7.301  12.661   3.323
71262W        W43687  25.462  18.978   2.171
71263W        W43688   0.406  41.454   4.909
71264W        W43689  16.631  32.145  14.022
71265W        W43690   8.397  36.720  10.848
71266W        W43691  36.618  36.496   3.389
71267W        W43692  39.079   2.362  12.998
71268W        W43693  19.690  16.964   1.927
71269W        W43694  24.404   3.809  13.116
71270W        W43695  19.583  29.673   4.648
71271W        W43696   4.944  34.476  11.113
71272W        W43697  23.886  30.530   4.678
71273W        W43698  11.682  12.811  13.108
71274W        W43699  19.215  26.499  14.070
71275W        W43700  41.280  19.053  14.869
71276W        W43701  37.040  31.517  11.967
71277W        W43702  41.744   2.691  13.441
71278W        W43703  23.477  40.892   1.380
71279W        W43704  30.973  18.525   2.806
71280W        W43705  16.185  34.885  11.950
71281W        W43706  10.579   8.313  13.831
71282W        W43707  23.722   4.224   3.044
71283W        W43708  28.643   3.249   1.410
71284W        W43709  22.730  38.363  11.236
71285W        W43710   6.199  35.073  14.496
71286W        W43711  20.188  11.320   3.107
71287W        W43712  16.696   4.518  13.994
71288W        W43713   9.747  29.880  11.532
71289W        W43714  29.126   6.314  11.353
71290W        W43715  40.793  33.452  11.000
71291W        W43716  12.339   1.798  13.326
71292W        W43717  24.717  33.189  12.833
71293W        W43718  39.716  23.320  11.599
71294W        W43719   6.169  36.409  14.402
71295W        W43720  32.611  28.508  14.559
71296W        W43721  33.137  26.279  12.933
71297W        W43722  38.796  17.437   1.524
71298W        W43723  43.962  34.023  11.513
71299W        W43724  31.385   7.650   4.425
71300W        W43725  40.842  44.016   3.703
71301W        W43726  14.739  30.194   1.548
71302W        W43727  38.549  28.974   2.732
71303W        W43728  14.509   0.849  12.475
71304W        W43729  27.924   0.797  13.265
71305W        W43730  28.161  20.373  13.781
71306W        W43731  16.896  25.041   1.398
71307W        W43732  28.679  28.473  11.494
71308W        W43733   0.487  38.857   4.463
71309W        W43734  24.255  21.075  11.897
71310W        W43735   0.682  21.748   2.802
71311W        W43736  25.413  33.938   3.159
71312W        W43737  44.056  30.523   2.956
71313W        W43738  26.126   2.407   2.036
71314W        W43739  17.115  11.821  14.348
71315W        W43740  38.621  43.104   0.360
71316W        W43741  39.725   0.695  13.574
71317W        W43742  30.904   4.777   0.405
71318W        W43743  27.065  15.047   0.483
71319W        W43744  14.022  18.042  12.172
71320W        W43745  43.048  38.101   2.175
71321W        W43746  37.778  15.623  11.956
71322W        W43747  17.637   0.020   3.837
71323W        W43748   0.025  32.655   3.528
71324W        W43749  17.440  12.074   2.431
71325W        W43750  15.100  19.463   4.505
71326W        W43751  34.645   6.910  10.397
71327W        W43752   8.370  34.629  10.478
71328W        W43753  10.209  20.279   3.279
71329W        W43754  44.914  32.321   2.229
71330W        W43755  11.209  21.682   0.727
71331W        W43756   3.741  23.960   3.715
71332W        W43757   6.881  30.604   0.171
71333W        W43758   0.320   8.062  14.953
71334W        W43759  31.058  43.010   4.743
71335W        W43760  23.458  27.525  11.847
71336W        W43761  17.063  23.188   3.587
71337W        W43762  13.636  20.789   0.846
71338W        W43763  12.743  24.854   4.616
71339W        W43764  39.837  22.544  12.091
71340W        W43765  28.704  35.782  11.726
71341W        W43766  44.378  18.204   1.413
71342W        W43767  27.701  32.112   2.480
71343W        W43768   8.683   1.815   3.127
71344W        W43769  13.835  20.149   4.070
71345W        W43770  25.112  41.299  11.537
71346W        W43771  42.932  39.706  12.553
71347W        W43772  35.032  24.326  13.856
71348W        W43773  21.612  20.138  13.886
71349W        W43774  12.048  25.489  11.077
71350W        W43775  35.561  39.630   2.674
71351W        W43776  34.514  42.475  13.127
71352W        W43777   7.819  18.923  14.740
71353W        W43778  17.371  26.136  10.152
71354W        W43779  34.549  20.228  13.992
71355W        W43780  13.682  26.012   3.842
71356W        W43781  42.297   7.235  10.254
71357W        W43782  35.927  21.261  13.889
71358W        W43783  41.946  14.684  14.714
71359W        W43784  31.172  14.167  10.645
71360W        W43785   5.622  31.969  13.999
71361W        W43786  27.256  26.896   4.859
71362W        W43787  40.857  44.428  12.989
71363W        W43788   1.023  23.571   3.725
71364W        W43789  30.302  11.814  12.787
71365W        W43790  35.982  35.606  13.084
71366W        W43791  20.676  19.587   4.196
71367W        W43792   9.259  35.812   1.484
71368W        W43793   3.550  32.583   1.425
71369W        W43794   5.844  26.626   3.344
71370W        W43795  29.567   0.082  14.248
71371W        W43796   2.292  11.684  12.810
71372W        W43797  19.534  39.912  11.274
71373W        W43798  31.944  40.821  11.207
71374W        W43799  16.102  32.131  13.936
71375W        W43800  43.045  10.999   4.540
71376W        W43801  28.743  14.833  13.756
71377W        W43802  30.470   1.121  11.629
71378W        W43803  37.259  24.456   4.893
71379W        W43804  38.309  24.367  11.988
71380W        W43805  24.290  33.530  14.821
71381W        W43806  34.951  41.496  14.950
71382W        W43807   9.508  25.186   5.012
71383W        W43808  40.429  42.409   5.034
71384W        W43809   3.805  20.718  12.474
71385W        W43810  36.970  30.729  12.561
71386W        W43811  11.649  22.151  12.365
71387W        W43812  10.696   5.007  10.720
71388W        W43813  21.125  44.061  11.951
71389W        W43814  10.895  37.104   4.583
71390W        W43815  35.980  39.530  12.769
71391W        W43816  18.186  38.280  14.144
71392W        W43817  23.569  31.111  14.273
71393W        W43818  44.751  39.340  14.329
71394W        W43819  18.496   1.306  14.982
71395W        W43820  34.405   4.594   0.476
71396W        W43821  39.904  31.522   4.102
71397W        W43822  35.063   2.753   2.914
71398W        W43823  37.317   6.093  13.031
71399W        W43824  39.966   3.647  12.234
71400W        W43825  26.196  36.572   3.619
71401W        W43826  35.923  31.116  14.807
71402W        W43827  43.513  44.722   1.713
71403W        W43828  24.273  17.228   4.422
71404W        W43829   1.166  41.845   3.690
71405W        W43830  14.832   0.467   3.231
71406W        W43831  10.847  30.201   4.724
71407W        W43832  17.234  35.952  13.110
71408W        W43833  14.194  25.921   3.689
71409W        W43834  42.486   4.379  10.765
71410W        W43835  30.871  19.774   4.517
71411W        W43836  44.061  25.307   3.278
71412W        W43837  17.062  14.946  10.248
71413W        W43838  44.642  13.066  12.883
71414W        W43839  41.502  33.006   3.190
71415W        W43840  19.094  44.453   1.792
71416W        W43841  20.023  27.616   4.212
71417W        W43842   4.258  28.397   2.662
71418W        W43843  17.620  30.276  12.103
71419W        W43844  19.094   3.013   4.303
71420W        W43845  27.720  21.203  12.184
71421W        W43846  43.417  39.846  10.728
71422W        W43847  32.404   5.403   0.884
71423W        W43848  28.933  16.803  12.060
71424W        W43849   0.763  44.912   1.533
71425W        W43850  44.377  42.433   4.626
71426W        W43851  13.236   7.955  12.863
71427W        W43852  16.735  21.234  12.074
71428W        W43853  14.682  32.277  11.303
71429W        W43854  23.743  24.181   2.778
71430W        W43855  25.767  28.976   3.870
71431W        W43856  13.081  43.840  10.721
71432W        W43857   3.302  41.544   1.762
71433W        W43858  22.237  42.850  13.448
71434W        W43859  31.948  25.879   1.713
71435W        W43860  19.491  25.703   4.112
71436W        W43861  21.529  20.014  14.772
71437W        W43862  20.119  24.685   3.651
71438W        W43863  15.865  17.606  12.830
71439W        W43864  35.904  18.503  12.481
71440W        W43865  38.565  41.301   2.805
71441W        W43866  21.275  36.227   2.260
71442W        W43867  23.225  27.625  10.953
71443W        W43868  42.097  25.584  13.944
71444W        W43869  11.631   4.684  10.255
71445W        W43870   7.704  19.795   4.502
71446W        W43871   2.866  38.149   4.754
71447W        W43872   0.722  42.219  13.081
71448W        W43873  25.683  39.841  12.580
71449W        W43874  27.491  11.724  14.422
71450W        W43875  35.281  19.142  10.462
71451W        W43876   8.719   4.305  12.916
71452W        W43877  25.582  16.787   0.515
71453W        W43878  27.251  26.943  11.863
71454W        W43879   0.248  28.419  14.046
71455W        W43880  40.294  19.133  12.561
71456W        W43881   2.461  35.982  13.080
71457W        W43882  19.308   3.449  10.462
71458W        W43883  37.626   4.812   1.767
71459W        W43884  29.606   1.234  12.037
71460W        W43885  13.164  38.049  14.957
71461W        W43886  17.816  19.788   0.027
71462W        W43887  15.848  16.296   0.375
71463W        W43888   0.809   3.091   0.390
71464W        W43889  31.990  26.473  10.953
71465W        W43890  43.734  38.050   3.227
71466W        W43891   1.675  39.080   2.820
71467W        W43892  30.711  13.032  14.144
71468W        W43893  34.666  16.063  12.750
71469W        W43894   8.540   3.866   4.590
71470W        W43895  23.301  20.064  14.244
71471W        W43896   3.308  20.642   0.267
71472W        W43897  27.104  34.604   4.877
71473W        W43898  43.163   3.415  11.913
71474W        W43899  31.547  28.183  14.078
71475W        W43900  40.034  34.146   4.561
71476W        W43901   3.979  25.205  13.998
71477W        W43902  34.780  40.246   3.155
71478W        W43903  41.086   9.718  12.900
71479W        W43904  10.761  38.088   3.185
71480W        W43905  14.788  35.387  11.993
71481W        W43906  43.843  15.153   3.532
71482W        W43907  43.548  41.759  12.012
71483W        W43908  19.580  23.348  12.346
71484W        W43909  38.703  16.118  14.933
71485W        W43910  35.062  15.124   4.352
71486W        W43911  18.192  24.352   4.753
71487W        W43912  19.887   6.846   3.984
71488W        W43913  11.705   2.460  11.107
71489W        W43914   0.751  27.865  12.529
71490W        W43915  33.970  44.763  13.210
71491W        W43916  11.600  37.272  12.613
71492W        W43917  22.540  41.985  11.741
71493W        W43918  34.157  44.225  13.069
71494W        W43919   5.286  26.182  11.609
71495W        W43920  39.226  44.830  10.586
71496W        W43921  12.172  36.142   4.077
71497W        W43922  37.965  37.462   0.910
71498W        W43923   3.027  44.257  14.241
71499W        W43924  27.291  39.827   1.904
71500W        W43925  29.237  33.400  14.209
71501W        W43926  44.486  28.149  14.748
71502W        W43927  38.651   4.370   1.174
71503W        W43928  44.901  35.379   0.909
71504W        W43929  17.628  38.005   3.989
71505W        W43930  15.825  23.861   4.379
71506W        W43931  24.969   7.307  12.363
71507W        W43932  16.296  24.618   0.993
71508W        W43933  14.899  21.757   4.143
71509W        W43934  31.524  44.400  13.589
71510W        W43935  29.813  10.295   3.379
71511W        W43936  41.441  34.598  13.411
71512W        W43937  44.884  13.877   4.106
71513W        W43938  42.987   0.738   1.328
71514W        W43939  28.845  14.472  14.642
71515W        W43940  16.209   6.805   3.410
71516W        W43941  15.419  42.616  13.776
71517W        W43942   2.182  29.486   5.049
71518W        W43943   1.207  30.867  12.988
71519W        W43944  40.959   2.182  11.970
71520W        W43945  42.861  22.473   5.446
71521W        W43946  18.498  33.890   3.322
71522W        W43947   3.475  41.395  12.466
71523W        W43948  19.829   8.179   3.774
71524W        W43949   7.075  22.986   1.351
71525W        W43950   1.477  20.630   1.713
71526W        W43951   3.131  28.655   1.465
71527W        W43952   5.692  13.355  10.957
71528W        W43953   0.553  34.526   1.847
71529W        W43954  17.050  36.299  14.865
71530W        W43955  20.494  16.258   3.604
71531W        W43956  31.453  16.075   3.314
71532W        W43957  32.854   2.966  11.412
71533W        W43958  13.077  32.542  10.697
71534W        W43959   3.048  29.490   0.449
71535W        W43960  12.200  41.914  11.243
71536W        W43961   7.926  39.310  13.763
71537W        W43962  24.560  14.368   4.580
71538W        W43963   4.979  26.651  10.755
71539W        W43964  43.322  23.017   0.894
71540W        W43965  21.185  39.814  14.474
71541W        W43966  22.963  19.589   1.485
71542W        W43967  27.136  12.029   3.124
71543W        W43968  11.417  18.596   0.387
71544W        W43969  43.769  26.071  12.442
71545W        W43970  27.424  15.943   0.308
71546W        W43971  37.912  18.881  13.387
71547W        W43972  28.168  35.515   1.189
71548W        W43973  17.812  19.468  12.574
71549W        W43974   4.869  32.183  11.729
71550W        W43975  18.707  14.393   2.333
71551W        W43976  33.531  17.489  12.963
71552W        W43977  12.566  30.935   3.260
71553W        W43978  39.369  36.480  14.166
71554W        W43979   3.263   2.340  10.616
71555W        W43980  35.111  40.520   4.538
71556W        W43981  32.588  40.998  13.109
71557W        W43982  44.162  14.154  14.752
71558W        W43983  12.225  35.628  14.857
71559W        W43984   7.773   2.967   3.647
71560W        W43985  43.778  22.002   4.391
71561W        W43986  17.838  19.099   0.268
71562W        W43987  44.940  26.688   3.136
71563W        W43988  23.568  12.642   1.272
71564W        W43989  14.312  25.241   4.677
71565W        W43990  19.299  29.036   0.713
71566W        W43991  24.549  21.706  12.234
71567W        W43992  25.076   1.721  12.061
71568W        W43993  40.896  43.338  11.143
71569W        W43994  20.318  38.032  11.863
71570W        W43995  16.349  24.167  12.872
71571W        W43996  35.797  17.578   2.147
71572W        W43997   3.843  34.491  12.773
71573W        W43998  31.114  39.832   0.316
71574W        W43999  15.168   7.342   2.286
71575W        W44000  22.204  29.487   0.094
71576W        W44001  12.645  36.170   2.776
71577W        W44002  27.098  44.404   1.476
71578W        W44003   6.237  24.746  12.763
71579W        W44004  33.458  12.787  13.622
71580W        W44005  16.302  35.193  13.826
71581W        W44006  44.269  19.752   1.191
71582W        W44007  29.621  12.859  14.804
71583W        W44008  23.155  23.476   3.557
71584W        W44009   2.391   1.469   3.892
71585W        W44010  22.461  37.355  14.457
71586W        W44011  43.868  24.077  11.095
71587W        W44012  12.765  30.976  11.782
71588W        W44013  11.767  11.916  14.799
71589W        W44014  12.372  34.445   2.838
71590W        W44015  22.418  38.990  10.710
71591W        W44016  40.574   7.514  12.963
71592W        W44017  20.525  32.001   4.587
71593W        W44018  26.222  10.026  11.598
71594W        W44019  29.603   3.221  12.643
71595W        W44020  35.974  25.659   1.431
71596W        W44021  23.160   2.585   0.614
71597W        W44022  37.041  21.010  10.556
71598W        W44023  31.912  23.451   5.088
71599W        W44024  25.955  34.983  12.053
71600W        W44025   4.192  41.027   4.635
71601W        W44026   3.675  13.711   2.127
71602W        W44027   4.496  18.198   0.859
71603W        W44028  30.870  25.050   1.372
71604W        W44029  15.644  10.747  14.140
71605W        W44030  38.210  30.084   1.244
71606W        W44031   5.341  23.037   2.770
71607W        W44032   6.430  38.884   1.307
71608W        W44033  19.099  32.524   3.267
71609W        W44034  15.164  32.288  13.747
71610W        W44035   9.800   5.714  12.390
71611W        W44036   9.811   7.979   3.884
71612W        W44037  16.164  28.714  14.478
71613W        W44038  42.693  34.336  12.020
71614W        W44039   1.948  42.457  14.075
71615W        W44040   0.170  13.788   3.711
71616W        W44041  18.071  20.702  12.017
71617W        W44042  32.394  13.493   3.211
71618W        W44043  24.526  44.464  13.314
71619W        W44044  20.186   7.525  12.848
71620W        W44045   3.174  22.127   4.296
71621W        W44046  18.692  43.315  14.475
71622W        W44047  14.887  18.536   4.250
71623W        W44048   8.990  17.314  12.080
71624W        W44049  21.140  30.423   1.818
71625W        W44050  31.930   4.335  10.712
71626W        W44051   0.060   8.330  11.583
71627W        W44052  11.573   9.164   0.377
71628W        W44053  13.091  38.844  12.387
71629W        W44054  14.637  24.014   4.602
71630W        W44055  36.914  21.357   4.625
71631W        W44056  11.897  37.095   3.259
71632W        W44057  28.611  12.258  12.161
71633W        W44058   3.254   0.051   4.216
71634W        W44059  31.495  33.491   1.902
71635W        W44060  25.934  38.933   4.382
71636W        W44061   4.477  28.191  12.462
71637W        W44062  36.846  10.687  13.956
71638W        W44063  16.058  10.954  13.872
71639W        W44064  39.605   7.409  12.082
71640W        W44065  34.121  42.033  12.987
71641W        W44066   7.955  17.806  13.044
71642W        W44067  18.337  19.814   0.165
71643W        W44068  32.578   0.234   2.948
71644W        W44069  36.458   3.363   1.321
71645W        W44070  17.949   5.972  13.359
71646W        W44071  13.114  23.480   4.766
71647W        W44072  33.473  33.508  10.477
71648W        W44073  44.998  32.426   1.357
71649W        W44074  10.578  20.746   2.905
71650W        W44075  25.171  12.440   1.169
71651W        W44076  30.361  13.099  11.127
71652W        W44077   8.251   3.886  13.089
71653W        W44078   2.044  36.831   3.354
71654W        W44079  29.266   6.922   3.923
71655W        W44080  18.987  14.112   3.284
71656W        W44081  11.635  27.900  14.295
71657W        W44082  28.853  22.978   0.871
71658W        W44083  23.207   2.768  10.769
71659W        W44084   5.742  35.880  10.972
71660W        W44085  33.163  11.777  11.348
71661W        W44086   5.376  21.681  10.647
71662W        W44087  31.691  37.237  10.577
71663W        W44088   3.852  42.337   0.638
71664W        W44089   1.757  22.886  12.430
71665W        W44090  34.918   4.793  14.459
71666W        W44091  14.236  23.216   2.510
71667W        W44092  36.847  43.770   3.239
71668W        W44093  24.541  15.128  12.914
71669W        W44094  38.522  39.442   0.217
71670W        W44095  12.072  44.681   1.155
71671W        W44096   4.898  11.021  13.355
71672W        W44097  27.336  42.727  12.415
71673W        W44098  21.206  40.410   2.867
71674W        W44099  32.115  39.951  11.875
71675W        W44100   0.890  23.742   1.231
71676W        W44101  34.460   9.221  11.166
71677W        W44102  35.636   5.027   2.818
71678W        W44103  36.922   9.448  12.095
71679W        W44104  18.327  10.652  14.909
71680W        W44105  40.087  15.330  13.865
71681W        W44106   6.311  20.987  11.190
71682W        W44107  13.474   5.215   2.775
71683W        W44108  22.573  17.825   2.380
71684W        W44109  30.385  44.955  14.827
71685W        W44110   0.707   1.945   1.739
71686W        W44111  31.922  24.621   0.380
71687W        W44112  35.416  44.745  11.589
71688W        W44113  29.936   4.946  13.008
71689W        W44114  14.297  19.568   4.671
71690W        W44115   2.658  38.358   1.248
71691W        W44116  38.486  31.541   1.336
71692W        W44117  34.411   9.190   0.657
71693W        W44118  11.489  40.070  14.308
71694W        W44119  41.668  28.596  14.884
71695W        W44120  11.718  16.020   2.057
71696W        W44121  36.376  38.925   3.238
71697W        W44122  35.920  28.961  14.862
71698W        W44123  33.588  41.373  14.415
71699W        W44124  34.976  27.384  12.837
71700W        W44125  40.927  43.837   1.110
71701W        W44126  34.865  25.008  12.490
71702W        W44127   4.333  39.747  12.407
71703W        W44128  10.523  14.182   0.046
71704W        W44129  17.472  18.262   3.864
71705W        W44130   4.298   9.496   0.424
71706W        W44131  14.982  15.906   1.300
71707W        W44132  31.614  32.718   0.308
71708W        W44133  23.131   8.201   3.160
71709W        W44134  16.669  13.848   4.277
71710W        W44135  22.371   2.218   0.345
71711W        W44136  12.709  37.122   2.590
71712W        W44137  23.489  34.067   3.256
71713W        W44138  41.418  35.523  14.753
71714W        W44139  13.417   8.287  14.463
71715W        W44140  15.809  43.313   0.524
71716W        W44141   2.633  31.087   0.393
71717W        W44142   6.791  38.339   4.538
71718W        W44143   1.759  42.384  10.706
71719W        W44144  27.184  30.064  10.732
71720W        W44145  27.920  18.138   1.395
71721W        W44146  27.342  14.614  13.150
71722W        W44147  15.256  29.033  14.044
71723W        W44148  31.162  36.552   4.479
71724W        W44149  11.812  37.142  13.049
71725W        W44150  40.053  41.393   0.926
71726W        W44151  37.874  17.634   3.635
71727W        W44152  39.463   7.179   2.242
71728W        W44153  18.386  41.027  11.123
71729W        W44154  43.889  39.343   4.592
71730W        W44155  17.040  21.594   2.190
71731W        W44156  41.566  28.950  12.595
71732W        W44157   9.215  35.939   0.975
71733W        W44158  29.453  31.084   9.729
71734W        W44159  34.284   3.527  13.405
71735W        W44160  21.590  26.111   2.919
71736W        W44161  33.022   0.156   3.223
71737W        W44162   9.374   4.240  11.084
71738W        W44163   2.330  22.552  12.597
71739W        W44164  25.999  28.101  14.320
71740W        W44165   4.716  38.428   2.853
71741W        W44166  21.648  11.337  11.132
71742W        W44167   7.636   3.280  12.077
71743W        W44168  23.254  39.266  11.519
71744W        W44169  33.805  30.198  12.193
71745W        W44170  40.513  34.871   5.175
71746W        W44171   9.942   1.772  14.789
71747W        W44172  39.905   5.144  11.154
71748W        W44173  41.830  19.669  14.417
71749W        W44174  10.523  13.420  11.133
71750W        W44175  18.861  31.430  13.051
71751W        W44176   3.296   5.830   1.930
71752W        W44177  17.607  31.557   1.186
71753W        W44178  32.572  44.887  14.293
71754W        W44179   0.415  18.319   2.752
71755W        W44180  20.787  39.459   3.463
71756W        W44181  37.929  23.131  12.367
71757W        W44182  36.570  26.576  13.953
71758W        W44183  35.124  32.868  14.412
71759W        W44184  27.632  12.623   0.892
71760W        W44185  43.916  41.706  13.414
71761W        W44186  18.633  22.395   2.079
71762W        W44187   9.633  37.314   3.691
71763W        W44188  12.356  12.426  14.350
71764W        W44189  11.980  26.048   0.303
71765W        W44190  33.008  27.264   0.722
71766W        W44191  22.696  38.951   0.444
71767W        W44192  41.950  36.114   4.124
71768W        W44193  21.279  16.196  10.726
71769W        W44194  27.258  15.060  12.067
71770W        W44195  39.547  10.906   3.594
71771W        W44196  41.537  24.051   4.088
71772W        W44197  40.450  38.785   4.196
71773W        W44198  26.706  21.696   4.383
71774W        W44199   3.510  10.395  11.103
71775W        W44200  23.267  30.525  13.590
71776W        W44201   2.767   1.829  13.522
71777W        W44202  10.884  21.956   2.827
71778W        W44203   2.799   1.693  14.894
71779W        W44204  36.434  42.891   2.593
71780W        W44205  33.046  30.798   1.649
71781W        W44206  35.858   6.163   0.785
71782W        W44207   5.806  34.306  14.759
71783W        W44208  34.586  18.231   4.114
71784W        W44209  16.664  12.307   2.603
71785W        W44210  14.239  43.863  14.844
71786W        W44211  40.201  30.250   4.098
71787W        W44212  25.482   9.799   2.137
71788W        W44213  39.666  23.717   1.233
71789W        W44214   2.862  38.120   4.224
71790W        W44215  15.253  27.393  11.056
71791W        W44216  13.148   2.461   4.747
71792W        W44217  41.427  16.596   1.472
71793W        W44218   6.992   9.453  10.836
71794W        W44219  30.988  10.885   0.438
71795W        W44220   9.250   2.479   2.774
71796W        W44221  22.062  18.594  13.218
71797W        W44222  14.165  21.582  12.055
71798W        W44223   5.286  32.753   1.873
71799W        W44224  35.396  28.641   0.500
71800W        W44225  29.369  26.434  11.943
71801W        W44226  20.481   5.646   0.629
71802W        W44227  14.248  28.506   1.481
71803W        W44228  11.196  34.615  14.712
71804W        W44229   8.407  41.897  14.007
71805W        W44230  26.696  20.017   4.860
71806W        W44231  23.821   8.423   2.715
71807W        W44232  21.985   2.910   5.219
71808W        W44233  15.202  12.827  11.094
71809W        W44234  28.457  24.961   2.165
71810W        W44235  32.812  31.670  13.524
71811W        W44236  38.139   3.789   4.553
71812W        W44237  34.175   8.749   2.474
71813W        W44238  29.126  12.310  12.328
71814W        W44239  12.795  35.901   2.367
71815W        W44240   8.676   4.179   0.705
71816W        W44241   6.239   1.375  13.890
71817W        W44242   6.378  19.494  14.762
71818W        W44243  23.063  34.369   3.253
71819W        W44244  29.165   6.618   1.271
71820W        W44245  28.535  28.877  10.702
71821W        W44246  26.316  34.332   1.956
71822W        W44247  10.317  31.850  13.779
71823W        W44248  42.858  10.670  11.105
71824W        W44249   9.451  35.980  14.574
71825W        W44250  19.679  23.042   3.717
71826W        W44251   3.925   1.730   2.171
71827W        W44252  14.236  10.600  14.867
71828W        W44253  39.994   2.183  12.856
71829W        W44254   5.408  39.820   3.486
71830W        W44255  17.676  13.780  13.888
71831W        W44256  34.100   8.392   2.835
71832W        W44257  42.375   8.714   1.549
71833W        W44258   1.340  32.148   3.856
71834W        W44259  16.664   3.442  10.748
71835W        W44260  26.577  37.186   1.157
71836W        W44261  41.917  14.566   2.700
71837W        W44262  18.854  25.292  13.349
71838W        W44263   2.853  25.331   4.390
71839W        W44264  11.763  42.508   1.475
71840W        W44265  10.450   2.028   2.292
71841W        W44266   6.921  32.794  14.430
71842W        W44267  33.407   3.326  14.923
71843W        W44268   0.034  41.727   1.321
71844W        W44269  27.571  10.679  14.741
71845W        W44270  14.903  29.461   0.294
71846W        W44271  30.550   8.794   0.876
71847W        W44272  22.585  13.692  13.828
71848W        W44273  10.055  36.502   2.298
71849W        W44274   0.993   7.817   1.420
71850W        W44275  36.373  43.596   1.266
71851W        W44276   5.049  25.511  10.952
71852W        W44277  11.324  42.867   4.563
71853W        W44278  14.057  13.292   3.769
71854W        W44279  16.632  26.911   1.441
71855W        W44280   7.811  13.390  10.302
71856W        W44281  17.765  38.498  14.355
71857W        W44282  36.147   6.232   1.246
71858W        W44283  27.055  15.740   1.332
71859W        W44284   6.557  29.649   4.026
71860W        W44285  20.616  22.000   4.334
71861W        W44286  27.508   3.795   0.970
71862W        W44287   8.632   7.671  11.003
71863W        W44288  30.583  20.989   1.649
71864W        W44289  33.617  41.516  13.912
71865W        W44290  14.062  26.937   4.352
71866W        W44291  19.138  17.035   3.625
71867W        W44292  40.999   8.547   0.421
71868W        W44293   5.007   9.632   4.783
71869W        W44294  44.047  31.703   3.635
71870W        W44295  30.049  32.341  13.427
71871W        W44296   7.769  44.009  14.364
71872W        W44297  41.440  17.309   0.760
71873W        W44298  34.317  19.145   4.703
71874W        W44299  44.791  42.962   0.829
71875W        W44300  27.644  16.772   1.919
71876W        W44301  11.648   5.810  10.609
71877W        W44302  26.543  30.516   4.070
71878W        W44303  31.437  18.749   3.000
71879W        W44304  32.008   3.259   0.291
71880W        W44305   6.768  43.010  11.621
71881W        W44306   3.674  41.463   2.373
71882W        W44307  38.659  42.355   4.623
71883W        W44308  34.124   0.449   1.656
71884W        W44309  26.094  41.772  11.974
71885W        W44310  32.143  23.068   3.358
71886W        W44311   8.900  35.534  14.017
71887W        W44312  16.678  30.272  14.246
71888W        W44313  38.480   5.305  13.559
71889W        W44314  10.101  10.309  14.949
71890W        W44315  31.898  31.641  14.811
71891W        W44316  24.847  25.866  11.972
71892W        W44317  29.492   7.236   2.722
71893W        W44318   1.880  32.833   4.699
71894W        W44319  40.641  31.046   1.316
71895W        W44320  10.210  34.839   1.330
71896W        W44321  27.455   8.122  14.901
71897W        W44322  21.031   7.599  14.052
71898W        W44323  23.522  35.589  14.389
71899W        W44324  35.177  40.594  14.884
71900W        W44325  35.244  22.044  11.649
71901W        W44326  16.705  26.618  11.677
71902W        W44327  14.625  17.369   2.898
71903W        W44328  19.459  22.738  11.238
71904W        W44329  42.321  36.169  10.620
71905W        W44330  31.843  17.563  13.917
71906W        W44331   8.688  28.107   1.894
71907W        W44332  36.519  35.930   0.789
71908W        W44333  35.939   2.257  12.634
71909W        W44334  41.358   5.336   0.264
71910W        W44335  40.391  44.576   4.233
71911W        W44336  11.197  15.784  12.000
71912W        W44337  43.011   0.410   0.876
71913W        W44338   6.129  15.043   2.585
71914W        W44339   4.903  32.485  10.777
71915W        W44340   7.861  25.532   1.427
71916W        W44341  22.320   3.260   1.405
71917W        W44342  28.266   9.624  11.192
71918W        W44343  22.452  41.340   4.118
71919W        W44344  16.053   5.518   2.810
71920W        W44345  29.033  18.572  11.179
71921W        W44346  30.813  23.030  11.614
71922W        W44347  23.045  15.371   4.504
71923W        W44348   7.311  28.852  14.307
71924W        W44349   3.712  30.135   4.462
71925W        W44350  25.375  39.792   2.440
71926W        W44351  14.656   2.932  14.632
71927W        W44352  38.550  41.824   0.045
71928W        W44353  44.199   6.239  10.813
71929W        W44354  35.046  29.502   4.367
71930W        W44355  44.106  13.139   1.801
71931W        W44356  22.820  25.172   9.632
71932W        W44357   2.825  29.013   1.711
71933W        W44358  27.446  10.620   3.229
71934W        W44359  35.982  36.940   0.812
71935W        W44360  11.258  32.560  14.349
71936W        W44361  16.426  32.361   4.578
71937W        W44362  16.977  28.304   4.038
71938W        W44363  13.099  15.516  12.767
71939W        W44364   0.565  24.062  14.298
71940W        W44365   6.418   4.625  13.616
71941W        W44366  39.991  32.603   4.699
71942W        W44367  28.635   8.134   1.363
71943W        W44368   3.946  43.983   3.620
71944W        W44369  35.718  36.798   4.209
71945W        W44370  21.581   4.753  12.866
71946W        W44371   8.405  41.589   2.929
71947W        W44372   9.732  28.952  11.421
71948W        W44373  15.002  32.111  14.276
71949W        W44374   8.669  30.571   4.711
71950W        W44375  23.488  14.778  10.908
71951W        W44376  38.723  29.977   3.337
71952W        W44377   7.858  27.871  10.666
71953W        W44378   0.897  22.768   1.375
71954W        W44379  13.113  30.709   0.101
71955W        W44380  40.047   0.262   2.818
71956W        W44381  29.850  39.359   5.221
71957W        W44382  19.395  24.650  14.107
71958W        W44383  11.779  24.570   3.755
71959W        W44384  16.959  20.531  12.460
71960W        W44385  22.710  15.776  12.500
71961W        W44386   0.431  13.344  13.060
71962W        W44387  31.696  40.485  10.316
71963W        W44388  39.088  34.931   0.890
71964W        W44389  44.518   9.441   4.210
71965W        W44390  36.853  39.944  14.865
71966W        W44391   5.207  33.629   0.248
71967W        W44392  32.069   8.590   3.299
71968W        W44393  13.690  33.571   4.124
71969W        W44394  27.467  29.898   2.318
71970W        W44395   6.655   2.249   0.258
71971W        W44396  31.111  27.145   1.446
71972W        W44397  41.943  36.345   5.043
71973W        W44398  13.108  16.793  11.070
71974W        W44399  43.528   7.790   1.746
71975W        W44400   6.798   2.890   1.460
71976W        W44401  31.135   7.663   1.152
71977W        W44402  27.693  30.858  14.579
71978W        W44403  39.761  41.258  14.345
71979W        W44404   6.822   7.853  10.627
71980W        W44405   8.328  12.077   1.965
71981W        W44406   9.261  28.484   4.934
71982W        W44407   9.769  30.539  13.816
71983W        W44408  33.505  21.676  10.948
71984W        W44409  44.374  21.505  12.027
71985W        W44410   4.239  41.881   2.749
71986W        W44411  16.112  12.137  11.584
71987W        W44412   7.862  10.165   3.168
71988W        W44413   9.424  38.598   4.826
71989W        W44414  43.727   7.448   3.737
71990W        W44415  41.585  11.164   1.691
71991W        W44416  13.070   6.329   4.540
71992W        W44417  40.851  36.125  13.462
71993W        W44418  24.981  38.906   1.856
71994W        W44419  11.759  43.082  12.135
71995W        W44420  29.230  34.439  12.332
71996W        W44421  16.174  36.842  10.793
71997W        W44422   8.365   2.326   1.466
71998W        W44423   3.825  30.127  14.291
71999W        W44424  38.083  25.058  14.181
72000W        W44425  35.624  16.379   3.357
72001W        W44426  29.222  40.032   2.350
72002W        W44427   8.701  35.667  12.305
72003W        W44428  43.319  15.390   1.900
72004W        W44429  11.890  24.235   0.074
72005W        W44430  19.739  38.992   4.355
72006W        W44431  27.997   4.380   2.378
72007W        W44432  37.305  34.407  14.035
72008W        W44433  11.472  29.958   1.351
72009W        W44434  30.465  31.085   2.236
72010W        W44435   7.732  35.933  10.502
72011W        W44436   5.356  36.953  12.767
72012W        W44437  33.018   0.897  11.819
72013W        W44438  28.662   7.401   2.718
72014W        W44439  15.068   4.816  12.381
72015W        W44440  16.043  36.801   3.077
72016W        W44441  32.053  33.027   0.364
72017W        W44442   0.672  19.787  11.967
72018W        W44443   2.393   4.624   1.811
72019W        W44444   4.431  44.912   3.703
72020W        W44445   6.652  34.888  10.699
72021W        W44446  18.559  33.605   1.265
72022W        W44447  44.562  20.684   2.492
72023W        W44448   2.824  43.775   2.714
72024W        W44449  31.985   5.152  13.520
72025W        W44450   4.860  23.480   4.098
72026W        W44451  28.167  22.690   2.897
72027W        W44452  22.502  36.533   1.782
72028W        W44453  14.410   7.880   4.209
72029W        W44454  11.364   8.127   3.524
72030W        W44455  28.125  34.567  13.119
72031W        W44456  19.418   3.722   3.363
72032W        W44457  10.157  19.277   3.243
72033W        W44458  16.613   6.251  14.399
72034W        W44459   3.953  26.042  11.158
72035W        W44460  25.910  13.227  12.820
72036W        W44461  35.965  43.754   4.503
72037W        W44462  41.361  37.484  11.025
72038W        W44463  29.606   2.330  12.725
72039W        W44464  18.299  32.942   3.750
72040W        W44465  34.183  26.605   1.890
72041W        W44466  38.918  10.157   1.037
72042W        W44467   6.936   4.357   2.558
72043W        W44468   4.339   2.818  13.413
72044W        W44469   3.491   2.785  14.199
72045W        W44470   3.995  22.134  11.614
72046W        W44471  34.452  12.645   1.313
72047W        W44472  20.338  27.610   3.785
72048W        W44473  36.410   8.638  13.042
72049W        W44474   7.459   3.962  14.073
72050W        W44475   5.658  25.469   2.167
72051W        W44476  35.883   6.768   3.368
72052W        W44477  30.810  38.029   1.227
72053W        W44478  12.016  26.174   0.797
72054W        W44479  13.401  34.541   4.399
72055W        W44480  27.758  24.148  14.387
72056W        W44481  31.594  21.521  14.562
72057W        W44482  16.998  32.572  14.495
72058W        W44483  10.125  30.916   4.365
72059W        W44484  22.656  28.111   4.569
72060W        W44485  26.543  35.642  14.114
72061W        W44486  28.787  40.159  14.294
72062W        W44487  10.728  40.574  14.668
72063W        W44488  22.608  20.806  11.687
72064W        W44489  44.040   8.330   4.769
72065W        W44490  36.398  19.036  14.923
72066W        W44491   9.644  25.674  12.874
72067W        W44492  14.624  39.905  10.763
72068W        W44493  14.279  41.651   0.505
72069W        W44494  10.284  12.114   4.020
72070W        W44495  15.287  41.848   1.950
72071W        W44496  32.674  40.367   3.192
72072W        W44497  16.246  42.078  14.175
72073W        W44498  18.002   1.775  13.950
72074W        W44499  44.394  44.565   4.492
72075W        W44500  39.507  19.113  13.900
72076W        W44501  38.341  32.614  12.719
72077W        W44502   8.911   6.903   2.284
72078W        W44503  34.228  19.926   0.411
72079W        W44504   9.956  22.556  10.557
72080W        W44505  12.340  39.139   1.779
72081W        W44506   1.585   8.867  10.800
72082W        W44507  33.360  17.498   3.217
72083W        W44508  35.557   0.049  13.463
72084W        W44509  10.745  32.995   2.020
72085W        W44510  29.514  29.373   3.674
72086W        W44511  10.035  18.633   0.853
72087W        W44512  19.979  11.794   3.243
72088W        W44513  35.576   2.859  14.805
72089W        W44514  26.934   1.388  13.352
72090W        W44515  16.385  34.142  11.372
72091W        W44516  33.838   6.877   1.394
72092W        W44517  37.917  24.998  13.228
72093W        W44518  29.166  37.050   0.236
72094W        W44519  29.532  31.250   3.104
72095W        W44520  11.165   8.104  12.042
72096W        W44521  27.638   2.842   2.816
72097W        W44522  38.578  44.339   2.199
72098W        W44523  18.118  24.097   1.738
72099W        W44524  35.396  14.320  14.550
72100W        W44525   4.781  35.887   3.295
72101W        W44526  14.530  42.997  10.505
72102W        W44527  20.659  33.000  12.859
72103W        W44528  38.921  43.620  12.945
72104W        W44529  13.317   8.271   0.368
72105W        W44530  42.300  15.606  12.044
72106W        W44531  11.069  25.239   1.300
72107W        W44532  41.360  29.953   0.594
72108W        W44533  27.933  28.651  11.980
72109W        W44534  18.824  10.593  14.817
72110W        W44535  15.865  28.852  10.848
72111W        W44536  41.742   6.967   0.028
72112W        W44537  38.943  26.904  14.418
72113W        W44538  34.928  39.442  11.210
72114W        W44539   2.811  16.862   4.104
72115W        W44540  36.102  25.032  10.142
72116W        W44541   4.189   8.596  14.070
72117W        W44542  33.498   6.146  13.552
72118W        W44543  37.370  32.602   1.694
72119W        W44544   0.831  11.724  10.683
72120W        W44545  31.910  10.189   2.442
72121W        W44546  34.646  40.945  11.319
72122W        W44547   5.951  19.217  10.562
72123W        W44548  40.051  34.697   3.967
72124W        W44549  22.494  30.085  13.840
72125W        W44550  16.304  24.733   1.924
72126W        W44551  38.869   4.036   2.824
72127W        W44552   2.339  20.928   2.671
72128W        W44553  39.617   3.874   4.563
72129W        W44554  10.670  17.864   4.826
72130W        W44555  11.840  26.374  11.565
72131W        W44556  30.351  42.770  13.541
72132W        W44557   0.691  34.447  13.848
72133W        W44558  22.923  13.144  12.925
72134W        W44559  17.817   3.871  11.473
72135W        W44560  20.997  36.376   1.831
72136W        W44561   0.672  32.077   3.261
72137W        W44562  29.831   8.301  14.829
72138W        W44563  44.202   7.197  10.998
72139W        W44564   0.982  40.105  12.115
72140W        W44565  39.843  41.881   1.223
72141W        W44566  20.235  29.879   3.670
72142W        W44567  16.227   8.242   1.715
72143W        W44568   2.283  10.346   3.397
72144W        W44569  39.761   3.411  10.441
72145W        W44570  11.933   6.221  12.301
72146W        W44571  42.045  36.647   0.683
72147W        W44572   9.378  43.816   0.015
72148W        W44573   5.175  24.148  13.300
72149W        W44574  31.526  14.814   0.516
72150W        W44575  24.151  18.040  12.402
72151W        W44576  26.524  20.717  12.033
72152W        W44577  19.148   4.357   4.612
72153W        W44578  33.882  23.009  12.934
72154W        W44579   0.769  29.993   4.737
72155W        W44580  14.283   5.720   2.933
72156W        W44581  21.494  33.379   4.183
72157W        W44582   1.078  14.350  11.243
72158W        W44583   2.891  39.796  10.623
72159W        W44584  28.682  38.183  12.778
72160W        W44585  43.853  41.069   3.056
72161W        W44586   7.419   2.517   4.535
72162W        W44587  27.096   5.675   3.266
72163W        W44588  27.627   3.071  11.886
72164W        W44589  43.787  15.005  12.461
72165W        W44590  18.517  40.374  14.893
72166W        W44591  13.172  22.680  10.211
72167W        W44592   7.263  16.984   4.426
72168W        W44593   7.761  12.812  13.517
72169W        W44594  21.593  41.218  11.750
72170W        W44595  31.261   8.620   3.749
72171W        W44596  30.203   8.595   3.854
72172W        W44597   7.309   3.224   3.965
72173W        W44598  22.265   9.930  13.332
72174W        W44599  38.405  44.845   0.248
72175W        W44600  28.967  21.782  14.009
72176W        W44601  31.056   8.877  13.470
72177W        W44602  11.681   0.834   3.535
72178W        W44603  19.780  13.645  13.469
72179W        W44604  36.547  39.942  12.927
72180W        W44605   1.945  17.146  13.520
72181W        W44606  43.548  16.169  11.957
72182W        W44607  44.534  10.772   3.351
72183W        W44608  20.316  22.244   0.267
72184W        W44609   9.796   3.164   4.625
72185W        W44610  29.737  11.274   3.195
72186W        W44611  21.297  44.507   0.215
72187W        W44612  29.917  20.284  14.880
72188W        W44613  43.289  27.820   3.707
72189W        W44614   9.269   8.468   2.809
72190W        W44615  37.099   6.993   1.244
72191W        W44616  32.507  40.530  13.804
72192W        W44617  36.553  18.094   4.602
72193W        W44618  26.351  25.636  14.328
72194W        W44619   4.305  39.812   4.075
72195W        W44620   3.301  20.968  14.495
72196W        W44621  33.064  14.100  11.914
72197W        W44622  13.899  38.054  14.473
72198W        W44623   3.810   7.145  12.098
72199W        W44624   6.793  34.565   1.926
72200W        W44625  24.940  36.403   2.363
72201W        W44626  17.986   6.841   1.727
72202W        W44627  36.893  23.281   1.831
72203W        W44628  39.290  31.734   2.795
72204W        W44629  13.277  38.440   0.751
72205W        W44630  35.161  26.048  13.031
72206W        W44631   2.734  18.647  12.960
72207W        W44632  44.357  40.950   4.543
72208W        W44633   4.643  12.314   4.049
72209W        W44634   0.852   7.856   0.030
72210W        W44635  26.489   8.367   3.134
72211W        W44636   2.949  44.256   0.783
72212W        W44637  14.122  12.048  12.917
72213W        W44638  33.538  44.016   3.770
72214W        W44639  34.703   8.290   4.220
72215W        W44640  19.279  15.773   3.302
72216W        W44641  10.407  10.246  14.523
72217W        W44642  11.502  20.017  11.764
72218W        W44643   0.143   0.790   1.925
72219W        W44644  16.739   5.947   3.168
72220W        W44645   7.349  44.472  12.054
72221W        W44646   6.919   0.134   3.749
72222W        W44647  20.265   1.918  13.794
72223W        W44648  27.686  14.303  12.810
72224W        W44649   5.779   2.979   2.220
72225W        W44650   3.868  26.885  10.781
72226W        W44651  40.054  44.008  14.259
72227W        W44652  29.933  23.096   4.165
72228W        W44653   3.903   8.785   0.010
72229W        W44654  27.270  13.355  11.120
72230W        W44655   8.467  28.941  10.694
72231W        W44656  42.988  19.277  14.418
72232W        W44657  25.757  24.200   0.824
72233W        W44658  18.393  31.938  12.973
72234W        W44659   5.936   9.354  11.631
72235W        W44660  15.685  41.028  10.539
72236W        W44661  29.033  29.047   1.929
72237W        W44662  29.433   9.681  13.971
72238W        W44663  33.961  23.454   3.429
72239W        W44664  36.978  32.962   1.778
72240W        W44665  10.787  17.154   3.115
72241W        W44666   8.897  22.574   2.381
72242W        W44667  39.952  40.663  13.329
72243W        W44668  34.411  16.820  10.953
72244W        W44669  40.397  37.313  14.497
72245W        W44670  20.082  40.743  14.801
72246W        W44671  18.447  35.712  13.948
72247W        W44672  30.818   6.921  14.883
72248W        W44673  43.451   1.740  12.478
72249W        W44674  32.970  17.457  11.665
72250W        W44675  25.634  30.382   5.020
72251W        W44676  41.094   6.112  14.870
72252W        W44677  10.886  24.090  10.595
72253W        W44678  35.038  33.050   1.896
72254W        W44679  37.786   9.539  12.043
72255W        W44680  25.986   3.030  10.322
72256W        W44681  37.606  17.216   1.751
72257W        W44682  19.698  40.651   4.564
72258W        W44683   8.856  18.592  11.636
72259W        W44684  34.540  21.453  14.865
72260W        W44685  12.756   2.628   4.446
72261W        W44686   5.890  36.742   9.745
72262W        W44687  40.541  10.881   0.185
72263W        W44688   9.284  24.709  14.802
72264W        W44689  35.565  37.310  12.922
72265W        W44690  30.103  24.788   0.326
72266W        W44691   0.359  34.052   3.340
72267W        W44692  31.210  18.374  12.782
72268W        W44693  29.717  43.741  10.918
72269W        W44694  14.868   3.286  12.051
72270W        W44695  40.707  20.276   4.157
72271W        W44696  28.315  23.951  12.530
72272W        W44697  34.912  31.762   9.802
72273W        W44698  20.649  29.878   2.419
72274W        W44699   9.220  42.498   2.158
72275W        W44700  42.915  36.975  13.355
72276W        W44701  22.515  36.440  13.021
72277W        W44702  15.244  35.061   0.299
72278W        W44703   7.034  24.711   1.946
72279W        W44704  20.826  13.749   2.685
72280W        W44705  22.394  11.320  12.615
72281W        W44706  21.548  12.585  10.675
72282W        W44707   8.862  17.167   1.529
72283W        W44708  41.407   1.891  13.053
72284W        W44709  32.964  18.814  11.750
72285W        W44710   5.657   6.537  12.735
72286W        W44711   0.758   8.690   2.636
72287W        W44712  43.812  38.384  10.675
72288W        W44713  32.489   2.362  13.394
72289W        W44714  16.752   5.868  12.638
72290W        W44715  33.972  22.182  12.220
72291W        W44716  21.976  44.742  10.946
72292W        W44717  24.672  37.549   4.580
72293W        W44718  30.049   9.307  12.699
72294W        W44719  30.527  33.872  13.982
72295W        W44720  31.884  20.322   3.683
72296W        W44721  35.903  26.470  11.504
72297W        W44722  14.369  38.489   3.585
72298W        W44723  38.277  32.651   2.157
72299W        W44724  39.253  33.363  11.070
72300W        W44725  24.690  31.123   2.149
72301W        W44726  24.548  26.201  10.675
72302W        W44727  28.166   7.238   2.841
72303W        W44728   1.963  21.602   3.293
72304W        W44729  30.057  26.577  14.892
72305W        W44730  40.644  31.490  12.991
72306W        W44731  37.353  22.318   0.089
72307W        W44732  40.399   4.008  14.441
72308W        W44733  39.777  39.326  12.702
72309W        W44734  43.788  23.996  12.064
72310W        W44735  10.647  43.418   3.519
72311W        W44736   2.988  41.474  12.615
72312W        W44737  30.924  25.998   1.408
72313W        W44738   0.991   2.891  14.338
72314W        W44739  23.700   7.465   3.829
72315W        W44740   5.475  43.043   2.812
72316W        W44741   9.659  24.110   4.173
72317W        W44742  11.421   8.872  12.903
72318W        W44743   8.155  30.543  12.496
72319W        W44744  17.762  30.641  13.960
72320W        W44745   5.250   9.068   1.890
72321W        W44746  22.617  29.785   5.020
72322W        W44747  37.079  28.441  12.586
72323W        W44748  23.240  33.891  14.368
72324W        W44749  36.396  26.250   4.670
72325W        W44750  31.090  28.617  14.649
72326W        W44751  37.180  14.450  13.085
72327W        W44752  29.965  39.190   0.125
72328W        W44753   2.501  34.576   3.671
72329W        W44754  38.512  22.543  11.353
72330W        W44755   7.067  21.558  13.381
72331W        W44756   3.137  11.724  14.861
72332W        W44757   3.509  41.228   4.791
72333W        W44758  38.739  32.870  10.533
72334W        W44759  19.350  32.881  10.543
72335W        W44760  24.654  34.779  11.619
72336W        W44761   4.685   8.536   2.848
72337W        W44762  44.724  38.795   4.123
72338W        W44763   5.441  13.845  11.075
72339W        W44764  39.504  20.642   2.684
72340W        W44765  40.000  23.610   1.925
72341W        W44766  13.320  38.783  11.843
72342W        W44767  39.641  11.561  13.041
72343W        W44768  11.564  36.966  11.802
72344W        W44769  35.161   1.105   1.759
72345W        W44770   6.238  39.584   3.173
72346W        W44771  32.422   2.920   1.446
72347W        W44772  30.444  40.641  11.165
72348W        W44773  42.374  15.706   2.358
72349W        W44774  33.097  34.043  14.886
72350W        W44775   4.377   6.734   2.206
72351W        W44776  34.047   3.115   2.707
72352W        W44777  11.732  44.342   1.890
72353W        W44778  40.626  29.028  11.557
72354W        W44779  34.798  19.934   3.192
72355W        W44780   6.286  32.125   4.647
72356W        W44781  10.421   8.815  13.014
72357W        W44782  12.723  28.818   2.313
72358W        W44783  33.272  42.489  11.713
72359W        W44784   2.782   1.811   0.792
72360W        W44785   3.441  12.861  12.936
72361W        W44786  23.283  11.423   3.169
72362W        W44787  12.966  24.124   4.104
72363W        W44788  14.203  36.333  12.766
72364W        W44789  32.569   5.748   3.902
72365W        W44790  20.166  28.086   4.050
72366W        W44791   2.507  41.763   4.019
72367W        W44792   9.671  38.132  11.103
72368W        W44793  13.666  27.287  14.915
72369W        W44794  41.938  35.773   3.136
72370W        W44795  24.694  14.708   3.197
72371W        W44796   6.216  14.215   0.185
72372W        W44797  32.541  22.315   3.761
72373W        W44798  44.640  13.429   4.179
72374W        W44799  30.986  29.499  10.660
72375W        W44800  15.250  18.561  12.168
72376W        W44801   6.276  18.545   1.351
72377W        W44802  34.403  31.740  12.457
72378W        W44803  33.010  30.471  12.812
72379W        W44804  31.855   9.348   0.875
72380W        W44805  39.562  38.345   4.322
72381W        W44806  38.594  44.901  13.457
72382W        W44807   3.704  43.799   4.032
72383W        W44808   9.829  24.782   3.542
72384W        W44809  23.183   3.650  14.541
72385W        W44810  10.654   5.039   2.568
72386W        W44811   2.374   8.345   1.241
72387W        W44812  30.809  35.483  10.579
72388W        W44813  20.183  25.947   0.416
72389W        W44814  20.683  11.559  11.764
72390W        W44815  27.494  23.152   2.625
72391W        W44816  33.259   1.320   3.544
72392W        W44817  41.482  37.755  13.985
72393W        W44818  20.736  42.914   4.499
72394W        W44819  16.499  25.992  14.349
72395W        W44820  11.153  43.205   1.445
72396W        W44821   0.515  41.953   4.386
72397W        W44822  40.620   7.300  11.943
72398W        W44823  43.797  24.700   1.482
72399W        W44824  23.545  43.331   0.232
72400W        W44825  32.350   6.386  10.239
72401W        W44826  24.857  33.943  11.207
72402W        W44827  12.198  38.498  10.672
72403W        W44828   2.506  18.134   2.877
72404W        W44829  13.883  21.467  13.781
72405W        W44830  25.229  44.803  12.867
72406W        W44831  14.162  17.134   3.011
72407W        W44832  26.955  42.542   2.338
72408W        W44833   6.301  34.546   0.985
72409W        W44834  23.969  38.521  13.043
72410W        W44835  19.278  15.453   2.852
72411W        W44836  29.561   3.739   0.040
72412W        W44837  13.307   8.767   0.144
72413W        W44838  26.256   2.034   2.742
72414W        W44839  20.722  44.467  13.034
72415W        W44840  39.607  32.027  13.990
72416W        W44841  32.494  35.296   1.761
72417W        W44842  42.839  23.964   0.848
72418W        W44843  23.413  41.052   4.558
72419W        W44844  19.024  24.289   4.136
72420W        W44845  44.942  13.445   1.937
72421W        W44846  35.166   7.424   0.801
72422W        W44847   2.344   7.090   1.870
72423W        W44848   8.785  44.069  13.888
72424W        W44849  26.567  19.818  13.353
72425W        W44850  10.941   5.361  11.948
72426W        W44851   5.622  21.130  13.367
72427W        W44852  31.241  20.746  11.637
72428W        W44853  11.224   8.391   0.834
72429W        W44854   4.684   4.821   0.104
72430W        W44855  33.695  18.967   2.227
72431W        W44856  15.618   5.735   1.240
72432W        W44857   3.359  17.665   2.304
72433W        W44858  25.714   1.851  13.547
72434W        W44859  11.760  34.117  10.857
72435W        W44860   3.856  28.857  12.375
72436W        W44861  31.525  39.157  14.004
72437W        W44862  15.135  40.759   3.641
72438W        W44863  12.710   0.413  14.203
72439W        W44864  33.985  16.623   0.240
72440W        W44865  41.353  13.397   4.330
72441W        W44866   6.434  10.767   2.664
72442W        W44867  27.425  17.056  11.249
72443W        W44868  44.411  30.685  13.333
72444W        W44869  19.293  11.184   4.620
72445W        W44870  26.938   6.799   1.766
72446W        W44871  34.342  21.595   0.906
72447W        W44872  40.801  32.495  11.964
72448W        W44873   8.226   9.925  13.862
72449W        W44874  24.556  36.365  10.806
72450W        W44875  37.434   6.724  13.840
72451W        W44876   6.626  36.378   3.437
72452W        W44877  12.637  41.263  12.781
72453W        W44878   8.297   7.490   3.671
72454W        W44879  21.059  37.550   3.733
72455W        W44880   8.274  17.806   1.320
72456W        W44881  25.483  42.494  12.979
72457W        W44882  19.108  21.534  14.396
72458W        W44883  24.537  27.283  10.651
72459W        W44884  18.871  36.364  14.529
72460W        W44885   4.212  41.582  11.972
72461W        W44886  43.473  20.899  12.617
72462W        W44887  11.693   5.810  12.071
72463W        W44888  21.753  16.827  14.217
72464W        W44889  34.963   5.323  10.554
72465W        W44890   4.467  26.050  13.954
72466W        W44891   9.736  39.467   4.268
72467W        W44892  17.109  21.210  11.677
72468W        W44893   8.153  42.514  13.320
72469W        W44894  32.420  17.169  13.378
72470W        W44895  40.714   7.277   0.865
72471W        W44896  30.520  16.155  13.056
72472W        W44897  30.012  31.190  11.863
72473W        W44898  17.054  32.518  12.530
72474W        W44899  29.215  39.761   3.711
72475W        W44900  15.542  25.959   4.685
72476W        W44901  32.795   6.755   1.347
72477W        W44902  15.404  10.214  10.716
72478W        W44903  11.193   6.233   4.924
72479W        W44904   4.388   7.779  11.141
72480W        W44905   2.311  32.941  14.755
72481W        W44906  19.025   2.226  14.021
72482W        W44907  23.056  29.961   3.216
72483W        W44908  34.385   2.868  11.601
72484W        W44909  23.502  29.772  12.161
72485W        W44910  27.536   4.568   3.593
72486W        W44911  13.360  28.666  12.987
72487W        W44912  13.275  21.725   0.013
72488W        W44913  35.159  12.403  13.359
72489W        W44914  36.069   5.887   2.156
72490W        W44915  10.556   5.121  14.501
72491W        W44916  17.774  21.110  12.893
72492W        W44917   0.872  35.850   0.613
72493W        W44918  34.340  22.568   1.350
72494W        W44919  43.183  12.639  13.010
72495W        W44920  14.820  32.624  13.938
72496W        W44921  26.493  30.944   4.402
72497W        W44922   3.231  16.624  14.689
72498W        W44923  31.988   2.943   2.712
72499W        W44924  29.802   9.605   4.490
72500W        W44925   7.015   8.756   1.701
72501W        W44926  13.083   7.338  11.263
72502W        W44927  14.271  19.049  10.748
72503W        W44928   5.667  15.080   1.272
72504W        W44929   7.679  27.944   2.816
72505W        W44930  21.487  13.136  13.380
72506W        W44931   6.564  36.692   5.410
72507W        W44932  26.040   4.827  10.712
72508W        W44933   9.097  23.515  12.510
72509W        W44934  18.838  21.001   2.322
72510W        W44935  39.824  19.682  12.945
72511W        W44936  38.008  21.105  10.612
72512W        W44937  44.902  40.888   3.260
72513W        W44938  11.837  29.794   2.970
72514W        W44939  36.338  36.210  12.492
72515W        W44940   3.864  12.075   0.205
72516W        W44941  38.713  10.102   4.200
72517W        W44942   1.772  18.461   0.444
72518W        W44943  29.199  27.101   1.928
72519W        W44944  38.795  21.825   4.183
72520W        W44945  30.886  40.502   2.624
72521W        W44946  24.283  42.767   1.782
72522W        W44947  32.033  12.157  11.936
72523W        W44948  41.261   1.412  14.337
72524W        W44949   3.912  11.711  10.752
72525W        W44950   4.244  21.675   3.677
72526W        W44951  12.455  24.103   4.127
72527W        W44952  11.948  41.735   0.958
72528W        W44953   6.714  40.335  14.956
72529W        W44954  14.526  30.520   1.912
72530W        W44955  29.408  33.648   2.698
72531W        W44956   2.416   3.621  13.886
72532W        W44957   8.633  28.435  12.056
72533W        W44958  13.028  10.195  12.859
72534W        W44959  27.390   9.745   2.815
72535W        W44960  16.079  29.083  12.313
72536W        W44961   1.569  43.375  14.907
72537W        W44962   1.778  28.570   2.312
72538W        W44963   6.657  33.252  14.547
72539W        W44964  32.328  38.389   0.834
72540W        W44965  35.442  23.762  10.858
72541W        W44966  17.662  26.604   2.834
72542W        W44967   5.374  40.593  11.750
72543W        W44968  31.073  20.622  11.159
72544W        W44969  15.116  14.292   2.693
72545W        W44970   4.201  17.624  11.126
72546W        W44971  24.313  15.365  11.543
72547W        W44972  37.293  14.345   4.214
72548W        W44973  38.330  15.549  14.134
72549W        W44974  29.962  16.913  10.649
72550W        W44975  39.873  31.876   2.690
72551W        W44976   3.933  31.270  11.581
72552W        W44977  22.705  43.926   3.280
72553W        W44978  35.419   3.231   0.147
72554W        W44979  30.873   2.386   1.599
72555W        W44980  22.562  29.962  12.468
72556W        W44981   0.234  20.802   1.208
72557W        W44982  33.393  22.414   4.768
72558W        W44983  27.307  14.893  11.145
72559W        W44984   2.375  27.154   1.554
72560W        W44985   2.239  33.711   2.212
72561W        W44986  35.965  28.657  11.106
72562W        W44987  43.696  13.275  13.262
72563W        W44988   3.319   1.025   0.719
72564W        W44989   7.689  16.256   4.614
72565W        W44990  37.074   6.886   2.301
72566W        W44991   3.395  13.299   2.799
72567W        W44992  26.314  24.059   3.386
72568W        W44993  13.631  19.968  13.567
72569W        W44994  42.844  13.209   2.333
72570W        W44995  43.573   7.950   3.651
72571W        W44996  39.263  33.958  13.513
72572W        W44997   5.375  31.893  11.609
72573W        W44998  39.049  24.474   5.236
72574W        W44999  12.128  18.710   4.104
72575W        W45000  21.047  24.746  10.661
72576W        W45001  18.860   6.102   3.536
72577W        W45002  12.045  28.355   1.686
72578W        W45003   1.913   2.016   3.651
72579W        W45004  27.109  22.247   3.662
72580W        W45005  36.149   4.476   0.914
72581W        W45006   0.406   1.052   2.312
72582W        W45007  16.209   8.890   1.940
72583W        W45008  21.310  14.847  11.794
72584W        W45009  35.152  30.385   2.272
72585W        W45010  24.004  26.379   0.346
72586W        W45011  28.479  27.710   0.525
72587W        W45012  15.576   5.382  11.661
72588W        W45013   6.214  35.088   4.065
72589W        W45014   1.450  27.237  11.229
72590W        W45015  10.671   8.714   2.383
72591W        W45016   7.963  20.720  14.934
72592W        W45017  13.300  29.402  11.083
72593W        W45018  34.362  33.129  13.395
72594W        W45019  43.894  16.139  11.568
72595W        W45020   0.756  42.427   0.349
72596W        W45021  21.191   8.559   4.679
72597W        W45022  39.541  43.982   0.942
72598W        W45023  13.534   2.891  11.116
72599W        W45024   9.470  34.080   2.248
72600W        W45025  18.734  28.997   2.724
72601W        W45026  12.823  12.141   3.710
72602W        W45027  21.688  20.368   1.366
72603W        W45028  25.267  14.384   4.154
72604W        W45029  13.838  40.489   0.458
72605W        W45030  30.185  34.632  13.842
72606W        W45031  19.779   9.725   3.622
72607W        W45032  28.630  22.301  10.444
72608W        W45033  36.060  13.783   3.775
72609W        W45034  11.052  44.189  12.005
72610W        W45035   0.308  26.013   1.747
72611W        W45036  26.893  37.028   4.036
72612W        W45037  28.525   3.902  10.570
72613W        W45038   8.832  20.572  11.262
72614W        W45039   7.959  32.423  10.881
72615W        W45040   7.837  18.568   1.491
72616W        W45041  18.424   7.133  13.373
72617W        W45042  30.762  12.766  12.200
72618W        W45043  27.701  18.402   1.851
72619W        W45044  28.589   3.259  14.391
72620W        W45045  36.516  21.455  13.872
72621W        W45046   4.038  42.326  14.392
72622W        W45047  20.315  40.751  13.845
72623W        W45048  35.453  37.164   2.236
72624W        W45049  43.125  12.344  14.956
72625W        W45050   1.285  20.492   3.585
72626W        W45051  43.266  19.666   0.868
72627W        W45052   8.952   8.646   5.021
72628W        W45053  31.518  35.824  12.461
72629W        W45054   5.286   2.904   4.434
72630W        W45055  37.086  31.599   4.214
72631W        W45056  18.632  41.814  10.726
72632W        W45057   2.208   3.202  13.660
72633W        W45058  13.330   6.960  13.113
72634W        W45059   1.736   3.444   4.885
72635W        W45060   7.725   2.189   4.147
72636W        W45061   5.431   7.910   4.741
72637W        W45062  36.908  22.221   4.237
72638W        W45063  21.829  16.387  13.898
72639W        W45064  13.024  12.242  14.195
72640W        W45065  30.868  11.491   4.914
72641W        W45066  41.300  26.548   0.826
72642W        W45067  40.937  28.824  13.897
72643W        W45068   4.251   4.318   3.089
72644W        W45069  17.095  39.801   1.302
72645W        W45070  29.365  24.955   1.330
72646W        W45071  22.058  15.035   3.513
72647W        W45072   9.323  30.497  14.468
72648W        W45073  28.209  23.635  12.118
72649W        W45074  38.275  12.693  10.280
72650W        W45075  36.521  21.170   2.184
72651W        W45076  17.939  28.239  12.559
72652W        W45077   9.122  28.969   1.831
72653W        W45078  44.353   3.520   2.919
72654W        W45079   9.911   5.411  11.951
72655W        W45080  10.740  41.974   1.359
72656W        W45081  20.201  34.787  14.371
72657W        W45082  15.168  38.581   3.087
72658W        W45083   0.225  26.234  13.003
72659W        W45084  23.701  15.777   2.340
72660W        W45085  32.371  10.920  12.998
72661W        W45086  11.452  20.248   0.376
72662W        W45087  17.146  30.477   9.830
72663W        W45088  25.676   2.747   2.878
72664W        W45089  41.230  18.812  12.494
72665W        W45090  14.330  26.184  12.679
72666W        W45091  25.732  17.689  10.877
72667W        W45092   0.487  31.548  14.922
72668W        W45093  11.772  15.419   0.258
72669W        W45094  23.785  25.916  14.493
72670W        W45095  25.504   8.945  12.873
72671W        W45096  36.923  44.406  10.716
72672W        W45097  41.458  34.824   1.406
72673W        W45098  11.564  38.893   2.198
72674W        W45099  10.715  28.136  13.536
72675W        W45100  27.501  13.275   3.189
72676W        W45101   5.014   4.449  12.320
72677W        W45102  32.714  37.860   3.287
72678W        W45103  15.913  34.056  13.107
72679W        W45104  24.232  30.145  12.973
72680W        W45105  20.685  26.925  11.416
72681W        W45106  34.788  36.246   4.167
72682W        W45107   0.395  12.357  13.435
72683W        W45108   9.932  11.543  11.211
72684W        W45109  28.542  21.170   3.067
72685W        W45110  20.697  26.115   0.560
72686W        W45111   4.218  42.363   0.240
72687W        W45112  11.415  27.957  12.841
72688W        W45113   1.732  21.804   4.613
72689W        W45114   1.385  14.382   0.468
72690W        W45115  15.539   4.160  12.862
72691W        W45116  27.988   1.676  13.213
72692W        W45117  10.773  35.856  14.342
72693W        W45118  25.790  22.589   4.463
72694W        W45119  44.422  12.142   4.530
72695W        W45120  21.018  28.622   4.495
72696W        W45121  26.899  30.867   3.325
72697W        W45122  42.081  29.051   3.770
72698W        W45123  14.832  18.313   0.818
72699W        W45124  12.205  36.013  13.570
72700W        W45125   5.930  28.112   0.287
72701W        W45126  33.570  17.676   1.889
72702W        W45127  34.756  31.096   0.957
72703W        W45128   4.916   2.328  13.219
72704W        W45129  14.586  20.621   3.822
72705W        W45130  21.537  15.526   1.944
72706W        W45131   1.357  37.865  13.359
72707W        W45132  12.241  40.050   0.087
72708W        W45133  24.688  18.326  14.003
72709W        W45134  11.392   4.821   3.617
72710W        W45135  25.882  33.575  11.304
72711W        W45136  34.564  41.746   1.887
72712W        W45137  32.423  38.844  13.828
72713W        W45138  28.418  39.407   3.235
72714W        W45139   4.284   2.256   4.338
72715W        W45140  24.423   1.044   0.231
72716W        W45141  29.161  18.352   3.310
72717W        W45142  43.817   7.490   0.452
72718W        W45143  13.687  34.814  10.745
72719W        W45144  37.354  36.334   0.866
72720W        W45145  14.860  12.003  10.238
72721W        W45146  16.656   3.168   2.306
72722W        W45147  12.657  19.149  13.420
72723W        W45148   9.102  41.687   4.941
72724W        W45149  19.960  42.444  12.874
72725W        W45150   4.979  38.527   0.286
72726W        W45151  42.429  22.300   3.228
72727W        W45152  32.423  40.428  14.772
72728W        W45153  30.508  41.272   1.840
72729W        W45154  29.695  42.806   0.998
72730W        W45155  28.200  26.064   0.738
72731W        W45156  35.069  33.827   4.940
72732W        W45157  27.197  23.486  13.894
72733W        W45158   4.148  38.057  13.871
72734W        W45159  20.460  34.776  12.703
72735W        W45160  14.669  11.741   3.677
72736W        W45161  20.162  31.596  13.294
72737W        W45162  20.552   9.730  10.783
72738W        W45163  30.960  30.966  13.000
72739W        W45164  35.846  19.021  12.454
72740W        W45165  43.908  33.617   2.907
72741W        W45166  17.147  44.026   4.718
72742W        W45167  23.094   8.564  13.499
72743W        W45168  15.607  34.603   2.208
72744W        W45169  31.504  22.647   3.062
72745W        W45170   9.017   6.200  10.161
72746W        W45171   1.897   0.936  12.427
72747W        W45172  32.826   2.924  10.362
72748W        W45173   1.221  13.084   0.742
72749W        W45174  25.674  37.991  14.852
72750W        W45175  43.871  28.497  11.464
72751W        W45176  35.053   5.897   1.810
72752W        W45177  22.014   4.385  14.759
72753W        W45178   5.660  27.450  12.603
72754W        W45179  15.287  36.885  12.534
72755W        W45180  12.282  42.886  14.755
72756W        W45181  19.996  21.667   3.822
72757W        W45182  39.343  12.837  12.606
72758W        W45183   6.207  26.694  11.583
72759W        W45184  23.485  16.038  13.525
72760W        W45185   9.653  35.508  14.590
72761W        W45186  10.892  28.464  10.822
72762W        W45187  15.884  30.271   1.608
72763W        W45188  28.536  38.176   1.236
72764W        W45189  29.601  33.419   1.635
72765W        W45190   5.609  25.112  14.482
72766W        W45191  35.906  27.456   0.074
72767W        W45192   5.862  11.603  14.525
72768W        W45193   0.692  40.868  11.508
72769W        W45194  42.039  41.994  10.563
72770W        W45195  30.998   8.319   1.874
72771W        W45196  32.458  37.593  14.735
72772W        W45197  37.628  21.880  13.426
72773W        W45198   7.556  11.804   4.901
72774W        W45199  28.905   6.261   2.203
72775W        W45200  29.359   3.870   0.517
72776W        W45201  25.156   5.940   3.348
72777W        W45202   1.034  32.070  14.377
72778W        W45203  41.283  20.225  12.401
72779W        W45204   5.983  37.545  10.298
72780W        W45205  12.406  10.505   2.782
72781W        W45206  25.530  38.070   0.405
72782W        W45207  38.394  23.469   2.896
72783W        W45208   2.435  30.203  12.314
72784W        W45209  20.273  30.391   3.702
72785W        W45210  37.329  33.462  14.793
72786W        W45211   7.748  39.519   3.371
72787W        W45212   5.284   0.831   1.883
72788W        W45213   2.715  16.787  11.931
72789W        W45214  31.467  10.676  13.789
72790W        W45215   9.750  18.029  12.035
72791W        W45216  33.826   7.328   1.101
72792W        W45217  16.200  19.261   2.389
72793W        W45218  21.815   4.416   3.225
72794W        W45219   2.922  13.335   2.561
72795W        W45220   8.275   7.968   0.041
72796W        W45221  12.924   1.359  11.781
72797W        W45222  28.543  16.392   0.525
72798W        W45223  29.174  15.748  14.910
72799W        W45224  22.520   0.673   2.866
72800W        W45225  29.884  42.252   4.098
72801W        W45226  10.794  23.186  13.793
72802W        W45227  10.633  35.020  12.864
72803W        W45228  10.736  38.559   2.369
72804W        W45229  23.804   7.685  13.729
72805W        W45230  19.637   3.317   5.209
72806W        W45231  17.139   9.532  13.228
72807W        W45232  38.968  27.426  14.493
72808W        W45233  18.241   9.364  14.181
72809W        W45234  20.028  12.760  11.397
72810W        W45235  34.346  18.328  10.627
72811W        W45236   8.045  23.725  13.329
72812W        W45237  10.234  16.308   3.625
72813W        W45238  13.301  29.140  13.743
72814W        W45239   0.686  28.558   4.697
72815W        W45240   6.317  41.845   0.800
72816W        W45241  41.624   6.915   2.264
72817W        W45242  38.228  15.760  13.623
72818W        W45243   6.873   6.107  12.058
72819W        W45244   0.685  20.262  13.468
72820W        W45245  36.024  44.168   0.921
72821W        W45246   7.516  20.174   3.584
72822W        W45247  27.861   0.940  14.386
72823W        W45248  27.988   7.155  11.134
72824W        W45249  42.277   8.224   2.867
72825W        W45250  40.319   8.718  12.444
72826W        W45251  14.525   9.871   4.660
72827W        W45252  29.927  19.250   1.644
72828W        W45253  26.026  18.796  13.856
72829W        W45254   8.123  30.160   3.037
72830W        W45255  34.305   8.270   3.318
72831W        W45256  10.314  38.323   4.710
72832W        W45257  33.438   3.813  11.381
72833W        W45258   8.402  22.082  12.917
72834W        W45259  15.407  43.927  11.314
72835W        W45260  22.489  30.557  13.144
72836W        W45261   4.260  30.601   0.673
72837W        W45262   3.239   3.805  11.611
72838W        W45263  21.679  18.219  14.763
72839W        W45264   1.975   8.163   4.559
72840W        W45265   2.204  28.695   1.174
72841W        W45266  32.479  23.733   2.673
72842W        W45267   1.656  34.862  11.128
72843W        W45268  44.869  42.802   3.872
72844W        W45269  10.688  28.180   9.932
72845W        W45270   2.977  25.875  12.378
72846W        W45271  14.098  31.956  12.501
72847W        W45272   9.654  25.802  14.364
72848W        W45273  26.492  35.919   0.052
72849W        W45274  39.452   2.499  11.046
72850W        W45275  28.758  20.043  12.081
72851W        W45276  36.485   3.415  13.874
72852W        W45277  16.781   7.433   0.317
72853W        W45278  34.739   9.708   1.786
72854W        W45279  33.057  20.320   4.163
72855W        W45280  20.361  34.352  10.778
72856W        W45281  12.739  38.860  12.820
72857W        W45282  19.046  37.858   0.607
72858W        W45283   8.819  39.547   0.888
72859W        W45284  36.909  38.259  14.913
72860W        W45285  43.926  11.168  11.630
72861W        W45286   1.009  28.029   3.468
72862W        W45287  19.282  42.866  11.314
72863W        W45288  12.820  13.402   2.287
72864W        W45289  12.426   1.768   1.841
72865W        W45290  29.487  35.035  10.778
72866W        W45291  33.411  37.103  11.110
72867W        W45292  17.639  25.443  10.845
72868W        W45293  17.645   6.885   4.578
72869W        W45294  34.396  43.236  13.798
72870W        W45295  42.018   7.699   1.718
72871W        W45296  23.792  33.560  10.713
72872W        W45297  30.031   0.989   0.269
72873W        W45298  35.555  22.618   1.317
72874W        W45299  26.332  22.693  10.615
72875W        W45300  13.282   9.846   4.703
72876W        W45301  23.185   7.805  10.501
72877W        W45302   9.168  35.060  12.938
72878W        W45303   3.802  19.739  10.714
72879W        W45304  22.095   9.941   1.964
72880W        W45305  44.512   9.765   3.360
72881W        W45306  29.329  17.102   1.771
72882W        W45307  37.293  37.155   1.342
72883W        W45308  17.250  15.367  13.141
72884W        W45309   4.298  18.525   4.186
72885W        W45310  36.850   6.826   3.266
72886W        W45311   6.010  38.764   2.718
72887W        W45312  34.911  13.678   0.923
72888W        W45313  19.182   0.393   0.935
72889W        W45314  25.735  35.975   3.312
72890W        W45315  42.952  24.696   1.843
72891W        W45316   1.713  10.193   5.228
72892W        W45317  16.589   5.319  14.422
72893W        W45318   9.028  38.064   0.016
72894W        W45319  33.581  18.794   4.116
72895W        W45320   7.409  21.701   1.533
72896W        W45321   6.301  11.659   1.867
72897W        W45322   5.432  12.415   3.328
72898W        W45323  37.405   0.964   1.042
72899W        W45324  22.046  24.510   3.306
72900W        W45325  28.384  11.732  11.491
72901W        W45326   8.302  41.702  10.464
72902W        W45327  38.294  21.034  12.463
72903W        W45328   1.874  39.793   3.256
72904W        W45329  41.049  42.182   2.838
72905W        W45330   0.941  44.517   2.390
72906W        W45331  29.610  37.481   4.545
72907W        W45332  18.945   2.241   0.825
72908W        W45333  27.571  13.376   0.005
72909W        W45334  39.349  10.382   1.805
72910W        W45335  14.098  42.992   5.072
72911W        W45336   3.774   2.405  10.633
72912W        W45337   0.803   4.279  10.583
72913W        W45338   7.643  22.067   0.422
72914W        W45339  29.601   3.846   3.285
72915W        W45340   0.325  15.296   0.721
72916W        W45341  14.895  41.698  11.083
72917W        W45342  18.229   3.327  13.861
72918W        W45343  15.511   2.263  12.866
72919W        W45344   0.277  35.430  12.334
72920W        W45345  31.006  24.136  13.655
72921W        W45346  11.880  10.622   4.777
72922W        W45347  13.444  43.297   4.087
72923W        W45348  36.130  33.110   4.135
72924W        W45349  25.684   5.012   1.594
72925W        W45350  44.427   1.599   4.660
72926W        W45351  17.188   9.473  11.258
72927W        W45352  14.020  26.021   1.795
72928W        W45353  30.505  40.541   3.281
72929W        W45354  42.948  11.236  12.548
72930W        W45355  17.015   8.469   3.311
72931W        W45356   4.260   9.097   1.292
72932W        W45357  25.050  20.687  13.098
72933W        W45358  14.478  16.527   2.706
72934W        W45359  36.613  42.305   0.880
72935W        W45360   7.600  36.389  10.949
72936W        W45361  40.045  41.584   0.239
72937W        W45362  28.225  35.418   3.181
72938W        W45363  26.029   1.336   4.304
72939W        W45364  16.333  27.390   0.372
72940W        W45365  43.453  11.636  11.595
72941W        W45366   4.246  42.528  12.877
72942W        W45367   8.119  33.194   1.332
72943W        W45368   9.957  34.968   0.548
72944W        W45369  27.129   2.931  11.724
72945W        W45370  41.448  18.758  13.468
72946W        W45371  41.850   9.715   2.148
72947W        W45372  19.512  14.103  10.640
72948W        W45373  40.026  27.948   4.791
72949W        W45374  21.770  41.561   1.749
72950W        W45375  44.703  18.109  14.942
72951W        W45376  23.603  35.589   0.312
72952W        W45377  43.459   1.039   0.201
72953W        W45378  26.033  18.018  13.087
72954W        W45379  39.732   8.765  13.837
72955W        W45380  44.963  32.720  14.340
72956W        W45381  21.654  17.534  11.941
72957W        W45382   9.789  23.262   0.951
72958W        W45383  37.794   4.925  13.600
72959W        W45384   9.908  31.466   0.725
72960W        W45385  12.174   2.480   4.890
72961W        W45386  29.137  41.764  14.690
72962W        W45387  29.450   6.318   2.126
72963W        W45388  42.168  38.054   4.441
72964W        W45389   7.386  16.639  11.594
72965W        W45390  39.854  26.565   1.300
72966W        W45391  17.101  42.489  13.925
72967W        W45392  21.025  37.815   0.953
72968W        W45393  31.964  17.150  13.081
72969W        W45394   8.211  26.986   3.304
72970W        W45395  15.270  13.264  12.516
72971W        W45396  10.163  21.299   3.356
72972W        W45397  13.749  10.120   0.431
72973W        W45398  28.287   5.497   4.000
72974W        W45399  38.803  22.899  10.601
72975W        W45400  27.622  16.432   0.414
72976W        W45401  39.348  39.820   1.790
72977W        W45402  28.799   6.188  14.553
72978W        W45403   7.183  19.122   2.321
72979W        W45404  26.782  31.233  13.932
72980W        W45405  11.428   2.667   0.344
72981W        W45406  41.092  15.147   1.938
72982W        W45407  17.935  32.008  10.451
72983W        W45408  38.996   1.762   4.134
72984W        W45409  24.246   3.499  13.747
72985W        W45410   7.978  32.346  10.345
72986W        W45411  22.779  22.079   0.252
72987W        W45412   9.331  35.435   0.942
72988W        W45413  21.347   3.224   1.955
72989W        W45414  20.514  13.874  13.028
72990W        W45415  37.476  19.425   1.496
72991W        W45416  43.923  26.547   4.758
72992W        W45417  31.907   5.484  12.004
72993W        W45418   0.364  23.755   3.153
72994W        W45419   8.800  24.397  14.924
72995W        W45420   9.648  30.073   3.225
72996W        W45421   9.034   8.227  12.574
72997W        W45422  43.387  36.914   1.932
72998W        W45423  13.668  42.749  13.046
72999W        W45424   8.903  41.507   0.270
73000W        W45425   3.222  30.168   3.761
73001W        W45426  21.099   9.759   4.141
73002W        W45427  41.544   6.631  12.505
73003W        W45428  28.704  37.849   0.368
73004W        W45429  28.375  13.664  12.675
73005W        W45430  29.940  40.452  11.136
73006W        W45431   6.128  22.654   4.994
73007W        W45432  32.633   7.423  12.827
73008W        W45433  11.930  20.853  12.380
73009W        W45434  13.710  10.795  14.858
73010W        W45435   0.487  22.824  14.945
73011W        W45436   1.570  40.519  11.387
73012W        W45437  40.092   0.778  10.198
73013W        W45438  35.190  32.817  11.978
73014W        W45439  29.544  18.700  11.178
73015W        W45440   3.150  18.730   1.557
73016W        W45441  41.367  44.608  12.958
73017W        W45442  44.494  40.713   3.549
73018W        W45443  25.033   3.817  10.924
73019W        W45444  40.779  36.987  14.668
73020W        W45445   3.182  24.123   2.810
73021W        W45446   5.647  33.946   1.273
73022W        W45447   8.944  15.582   1.821
73023W        W45448  43.992  24.759  13.615
73024W        W45449  29.602  41.993   4.630
73025W        W45450  33.531  43.945  14.786
73026W        W45451  21.766   8.767  11.544
73027W        W45452  36.788  27.670   0.641
73028W        W45453   4.420  41.980  14.529
73029W        W45454  20.638  44.550   2.437
73030W        W45455  32.965   3.708  11.895
73031W        W45456  41.359  15.244   4.633
73032W        W45457  39.788  12.075   4.173
73033W        W45458  26.346   1.856   0.275
73034W        W45459  20.977  22.873  14.785
73035W        W45460  10.778  31.428  13.844
73036W        W45461  11.908  33.525   4.674
73037W        W45462  31.534   7.176   1.310
73038W        W45463  22.613   0.417   3.323
73039W        W45464   0.387   4.689   4.508
73040W        W45465  19.983  33.914  14.214
73041W        W45466  18.125  32.387   3.271
73042W        W45467  30.573   2.882   0.292
73043W        W45468   7.146  29.522   3.275
73044W        W45469  34.904  43.527  12.559
73045W        W45470  21.543  15.860   4.746
73046W        W45471  26.814  25.025   5.151
73047W        W45472   5.509  28.700  13.064
73048W        W45473  39.228  22.137   3.999
73049W        W45474  26.602   0.867   2.005
73050W        W45475  19.238  42.436  14.253
73051W        W45476  32.156  29.048   3.254
73052W        W45477  37.551  23.232   0.274
73053W        W45478  21.779   3.185   1.535
73054W        W45479  10.793   5.787  14.689
73055W        W45480  24.670  40.647  11.530
73056W        W45481  44.265  32.866   3.764
73057W        W45482  44.771   8.848   0.712
73058W        W45483  42.915  36.920  10.582
73059W        W45484  38.481  14.146   4.249
73060W        W45485  10.544  28.080  10.657
73061W        W45486  12.295   6.011  13.812
73062W        W45487  24.570  15.468  14.819
73063W        W45488  35.321  44.485   4.125
73064W        W45489  25.594   8.211   0.732
73065W        W45490  33.192   7.249  12.389
73066W        W45491   7.651   8.414  13.869
73067W        W45492  21.013  19.092   1.262
73068W        W45493  30.648  18.988   1.916
73069W        W45494   9.379  31.461   3.891
73070W        W45495  24.775  39.360   0.360
73071W        W45496  23.635   4.197  13.490
73072W        W45497  32.476  43.383   0.852
73073W        W45498  38.693  15.357  13.315
73074W        W45499   1.493  31.299  13.036
73075W        W45500  41.485  31.198  13.057
73076W        W45501  13.192  43.068   1.795
73077W        W45502  31.420  23.203   3.825
73078W        W45503  27.535   4.446   4.543
73079W        W45504   7.168  13.540  12.622
73080W        W45505   7.955  29.721  13.473
73081W        W45506  25.177  34.799  10.946
73082W        W45507  14.257  14.235   0.692
73083W        W45508   0.446  39.531  10.589
73084W        W45509   6.538  22.587  11.989
73085W        W45510   2.365  23.705  13.934
73086W        W45511  21.079  10.364  10.933
73087W        W45512  17.179  24.745  11.511
73088W        W45513  11.071   6.148   1.626
73089W        W45514  13.342   4.771  13.487
73090W        W45515  30.599  43.512   4.044
73091W        W45516  33.009  34.624  10.491
73092W        W45517  40.542  13.436   4.474
73093W        W45518  36.471   9.691   4.804
73094W        W45519   3.799  17.192  14.281
73095W        W45520  18.659   3.486   5.542
73096W        W45521   7.362   2.320   2.856
73097W        W45522  12.186  29.155  11.092
73098W        W45523  34.620   6.889   1.921
73099W        W45524  44.268  23.077  13.786
73100W        W45525  13.039  36.353  11.473
73101W        W45526  38.329  37.927  14.047
73102W        W45527  37.317  20.025  14.784
73103W        W45528  30.775  28.391   0.464
73104W        W45529  27.558  20.516   1.403
73105W        W45530   3.874  38.400  10.848
73106W        W45531   3.365  14.336   1.341
73107W        W45532  37.406  27.620  12.877
73108W        W45533  23.022  14.837  13.531
73109W        W45534   0.667  26.977   1.777
73110W        W45535  23.563   8.677   2.337
73111W        W45536  26.589   5.839  10.948
73112W        W45537  44.193   4.476   3.822
73113W        W45538   0.880  33.141   0.559
73114W        W45539  35.005   4.400   4.027
73115W        W45540   0.714  34.384   1.337
73116W        W45541  43.189   3.875  14.885
73117W        W45542   3.108  24.620  13.418
73118W        W45543  12.938  33.339  14.768
73119W        W45544  44.007  42.381  14.450
73120W        W45545  44.981  20.973  14.960
73121W        W45546  24.686  12.796   1.917
73122W        W45547  38.843  16.643  13.510
73123W        W45548  36.105  42.489  11.602
73124W        W45549  35.814  14.535   4.182
73125W        W45550  11.236  30.073  14.641
73126W        W45551  29.547  23.999  13.769
73127W        W45552  40.871  21.758   0.215
73128W        W45553  43.212  31.926   4.371
73129W        W45554  37.259  30.380   0.534
73130W        W45555  18.524   5.367  11.552
73131W        W45556   0.678  18.771   1.435
73132W        W45557   3.284  33.439  10.009
73133W        W45558  30.145  24.240  14.145
73134W        W45559   1.837  33.990   3.551
73135W        W45560  30.499  21.191   0.221
73136W        W45561  26.429  31.190  13.575
73137W        W45562   0.301  35.666  13.477
73138W        W45563  32.538  27.138  10.954
73139W        W45564  36.246   7.466  10.231
73140W        W45565  17.043   8.603  13.293
73141W        W45566  41.372  28.372   1.863
73142W        W45567  12.528  38.125   0.675
73143W        W45568  21.151  17.045   2.423
73144W        W45569  18.117  25.945   3.776
73145W        W45570  17.065  39.802   3.698
73146W        W45571  34.774  19.529  12.381
73147W        W45572  35.416   3.263  12.600
73148W        W45573   7.304  26.009  11.452
73149W        W45574  13.852  30.300   2.435
73150W        W45575  26.857  39.719   1.637
73151W        W45576  33.343  18.791  11.426
73152W        W45577  20.596  33.320   0.381
73153W        W45578  14.870  37.847   3.265
73154W        W45579  22.033  36.348  11.227
73155W        W45580  27.177  28.099   2.809
73156W        W45581  41.491  30.944  12.608
73157W        W45582  43.246  22.334  14.438
73158W        W45583  10.895  37.815  11.123
73159W        W45584  18.169  21.703  10.682
73160W        W45585  11.594  41.867   4.160
73161W        W45586  34.609  32.909  14.297
73162W        W45587   0.866  37.128   1.434
73163W        W45588  18.618  19.659  14.350
73164W        W45589  19.799  30.195   9.653
73165W        W45590  24.129  22.831  14.043
73166W        W45591  18.480  21.439   0.645
73167W        W45592  34.988  33.028  12.431
73168W        W45593  36.994  13.564   0.323
73169W        W45594  27.366  20.136   2.274
73170W        W45595  37.963  19.297   0.947
73171W        W45596  35.780  27.879   4.356
73172W        W45597  16.313  43.556  14.821
73173W        W45598   7.927  26.406  10.291
73174W        W45599  22.227  22.816   4.905
73175W        W45600  27.334   1.158  10.573
73176W        W45601  33.444  38.908   5.447
73177W        W45602  43.507  20.780  12.114
73178W        W45603  40.047  17.175   1.878
73179W        W45604  22.015   7.602  13.087
73180W        W45605   4.755  28.259   4.206
73181W        W45606  18.761  15.182   1.680
73182W        W45607  20.442  16.720  12.823
73183W        W45608  37.525  35.160   4.592
73184W        W45609  15.590  19.288   4.686
73185W        W45610  37.343  20.245   4.534
73186W        W45611  38.332   8.163   4.528
73187W        W45612  13.602  38.500  10.970
73188W        W45613  27.174  25.914   0.862
73189W        W45614  27.649  42.732   3.227
73190W        W45615  15.821  20.976  11.021
73191W        W45616  32.336  41.528  14.019
73192W        W45617  19.723  41.899   2.427
73193W        W45618  14.420  35.423   3.150
73194W        W45619   9.071   5.421   0.726
73195W        W45620   9.744  35.207  11.630
73196W        W45621   1.320  27.230  13.559
73197W        W45622  16.678  30.863  12.464
73198W        W45623  39.770   0.847   3.784
73199W        W45624  13.303   5.295   3.724
73200W        W45625   3.206  40.696  12.902
73201W        W45626   4.712  22.701  11.632
73202W        W45627  24.995  39.087  13.463
73203W        W45628  38.046  14.748   3.047
73204W        W45629  11.091  23.340  10.166
73205W        W45630  36.014  35.533   4.815
73206W        W45631  16.664   5.710  11.006
73207W        W45632  44.032  42.912  12.513
73208W        W45633   8.240  22.937  11.475
73209W        W45634   2.608  13.864   0.943
73210W        W45635   0.032  19.031  10.707
73211W        W45636  29.150  33.430   1.865
73212W        W45637  15.506  43.440   0.954
73213W        W45638  26.678  13.591   1.741
73214W        W45639  12.721   8.224   4.103
73215W        W45640  21.753   4.228   2.327
73216W        W45641  10.974  16.444  12.440
73217W        W45642  29.480  14.724  10.690
73218W        W45643  30.474  18.624  12.111
73219W        W45644  30.122  27.473   2.788
73220W        W45645  42.253  39.910   2.213
73221W        W45646   1.261  41.371   0.414
73222W        W45647  21.578  38.669   2.528
73223W        W45648  41.052  42.820   0.253
73224W        W45649  32.440  44.850  14.800
73225W        W45650  10.164  38.774   0.693
73226W        W45651  13.577  22.791  11.796
73227W        W45652  41.376   5.226  12.777
73228W        W45653  19.481  33.258  14.739
73229W        W45654  43.805   6.416   1.979
73230W        W45655  34.331  31.123  14.020
73231W        W45656   7.502  25.677   1.915
73232W        W45657  24.570  11.894   0.396
73233W        W45658  34.293  40.498   3.928
73234W        W45659  26.205   4.250  11.429
73235W        W45660   4.380  14.795   1.658
73236W        W45661  13.792   1.691  14.728
73237W        W45662   3.775  12.487   2.149
73238W        W45663  41.022  13.592  12.365
73239W        W45664  15.586  11.136  14.707
73240W        W45665  32.449  29.522   1.177
73241W        W45666  30.111  24.790  14.808
73242W        W45667  43.972  27.978  12.125
73243W        W45668  11.122  31.216   3.757
73244W        W45669  16.625  44.354  14.022
73245W        W45670  23.270  36.523  12.494
73246W        W45671  28.041  33.052   9.546
73247W        W45672  39.467  31.536  11.185
73248W        W45673   9.425   6.020   3.747
73249W        W45674  22.601  23.455   1.753
73250W        W45675   9.435  14.228  14.437
73251W        W45676   3.964  26.211  13.885
73252W        W45677   7.355  16.101  12.463
73253W        W45678  18.368   8.588   3.426
73254W        W45679  23.184   7.810  14.891
73255W        W45680  11.254   6.944  11.033
73256W        W45681  25.431  35.204   3.632
73257W        W45682  24.658   8.576  12.529
73258W        W45683   2.172  28.185  13.503
73259W        W45684  30.093  33.621  13.877
73260W        W45685   1.927  35.367  13.368
73261W        W45686  25.908   0.253  11.954
73262W        W45687  14.573   3.661   4.213
73263W        W45688  42.373  16.824  11.474
73264W        W45689  26.676  31.810  14.582
73265W        W45690  20.866  24.893   3.081
73266W        W45691  17.070  26.516  12.037
73267W        W45692  25.216  43.499   4.395
73268W        W45693   3.453   8.850   4.190
73269W        W45694  18.691  21.269  14.230
73270W        W45695  20.062  35.320  14.463
73271W        W45696  18.831   7.876  12.058
73272W        W45697  32.075   6.232  14.840
73273W        W45698  17.224  13.494  13.937
73274W        W45699  28.042  33.030   4.606
73275W        W45700  36.790  34.635  12.547
73276W        W45701   4.187  17.032  13.953
73277W        W45702  21.064  15.805   3.103
73278W        W45703   6.826  40.403   1.454
73279W        W45704  35.946  16.689  12.188
73280W        W45705  14.472  11.264  14.466
73281W        W45706   0.743  39.147  12.178
73282W        W45707  33.087  20.625   4.731
73283W        W45708  10.518  29.259  10.961
73284W        W45709   5.242  35.779  11.206
73285W        W45710  27.664  34.872   0.330
73286W        W45711  27.633   5.720   2.812
73287W        W45712  43.295  20.465   2.907
73288W        W45713  35.663  39.528  11.931
73289W        W45714  13.547  21.583   9.777
73290W        W45715  33.062  41.541  10.413
73291W        W45716  41.371   1.410  12.852
73292W        W45717  16.353  15.370   1.297
73293W        W45718  30.902   9.609  13.929
73294W        W45719   8.815  10.383  11.957
73295W        W45720   9.527   7.181   0.976
73296W        W45721  41.454   3.746  12.438
73297W        W45722  32.198  15.649   1.733
73298W        W45723  41.554  12.836   4.159
73299W        W45724  20.209  23.313   1.019
73300W        W45725  30.009   2.340   4.750
73301W        W45726  35.572  29.655  13.975
73302W        W45727  19.670   9.715  12.895
73303W        W45728  23.081  40.242   1.969
73304W        W45729   6.209  11.152  11.185
73305W        W45730  14.740  41.770   0.932
73306W        W45731  31.462  31.353  14.990
73307W        W45732  19.995  38.420  11.072
73308W        W45733   2.699  12.384  11.303
73309W        W45734  26.012  37.880  12.341
73310W        W45735  33.443   1.770   3.715
73311W        W45736  41.209  29.066   1.139
73312W        W45737  23.891  40.287  14.911
73313W        W45738  14.805  26.210   1.238
73314W        W45739  37.447  33.481  11.513
73315W        W45740   5.754  28.097  11.244
73316W        W45741  14.858   1.475   1.813
73317W        W45742  22.007   3.659   1.523
73318W        W45743   8.199  23.171  14.031
73319W        W45744  22.070  27.529   0.731
73320W        W45745  42.938  21.076   3.460
73321W        W45746  14.196   6.363  13.808
73322W        W45747   3.484   7.399  10.720
73323W        W45748  37.796   5.259  12.133
73324W        W45749  13.879  23.141   0.862
73325W        W45750  29.770  34.092  11.954
73326W        W45751  18.118  42.012   0.670
73327W        W45752  20.088  15.103   4.070
73328W        W45753   2.738  33.873  13.562
73329W        W45754  25.074  40.903   4.472
73330W        W45755  39.606  22.057  12.141
73331W        W45756  17.079  23.049   4.926
73332W        W45757  12.288  38.611   3.658
73333W        W45758  21.246  25.210   1.000
73334W        W45759  42.358  29.423  14.862
73335W        W45760  10.075   2.026  12.832
73336W        W45761  15.859   7.831   5.084
73337W        W45762  21.780  10.903  12.059
73338W        W45763  10.679  28.930  13.638
73339W        W45764  18.145  35.476  11.328
73340W        W45765  29.174  33.085   2.396
73341W        W45766  11.662  13.953  10.878
73342W        W45767  26.111  24.975  10.463
73343W        W45768   2.436   2.249  14.710
73344W        W45769  17.746  27.723   1.914
73345W        W45770  16.022  11.786  12.335
73346W        W45771  31.034   5.353   2.854
73347W        W45772  28.422   5.273   1.178
73348W        W45773  34.831  10.054   2.682
73349W        W45774  18.331  25.038  12.530
73350W        W45775  18.295  36.975   3.725
73351W        W45776   9.198  17.994   0.632
73352W        W45777  30.071  13.104  14.847
73353W        W45778   0.855  27.215  10.635
73354W        W45779  43.913  22.500   2.707
73355W        W45780   1.403  38.285   2.922
73356W        W45781  30.342  13.330   2.263
73357W        W45782   4.714  35.449  12.997
73358W        W45783   2.860  42.739   2.441
73359W        W45784  26.794  43.646  11.701
73360W        W45785  20.678  12.186   4.143
73361W        W45786  32.678  18.349  10.125
73362W        W45787  34.684   0.506   4.067
73363W        W45788  13.672   3.471  11.131
73364W        W45789   9.478   7.846  11.156
73365W        W45790  20.022  15.228  10.733
73366W        W45791  15.301   0.492  12.471
73367W        W45792  44.350   8.905  10.577
73368W        W45793  22.259   0.736  11.457
73369W        W45794  11.702  21.055  13.643
73370W        W45795  13.293  33.618   3.774
73371W        W45796  24.773   1.741   3.777
73372W        W45797  18.095   5.417   2.285
73373W        W45798   1.295  34.979   2.404
73374W        W45799  22.719   0.398   0.921
73375W        W45800   7.673  43.005  11.628
73376W        W45801  39.764  17.339  14.454
73377W        W45802  26.155   8.869  11.075
73378W        W45803  16.691   4.821   1.970
73379W        W45804  32.576  36.573   0.190
73380W        W45805  41.012  22.426   0.518
73381W        W45806  29.842  29.182  13.543
73382W        W45807  16.718  30.411   4.091
73383W        W45808  29.832  43.330   2.355
73384W        W45809  40.536  32.155  11.063
73385W        W45810  29.092  43.350   1.604
73386W        W45811  26.925   8.721   0.747
73387W        W45812  13.823  35.294  11.980
73388W        W45813  37.330   0.539   3.156
73389W        W45814   5.440  30.375  12.507
73390W        W45815  12.091  31.868   4.616
73391W        W45816  23.560  24.998  13.778
73392W        W45817  37.481  31.719  10.382
73393W        W45818  29.940  17.523   0.982
73394W        W45819   4.872  30.645   2.856
73395W        W45820   6.423   9.901  12.381
73396W        W45821  27.521  18.963  14.208
73397W        W45822  30.515  30.836  14.586
73398W        W45823  24.725  32.552  11.951
73399W        W45824  38.192  23.891   4.225
73400W        W45825   2.916  18.735  12.005
73401W        W45826  43.806  31.936   1.533
73402W        W45827  28.212   7.352   4.625
73403W        W45828  44.838  15.411  14.506
73404W        W45829   7.039  42.088  13.779
73405W        W45830   4.400   9.015  14.312
73406W        W45831  19.022  41.337   2.347
73407W        W45832  15.246  17.630  11.154
73408W        W45833   6.705  18.884   1.389
73409W        W45834  13.835  43.890  11.198
73410W        W45835  10.936  24.133   1.947
73411W        W45836  21.019   6.325   3.825
73412W        W45837  36.127  25.762   3.808
73413W        W45838  26.339  26.688  14.405
73414W        W45839  44.350  10.822   1.505
73415W        W45840  39.885  17.579  11.329
73416W        W45841  29.143   8.482   2.289
73417W        W45842   2.731  26.528  11.599
73418W        W45843  28.373  35.355  12.961
73419W        W45844  40.074  17.554  10.335
73420W        W45845  37.064  40.076   3.262
73421W        W45846   9.781  27.024   3.890
73422W        W45847   4.491  38.850  14.938
73423W        W45848  11.277  12.088   3.835
73424W        W45849   6.334  25.838  10.794
73425W        W45850  32.139  15.613   3.184
73426W        W45851  44.535  24.590   0.766
73427W        W45852  13.358   5.196   1.804
73428W        W45853   7.783  11.689  13.276
73429W        W45854   6.420   6.885   1.436
73430W        W45855  36.512  11.219   1.557
73431W        W45856  17.675  34.554   2.890
73432W        W45857  24.047  43.014   0.462
73433W        W45858  22.698  14.089   0.779
73434W        W45859  41.472  26.707  14.411
73435W        W45860  31.152  39.310  10.926
73436W        W45861  11.237  44.514   3.717
73437W        W45862  12.688  32.924   3.708
73438W        W45863  12.734  21.456   0.929
73439W        W45864  44.357  38.275   1.849
73440W        W45865  17.067  17.231   2.143
73441W        W45866  19.469  23.132  10.397
73442W        W45867  10.228  32.072  10.163
73443W        W45868  34.097  38.845   4.078
73444W        W45869  13.804   1.218   4.072
73445W        W45870  24.732  41.298   3.245
73446W        W45871  38.389   1.170  13.902
73447W        W45872   8.179  26.659   5.123
73448W        W45873  32.051  12.352  12.867
73449W        W45874  28.460   3.761  12.919
73450W        W45875   3.385   9.117   0.473
73451W        W45876  22.263  36.011   4.061
73452W        W45877  11.356  16.599   2.827
73453W        W45878   4.492  32.487  11.525
73454W        W45879  42.281  21.468  10.318
73455W        W45880   1.691  34.918   0.530
73456W        W45881  33.103   5.117   0.268
73457W        W45882  13.182  23.038  11.567
73458W        W45883  28.562  36.612  12.042
73459W        W45884  10.353  27.383  11.578
73460W        W45885  31.058  14.123   1.361
73461W        W45886  29.919  21.438  11.383
73462W        W45887  44.535   2.311  11.537
73463W        W45888  42.835  32.922  12.008
73464W        W45889  11.368   1.939  14.288
73465W        W45890  16.761   5.714  11.561
73466W        W45891   5.019  40.372   2.346
73467W        W45892  14.711  38.479   3.988
73468W        W45893  35.496  30.726  11.414
73469W        W45894  43.644  10.382  13.686
73470W        W45895   6.933  21.975  14.872
73471W        W45896  31.541  33.876   3.682
73472W        W45897  18.591  22.014  13.845
73473W        W45898  40.341   3.938   4.411
73474W        W45899  39.468   4.681  12.460
73475W        W45900   8.773  33.725  12.449
73476W        W45901  11.547  30.519  14.578
73477W        W45902  27.891  14.053   4.838
73478W        W45903  37.399  12.465   2.311
73479W        W45904  12.811  12.656   3.770
73480W        W45905  21.151  41.801  13.182
73481W        W45906   2.049  23.162  12.879
73482W        W45907   6.280   8.861   0.697
73483W        W45908  27.461  43.723  13.405
73484W        W45909   3.595  14.725  12.094
73485W        W45910  38.159   1.540   2.688
73486W        W45911  13.437   2.586  12.351
73487W        W45912   5.328  17.347  14.353
73488W        W45913  37.757   4.955   4.025
73489W        W45914  22.976  40.931   1.281
73490W        W45915   0.835   0.446  11.979
73491W        W45916  35.867  36.334   0.166
73492W        W45917  16.027  23.129   3.657
73493W        W45918   8.328  15.719   3.647
73494W        W45919  35.024  44.914  10.867
73495W        W45920   1.671  21.258  12.058
73496W        W45921  29.593  29.717  11.560
73497W        W45922  33.573   7.231  10.026
73498W        W45923   1.936  42.984  14.768
73499W        W45924  30.187  16.632  13.540
73500W        W45925   6.095  31.012   0.107
73501W        W45926   5.821  12.730   2.082
73502W        W45927  43.263  25.124   4.291
73503W        W45928  14.479  33.302   1.866
73504W        W45929  29.638  37.587  14.483
73505W        W45930   4.525  36.751  11.534
73506W        W45931  21.804   5.635  12.992
73507W        W45932  44.352  28.965   1.762
73508W        W45933  25.570  21.204   1.254
73509W        W45934  21.810   9.887   3.619
73510W        W45935  27.514  42.281  11.497
73511W        W45936  11.841   8.948  11.620
73512W        W45937  42.379  23.429  12.902
73513W        W45938  12.905  26.067  14.082
73514W        W45939  17.081  15.846  12.090
73515W        W45940  33.012  16.980  11.539
73516W        W45941  23.103  14.411   0.934
73517W        W45942  31.890  19.854   2.811
73518W        W45943  27.289   2.706  14.462
73519W        W45944  14.011   3.099  11.126
73520W        W45945  35.151   6.767   4.738
73521W        W45946  21.173  38.438   1.766
73522W        W45947   3.343  39.561  10.582
73523W        W45948  30.297   8.867  11.250
73524W        W45949  20.308  13.362   3.811
73525W        W45950   7.808  37.922   5.008
73526W        W45951  25.086  12.017  11.487
73527W        W45952  41.011   4.085   3.338
73528W        W45953  44.920  23.088   0.760
73529W        W45954  13.592  26.679  10.176
73530W        W45955  35.571  15.861   3.225
73531W        W45956  18.705  21.540   2.638
73532W        W45957  40.635  44.731  14.248
73533W        W45958  11.923  33.132   0.635
73534W        W45959   4.210  44.582  11.155
73535W        W45960  32.666  10.710  11.644
73536W        W45961   6.308  25.199  10.714
73537W        W45962  30.359  33.555   0.365
73538W        W45963  37.394   2.049   2.148
73539W        W45964   6.613  23.088   3.174
73540W        W45965  27.141  43.017   3.269
73541W        W45966  24.061  37.601   1.730
73542W        W45967   1.627   5.349   3.386
73543W        W45968   8.092  19.047   2.234
73544W        W45969  21.681  24.758  12.419
73545W        W45970  13.309  40.666   4.637
73546W        W45971  44.597  44.793  13.064
73547W        W45972  31.649  15.299   0.249
73548W        W45973  36.968  43.499  14.654
73549W        W45974  32.801  30.464   0.754
73550W        W45975  15.632  22.560  11.335
73551W        W45976  40.349  13.638  13.978
73552W        W45977  16.782   2.984  14.811
73553W        W45978  25.968   1.321   1.858
73554W        W45979   2.844  43.337  14.446
73555W        W45980  35.433  42.429   4.300
73556W        W45981   7.318  11.393  13.429
73557W        W45982   1.724   0.178  14.488
73558W        W45983  20.222  20.262   1.616
73559W        W45984  31.980  13.107   0.904
73560W        W45985  36.671  30.023  11.984
73561W        W45986  36.988   7.033  13.932
73562W        W45987  22.386  36.127  11.577
73563W        W45988  30.734  39.539   4.241
73564W        W45989  43.576  19.952  13.749
73565W        W45990  22.718   4.641   0.284
73566W        W45991  36.494   8.466  13.528
73567W        W45992   0.995   5.943  10.621
73568W        W45993  10.779  22.987   0.355
73569W        W45994  12.090  17.345   3.764
73570W        W45995  43.014  40.328   2.374
73571W        W45996   1.827  23.232   3.355
73572W        W45997   3.298  14.122   3.405
73573W        W45998  12.732   1.016   1.370
73574W        W45999  44.383  11.680  12.098
73575W        W46000  39.107  10.749  12.415
73576W        W46001  30.331   7.846   1.946
73577W        W46002  44.036  24.620   4.140
73578W        W46003  12.107  12.237   2.386
73579W        W46004  17.601  31.568   4.082
73580W        W46005  40.711   9.180   3.283
73581W        W46006   9.642  30.732   2.885
73582W        W46007  13.854  42.993  11.089
73583W        W46008  19.980   5.793   1.588
73584W        W46009   3.962   4.717   3.287
73585W        W46010  18.602  28.988   3.632
73586W        W46011  13.682  43.371   4.549
73587W        W46012  38.840  21.199  11.735
73588W        W46013  41.419  31.185  13.996
73589W        W46014  15.761  15.586  13.370
73590W        W46015  41.469   0.105  14.679
73591W        W46016   6.376   0.335   2.844
73592W        W46017  30.633  24.144   3.622
73593W        W46018   8.283  44.141  14.314
73594W        W46019  13.595  18.144  14.288
73595W        W46020  41.382  12.766  13.311
73596W        W46021  34.832   7.831   3.179
73597W        W46022   3.638  22.070   1.365
73598W        W46023  14.499  19.751  11.136
73599W        W46024  25.165  28.427  10.723
73600W        W46025  32.456  18.672   4.690
73601W        W46026   3.158  25.144  13.364
73602W        W46027   3.996  34.410  11.129
73603W        W46028  14.027  10.089  11.062
73604W        W46029  31.137  18.194   2.401
73605W        W46030  29.871   0.988  12.787
73606W        W46031  11.614   8.919  11.099
73607W        W46032  29.603   3.428  14.607
73608W        W46033   6.396  35.878   2.342
73609W        W46034  18.074  29.636   0.325
73610W        W46035  35.329  44.422   3.291
73611W        W46036  13.683  28.972   3.165
73612W        W46037  39.246  29.157  14.573
73613W        W46038  10.324  23.589   5.190
73614W        W46039  38.224  16.123   4.124
73615W        W46040  20.986   2.210  14.125
73616W        W46041  15.356  37.643  14.061
73617W        W46042  38.468  28.068   4.186
73618W        W46043  38.359  35.612   4.899
73619W        W46044  21.049  29.134   2.170
73620W        W46045   4.832  36.145  11.116
73621W        W46046  20.813  33.861  11.929
73622W        W46047  33.847  37.657   1.352
73623W        W46048   6.543  17.042   1.886
73624W        W46049  29.686  27.279   1.788
73625W        W46050   5.558  18.430   4.589
73626W        W46051  14.698  29.419   3.195
73627W        W46052  15.361   2.746  12.943
73628W        W46053  18.446  40.834   2.642
73629W        W46054   1.859  24.702   1.444
73630W        W46055   8.286  40.070   1.937
73631W        W46056  18.068  32.147  12.617
73632W        W46057  26.614  29.436   2.386
73633W        W46058   6.312   0.693   0.060
73634W        W46059  22.700   2.854  10.777
73635W        W46060   0.568  26.863  14.582
73636W        W46061   9.701  39.466  11.043
73637W        W46062  38.577  18.573   4.837
73638W        W46063  19.742  13.686   3.189
73639W        W46064  41.828  15.263  13.353
73640W        W46065  19.418  39.015   1.943
73641W        W46066  21.302  36.580   2.644
73642W        W46067  13.151  18.070   3.786
73643W        W46068  28.199  29.800  14.463
73644W        W46069  17.533   4.806   1.702
73645W        W46070   1.683   2.712  14.955
73646W        W46071   0.302  42.999  12.947
73647W        W46072  38.391  36.139   4.799
73648W        W46073  16.065  44.524   1.917
73649W        W46074   5.249  41.931   0.838
73650W        W46075  18.215   6.914   4.612
73651W        W46076   7.056  13.719  12.145
73652W        W46077   6.918  36.411   4.298
73653W        W46078  40.932  40.943  10.593
73654W        W46079  25.184   3.052   1.263
73655W        W46080  20.735  42.974  13.126
73656W        W46081  25.483  42.444  10.685
73657W        W46082  16.542  23.690  13.057
73658W        W46083  22.665  15.820  14.337
73659W        W46084  44.988  27.995  11.912
73660W        W46085   2.347   8.688   2.272
73661W        W46086   2.190  27.609  14.787
73662W        W46087  25.075  12.509   4.586
73663W        W46088  21.227   5.526   0.272
73664W        W46089   0.397   7.388   3.703
73665W        W46090  33.349   0.030   0.528
73666W        W46091  15.437   4.359  14.732
73667W        W46092  25.954   5.542  12.931
73668W        W46093  37.037  43.292  13.106
73669W        W46094  27.680  43.595   4.156
73670W        W46095  22.101  24.671   0.956
73671W        W46096   5.482  11.669  11.626
73672W        W46097  20.909  10.394   1.323
73673W        W46098  23.126  39.065   1.240
73674W        W46099  17.626   7.625   2.195
73675W        W46100  18.361   9.847  11.070
73676W        W46101  25.185  27.206   2.763
73677W        W46102  18.070  25.423   2.828
73678W        W46103  16.037  15.796   4.321
73679W        W46104  32.622  24.264   3.677
73680W        W46105  13.784  30.360  11.281
73681W        W46106  27.021  12.874  14.542
73682W        W46107   3.966   6.234   1.386
73683W        W46108  40.574  30.867  14.446
73684W        W46109  18.028  31.639  12.544
73685W        W46110  19.138  26.093  10.828
73686W        W46111  17.890  34.518  12.511
73687W        W46112   3.769  18.824   1.320
73688W        W46113  15.146  29.226   1.402
73689W        W46114   6.671   1.525   2.030
73690W        W46115  38.076  33.578   2.199
73691W        W46116  11.102  13.833   0.021
73692W        W46117   2.423  35.398  11.071
73693W        W46118  12.132   6.690   3.782
73694W        W46119  20.229  39.012  14.567
73695W        W46120  25.798  26.504   5.106
73696W        W46121  16.034  10.862  10.534
73697W        W46122  12.467   9.394   0.329
73698W        W46123   2.218  20.720  14.812
73699W        W46124   6.143  24.211  10.776
73700W        W46125   2.810  22.743  12.532
73701W        W46126  31.042  27.939  10.290
73702W        W46127  18.992  25.565  10.658
73703W        W46128   1.247  35.837   4.632
73704W        W46129  40.460   7.705   2.146
73705W        W46130  35.533  15.154  12.626
73706W        W46131  22.803  11.239  11.042
73707W        W46132  41.209   0.909  14.494
73708W        W46133  35.073  41.954   0.165
73709W        W46134  28.445  13.609  11.373
73710W        W46135  29.907   0.903   4.557
73711W        W46136  27.045  12.572   0.056
73712W        W46137   1.678   7.398   1.604
73713W        W46138  37.548  14.077  13.089
73714W        W46139  16.548   8.765   4.981
73715W        W46140   0.754  11.225  10.512
73716W        W46141  37.426  33.906  14.403
73717W        W46142  26.676  21.576   0.695
73718W        W46143  30.357  21.275   3.629
73719W        W46144  11.939  43.940  12.006
73720W        W46145  28.244  33.579   0.027
73721W        W46146  17.736   1.775   1.900
73722W        W46147  31.522   9.234  11.696
73723W        W46148  28.403  28.165  14.819
73724W        W46149  41.373  32.031  11.533
73725W        W46150  22.680  10.735   2.762
73726W        W46151  31.909   9.797   0.245
73727W        W46152  35.814   2.449  11.467
73728W        W46153  41.201  16.902   2.299
73729W        W46154  43.172  38.834   0.370
73730W        W46155   7.349   8.409  10.087
73731W        W46156  21.047  42.809  14.419
73732W        W46157  26.982  34.195  13.054
73733W        W46158   9.901  13.697   4.193
73734W        W46159  24.187  23.924   2.832
73735W        W46160  37.523   6.921   1.942
73736W        W46161  32.517  13.836   4.157
73737W        W46162  37.944  11.977  13.416
73738W        W46163  18.455  40.265  12.120
73739W        W46164  27.433  18.883   1.777
73740W        W46165  30.596  12.539   4.512
73741W        W46166  20.168  19.790  12.127
73742W        W46167  37.838  24.060   0.315
73743W        W46168  24.016  20.723  14.602
73744W        W46169   3.673  36.675   2.206
73745W        W46170  36.155  39.717   4.924
73746W        W46171  17.631  29.080   3.838
73747W        W46172  26.303  44.037   1.483
73748W        W46173  24.405  29.372   4.925
73749W        W46174  44.015  37.184  11.263
73750W        W46175  24.983  13.648  12.494
73751W        W46176  40.774  19.994  11.602
73752W        W46177  39.460  12.344  12.516
73753W        W46178   1.301  39.832   4.526
73754W        W46179  13.370  28.666  12.086
73755W        W46180  15.639  13.883   4.149
73756W        W46181   8.871   8.351  12.110
73757W        W46182   8.148  14.583  12.427
73758W        W46183  40.700  21.113  13.751
73759W        W46184   4.510   2.543  14.936
73760W        W46185   9.782  21.681   2.301
73761W        W46186  18.753  43.503   3.720
73762W        W46187  12.550  27.988  13.796
73763W        W46188   3.678  22.544   4.570
73764W        W46189   6.681  29.555   2.324
73765W        W46190  39.050   5.469  12.535
73766W        W46191  29.963  26.237  11.243
73767W        W46192  19.302   3.701   2.464
73768W        W46193   8.197   2.193  14.355
73769W        W46194  43.129  41.789  12.385
73770W        W46195  21.616  21.336  12.358
73771W        W46196   8.661   5.185  11.483
73772W        W46197  43.213  20.988  14.682
73773W        W46198  24.695  27.786  10.481
73774W        W46199  37.471  20.675   4.934
73775W        W46200  25.673   9.309   4.225
73776W        W46201   4.225  31.676  11.180
73777W        W46202  36.623  25.058  13.141
73778W        W46203  26.026  35.306  12.840
73779W        W46204  13.229  15.353  11.569
73780W        W46205  16.308  34.117  10.878
73781W        W46206  22.438   2.438  13.534
73782W        W46207  12.156  38.883  13.503
73783W        W46208   7.691  29.480  13.112
73784W        W46209  30.890  30.483   1.944
73785W        W46210  17.607  25.327  13.209
73786W        W46211  27.472   3.265  11.461
73787W        W46212  13.827  24.762  10.638
73788W        W46213   0.242   5.797   2.778
73789W        W46214  27.673   3.911  13.484
73790W        W46215   1.376  10.176   2.805
73791W        W46216  31.752  19.303   0.942
73792W        W46217  10.103   8.093  10.546
73793W        W46218  24.526  41.319  11.040
73794W        W46219   1.178  29.964  11.091
73795W        W46220  10.313   7.802   1.198
73796W        W46221  41.700  30.305  10.233
73797W        W46222  25.638  10.428   2.024
73798W        W46223  12.798  34.689   2.610
73799W        W46224   1.011  21.275   1.374
73800W        W46225  14.807  24.147  14.355
73801W        W46226  35.358  38.930   1.824
73802W        W46227  20.790  31.339   3.977
73803W        W46228   3.830  39.907  12.477
73804W        W46229  40.427   9.624  12.224
73805W        W46230   3.772  12.766   3.773
73806W        W46231   2.689   3.341  13.532
73807W        W46232  43.998  16.324   3.687
73808W        W46233  13.921  29.081   4.296
73809W        W46234  39.246   0.415   4.277
73810W        W46235  27.427   0.847   3.804
73811W        W46236   3.275  37.897  10.683
73812W        W46237  35.958   6.793  10.808
73813W        W46238  27.068  39.485  14.780
73814W        W46239  43.299   2.218   1.761
73815W        W46240   8.625  38.067   1.989
73816W        W46241  43.472  10.811   1.430
73817W        W46242  37.313  19.079  14.762
73818W        W46243  39.530   5.867   0.350
73819W        W46244  41.604  35.404  12.765
73820W        W46245  11.112  28.904  12.847
73821W        W46246   8.537   3.910   0.287
73822W        W46247  23.166  22.783  13.979
73823W        W46248   7.767  31.805  13.453
73824W        W46249   9.647  35.222   2.774
73825W        W46250   2.400  37.054  12.491
73826W        W46251  44.150  38.962  14.486
73827W        W46252  23.262  13.407   0.794
73828W        W46253   7.811  33.085   3.287
73829W        W46254  18.661   7.666   2.744
73830W        W46255   8.640  32.944  13.833
73831W        W46256  11.308  20.842   3.517
73832W        W46257  12.329  17.066   2.273
73833W        W46258  41.987  18.438  13.612
73834W        W46259  41.934  21.318   0.162
73835W        W46260   3.164  31.654   0.834
73836W        W46261  19.735  41.213  10.974
73837W        W46262  29.387  24.231   2.097
73838W        W46263  22.443  18.631   2.550
73839W        W46264  11.745  17.838  11.065
73840W        W46265  40.441  39.020  11.705
73841W        W46266  36.054  14.421   0.311
73842W        W46267  17.611  39.809  12.504
73843W        W46268  18.064  44.764  13.105
73844W        W46269  25.989  40.880  13.952
73845W        W46270  35.374  24.243  10.114
73846W        W46271  13.603  39.644  11.845
73847W        W46272  34.857   1.746   4.182
73848W        W46273  18.615  22.788  13.320
73849W        W46274  14.869  13.567   4.184
73850W        W46275   0.840   4.492  13.364
73851W        W46276  31.385   9.194   2.712
73852W        W46277  24.071  23.784   1.967
73853W        W46278  37.300  32.081  14.468
73854W        W46279  17.741   7.342   3.317
73855W        W46280   5.438  19.161  12.918
73856W        W46281  10.379  15.865   1.760
73857W        W46282  41.823  32.595   4.568
73858W        W46283  18.521   1.371   5.480
73859W        W46284  37.128  35.737   0.785
73860W        W46285  26.838  28.148  13.789
73861W        W46286  17.244  25.441   4.615
73862W        W46287  33.945  13.326   4.136
73863W        W46288  20.752  25.629   3.705
73864W        W46289  12.158  32.903  12.852
73865W        W46290  24.568   2.840  14.924
73866W        W46291  30.893   5.266   3.342
73867W        W46292  30.048  18.433  11.506
73868W        W46293  20.282  36.321   3.206
73869W        W46294  34.908  12.552  12.156
73870W        W46295  24.800  16.760  12.456
73871W        W46296  20.638  37.030   1.620
73872W        W46297  11.787  22.257  13.352
73873W        W46298   3.760  13.837  12.035
73874W        W46299   7.789   3.235   1.124
73875W        W46300  42.847   9.189  12.766
73876W        W46301  42.725  23.763  13.159
73877W        W46302  44.910  25.468  11.545
73878W        W46303  13.840  18.027   0.821
73879W        W46304  32.569  28.151   3.251
73880W        W46305  16.229  11.840  14.914
73881W        W46306  40.458   6.996  12.885
73882W        W46307   3.301   3.377   3.462
73883W        W46308  23.454  19.413   1.454
73884W        W46309   2.409  20.311   3.247
73885W        W46310  11.221   9.146  10.809
73886W        W46311  23.082   3.884  13.154
73887W        W46312   7.715   5.579   4.165
73888W        W46313  38.695  15.348  11.973
73889W        W46314  23.489  37.526   2.889
73890W        W46315  15.327  21.954   1.392
73891W        W46316   6.980  44.643   3.616
73892W        W46317  17.651  24.959  10.683
73893W        W46318  25.427  31.918   0.373
73894W        W46319  43.093   5.716   3.385
73895W        W46320  30.162  43.705  14.335
73896W        W46321  21.182  44.020   3.622
73897W        W46322  17.040   0.324  14.260
73898W        W46323   0.039   1.432  11.648
73899W        W46324  19.801  20.771  13.525
73900W        W46325  20.768  38.212   0.704
73901W        W46326  43.016  38.197   0.829
73902W        W46327  38.871   1.437  13.877
73903W        W46328   9.145  10.850   4.735
73904W        W46329  32.859  21.329  11.808
73905W        W46330  26.004  33.434  10.832
73906W        W46331  28.054  24.457   4.242
73907W        W46332  30.117  24.655   4.230
73908W        W46333  17.091   7.202  12.884
73909W        W46334  17.707   4.229   0.988
73910W        W46335  10.074  28.575   1.180
73911W        W46336  40.701  38.588  12.892
73912W        W46337  20.219  34.556  14.991
73913W        W46338   7.135  21.036  14.759
73914W        W46339   7.848   1.877  10.622
73915W        W46340  18.763   7.140   0.249
73916W        W46341   7.748  36.964  10.299
73917W        W46342   9.756  22.553   0.342
73918W        W46343  22.713  42.220   1.266
73919W        W46344  24.424  13.280   4.258
73920W        W46345  18.367   1.475   0.515
73921W        W46346  38.547  27.061  13.316
73922W        W46347  10.787  22.930  11.400
73923W        W46348   1.844  33.366   0.421
73924W        W46349  16.797   2.754  14.346
73925W        W46350   2.843  43.407   3.109
73926W        W46351  13.007   9.825  13.529
73927W        W46352  43.325  32.077  11.993
73928W        W46353  29.213  12.759   0.080
73929W        W46354  30.431  42.323   1.359
73930W        W46355  21.776  41.960  14.969
73931W        W46356  28.890  10.160   4.152
73932W        W46357  35.595  37.523  14.589
73933W        W46358  37.795   1.171  12.369
73934W        W46359  15.930  10.393  12.016
73935W        W46360  26.940  40.786   4.043
73936W        W46361  43.648  15.177   3.010
73937W        W46362  14.315   5.874   4.669
73938W        W46363   8.190  10.384  12.833
73939W        W46364  33.925  30.250   0.340
73940W        W46365  20.152  36.434  10.581
73941W        W46366  25.329  30.234  11.505
73942W        W46367   5.722  42.247  13.210
73943W        W46368   6.078  20.973   5.076
73944W        W46369  34.970   4.651  13.601
73945W        W46370  43.912  44.327   0.941
73946W        W46371  11.531   1.304   0.141
73947W        W46372  14.423  25.223   1.340
73948W        W46373   1.592  19.300  14.032
73949W        W46374  13.880  29.941   4.077
73950W        W46375   1.441  43.817   1.377
73951W        W46376  16.055  12.832  14.775
73952W        W46377  28.087   4.726  14.918
73953W        W46378  25.450   0.282  14.923
73954W        W46379   3.108  31.970  10.763
73955W        W46380  24.062  22.082   1.893
73956W        W46381   6.765  15.044   3.285
73957W        W46382  15.782  37.342  13.967
73958W        W46383  40.977  18.569   4.552
73959W        W46384  44.989  37.876   4.050
73960W        W46385  29.328  16.552   0.851
73961W        W46386   6.852  14.873  12.458
73962W        W46387  28.069  31.996   2.932
73963W        W46388  17.554  30.121   3.364
73964W        W46389   2.537  11.810   2.819
73965W        W46390  17.690  41.527   3.166
73966W        W46391  18.673   2.992  12.117
73967W        W46392  35.527  25.222  11.096
73968W        W46393  28.599  41.041  14.931
73969W        W46394  24.427  37.512  11.133
73970W        W46395  29.655  21.156   4.102
73971W        W46396   0.159  43.909   3.192
73972W        W46397  19.630  43.246  11.584
73973W        W46398  34.981  18.530  10.415
73974W        W46399  43.065  36.716   5.115
73975W        W46400  22.652  44.160   5.222
73976W        W46401   4.045  42.062  14.860
73977W        W46402  12.747  17.573  11.778
73978W        W46403  13.535  16.438  11.910
73979W        W46404  17.879  12.456  14.905
73980W        W46405   5.369  20.761   2.113
73981W        W46406  24.629   2.529   3.376
73982W        W46407   7.261  18.030  11.070
73983W        W46408  32.983  29.954  11.175
73984W        W46409  28.542  11.172   3.691
73985W        W46410  39.951  36.326   3.217
73986W        W46411  29.106  20.872  10.778
73987W        W46412  32.148  21.309   4.735
73988W        W46413  32.611   3.958   3.659
73989W        W46414  10.946   4.397   1.979
73990W        W46415  28.964  40.827   3.714
73991W        W46416  18.498   6.819  14.920
73992W        W46417  33.565  36.981  13.469
73993W        W46418  14.247   0.895   3.741
73994W        W46419  38.249  17.153  10.435
73995W        W46420  40.211  25.227   4.519
73996W        W46421  13.290  30.513   1.241
73997W        W46422  15.072  11.829   4.107
73998W        W46423  11.212   8.292  14.995
73999W        W46424  23.979  38.896  14.737
74000W        W46425  10.308  12.814  11.600
74001W        W46426  32.146  38.241  12.532
74002W        W46427  27.957  34.296   2.311
74003W        W46428  38.437  10.928  12.904
74004W        W46429   9.763  25.207   3.250
74005W        W46430  18.289   6.922   0.401
74006W        W46431  44.744  21.690  12.967
74007W        W46432   4.060  17.786  11.596
74008W        W46433  10.315   1.787  11.537
74009W        W46434  37.486  35.836   1.758
74010W        W46435  12.597  16.499   1.042
74011W        W46436  38.355  20.309   2.322
74012W        W46437  42.889  35.883  11.198
74013W        W46438  34.503  13.062   2.415
74014W        W46439  36.419   1.767  11.892
74015W        W46440  35.942   6.254  10.712
74016W        W46441   8.724  27.092   3.339
74017W        W46442  11.578  24.097  13.606
74018W        W46443  24.481   2.308   3.806
74019W        W46444   2.496  29.902  13.929
74020W        W46445  16.999  44.991   4.199
74021W        W46446  33.869  29.978   1.293
74022W        W46447  42.316  37.948   1.380
74023W        W46448  30.878  28.846  14.240
74024W        W46449   9.226  11.090   4.264
74025W        W46450  24.828   5.775   0.885
74026W        W46451  16.429   5.480   3.204
74027W        W46452  26.416  30.472  10.754
74028W        W46453  18.009  16.137   3.167
74029W        W46454   4.284  38.064  10.738
74030W        W46455  40.181  34.005   1.835
74031W        W46456  28.072  31.126  13.833
74032W        W46457  40.834   0.334  11.134
74033W        W46458   5.356  32.042   2.161
74034W        W46459  18.952  11.796   0.299
74035W        W46460  25.151  35.004   2.000
74036W        W46461  23.861   3.225  13.365
74037W        W46462  39.404  29.662  14.508
74038W        W46463  41.504  42.423   4.316
74039W        W46464   4.146  10.303  11.705
74040W        W46465  37.561  26.398   1.273
74041W        W46466   5.260  34.405   4.281
74042W        W46467  38.251  40.449  12.079
74043W        W46468  16.136  36.912   4.032
74044W        W46469  14.310  32.439  12.600
74045W        W46470  39.030  41.447   3.731
74046W        W46471  31.262  24.825  13.357
74047W        W46472   3.340  41.426   2.784
74048W        W46473   1.674  35.506  13.830
74049W        W46474  17.846  42.345  13.472
74050W        W46475  39.012   1.759   0.988
74051W        W46476  37.787  20.727  12.507
74052W        W46477   7.139  10.789   1.283
74053W        W46478  37.215  43.790   1.375
74054W        W46479   8.888  17.597   2.812
74055W        W46480   9.753  16.193  14.173
74056W        W46481  43.563  27.496   3.377
74057W        W46482  35.419  22.174  14.886
74058W        W46483  29.371  22.295  12.377
74059W        W46484  31.480  42.241   0.263
74060W        W46485  40.641  13.213  13.863
74061W        W46486  21.909  35.971  11.546
74062W        W46487  20.030  13.187  13.558
74063W        W46488   0.556  33.573  11.953
74064W        W46489   2.291  14.384  13.533
74065W        W46490   0.960  14.540   2.261
74066W        W46491   1.717   2.097  10.912
74067W        W46492  24.067  20.748   2.364
74068W        W46493  42.136  39.169  13.782
74069W        W46494  29.430  33.626  11.981
74070W        W46495  31.485  41.985   4.010
74071W        W46496   0.548   7.237   2.352
74072W        W46497  16.073  19.635   0.733
74073W        W46498  15.122  14.022   1.412
74074W        W46499  31.459  24.128  14.249
74075W        W46500  25.457  35.121  12.025
74076W        W46501  19.671   0.058  14.295
74077W        W46502   7.960   5.160  13.555
74078W        W46503  35.949   1.121  12.843
74079W        W46504  29.529  43.332  12.746
74080W        W46505   7.145  37.470   2.112
74081W        W46506  24.908   2.952   0.785
74082W        W46507  44.361  22.413  11.571
74083W        W46508  10.001   7.243   4.955
74084W        W46509  34.074  20.595   2.797
74085W        W46510  42.348  21.939  14.520
74086W        W46511  29.435  21.542  13.962
74087W        W46512  31.885  21.795  14.928
74088W        W46513   6.596  18.329   4.602
74089W        W46514  39.526  20.367  10.326
74090W        W46515  13.828  44.022   3.334
74091W        W46516  44.900  23.308   1.908
74092W        W46517  44.839  24.041  12.011
74093W        W46518   8.211  21.753  14.755
74094W        W46519  35.949   1.382   1.262
74095W        W46520  21.240  24.532   2.445
74096W        W46521  11.965  30.141   1.408
74097W        W46522  36.146  31.403  13.961
74098W        W46523  34.562  36.678  13.508
74099W        W46524  20.199  14.297  12.938
74100W        W46525  11.206  36.339   0.973
74101W        W46526   4.610  28.697  13.412
74102W        W46527  23.556  35.388   4.024
74103W        W46528  23.385  17.185  13.797
74104W        W46529   8.858  30.555   2.664
74105W        W46530  14.176  21.137  10.397
74106W        W46531  41.361  37.442   0.403
74107W        W46532  38.149   4.125  11.527
74108W        W46533  23.614   9.768   3.928
74109W        W46534   8.298  26.603   2.041
74110W        W46535  15.012   6.019   4.235
74111W        W46536  26.190  33.889  11.051
74112W        W46537  43.234   9.241  11.945
74113W        W46538  35.934  13.676   2.897
74114W        W46539  38.562  25.131   2.416
74115W        W46540  10.737  39.799   2.664
74116W        W46541   2.756  21.978   1.939
74117W        W46542  38.629  31.872   4.204
74118W        W46543  36.154  18.239   2.343
74119W        W46544  35.827  19.061   2.384
74120W        W46545  21.458  32.133   0.313
74121W        W46546  31.869  12.122  14.921
74122W        W46547  27.122   1.658  14.585
74123W        W46548  27.526  16.601   0.908
74124W        W46549  17.714   2.461  13.353
74125W        W46550  23.016  34.403   1.421
74126W        W46551  16.889  28.533   0.117
74127W        W46552  19.122  12.982  14.070
74128W        W46553  30.981  26.992  14.530
74129W        W46554  30.719   9.663  14.955
74130W        W46555  31.002  21.015   4.428
74131W        W46556  38.793  17.233  12.107
74132W        W46557  34.554  19.478   0.211
74133W        W46558   3.696  18.216   2.154
74134W        W46559  10.206  19.929   0.640
74135W        W46560   5.271  15.153  13.362
74136W        W46561   8.363  26.981  10.525
74137W        W46562  36.864   8.619  14.867
74138W        W46563  19.553  35.775   0.123
74139W        W46564  41.927  15.711   4.094
74140W        W46565  43.832  43.305   1.274
74141W        W46566  35.381  31.872  13.889
74142W        W46567  29.423  23.518   1.541
74143W        W46568  43.469  42.221  11.829
74144W        W46569  38.057  11.672   4.103
74145W        W46570  35.538  13.806  13.436
74146W        W46571  35.663  41.804  12.905
74147W        W46572  30.072  42.773  13.966
74148W        W46573  27.247  23.149   0.061
74149W        W46574   9.703   8.771   2.657
74150W        W46575  11.055  23.092  14.529
74151W        W46576   2.309  24.075  11.925
74152W        W46577  12.366  32.231   2.511
74153W        W46578  34.607  24.203   1.427
74154W        W46579  18.518  39.924   0.159
74155W        W46580  37.361  39.701  11.098
74156W        W46581  39.817   4.178   2.910
74157W        W46582  20.131  32.994  11.004
74158W        W46583  33.382  33.093   1.737
74159W        W46584  31.569   3.961   1.863
74160W        W46585  23.469   2.967  11.161
74161W        W46586  38.508  42.688  10.112
74162W        W46587  17.213  33.161   1.418
74163W        W46588  42.917  13.056  11.952
74164W        W46589   7.989  42.420   3.508
74165W        W46590  13.093  11.984  13.749
74166W        W46591  17.325  28.297   3.589
74167W        W46592   3.034  37.748   3.285
74168W        W46593  41.217  15.543   4.234
74169W        W46594   3.409  18.883  10.660
74170W        W46595   2.990  36.049   1.245
74171W        W46596  22.998  42.986   1.365
74172W        W46597  19.304  18.525   1.410
74173W        W46598  35.255  30.957   1.020
74174W        W46599  18.548   8.862   0.789
74175W        W46600   6.929  41.393  10.985
74176W        W46601  18.115  13.213   3.751
74177W        W46602  43.849  19.279  14.501
74178W        W46603  37.389  29.946   2.401
74179W        W46604  32.400  25.064   1.189
74180W        W46605   3.504  40.758   2.072
74181W        W46606  13.423   6.471   3.206
74182W        W46607  35.712  14.745  14.491
74183W        W46608  34.406  35.469   2.216
74184W        W46609  14.642  11.897   0.396
74185W        W46610  13.334  28.999   0.834
74186W        W46611   2.042  27.649  13.068
74187W        W46612  20.657  21.158   2.924
74188W        W46613  23.107  27.002   1.350
74189W        W46614  35.073  16.253  10.585
74190W        W46615  37.736   2.306   4.166
74191W        W46616  44.346  11.921  12.548
74192W        W46617  28.954  30.197  12.971
74193W        W46618  32.593   9.813   3.361
74194W        W46619  40.989   3.445   2.706
74195W        W46620  13.012  41.043   3.668
74196W        W46621  24.533  35.120  14.662
74197W        W46622  44.983  36.718   4.872
74198W        W46623  23.946   6.046  13.443
74199W        W46624  33.042  19.545   3.225
74200W        W46625   8.895  37.178   3.742
74201W        W46626   2.917  25.157   2.313
74202W        W46627  32.840  37.360   1.986
74203W        W46628  24.956   6.957   0.612
74204W        W46629  25.658   7.390  10.713
74205W        W46630   8.428  30.432  14.116
74206W        W46631  16.352  24.108   1.140
74207W        W46632  40.836  41.883   5.100
74208W        W46633   8.770  15.872   3.033
74209W        W46634   5.089   2.516  11.509
74210W        W46635  16.261  26.572   1.560
74211W        W46636  27.735  15.159  13.353
74212W        W46637   2.793  27.698   2.016
74213W        W46638  22.159  33.831  12.146
74214W        W46639  33.619  15.980   4.851
74215W        W46640  44.275  20.260  14.745
74216W        W46641   5.540  36.543  12.504
74217W        W46642  38.405   2.803  14.008
74218W        W46643  42.069   2.321  11.013
74219W        W46644  20.286  16.940  10.225
74220W        W46645  25.866   7.944   4.361
74221W        W46646   0.588  37.587  14.212
74222W        W46647  44.324  42.243  10.626
74223W        W46648  29.730  38.465  14.815
74224W        W46649  30.141   9.661  14.913
74225W        W46650   0.361  16.632   2.762
74226W        W46651  21.236   5.780   4.796
74227W        W46652  20.470  44.963   2.803
74228W        W46653   4.815  11.443  11.555
74229W        W46654  41.918   8.983   2.652
74230W        W46655   4.129  15.867  11.525
74231W        W46656  19.063  33.594   2.856
74232W        W46657  42.904   2.726   1.204
74233W        W46658  34.131  24.987   2.669
74234W        W46659   0.717  20.305  12.032
74235W        W46660  19.528  23.163  10.913
74236W        W46661   2.853  41.282   2.515
74237W        W46662  10.351  42.237   4.069
74238W        W46663  34.929  32.893  14.884
74239W        W46664  11.178   1.215   2.807
74240W        W46665  16.268  25.744   4.099
74241W        W46666   6.130  22.944   3.244
74242W        W46667   1.208  37.367  10.753
74243W        W46668  34.681  10.825   2.187
74244W        W46669   3.780  12.491  12.447
74245W        W46670  44.295  22.715   1.299
74246W        W46671  35.844  22.518  11.062
74247W        W46672  36.846  21.003   4.228
74248W        W46673  23.775  17.728  12.587
74249W        W46674   4.519  23.892   4.115
74250W        W46675  38.674  40.376   1.942
74251W        W46676  11.212  18.846  10.676
74252W        W46677  18.007  13.333   4.244
74253W        W46678  17.484  22.604  11.953
74254W        W46679  33.567  37.593  12.909
74255W        W46680  19.957  22.656   4.958
74256W        W46681  36.507  33.322  12.951
74257W        W46682   3.959  44.819  11.936
74258W        W46683  18.495  13.855  11.899
74259W        W46684   2.409  41.330  14.909
74260W        W46685   8.710  14.224  14.988
74261W        W46686   9.246  13.128  11.519
74262W        W46687  40.920  24.116   0.444
74263W        W46688   2.882  27.121  12.974
74264W        W46689  36.689  44.545   4.588
74265W        W46690  38.924  10.199  10.632
74266W        W46691  25.811   7.135  12.045
74267W        W46692  43.418  18.285  12.438
74268W        W46693  30.877  22.117   2.830
74269W        W46694  21.968  43.929   0.505
74270W        W46695   8.377  19.934   1.997
74271W        W46696  25.140  23.880   2.775
74272W        W46697  34.429  33.662   2.867
74273W        W46698  42.323  24.240   4.561
74274W        W46699  39.558  25.142   1.434
74275W        W46700  43.403   9.783   4.574
74276W        W46701  14.765  32.552   4.710
74277W        W46702  14.312  17.323  12.896
74278W        W46703  16.070  43.666   0.252
74279W        W46704  43.344  29.401  13.468
74280W        W46705  16.046  12.889   4.107
74281W        W46706   6.391  26.674  12.919
74282W        W46707   9.585  40.875   1.708
74283W        W46708  13.775  38.370   4.429
74284W        W46709  29.531  41.586   2.476
74285W        W46710  26.405  12.576  10.178
74286W        W46711  35.114   0.899   1.254
74287W        W46712  25.068  10.283   3.733
74288W        W46713  40.199  37.209  13.347
74289W        W46714   8.636  13.829   0.363
74290W        W46715   7.256  44.686  13.889
74291W        W46716   7.811   3.961  14.714
74292W        W46717  23.973  23.929  11.082
74293W        W46718  27.033  23.759  11.173
74294W        W46719  44.772  14.249  11.538
74295W        W46720   7.654  22.166   1.812
74296W        W46721  11.312  13.118   2.788
74297W        W46722   2.032  18.652  12.137
74298W        W46723  18.015  15.994   2.300
74299W        W46724  24.533  44.521   1.825
74300W        W46725  23.008  10.084  12.962
74301W        W46726   9.717  23.996  13.706
74302W        W46727  34.651   8.454  10.658
74303W        W46728  32.390   8.792  13.043
74304W        W46729   8.415  43.261  14.111
74305W        W46730  39.395  21.051  14.939
74306W        W46731   3.447  35.641  12.446
74307W        W46732   7.881  34.455  14.109
74308W        W46733  34.889   3.260   0.231
74309W        W46734  10.605  32.305   4.348
74310W        W46735  33.298  11.373  13.079
74311W        W46736  29.083  43.473  12.497
74312W        W46737  26.598  10.375   4.762
74313W        W46738   0.941  15.758   1.912
74314W        W46739  18.691  28.539   4.483
74315W        W46740   3.896  28.056  11.450
74316W        W46741  24.121  32.039  12.867
74317W        W46742  19.620  35.443  11.796
74318W        W46743  12.911  20.973   0.778
74319W        W46744  33.350  37.962  13.184
74320W        W46745  11.670  36.308   2.870
74321W        W46746  18.681  44.784  12.474
74322W        W46747   8.258  10.187  10.271
74323W        W46748   5.725  24.528   3.673
74324W        W46749   1.481  12.307  14.880
74325W        W46750  40.253   8.124  13.614
74326W        W46751  42.047   5.160  10.715
74327W        W46752   6.209  44.803  12.926
74328W        W46753  43.155   4.672   2.793
74329W        W46754  39.861  43.573   3.891
74330W        W46755  26.579  30.101   4.939
74331W        W46756  15.132  10.643   0.342
74332W        W46757  40.239  32.672  13.896
74333W        W46758  22.404   2.770  11.181
74334W        W46759   2.833  17.791  10.440
74335W        W46760  22.081  24.540  10.707
74336W        W46761  11.461  43.361   4.456
74337W        W46762  39.433  22.017  12.638
74338W        W46763  40.004  11.295  14.752
74339W        W46764   4.327  43.933   3.235
74340W        W46765  43.435  44.505   2.281
74341W        W46766   3.946   8.734  10.763
74342W        W46767  37.717  16.081   4.064
74343W        W46768  19.173   9.625  12.517
74344W        W46769  26.436  14.513  13.907
74345W        W46770  34.055  19.519  13.983
74346W        W46771  10.227  40.511  13.768
74347W        W46772  14.409  22.104   0.686
74348W        W46773   8.469  28.042  13.904
74349W        W46774  22.683  23.083   2.667
74350W        W46775   0.066  32.728  11.030
74351W        W46776  38.831  21.609  12.059
74352W        W46777  28.768   7.726   0.406
74353W        W46778   2.781  26.276   4.007
74354W        W46779  23.958  37.915  12.398
74355W        W46780   8.302  41.072   1.845
74356W        W46781  35.581   9.655   0.513
74357W        W46782   1.489   8.348  10.695
74358W        W46783  20.671  10.279  10.069
74359W        W46784  39.903  26.481   4.948
74360W        W46785  18.351  34.456   1.855
74361W        W46786  34.512  43.332   0.271
74362W        W46787  17.783  36.836  11.133
74363W        W46788  32.004  16.687  13.871
74364W        W46789  34.386  20.873   4.202
74365W        W46790  27.122  22.997  12.644
74366W        W46791  34.907   2.425   3.269
74367W        W46792  12.927  41.780  13.527
74368W        W46793  25.281  37.558  11.622
74369W        W46794  16.359  16.229  10.773
74370W        W46795  21.213  23.647   0.829
74371W        W46796  24.620  40.005   2.967
74372W        W46797  27.767  23.633   3.613
74373W        W46798   7.317  38.942   4.547
74374W        W46799  42.840   8.383  10.751
74375W        W46800   3.199  34.852   4.777
74376W        W46801  29.256  11.216   2.289
74377W        W46802  15.021  30.926  11.898
74378W        W46803   1.230   6.809   0.949
74379W        W46804  25.136  17.707   2.199
74380W        W46805  20.707  24.615   3.753
74381W        W46806  40.060  17.024   0.865
74382W        W46807  18.835  34.936   0.034
74383W        W46808   8.875  10.869  10.775
74384W        W46809  21.728  13.549   1.658
74385W        W46810  20.628  15.101   1.055
74386W        W46811  22.494  27.497  14.526
74387W        W46812  21.996  21.075   1.780
74388W        W46813  38.005  43.845  11.082
74389W        W46814  14.142   7.073  14.888
74390W        W46815   4.595  11.921   2.740
74391W        W46816  40.794  13.031  11.150
74392W        W46817  11.359   8.773  11.567
74393W        W46818  17.519  36.791   4.530
74394W        W46819  23.929   0.843   2.726
74395W        W46820  15.501   9.217   2.701
74396W        W46821   9.120  21.560  11.005
74397W        W46822  17.671  18.132   3.030
74398W        W46823  11.062   7.414  10.202
74399W        W46824   3.206  27.700   3.015
74400W        W46825  20.314  13.102  14.718
74401W        W46826  29.833   3.840   1.272
74402W        W46827  12.454   9.328  10.556
74403W        W46828  10.825  33.022  13.955
74404W        W46829  22.726  22.080   2.145
74405W        W46830  23.007   6.446   1.615
74406W        W46831   6.929  17.229  10.660
74407W        W46832  35.437  33.431   2.396
74408W        W46833  22.192  20.221  13.947
74409W        W46834  13.265  24.944  11.944
74410W        W46835  26.542  39.715   4.217
74411W        W46836  39.230  43.790  10.105
74412W        W46837  13.699  38.459   1.941
74413W        W46838  13.362  19.080   3.607
74414W        W46839   9.607  14.682  14.270
74415W        W46840  14.704   0.288   2.762
74416W        W46841  38.837   4.145   3.354
74417W        W46842  10.731  25.197   4.265
74418W        W46843  30.730  30.069   0.762
74419W        W46844   3.722  28.195   4.169
74420W        W46845  10.876   7.151  10.705
74421W        W46846  22.105  17.658   3.271
74422W        W46847   0.752  37.443   2.673
74423W        W46848  36.983   0.985   2.397
74424W        W46849  20.497  39.781   2.710
74425W        W46850  17.643  10.446  12.252
74426W        W46851  34.928  42.585   4.484
74427W        W46852   7.924  34.574   9.764
74428W        W46853   2.894  33.924  11.639
74429W        W46854  18.672  33.783  13.932
74430W        W46855  12.824  12.663  14.430
74431W        W46856   5.350  24.300  14.991
74432W        W46857  23.585  20.240  12.603
74433W        W46858  41.493  17.661   2.770
74434W        W46859  30.556  25.648  12.934
74435W        W46860  13.419  18.289   4.170
74436W        W46861  36.657   2.504   0.366
74437W        W46862   2.197  39.817   1.167
74438W        W46863  18.560  13.755  10.584
74439W        W46864  13.043  14.667  12.356
74440W        W46865  43.810  44.866   2.098
74441W        W46866  35.016  30.641  10.675
74442W        W46867  43.487  33.660   3.214
74443W        W46868  24.984  36.498  12.095
74444W        W46869  33.876   1.841  14.421
74445W        W46870  18.366  29.208   5.388
74446W        W46871  20.274  34.790  12.234
74447W        W46872  15.175  19.868   0.250
74448W        W46873  24.318  23.755   1.116
74449W        W46874   6.315  44.855   3.169
74450W        W46875  20.586   2.228  12.915
74451W        W46876  39.333   1.588   1.415
74452W        W46877  24.471   0.697   0.622
74453W        W46878  27.194  43.374  11.519
74454W        W46879  16.935  20.233   1.835
74455W        W46880  20.455  23.076   3.269
74456W        W46881   9.752  18.554   3.339
74457W        W46882  25.103  10.672  11.716
74458W        W46883  13.166  43.700   2.615
74459W        W46884   8.854  36.290   0.811
74460W        W46885   0.883  19.079   1.808
74461W        W46886  22.640  16.824  12.662
74462W        W46887  42.116  44.563   3.585
74463W        W46888  29.858  27.678  13.549
74464W        W46889   6.527  30.142  14.964
74465W        W46890  42.590   0.452  13.968
74466W        W46891  15.829  14.678  11.159
74467W        W46892  19.676  17.407   3.776
74468W        W46893  13.706  10.943   1.046
74469W        W46894  29.096  27.050  13.947
74470W        W46895   5.782  10.791   4.560
74471W        W46896  41.882  23.901  10.666
74472W        W46897  10.879  14.514   0.204
74473W        W46898  32.372  44.399  14.559
74474W        W46899   9.227  19.425  13.521
74475W        W46900  21.705  34.360   4.187
74476W        W46901  32.431  28.406  11.705
74477W        W46902  31.052  41.751  11.163
74478W        W46903  43.093  32.742  14.742
74479W        W46904  24.667  19.715   4.410
74480W        W46905   7.580  18.465  11.102
74481W        W46906  21.149  38.223   2.251
74482W        W46907  44.877  40.041   1.984
74483W        W46908  25.182  18.355  10.239
74484W        W46909  11.065  29.507   0.320
74485W        W46910  11.695  15.582   1.209
74486W        W46911  22.812  26.223   4.207
74487W        W46912  28.426   4.907  11.225
74488W        W46913  40.800   4.211  12.989
74489W        W46914  25.283   5.345  11.021
74490W        W46915  43.485  23.285  14.489
74491W        W46916   6.766  44.693  14.056
74492W        W46917  21.282  22.330   4.818
74493W        W46918  23.400  20.779  10.535
74494W        W46919  35.914   4.179  13.612
74495W        W46920  12.064  43.842  12.980
74496W        W46921   5.451   6.699   1.529
74497W        W46922  13.958  21.087  13.098
74498W        W46923  42.715   4.737  14.914
74499W        W46924  38.745  12.166   0.340
74500W        W46925  37.577  42.051   2.403
74501W        W46926  18.181  38.374  14.663
74502W        W46927  34.620  37.496   4.675
74503W        W46928   4.738   3.972   4.680
74504W        W46929  28.616  28.142   0.780
74505W        W46930  27.655  32.230  14.366
74506W        W46931  38.690  43.885  11.643
74507W        W46932  21.333   0.555  11.964
74508W        W46933  41.976  29.532  11.132
74509W        W46934  30.630   2.859  14.756
74510W        W46935  37.376  38.592   1.251
74511W        W46936  14.345  43.997  11.166
74512W        W46937  29.891  26.638   3.303
74513W        W46938   6.759  39.034  12.879
74514W        W46939   8.363  19.506  11.986
74515W        W46940  31.559  16.617   2.130
74516W        W46941  36.782  28.575  11.177
74517W        W46942   7.978  37.305  13.038
74518W        W46943  41.292  30.713  11.447
74519W        W46944   6.616   5.656  11.966
74520W        W46945  42.461  34.892   0.379
74521W        W46946   8.336   0.011  14.832
74522W        W46947   5.323   3.398   4.602
74523W        W46948  37.486  13.585   1.733
74524W        W46949  19.012   9.421  12.961
74525W        W46950  29.704   0.489  12.747
74526W        W46951  10.270  10.865   3.381
74527W        W46952  21.477  40.952  13.121
74528W        W46953   9.107  31.145  13.420
74529W        W46954   4.244  17.062  11.078
74530W        W46955  21.570  11.746  10.064
74531W        W46956  20.369  39.660   4.362
74532W        W46957  39.222  11.804  11.140
74533W        W46958  22.931  36.553   0.915
74534W        W46959   4.193  15.172   4.319
74535W        W46960  35.008  14.664   1.615
74536W        W46961   4.911  32.885   1.282
74537W        W46962   2.504  16.399   1.961
74538W        W46963  24.805  12.686  12.411
74539W        W46964  24.933  22.972   3.159
74540W        W46965  35.400  19.615  13.915
74541W        W46966  37.604  43.481  12.933
74542W        W46967  29.446   3.153   3.222
74543W        W46968   8.479   6.680   3.122
74544W        W46969  42.326   9.832  12.538
74545W        W46970  31.465  25.724   3.704
74546W        W46971  27.433   3.854   4.163
74547W        W46972  36.123  39.695   0.230
74548W        W46973  11.421  31.076  13.901
74549W        W46974   8.708   4.875   3.742
74550W        W46975  38.114  21.332  14.177
74551W        W46976   7.301  26.022  10.945
74552W        W46977  11.415   7.624   2.293
74553W        W46978  30.107  31.893  14.917
74554W        W46979  28.577  18.636   0.994
74555W        W46980  39.137  44.984  14.826
74556W        W46981   7.920  16.249   2.561
74557W        W46982  28.424  25.543   0.449
74558W        W46983  33.231  38.224   0.931
74559W        W46984  31.410  23.629   0.054
74560W        W46985  25.021  33.255   4.683
74561W        W46986  42.503  10.711   5.029
74562W        W46987   8.240   8.164  10.257
74563W        W46988   0.045  29.457  11.779
74564W        W46989  36.226  28.580  12.387
74565W        W46990  23.609  30.066  13.971
74566W        W46991  12.043  25.623  14.354
74567W        W46992  36.995  39.047   0.799
74568W        W46993  39.964  23.637  12.844
74569W        W46994  10.285   4.971   2.925
74570W        W46995  41.848  32.521  14.552
74571W        W46996   2.667  24.079  11.541
74572W        W46997  37.109  11.286   1.049
74573W        W46998  42.862   6.832   4.716
74574W        W46999  14.286   2.519  11.569
74575W        W47000  13.855  33.916  13.453
74576W        W47001  19.450  13.815   0.499
74577W        W47002  29.941  16.825   0.406
74578W        W47003  36.509  17.367  12.086
74579W        W47004  14.260  32.503   4.574
74580W        W47005  15.860  30.413   3.375
74581W        W47006  35.055   6.322  10.915
74582W        W47007  25.020  37.211   1.858
74583W        W47008  20.451  32.375   4.964
74584W        W47009  40.595  33.878  12.662
74585W        W47010  27.431   5.694   0.694
74586W        W47011   7.426  24.461  14.785
74587W        W47012  17.640   9.517   4.509
74588W        W47013   0.861  20.682  14.436
74589W        W47014   8.201  31.951  14.074
74590W        W47015   1.509  20.727  12.715
74591W        W47016  29.924   9.634   1.334
74592W        W47017  35.454  32.101   3.734
74593W        W47018  25.102  32.969  13.071
74594W        W47019  26.210  12.599   1.850
74595W        W47020  32.323   8.410   2.759
74596W        W47021  21.581   2.530  11.527
74597W        W47022  29.715   4.780   3.267
74598W        W47023  43.227  30.015   2.234
74599W        W47024  27.231  19.464   4.672
74600W        W47025  42.692  17.369   3.169
74601W        W47026  34.910   9.108   2.830
74602W        W47027  36.320  39.589   1.141
74603W        W47028  44.599   4.267   4.096
74604W        W47029  33.484  42.936  13.852
74605W        W47030  41.051  41.211   1.162
74606W        W47031   0.947  30.954   0.083
74607W        W47032  18.292   4.400   0.662
74608W        W47033  35.688   9.359   4.493
74609W        W47034  30.896  36.271  14.779
74610W        W47035   7.763   7.665   1.341
74611W        W47036  27.399   5.198  12.818
74612W        W47037  39.693   4.386   1.225
74613W        W47038  29.369   4.526   2.340
74614W        W47039  22.632  12.732   1.452
74615W        W47040  43.967  20.308  13.571
74616W        W47041  23.995  10.069  14.338
74617W        W47042  20.161  20.481   0.836
74618W        W47043  43.402   5.234   1.610
74619W        W47044   3.435  43.851   2.362
74620W        W47045  17.783  23.073  13.050
74621W        W47046  43.979   5.233  14.911
74622W        W47047  38.526  17.630   0.359
74623W        W47048  44.470  35.702  13.782
74624W        W47049  44.067  17.059   2.845
74625W        W47050   4.406  31.358  14.248
74626W        W47051  21.262  13.615   1.417
74627W        W47052  33.130   8.172  14.039
74628W        W47053  32.689  33.074   4.047
74629W        W47054   5.949  25.640   0.542
74630W        W47055   4.128   4.126  11.911
74631W        W47056  27.389   9.393   0.264
74632W        W47057   2.277  37.863   1.353
74633W        W47058  27.431   2.412   0.398
74634W        W47059  22.784   9.031   9.729
74635W        W47060  43.404  38.177  11.634
74636W        W47061  11.765   4.409   2.322
74637W        W47062  30.614  19.720  14.097
74638W        W47063  26.095  15.111   2.360
74639W        W47064  18.168   8.615  11.647
74640W        W47065  14.304  39.563   0.882
74641W        W47066   2.143  32.688   0.788
74642W        W47067  17.717  12.316   0.455
74643W        W47068   2.212  35.905  14.884
74644W        W47069  44.063  24.953   4.560
74645W        W47070  39.781  22.483   3.167
74646W        W47071   2.013  19.009  10.737
74647W        W47072  16.020  33.059  14.842
74648W        W47073   5.412   7.360   0.146
74649W        W47074  42.058  14.533  13.893
74650W        W47075  30.503  43.214   0.334
74651W        W47076  24.677   0.958  14.789
74652W        W47077  30.654  25.242   5.059
74653W        W47078  34.496   4.294  13.199
74654W        W47079  33.533   8.885   4.958
74655W        W47080  28.579   0.040  13.887
74656W        W47081  43.156  11.873   5.010
74657W        W47082  18.837  16.025   2.004
74658W        W47083  13.743  24.430  12.512
74659W        W47084  15.541   3.422   3.638
74660W        W47085  33.121   8.879   1.655
74661W        W47086  32.412  33.474   3.846
74662W        W47087  36.812  26.110  13.843
74663W        W47088  18.618  25.254  14.773
74664W        W47089  21.091  34.033   3.816
74665W        W47090  20.461  44.720  14.706
74666W        W47091   4.436   5.253   1.298
74667W        W47092  18.033   5.749  10.926
74668W        W47093   5.142  18.826  12.009
74669W        W47094  30.269   1.957   1.280
74670W        W47095   6.147   6.310   2.918
74671W        W47096  42.851  29.623   4.117
74672W        W47097  26.130  24.914   2.270
74673W        W47098  42.266   0.306  12.073
74674W        W47099  30.441  21.456  11.972
74675W        W47100  38.186  11.024   1.779
74676W        W47101  25.483  12.215  13.342
74677W        W47102  18.316  21.979  14.762
74678W        W47103  24.968  17.490  11.903
74679W        W47104  44.501  41.036   4.013
74680W        W47105  25.048   3.205  14.406
74681W        W47106  11.325  16.703  14.357
74682W        W47107  15.128  10.878  11.377
74683W        W47108  31.426  43.861  11.642
74684W        W47109  27.116  16.249  10.689
74685W        W47110  31.095  17.185  14.654
74686W        W47111   2.955  15.120  13.810
74687W        W47112  24.225  15.157  13.942
74688W        W47113  30.020   2.305  13.439
74689W        W47114  21.942  29.366   3.810
74690W        W47115  27.433   8.249   1.592
74691W        W47116  26.619   8.461  14.573
74692W        W47117  41.342  10.755  11.039
74693W        W47118   9.707  22.807  14.879
74694W        W47119  11.462  31.282   2.380
74695W        W47120  41.897  42.658   4.594
74696W        W47121  36.475  27.560  10.743
74697W        W47122  26.896  23.678   4.531
74698W        W47123  17.280  14.335  12.788
74699W        W47124   9.141   8.125   5.510
74700W        W47125  20.640  24.190   1.988
74701W        W47126  21.779  14.303  12.997
74702W        W47127  26.507  26.991   1.297
74703W        W47128   1.459  39.442   0.698
74704W        W47129  40.807  16.281   4.535
74705W        W47130   4.731  34.363   1.349
74706W        W47131   7.963  36.357  12.883
74707W        W47132  10.697   2.361  13.855
74708W        W47133  11.890  33.560   3.670
74709W        W47134  28.395  30.609   2.852
74710W        W47135  44.926  12.156  13.346
74711W        W47136  31.457  41.100   1.737
74712W        W47137   9.027  31.933   3.633
74713W        W47138  33.248  35.375  11.671
74714W        W47139  16.787  19.754   3.625
74715W        W47140  42.235  43.018  10.486
74716W        W47141  15.493  14.625   4.627
74717W        W47142  13.225   3.857  13.991
74718W        W47143  12.744   1.345   0.923
74719W        W47144   9.188   2.375  14.423
74720W        W47145  19.182  16.055   1.399
74721W        W47146  19.743  22.028  10.618
74722W        W47147  36.453  26.009   5.123
74723W        W47148  12.441   7.102   2.251
74724W        W47149   7.756  42.974   5.030
74725W        W47150  22.099   7.655   3.804
74726W        W47151  23.562  16.274   2.173
74727W        W47152   3.970  32.313   4.295
74728W        W47153  34.563  25.564  11.045
74729W        W47154  44.444   8.654   4.671
74730W        W47155  34.460  15.102  13.961
74731W        W47156  44.654   9.849  12.253
74732W        W47157  42.617   5.350   2.514
74733W        W47158  16.836   9.200  14.872
74734W        W47159   7.318  19.018  12.063
74735W        W47160  25.189  36.461   4.917
74736W        W47161  36.337  18.385  10.598
74737W        W47162  38.406  24.071  11.553
74738W        W47163  21.443  33.883  14.910
74739W        W47164  43.244  30.288  12.532
74740W        W47165  27.217  20.333  11.691
74741W        W47166  16.629  17.205   1.852
74742W        W47167   5.769   7.129   0.873
74743W        W47168  11.777  19.699  10.833
74744W        W47169  42.861   2.241  13.834
74745W        W47170  17.241   5.118  12.404
74746W        W47171  27.965  10.885  14.440
74747W        W47172  12.400  25.518   1.160
74748W        W47173  27.971  43.722   2.624
74749W        W47174  28.192   6.700  14.729
74750W        W47175  13.751  39.584  13.209
74751W        W47176  28.242  32.597   4.156
74752W        W47177  40.912  11.340  10.614
74753W        W47178  37.007  44.222   4.298
74754W        W47179   6.366   7.285  14.847
74755W        W47180  33.946  21.532  14.003
74756W        W47181   1.909  37.296  14.043
74757W        W47182   9.282  17.487  11.141
74758W        W47183  32.613  29.937   0.712
74759W        W47184   2.802  21.479   1.199
74760W        W47185   0.721  32.013   5.068
74761W        W47186  34.224  18.888   2.210
74762W        W47187  44.500  38.616   0.940
74763W        W47188  18.359  20.996  13.498
74764W        W47189   9.574  28.434  11.420
74765W        W47190   6.661  20.811  12.020
74766W        W47191  26.270  28.037   1.322
74767W        W47192  27.397  31.967   1.695
74768W        W47193  35.145  19.887  13.550
74769W        W47194  29.490  35.368  12.950
74770W        W47195   7.283  43.441   1.843
74771W        W47196  15.465  17.179  11.369
74772W        W47197  25.687  40.532   0.263
74773W        W47198  38.884  27.668   1.119
74774W        W47199   3.505   1.435  11.987
74775W        W47200  38.703  15.300   2.932
74776W        W47201  32.670  34.785  13.377
74777W        W47202   2.331  17.141   4.990
74778W        W47203   3.840   3.263  10.305
74779W        W47204  20.257  24.659   2.264
74780W        W47205   5.189  33.400   4.620
74781W        W47206  28.694  41.524   1.994
74782W        W47207  30.890  37.345  10.228
74783W        W47208  29.580  27.969  14.237
74784W        W47209   2.358  29.584  10.819
74785W        W47210  42.790  41.016  14.558
74786W        W47211  37.670  43.903  11.550
74787W        W47212  34.434  39.882   3.230
74788W        W47213   6.288   1.466  11.871
74789W        W47214  16.490  21.330  13.354
74790W        W47215  43.314  12.168  12.142
74791W        W47216  42.560  38.317  13.640
74792W        W47217  12.211  43.330   1.067
74793W        W47218   9.205  23.994  12.416
74794W        W47219  24.402  41.838   3.362
74795W        W47220  27.634   6.718  12.213
74796W        W47221   8.437  13.692  13.318
74797W        W47222  12.768  17.593  12.294
74798W        W47223   1.061  41.911   1.453
74799W        W47224  18.537   4.226  12.533
74800W        W47225  12.301   6.171  14.891
74801W        W47226  26.986   0.966  12.332
74802W        W47227  36.264  12.802  12.895
74803W        W47228  16.497  31.871  11.664
74804W        W47229  13.819   2.370  13.505
74805W        W47230   6.717  30.222   3.675
74806W        W47231   2.197   4.906  14.738
74807W        W47232  32.087  37.979  11.181
74808W        W47233  11.852  31.127   1.215
74809W        W47234  33.269   6.248  10.484
74810W        W47235  12.744  36.998   0.720
74811W        W47236  37.989   3.265   4.690
74812W        W47237  16.568  28.189  12.438
74813W        W47238  21.820   0.723  14.926
74814W        W47239  41.970  33.986   2.380
74815W        W47240  21.626  13.287   4.595
74816W        W47241  20.680  13.839  13.502
74817W        W47242  26.992  21.233  14.772
74818W        W47243  30.974  44.280   4.310
74819W        W47244  13.224   1.280  12.528
74820W        W47245  31.935  15.753   4.782
74821W        W47246  21.338  40.133  11.586
74822W        W47247  32.368  21.160  13.415
74823W        W47248  31.996  16.798   0.242
74824W        W47249   1.647   4.650  11.162
74825W        W47250  21.187  13.900   3.444
74826W        W47251   0.267  24.615   2.168
74827W        W47252  41.915   6.607  12.883
74828W        W47253  34.678  22.661   0.301
74829W        W47254  41.307  42.073  14.031
74830W        W47255  10.022  21.570  12.448
74831W        W47256  42.811  15.604  14.204
74832W        W47257  33.849   7.330   2.120
74833W        W47258  44.959  24.331   4.591
74834W        W47259  11.843  21.775   4.315
74835W        W47260  18.333  39.958  12.955
74836W        W47261  22.553  22.514   0.014
74837W        W47262  24.995  21.745  14.077
74838W        W47263  25.808  19.236   2.732
74839W        W47264  12.464  12.256  11.232
74840W        W47265  28.014  26.045  13.337
74841W        W47266   0.111  18.754   2.301
74842W        W47267  43.397  16.855  13.937
74843W        W47268  42.001   7.664  12.910
74844W        W47269  27.089  10.583  14.942
74845W        W47270  29.237   6.153   2.771
74846W        W47271  31.663  25.119   0.670
74847W        W47272   5.756  41.418  12.711
74848W        W47273  44.209   2.357  12.847
74849W        W47274  11.134  37.541  12.535
74850W        W47275  39.095  23.462  13.247
74851W        W47276  35.970  35.882  12.614
74852W        W47277  41.830   2.659   0.052
74853W        W47278  42.929  32.997   3.038
74854W        W47279   4.546   3.645  13.886
74855W        W47280  17.790  40.447   3.192
74856W        W47281  33.863  21.213  10.740
74857W        W47282  41.534  38.022   3.254
74858W        W47283  20.627  17.126  10.592
74859W        W47284  37.865   7.143  11.885
74860W        W47285  16.276   4.575  10.743
74861W        W47286  39.360  20.486   3.193
74862W        W47287  24.548  42.257  14.046
74863W        W47288  19.848  38.495   2.705
74864W        W47289  42.655  43.414  12.610
74865W        W47290  14.525  43.168  11.463
74866W        W47291  28.355  10.759  12.895
74867W        W47292  28.139  32.383   2.595
74868W        W47293  31.024   9.785   2.831
74869W        W47294  26.989  29.661   0.807
74870W        W47295  10.254  29.611  12.562
74871W        W47296  43.288  30.833   4.845
74872W        W47297   1.471  43.252  12.514
74873W        W47298  29.691  38.643   4.094
74874W        W47299   7.892   5.346   4.651
74875W        W47300  37.313   7.188   3.757
74876W        W47301   6.154  12.367  13.915
74877W        W47302   2.763   2.248   0.535
74878W        W47303  44.323  38.275   2.704
74879W        W47304  39.323  19.632  13.898
74880W        W47305  16.453  33.494  13.424
74881W        W47306  26.975  22.047   2.218
74882W        W47307  11.851  10.204  13.837
74883W        W47308  32.642  29.673  12.008
74884W        W47309  36.928  23.560  12.629
74885W        W47310  42.455  26.717  10.466
74886W        W47311   1.217  38.394   2.411
74887W        W47312  41.530  36.446  14.687
74888W        W47313  30.652  36.054  11.962
74889W        W47314  10.074   8.170  13.849
74890W        W47315  41.993  21.071  13.883
74891W        W47316   1.924  35.578   1.807
74892W        W47317  43.575   6.795   2.325
74893W        W47318  44.510  11.778   1.185
74894W        W47319  21.145   6.190   0.077
74895W        W47320  36.044  12.249  10.548
74896W        W47321  39.568  40.100   0.385
74897W        W47322  20.117  43.022  14.740
74898W        W47323   9.433  40.923   1.023
74899W        W47324  17.754  13.218  11.991
74900W        W47325   0.456  43.720  11.097
74901W        W47326  29.981   5.440   3.681
74902W        W47327  36.511  23.381   2.635
74903W        W47328  23.073  27.517  11.430
74904W        W47329  34.583   5.351   4.843
74905W        W47330   0.738  28.943  14.390
74906W        W47331  18.222  31.144   2.796
74907W        W47332   8.324  41.528  12.162
74908W        W47333  10.607  35.752   3.906
74909W        W47334   0.526  12.309   3.066
74910W        W47335  14.773  13.879   2.705
74911W        W47336  31.339  33.002  13.336
74912W        W47337  12.006  19.747  11.609
74913W        W47338  22.190  12.986  12.945
74914W        W47339   2.223  12.176   0.817
74915W        W47340  43.237  38.782  10.638
74916W        W47341  28.154   9.156   0.483
74917W        W47342  17.483  21.119   5.139
74918W        W47343  12.139  26.555  14.557
74919W        W47344   0.420  21.550   1.830
74920W        W47345  41.908  19.094  12.667
74921W        W47346  17.058  31.986   3.748
74922W        W47347  12.132  42.941   0.720
74923W        W47348   8.941  29.541  13.397
74924W        W47349   4.812  13.677   0.918
74925W        W47350  43.032  38.876  11.115
74926W        W47351  37.924  10.082  12.958
74927W        W47352  17.969   2.920   4.680
74928W        W47353  33.385  18.559   2.310
74929W        W47354   5.744  40.060   3.812
74930W        W47355  24.150  34.916  11.548
74931W        W47356  22.003  20.512  11.999
74932W        W47357  32.673   3.730  10.707
74933W        W47358  21.924  35.969   3.640
74934W        W47359  41.362  14.011  14.525
74935W        W47360  41.954  22.172   0.266
74936W        W47361  35.817  42.325  12.080
74937W        W47362  36.849  41.434  14.795
74938W        W47363  27.909  37.325  10.761
74939W        W47364  30.473  30.959  11.619
74940W        W47365  23.293  41.835  12.114
74941W        W47366  41.879  24.048  14.926
74942W        W47367  33.409  22.474   1.233
74943W        W47368  41.052   4.658  13.078
74944W        W47369   0.014   8.405   0.928
74945W        W47370  19.304  25.178   4.637
74946W        W47371   9.632   4.967  12.963
74947W        W47372  11.501  12.435   3.168
74948W        W47373  36.888  38.793   1.254
74949W        W47374  24.946   9.790  11.965
74950W        W47375  32.167  27.635  14.344
74951W        W47376  40.588  11.875  13.024
74952W        W47377  14.404   1.636  13.034
74953W        W47378   6.341  41.213  14.863
74954W        W47379  38.108  18.871   0.209
74955W        W47380  17.316  30.911   0.693
74956W        W47381  12.154  39.015  10.700
74957W        W47382  30.886   4.815   1.290
74958W        W47383  42.832  17.532  11.874
74959W        W47384  35.959   2.875  12.887
74960W        W47385  36.358  34.767   2.439
74961W        W47386  37.914  23.525   3.131
74962W        W47387  27.132  23.257   2.258
74963W        W47388  16.508   6.864  10.744
74964W        W47389  29.089   9.346   3.033
74965W        W47390  43.710  13.135  10.760
74966W        W47391  13.314  27.037  14.152
74967W        W47392   7.333  39.389   0.818
74968W        W47393  14.688   0.274   4.099
74969W        W47394  12.895  35.788   3.694
74970W        W47395   4.236  42.268   2.015
74971W        W47396  14.066   4.927   2.320
74972W        W47397  40.989  10.945  14.913
74973W        W47398   2.416  42.663   4.360
74974W        W47399  43.458  11.380   1.725
74975W        W47400   9.599   3.674   0.322
74976W        W47401  31.461  43.185   0.041
74977W        W47402   2.230  32.335  13.933
74978W        W47403  14.151  24.643   3.344
74979W        W47404   7.621  13.358  12.779
74980W        W47405  26.519  41.238   3.274
74981W        W47406  43.449   0.751   3.641
74982W        W47407   5.381  32.936  11.158
74983W        W47408  41.794  31.387   2.302
74984W        W47409  24.561  31.536   3.822
74985W        W47410   4.996  20.124  10.994
74986W        W47411  27.638  33.693  14.349
74987W        W47412  26.194   9.215  14.341
74988W        W47413  29.708  10.222   4.583
74989W        W47414  35.936  10.437   3.722
74990W        W47415   8.626  41.774   1.449
74991W        W47416  22.055  19.582  12.914
74992W        W47417  34.830   2.228   3.973
74993W        W47418   7.726  15.034   2.670
74994W        W47419  16.478  33.966   3.723
74995W        W47420   8.323   5.666   0.414
74996W        W47421   5.304  40.479  13.628
74997W        W47422  10.201  23.791  11.670
74998W        W47423  40.039  36.948   2.842
74999W        W47424  20.128  37.997  10.801
75000W        W47425  10.047  22.196   4.158
75001W        W47426  23.721  24.716   2.780
75002W        W47427  27.798  10.747   3.611
75003W        W47428   8.583  35.250  12.042
75004W        W47429  20.756  35.961   4.114
75005W        W47430  34.334   9.297   1.150
75006W        W47431  42.215  30.747  11.499
75007W        W47432  18.354  41.364  14.475
75008W        W47433  17.289   5.706  11.490
75009W        W47434  43.863   8.294   0.988
75010W        W47435   2.915   9.209   2.903
75011W        W47436  18.664  41.303   2.754
75012W        W47437  12.314  39.558  13.624
75013W        W47438  21.594  29.449   3.389
75014W        W47439  26.600  29.926   0.220
75015W        W47440   0.421  39.897   2.751
75016W        W47441  29.967  20.229  12.526
75017W        W47442   3.492  14.106  11.066
75018W        W47443  34.300  10.662  14.996
75019W        W47444  35.956  42.792  13.497
75020W        W47445  27.915  13.843  13.489
75021W        W47446  16.815  11.589  11.938
75022W        W47447  35.623  24.656   9.568
75023W        W47448   2.552   6.875   1.377
75024W        W47449  40.839  25.768  11.124
75025W        W47450  36.612  37.274  12.883
75026W        W47451  26.164  43.052   3.351
75027W        W47452  44.779   6.891   4.259
75028W        W47453  21.066  11.729  13.074
75029W        W47454  38.298   3.468  13.119
75030W        W47455  24.705  38.070  11.438
75031W        W47456  13.068  15.733   1.382
75032W        W47457  28.013  12.972   0.676
75033W        W47458   3.943  30.226  12.007
75034W        W47459  13.179  19.765   2.952
75035W        W47460  17.675  20.533  11.656
75036W        W47461   7.367  22.535  11.637
75037W        W47462  11.667   1.219   4.835
75038W        W47463  35.393  33.153   3.698
75039W        W47464  18.757   3.139   2.002
75040W        W47465  42.447   7.155  11.080
75041W        W47466   5.798  27.964  11.750
75042W        W47467  34.068  13.017   4.559
75043W        W47468  17.941  24.500   2.000
75044W        W47469  11.505  29.248   4.328
75045W        W47470  20.491  11.756   3.246
75046W        W47471  19.630  33.063  10.934
75047W        W47472   6.252  10.558   4.542
75048W        W47473  36.119  36.851   3.427
75049W        W47474   5.269  27.193   4.342
75050W        W47475   1.402  29.166   1.848
75051W        W47476  11.167   0.004   0.807
75052W        W47477  21.464   1.582  10.353
75053W        W47478  39.644  42.160   5.407
75054W        W47479  19.833  26.662   2.212
75055W        W47480  23.696   0.950  11.177
75056W        W47481  20.006  17.621   2.902
75057W        W47482  34.875  33.698   0.383
75058W        W47483  15.901  38.391  13.998
75059W        W47484  30.643   6.452  14.962
75060W        W47485  32.574  41.323  11.598
75061W        W47486  11.311   4.008   3.969
75062W        W47487  20.313  26.235  10.610
75063W        W47488  44.528  24.710   3.052
75064W        W47489  10.470  35.086   4.342
75065W        W47490  41.879   9.637  13.497
75066W        W47491  25.483  44.744  14.712
75067W        W47492   0.933  26.159  10.763
75068W        W47493   7.754  10.690   3.122
75069W        W47494   3.761  15.367  13.338
75070W        W47495   0.542  14.424  11.184
75071W        W47496  43.427  37.365   1.289
75072W        W47497  21.196  26.806  11.521
75073W        W47498   5.657  26.788  11.273
75074W        W47499  18.131  29.624  11.217
75075W        W47500  23.628  35.393  10.655
75076W        W47501  15.900  14.166   2.240
75077W        W47502  20.724  35.624   3.215
75078W        W47503  18.132  41.839  13.323
75079W        W47504  27.507  38.131   3.712
75080W        W47505  29.973  41.358  13.882
75081W        W47506  38.742   0.225   0.189
75082W        W47507  23.994  27.028   2.265
75083W        W47508   6.796   5.391   4.755
75084W        W47509  12.706   4.881  13.529
75085W        W47510   6.708  42.387  14.060
75086W        W47511   3.997  43.787  13.100
75087W        W47512   1.888  26.045   1.882
75088W        W47513  31.816  44.701   1.188
75089W        W47514  44.885   3.587   1.923
75090W        W47515  11.768  38.907  11.079
75091W        W47516  33.343  18.272  13.424
75092W        W47517  21.614   2.504   4.619
75093W        W47518  16.132   9.393  10.734
75094W        W47519  35.330   8.374   4.741
75095W        W47520  17.053  42.472  12.972
75096W        W47521  11.571  28.958  13.511
75097W        W47522  16.769  15.271  10.581
75098W        W47523   5.409   6.941   0.549
75099W        W47524  27.252  29.034   3.781
75100W        W47525  22.276  40.421  12.826
75101W        W47526  40.384  29.196   2.926
75102W        W47527  13.921  18.174   4.142
75103W        W47528   0.387  13.780   4.213
75104W        W47529  27.356  16.960   3.341
75105W        W47530  25.396  23.522   2.346
75106W        W47531  19.748  29.494  12.744
75107W        W47532  16.252   9.822  11.609
75108W        W47533  19.102   8.897   2.911
75109W        W47534  27.209  20.707  13.932
75110W        W47535  43.814  41.113  10.359
75111W        W47536   5.479   1.988   1.346
75112W        W47537  42.271  21.925   4.787
75113W        W47538  18.295  44.383  12.837
75114W        W47539  14.952  16.328  13.790
75115W        W47540  15.632   3.419  13.244
75116W        W47541  27.105  43.790   2.846
75117W        W47542  33.813   0.610  13.542
75118W        W47543  38.339  33.276  14.996
75119W        W47544  21.724   4.929   1.805
75120W        W47545   2.969   7.317   2.592
75121W        W47546   3.273  27.603   4.737
75122W        W47547  14.067  18.346  11.707
75123W        W47548   6.053  28.347  14.392
75124W        W47549  37.017  17.124  14.984
75125W        W47550  19.075  34.968   1.938
75126W        W47551   1.308  28.365   2.360
75127W        W47552  32.323  25.218  12.900
75128W        W47553  26.095   4.558   0.097
75129W        W47554  18.137   5.590  12.481
75130W        W47555  39.177  35.882  11.641
75131W        W47556  15.759  38.156  14.477
75132W        W47557   9.447  29.557  14.154
75133W        W47558  27.502   9.094  11.043
75134W        W47559  26.282  24.074  11.512
75135W        W47560  37.467   8.283   3.534
75136W        W47561  27.902   4.039   4.408
75137W        W47562   6.216  44.510  13.531
75138W        W47563  11.129  29.051  11.987
75139W        W47564  39.250   3.477  10.349
75140W        W47565  19.156  13.810  14.804
75141W        W47566  22.267  43.775   0.034
75142W        W47567  35.660  11.578  11.058
75143W        W47568  44.372   5.341  13.521
75144W        W47569  34.455  38.091   3.155
75145W        W47570  28.387   7.384   1.869
75146W        W47571  15.145   6.232   3.785
75147W        W47572  27.683   4.237  12.996
75148W        W47573  31.463  42.768   0.328
75149W        W47574  37.208  40.335  14.967
75150W        W47575  38.605  24.440   3.173
75151W        W47576  44.429  11.409  12.526
75152W        W47577  21.996  40.567  14.881
75153W        W47578   4.772  33.003   0.780
75154W        W47579  22.776  14.670  12.440
75155W        W47580   4.733   7.998   2.882
75156W        W47581  38.990  37.367  11.480
75157W        W47582  10.750  18.514  11.919
75158W        W47583   2.055  39.430   2.921
75159W        W47584  31.411  11.732   0.467
75160W        W47585  24.639  19.176   3.189
75161W        W47586   9.295   4.499  12.880
75162W        W47587   8.126  21.437   0.400
75163W        W47588  18.703  33.581  13.438
75164W        W47589   8.673  29.543  12.488
75165W        W47590  18.723  41.322   3.844
75166W        W47591   3.455  37.005  10.663
75167W        W47592   3.792  24.402   4.100
75168W        W47593  12.823  42.937   4.724
75169W        W47594   7.135  27.877   5.072
75170W        W47595   9.077  42.752   5.011
75171W        W47596  40.764  38.251  13.600
75172W        W47597  26.079  31.069   2.700
75173W        W47598   3.443  22.561   2.358
75174W        W47599  16.015  12.228  13.018
75175W        W47600  22.198  20.338   4.326
75176W        W47601  18.648   5.814   2.429
75177W        W47602  19.251  18.622  11.997
75178W        W47603  28.387  14.758   3.736
75179W        W47604  10.239  29.679   0.881
75180W        W47605   0.936   5.994   3.137
75181W        W47606  34.634   2.912  11.139
75182W        W47607   7.926  11.220  10.635
75183W        W47608  24.576  38.801  13.523
75184W        W47609  16.113   8.107   3.179
75185W        W47610  21.557  33.276  14.382
75186W        W47611   3.885  44.331  14.132
75187W        W47612   8.685  33.751  14.324
75188W        W47613  12.844  36.926   0.220
75189W        W47614  41.475   7.203  12.497
75190W        W47615  41.816  15.753  14.063
75191W        W47616   2.184  20.748   0.864
75192W        W47617  40.839  31.605  11.626
75193W        W47618  32.867   5.176  14.017
75194W        W47619   8.051  37.585   2.061
75195W        W47620  21.278   1.808  13.971
75196W        W47621  23.593  39.104   2.736
75197W        W47622  20.955  11.302   1.888
75198W        W47623   0.890  23.186   1.055
75199W        W47624   1.563  43.749  12.473
75200W        W47625  19.543  22.887   1.028
75201W        W47626   4.370  38.501  14.058
75202W        W47627  38.430  40.398   1.012
75203W        W47628  39.072   3.756   3.715
75204W        W47629  10.737  32.392  13.063
75205W        W47630  32.516   4.016  14.429
75206W        W47631  18.277  12.558  13.059
75207W        W47632  20.198  30.397  12.859
75208W        W47633  42.953   6.120  13.199
75209W        W47634  40.426  39.653   4.491
75210W        W47635  10.225  28.459   1.738
75211W        W47636  34.353  17.801  10.677
75212W        W47637  30.224  27.570  14.384
75213W        W47638  30.076  14.071  12.900
75214W        W47639  26.527  41.442  14.961
75215W        W47640  28.826   7.273   0.706
75216W        W47641  16.583  11.576   4.881
75217W        W47642  20.511  15.263  12.858
75218W        W47643  20.046  37.279   2.689
75219W        W47644  15.170  34.611   0.843
75220W        W47645  25.490  16.215  11.079
75221W        W47646   6.529  12.800   9.830
75222W        W47647   7.114  30.907   3.086
75223W        W47648   3.199  42.443   3.273
75224W        W47649  44.416  24.571   4.530
75225W        W47650  26.669   1.854   9.887
75226W        W47651  31.036  37.312   0.503
75227W        W47652   3.267  36.109  14.517
75228W        W47653   6.082  34.302  13.056
75229W        W47654   9.889  26.829  14.980
75230W        W47655   8.565  11.142   3.574
75231W        W47656  14.600   1.229   3.930
75232W        W47657   7.261   9.732   1.628
75233W        W47658  22.884  13.116   4.111
75234W        W47659  16.201  34.570  11.144
75235W        W47660  19.284  21.948   4.734
75236W        W47661   1.461  40.351  14.078
75237W        W47662  14.472  13.759  11.941
75238W        W47663  44.384  32.371   0.512
75239W        W47664  31.107  25.550  14.910
75240W        W47665  19.580  41.077   3.321
75241W        W47666  23.551   1.646   0.940
75242W        W47667  26.124   8.651   2.864
75243W        W47668  41.071  28.006  10.712
75244W        W47669  17.763  39.518   3.213
75245W        W47670   6.574  40.558   1.901
75246W        W47671  28.627   9.805  10.435
75247W        W47672   5.770  37.113   0.409
75248W        W47673  25.480  33.761   2.220
75249W        W47674  16.489  42.046   4.439
75250W        W47675  24.677  13.256   0.162
75251W        W47676  12.496   1.664  11.860
75252W        W47677  23.232  34.909   0.071
75253W        W47678  37.068  31.618  11.121
75254W        W47679  31.924   1.760  11.664
75255W        W47680  19.480  34.568   2.372
75256W        W47681   9.753   2.454   2.148
75257W        W47682  37.627   2.210  12.920
75258W        W47683  25.975  16.778   1.730
75259W        W47684  38.729   2.866  12.766
75260W        W47685   3.979   3.669  13.892
75261W        W47686  27.418   4.916   1.393
75262W        W47687  40.573  41.644  14.100
75263W        W47688  37.664  16.290  12.590
75264W        W47689  36.810  29.143   0.086
75265W        W47690  32.518  25.444  12.457
75266W        W47691  23.747  27.830   1.880
75267W        W47692  33.827  26.717   9.992
75268W        W47693  14.781  18.017   4.230
75269W        W47694  44.453  23.580  13.663
75270W        W47695  25.229  18.490   3.138
75271W        W47696  40.002  20.247   0.039
75272W        W47697  14.813  13.823   1.823
75273W        W47698  32.730  11.324  13.032
75274W        W47699  19.153  29.521   0.497
75275W        W47700  37.124  15.185  14.435
75276W        W47701  35.983  10.212   3.251
75277W        W47702  34.599  12.158   1.277
75278W        W47703  24.146   6.244   2.961
75279W        W47704  39.143  37.464  13.826
75280W        W47705  41.715  17.760   2.249
75281W        W47706  44.458  28.716   2.265
75282W        W47707  11.800   0.442   2.379
75283W        W47708  28.514  19.235   3.230
75284W        W47709  21.522   3.923   0.379
75285W        W47710   6.368  10.797  12.904
75286W        W47711  15.619   0.754  14.534
75287W        W47712  11.774  30.913   2.194
75288W        W47713  13.399  33.654  11.666
75289W        W47714  30.408  26.238   2.255
75290W        W47715  17.019  38.912  10.725
75291W        W47716   5.401  41.977  14.427
75292W        W47717  21.689   4.753   4.061
75293W        W47718  18.570  31.920   1.000
75294W        W47719  26.058  35.981   2.899
75295W        W47720  39.397  42.874   4.936
75296W        W47721  37.960  13.482  11.989
75297W        W47722  10.690  25.546   0.003
75298W        W47723  32.095  18.929   5.524
75299W        W47724  15.234  29.698   3.573
75300W        W47725  27.100  39.289   3.731
75301W        W47726   2.902  11.518   3.743
75302W        W47727  23.949   7.366  14.850
75303W        W47728  40.278   0.312  10.308
75304W        W47729  19.195   7.374  14.987
75305W        W47730   9.056  44.123  10.260
75306W        W47731  33.002  18.630  14.599
75307W        W47732  44.633  27.269   0.868
75308W        W47733  14.788  38.124  10.959
75309W        W47734  18.019  24.473  13.960
75310W        W47735   1.734   0.758  10.306
75311W        W47736  43.702  26.959  14.695
75312W        W47737   6.563   0.328  14.780
75313W        W47738   6.739   6.388   0.594
75314W        W47739  34.545  24.296  13.372
75315W        W47740  32.036  17.346   1.006
75316W        W47741  19.927   1.968  14.936
75317W        W47742  40.399  38.895   2.070
75318W        W47743  32.860  42.482   0.247
75319W        W47744  38.821   0.482   4.681
75320W        W47745  30.576  30.691  11.162
75321W        W47746   2.014  30.148  12.631
75322W        W47747  29.630  25.332   4.923
75323W        W47748   7.306   0.257   3.125
75324W        W47749  43.248  20.588  13.516
75325W        W47750  31.060  43.064  12.956
75326W        W47751  25.721  24.488   0.390
75327W        W47752  14.342   9.796   2.412
75328W        W47753  19.159  15.121   4.560
75329W        W47754  17.678  33.299  10.336
75330W        W47755  25.556  43.843   4.590
75331W        W47756  35.949   9.074   1.375
75332W        W47757  27.647  18.528   4.624
75333W        W47758  26.567   2.050  13.902
75334W        W47759   2.364  18.125  13.545
75335W        W47760  33.909   2.459   4.121
75336W        W47761  20.981  38.413  11.066
75337W        W47762  12.382  38.457   2.325
75338W        W47763  13.327   4.350  10.690
75339W        W47764  13.783   9.354  10.707
75340W        W47765  18.472  25.516  10.468
75341W        W47766  26.734  41.896  11.403
75342W        W47767  29.166  24.444   0.874
75343W        W47768  23.779  34.480  13.872
75344W        W47769  11.131   7.656   5.346
75345W        W47770  36.083  29.964   0.486
75346W        W47771  21.072  20.270   1.917
75347W        W47772  18.752  24.626  12.808
75348W        W47773  26.020  31.559   0.900
75349W        W47774  41.277  19.229   0.345
75350W        W47775  31.015  37.814  10.414
75351W        W47776   0.761  38.448  14.933
75352W        W47777  28.961   3.333  13.447
75353W        W47778   8.360  21.667   3.598
75354W        W47779  14.129  22.274   4.568
75355W        W47780  22.843  42.333  13.526
75356W        W47781  32.137  31.794  11.936
75357W        W47782   8.279  20.603   3.134
75358W        W47783  17.767   7.748   0.350
75359W        W47784  32.833   0.757  14.954
75360W        W47785  28.615  27.205  11.611
75361W        W47786  24.534  20.669   4.004
75362W        W47787  12.635  41.946   1.188
75363W        W47788  42.431  12.956  11.791
75364W        W47789  16.730  42.974  13.341
75365W        W47790   7.291   5.707   1.898
75366W        W47791  41.797  28.600   1.158
75367W        W47792  28.901  37.787   4.194
75368W        W47793  38.673  19.370  10.851
75369W        W47794  36.892  20.692  11.836
75370W        W47795  14.236  43.735   3.192
75371W        W47796  44.282  14.104   1.280
75372W        W47797  27.628  38.558   3.986
75373W        W47798  30.841  41.807  12.479
75374W        W47799   8.718  14.885   3.214
75375W        W47800  12.612  26.524  13.812
75376W        W47801  44.540  27.035  14.062
75377W        W47802  21.208  10.702  10.014
75378W        W47803   0.524   4.731   2.177
75379W        W47804  39.002  23.924  12.918
75380W        W47805  35.377  38.089  13.319
75381W        W47806  34.911  39.964  12.004
75382W        W47807  22.269  33.192  13.363
75383W        W47808  38.889  42.741   9.772
75384W        W47809  36.941  15.508  10.692
75385W        W47810  28.065  37.856   0.442
75386W        W47811  31.385  43.345  11.449
75387W        W47812  13.719  36.285  14.809
75388W        W47813  14.101  14.374  14.858
75389W        W47814  40.281  36.867   2.339
75390W        W47815  19.625   6.178   4.970
75391W        W47816  14.123  37.075  14.301
75392W        W47817  15.770  11.123  12.351
75393W        W47818  32.126  29.993   4.764
75394W        W47819  27.163   1.549   3.332
75395W        W47820  20.574  41.398   1.210
75396W        W47821  19.587  37.830  10.659
75397W        W47822   1.998   6.297   4.476
75398W        W47823  13.267  21.678  10.209
75399W        W47824  18.768  31.348  10.732
75400W        W47825  31.546  13.539   4.102
75401W        W47826   5.349   7.842  10.776
75402W        W47827  17.091  33.823   3.342
75403W        W47828  29.216  31.061   1.953
75404W        W47829  11.918  15.295   3.929
75405W        W47830  28.546  28.390   3.672
75406W        W47831  38.907  16.760  14.347
75407W        W47832  41.018  26.566  10.681
75408W        W47833   4.811  13.578  10.881
75409W        W47834  16.297   6.090  10.990
75410W        W47835  37.476  42.474  12.653
75411W        W47836  30.890  21.249  12.085
75412W        W47837  39.633  14.155  14.126
75413W        W47838  21.699  17.702  14.594
75414W        W47839  29.604  39.413   3.711
75415W        W47840  17.734  44.968  12.399
75416W        W47841  37.073   8.453   5.161
75417W        W47842  32.089  29.199  11.960
75418W        W47843  33.202  41.850  13.027
75419W        W47844  40.262  21.037  11.104
75420W        W47845  12.544   3.159  13.916
75421W        W47846  38.273   9.400  11.906
75422W        W47847  15.650  18.259   3.745
75423W        W47848  34.889  41.943   2.712
75424W        W47849   4.755  21.749  11.554
75425W        W47850  34.576  18.374  13.785
75426W        W47851  25.805  43.753   2.188
75427W        W47852  18.251  32.964  14.807
75428W        W47853  21.443  20.770   0.442
75429W        W47854  20.859   1.198   0.735
75430W        W47855  22.912  15.358  13.544
75431W        W47856  43.712  41.267   0.016
75432W        W47857  40.315   3.993   1.942
75433W        W47858  37.895  39.499  14.022
75434W        W47859  41.804   0.028  11.958
75435W        W47860   4.943  40.165  14.712
75436W        W47861  11.862  11.961   1.993
75437W        W47862  34.042  11.018   0.797
75438W        W47863  44.674  32.144  12.107
75439W        W47864   1.484  35.772   3.708
75440W        W47865  13.230  16.574   1.188
75441W        W47866  18.295  28.652   2.739
75442W        W47867   8.435   4.634   4.150
75443W        W47868  19.324  35.402   3.428
75444W        W47869  10.001  40.284  10.799
75445W        W47870   8.962  23.969   2.203
75446W        W47871  10.252   3.811   1.512
75447W        W47872  16.146  29.165  14.243
75448W        W47873  17.320  14.021   1.216
75449W        W47874  41.442  30.387  11.046
75450W        W47875  26.632  15.627   2.904
75451W        W47876  27.236  38.756  10.159
75452W        W47877   9.608  31.091   3.563
75453W        W47878  29.045  28.638   2.315
75454W        W47879   6.729  25.508   2.233
75455W        W47880  18.816  18.620  12.953
75456W        W47881  28.589   9.237   0.814
75457W        W47882  34.541  41.757  11.944
75458W        W47883   2.509  21.212   3.503
75459W        W47884  14.168   7.208   2.394
75460W        W47885  24.802   1.870  14.467
75461W        W47886  43.992  18.510   2.840
75462W        W47887  22.664  41.479  14.064
75463W        W47888  41.530  11.057   3.673
75464W        W47889  26.794  11.238  11.295
75465W        W47890  23.919  21.068   0.724
75466W        W47891   3.368  16.140  14.516
75467W        W47892  34.865  11.814   3.175
75468W        W47893  10.069   9.220   0.648
75469W        W47894   0.311  27.346  14.568
75470W        W47895  19.275  34.558   0.150
75471W        W47896  38.585  34.492   2.333
75472W        W47897  18.056  23.623   0.452
75473W        W47898   6.402  22.921   4.641
75474W        W47899  21.995  36.492   1.896
75475W        W47900  10.248  39.571   1.218
75476W        W47901  13.094  32.692  11.614
75477W        W47902   5.956  25.731  11.138
75478W        W47903   8.063  41.349   0.787
75479W        W47904  34.277  34.377   1.183
75480W        W47905  28.235  12.348   2.867
75481W        W47906  11.684  15.863  12.785
75482W        W47907  27.966  19.546  12.457
75483W        W47908  20.841  15.174  14.320
75484W        W47909  26.919  18.105  12.998
75485W        W47910  40.454  14.112  13.074
75486W        W47911  20.353  33.428   2.828
75487W        W47912  38.645  35.910   2.355
75488W        W47913  42.505  29.746  10.610
75489W        W47914   4.702  36.316   2.953
75490W        W47915  28.899   2.946   0.240
75491W        W47916   8.430  20.867  13.487
75492W        W47917   2.945   9.193  13.331
75493W        W47918  41.080   9.914   3.372
75494W        W47919  10.792  12.285   3.825
75495W        W47920  40.819  40.478   2.336
75496W        W47921  22.777  30.467   2.813
75497W        W47922   1.089  23.413  12.530
75498W        W47923  23.515  23.423   3.201
75499W        W47924  26.813   2.526  14.377
75500W        W47925  29.920   5.218  13.453
75501W        W47926  18.487  42.808   5.036
75502W        W47927  33.863  20.773   1.377
75503W        W47928  21.508  28.565  12.562
75504W        W47929  19.681  34.525   4.798
75505W        W47930  29.069  15.278  13.239
75506W        W47931   0.029   8.825   0.232
75507W        W47932  15.268  15.412   0.439
75508W        W47933  44.192  20.808   2.846
75509W        W47934  10.950   3.868  13.372
75510W        W47935  11.197  33.954   1.336
75511W        W47936   1.875  17.775  13.979
75512W        W47937  23.299  11.160   4.049
75513W        W47938   2.536  33.968   1.230
75514W        W47939  19.229  25.051   3.747
75515W        W47940  31.948  40.615  14.838
75516W        W47941  36.297  12.761   0.973
75517W        W47942  24.489  43.915   4.496
75518W        W47943  41.511  24.652  12.965
75519W        W47944  37.478  24.007   1.758
75520W        W47945  37.025   7.196  14.820
75521W        W47946  11.497  19.106   3.737
75522W        W47947  33.033  24.988  14.949
75523W        W47948  22.467   2.244  13.041
75524W        W47949  32.199  34.349   0.066
75525W        W47950  28.625  43.949  12.855
75526W        W47951  41.878  13.181  12.051
75527W        W47952   7.680  10.372  12.832
75528W        W47953  16.581  21.493   3.098
75529W        W47954   0.223   4.477  14.074
75530W        W47955  16.873  19.123  12.047
75531W        W47956  12.977  31.407  11.000
75532W        W47957  25.720  20.862   4.464
75533W        W47958  39.094  22.186   4.951
75534W        W47959   4.578  20.221  12.325
75535W        W47960  12.540  26.527   2.706
75536W        W47961   0.368  28.852  12.645
75537W        W47962  25.760  19.840   3.804
75538W        W47963  32.886  26.965   0.294
75539W        W47964  12.226  13.168  12.385
75540W        W47965  42.305  39.378   1.862
75541W        W47966   1.255  12.352   2.283
75542W        W47967  32.182  17.957  14.023
75543W        W47968  20.507  26.960   1.203
75544W        W47969   7.352  21.074  12.526
75545W        W47970  27.137  14.262   2.309
75546W        W47971  34.045  34.898  13.056
75547W        W47972  41.791  34.303  12.271
75548W        W47973   1.716  31.152  10.726
75549W        W47974  40.521  32.193   1.247
75550W        W47975  10.150  35.273  11.949
75551W        W47976  42.895  36.225   2.773
75552W        W47977  15.378  26.606  11.717
75553W        W47978   5.799  37.523   3.392
75554W        W47979   2.139  34.753  10.317
75555W        W47980   6.182  39.893  13.400
75556W        W47981  19.670  17.609   2.472
75557W        W47982  14.768   3.562  11.003
75558W        W47983  12.195  37.977   1.077
75559W        W47984  37.707  33.263   3.760
75560W        W47985  22.682   0.012  13.485
75561W        W47986  35.553  17.063   0.469
75562W        W47987  38.987  34.682   1.868
75563W        W47988  30.186  35.328  12.450
75564W        W47989  35.642  27.708  10.637
75565W        W47990  38.544  24.159  12.911
75566W        W47991  15.714  31.116  13.369
75567W        W47992   6.973  28.099   0.227
75568W        W47993   4.417  14.764  13.472
75569W        W47994  37.283  17.710  13.943
75570W        W47995  43.919  30.681   3.781
75571W        W47996  13.428  41.644  13.506
75572W        W47997  17.319   6.432   0.436
75573W        W47998  33.632  15.162  11.601
75574W        W47999  42.982  12.323  13.411
75575W        W48000   4.370  39.059   0.752
75576W        W48001  17.079   4.204  10.575
75577W        W48002  41.884  38.922  13.373
75578W        W48003  39.161  40.316   1.718
75579W        W48004  36.334  12.143  10.976
75580W        W48005   8.415  35.944   1.087
75581W        W48006  34.419  27.029  11.599
75582W        W48007  18.213   2.527   4.003
75583W        W48008  37.402   6.840  14.725
75584W        W48009  20.897  34.026  14.119
75585W        W48010  33.128  13.831   0.911
75586W        W48011  13.552  19.710   4.147
75587W        W48012  13.789  12.118  12.038
75588W        W48013  29.199  17.243  12.022
75589W        W48014  12.582   7.219   2.726
75590W        W48015   7.297  38.451   4.715
75591W        W48016  34.766  39.891  14.544
75592W        W48017  40.648   6.868  11.131
75593W        W48018   7.055  38.102   0.784
75594W        W48019  29.908  34.950  14.765
75595W        W48020  13.282  12.589   1.851
75596W        W48021  14.344  36.022   4.609
75597W        W48022  40.426  21.968   1.607
75598W        W48023  14.268   9.969  14.062
75599W        W48024  30.195  42.808  14.546
75600W        W48025  23.262  17.236  11.930
75601W        W48026  39.860   2.405   1.827
75602W        W48027   4.207  40.065   2.424
75603W        W48028   6.645  24.140  13.345
75604W        W48029  39.489  42.795  14.359
75605W        W48030   3.123  23.219   0.104
75606W        W48031   7.048   7.157   2.441
75607W        W48032   3.514  22.195  11.474
75608W        W48033  26.122  41.265   2.658
75609W        W48034   1.699  14.571  13.138
75610W        W48035  33.606   5.305   4.573
75611W        W48036  41.637  28.000   4.794
75612W        W48037  33.830  25.531   4.093
75613W        W48038  19.279   8.214  11.604
75614W        W48039   4.610  43.971   0.500
75615W        W48040  10.835  42.778   2.808
75616W        W48041  12.115  14.813   4.685
75617W        W48042   9.662   2.389   0.727
75618W        W48043  29.116   6.527   0.405
75619W        W48044   3.216  37.407  10.921
75620W        W48045  35.779   8.879  13.120
75621W        W48046  44.872  35.543  14.114
75622W        W48047  26.198  40.859   0.835
75623W        W48048  13.308  20.255   2.563
75624W        W48049   8.917  39.318   1.879
75625W        W48050  36.036  15.564   3.204
75626W        W48051  31.141   0.689  14.457
75627W        W48052  32.656  40.503   1.773
75628W        W48053  31.595  14.215   3.231
75629W        W48054  19.061  38.927   3.739
75630W        W48055  22.470  21.740   4.513
75631W        W48056  22.052  41.430   0.832
75632W        W48057  16.967  20.079  10.067
75633W        W48058  10.669  27.660  14.468
75634W        W48059  20.980  17.895   3.347
75635W        W48060  21.487  29.600   2.652
75636W        W48061  21.750  24.736  14.208
75637W        W48062  10.535  14.321   2.390
75638W        W48063  42.491  42.054  13.090
75639W        W48064   9.832   2.690  14.765
75640W        W48065   6.605  11.818   0.285
75641W        W48066  29.369  27.316  12.431
75642W        W48067   2.205  38.014  12.894
75643W        W48068  38.615  42.995  14.475
75644W        W48069   2.513   2.164   1.196
75645W        W48070  39.722  10.666   4.868
75646W        W48071  27.769  27.979  13.026
75647W        W48072   0.624  32.391   1.319
75648W        W48073   1.849  36.897   0.951
75649W        W48074  18.010  17.540  11.190
75650W        W48075  26.135  33.332   1.829
75651W        W48076  24.633  31.231   2.669
75652W        W48077  40.951  30.976  14.851
75653W        W48078  27.993  36.962  12.335
75654W        W48079  40.041   1.164  11.966
75655W        W48080  37.844  24.390   1.214
75656W        W48081   1.213  44.432   2.870
75657W        W48082   7.887  34.977  12.521
75658W        W48083   7.313  29.381   0.442
75659W        W48084  22.735  18.308   3.527
75660W        W48085  14.400  28.175   0.346
75661W        W48086   6.257  36.408   3.821
75662W        W48087  40.075  10.186   1.837
75663W        W48088  20.803  10.897  14.374
75664W        W48089  44.364   5.180   2.621
75665W        W48090  15.661  44.997  10.709
75666W        W48091  13.717  42.976  11.575
75667W        W48092  29.228  11.420  10.764
75668W        W48093  32.054  39.220   5.054
75669W        W48094  16.180  14.495   3.396
75670W        W48095   6.299  39.619   2.660
75671W        W48096   6.128  18.767   3.115
75672W        W48097  44.362   8.199  10.938
75673W        W48098  18.584  19.590   4.163
75674W        W48099  14.562  30.429   3.733
75675W        W48100   0.761  16.737  13.784
75676W        W48101  30.082  40.956   1.790
75677W        W48102   5.883  13.189  14.087
75678W        W48103  35.453  20.512   2.362
75679W        W48104   3.326  39.894   0.971
75680W        W48105  33.391   0.469   1.342
75681W        W48106  37.389  23.117   1.292
75682W        W48107  25.119   1.218  12.938
75683W        W48108   8.406  37.583   5.473
75684W        W48109  32.068  37.553   1.306
75685W        W48110   6.272  17.115   1.157
75686W        W48111   4.448  26.155  11.001
75687W        W48112  35.934  31.934  11.263
75688W        W48113  34.115  13.732  12.683
75689W        W48114  34.150   7.614  14.279
75690W        W48115  23.046   5.372  13.928
75691W        W48116  12.924  42.853   0.403
75692W        W48117  36.800  12.302  14.725
75693W        W48118  42.572  19.778   3.351
75694W        W48119  29.769  18.953   0.782
75695W        W48120  31.661  21.522  13.118
75696W        W48121  14.351   7.831   1.255
75697W        W48122  16.264   6.248   0.670
75698W        W48123  18.659  12.632  10.501
75699W        W48124  18.782   9.723   2.180
75700W        W48125  32.830  22.547  11.887
75701W        W48126  13.696  10.112  12.336
75702W        W48127  18.125  11.107  14.785
75703W        W48128  37.440  37.816  13.561
75704W        W48129  15.733  30.474   5.339
75705W        W48130  34.009  14.305   2.886
75706W        W48131   0.476  13.040   1.234
75707W        W48132  26.064  43.351  13.589
75708W        W48133   2.473  38.481   4.263
75709W        W48134   3.849  11.337   4.242
75710W        W48135  15.330  15.288  13.347
75711W        W48136  32.600  16.160  13.441
75712W        W48137  41.368  16.687  13.290
75713W        W48138  33.166  13.071   1.140
75714W        W48139  21.188  43.233  10.608
75715W        W48140  17.123   7.291  10.637
75716W        W48141  19.520  42.876   0.013
75717W        W48142  33.581  10.599  14.508
75718W        W48143   1.307  31.786  13.049
75719W        W48144  14.907  37.431  13.864
75720W        W48145  35.614   2.730  11.048
75721W        W48146   7.281  28.389   4.755
75722W        W48147  32.988  21.796   3.372
75723W        W48148  19.658  22.902  14.049
75724W        W48149   4.531  18.457  14.052
75725W        W48150  15.221  31.882  13.410
75726W        W48151   2.843  41.682  13.527
75727W        W48152  18.723  23.827   4.200
75728W        W48153  26.027  15.593   3.389
75729W        W48154   3.730  30.974   4.774
75730W        W48155   1.927  29.042  12.991
75731W        W48156  44.572  27.798   0.861
75732W        W48157   0.937  11.398  11.067
75733W        W48158   3.397  44.445   0.022
75734W        W48159  20.070  38.492  11.973
75735W        W48160  35.286  12.154   3.661
75736W        W48161  10.182  19.163  14.385
75737W        W48162  39.527  41.707   3.669
75738W        W48163  40.505  30.469  13.023
75739W        W48164  35.664  31.860   0.361
75740W        W48165  32.773  21.530  14.086
75741W        W48166  28.439  14.305   0.677
75742W        W48167  41.993  42.926   1.969
75743W        W48168  31.589  37.902  11.248
75744W        W48169  21.077  44.273  11.463
75745W        W48170  22.546   0.283   1.955
75746W        W48171  43.912  10.635  14.814
75747W        W48172  14.360  31.145   3.665
75748W        W48173  38.803  16.061   1.214
75749W        W48174  41.848  27.715   3.884
75750W        W48175  10.642  10.204   3.771
75751W        W48176  37.471  32.385  12.560
75752W        W48177  17.034  27.976  12.373
75753W        W48178  37.665  15.121   3.680
75754W        W48179  15.207  21.677   3.158
75755W        W48180   3.065  14.326   2.093
75756W        W48181  29.008  42.678  14.492
75757W        W48182   3.909   8.724  11.745
75758W        W48183  44.400   0.239  12.859
75759W        W48184  36.641  22.264  13.416
75760W        W48185  14.398  14.230  11.635
75761W        W48186  13.082  12.343   3.276
75762W        W48187  44.455   7.880   1.275
75763W        W48188   3.722   8.376  14.247
75764W        W48189   6.912   5.382  11.332
75765W        W48190  31.917  24.097   4.203
75766W        W48191  29.695   9.375   1.743
75767W        W48192  33.209  33.534   3.254
75768W        W48193  21.496  36.522  11.558
75769W        W48194  24.697  34.702  10.774
75770W        W48195  31.920   4.848   1.388
75771W        W48196  23.296  41.360   3.834
75772W        W48197  23.512  23.246  12.995
75773W        W48198  15.634   1.392  10.849
75774W        W48199  14.022  30.657   2.909
75775W        W48200   7.763  10.796  13.819
75776W        W48201  24.103   2.546   2.361
75777W        W48202  40.042  44.857  13.021
75778W        W48203  31.963  29.391   1.894
75779W        W48204  25.586   5.769  11.107
75780W        W48205  10.865  35.241   1.039
75781W        W48206  17.749  32.446  12.953
75782W        W48207  32.679   5.898  14.390
75783W        W48208  28.061   5.178   0.207
75784W        W48209  33.348  22.447  13.828
75785W        W48210  41.607   5.925  11.216
75786W        W48211   5.137  36.374  14.476
75787W        W48212   5.853  16.588   4.944
75788W        W48213  24.052  40.278  14.396
75789W        W48214  12.427   6.988   4.161
75790W        W48215  43.996   2.864  12.130
75791W        W48216  42.159  39.084   0.495
75792W        W48217  23.025  11.711   9.641
75793W        W48218  24.552  37.435   1.707
75794W        W48219  14.899  10.269  10.594
75795W        W48220  18.995  12.768  11.429
75796W        W48221  14.144  19.377  13.907
75797W        W48222  41.398   2.915  14.919
75798W        W48223  16.713  39.860   2.163
75799W        W48224  37.918  34.971  13.005
75800W        W48225  18.637   5.027  11.161
75801W        W48226  16.436  11.231  14.124
75802W        W48227   4.047  29.348   0.417
75803W        W48228   3.797  36.567   1.359
75804W        W48229  35.851   5.818   1.248
75805W        W48230  29.033  22.150   1.479
75806W        W48231   0.888  44.863   0.268
75807W        W48232   7.786  32.643  11.779
75808W        W48233  39.471  22.857   1.632
75809W        W48234  31.867   7.661   2.797
75810W        W48235  34.791  19.992   0.813
75811W        W48236  16.617  16.344  14.809
75812W        W48237   4.666  33.168   2.243
75813W        W48238  15.812  22.558   4.573
75814W        W48239  21.408  44.530  12.433
75815W        W48240  32.714   7.319   4.818
75816W        W48241   3.846  42.268   1.661
75817W        W48242   0.859  26.712   4.139
75818W        W48243  14.971  30.930  11.391
75819W        W48244   8.671  40.530  11.346
75820W        W48245  11.837  44.420  11.881
75821W        W48246  26.208  15.938  14.405
75822W        W48247  40.591  17.129  12.446
75823W        W48248  32.567  16.797  10.746
75824W        W48249  22.919  40.859  12.060
75825W        W48250  21.123  44.361   2.230
75826W        W48251  31.315  35.353  12.469
75827W        W48252  27.014  18.211  11.467
75828W        W48253  37.280  23.114  11.508
75829W        W48254   6.143  21.700   2.304
75830W        W48255  16.066   2.324  10.971
75831W        W48256  25.134  29.543   2.871
75832W        W48257  29.962  44.494  11.551
75833W        W48258   0.899  16.241  14.627
75834W        W48259  32.994  23.461  13.969
75835W        W48260   4.747  24.555   4.430
75836W        W48261  17.139  12.054  13.854
75837W        W48262   7.775   0.353   2.283
75838W        W48263  35.338   5.238   1.879
75839W        W48264   0.892  10.175  13.378
75840W        W48265  32.127  26.325  14.957
75841W        W48266  15.105  27.087  11.628
75842W        W48267  19.064   4.927   0.240
75843W        W48268  44.934   8.872  12.971
75844W        W48269  19.709  27.514   4.653
75845W        W48270  14.831  27.397  13.962
75846W        W48271  14.329  33.555  14.586
75847W        W48272  43.781  33.127  11.482
75848W        W48273  27.140   6.788   2.243
75849W        W48274  24.585   3.779  10.635
75850W        W48275   3.266   3.410  12.543
75851W        W48276  22.430  19.957   4.581
75852W        W48277  32.756  11.788  13.852
75853W        W48278  10.673  16.663   3.195
75854W        W48279  18.726   1.497  13.757
75855W        W48280  15.605   4.838  14.582
75856W        W48281  29.142  43.527  10.353
75857W        W48282  40.779   3.266  13.364
75858W        W48283  39.154  19.620  14.821
75859W        W48284  31.558  32.141  14.502
75860W        W48285  16.264  24.547   2.833
75861W        W48286   7.847   1.051  10.256
75862W        W48287   6.722  27.256   0.038
75863W        W48288  15.539  32.967  14.047
75864W        W48289  42.221  28.523  11.119
75865W        W48290  25.063  25.134  14.102
75866W        W48291  23.960   2.693   0.211
75867W        W48292   9.405  33.501  11.227
75868W        W48293  24.514   3.298   4.616
75869W        W48294  17.171  22.180   3.255
75870W        W48295   0.207   2.823  14.937
75871W        W48296   6.171  30.293   3.676
75872W        W48297   0.621  25.014  10.343
75873W        W48298  26.040   0.877   2.140
75874W        W48299  33.493  12.374  13.324
75875W        W48300   5.145  15.364  14.429
75876W        W48301   6.435   7.249   2.637
75877W        W48302   4.817  35.760  13.375
75878W        W48303   5.943  31.182  11.118
75879W        W48304  18.070  28.475   1.035
75880W        W48305  15.299  29.502  13.325
75881W        W48306  13.569  39.768   1.873
75882W        W48307   2.715   9.159   1.001
75883W        W48308   7.795  21.096  12.901
75884W        W48309  30.370  21.988  14.055
75885W        W48310  14.591  27.423  14.936
75886W        W48311  27.900  28.222   3.613
75887W        W48312  31.084  31.941   1.798
75888W        W48313  22.679  19.684   1.037
75889W        W48314  19.110  32.651  10.133
75890W        W48315  14.252  36.614   4.691
75891W        W48316  33.077  43.572  13.476
75892W        W48317  28.751   6.189  11.705
75893W        W48318  33.541  32.020  12.073
75894W        W48319  30.516  21.383  14.746
75895W        W48320  29.579   5.079   1.922
75896W        W48321   1.729  28.458   0.454
75897W        W48322  25.431  12.447   4.064
75898W        W48323  30.416  18.828  14.851
75899W        W48324  34.739   9.252   4.317
75900W        W48325   5.348  22.008  13.762
75901W        W48326  38.498  43.928  11.180
75902W        W48327  44.691  14.319   2.318
75903W        W48328  33.642  37.484  11.992
75904W        W48329  13.310  19.253   1.851
75905W        W48330   0.663   8.096   4.158
75906W        W48331  19.298  16.978  11.319
75907W        W48332  24.254  36.794  14.384
75908W        W48333  24.562  19.555   0.868
75909W        W48334   1.867  18.675  14.600
75910W        W48335  15.117  14.595   4.974
75911W        W48336  28.179  20.987  11.192
75912W        W48337  37.079  35.932   0.047
75913W        W48338   1.215  32.843   0.793
75914W        W48339   5.751  18.507   4.118
75915W        W48340   1.842   6.202   4.001
75916W        W48341   1.292  30.608  12.537
75917W        W48342  25.970  32.961  12.695
75918W        W48343  29.390  15.843   2.202
75919W        W48344  11.675  16.987   3.699
75920W        W48345  26.992   9.883  11.882
75921W        W48346  11.682  28.808   4.582
75922W        W48347  28.962  20.106   3.069
75923W        W48348  27.540  26.962  13.971
75924W        W48349  37.940  28.453  10.671
75925W        W48350  19.984  41.441   2.468
75926W        W48351  17.096  34.557   3.542
75927W        W48352  23.468  25.634   4.052
75928W        W48353   4.829  30.575  12.939
75929W        W48354  22.734  41.602   2.445
75930W        W48355  29.062   8.678  14.720
75931W        W48356   3.529   1.782   1.223
75932W        W48357  43.841  38.257  13.395
75933W        W48358  11.565  30.477   1.333
75934W        W48359   4.480  23.498  14.316
75935W        W48360  36.874  23.719  14.295
75936W        W48361  16.069   5.015  14.384
75937W        W48362  27.124  17.742   2.851
75938W        W48363  26.635  13.186   2.756
75939W        W48364  38.417  32.989  14.556
75940W        W48365  27.646  19.728  13.856
75941W        W48366  17.312  23.577  13.455
75942W        W48367  28.002  19.207  11.532
75943W        W48368  27.974  40.586   1.862
75944W        W48369  30.983   6.702  12.469
75945W        W48370  43.900  10.884   4.114
75946W        W48371  21.831  25.335   3.292
75947W        W48372  22.910  14.043   1.264
75948W        W48373  11.357  37.564   1.105
75949W        W48374  10.844  31.003  11.339
75950W        W48375  11.875  31.366  14.669
75951W        W48376  38.814  22.079  11.776
75952W        W48377  34.835  13.380   4.088
75953W        W48378  40.553  13.623   1.551
75954W        W48379  41.901  39.450  10.372
75955W        W48380  13.044   3.314  12.413
75956W        W48381   6.182   3.188   3.642
75957W        W48382  38.004  37.315   4.207
75958W        W48383  24.483  44.009  13.968
75959W        W48384  30.957  19.069   5.553
75960W        W48385  34.171  17.247   3.361
75961W        W48386  28.736  21.270  14.406
75962W        W48387  36.556  37.891   3.839
75963W        W48388  33.099  38.308   3.349
75964W        W48389   6.265   2.796   2.249
75965W        W48390  20.478  42.012   4.160
75966W        W48391   6.893  14.558   3.271
75967W        W48392  39.386  43.088   3.247
75968W        W48393  34.153   6.778   0.982
75969W        W48394   6.840  34.087   3.655
75970W        W48395   9.253   3.926   1.793
75971W        W48396  22.159  20.450   3.206
75972W        W48397  29.277   4.018   1.007
75973W        W48398  31.536  31.510  13.463
75974W        W48399  42.896   4.923   4.538
75975W        W48400  11.598   9.630   1.226
75976W        W48401  11.313  26.713  12.473
75977W        W48402  15.132  36.276   3.920
75978W        W48403  43.650  31.814   1.011
75979W        W48404  36.889  33.312   4.587
75980W        W48405  22.963  30.652   3.797
75981W        W48406  12.378   8.340   0.345
75982W        W48407  30.028  19.055   0.128
75983W        W48408  32.947  15.224   0.896
75984W        W48409   5.893   5.692  12.395
75985W        W48410   9.297  20.977  12.131
75986W        W48411  34.335   9.609   4.355
75987W        W48412  15.699  35.976  12.613
75988W        W48413   8.156  25.449  11.653
75989W        W48414  40.629   0.227  10.674
75990W        W48415  12.122  34.684  14.379
75991W        W48416  22.779  12.580   4.889
75992W        W48417  22.177   4.362  10.709
75993W        W48418   3.446   9.428  14.530
75994W        W48419  16.636  25.063  10.712
75995W        W48420  34.334   7.761   3.328
75996W        W48421  20.093  32.660  13.407
75997W        W48422  25.139   5.843  14.070
75998W        W48423   4.038  32.665  11.316
75999W        W48424  18.078  39.876  14.507
76000W        W48425   1.999  20.270  14.734
76001W        W48426   2.267  23.833  11.279
76002W        W48427  24.000  18.983  11.921
76003W        W48428  20.564  32.168  14.274
76004W        W48429  17.271  32.348   0.967
76005W        W48430   6.655  15.533   0.417
76006W        W48431  23.502   1.943  11.121
76007W        W48432  31.677   4.320   1.345
76008W        W48433  35.715   5.893   3.008
76009W        W48434   8.970   0.842   0.561
76010W        W48435  26.392  14.770  10.489
76011W        W48436  17.842   7.825  11.139
76012W        W48437  18.725   9.868  10.310
76013W        W48438  44.523  38.326  11.112
76014W        W48439  29.105  29.903   2.820
76015W        W48440  13.617  27.236  10.664
76016W        W48441   5.762   1.593   1.698
76017W        W48442   5.218   4.964  13.365
76018W        W48443  43.844  32.664  12.494
76019W        W48444  36.123  19.510  11.471
76020W        W48445  37.305  28.487   4.164
76021W        W48446  10.038  30.411   3.425
76022W        W48447   0.787  40.849  13.256
76023W        W48448   6.806  35.920   3.326
76024W        W48449   9.897  17.627   0.954
76025W        W48450  10.910   0.058   2.028
76026W        W48451  17.557  17.399   2.702
76027W        W48452  36.817  35.653  12.098
76028W        W48453  40.112  29.636  10.499
76029W        W48454  26.026   6.522   1.820
76030W        W48455  34.351  10.254   2.839
76031W        W48456   9.633  13.143  11.171
76032W        W48457  22.906  36.482  13.720
76033W        W48458  18.155  24.923   2.825
76034W        W48459  12.178  29.737  11.759
76035W        W48460  22.712  17.750   0.363
76036W        W48461  10.743  12.088   2.330
76037W        W48462  27.336   7.376   1.936
76038W        W48463  13.066   8.734   1.630
76039W        W48464  31.536   3.919   3.348
76040W        W48465  18.710  19.478   4.631
76041W        W48466   8.305  37.938   9.991
76042W        W48467  14.884  35.474   3.388
76043W        W48468  33.599  15.559   3.026
76044W        W48469   6.285  11.700   1.343
76045W        W48470  36.983  24.968  12.448
76046W        W48471  16.282  38.110  11.095
76047W        W48472  31.029  39.514  12.330
76048W        W48473   3.050  23.270   2.665
76049W        W48474  18.057  34.534  14.290
76050W        W48475  33.979  22.611  12.556
76051W        W48476   6.016  22.564   4.138
76052W        W48477   1.352  27.838  11.883
76053W        W48478  32.922  15.199  14.086
76054W        W48479  41.804  37.923   1.243
76055W        W48480  12.127  41.730  13.007
76056W        W48481  18.791  20.736   4.371
76057W        W48482  36.570  14.367   0.211
76058W        W48483  41.335   6.863   1.708
76059W        W48484   7.958   5.551   2.634
76060W        W48485  19.300  18.055  14.807
76061W        W48486  10.866  43.857   1.272
76062W        W48487   7.644  15.211  12.000
76063W        W48488  25.088  27.584  13.566
76064W        W48489  17.231  23.933  11.097
76065W        W48490  40.054   9.126  11.564
76066W        W48491  31.811  23.581  10.632
76067W        W48492  21.710   2.564   0.334
76068W        W48493   3.142   2.441   3.510
76069W        W48494  12.271  41.414  11.541
76070W        W48495  38.327  12.186   1.487
76071W        W48496  36.893  23.552   4.980
76072W        W48497  20.617   4.915   1.247
76073W        W48498   2.448  24.227  13.972
76074W        W48499   3.343  25.995  14.856
76075W        W48500  20.695   5.319   0.953
76076W        W48501  22.584   5.831  13.337
76077W        W48502  37.382  11.593   1.805
76078W        W48503   8.445  23.818   4.083
76079W        W48504  44.728   3.149   1.688
76080W        W48505  38.385  26.188   4.550
76081W        W48506  22.320  18.207  12.929
76082W        W48507  17.010  40.486  12.177
76083W        W48508   9.090  31.541  14.862
76084W        W48509  39.677  30.822   4.638
76085W        W48510  27.855  42.912   0.325
76086W        W48511  39.443  12.028  12.920
76087W        W48512  19.889  20.162  10.570
76088W        W48513  31.085   0.339   0.789
76089W        W48514  31.705  15.698  11.939
76090W        W48515  27.040   5.723   0.356
76091W        W48516  30.803  17.362   4.168
76092W        W48517  18.597  16.654   2.779
76093W        W48518   6.971  17.850  11.667
76094W        W48519  14.527   5.948   0.198
76095W        W48520   8.632  24.896   4.750
76096W        W48521  11.371  15.762  11.504
76097W        W48522  26.481  38.377   0.532
76098W        W48523  43.276  13.611  11.991
76099W        W48524  28.581  27.064  12.121
76100W        W48525  17.596  34.449  13.485
76101W        W48526   4.001  22.608   3.212
76102W        W48527  26.987  41.105  14.079
76103W        W48528  11.030  41.952   0.934
76104W        W48529  36.620  37.716   0.942
76105W        W48530   6.763   9.639   1.757
76106W        W48531  36.447  10.187  13.532
76107W        W48532   5.249  41.469  12.090
76108W        W48533   0.338  30.440  11.464
76109W        W48534  11.325  17.317   0.912
76110W        W48535  35.534   0.308  10.894
76111W        W48536   1.689  37.934   0.408
76112W        W48537  36.669  17.350   2.238
76113W        W48538  19.467  28.144   2.957
76114W        W48539  10.136  16.661  12.053
76115W        W48540   7.736  41.184  13.269
76116W        W48541  12.626  28.398  11.099
76117W        W48542  37.620  14.627   2.797
76118W        W48543  14.079  26.141   4.723
76119W        W48544   1.762   8.370  12.088
76120W        W48545   6.796   8.051   3.546
76121W        W48546  42.999   1.503  14.857
76122W        W48547  23.917  22.720   3.386
76123W        W48548  27.012   9.610   4.146
76124W        W48549  18.027  26.440  12.928
76125W        W48550  12.837  32.610   4.688
76126W        W48551  15.391   4.878   4.127
76127W        W48552  43.564  37.751  10.703
76128W        W48553  41.064  20.198   3.192
76129W        W48554  16.066  37.633   0.710
76130W        W48555  15.303  31.398   0.960
76131W        W48556  26.173  38.036  10.801
76132W        W48557   3.218  10.156   4.877
76133W        W48558  13.353  36.370   1.316
76134W        W48559   0.021   6.961   1.294
76135W        W48560  14.897  18.966  11.026
76136W        W48561  44.315  29.419  13.855
76137W        W48562  18.550  23.575   0.294
76138W        W48563   8.655   8.822   4.603
76139W        W48564  38.448  10.162   0.289
76140W        W48565  28.044   7.632   3.282
76141W        W48566  29.758   0.061  13.482
76142W        W48567  26.576  36.105  11.475
76143W        W48568   3.426  12.351  12.051
76144W        W48569   1.983  38.946   9.933
76145W        W48570  19.589   9.226   3.651
76146W        W48571   9.545  24.535   4.482
76147W        W48572  39.290  28.908   1.950
76148W        W48573   0.577  28.398  12.500
76149W        W48574  39.714  23.543  14.329
76150W        W48575  40.445  35.458   0.655
76151W        W48576  38.313  37.787   0.705
76152W        W48577  36.376  40.726  14.440
76153W        W48578  29.292  21.543   2.210
76154W        W48579  34.649  32.111   1.793
76155W        W48580  20.204  11.067   1.232
76156W        W48581  12.733  37.443  14.480
76157W        W48582  39.060   5.200   1.726
76158W        W48583   8.044  30.987  13.031
76159W        W48584  36.579  33.874  10.719
76160W        W48585  18.120  29.689   2.762
76161W        W48586  32.851  38.914  10.504
76162W        W48587   9.297  22.529  14.986
76163W        W48588  25.238  43.882  14.445
76164W        W48589   2.912  23.627  10.639
76165W        W48590  42.727  13.603   3.041
76166W        W48591  39.412  25.282  12.989
76167W        W48592   0.239  32.942  14.818
76168W        W48593  26.965  43.426  11.058
76169W        W48594  43.531  39.661  11.445
76170W        W48595  32.841  33.999  13.528
76171W        W48596  35.394  23.506   1.851
76172W        W48597  10.927  30.901  12.888
76173W        W48598  22.933  36.300  11.441
76174W        W48599  12.395  21.034   0.927
76175W        W48600  23.707  12.734   4.186
76176W        W48601  30.640   9.657   0.892
76177W        W48602  30.856   8.388  13.470
76178W        W48603   8.612  17.997   3.802
76179W        W48604  34.603  39.032   2.627
76180W        W48605  20.279   2.423  11.578
76181W        W48606  20.222  33.233  12.575
76182W        W48607  41.329  23.678   2.340
76183W        W48608  35.288  16.703   2.456
76184W        W48609  36.524   9.474  14.753
76185W        W48610   8.861  30.931   4.388
76186W        W48611  31.757  14.140  13.939
76187W        W48612   9.367  19.108   3.700
76188W        W48613   4.409  25.046  10.644
76189W        W48614  33.554   3.808   0.200
76190W        W48615   9.619  27.412   3.148
76191W        W48616   1.221  38.419   3.638
76192W        W48617   3.772  22.600   1.731
76193W        W48618   3.643  19.677   2.475
76194W        W48619  10.884  10.196   0.335
76195W        W48620  13.711  15.322  11.128
76196W        W48621  20.457  37.504  12.877
76197W        W48622   2.569  43.210  11.079
76198W        W48623  30.628  43.967   5.034
76199W        W48624   2.246   0.790   1.400
76200W        W48625  11.228  34.881   4.767
76201W        W48626  26.718  18.268  10.224
76202W        W48627   2.429  14.116   4.022
76203W        W48628  33.320   2.502  11.456
76204W        W48629  26.451  16.756  10.706
76205W        W48630  44.224  42.534  11.057
76206W        W48631  34.471  28.231  14.351
76207W        W48632   6.404  14.025   1.164
76208W        W48633  33.548  34.045   1.678
76209W        W48634  29.990  43.200  11.431
76210W        W48635  33.447  19.766  12.369
76211W        W48636  23.591  34.043  10.902
76212W        W48637  37.008   3.749   0.191
76213W        W48638   4.047  34.558   1.923
76214W        W48639   7.092  35.827  11.671
76215W        W48640  30.151  23.980   1.758
76216W        W48641   4.295  44.319   1.918
76217W        W48642  40.882  37.501  14.506
76218W        W48643   4.517  36.149   0.380
76219W        W48644  29.699  23.492  13.660
76220W        W48645  32.550  26.244   4.876
76221W        W48646  30.998   6.656  13.307
76222W        W48647  42.964  30.642  13.062
76223W        W48648  25.482  15.350  12.627
76224W        W48649   9.324  43.364  11.429
76225W        W48650  26.526   8.238   1.361
76226W        W48651  32.527  10.305   3.623
76227W        W48652  39.970  32.058  11.709
76228W        W48653   1.130   6.869   2.809
76229W        W48654   0.430  33.366   2.834
76230W        W48655  38.998  13.941   4.118
76231W        W48656  34.049  32.752  14.694
76232W        W48657  33.476   8.554  14.000
76233W        W48658   9.267   7.932   2.722
76234W        W48659  30.563  13.667  14.954
76235W        W48660  44.522  18.646  11.184
76236W        W48661  27.201  18.318  13.763
76237W        W48662  22.606  19.547  14.931
76238W        W48663  24.294  12.307   0.277
76239W        W48664  19.333   7.336  12.563
76240W        W48665  16.862   0.738  14.540
76241W        W48666  38.762  21.016   4.627
76242W        W48667  41.904   5.812   4.156
76243W        W48668  44.908  41.479   4.097
76244W        W48669  29.635   2.850   1.670
76245W        W48670  21.110  34.475   0.876
76246W        W48671  37.036  36.682   3.662
76247W        W48672  15.305   3.128   3.280
76248W        W48673  33.651  44.402   2.746
76249W        W48674  11.298  29.855  10.562
76250W        W48675  42.398  21.229   1.000
76251W        W48676   3.304  19.644  11.774
76252W        W48677  33.050  40.846  14.059
76253W        W48678  34.663  14.741  14.324
76254W        W48679   8.235  20.618   0.351
76255W        W48680  39.064  20.573  11.429
76256W        W48681  39.751  13.223   1.659
76257W        W48682  23.829   4.497  12.025
76258W        W48683   4.680  17.280   3.426
76259W        W48684  15.934   0.461  11.152
76260W        W48685  13.575   3.454   4.892
76261W        W48686   6.558  35.566  12.881
76262W        W48687  19.077  29.367  11.583
76263W        W48688   1.393  34.030   4.766
76264W        W48689  26.155   9.748  13.823
76265W        W48690  34.995  29.114   3.633
76266W        W48691  43.980  41.471  11.592
76267W        W48692  41.910  21.963   2.363
76268W        W48693  38.053  12.840  14.937
76269W        W48694  12.787  44.414  10.736
76270W        W48695  43.844  38.279  12.843
76271W        W48696   2.660  22.601   3.613
76272W        W48697  28.479   9.232   1.325
76273W        W48698  39.470  10.707  14.419
76274W        W48699   8.423   9.385   0.246
76275W        W48700  34.517   2.371  11.496
76276W        W48701  18.145  13.361  14.729
76277W        W48702  29.452  24.448   1.354
76278W        W48703  14.521  43.752   0.274
76279W        W48704  20.130   0.541  14.934
76280W        W48705  10.595  29.581   2.140
76281W        W48706  22.883   1.827  10.534
76282W        W48707  11.711  25.791  10.832
76283W        W48708  11.735  42.523  13.379
76284W        W48709  21.689  35.388   2.834
76285W        W48710  31.677  43.817   4.760
76286W        W48711  25.199  30.008   2.183
76287W        W48712  40.846  39.613   0.474
76288W        W48713  17.122  32.092   9.763
76289W        W48714  13.564  33.522   5.243
76290W        W48715  38.153  27.444   0.315
76291W        W48716  30.928  33.978  10.479
76292W        W48717  44.431  29.615   4.225
76293W        W48718  18.690  22.131   4.073
76294W        W48719  10.656  27.738  10.273
76295W        W48720   6.961  28.010  12.458
76296W        W48721  17.344  38.527   0.617
76297W        W48722  35.908   3.543  14.308
76298W        W48723  43.386  40.435   1.261
76299W        W48724  16.349  20.088   0.664
76300W        W48725  19.552  28.445  11.962
76301W        W48726  26.115   6.573   0.760
76302W        W48727  17.163  29.705   1.284
76303W        W48728  40.101  39.412   4.820
76304W        W48729  43.815  44.053  13.926
76305W        W48730  35.896  34.561   4.031
76306W        W48731  35.850  17.686  14.373
76307W        W48732  12.731  41.563   4.314
76308W        W48733  42.248  34.309  13.300
76309W        W48734  26.631  19.191   4.143
76310W        W48735  23.029  40.845  10.565
76311W        W48736  24.661  12.803   0.380
76312W        W48737   7.377  15.404   0.980
76313W        W48738  21.225   2.181   4.707
76314W        W48739  32.965  24.828  12.940
76315W        W48740  13.946  16.688   1.814
76316W        W48741  22.239  12.283   2.227
76317W        W48742  41.866   7.522  12.425
76318W        W48743  30.368  10.845  14.372
76319W        W48744  13.315   5.103   5.118
76320W        W48745  20.029  16.079   3.913
76321W        W48746  30.688  23.949   0.536
76322W        W48747   1.030  34.550  11.015
76323W        W48748  24.478  36.113   4.905
76324W        W48749  23.594  37.551  13.596
76325W        W48750  40.474  36.980  11.580
76326W        W48751   2.958  23.193   4.696
76327W        W48752  42.961  44.725  13.506
76328W        W48753  23.813  36.300  14.879
76329W        W48754  31.726   2.332   3.861
76330W        W48755  12.879  43.531   1.292
76331W        W48756  33.881  16.125  11.459
76332W        W48757  10.668  31.038   2.834
76333W        W48758   7.703  12.885   3.125
76334W        W48759  22.042  26.623  12.443
76335W        W48760   7.413  34.303  11.423
76336W        W48761  23.825   0.477  11.446
76337W        W48762  32.996  39.634   3.753
76338W        W48763  22.834  29.800   0.387
76339W        W48764  43.558  43.451  14.385
76340W        W48765  39.410  23.643  10.717
76341W        W48766  26.743  30.360   3.198
76342W        W48767  17.844   5.271  13.854
76343W        W48768  21.526  34.587   0.428
76344W        W48769   1.199  40.533   1.884
76345W        W48770  31.063  26.487   1.216
76346W        W48771  33.662  35.403   3.275
76347W        W48772   4.660  30.634   4.230
76348W        W48773  16.344  23.036  11.379
76349W        W48774  40.773  16.794   0.348
76350W        W48775   1.139  33.749  13.861
76351W        W48776  12.673  10.967   2.360
76352W        W48777  37.686  15.580   2.021
76353W        W48778   6.179  14.255   4.596
76354W        W48779   8.550   8.956   9.587
76355W        W48780  22.120  30.708   2.286
76356W        W48781  44.928  10.143  14.262
76357W        W48782  13.699  24.229   1.667
76358W        W48783  37.639  18.255   2.103
76359W        W48784   6.765  14.846   1.765
76360W        W48785   6.306   1.995   1.101
76361W        W48786  23.052   3.159   2.369
76362W        W48787  41.523  16.264   0.279
76363W        W48788  41.096  11.098   1.882
76364W        W48789  12.908   8.377  14.351
76365W        W48790  26.414   8.793   0.689
76366W        W48791  44.401   6.385  12.501
76367W        W48792   8.429   5.959   1.320
76368W        W48793  24.055   8.874  13.265
76369W        W48794  12.654  19.039   2.894
76370W        W48795  42.766   4.607  10.395
76371W        W48796  31.440  10.336  11.183
76372W        W48797   3.149  37.833   2.287
76373W        W48798  44.872  10.826  10.652
76374W        W48799  15.171  21.468  13.647
76375W        W48800   0.870  29.923   1.882
76376W        W48801  17.605  11.434   4.691
76377W        W48802   3.719  42.327   2.156
76378W        W48803  39.890   4.352   0.743
76379W        W48804  18.995  16.648  11.655
76380W        W48805  23.685  39.923  10.752
76381W        W48806   0.019  44.463   2.444
76382W        W48807  12.729  31.358  14.493
76383W        W48808  10.378  37.270   0.661
76384W        W48809  17.229  23.197  12.993
76385W        W48810  10.435  27.640   3.823
76386W        W48811  17.823  10.643   2.006
76387W        W48812  19.151  28.122   1.942
76388W        W48813  10.923   8.819  12.807
76389W        W48814  34.283   6.278   2.696
76390W        W48815  22.745  35.449  12.948
76391W        W48816  29.942  11.460  13.468
76392W        W48817  31.907   4.462   0.908
76393W        W48818  26.024  12.207  11.658
76394W        W48819  20.908  42.862  10.359
76395W        W48820   2.540  31.996   0.462
76396W        W48821  42.430  36.274   4.066
76397W        W48822   6.920   4.061  14.903
76398W        W48823  10.434  15.534  14.426
76399W        W48824  30.088  37.098   3.224
76400W        W48825  32.555  22.262  11.494
76401W        W48826  31.910  37.018  13.943
76402W        W48827  28.223   2.973   1.037
76403W        W48828  18.950  19.016   3.144
76404W        W48829  11.948  21.568   1.334
76405W        W48830  40.806  15.239  13.412
76406W        W48831  29.551  17.275  10.914
76407W        W48832  20.350  16.610   0.298
76408W        W48833   5.772  27.008  14.225
76409W        W48834  17.614  25.646   5.005
76410W        W48835   2.551  13.474   1.759
76411W        W48836  37.890  11.322  11.632
76412W        W48837  38.310   7.124   0.528
76413W        W48838  29.640   0.640  11.988
76414W        W48839  13.669  15.013   4.198
76415W        W48840  26.007  16.700  14.928
76416W        W48841  34.518   1.907  13.603
76417W        W48842  42.735  28.577  11.165
76418W        W48843   1.867  28.010   4.537
76419W        W48844  26.384  33.124   1.081
76420W        W48845   4.983  12.722   0.482
76421W        W48846  30.087   7.910   0.484
76422W        W48847  37.639   1.868   4.465
76423W        W48848  13.005  41.253  11.173
76424W        W48849  14.069  10.375   1.761
76425W        W48850   4.839  24.287  11.413
76426W        W48851  12.131  43.825   4.212
76427W        W48852  20.996  14.217  10.606
76428W        W48853  17.644  17.062   0.970
76429W        W48854  38.258  33.119   3.726
76430W        W48855  11.734  43.500  14.950
76431W        W48856  44.267   1.856  11.547
76432W        W48857  22.574   4.264  12.162
76433W        W48858  40.813  37.338   0.056
76434W        W48859  19.426  30.487  10.353
76435W        W48860  19.307  26.601  12.441
76436W        W48861  22.175  34.487  10.290
76437W        W48862  42.426  39.738   2.670
76438W        W48863  11.081   2.194   1.369
76439W        W48864   6.519  34.987   1.211
76440W        W48865  29.577  30.992  11.168
76441W        W48866  38.852   6.895   4.218
76442W        W48867  22.197  29.077   4.208
76443W        W48868  23.763   9.257  12.492
76444W        W48869  43.871  21.101  12.327
76445W        W48870  34.922  40.492  10.282
76446W        W48871   1.014  30.722   3.148
76447W        W48872  12.207  24.221   5.236
76448W        W48873  39.885  18.027  10.472
76449W        W48874  42.748   6.450   2.261
76450W        W48875  17.854  42.788  11.446
76451W        W48876  34.704  34.986   3.633
76452W        W48877  26.741  12.311  10.503
76453W        W48878  44.520  39.651   3.905
76454W        W48879  31.582  31.655   0.418
76455W        W48880  16.658   4.745  12.020
76456W        W48881   1.924  30.814   3.645
76457W        W48882  39.287   5.573   4.192
76458W        W48883  16.324  22.824   0.188
76459W        W48884  39.362  41.725  13.506
76460W        W48885  18.692  38.483   0.860
76461W        W48886  44.489  19.598   0.700
76462W        W48887  10.252   9.696   0.472
76463W        W48888  11.801  20.169   2.840
76464W        W48889  18.038  30.385   3.359
76465W        W48890  40.323  20.491   1.341
76466W        W48891  26.142  12.808   0.932
76467W        W48892   3.209  14.166  13.601
76468W        W48893   6.667  28.456  12.376
76469W        W48894  41.907  10.383   3.091
76470W        W48895  41.390  44.387  12.480
76471W        W48896   5.568   6.344  11.576
76472W        W48897  15.653  18.345   4.718
76473W        W48898   5.614  44.922   2.848
76474W        W48899   0.445  36.421  14.667
76475W        W48900  14.891  38.168  14.174
76476W        W48901   8.183  11.694  10.737
76477W        W48902  29.141   0.944   3.878
76478W        W48903  38.242  28.108   2.846
76479W        W48904  18.654  32.659   4.189
76480W        W48905  24.579  15.648   4.040
76481W        W48906  41.726   4.880  12.251
76482W        W48907  13.228  42.374   4.149
76483W        W48908  12.226   8.869  10.601
76484W        W48909   5.674  29.140  12.527
76485W        W48910  13.529  44.514  11.455
76486W        W48911   8.643  19.438  13.636
76487W        W48912  13.135  33.625   0.868
76488W        W48913  26.232  11.883   1.347
76489W        W48914  18.918  25.444   2.364
76490W        W48915  43.861  33.660   0.330
76491W        W48916   3.961   6.896  13.140
76492W        W48917  17.799   2.797  12.921
76493W        W48918   0.771   7.345  14.279
76494W        W48919  27.631   5.867   1.246
76495W        W48920  37.860  39.871  13.617
76496W        W48921  23.523  24.002   4.673
76497W        W48922   9.201   5.317  10.264
76498W        W48923  14.463  25.040  12.405
76499W        W48924  30.586  36.028   3.704
76500W        W48925  36.044  16.880  13.508
76501W        W48926  43.222  25.685  14.771
76502W        W48927  37.151   4.148   2.862
76503W        W48928  15.852  44.454  10.764
76504W        W48929  10.697  16.649   4.541
76505W        W48930  23.016  35.151   3.603
76506W        W48931  36.449  28.938   1.443
76507W        W48932   2.222  23.364   1.004
76508W        W48933  12.384   9.283   1.730
76509W        W48934   0.296  25.612  14.424
76510W        W48935  10.682  34.529  14.529
76511W        W48936  17.747  24.027   3.770
76512W        W48937  28.074  29.999   4.244
76513W        W48938  43.357  21.280   3.223
76514W        W48939  30.561   6.518   1.320
76515W        W48940   6.387  11.701  12.060
76516W        W48941   3.960  29.496  13.068
76517W        W48942   8.619  25.747   0.300
76518W        W48943  42.983   3.258   0.210
76519W        W48944   5.486  40.548  12.631
76520W        W48945  36.564  37.172  14.726
76521W        W48946  21.112   2.608  11.274
76522W        W48947  33.457  14.713  11.436
76523W        W48948  43.385  10.171  12.017
76524W        W48949  11.856  30.135  13.336
76525W        W48950  28.028  12.857   1.177
76526W        W48951  16.047   6.742  11.642
76527W        W48952  11.623  43.576  13.576
76528W        W48953  21.826   5.684   3.635
76529W        W48954  27.268  31.009   1.169
76530W        W48955  38.548  28.928   3.661
76531W        W48956  14.643  22.551  10.629
76532W        W48957  29.985  24.854  10.665
76533W        W48958   7.470   4.787   0.370
76534W        W48959  10.292   7.267  14.840
76535W        W48960  24.361   0.372   2.804
76536W        W48961  24.273  15.858  13.430
76537W        W48962   9.775  18.202  11.039
76538W        W48963  44.229  32.428  12.051
76539W        W48964  22.463  38.523   0.629
76540W        W48965  42.680   6.971  14.598
76541W        W48966  18.858   7.522  14.314
76542W        W48967  18.119   0.536   2.764
76543W        W48968  20.263  32.508  11.020
76544W        W48969  37.952  40.415   4.898
76545W        W48970  13.187  27.175   2.170
76546W        W48971  41.089  16.010  12.496
76547W        W48972  24.068  35.786  14.031
76548W        W48973  40.248   9.391  11.162
76549W        W48974  29.393   7.607   1.812
76550W        W48975   3.282  29.956   1.805
76551W        W48976  10.581   6.406  10.251
76552W        W48977  33.081  18.609  10.980
76553W        W48978  15.794   4.403  10.734
76554W        W48979   6.965   6.751   3.857
76555W        W48980  12.407  28.024   3.732
76556W        W48981  23.253  44.536  14.061
76557W        W48982  37.566  30.346   1.426
76558W        W48983  32.958  33.422  12.891
76559W        W48984  38.822  28.137   1.546
76560W        W48985   0.785  18.910  13.636
76561W        W48986  29.187  31.695   0.182
76562W        W48987   6.814  20.672   3.295
76563W        W48988   0.524  10.437   3.488
76564W        W48989  43.625   6.913   2.949
76565W        W48990  23.270  40.252  11.420
76566W        W48991  20.895  12.582  13.660
76567W        W48992  12.732  31.557  12.939
76568W        W48993  38.048  34.960  12.504
76569W        W48994  28.788  27.194   1.419
76570W        W48995  13.374  40.295   0.334
76571W        W48996  11.745  32.987  13.145
76572W        W48997  41.777   9.089   0.767
76573W        W48998  11.556  26.444   0.393
76574W        W48999  17.668  17.624   0.248
76575W        W49000  36.404  25.509   4.176
76576W        W49001  37.984  44.562  12.140
76577W        W49002   2.257  41.546  13.610
76578W        W49003  10.484  11.319  12.541
76579W        W49004  29.249   8.626  13.765
76580W        W49005  38.614  20.775  11.567
76581W        W49006  28.367  23.028  11.096
76582W        W49007  17.001  16.877   4.049
76583W        W49008  10.885   6.654   3.212
76584W        W49009   8.393  32.711  10.985
76585W        W49010  13.836  41.798   1.802
76586W        W49011  32.890  29.219  12.661
76587W        W49012  42.812   6.961  12.868
76588W        W49013   2.698  32.186  13.064
76589W        W49014   6.208  14.613  11.050
76590W        W49015  32.293  16.199  11.285
76591W        W49016  26.174  23.670  13.060
76592W        W49017  21.530  22.726  13.314
76593W        W49018  43.265  37.432  14.070
76594W        W49019   5.929  32.943   1.274
76595W        W49020  34.943  22.718   3.737
76596W        W49021  16.607  25.156   0.885
76597W        W49022   1.055   8.216   0.816
76598W        W49023  29.889  38.001   1.490
76599W        W49024  27.925  43.337   1.917
76600W        W49025  43.760  18.572  11.589
76601W        W49026  21.370  11.161   2.435
76602W        W49027   0.465  33.890   1.464
76603W        W49028  30.582  33.706  13.484
76604W        W49029  15.905   7.886   2.756
76605W        W49030   9.356  41.457  14.450
76606W        W49031  10.374  42.594   2.662
76607W        W49032   8.502  37.983   9.519
76608W        W49033  44.895  44.041  13.540
76609W        W49034  16.614  18.108  12.718
76610W        W49035  42.024  43.438   1.901
76611W        W49036  30.505  13.651   4.551
76612W        W49037   5.770  17.064   4.218
76613W        W49038  43.395  36.935   2.946
76614W        W49039   5.153  41.918   4.249
76615W        W49040  15.704  36.469   1.466
76616W        W49041  24.121  29.036  14.806
76617W        W49042   9.778  16.634  13.831
76618W        W49043  31.115  17.151   0.643
76619W        W49044  13.731   8.081   4.145
76620W        W49045  36.971  19.121   0.237
76621W        W49046  30.071  43.586   1.395
76622W        W49047  32.093  30.689   2.425
76623W        W49048  28.192  37.475  14.200
76624W        W49049  14.364  13.677   4.052
76625W        W49050  17.967  40.957   3.235
76626W        W49051  38.377  44.410  14.991
76627W        W49052  11.250  12.120   1.417
76628W        W49053   9.811   5.578   1.770
76629W        W49054  37.870  18.061   2.895
76630W        W49055  35.532   3.331  14.630
76631W        W49056  40.249  33.063   3.181
76632W        W49057  36.005  23.026   2.310
76633W        W49058  37.588  29.998   4.310
76634W        W49059   6.885  26.766   2.285
76635W        W49060  11.803  31.879   1.883
76636W        W49061  38.811  14.908   0.505
76637W        W49062   3.532  41.028   3.072
76638W        W49063  28.539   1.714   3.236
76639W        W49064  44.521  15.753   5.069
76640W        W49065  27.916  34.314  10.994
76641W        W49066  31.425  26.933  12.001
76642W        W49067   2.693  23.057   2.376
76643W        W49068  38.618  15.624  14.992
76644W        W49069  14.410  37.311   4.191
76645W        W49070  29.182   1.447  13.029
76646W        W49071  42.988  24.627  12.073
76647W        W49072  21.569   7.758   3.007
76648W        W49073  16.857  12.389   4.357
76649W        W49074   7.618  13.425  14.435
76650W        W49075  24.667  19.756  12.844
76651W        W49076  21.708   3.179   2.439
76652W        W49077   8.143  13.972   0.824
76653W        W49078  26.542   8.961   3.756
76654W        W49079  28.702  28.631  12.406
76655W        W49080  21.204  23.065   0.568
76656W        W49081  19.578   4.380  11.738
76657W        W49082  42.510  12.776   2.209
76658W        W49083  25.052  39.466  14.707
76659W        W49084  35.522  27.251  13.520
76660W        W49085  34.144   1.250  12.419
76661W        W49086  36.607  43.327   2.359
76662W        W49087   5.295   9.111  14.320
76663W        W49088   7.576  12.619  12.522
76664W        W49089  18.323  18.521  10.985
76665W        W49090   1.209  14.064  14.505
76666W        W49091  12.508  41.107  11.198
76667W        W49092   6.332  14.023  10.202
76668W        W49093  20.671  36.117  11.968
76669W        W49094  44.515  17.775  12.045
76670W        W49095  22.537  29.282   1.725
76671W        W49096  30.082   1.468  12.807
76672W        W49097   6.261  21.959  13.391
76673W        W49098   4.870  16.169   0.003
76674W        W49099   3.600  44.527  10.109
76675W        W49100  22.751  11.688   0.853
76676W        W49101  40.322  38.923  12.664
76677W        W49102  36.290  39.923   0.732
76678W        W49103   5.637   9.281   0.947
76679W        W49104  28.976  23.547  14.272
76680W        W49105  24.074  33.145   4.604
76681W        W49106  27.908  17.227   1.829
76682W        W49107   1.032  15.236  11.162
76683W        W49108  15.267  29.234  14.998
76684W        W49109  24.919  17.685   4.636
76685W        W49110   2.822  41.491   0.429
76686W        W49111  35.011  44.712   4.492
76687W        W49112  25.269  13.865   1.353
76688W        W49113  20.331  41.124   2.168
76689W        W49114   2.895   9.659   3.227
76690W        W49115   6.535  10.245   1.016
76691W        W49116  29.037  44.841   3.289
76692W        W49117  19.704  35.043  12.987
76693W        W49118  43.870   3.118   2.314
76694W        W49119  22.349  22.759   0.999
76695W        W49120  25.546  41.504   0.441
76696W        W49121  26.854  10.813   3.563
76697W        W49122  32.869  26.567   4.123
76698W        W49123   4.315   5.790   4.827
76699W        W49124  23.672  43.887  14.957
76700W        W49125  13.351   7.304   0.844
76701W        W49126   6.203  40.177   1.951
76702W        W49127  39.355  20.179  13.355
76703W        W49128  11.336  31.463  12.446
76704W        W49129  15.618  17.282  10.910
76705W        W49130  16.830  13.428  12.881
76706W        W49131  16.516  24.448   4.577
76707W        W49132  40.751   4.876   1.693
76708W        W49133  41.069   0.996  10.593
76709W        W49134  42.234  34.359   4.137
76710W        W49135  37.696  10.334  13.734
76711W        W49136  31.443  36.938   1.126
76712W        W49137   7.841  39.261   3.850
76713W        W49138  34.912  32.378  14.375
76714W        W49139   7.780  26.905   1.060
76715W        W49140  28.454  22.776  14.297
76716W        W49141   6.066  25.474   3.656
76717W        W49142  29.163  41.834   0.198
76718W        W49143   6.943  43.899   0.250
76719W        W49144  38.402   3.474  11.137
76720W        W49145  26.545   8.200  12.080
76721W        W49146  29.792   3.917  14.593
76722W        W49147  41.900  17.842   4.095
76723W        W49148  43.053  33.033  14.300
76724W        W49149  44.005  31.191  12.526
76725W        W49150  37.012   8.123   3.688
76726W        W49151  37.521  27.334   4.435
76727W        W49152  23.216  26.809  14.049
76728W        W49153   6.453   3.401   5.064
76729W        W49154  36.740  37.981   1.924
76730W        W49155  13.740   4.977   3.206
76731W        W49156  16.188  33.705   1.954
76732W        W49157   8.883  18.010  12.568
76733W        W49158  28.026   1.772  14.311
76734W        W49159  34.085   5.506   0.388
76735W        W49160  36.474   5.322  14.071
76736W        W49161   2.980  14.118   1.638
76737W        W49162  37.651  28.614   3.804
76738W        W49163  19.302  31.067  12.410
76739W        W49164   8.638  10.095  11.122
76740W        W49165  22.630  25.922   4.599
76741W        W49166  28.902   7.485   2.166
76742W        W49167  24.653  30.978  13.899
76743W        W49168  43.290  18.686  13.221
76744W        W49169  25.074  34.355   9.975
76745W        W49170  27.945  35.403   0.743
76746W        W49171  43.107   5.254  14.703
76747W        W49172  16.667  10.590   2.435
76748W        W49173   0.289   6.440  10.649
76749W        W49174  12.752  23.652   4.165
76750W        W49175  29.165  17.796   1.227
76751W        W49176   9.905   9.427  13.340
76752W        W49177   9.687  17.310  12.643
76753W        W49178   2.412  19.669  10.641
76754W        W49179  27.034   2.047   5.170
76755W        W49180   1.368  14.308   1.361
76756W        W49181  23.543   5.012   3.289
76757W        W49182  24.155  24.996   1.228
76758W        W49183  15.623  11.202   3.712
76759W        W49184  23.015  13.204  12.019
76760W        W49185  13.609  29.242   0.467
76761W        W49186  28.032  27.816  14.876
76762W        W49187  23.199  19.091  10.811
76763W        W49188  38.924  15.282   1.844
76764W        W49189   7.533   8.558   2.449
76765W        W49190   7.798  21.603   3.697
76766W        W49191  29.430  38.898  12.849
76767W        W49192  24.194   9.418   2.676
76768W        W49193  11.489  26.419  13.347
76769W        W49194  10.665  19.645   0.271
76770W        W49195  38.975   2.996   2.545
76771W        W49196   1.752  43.538   1.698
76772W        W49197  17.093  29.553   1.788
76773W        W49198  35.392   1.234   2.226
76774W        W49199  21.200   1.237  12.590
76775W        W49200  24.241  12.796   0.080
76776W        W49201   7.026  15.292  12.907
76777W        W49202  35.318   4.385   1.152
76778W        W49203  25.433  29.463  12.987
76779W        W49204   7.764  18.716   1.979
76780W        W49205  12.177  39.424   2.197
76781W        W49206   6.222  11.849  13.926
76782W        W49207  28.706  16.345  11.379
76783W        W49208  40.026  44.382   0.935
76784W        W49209  44.288  33.047  11.511
76785W        W49210  16.788   5.994   4.272
76786W        W49211  32.925   8.711  11.617
76787W        W49212   3.375   8.765  12.592
76788W        W49213  30.475  12.936   1.393
76789W        W49214  34.288  36.847   2.615
76790W        W49215  34.311  20.323  12.498
76791W        W49216  30.188  28.865   3.254
76792W        W49217  20.173  13.229   1.204
76793W        W49218  29.466   8.635  11.534
76794W        W49219  42.906  24.009   4.659
76795W        W49220  30.662  40.290   0.328
76796W        W49221  34.350  10.424  10.700
76797W        W49222  10.797   5.321  14.929
76798W        W49223   0.642  10.338  10.646
76799W        W49224  25.390   3.433   4.440
76800W        W49225  22.685  18.091   4.291
76801W        W49226  23.084  42.820   0.337
76802W        W49227  15.850  15.224   1.158
76803W        W49228  25.129  37.384   4.747
76804W        W49229  25.612  17.079   9.972
76805W        W49230  35.963   7.748  14.572
76806W        W49231  34.766  40.915   3.706
76807W        W49232   7.146  32.956  12.424
76808W        W49233  39.580  36.973  10.670
76809W        W49234  25.813  21.615   0.342
76810W        W49235   1.864  19.212  11.590
76811W        W49236  26.629  20.982  13.021
76812W        W49237   8.679  17.218  12.893
76813W        W49238   8.791  42.924   0.595
76814W        W49239  23.238  44.668   2.489
76815W        W49240  44.328   9.745   3.830
76816W        W49241  20.860  14.239  12.997
76817W        W49242   3.775   3.787   0.368
76818W        W49243   2.321   1.455   4.963
76819W        W49244  44.392  11.100   1.957
76820W        W49245  10.439  31.067   2.347
76821W        W49246  36.340  37.988   0.067
76822W        W49247   4.080  12.812   2.411
76823W        W49248  21.202  39.375   1.757
76824W        W49249  20.148  32.343   5.433
76825W        W49250   5.249   4.040   1.469
76826W        W49251  12.234  28.930   3.714
76827W        W49252  27.860  21.877   0.236
76828W        W49253  44.902  15.244  12.385
76829W        W49254  42.869  39.077  11.630
76830W        W49255  21.682  43.228   0.952
76831W        W49256  10.229  11.038   2.359
76832W        W49257   8.100   3.915   2.931
76833W        W49258  14.614  43.732  14.365
76834W        W49259  39.302  41.044   0.342
76835W        W49260  19.044   2.084  14.506
76836W        W49261  20.012  23.206  11.049
76837W        W49262  25.440  40.830   4.078
76838W        W49263  43.561  10.455   2.166
76839W        W49264  34.623   4.872  13.981
76840W        W49265  27.068  34.139  10.563
76841W        W49266  25.065  29.664  13.354
76842W        W49267   1.692  22.053   3.277
76843W        W49268  40.333  42.268   9.762
76844W        W49269  11.057  32.579   2.812
76845W        W49270  18.506  17.360  11.155
76846W        W49271  24.595  15.642  13.047
76847W        W49272   9.776  11.380  14.518
76848W        W49273   9.663  34.119   4.310
76849W        W49274   0.012  24.399   0.833
76850W        W49275  21.551  17.024  11.921
76851W        W49276  22.722  13.180  14.311
76852W        W49277  30.449  26.079  13.184
76853W        W49278  41.904   8.475   1.236
76854W        W49279  21.296  17.778   1.843
76855W        W49280  35.459  24.213  11.623
76856W        W49281  10.287   1.748  14.361
76857W        W49282  29.626  30.042  13.329
76858W        W49283  23.502  28.697  11.117
76859W        W49284  24.610  13.261   1.714
76860W        W49285  12.643  29.758  11.966
76861W        W49286  19.778  21.076   1.931
76862W        W49287  18.566   0.952   3.444
76863W        W49288  19.672  11.027   2.973
76864W        W49289  36.390  11.725   3.316
76865W        W49290  34.343  44.986   2.506
76866W        W49291  23.554  19.742  11.429
76867W        W49292  23.528  32.838  11.655
76868W        W49293  27.458  31.541   1.243
76869W        W49294  17.695  41.902   4.426
76870W        W49295  26.149   8.611  14.375
76871W        W49296  42.467  16.480   1.934
76872W        W49297   5.850  38.743  11.621
76873W        W49298  17.688   2.740   1.190
76874W        W49299   5.930  43.392   4.141
76875W        W49300  11.814  15.045  14.315
76876W        W49301  43.220  41.874  14.562
76877W        W49302  33.317  39.911  14.793
76878W        W49303   4.740   0.868  14.528
76879W        W49304  14.967  15.925   2.110
76880W        W49305   4.458  41.611  13.780
76881W        W49306  16.281  21.218   1.791
76882W        W49307  11.390  35.935  11.914
76883W        W49308   9.776   7.426   1.375
76884W        W49309  42.976  33.037   0.957
76885W        W49310  17.639   1.866   5.376
76886W        W49311  33.046  38.397  12.016
76887W        W49312  33.145   2.334  13.210
76888W        W49313   3.873   5.993  12.967
76889W        W49314   3.498  17.980  10.342
76890W        W49315   8.687  23.795  12.389
76891W        W49316  26.637  19.092  10.593
76892W        W49317  25.762   7.766  14.220
76893W        W49318   8.395  40.946  11.544
76894W        W49319   6.090  10.789  11.528
76895W        W49320  23.603  30.725  11.528
76896W        W49321  11.593  10.348   3.849
76897W        W49322  31.593   6.850  14.353
76898W        W49323  13.058   2.235  13.922
76899W        W49324   5.794  31.909   1.375
76900W        W49325   0.234  13.279  12.273
76901W        W49326  39.997  42.535   5.560
76902W        W49327  11.178  31.490   0.355
76903W        W49328  21.503  11.204   0.966
76904W        W49329  28.749  35.984  13.917
76905W        W49330  26.907  15.877  10.379
76906W        W49331  30.063  18.320   4.570
76907W        W49332  16.597  36.083  11.092
76908W        W49333  11.696  12.797  14.902
76909W        W49334  21.217  39.327   4.672
76910W        W49335   2.773  27.382   4.663
76911W        W49336  31.416   4.396  11.516
76912W        W49337  27.873  44.421   0.421
76913W        W49338  22.231  38.033  14.285
76914W        W49339  13.554  13.312  12.110
76915W        W49340  28.913   1.150  13.403
76916W        W49341   9.642  27.606  12.863
76917W        W49342  37.852  23.972  12.321
76918W        W49343   5.892  39.313   4.251
76919W        W49344  36.337  22.908   2.678
76920W        W49345  18.199  14.109  10.750
76921W        W49346  16.804  15.035  11.040
76922W        W49347  17.694  41.590  13.064
76923W        W49348   9.191  29.634   4.948
76924W        W49349  26.128  33.698  14.352
76925W        W49350  35.403   2.487   1.405
76926W        W49351  21.049  25.763  12.079
76927W        W49352  14.888  16.085   3.343
76928W        W49353  20.036  40.015   0.373
76929W        W49354   0.453   7.853  12.946
76930W        W49355  17.061  41.027   4.187
76931W        W49356   5.974  16.576  11.540
76932W        W49357  10.821  11.903  14.789
76933W        W49358  30.370  18.189   2.889
76934W        W49359   9.060  33.736  13.894
76935W        W49360  44.527  15.079   4.065
76936W        W49361  39.507  29.728  12.512
76937W        W49362  39.233  41.224  14.310
76938W        W49363  18.597   1.228  13.348
76939W        W49364  14.122  20.393   3.666
76940W        W49365  16.549  16.580   1.703
76941W        W49366  20.414  27.154  14.242
76942W        W49367  34.627  41.859   1.356
76943W        W49368   4.329  39.096  10.679
76944W        W49369   9.339  43.890   1.379
76945W        W49370  33.044  28.305  14.331
76946W        W49371  39.523   1.659  11.589
76947W        W49372  44.861  15.757   2.718
76948W        W49373  13.666  11.352  14.891
76949W        W49374  16.726  17.659   4.697
76950W        W49375  19.180   8.406   2.765
76951W        W49376  14.121   9.365  12.930
76952W        W49377  39.288   4.369  10.359
76953W        W49378  26.940  31.320   5.490
76954W        W49379  31.990  22.721   1.213
76955W        W49380  25.100  38.365   0.430
76956W        W49381  40.112   4.640  10.824
76957W        W49382  36.362  42.336   1.758
76958W        W49383  23.617   2.410  14.002
76959W        W49384  41.992  31.898  14.957
76960W        W49385  37.445  30.325  14.132
76961W        W49386  41.950   6.268   1.903
76962W        W49387   6.736  32.271  11.696
76963W        W49388  35.616  21.487  12.432
76964W        W49389  27.077  10.791  12.018
76965W        W49390   9.568  25.659   0.327
76966W        W49391  37.873  40.694   1.473
76967W        W49392  26.037  35.282   3.085
76968W        W49393  35.968  36.630  14.285
76969W        W49394   7.421  16.816   3.969
76970W        W49395  10.686  15.199   4.259
76971W        W49396  29.501  25.110  11.580
76972W        W49397  18.792  27.550   2.774
76973W        W49398  41.517  43.697   4.226
76974W        W49399  28.102   7.818   1.981
76975W        W49400  24.620  26.675  14.118
76976W        W49401   4.477  12.720   0.391
76977W        W49402  36.955   6.418  12.121
76978W        W49403   7.153  15.858  11.999
76979W        W49404  37.779  17.460  13.027
76980W        W49405  23.156  22.883   2.717
76981W        W49406  12.585  13.107   2.638
76982W        W49407   4.057  18.586   4.675
76983W        W49408  17.594   9.096   3.706
76984W        W49409  43.979  32.458  14.671
76985W        W49410  16.748  36.881  13.992
76986W        W49411  37.986  38.041  14.442
76987W        W49412  10.161  31.923   2.233
76988W        W49413  18.095  14.287  13.440
76989W        W49414  13.077  21.314   0.375
76990W        W49415   2.289  34.371  10.636
76991W        W49416  17.888  35.444   2.419
76992W        W49417  22.506  27.312  13.063
76993W        W49418  18.016   8.324   3.803
76994W        W49419   0.521   1.937   5.059
76995W        W49420  34.523  11.442  14.170
76996W        W49421   0.389  10.118   1.067
76997W        W49422  44.491  23.787  10.290
76998W        W49423   3.454  32.203  14.588
76999W        W49424  15.102   2.180  14.866
77000W        W49425  24.581  11.137   0.785
77001W        W49426  31.030  13.863  14.819
77002W        W49427  39.527  27.783   0.258
77003W        W49428   3.836   4.214   0.024
77004W        W49429   5.417  28.196   0.428
77005W        W49430  15.548  12.457   5.204
77006W        W49431  19.032  40.005  12.439
77007W        W49432  21.548  23.147   0.953
77008W        W49433   3.696   4.709  14.844
77009W        W49434   3.387   6.958  12.328
77010W        W49435  18.150  31.712  13.567
77011W        W49436   9.822  22.077  13.191
77012W        W49437  30.374  20.204   1.325
77013W        W49438   1.910  16.021  12.587
77014W        W49439  38.487  26.744  12.889
77015W        W49440  37.188  32.801  13.832
77016W        W49441  21.499  28.371   2.004
77017W        W49442  12.864  37.487   0.842
77018W        W49443  37.659  17.500  10.920
77019W        W49444   8.940  16.300   1.208
77020W        W49445  22.479  29.335  12.983
77021W        W49446   4.395  30.297  12.869
77022W        W49447  22.582  37.077   4.879
77023W        W49448   2.428  14.205  11.989
77024W        W49449  11.831  29.508   2.228
77025W        W49450  43.918  30.717  14.376
77026W        W49451  24.709  42.351   1.369
77027W        W49452  39.211   0.898   4.569
77028W        W49453  31.021  40.474   3.149
77029W        W49454  31.349  41.833  12.560
77030W        W49455  36.014   6.764  14.341
77031W        W49456   4.137  14.296  14.699
77032W        W49457   7.288  32.607   3.656
77033W        W49458  23.928  20.509   2.804
77034W        W49459  42.551   1.472   1.373
77035W        W49460  25.216  24.601  10.902
77036W        W49461  28.905  16.347  14.234
77037W        W49462  10.960   5.876   5.221
77038W        W49463  21.015  32.518   1.340
77039W        W49464   2.866  32.290   1.892
77040W        W49465  25.137  24.626   1.884
77041W        W49466  41.304  35.477  13.750
77042W        W49467  28.036  18.797   0.280
77043W        W49468  30.971  10.969   4.984
77044W        W49469  12.548   8.800   3.662
77045W        W49470  20.754  35.187   2.915
77046W        W49471  36.607  22.016   2.715
77047W        W49472  33.707   3.704  14.717
77048W        W49473  11.638  41.077  12.702
77049W        W49474  44.871   9.944  14.786
77050W        W49475  43.980  33.112  14.308
77051W        W49476  36.164  22.521   2.383
77052W        W49477  10.835  21.293   0.769
77053W        W49478  14.194  44.466   1.861
77054W        W49479  30.583  18.045   1.713
77055W        W49480  34.239  28.941   0.486
77056W        W49481   7.444  17.863  13.097
77057W        W49482   9.318  29.070  10.620
77058W        W49483  12.266  10.222   3.216
77059W        W49484  35.958  39.082  11.906
77060W        W49485  30.447  34.228  13.588
77061W        W49486  12.260  25.665  12.488
77062W        W49487  35.925  20.041  12.361
77063W        W49488  34.858  37.634  12.467
77064W        W49489  37.593   1.886   3.021
77065W        W49490  37.725   4.833  14.482
77066W        W49491   9.231  26.878  10.271
77067W        W49492  28.141  37.542  12.899
77068W        W49493  26.549  44.999   3.932
77069W        W49494  25.743  13.928  11.123
77070W        W49495  44.284  36.485  14.834
77071W        W49496   5.892  32.454  10.711
77072W        W49497  13.650  24.617   3.094
77073W        W49498  36.373  27.878  11.180
77074W        W49499   3.299  14.279   0.062
77075W        W49500  16.312  36.777  12.270
77076W        W49501  31.310  31.217   3.152
77077W        W49502  11.217  22.019   1.867
77078W        W49503  13.125  24.116   0.249
77079W        W49504  21.117  22.612  11.974
77080W        W49505  15.441   7.902  11.910
77081W        W49506   5.276  25.009   4.529
77082W        W49507  43.545  10.156   2.601
77083W        W49508   2.901  23.110  14.231
77084W        W49509  11.349  32.831  12.831
77085W        W49510   1.624   8.476  11.170
77086W        W49511  11.483  43.580  11.402
77087W        W49512  16.259  24.231   1.832
77088W        W49513   3.692  24.058  12.307
77089W        W49514  14.191  44.977   3.752
77090W        W49515  11.738  29.261   3.153
77091W        W49516  39.968  43.479  14.263
77092W        W49517  16.474   2.907   2.742
77093W        W49518  18.093  44.547   0.339
77094W        W49519  28.357  25.007  10.257
77095W        W49520  32.007  23.263  14.850
77096W        W49521   3.633   7.611   3.699
77097W        W49522  14.030   0.258  11.002
77098W        W49523  28.886  18.293  11.578
77099W        W49524  28.866  24.076  12.356
77100W        W49525  31.061   7.963  12.398
77101W        W49526  29.623  18.074   4.543
77102W        W49527   8.151  41.209  12.933
77103W        W49528   0.025  20.788   0.722
77104W        W49529  37.278  23.669   0.970
77105W        W49530   4.886   9.253  11.084
77106W        W49531  31.054  35.040  13.474
77107W        W49532  20.505   0.550   2.131
77108W        W49533  15.594  32.654   1.431
77109W        W49534  17.058  40.838  11.029
77110W        W49535  19.657   7.235   0.261
77111W        W49536  40.197   3.101  10.327
77112W        W49537  12.609  39.363   2.781
77113W        W49538  10.788  13.912   2.596
77114W        W49539  26.714  25.345  11.604
77115W        W49540  37.354  40.863   3.771
77116W        W49541  12.572  37.984  11.484
77117W        W49542   4.725  21.569   2.781
77118W        W49543  22.020  11.707   3.097
77119W        W49544  13.336  23.433   2.900
77120W        W49545  35.743   6.283   0.060
77121W        W49546  37.842  32.159  13.849
77122W        W49547  25.007  13.181  11.757
77123W        W49548  39.233  17.869   2.737
77124W        W49549   8.942  42.211   3.944
77125W        W49550  36.882   0.431  13.533
77126W        W49551  28.030   2.187  13.484
77127W        W49552  22.164  19.644  14.244
77128W        W49553  43.935  22.135   2.274
77129W        W49554  40.872  18.591   1.740
77130W        W49555  27.547  28.245   3.210
77131W        W49556  44.408  19.302   2.316
77132W        W49557   8.640  44.420   3.401
77133W        W49558   8.600  11.252  12.880
77134W        W49559   5.831  13.432  13.295
77135W        W49560   6.303  35.972  12.631
77136W        W49561  26.238  26.657  12.930
77137W        W49562   0.793  32.896   1.507
77138W        W49563  13.006  23.041   0.382
77139W        W49564  13.859  38.422  12.572
77140W        W49565  32.193  22.815  13.007
77141W        W49566  20.021  33.976   0.789
77142W        W49567  17.123  18.786   2.105
77143W        W49568   5.685   7.087  11.100
77144W        W49569  27.117  14.540   0.466
77145W        W49570  22.817  23.655   0.871
77146W        W49571  33.129  21.145  14.030
77147W        W49572  11.703  35.464   0.896
77148W        W49573   6.133  24.133  13.446
77149W        W49574  40.476  44.539   4.849
77150W        W49575  35.605  16.880   4.533
77151W        W49576  17.287   7.427   1.357
77152W        W49577  28.450  10.737   2.218
77153W        W49578  24.132   4.476  13.974
77154W        W49579  34.653  24.602  12.084
77155W        W49580  24.045  38.035  12.893
77156W        W49581  30.980   2.690   4.584
77157W        W49582  28.204   6.800  13.730
77158W        W49583  21.110  28.209   3.654
77159W        W49584  13.444  29.105   4.161
77160W        W49585  13.754  25.331  11.673
77161W        W49586   8.439   6.529   4.475
77162W        W49587   9.745   6.917  13.074
77163W        W49588  23.025  23.603  14.615
77164W        W49589  32.564  11.708   4.569
77165W        W49590  22.325   9.763   2.854
77166W        W49591  27.551   1.852   3.037
77167W        W49592  33.499   2.640   1.184
77168W        W49593  24.911  32.869   3.282
77169W        W49594  38.577  29.023  10.711
77170W        W49595  25.590  24.443   1.317
77171W        W49596  18.161  12.260  10.476
77172W        W49597   9.445   9.322   4.656
77173W        W49598   7.997  30.068  11.450
77174W        W49599  33.044  43.114  14.419
77175W        W49600  13.084   8.170   2.861
77176W        W49601  25.476  15.628   4.047
77177W        W49602  10.385  36.806  13.348
77178W        W49603  38.640  14.728   1.602
77179W        W49604  17.767  42.354  11.136
77180W        W49605  10.795  28.493  13.909
77181W        W49606  27.654   6.731   2.235
77182W        W49607  41.008  40.359   0.887
77183W        W49608   6.808  44.280   2.113
77184W        W49609  42.762  33.020   0.016
77185W        W49610   1.356  36.130   0.814
77186W        W49611  11.117  23.156  12.928
77187W        W49612  19.724  29.694  14.198
77188W        W49613  17.654   7.799  13.409
77189W        W49614   4.365   7.351  10.884
77190W        W49615  16.349   4.518   4.856
77191W        W49616   4.160  40.084   4.495
77192W        W49617  29.549  10.121  14.200
77193W        W49618  32.102  44.712  14.196
77194W        W49619  40.934  14.639  12.485
77195W        W49620  20.271  27.148  12.722
77196W        W49621  35.411  34.049  10.699
77197W        W49622  20.075  38.551   1.285
77198W        W49623   6.846  15.892  12.398
77199W        W49624  14.786  33.010  10.615
77200W        W49625  35.082  38.415  12.993
77201W        W49626   1.836  25.566  11.918
77202W        W49627  12.683  11.066  10.971
77203W        W49628  43.480  32.019  14.011
77204W        W49629  33.815  21.099  11.665
77205W        W49630  25.656   5.777   2.317
77206W        W49631   4.301   1.334  10.896
77207W        W49632  23.612  24.468  11.611
77208W        W49633  24.316   4.743   1.900
77209W        W49634  20.834  21.290   3.939
77210W        W49635  41.399  21.078  10.194
77211W        W49636   7.262   3.841   3.174
77212W        W49637  31.462  34.750   0.701
77213W        W49638  36.755   4.369   1.713
77214W        W49639   4.013  12.890   4.229
77215W        W49640   0.508  29.032   4.563
77216W        W49641   2.473  42.876  12.972
77217W        W49642  12.875  41.800   1.604
77218W        W49643  37.050   3.671   1.460
77219W        W49644  13.369   7.037   5.102
77220W        W49645  42.086   2.922  12.497
77221W        W49646  13.714  43.106  12.064
77222W        W49647  15.200   3.383  11.201
77223W        W49648   7.314  15.602  12.414
77224W        W49649  20.185   7.894  10.863
77225W        W49650  15.936  12.361  11.135
77226W        W49651  10.668  17.555  10.545
77227W        W49652  40.689  30.031  12.087
77228W        W49653  40.561  17.492  14.587
77229W        W49654   2.417   7.375  12.026
77230W        W49655  16.339  43.924   1.185
77231W        W49656  33.482  26.061   4.547
77232W        W49657  35.128   5.392  11.077
77233W        W49658  36.372  35.311  12.901
77234W        W49659  21.694  22.361   1.018
77235W        W49660  34.178  27.598   3.881
77236W        W49661  27.013  18.667   0.715
77237W        W49662  25.544  22.407  11.139
77238W        W49663   8.891  32.284  12.549
77239W        W49664  23.084  33.466  12.919
77240W        W49665  44.692  19.036   4.645
77241W        W49666   6.292  11.090  13.494
77242W        W49667  24.994  19.337   4.669
77243W        W49668   6.717  12.110  11.542
77244W        W49669  43.542  44.804  12.903
77245W        W49670   7.547   1.004  12.151
77246W        W49671  24.712  28.205  10.793
77247W        W49672  33.585  29.106  13.867
77248W        W49673  34.485  22.188   0.071
77249W        W49674  30.026  31.391   3.244
77250W        W49675  33.604  39.635  13.480
77251W        W49676  12.682  16.119  11.612
77252W        W49677  36.349  13.636  14.919
77253W        W49678  33.040  36.585  12.133
77254W        W49679   9.200  29.044  11.430
77255W        W49680  10.762  42.033   3.330
77256W        W49681  21.030  31.393   2.684
77257W        W49682  25.201  17.799  14.920
77258W        W49683  12.727   5.423  13.571
77259W        W49684  32.912   6.405   2.363
77260W        W49685   0.562   8.836   1.537
77261W        W49686   3.761   6.199   0.500
77262W        W49687  35.569  21.008  14.826
77263W        W49688  42.286  43.637   0.300
77264W        W49689  33.870  25.408   0.748
77265W        W49690  11.756  31.029  12.888
77266W        W49691  36.719  21.179   2.656
77267W        W49692  15.486   1.451   9.942
77268W        W49693  17.625  25.105  11.651
77269W        W49694  19.027  18.736   4.811
77270W        W49695  35.524  19.045   3.624
77271W        W49696   9.596   5.263  12.357
77272W        W49697  25.588  31.964  11.126
77273W        W49698  12.909  40.591   1.818
77274W        W49699  38.833  37.714  11.135
77275W        W49700  44.169  23.749  12.887
77276W        W49701  37.253  19.554   0.067
77277W        W49702  28.717  13.786  14.369
77278W        W49703   7.587  19.385  11.180
77279W        W49704  28.496   6.230  11.047
77280W        W49705   2.188  34.410  11.617
77281W        W49706  44.334  29.849   4.726
77282W        W49707  41.828  11.163   4.069
77283W        W49708  33.220  39.896   0.683
77284W        W49709  41.971  24.799   0.553
77285W        W49710  41.595  40.581  12.104
77286W        W49711   2.312  27.065   1.037
77287W        W49712   7.123  32.612  13.947
77288W        W49713   4.659  43.736   4.130
77289W        W49714  34.789  33.825  12.094
77290W        W49715  14.868  34.461   4.881
77291W        W49716  24.110  30.163  13.856
77292W        W49717  32.910   8.011   3.044
77293W        W49718  36.871  40.844  12.036
77294W        W49719  18.272  23.151   0.420
77295W        W49720  37.066   3.897  13.403
77296W        W49721  33.490  42.129  11.429
77297W        W49722  24.267  37.785   0.331
77298W        W49723  23.055   6.116   1.222
77299W        W49724  25.640  34.067   3.598
77300W        W49725  21.484  18.631   2.816
77301W        W49726   4.364  30.121  12.348
77302W        W49727  41.942  14.750  13.403
77303W        W49728  43.106  27.021   4.170
77304W        W49729  26.961   4.189   1.432
77305W        W49730  42.520  41.424  12.036
77306W        W49731   2.157  16.845   2.649
77307W        W49732  40.567  39.536  10.983
77308W        W49733  36.125  31.209  12.400
77309W        W49734  23.382  16.634  12.970
77310W        W49735  29.645   6.692  10.598
77311W        W49736  17.631   0.838  12.373
77312W        W49737  38.990  31.660   9.712
77313W        W49738  10.216  10.358   4.086
77314W        W49739  42.437  40.091   1.356
77315W        W49740  30.962   7.659  12.832
77316W        W49741  26.124   9.893   0.194
77317W        W49742  43.683  41.995   3.581
77318W        W49743   4.346  35.940   4.664
77319W        W49744  15.044  38.288   4.781
77320W        W49745  31.467   9.794  14.364
77321W        W49746   5.361  43.314   3.259
77322W        W49747  20.597  31.805   4.072
77323W        W49748  38.900  44.974  11.093
77324W        W49749  14.552   4.917  11.110
77325W        W49750  31.511  12.140  11.768
77326W        W49751   8.149  18.509   2.302
77327W        W49752  37.975  42.920  10.747
77328W        W49753  41.564  26.062   0.133
77329W        W49754  14.580   6.339  13.437
77330W        W49755  30.875  21.787   1.364
77331W        W49756   3.268  23.646  11.034
77332W        W49757  33.570  19.627  13.842
77333W        W49758  36.778  41.021  14.273
77334W        W49759   7.408  10.346   0.013
77335W        W49760   5.858  27.392  14.550
77336W        W49761  31.169  25.516  10.660
77337W        W49762  43.700  42.428   1.836
77338W        W49763  13.174  24.578   0.900
77339W        W49764  41.257   7.828   1.921
77340W        W49765  16.213  26.574  11.872
77341W        W49766  41.843  43.685  12.623
77342W        W49767  11.699  11.338   1.333
77343W        W49768   9.904  13.761  13.926
77344W        W49769  31.102   1.083   0.368
77345W        W49770  21.694  33.435  14.859
77346W        W49771  32.883  23.267   1.415
77347W        W49772  33.622  43.918  12.544
77348W        W49773  26.212  27.127  14.710
77349W        W49774  13.797  14.330  13.997
77350W        W49775  35.432  20.250   4.282
77351W        W49776  29.452  22.512  14.362
77352W        W49777  37.583   1.418  10.561
77353W        W49778  37.346  22.179   0.577
77354W        W49779  39.945  43.751   2.149
77355W        W49780   2.677  21.306   2.755
77356W        W49781  37.587  34.047   0.413
77357W        W49782  34.542  17.246  12.053
77358W        W49783  38.535  20.636  13.436
77359W        W49784  42.986   7.501   2.741
77360W        W49785   3.062   5.915  13.351
77361W        W49786  12.217  18.009  11.182
77362W        W49787  32.541  14.710   1.947
77363W        W49788  25.830  24.978  13.295
77364W        W49789  16.029   2.818   4.208
77365W        W49790  21.509  10.411   2.392
77366W        W49791   8.341  12.168  13.371
77367W        W49792   8.846  14.798  13.131
77368W        W49793  41.776  27.311  14.434
77369W        W49794  34.762   5.731   2.223
77370W        W49795  24.752  22.825  13.094
77371W        W49796   3.244  11.193  10.750
77372W        W49797  26.915  27.614   0.682
77373W        W49798  15.936  15.077   4.782
77374W        W49799  41.681   0.858   3.243
77375W        W49800   2.502  38.110   1.734
77376W        W49801  24.940  30.436   2.324
77377W        W49802  13.079  43.547  14.520
77378W        W49803  44.769   8.959   2.711
77379W        W49804  11.256  16.309   0.954
77380W        W49805  31.160  24.554   4.161
77381W        W49806  35.640  23.800  11.877
77382W        W49807   4.107  31.293  12.920
77383W        W49808   9.580  31.586  14.713
77384W        W49809  25.585  26.129  14.969
77385W        W49810  24.041  27.787   0.614
77386W        W49811  37.429   1.318  13.997
77387W        W49812  26.538   2.304   2.339
77388W        W49813   7.844  26.738   1.809
77389W        W49814  43.893  24.040   3.725
77390W        W49815  44.569  21.001  11.911
77391W        W49816  20.027  38.965  11.247
77392W        W49817  28.360  34.448   0.034
77393W        W49818   3.538  17.408   0.000
77394W        W49819   1.018  36.867   2.830
77395W        W49820   7.697   3.464   3.630
77396W        W49821   7.639  34.262   5.004
77397W        W49822  16.212  21.827   0.528
77398W        W49823  35.548  33.587  14.489
77399W        W49824  10.236   4.757  10.710
77400W        W49825  13.563   1.903   0.692
77401W        W49826  30.605   7.945   0.437
77402W        W49827   0.896  33.563   2.356
77403W        W49828   8.124  42.172  10.617
77404W        W49829   8.714   8.985   4.116
77405W        W49830  35.566  29.353   4.308
77406W        W49831  10.583   9.927   1.745
77407W        W49832  23.746  22.108   4.126
77408W        W49833  20.204  11.901  12.066
77409W        W49834  11.581  40.130   4.950
77410W        W49835  11.390  27.809  12.332
77411W        W49836  40.266   8.682  13.755
77412W        W49837  38.905  21.024  11.193
77413W        W49838   3.972  30.004   4.956
77414W        W49839  27.221  38.602  12.909
77415W        W49840  23.305  37.777  11.564
77416W        W49841  28.652  44.554   0.783
77417W        W49842  42.400  18.062  14.415
77418W        W49843  21.259   4.263   0.668
77419W        W49844   5.704  27.215   0.002
77420W        W49845   8.388  31.963   0.902
77421W        W49846  36.482  43.319   1.762
77422W        W49847  41.913  18.867   0.826
77423W        W49848  39.094  32.250   1.313
77424W        W49849  19.829  28.639   1.805
77425W        W49850  39.644  23.985   3.668
77426W        W49851  19.186   2.702   0.906
77427W        W49852  11.791  26.983   2.818
77428W        W49853  26.130  36.862   2.415
77429W        W49854  18.823  27.481   3.657
77430W        W49855   1.771  27.891  12.206
77431W        W49856  17.360   8.244  13.486
77432W        W49857  21.540  16.997  10.349
77433W        W49858   6.881   6.264   1.453
77434W        W49859  44.535  31.309  13.985
77435W        W49860   2.880   9.555   0.339
77436W        W49861  37.164   2.620   2.668
77437W        W49862   5.324  22.343  12.286
77438W        W49863  27.183  17.329   0.722
77439W        W49864  42.582  13.195   3.318
77440W        W49865   0.353  19.801  11.529
77441W        W49866  32.732  25.602  13.846
77442W        W49867  26.232   4.475  12.113
77443W        W49868   3.012   5.994  11.121
77444W        W49869  19.680  41.149   0.954
77445W        W49870  28.582   6.452  13.550
77446W        W49871  32.337  22.039   2.110
77447W        W49872  44.166   1.039   1.782
77448W        W49873  33.132  24.204  14.515
77449W        W49874  29.806  30.493   2.718
77450W        W49875  44.724   7.730   0.850
77451W        W49876   4.330   2.198   1.743
77452W        W49877  24.161  21.007   2.790
77453W        W49878  19.853  33.429  10.139
77454W        W49879  14.422   2.177   3.267
77455W        W49880  13.158   0.448   1.061
77456W        W49881   0.482  24.999  13.016
77457W        W49882   6.693   5.193   3.321
77458W        W49883  24.729   4.650  11.582
77459W        W49884  22.517  28.371   2.337
77460W        W49885  11.641   9.227   2.811
77461W        W49886  22.194   7.871   3.084
77462W        W49887  17.572  16.706  11.114
77463W        W49888  24.526  20.112  14.769
77464W        W49889  14.321  21.590  10.211
77465W        W49890  25.988   2.775  14.968
77466W        W49891  30.448  27.461  11.527
77467W        W49892  12.061   9.369  11.852
77468W        W49893  31.360  30.605  10.744
77469W        W49894  36.894  30.890  13.038
77470W        W49895  31.673   2.691  12.213
77471W        W49896   3.987   3.464   0.969
77472W        W49897  22.563  18.585  11.935
77473W        W49898  21.536  43.520   3.300
77474W        W49899  38.667  34.230  10.620
77475W        W49900  41.095  13.240  10.765
77476W        W49901  30.078  37.163   2.312
77477W        W49902   7.714  37.814  10.674
77478W        W49903  17.346  16.583  10.658
77479W        W49904  12.205  12.606   4.131
77480W        W49905   9.410   9.247  10.118
77481W        W49906  42.496   6.549   2.733
77482W        W49907  39.048  40.233  12.034
77483W        W49908  31.933   2.100  12.486
77484W        W49909  19.476  20.758  12.123
77485W        W49910   4.034   2.010  10.853
77486W        W49911  41.479  16.906   1.887
77487W        W49912   1.783   9.103   4.491
77488W        W49913  14.139   4.716  12.681
77489W        W49914   8.499  16.507  13.864
77490W        W49915  24.589  21.574   1.370
77491W        W49916   0.349  40.897  11.084
77492W        W49917  18.979  18.788  12.433
77493W        W49918   4.153  27.654  11.628
77494W        W49919   7.810  16.356  12.622
77495W        W49920  29.520  21.486   4.525
77496W        W49921  12.283  30.415  12.871
77497W        W49922  44.736  24.297   3.668
77498W        W49923  32.433   3.298  12.068
77499W        W49924   0.193  34.993   4.173
77500W        W49925  30.632  39.490   2.668
77501W        W49926  14.745  25.209  14.324
77502W        W49927   7.422   4.320   3.357
77503W        W49928  36.864  35.130  14.514
77504W        W49929   4.299  44.889  10.568
77505W        W49930  31.867  25.007   1.207
77506W        W49931  16.259   3.133   3.253
77507W        W49932  24.519  17.664  11.640
77508W        W49933  18.008  28.728   3.991
77509W        W49934  44.275  18.520  13.403
77510W        W49935  29.530  18.590  13.489
77511W        W49936  28.221  40.121  14.502
77512W        W49937  27.651  28.103   0.477
77513W        W49938  24.517  32.416   3.653
77514W        W49939   8.446  25.472  13.354
77515W        W49940  21.251   4.636  11.265
77516W        W49941   6.617   7.401  11.325
77517W        W49942  36.933  32.792   4.549
77518W        W49943  23.563  42.447   4.806
77519W        W49944  22.433   7.132  14.796
77520W        W49945  32.330  13.061   0.526
77521W        W49946  29.081   7.454  12.992
77522W        W49947  22.603  39.391   4.709
77523W        W49948  20.553  27.504  14.888
77524W        W49949  34.262  12.339   1.693
77525W        W49950  10.787   2.698   3.753
77526W        W49951  41.034  21.186   1.708
77527W        W49952  21.815  41.892   2.190
77528W        W49953  12.173  37.602   2.143
77529W        W49954   9.302  36.390  13.325
77530W        W49955   9.400  22.919   2.798
77531W        W49956   5.484  21.803  14.774
77532W        W49957  41.937   2.046  12.169
77533W        W49958   8.133   3.806  10.619
77534W        W49959  42.106  23.414   1.252
77535W        W49960  19.178  33.184  13.357
77536W        W49961   3.968   7.855   4.554
77537W        W49962  20.645  15.611   0.493
77538W        W49963  15.815  31.100   3.640
77539W        W49964  29.177  14.618   3.178
77540W        W49965   8.906  36.258  11.651
77541W        W49966  14.365  30.184  14.822
77542W        W49967   5.906   9.699   4.530
77543W        W49968  18.661  18.159  14.357
77544W        W49969  18.582   1.740  12.579
77545W        W49970  27.132  10.620   1.780
77546W        W49971  41.075  29.078  13.461
77547W        W49972   6.298  25.784   4.127
77548W        W49973  21.038  20.682  12.962
77549W        W49974  27.699  27.439  12.473
77550W        W49975   7.116  10.559   2.354
77551W        W49976  29.206  39.312   1.269
77552W        W49977  13.416  28.763   2.732
77553W        W49978  43.290  31.540  14.296
77554W        W49979  38.857  44.469   1.802
77555W        W49980  17.749  42.894  12.319
77556W        W49981   2.986   1.888   1.250
77557W        W49982   1.026   4.753   2.271
77558W        W49983  20.326  22.277  14.334
77559W        W49984  41.391  27.862   1.770
77560W        W49985  44.533  30.595   0.836
77561W        W49986  40.536  19.999   1.264
77562W        W49987   8.432   0.996  14.746
77563W        W49988  40.256   8.006  10.979
77564W        W49989  39.933  20.718  11.929
77565W        W49990  22.988   4.135   4.123
77566W        W49991  23.716  35.405   0.865
77567W        W49992  24.247  19.732  12.460
77568W        W49993  33.154  13.013   2.110
77569W        W49994  17.810  39.834  13.775
77570W        W49995  21.146  11.233  12.917
77571W        W49996   2.066  41.402  11.507
77572W        W49997  38.399   5.965  11.932
77573W        W49998   1.455  24.257  14.687
77574W        W49999   8.938   6.572   4.427
77575W        W50000  43.412  19.382  12.598
77576W        W50001  22.239  20.004  11.162
77577W        W50002  16.339  17.350  11.541
77578W        W50003   5.206  11.944  13.998
77579W        W50004  42.920  18.351  12.300
77580W        W50005   7.752  28.974   3.780
77581W        W50006  31.937  25.774  12.791
77582W        W50007   8.771  24.790  10.744
77583W        W50008  25.671  25.710  13.539
77584W        W50009  20.020  33.032  12.116
77585W        W50010  36.026   0.051   3.720
77586W        W50011  19.972   1.892   2.396
77587W        W50012  12.067  37.073  11.725
77588W        W50013  34.287  12.692   2.757
77589W        W50014  44.924  36.400   0.588
77590W        W50015  25.506  16.037   1.470
77591W        W50016  26.078  37.519   4.146
77592W        W50017  34.962  42.845   0.385
77593W        W50018  34.002  17.575  13.655
77594W        W50019   3.205   7.618  11.638
77595W        W50020   6.463  22.318  13.985
77596W        W50021  12.886  28.087   2.761
77597W        W50022  37.644  41.442  11.605
77598W        W50023  11.301  16.815   0.918
77599W        W50024  38.299  44.987   1.411
77600W        W50025  42.291  23.075  13.883
77601W        W50026  24.934   4.510  13.482
77602W        W50027   1.351  15.012   1.851
77603W        W50028   5.843  10.887   3.263
77604W        W50029  42.916  20.253  12.418
77605W        W50030  20.498  36.421  11.011
77606W        W50031  30.441  35.575  13.189
77607W        W50032   2.804  40.416   4.705
77608W        W50033   2.035  23.553  13.528
77609W        W50034  44.860  41.847   3.697
77610W        W50035  35.867  21.099  13.084
77611W        W50036  12.069  33.998   2.678
77612W        W50037   6.063  44.308  12.999
77613W        W50038   0.766  34.957   0.668
77614W        W50039  34.538   1.261   0.436
77615W        W50040   5.791   3.270  11.541
77616W        W50041   7.048  40.339   5.226
77617W        W50042  16.320  37.002  14.914
77618W        W50043  36.146  40.076  11.442
77619W        W50044  18.412  15.267  14.965
77620W        W50045  20.301  16.120   1.670
77621W        W50046   1.639  24.418   1.075
77622W        W50047  31.121  39.815   2.304
77623W        W50048   2.302  36.064  14.386
77624W        W50049  31.444  37.742   3.661
77625W        W50050  33.143  29.950   4.914
77626W        W50051  26.232  37.182  11.687
77627W        W50052  35.954  20.041   2.781
77628W        W50053  27.708  29.079   0.530
77629W        W50054  26.924  36.579   1.575
77630W        W50055   4.470   4.370  14.458
77631W        W50056   6.194  15.599  10.812
77632W        W50057  29.822  11.727  12.958
77633W        W50058  28.889  26.560   3.295
77634W        W50059  26.534  29.955  11.944
77635W        W50060  32.574  21.633  13.621
77636W        W50061  13.071  15.601   0.882
77637W        W50062  18.691   0.037   3.180
77638W        W50063  22.154  40.862   2.856
77639W        W50064  14.985  35.506   0.230
77640W        W50065  36.703   5.400   4.584
77641W        W50066  43.834   5.859  14.497
77642W        W50067  26.925  27.512  10.357
77643W        W50068  22.966  11.014  14.347
77644W        W50069  12.767  40.329  10.498
77645W        W50070  36.813  29.463   0.867
77646W        W50071  17.648  31.566   2.226
77647W        W50072  26.740  34.757  12.926
77648W        W50073  25.278  12.131   2.363
77649W        W50074  41.530  28.683   2.955
77650W        W50075   0.452   0.583  10.718
77651W        W50076  18.441  24.060  11.673
77652W        W50077  26.228  41.768  13.419
77653W        W50078  38.024   6.190  13.538
77654W        W50079  23.090  43.451   4.611
77655W        W50080  17.174  11.192   3.801
77656W        W50081  38.380  34.500  11.568
77657W        W50082  44.043   7.427  13.095
77658W        W50083   3.760  31.244  12.056
77659W        W50084  43.922  17.635   0.812
77660W        W50085  34.403  28.576  12.588
77661W        W50086  12.631   2.861   2.481
77662W        W50087  10.254  32.401   1.991
77663W        W50088   7.731  19.636  13.567
77664W        W50089  38.855  32.439  11.959
77665W        W50090  35.196   6.743   1.971
77666W        W50091  29.618  31.672  11.856
77667W        W50092  41.340  13.852  13.450
77668W        W50093  43.309   4.334   3.595
77669W        W50094   5.488  19.139   0.208
77670W        W50095  19.864  24.674  14.312
77671W        W50096  27.877  26.896   1.351
77672W        W50097  30.348  17.812  14.931
77673W        W50098  10.251  33.003  13.211
77674W        W50099  42.274  12.507  13.066
77675W        W50100  23.015   8.664   5.552
77676W        W50101  37.351  24.563   1.035
77677W        W50102  29.580  34.200   4.776
77678W        W50103  28.973  19.999   1.615
77679W        W50104   5.888  33.511  11.417
77680W        W50105  17.047  26.254  12.988
77681W        W50106  36.035  17.662  11.599
77682W        W50107   2.967  40.462  14.995
77683W        W50108   7.903  11.198   4.184
77684W        W50109  27.236  44.049   2.428
77685W        W50110  12.158  14.694   3.337
77686W        W50111  35.815  20.241   0.792
77687W        W50112  29.745   7.773   3.434
77688W        W50113  38.355  38.260   1.191
77689W        W50114  15.828  21.779   1.387
77690W        W50115  25.526  30.395  13.975
77691W        W50116  33.782  16.167  10.950
77692W        W50117   4.270  24.681   0.303
77693W        W50118  40.017  12.558   1.180
77694W        W50119   6.871  25.172  11.263
77695W        W50120   1.984   7.694   3.351
77696W        W50121   4.231  31.018   3.075
77697W        W50122   8.632  28.453   3.637
77698W        W50123  27.513   1.009  11.039
77699W        W50124  19.118  24.009  14.819
77700W        W50125   6.278  25.294   3.171
77701W        W50126   7.348  39.908  12.655
77702W        W50127   2.954  15.495   3.381
77703W        W50128  44.899  13.729   0.830
77704W        W50129  16.213  22.543   2.094
77705W        W50130  24.184  19.368   4.972
77706W        W50131  35.664  17.073   2.334
77707W        W50132   0.041  33.655   0.402
77708W        W50133   6.314  12.842   2.251
77709W        W50134  35.397  35.655  11.403
77710W        W50135  32.101  22.525  11.512
77711W        W50136  29.850  35.032  13.847
77712W        W50137   7.192  34.516   5.027
77713W        W50138   4.761  17.039  10.971
77714W        W50139  43.774  31.978  14.676
77715W        W50140  30.388  42.069   2.329
77716W        W50141   3.956  34.406   0.308
77717W        W50142   8.812  27.211  10.415
77718W        W50143  30.123  42.379   0.451
77719W        W50144  33.010   6.698   2.793
77720W        W50145  20.097   3.751   4.530
77721W        W50146   8.347   4.277   2.654
77722W        W50147  15.618  36.891   2.800
77723W        W50148   4.183  24.047  12.527
77724W        W50149  27.146  38.040   5.046
77725W        W50150  42.349  42.775  14.182
77726W        W50151   3.842   7.790  13.179
77727W        W50152  24.498   1.538   4.165
77728W        W50153   3.707  36.121   5.059
77729W        W50154  26.196  23.148  14.391
77730W        W50155  37.550  14.645  11.427
77731W        W50156  18.602  44.713  13.488
77732W        W50157   2.230  35.539  11.517
77733W        W50158  25.143   1.532  10.824
77734W        W50159  41.468  37.882  14.484
77735W        W50160   3.939  15.295  14.693
77736W        W50161   6.626   9.128  12.108
77737W        W50162  35.785  27.868   1.230
77738W        W50163  35.057  15.707   3.140
77739W        W50164  36.869   8.171   1.660
77740W        W50165  27.102  22.080   3.092
77741W        W50166  12.849  14.369   0.430
77742W        W50167  11.675  39.652   1.943
77743W        W50168   8.876  42.231  12.676
77744W        W50169  34.057  20.826   0.082
77745W        W50170  42.599  44.516   1.912
77746W        W50171  35.325  18.259   4.780
77747W        W50172  21.613  11.545  10.550
77748W        W50173  28.904  36.995   0.679
77749W        W50174  41.144  44.026   4.120
77750W        W50175  17.959  33.396  12.865
77751W        W50176  10.180  27.562  14.674
77752W        W50177  29.998   4.001  14.106
77753W        W50178  20.981   4.565   1.409
77754W        W50179  11.596  37.079   1.134
77755W        W50180   6.655   1.635   2.640
77756W        W50181  37.584  21.042  10.194
77757W        W50182  39.843  12.620   2.348
77758W        W50183  11.046  28.583   0.200
77759W        W50184   0.931  43.422   0.762
77760W        W50185  44.469  42.453  13.304
77761W        W50186  41.777  17.264  10.645
77762W        W50187   4.771  15.251   2.324
77763W        W50188  29.390  37.674   4.133
77764W        W50189  32.912  32.020   3.112
77765W        W50190  36.996   6.395   4.086
77766W        W50191  31.474  27.387  12.339
77767W        W50192   4.378  18.489  13.137
77768W        W50193  11.818   4.306   1.783
77769W        W50194  30.916  26.047   4.712
77770W        W50195  31.513  23.223   1.981
77771W        W50196   8.908  30.419  11.534
77772W        W50197  30.040  18.643  14.319
77773W        W50198   5.932   9.962   2.200
77774W        W50199  29.346   1.439  13.527
77775W        W50200  39.278  37.829  14.877
77776W        W50201  13.360   6.284  10.272
77777W        W50202  41.892  11.891   2.711
77778W        W50203  31.360  25.003  13.827
77779W        W50204  29.671  42.564   2.773
77780W        W50205  15.682   5.906  13.495
77781W        W50206  32.948   0.343   3.702
77782W        W50207  22.633  43.777  12.462
77783W        W50208  41.380  44.444   5.389
77784W        W50209   6.583   4.942   4.583
77785W        W50210   5.178  25.964   0.322
77786W        W50211  27.144  18.217  10.513
77787W        W50212   0.756  25.179   4.352
77788W        W50213  10.113   1.423  10.744
77789W        W50214   9.477   7.577  11.667
77790W        W50215  26.949  44.328  10.713
77791W        W50216   3.358  14.774   0.242
77792W        W50217  37.866  14.226  11.450
77793W        W50218  21.185  30.307  13.498
77794W        W50219  26.620  21.247  13.465
77795W        W50220  38.458   8.297   2.294
77796W        W50221  28.065  18.375  14.967
77797W        W50222   8.298  30.139   2.167
77798W        W50223  42.143  33.974   2.876
77799W        W50224   5.342  16.046  11.253
77800W        W50225  22.263  39.912  14.523
77801W        W50226  16.662  22.542  13.936
77802W        W50227  12.310  34.371   0.345
77803W        W50228  20.067   5.215  14.441
77804W        W50229  23.753   6.883  14.887
77805W        W50230  43.368  37.089   4.431
77806W        W50231  14.795  16.731  11.192
77807W        W50232  24.671  30.833   1.730
77808W        W50233  40.681  33.363   3.045
77809W        W50234  34.415  33.410   0.393
77810W        W50235  24.107  21.375   9.918
77811W        W50236  25.309  16.335   0.531
77812W        W50237  28.676  18.621  13.002
77813W        W50238  19.450  23.553   0.129
77814W        W50239  43.995  35.834  13.926
77815W        W50240  20.220  12.834   2.014
77816W        W50241   5.327  12.450  11.296
77817W        W50242  40.920   8.540  11.577
77818W        W50243  35.550   6.980   0.369
77819W        W50244  17.998  43.024  13.861
77820W        W50245  42.535  19.308  11.500
77821W        W50246   8.792   7.680  13.913
77822W        W50247  15.505  28.718  14.966
77823W        W50248  37.487  23.276  10.130
77824W        W50249   7.799  23.245  12.711
77825W        W50250  30.817  16.065   0.389
77826W        W50251  17.594   3.951  11.017
77827W        W50252   8.735  35.403  11.146
77828W        W50253  31.049  43.645   3.585
77829W        W50254  30.942  10.124  11.944
77830W        W50255   2.505  15.822  13.460
77831W        W50256  36.782  16.763  11.173
77832W        W50257  43.114  40.736   2.716
77833W        W50258  21.566   5.694   4.090
77834W        W50259  11.119  26.781  13.352
77835W        W50260  36.726  39.030  13.078
77836W        W50261   9.954  35.348  10.700
77837W        W50262  28.423  40.396  11.662
77838W        W50263  41.205  11.722   5.022
77839W        W50264  34.799  11.662  11.495
77840W        W50265  36.828  26.039   1.255
77841W        W50266   2.473  15.269  12.173
77842W        W50267  34.109   0.464   4.137
77843W        W50268  27.411  38.576   3.463
77844W        W50269  10.241  16.331  13.399
77845W        W50270  29.467  14.209   2.971
77846W        W50271  13.659  15.899   0.314
77847W        W50272  33.906   7.251  11.436
77848W        W50273  38.992  33.047   1.119
77849W        W50274  32.521  18.183  11.919
77850W        W50275   1.164  34.036   2.777
77851W        W50276  31.952  26.502   4.280
77852W        W50277  18.027  28.758   1.458
77853W        W50278   2.901  36.921   2.808
77854W        W50279  24.440  37.428  13.436
77855W        W50280  30.419  36.900   1.193
77856W        W50281  15.009   5.882  12.427
77857W        W50282  19.630  40.479  14.931
77858W        W50283  37.964   2.215   2.278
77859W        W50284   0.564   4.218  13.019
77860W        W50285   8.262  44.676  12.203
77861W        W50286  12.332   2.233  11.593
77862W        W50287  32.687   4.251  13.941
77863W        W50288  27.063  36.104   1.848
77864W        W50289   8.263  29.605  10.683
77865W        W50290   4.655  38.266  10.393
77866W        W50291  40.661  33.046   4.239
77867W        W50292  19.558  18.963  11.106
77868W        W50293  11.071   2.264   0.412
77869W        W50294  27.056  33.844   2.092
77870W        W50295  23.203  15.349   1.899
77871W        W50296  34.034  11.776   4.148
77872W        W50297  30.188  23.105  10.763
77873W        W50298  25.106  31.878  13.845
77874W        W50299  15.609  16.781  12.589
77875W        W50300  31.860  14.036  12.517
77876W        W50301  42.832  14.515  14.955
77877W        W50302   5.711  32.170  11.304
77878W        W50303  31.604   0.227  12.961
77879W        W50304  36.114  35.052  10.687
77880W        W50305  41.833  31.170  13.426
77881W        W50306  42.592  40.342  14.409
77882W        W50307  34.522  19.927  14.956
77883W        W50308   4.948   1.275   2.615
77884W        W50309  35.672  34.580   1.272
77885W        W50310  40.090  19.305   3.190
77886W        W50311  44.323   6.601   1.002
77887W        W50312  41.046  30.159   1.690
77888W        W50313  39.848  27.192   3.190
77889W        W50314  41.368  21.417   4.749
77890W        W50315   0.668   6.936  13.060
77891W        W50316  20.636   6.248   0.003
77892W        W50317   1.352  14.269  14.037
77893W        W50318  23.687  10.317  12.416
77894W        W50319  44.334  33.638   4.110
77895W        W50320   3.138  16.677   0.956
77896W        W50321  29.603  13.134   3.834
77897W        W50322  12.827  15.209  11.281
77898W        W50323  10.462  20.267   2.435
77899W        W50324   9.974  25.862   2.040
77900W        W50325  34.851  23.704   3.691
77901W        W50326  11.194  28.388   3.971
77902W        W50327  26.663  10.899   1.190
77903W        W50328  13.635   7.421   1.259
77904W        W50329  20.565  28.158   3.702
77905W        W50330  10.518  27.728   5.012
77906W        W50331  24.745  34.996  12.466
77907W        W50332  14.119  27.608   2.877
77908W        W50333  40.190  40.717   4.108
77909W        W50334  34.466  36.465  12.191
77910W        W50335  22.419  39.033  13.276
77911W        W50336  32.196   1.811   0.286
77912W        W50337  28.558  35.652  14.798
77913W        W50338  41.350  37.852   2.322
77914W        W50339  22.098  38.258  13.473
77915W        W50340  19.811   0.499  12.937
77916W        W50341  39.963  17.944   4.386
77917W        W50342  44.963  14.694  14.502
77918W        W50343   6.757   4.049   3.968
77919W        W50344  28.855  41.291  11.385
77920W        W50345   5.344  28.710  13.952
77921W        W50346  15.123  24.579  14.259
77922W        W50347  26.925  17.707   0.981
77923W        W50348   0.681  34.867  11.251
77924W        W50349  14.539  35.482   0.488
77925W        W50350  14.681  28.410   4.119
77926W        W50351  39.053  35.527  12.533
77927W        W50352  22.896  13.861  13.116
77928W        W50353  18.636  20.243  10.923
77929W        W50354  40.432  39.426  13.836
77930W        W50355   9.532  10.939   1.902
77931W        W50356  39.882  42.502   5.059
77932W        W50357  19.862   3.032  14.559
77933W        W50358  23.879  23.099  14.433
77934W        W50359   0.558  16.317  12.358
77935W        W50360  31.121  27.472   4.360
77936W        W50361  25.181  31.038  11.107
77937W        W50362  41.235  34.481  10.694
77938W        W50363  27.656  34.183   3.775
77939W        W50364  11.142  33.897   4.605
77940W        W50365  44.080  28.162   3.128
77941W        W50366   2.277  11.623  11.078
77942W        W50367  31.256   9.239  13.790
77943W        W50368  30.422  14.547  11.620
77944W        W50369  30.590  20.598  13.094
77945W        W50370  29.417   8.214  13.420
77946W        W50371   8.203   0.517   4.544
77947W        W50372   6.325  41.338   3.249
77948W        W50373  38.280   9.181  13.837
77949W        W50374  32.152  13.808  14.030
77950W        W50375  18.640   4.053  13.945
77951W        W50376  27.859  42.484   2.459
77952W        W50377  12.770  29.547   1.203
77953W        W50378  37.425  35.630  12.035
77954W        W50379  41.588  36.971   4.439
77955W        W50380  11.362  25.657   1.410
77956W        W50381  43.059  37.608   5.065
77957W        W50382  26.738  12.698   2.776
77958W        W50383  27.694  28.199   4.102
77959W        W50384  36.617  14.661  10.929
77960W        W50385  26.754  15.154  12.023
77961W        W50386  29.515  14.126  14.091
77962W        W50387  40.229  18.865   2.337
77963W        W50388  23.795   9.690   1.747
77964W        W50389  37.588  41.271   4.734
77965W        W50390  13.756  13.605  14.554
77966W        W50391   9.794  10.690  11.537
77967W        W50392  11.224  38.276   3.310
77968W        W50393  30.181  36.288   1.377
77969W        W50394  13.335   3.916  12.966
77970W        W50395  40.588  27.120  13.372
77971W        W50396  33.854   3.936  11.660
77972W        W50397  30.402   8.596   2.796
77973W        W50398  22.208   3.312   2.350
77974W        W50399  37.080  18.614   3.170
77975W        W50400   6.342  41.727   3.598
77976W        W50401   8.838  37.376   4.224
77977W        W50402   4.051  27.987  14.793
77978W        W50403  21.790   3.820  14.738
77979W        W50404  18.510  36.516  11.984
77980W        W50405  38.590  18.690   0.328
77981W        W50406  37.396  42.901  12.339
77982W        W50407  28.106  40.277  13.850
77983W        W50408  39.796  25.041  13.467
77984W        W50409  17.194  42.159  12.553
77985W        W50410  10.341  34.871   0.234
77986W        W50411  42.522  28.057  13.875
77987W        W50412   5.068  39.637  14.542
77988W        W50413  17.038  37.521   2.742
77989W        W50414   3.416  14.121   4.197
77990W        W50415  29.885   1.857  12.517
77991W        W50416  24.169  33.045  10.669
77992W        W50417  22.271  27.296  11.128
77993W        W50418  42.416  26.304   2.254
77994W        W50419  28.070  40.024  11.069
77995W        W50420   7.025  35.373   5.411
77996W        W50421  43.289  32.025  12.985
77997W        W50422  37.580  37.324  11.696
77998W        W50423   7.748   7.918  10.746
77999W        W50424  33.908   8.837  14.028
78000W        W50425  27.765   8.559  14.801
78001W        W50426  32.261  36.358   3.620
78002W        W50427   0.873  35.930   2.475
78003W        W50428  11.790  14.292  13.965
78004W        W50429   6.429  36.371   0.801
78005W        W50430   0.727   8.834  14.824
78006W        W50431  13.331  14.846   1.363
78007W        W50432  38.954  24.492   2.122
78008W        W50433   3.781  39.786  10.474
78009W        W50434   5.864  40.543  10.979
78010W        W50435   8.847  13.806   4.220
78011W        W50436  38.424   9.405  14.920
78012W        W50437  24.422   2.806   0.427
78013W        W50438  36.559  13.165  13.472
78014W        W50439  38.985  28.684   0.197
78015W        W50440  13.772  32.586   4.302
78016W        W50441  42.847  18.409   4.493
78017W        W50442  14.361  13.983  10.373
78018W        W50443  44.326  32.541   0.038
78019W        W50444  27.820  32.770  11.539
78020W        W50445   9.212  26.480  13.520
78021W        W50446  32.959  32.138   1.394
78022W        W50447  16.621  11.357  11.509
78023W        W50448  36.016  14.112  12.405
78024W        W50449  10.140  36.879  11.559
78025W        W50450  21.174   5.242  14.810
78026W        W50451  19.540  44.873  10.992
78027W        W50452  23.555  18.322   4.245
78028W        W50453  39.897  37.285  14.912
78029W        W50454   5.422  31.168  13.562
78030W        W50455  30.264  35.394   1.238
78031W        W50456  33.758  29.685  13.860
78032W        W50457  43.398  32.878   2.816
78033W        W50458   3.014  38.052   1.818
78034W        W50459  16.743  10.403   0.234
78035W        W50460  44.344  23.003  10.702
78036W        W50461  14.280   2.377   4.153
78037W        W50462  38.709   0.007   5.040
78038W        W50463  43.471   5.187  10.433
78039W        W50464  13.881  21.650   5.526
78040W        W50465  44.989  23.640  11.195
78041W        W50466  44.327  12.885   3.367
78042W        W50467  44.628  28.120   3.215
78043W        W50468  13.511   9.175  12.012
78044W        W50469  21.456  29.915  14.040
78045W        W50470  34.715   8.824   3.228
78046W        W50471   0.961  14.678   3.239
78047W        W50472  13.309  15.634   0.032
78048W        W50473   8.326  36.052   3.985
78049W        W50474  32.139  20.594   0.586
78050W        W50475  25.121   6.962   3.346
78051W        W50476   9.819  24.922   4.705
78052W        W50477  19.063  26.449   2.369
78053W        W50478  32.654  41.407  14.935
78054W        W50479  18.108  14.652  12.333
78055W        W50480  39.904  15.395  11.578
78056W        W50481  15.437  24.111  10.019
78057W        W50482  25.146   8.834  14.735
78058W        W50483  41.755  26.021  13.885
78059W        W50484  43.130  35.293   3.692
78060W        W50485  11.225  38.589  12.488
78061W        W50486   6.480  31.311   0.242
78062W        W50487  42.264  23.821  11.937
78063W        W50488  43.741  39.517  14.461
78064W        W50489  27.522  35.717  13.798
78065W        W50490  37.311  14.815   4.496
78066W        W50491  17.101  18.109   1.244
78067W        W50492  13.301   3.370   2.289
78068W        W50493  39.844  29.667  11.395
78069W        W50494  42.226  18.251   4.057
78070W        W50495  21.361  12.474   4.628
78071W        W50496  29.025   3.105  13.944
78072W        W50497  40.626   6.698   2.134
78073W        W50498  32.451  40.856   0.974
78074W        W50499  43.318   0.043  13.294
78075W        W50500  27.511  40.018  10.863
78076W        W50501  10.698   3.152  11.546
78077W        W50502  28.051   2.992  13.387
78078W        W50503  31.179  43.910  10.383
78079W        W50504  24.172  35.174   4.597
78080W        W50505   1.999  42.605  11.090
78081W        W50506   9.663  26.868  10.623
78082W        W50507  14.429  34.308  11.193
78083W        W50508  14.227   7.078   3.381
78084W        W50509  40.347  17.036  10.983
78085W        W50510  34.780  13.023  14.745
78086W        W50511  43.468  24.065   2.572
78087W        W50512  18.618   7.159   2.821
78088W        W50513   7.328  13.327  11.213
78089W        W50514  30.456  26.872   1.200
78090W        W50515  32.945  35.954  12.934
78091W        W50516  11.745   5.350   1.307
78092W        W50517  41.823  33.686  11.092
78093W        W50518  11.841  13.857  13.019
78094W        W50519  39.399  44.441  13.995
78095W        W50520  19.990  38.459   0.304
78096W        W50521  37.456   8.089   4.534
78097W        W50522  36.966   1.202   1.253
78098W        W50523  39.442  24.017  14.531
78099W        W50524  23.254  27.618   1.025
78100W        W50525  36.085  34.570  13.417
78101W        W50526  34.578  35.066  12.065
78102W        W50527  16.779  38.537   3.239
78103W        W50528  16.142  13.789   4.179
78104W        W50529   6.252  17.784   1.864
78105W        W50530  15.839  31.898   2.270
78106W        W50531  36.757  39.276  11.664
78107W        W50532  29.694   5.734  13.451
78108W        W50533  15.399   0.953  14.112
78109W        W50534  22.160   1.407   3.729
78110W        W50535  11.341  12.601   2.716
78111W        W50536  29.556   6.720  13.360
78112W        W50537  26.011  42.422   1.415
78113W        W50538   9.258  28.158  11.083
78114W        W50539   3.308  13.704  13.367
78115W        W50540  34.423  32.478   1.485
78116W        W50541  19.761  15.419   1.213
78117W        W50542  20.788   7.189  12.654
78118W        W50543  42.577  16.374  11.066
78119W        W50544   0.601  34.651   4.096
78120W        W50545   1.515  27.961   1.323
78121W        W50546   2.740  39.207  12.526
78122W        W50547  42.606   7.852   2.720
78123W        W50548  42.971  18.569   3.824
78124W        W50549  30.597  13.291  10.689
78125W        W50550  37.440  17.132  12.409
78126W        W50551  40.539  44.729  10.613
78127W        W50552  13.583   7.363  12.529
78128W        W50553   4.855  40.655  14.935
78129W        W50554   3.840  33.145  12.490
78130W        W50555  33.579  27.695   1.927
78131W        W50556   0.029  15.332  11.081
78132W        W50557   3.193  40.467   3.846
78133W        W50558  15.087  25.018  13.916
78134W        W50559   0.215  42.794  14.338
78135W        W50560  29.703   0.832   3.151
78136W        W50561  25.200  18.264   1.374
78137W        W50562  31.094  43.689   2.517
78138W        W50563  22.221  16.057  14.036
78139W        W50564  19.527  21.774   2.241
78140W        W50565  21.661   1.470   4.609
78141W        W50566  17.246  10.130   9.956
78142W        W50567  34.401   3.268   1.449
78143W        W50568  39.592  23.722  11.976
78144W        W50569   2.757  38.917   0.203
78145W        W50570  44.131  26.834  14.347
78146W        W50571  25.596  17.502  14.814
78147W        W50572  20.558  41.758  11.932
78148W        W50573  28.667  41.069  13.464
78149W        W50574  11.157  24.835   3.096
78150W        W50575  37.382  14.809   3.985
78151W        W50576   6.289  20.190  11.528
78152W        W50577  39.378   7.896  12.866
78153W        W50578  33.357  26.576  13.521
78154W        W50579  37.304  10.108   3.665
78155W        W50580   2.457  16.128  10.355
78156W        W50581   3.419   6.676  10.393
78157W        W50582  30.174  26.415  12.904
78158W        W50583  24.450  27.097  14.386
78159W        W50584  30.230  35.780   1.601
78160W        W50585  31.507  11.660   3.566
78161W        W50586  42.305  21.460  14.321
78162W        W50587  21.790  25.012  12.857
78163W        W50588  22.572  41.225  12.152
78164W        W50589  16.583  10.069  10.886
78165W        W50590   5.235  34.040  14.804
78166W        W50591  13.628   0.263   1.763
78167W        W50592  17.210  15.567   0.482
78168W        W50593   0.079   2.760   4.874
78169W        W50594  13.370   7.869   2.355
78170W        W50595  18.330  27.956  13.060
78171W        W50596  26.132  21.461  14.415
78172W        W50597  28.826  32.397   1.872
78173W        W50598  21.323  34.950   2.853
78174W        W50599  22.130  12.647  12.105
78175W        W50600   3.821  20.557   3.212
78176W        W50601  15.021  31.041  12.416
78177W        W50602  20.306   1.853   3.741
78178W        W50603  17.665  25.098   2.731
78179W        W50604  27.099   0.193   3.118
78180W        W50605   1.032   2.353   0.991
78181W        W50606  30.377  19.381  14.956
78182W        W50607   8.681  29.337   2.160
78183W        W50608  21.848  38.656  14.813
78184W        W50609   4.160  35.466   1.932
78185W        W50610  17.135  22.723  12.794
78186W        W50611  44.481   3.315   4.196
78187W        W50612  12.695  27.166   4.702
78188W        W50613  10.384  23.715  12.978
78189W        W50614  37.163   2.110   2.609
78190W        W50615  10.756  14.276  14.061
78191W        W50616  43.654   3.800   1.239
78192W        W50617  26.498   7.823   1.018
78193W        W50618  23.568   6.698   4.588
78194W        W50619  12.782   8.757   1.168
78195W        W50620   9.981  14.982  14.426
78196W        W50621   5.217  34.092  10.439
78197W        W50622  22.351  30.975   4.302
78198W        W50623  27.453  42.261  14.875
78199W        W50624  32.023  44.501   5.135
78200W        W50625  20.521   2.840  11.038
78201W        W50626  16.132  23.030   1.854
78202W        W50627   7.714  18.751   3.466
78203W        W50628  12.139   2.191  14.353
78204W        W50629  16.417  15.117  12.172
78205W        W50630  21.555  36.336   3.677
78206W        W50631  23.720  29.024  13.425
78207W        W50632  35.567  28.612   0.023
78208W        W50633  43.739   1.316   3.666
78209W        W50634  21.237  41.877  14.005
78210W        W50635   2.410   4.413   2.300
78211W        W50636  18.974  11.773   3.260
78212W        W50637   1.678  19.578  11.918
78213W        W50638   6.225   7.132  11.562
78214W        W50639  16.225   7.223   4.676
78215W        W50640   0.812   0.513   2.757
78216W        W50641   6.744  24.784  13.934
78217W        W50642  44.336  25.252  14.463
78218W        W50643   7.794  41.182  11.499
78219W        W50644  30.610  32.513   3.418
78220W        W50645  38.830  27.381   2.397
78221W        W50646  43.096  36.936  12.856
78222W        W50647  35.503  10.363   3.363
78223W        W50648  42.935  33.010   3.545
78224W        W50649  42.032  36.783   1.335
78225W        W50650  10.106   0.834  13.488
78226W        W50651  34.464  23.088   0.002
78227W        W50652   2.875  11.333   2.853
78228W        W50653  41.288  40.901  12.391
78229W        W50654  19.190  14.191   1.477
78230W        W50655  37.902  14.299   2.321
78231W        W50656  26.382  39.974  14.853
78232W        W50657  11.849  35.476   0.397
78233W        W50658  19.980  20.735   3.339
78234W        W50659  14.502  40.869   4.250
78235W        W50660  41.109  24.247  11.102
78236W        W50661   7.956  24.434  14.834
78237W        W50662  37.163   1.896  12.559
78238W        W50663  27.358  43.385   4.535
78239W        W50664   6.890  10.749  12.901
78240W        W50665   7.692   6.242  14.226
78241W        W50666  24.900  27.154   4.507
78242W        W50667   2.345  21.901  11.557
78243W        W50668  14.679  12.743  12.828
78244W        W50669   4.422  23.452  11.948
78245W        W50670  21.295  43.000  13.761
78246W        W50671  23.233  32.927  12.894
78247W        W50672  37.836  42.055   0.285
78248W        W50673  28.121  37.858   3.203
78249W        W50674  18.806  14.593  10.980
78250W        W50675  24.607  35.539  14.340
78251W        W50676   9.415  37.557   1.224
78252W        W50677   2.358  26.757   4.139
78253W        W50678  13.303  26.576   4.056
78254W        W50679   5.626  42.787   4.136
78255W        W50680  42.508  36.948   1.278
78256W        W50681  42.546  19.199  13.371
78257W        W50682   0.963  42.132  11.810
78258W        W50683  38.867  12.062  13.548
78259W        W50684  33.452  14.315   2.242
78260W        W50685  32.044  37.292   3.127
78261W        W50686  35.060  13.364   1.885
78262W        W50687  12.170  13.236  13.439
78263W        W50688  11.875  18.645  12.413
78264W        W50689  16.334  42.634  13.374
78265W        W50690  40.548   4.680  11.676
78266W        W50691  32.658  20.408  12.189
78267W        W50692   6.752  23.684  14.926
78268W        W50693  21.353  10.362   5.525
78269W        W50694  35.642   5.486   4.613
78270W        W50695  19.285   9.782  14.701
78271W        W50696  25.448   8.729   3.089
78272W        W50697   9.148  16.968  14.325
78273W        W50698   7.445  11.068   2.243
78274W        W50699   4.876  24.706   0.856
78275W        W50700   7.226  19.723   0.772
78276W        W50701  19.279  30.339   3.959
78277W        W50702   3.032   4.892  12.999
78278W        W50703   3.677  27.056  13.376
78279W        W50704  18.075  11.174  11.609
78280W        W50705  43.745  29.027  10.613
78281W        W50706  16.902   0.654   3.271
78282W        W50707  43.457  29.360  11.480
78283W        W50708  18.488   8.182  10.909
78284W        W50709  34.377  12.343  14.441
78285W        W50710   9.341   2.218  13.513
78286W        W50711  43.387   3.055   1.410
78287W        W50712  12.574  11.074   4.566
78288W        W50713  30.659  26.703   4.522
78289W        W50714  32.114  23.017   0.287
78290W        W50715  16.368  19.297  12.555
78291W        W50716  44.926  42.830   1.933
78292W        W50717  15.767  12.231   2.410
78293W        W50718   3.893  29.371   1.847
78294W        W50719  40.950  20.180   3.702
78295W        W50720   6.971  23.633   0.997
78296W        W50721   5.941  33.405  14.853
78297W        W50722   8.728  24.723   0.393
78298W        W50723   3.120  14.812   1.897
78299W        W50724  33.060  33.148  12.441
78300W        W50725  19.236  11.393  12.949
78301W        W50726  31.515  20.773  13.233
78302W        W50727   7.863  39.836  11.276
78303W        W50728  32.122   6.471   1.416
78304W        W50729  37.320  35.062   2.286
78305W        W50730  14.579  16.025  11.953
78306W        W50731  37.348   7.687  12.948
78307W        W50732  15.737   6.899  12.565
78308W        W50733   1.424  37.123   0.742
78309W        W50734  33.632  31.367   1.105
78310W        W50735  27.151  35.993  14.058
78311W        W50736  16.302   9.911   4.191
78312W        W50737  37.412  36.630   1.358
78313W        W50738  24.321  19.102  12.346
78314W        W50739  29.198  32.483  14.324
78315W        W50740  28.492  38.009  10.537
78316W        W50741  25.072  11.368  14.637
78317W        W50742  19.333  15.696  14.928
78318W        W50743  23.140  27.509  13.359
78319W        W50744  39.101  34.545   2.384
78320W        W50745  25.558   8.672  10.987
78321W        W50746   9.203  40.592  12.469
78322W        W50747  37.380  43.409   0.579
78323W        W50748  24.273   4.509  12.833
78324W        W50749  16.722  16.704  12.481
78325W        W50750   0.300  25.882  14.889
78326W        W50751   4.447   0.174  12.827
78327W        W50752  32.007  31.588   3.373
78328W        W50753  31.774  12.075  13.923
78329W        W50754   3.321  43.543   3.301
78330W        W50755   5.266  24.454   2.674
78331W        W50756  24.644  39.143  13.103
78332W        W50757  44.014  41.745   0.268
78333W        W50758   5.451   5.077   3.791
78334W        W50759  10.422  23.939  10.426
78335W        W50760  35.006  16.302   0.460
78336W        W50761  15.266   1.248   5.401
78337W        W50762  10.078  12.980   1.205
78338W        W50763  11.719   7.864  12.120
78339W        W50764  37.140  17.089   3.647
78340W        W50765  28.670  10.149  14.801
78341W        W50766  36.926  27.724  13.402
78342W        W50767  42.783   9.909   5.033
78343W        W50768  33.373  12.588   5.053
78344W        W50769  10.847  44.766   1.609
78345W        W50770  40.225  19.150  11.656
78346W        W50771  23.862  14.238  12.026
78347W        W50772  42.215  37.194  11.167
78348W        W50773  30.475  31.489  14.951
78349W        W50774   3.349  31.018   4.086
78350W        W50775  30.577  41.933  13.260
78351W        W50776  38.269  16.325  14.733
78352W        W50777  32.999   0.455   2.781
78353W        W50778  28.438  27.414  12.485
78354W        W50779   6.117  27.628   3.307
78355W        W50780  20.275   5.932   0.218
78356W        W50781   8.704  27.097  10.927
78357W        W50782   8.582  19.266  14.127
78358W        W50783   5.244  24.992   1.224
78359W        W50784  20.661  37.055  11.760
78360W        W50785  14.249  29.419  11.091
78361W        W50786  31.789  29.446  11.024
78362W        W50787   1.560  18.687   2.628
78363W        W50788   6.730  17.122  11.145
78364W        W50789  11.863  15.127   3.370
78365W        W50790  13.326   7.696   2.867
78366W        W50791  32.576  36.194   0.549
78367W        W50792  36.657   0.330  10.955
78368W        W50793  23.115  12.256  11.181
78369W        W50794  35.352  27.844  13.921
78370W        W50795   5.966  43.806   2.476
78371W        W50796  13.222   3.258   4.131
78372W        W50797   1.453  33.596   2.694
78373W        W50798  23.149  25.292  13.898
78374W        W50799   2.193   3.729  13.386
78375W        W50800  35.818  31.951  14.579
78376W        W50801  11.160  11.139   3.450
78377W        W50802  43.190  27.665  11.073
78378W        W50803  35.982  22.074   0.695
78379W        W50804   7.391  10.341  10.196
78380W        W50805  39.863   1.337  13.846
78381W        W50806  13.783   9.614   0.473
78382W        W50807  13.325  14.327   1.257
78383W        W50808   4.732  37.307  14.258
78384W        W50809   2.944   2.918  12.391
78385W        W50810  11.310  35.282   1.852
78386W        W50811  31.086  23.210   3.418
78387W        W50812   1.205  34.370  11.843
78388W        W50813  23.723   9.877  10.618
78389W        W50814  40.408  16.444  10.764
78390W        W50815  37.879   3.327  11.852
78391W        W50816  39.740  19.074   3.610
78392W        W50817  12.375  44.735   3.339
78393W        W50818   7.483  16.764  13.957
78394W        W50819  34.582  25.157  12.968
78395W        W50820   1.357  11.850  10.598
78396W        W50821   3.205  28.987   4.037
78397W        W50822  24.960  24.838   0.925
78398W        W50823   4.765   9.980   4.480
78399W        W50824  17.374   2.929   2.228
78400W        W50825  44.333   0.024   1.284
78401W        W50826   0.750  40.733  10.691
78402W        W50827  23.013   5.814  12.432
78403W        W50828  35.569  24.767   2.358
78404W        W50829  28.173   2.675  10.497
78405W        W50830  30.483   7.921  12.082
78406W        W50831  30.461  28.121  14.897
78407W        W50832  33.197  44.500  11.517
78408W        W50833  17.400  13.100  11.616
78409W        W50834   5.443  43.707  10.814
78410W        W50835   8.405  39.728   3.119
78411W        W50836  40.794  40.551  11.650
78412W        W50837  17.311  19.522   1.436
78413W        W50838  10.044  39.773  10.806
78414W        W50839  41.540  37.250  13.834
78415W        W50840   0.011  38.016  13.309
78416W        W50841  24.577   3.313  10.394
78417W        W50842  20.118  15.795   1.307
78418W        W50843   7.053  35.287  11.615
78419W        W50844  34.833  39.972   0.932
78420W        W50845  37.998  12.487  13.473
78421W        W50846  36.549  18.593   1.909
78422W        W50847  36.121  43.536   2.624
78423W        W50848  21.468  44.814   2.852
78424W        W50849  33.013  15.367   1.749
78425W        W50850  42.061  33.629   1.874
78426W        W50851   8.185  13.321  11.629
78427W        W50852  14.839  28.945   4.166
78428W        W50853  14.165  28.856   4.689
78429W        W50854  41.472  40.082   1.669
78430W        W50855   8.186  10.933   4.937
78431W        W50856  34.590  27.665   2.001
78432W        W50857   6.981  34.997  14.644
78433W        W50858   5.672  24.642   0.317
78434W        W50859   9.095  28.558  11.367
78435W        W50860  14.499  11.683  12.934
78436W        W50861   1.293  26.172   4.921
78437W        W50862  43.789  40.396   0.921
78438W        W50863  39.202  24.194  12.070
78439W        W50864  38.987  17.756   0.542
78440W        W50865  23.312   8.006   1.524
78441W        W50866  21.103  32.878   4.745
78442W        W50867   4.427   7.693  12.433
78443W        W50868   2.330  42.620  14.872
78444W        W50869  27.175   9.783  10.480
78445W        W50870  12.889  44.299   0.859
78446W        W50871   8.219  32.533   2.556
78447W        W50872  36.916  24.295   0.032
78448W        W50873   4.369   7.078   4.553
78449W        W50874  25.416  34.626   2.739
78450W        W50875  25.569  43.333  10.450
78451W        W50876  15.313  20.827  11.431
78452W        W50877  29.291  35.910   2.295
78453W        W50878  41.551  42.122  14.943
78454W        W50879  13.132  30.676   1.788
78455W        W50880   6.404  38.379   2.212
78456W        W50881  19.415  11.150  11.108
78457W        W50882  10.345  42.610   0.467
78458W        W50883   7.160  12.176  13.928
78459W        W50884  27.575  37.594   4.609
78460W        W50885  39.981  22.690  14.095
78461W        W50886  39.465  23.361  11.151
78462W        W50887  29.343  38.546   3.166
78463W        W50888   4.611  25.979  14.470
78464W        W50889  33.586   1.761  13.820
78465W        W50890  14.631  28.886   3.160
78466W        W50891  40.507  34.300   2.745
78467W        W50892  18.424  12.390   4.797
78468W        W50893  22.571  41.713   1.136
78469W        W50894  25.200   0.702  13.001
78470W        W50895  43.382  30.351   4.663
78471W        W50896  32.861  16.039  12.444
78472W        W50897  26.030  36.227  14.830
78473W        W50898  43.635  33.935  13.429
78474W        W50899   7.073  31.394   4.195
78475W        W50900  39.613  39.646  10.992
78476W        W50901  13.660  12.846   2.775
78477W        W50902  21.816   6.755   2.256
78478W        W50903  17.308   8.182  11.627
78479W        W50904  36.956   6.518  13.860
78480W        W50905  34.779  42.370   1.457
78481W        W50906  29.958   0.692  14.618
78482W        W50907  23.995  37.640  11.965
78483W        W50908   3.846  14.746  12.542
78484W        W50909   6.520   9.312   2.092
78485W        W50910  16.330  17.527  12.420
78486W        W50911  29.511  16.679  13.560
78487W        W50912  13.765  25.043   9.855
78488W        W50913  42.249  32.180  14.577
78489W        W50914  28.268  27.697  14.437
78490W        W50915  19.200  24.550  13.058
78491W        W50916  18.693  29.173   2.194
78492W        W50917   4.313  26.914  14.952
78493W        W50918   2.853  31.618  13.984
78494W        W50919   7.477  14.295   3.987
78495W        W50920  16.587   2.029   0.805
78496W        W50921   0.365  28.865   3.278
78497W        W50922   2.880  24.911  14.807
78498W        W50923  30.993  41.364   3.723
78499W        W50924  13.605  31.324  10.365
78500W        W50925  43.033  29.174   3.871
78501W        W50926  24.226  13.238  10.672
78502W        W50927  13.115  43.868  13.418
78503W        W50928  43.911  16.174  14.743
78504W        W50929  33.534  28.459  12.430
78505W        W50930  17.250  27.179   1.911
78506W        W50931  40.493  30.126   4.513
78507W        W50932  26.343  10.240  13.388
78508W        W50933  27.186  21.821   4.579
78509W        W50934  31.553  15.030  11.420
78510W        W50935  32.376  15.163   4.088
78511W        W50936   1.555  31.452  14.802
78512W        W50937  42.250  31.194  11.100
78513W        W50938  26.959  32.423   5.357
78514W        W50939  21.281  33.532   4.622
78515W        W50940   2.378  30.515   3.791
78516W        W50941  16.539  11.834  12.365
78517W        W50942  36.054  37.957   0.924
78518W        W50943  15.586   0.217   4.179
78519W        W50944  11.567  20.649  10.648
78520W        W50945  28.212  27.200   0.708
78521W        W50946  14.811   7.830   2.215
78522W        W50947   0.893  17.044   0.864
78523W        W50948  30.043  32.216   9.896
78524W        W50949  23.432  40.951  12.036
78525W        W50950   4.332   6.384  12.163
78526W        W50951   9.695  24.742  12.418
78527W        W50952  14.187   0.322  13.295
78528W        W50953  39.345   5.204  10.557
78529W        W50954  27.454  19.364  13.396
78530W        W50955  12.282  40.071  10.472
78531W        W50956  10.335  36.424   4.069
78532W        W50957  29.000  44.357   0.441
78533W        W50958   0.689  41.607   3.601
78534W        W50959  24.805  24.121   0.396
78535W        W50960  19.989   1.450   4.825
78536W        W50961  32.254  28.692  13.772
78537W        W50962   9.672  30.489  14.868
78538W        W50963   0.301  16.830   1.232
78539W        W50964  13.777  36.974   2.866
78540W        W50965  24.289  43.810   2.188
78541W        W50966  35.728  23.980  13.851
78542W        W50967  14.501   1.824  10.802
78543W        W50968   8.373   6.841   2.282
78544W        W50969  19.146  11.825   2.302
78545W        W50970  33.046  42.003   2.399
78546W        W50971  23.000  15.853  13.522
78547W        W50972  29.624  20.228   3.928
78548W        W50973  15.126   3.322   0.888
78549W        W50974   7.841  43.914  12.524
78550W        W50975   3.004  30.647  13.915
78551W        W50976  22.291  15.171   4.341
78552W        W50977  12.029  18.034   0.436
78553W        W50978  16.786  15.296  12.924
78554W        W50979  13.271  41.154  13.457
78555W        W50980  24.694  20.793  11.901
78556W        W50981  13.952  16.398   4.118
78557W        W50982  42.432  43.230   4.981
78558W        W50983  14.689  37.583   2.839
78559W        W50984  36.529  22.742   0.796
78560W        W50985  43.457  24.246  14.964
78561W        W50986  11.903  30.859  14.837
78562W        W50987  43.964  37.357   1.383
78563W        W50988  41.408  15.276   3.783
78564W        W50989  29.504  41.588  13.728
78565W        W50990   1.438  10.057   1.955
78566W        W50991  19.735  17.077  11.580
78567W        W50992  17.216  25.338   3.848
78568W        W50993  38.462   5.264   2.767
78569W        W50994  20.511  33.821   4.057
78570W        W50995  20.571  24.122  12.884
78571W        W50996  29.465  29.224  14.779
78572W        W50997  11.361  14.672   0.296
78573W        W50998  17.187  39.453   0.219
78574W        W50999  29.962  23.243   3.662
78575W        W51000  25.248  19.709   3.737
78576W        W51001   2.072  12.691  13.254
78577W        W51002  29.495  11.690  13.982
78578W        W51003  17.146  29.269   3.278
78579W        W51004   9.853  17.007  11.722
78580W        W51005  30.472  39.073   2.944
78581W        W51006  25.833  17.538   4.871
78582W        W51007  38.085  39.592   0.489
78583W        W51008  35.882  43.386  11.534
78584W        W51009  15.741  18.851   0.911
78585W        W51010  33.379   2.501   2.461
78586W        W51011  12.516  33.072  14.968
78587W        W51012  30.177  11.313  11.680
78588W        W51013   4.701  30.303   1.926
78589W        W51014  31.132  15.211   4.513
78590W        W51015  39.413  13.984   1.800
78591W        W51016  31.961  12.356   3.968
78592W        W51017  14.844  40.340  14.341
78593W        W51018   6.836  13.769   1.276
78594W        W51019   4.806  13.417   2.791
78595W        W51020  25.163   4.037  13.520
78596W        W51021  38.420  17.848   1.293
78597W        W51022   5.496  34.441   3.802
78598W        W51023  28.072  31.696  12.017
78599W        W51024  12.506  12.487  12.123
78600W        W51025  26.699  23.246  14.090
78601W        W51026  29.472  34.839   3.815
78602W        W51027  34.549   0.374  10.934
78603W        W51028  43.504  40.309   4.502
78604W        W51029  18.985  12.116  12.492
78605W        W51030  23.445   7.136   2.106
78606W        W51031  40.291  15.315   1.710
78607W        W51032   1.267  18.491   0.372
78608W        W51033   3.859   6.489  12.806
78609W        W51034  19.056  30.442   4.419
78610W        W51035  16.530  41.225   1.214
78611W        W51036  33.186   9.686   3.295
78612W        W51037  18.666   0.488  13.794
78613W        W51038   8.792  29.911   4.185
78614W        W51039   2.641  32.806   0.771
78615W        W51040  34.834   5.823   1.355
78616W        W51041   4.802  43.839  13.585
78617W        W51042  21.580   5.994  11.020
78618W        W51043   2.757   6.720   0.919
78619W        W51044  15.574  24.815   3.240
78620W        W51045  29.785  11.624   0.289
78621W        W51046  42.428   8.378  14.004
78622W        W51047  18.040   8.426   0.011
78623W        W51048  28.763  34.093  12.048
78624W        W51049  34.455  29.268  12.129
78625W        W51050  15.323  37.869  12.724
78626W        W51051  23.252   9.268  12.282
78627W        W51052  22.545  41.034  13.829
78628W        W51053  11.593  41.557  11.096
78629W        W51054  38.827  14.406   3.958
78630W        W51055  30.925   5.895   2.647
78631W        W51056  41.578  35.973  14.492
78632W        W51057  36.977   0.655  13.975
78633W        W51058   8.606   2.853  11.216
78634W        W51059  36.104  38.482   0.817
78635W        W51060  18.235   3.099   1.884
78636W        W51061  14.691  17.869  12.495
78637W        W51062   3.852   9.762  14.451
78638W        W51063  20.790   7.513  13.551
78639W        W51064  13.530  17.117   3.584
78640W        W51065   4.850  23.207   0.118
78641W        W51066   5.589  41.446  11.147
78642W        W51067  41.999  20.945   4.229
78643W        W51068  36.434  34.204  11.684
78644W        W51069   9.711  13.770  14.404
78645W        W51070  37.593  39.992  14.429
78646W        W51071  15.530  31.100  11.955
78647W        W51072  21.175  21.326   4.342
78648W        W51073  15.716  35.048  12.140
78649W        W51074  31.005  20.831   3.924
78650W        W51075  29.042  41.381   2.370
78651W        W51076  25.750  23.287  11.563
78652W        W51077  42.308  43.805  12.417
78653W        W51078  34.583  35.198  13.944
78654W        W51079   8.295  23.197  11.912
78655W        W51080  25.478   7.608   5.076
78656W        W51081  38.987  38.663  13.010
78657W        W51082   0.362  24.246   2.850
78658W        W51083   0.415  41.727   1.717
78659W        W51084   3.184   3.183   2.483
78660W        W51085  42.887  21.436  13.023
78661W        W51086  38.519  16.688   3.222
78662W        W51087  31.376  35.423  13.359
78663W        W51088  36.254   9.336  13.738
78664W        W51089  40.683   0.688   3.313
78665W        W51090  19.014  12.298  10.724
78666W        W51091  28.750  38.085  13.285
78667W        W51092  12.955   1.289   4.046
78668W        W51093  16.864  26.168  10.377
78669W        W51094  36.372  41.317   0.852
78670W        W51095  10.644  18.539  11.277
78671W        W51096   4.706  37.526   3.926
78672W        W51097  42.307   1.471  12.078
78673W        W51098   1.676  25.003   4.533
78674W        W51099  19.711   7.667   4.651
78675W        W51100  34.554   3.894  14.057
78676W        W51101  33.494  39.453  14.995
78677W        W51102  24.496  25.692   2.769
78678W        W51103   8.403   5.634   2.387
78679W        W51104  12.781   0.702   2.715
78680W        W51105  38.911   3.318   3.982
78681W        W51106  16.800  42.913   4.043
78682W        W51107  29.611  10.886  13.422
78683W        W51108  30.387  36.906   4.473
78684W        W51109  20.288  37.350   3.354
78685W        W51110  13.328  13.046  13.852
78686W        W51111   4.707  27.471   0.315
78687W        W51112   9.793  16.796  10.335
78688W        W51113   3.960  17.434   4.013
78689W        W51114  42.917  44.813  10.564
78690W        W51115   3.862  20.677  14.346
78691W        W51116  23.990   1.512  12.046
78692W        W51117  26.706   5.381   3.058
78693W        W51118  20.064  27.935  13.365
78694W        W51119  21.649  42.739   3.771
78695W        W51120   7.273  10.752  14.748
78696W        W51121  42.145  34.202   0.384
78697W        W51122  28.907   1.418   1.710
78698W        W51123  30.132  41.990   4.563
78699W        W51124  27.308  24.458   0.723
78700W        W51125  31.464  37.991   2.720
78701W        W51126  35.575  33.130   1.964
78702W        W51127   6.719  34.391   3.253
78703W        W51128  17.006  19.604   1.026
78704W        W51129  44.504  21.017   0.845
78705W        W51130   8.189  37.058  10.026
78706W        W51131   3.358  43.757   4.663
78707W        W51132  43.075  17.015  11.425
78708W        W51133  42.496  12.769   1.221
78709W        W51134  20.778  29.985  11.724
78710W        W51135  21.608   5.188   0.418
78711W        W51136  27.111   3.368  13.942
78712W        W51137  41.806  22.563   0.555
78713W        W51138  12.924   6.666   3.344
78714W        W51139  36.599   3.907   1.307
78715W        W51140   7.388  43.947   4.523
78716W        W51141  31.754  32.660  13.783
78717W        W51142  17.218  17.417   4.789
78718W        W51143  40.148  44.823  10.271
78719W        W51144  24.494  37.083   0.914
78720W        W51145  32.443  10.262   3.123
78721W        W51146  34.125  30.955  13.470
78722W        W51147  28.582  35.050   4.559
78723W        W51148  14.574  24.521   4.680
78724W        W51149  42.541  32.557  14.239
78725W        W51150  26.617  20.844  11.112
78726W        W51151  14.607   8.046  11.521
78727W        W51152  34.948  41.236   3.318
78728W        W51153  30.985  18.065  13.155
78729W        W51154  12.384  42.496   0.841
78730W        W51155   8.803  16.485  12.489
78731W        W51156  34.207   9.407  10.712
78732W        W51157   7.248  32.699  13.433
78733W        W51158  36.151  17.231   2.282
78734W        W51159  19.252   3.207   3.341
78735W        W51160  17.529  26.591   0.377
78736W        W51161   8.691  42.878  11.681
78737W        W51162  21.505  11.947   0.470
78738W        W51163   6.313  29.397   3.649
78739W        W51164  31.236  36.042  11.137
78740W        W51165   9.175   6.024  12.988
78741W        W51166   4.150  38.991   0.307
78742W        W51167  42.495  12.624  11.363
78743W        W51168  14.546   6.138  10.022
78744W        W51169  31.353  16.988  12.471
78745W        W51170  13.795  22.524  11.417
78746W        W51171   1.852  24.037   4.642
78747W        W51172  30.208  38.145   3.172
78748W        W51173  16.863  36.250  14.020
78749W        W51174  25.126   0.862  10.995
78750W        W51175  35.671  36.015  11.670
78751W        W51176  41.060  22.028   2.943
78752W        W51177  11.594  12.901   9.661
78753W        W51178  31.558   0.211   1.634
78754W        W51179  41.299  18.533  11.630
78755W        W51180  43.308  31.007   0.367
78756W        W51181   5.663   2.189  14.556
78757W        W51182  23.532  29.019   3.055
78758W        W51183  28.417  33.727  12.100
78759W        W51184  26.089  41.930  13.893
78760W        W51185  42.513   6.966   0.407
78761W        W51186  38.100  34.454  13.855
78762W        W51187  10.422   4.972   4.283
78763W        W51188  39.793   3.366  13.326
78764W        W51189  37.384  24.197  10.586
78765W        W51190  31.769  26.814  14.293
78766W        W51191  23.666  33.030  10.800
78767W        W51192   9.658   6.937  14.913
78768W        W51193  36.857  19.809   0.877
78769W        W51194  34.468  20.063   3.609
78770W        W51195  31.010  19.361   3.059
78771W        W51196  43.389   8.878   3.125
78772W        W51197  41.320  16.076   4.290
78773W        W51198  30.049  41.317   0.935
78774W        W51199   6.369  35.866   1.433
78775W        W51200  26.096  19.586  13.218
78776W        W51201  38.371  35.463  14.381
78777W        W51202  21.570  36.834   1.296
78778W        W51203  24.952   2.316  13.774
78779W        W51204  27.584  17.631   0.059
78780W        W51205  14.805  17.289   3.722
78781W        W51206  17.268  15.115  11.613
78782W        W51207  26.091  41.792   2.685
78783W        W51208   5.071  41.591  13.493
78784W        W51209   6.434  40.509   0.494
78785W        W51210  14.901  41.036  13.932
78786W        W51211  14.266  36.520  13.421
78787W        W51212   1.325  28.335   3.184
78788W        W51213  41.355  21.667  12.973
78789W        W51214  22.420  37.317   4.123
78790W        W51215  31.039  27.436  12.602
78791W        W51216  30.924  16.710  14.427
78792W        W51217  39.368  15.226   4.952
78793W        W51218  23.179  21.075   3.646
78794W        W51219   0.314  40.094  11.725
78795W        W51220   1.735   4.447  14.397
78796W        W51221  34.532   2.977   4.084
78797W        W51222  32.152  24.621   1.419
78798W        W51223   5.218   1.674  12.564
78799W        W51224  32.103   6.016   3.938
78800W        W51225  33.025  11.662  13.420
78801W        W51226  25.963  44.455  14.542
78802W        W51227  36.969  24.185  10.267
78803W        W51228  29.506  26.923  11.891
78804W        W51229   4.917   6.844   2.406
78805W        W51230  40.898  35.626   1.428
78806W        W51231   4.261  22.675   1.644
78807W        W51232   1.315  36.313  10.800
78808W        W51233   3.256   6.441  11.075
78809W        W51234   6.983  15.858  13.800
78810W        W51235   9.519  14.667  13.775
78811W        W51236  30.967  36.523   3.176
78812W        W51237  35.101  41.662  11.066
78813W        W51238   0.783  32.957  10.139
78814W        W51239  29.141  31.843  13.537
78815W        W51240  25.537   6.887   1.409
78816W        W51241   1.248  36.971   0.272
78817W        W51242  29.152  39.352  14.909
78818W        W51243  37.808  25.709  13.364
78819W        W51244  36.107  31.565   3.450
78820W        W51245  31.105  33.291   1.175
78821W        W51246  15.115  36.863   2.491
78822W        W51247   1.536  23.705  12.490
78823W        W51248  39.272  33.574   1.725
78824W        W51249  40.520  42.415  13.848
78825W        W51250  27.162  37.658   0.998
78826W        W51251  29.598  29.673  10.897
78827W        W51252   4.873  18.670  14.449
78828W        W51253  25.928  34.664   2.875
78829W        W51254  32.359  44.805   2.787
78830W        W51255  10.712  43.384   2.162
78831W        W51256  13.377  23.245   3.735
78832W        W51257  39.443  40.663   2.673
78833W        W51258   4.831  34.033  11.388
78834W        W51259  34.376  40.177   4.322
78835W        W51260   5.013  23.446  12.576
78836W        W51261  21.309  25.037  12.662
78837W        W51262  26.260  19.594  13.723
78838W        W51263   4.377   1.979   2.267
78839W        W51264   9.738  19.054   4.592
78840W        W51265  16.508  39.546  12.040
78841W        W51266  12.549  39.998   3.272
78842W        W51267  38.284   5.991   3.839
78843W        W51268  22.512  10.184  12.965
78844W        W51269  39.742  24.041  13.562
78845W        W51270   0.329  34.585   3.334
78846W        W51271  28.684   1.216  12.954
78847W        W51272  25.524  14.388  11.255
78848W        W51273   2.756  36.484  11.410
78849W        W51274  37.239  14.507   5.161
78850W        W51275   9.133   6.412   0.962
78851W        W51276  10.096  40.771   3.099
78852W        W51277  39.598  19.712  13.435
78853W        W51278  40.248  14.666  11.840
78854W        W51279   0.844  34.220   3.155
78855W        W51280   5.747  12.059   0.453
78856W        W51281  15.661   6.471   2.880
78857W        W51282  23.595  31.884  13.940
78858W        W51283  33.005  12.642  13.426
78859W        W51284  12.905  35.397  11.651
78860W        W51285  12.318  19.247  13.787
78861W        W51286  31.874  36.574   5.004
78862W        W51287  29.711  28.289  11.035
78863W        W51288   2.010  10.721   0.282
78864W        W51289  10.321  14.157   0.524
78865W        W51290  11.589  18.207  13.426
78866W        W51291  42.713   9.238   3.137
78867W        W51292  30.456  13.180   0.919
78868W        W51293  26.120  33.322   4.870
78869W        W51294  17.988  32.395   1.313
78870W        W51295   8.431  35.857   1.598
78871W        W51296   6.797  13.331  13.474
78872W        W51297  36.207   6.715  13.489
78873W        W51298  25.409  24.993  11.844
78874W        W51299   9.141  32.488   2.809
78875W        W51300  27.137  42.505   3.228
78876W        W51301  30.566   1.185   5.055
78877W        W51302  23.169  18.552   1.346
78878W        W51303   9.580  14.599  14.841
78879W        W51304  24.057  36.072   3.578
78880W        W51305  30.080  33.117  13.876
78881W        W51306  21.151  39.818   3.532
78882W        W51307  19.065   2.534  14.864
78883W        W51308  18.742  37.337  10.568
78884W        W51309  26.188  39.536   4.609
78885W        W51310  35.398  43.499   2.400
78886W        W51311  26.433  38.789  11.410
78887W        W51312  25.688   8.437   2.659
78888W        W51313  22.499  13.404  12.899
78889W        W51314  16.096  20.323   3.896
78890W        W51315  27.233  22.600  11.963
78891W        W51316  17.215  41.033  14.365
78892W        W51317  11.607  40.312  14.911
78893W        W51318  38.598  14.704  11.628
78894W        W51319  35.058  24.975  11.084
78895W        W51320   2.696  23.075   3.323
78896W        W51321  22.524  18.591   0.684
78897W        W51322   4.205  12.834   4.724
78898W        W51323  36.335  42.029   4.864
78899W        W51324  10.653   3.872   3.770
78900W        W51325  30.509  36.855   2.397
78901W        W51326  35.304  24.540   4.054
78902W        W51327   0.231   6.346  11.553
78903W        W51328  12.892  24.966   2.562
78904W        W51329  35.241  31.559   0.239
78905W        W51330  23.247  27.074   1.845
78906W        W51331   7.402  18.847   1.617
78907W        W51332  31.076  16.749   2.986
78908W        W51333  29.714  42.871  14.299
78909W        W51334  18.804  12.092   2.015
78910W        W51335   0.258  37.470   4.382
78911W        W51336  15.797  27.878  10.468
78912W        W51337  24.436  42.730  12.089
78913W        W51338  19.398  44.150  11.663
78914W        W51339   5.962  30.048  11.666
78915W        W51340  39.438  31.555  10.681
78916W        W51341  12.106  31.557   3.711
78917W        W51342  41.371  25.735  12.840
78918W        W51343  15.262   3.832   3.757
78919W        W51344   6.857  43.960  14.743
78920W        W51345  38.347  30.494  14.529
78921W        W51346  44.545  16.761   4.927
78922W        W51347  21.168   9.566  14.619
78923W        W51348  27.997  39.061   1.783
78924W        W51349  24.988   4.939   3.248
78925W        W51350  37.363  10.768  12.071
78926W        W51351  13.901  33.621  11.432
78927W        W51352  26.951  38.386   2.271
78928W        W51353  36.139   6.454  12.570
78929W        W51354  22.271  44.876  11.795
78930W        W51355  23.625  19.288   2.368
78931W        W51356  35.993  27.956   2.434
78932W        W51357  29.448  23.598  11.624
78933W        W51358  24.993  30.121  12.507
78934W        W51359   7.443  37.900  11.113
78935W        W51360  23.647  44.735  11.828
78936W        W51361  39.388   9.199   1.276
78937W        W51362  13.978  40.658  10.958
78938W        W51363  17.307  18.350   2.377
78939W        W51364  44.908  24.265  13.919
78940W        W51365  29.829  18.233   4.097
78941W        W51366  12.304   5.974  11.135
78942W        W51367  14.056  19.593   4.198
78943W        W51368  31.624  13.621   3.569
78944W        W51369  17.808  41.078  13.111
78945W        W51370  39.046  25.202   1.263
78946W        W51371  33.208   0.926   2.722
78947W        W51372   8.920   5.867  12.150
78948W        W51373   1.672  29.626   2.242
78949W        W51374  14.354  27.060   3.684
78950W        W51375  21.210  42.830  14.925
78951W        W51376  19.807   7.113  11.136
78952W        W51377  17.129  31.345   1.914
78953W        W51378  12.267  42.447  13.974
78954W        W51379  39.916   0.782  12.577
78955W        W51380  23.099  14.047  12.481
78956W        W51381   8.138  18.785   2.750
78957W        W51382  26.767  11.081  12.389
78958W        W51383   5.908   4.378  11.548
78959W        W51384   6.491  23.662  13.569
78960W        W51385   0.387  32.654   4.502
78961W        W51386  39.479  25.295   0.480
78962W        W51387  18.062  41.997  13.803
78963W        W51388  31.053  30.164   3.861
78964W        W51389  29.673  21.983   3.213
78965W        W51390  16.161  28.620   3.051
78966W        W51391  33.318   0.813   4.210
78967W        W51392  36.901  15.842   2.711
78968W        W51393   1.441  27.322   3.311
78969W        W51394  17.069   7.216   2.686
78970W        W51395  40.306  20.769  10.657
78971W        W51396  16.334  15.569  10.741
78972W        W51397  38.351   9.150   3.293
78973W        W51398  25.002  19.197  10.782
78974W        W51399  23.295  22.296   0.964
78975W        W51400  32.525  17.621  12.448
78976W        W51401  40.741  12.709  11.645
78977W        W51402   7.690   5.081   0.937
78978W        W51403   1.522  35.986  13.931
78979W        W51404  33.114  33.814   3.689
78980W        W51405  23.296   7.585  13.648
78981W        W51406  20.938  38.908   1.802
78982W        W51407   1.193  42.489  12.941
78983W        W51408  30.950  42.459   1.486
78984W        W51409   2.329  29.219  11.209
78985W        W51410  39.803  28.631   4.869
78986W        W51411  32.130   7.464   3.809
78987W        W51412  42.566   0.470  14.806
78988W        W51413   9.439  42.972   4.601
78989W        W51414  35.850  11.770  13.775
78990W        W51415  43.254  13.598   3.128
78991W        W51416  18.510  42.771   3.560
78992W        W51417   1.334   6.896  12.503
78993W        W51418  32.258  23.484   3.072
78994W        W51419  24.167  14.078  13.531
78995W        W51420  35.103  26.958   2.061
78996W        W51421  16.008   5.958   3.906
78997W        W51422  14.582  18.564   3.397
78998W        W51423  30.026  30.074  13.809
78999W        W51424  38.116  41.934   4.102
79000W        W51425   3.989  24.989   0.962
79001W        W51426  31.934  27.507  12.505
79002W        W51427  30.190  16.393   4.791
79003W        W51428  33.284  39.435   1.425
79004W        W51429   6.185  24.842   1.248
79005W        W51430  21.181  20.606  10.741
79006W        W51431  21.594   7.144  12.181
79007W        W51432   0.054  27.630   0.909
79008W        W51433   0.859  29.689  14.636
79009W        W51434  39.042  22.642   0.754
79010W        W51435   2.446  41.873   3.252
79011W        W51436   3.685  11.657   1.444
79012W        W51437   0.547  38.983  13.357
79013W        W51438  30.582  43.949  12.133
79014W        W51439  10.281  15.708  13.919
79015W        W51440  31.153  27.887   3.133
79016W        W51441  28.019   1.956   3.248
79017W        W51442  29.657   0.481   2.786
79018W        W51443  36.636  11.797   0.842
79019W        W51444  17.778  21.180  10.434
79020W        W51445   1.133  22.858  14.163
79021W        W51446   5.492   0.883  11.996
79022W        W51447  44.205  39.506  11.041
79023W        W51448  30.133  32.789   3.628
79024W        W51449  12.530  20.224  14.512
79025W        W51450  15.487  40.492   4.556
79026W        W51451  14.458   3.274  14.973
79027W        W51452  20.739   0.922  13.342
79028W        W51453  33.412   9.244  11.120
79029W        W51454  23.792  33.026   2.220
79030W        W51455  22.927  14.270  10.814
79031W        W51456   5.884  25.618  14.542
79032W        W51457  33.429   1.264  13.963
79033W        W51458  21.981  22.098  12.885
79034W        W51459  13.059   4.103  11.079
79035W        W51460  27.735  32.486   1.053
79036W        W51461  35.756   9.299  10.635
79037W        W51462  33.636  20.746  11.354
79038W        W51463  14.175  20.903   3.644
79039W        W51464  42.991  17.897  10.312
79040W        W51465  27.348  12.066  13.469
79041W        W51466  32.817   2.698  14.399
79042W        W51467  11.636  35.508  12.129
79043W        W51468  29.616   4.300   0.345
79044W        W51469  17.029   8.186   1.856
79045W        W51470  30.671  32.417  12.061
79046W        W51471  36.934  40.765   4.100
79047W        W51472  12.889   6.290  10.543
79048W        W51473  12.912  40.253  12.460
79049W        W51474  42.631   1.837  14.080
79050W        W51475  43.753  34.687   4.073
79051W        W51476  36.291  43.689   2.151
79052W        W51477  26.487  42.031  10.982
79053W        W51478  18.965  38.632  11.135
79054W        W51479  20.845   3.264  10.527
79055W        W51480  14.336   3.698   3.204
79056W        W51481  32.917   8.828   0.318
79057W        W51482  24.645  10.637  12.419
79058W        W51483  10.304  39.436  12.858
79059W        W51484  10.009  20.249   2.196
79060W        W51485  31.977   2.735   0.258
79061W        W51486  17.215  13.585   0.446
79062W        W51487   7.168  32.357   0.280
79063W        W51488   1.664  44.680  14.403
79064W        W51489  32.719  29.131  10.371
79065W        W51490  13.747  40.299   0.935
79066W        W51491   3.227   7.335  13.370
79067W        W51492  27.949  27.316   3.741
79068W        W51493  23.689  35.065   0.302
79069W        W51494  41.119  21.432  13.380
79070W        W51495  42.006   3.529  13.866
79071W        W51496  32.839  41.120   2.941
79072W        W51497  24.105  24.448   3.674
79073W        W51498   1.241  31.549   1.501
79074W        W51499  14.965  33.595  11.145
79075W        W51500   5.119  26.075  12.578
79076W        W51501  26.423  13.139   1.848
79077W        W51502  34.354  41.835  11.466
79078W        W51503  18.578  34.932   1.809
79079W        W51504  22.098  20.234   0.682
79080W        W51505   9.446  11.214   4.955
79081W        W51506  43.452  33.431   4.661
79082W        W51507  20.077   6.829   3.023
79083W        W51508  12.783  27.239   2.981
79084W        W51509  23.024  43.312   0.232
79085W        W51510  19.605   8.566   0.612
79086W        W51511  18.645  42.368  13.923
79087W        W51512  12.540  40.233   2.777
79088W        W51513  20.952  28.190  14.307
79089W        W51514  33.500   9.311   2.158
79090W        W51515  23.602   5.826   0.419
79091W        W51516   5.857  24.629  10.648
79092W        W51517  36.398  25.489  10.508
79093W        W51518  26.053   9.784   3.641
79094W        W51519  18.049  14.862   0.966
79095W        W51520  42.322  25.134  11.043
79096W        W51521  31.437  19.231   1.356
79097W        W51522   8.203  28.769   2.719
79098W        W51523   7.214  28.889   0.333
79099W        W51524  26.107  28.208   4.902
79100W        W51525  21.489  25.838   4.668
79101W        W51526  25.593   0.085   2.954
79102W        W51527  37.174   4.618  12.052
79103W        W51528  43.480   2.914  10.852
79104W        W51529   6.328  30.685   1.434
79105W        W51530  17.962   8.530  12.997
79106W        W51531  43.845  39.626   4.160
79107W        W51532  19.244  27.446   2.251
79108W        W51533   3.325  33.222  14.306
79109W        W51534  20.223  43.930   0.857
79110W        W51535  23.042  33.166  14.648
79111W        W51536   5.260   9.287   1.404
79112W        W51537  28.979  32.033   0.509
79113W        W51538  20.532  14.177   3.978
79114W        W51539  34.937  28.200   1.435
79115W        W51540  37.046  26.046  12.873
79116W        W51541  22.462  22.697  10.213
79117W        W51542  44.397   6.992   3.303
79118W        W51543   4.446  41.728  12.413
79119W        W51544  30.108  28.460   1.162
79120W        W51545  37.824  43.389  10.920
79121W        W51546  16.914  20.001  12.459
79122W        W51547  40.500  16.058   2.737
79123W        W51548  15.064  24.304   4.544
79124W        W51549  39.654  37.076  13.402
79125W        W51550   1.842  35.364   0.788
79126W        W51551  42.704  23.120   1.963
79127W        W51552   0.659  23.725   4.095
79128W        W51553   3.893  32.181  14.902
79129W        W51554  37.586  27.916  11.135
79130W        W51555  22.327  19.702   2.024
79131W        W51556  11.940   2.704   0.236
79132W        W51557  10.643  33.222  13.487
79133W        W51558  44.099  35.954  13.002
79134W        W51559  44.700  29.202   1.405
79135W        W51560  15.266  42.765  12.009
79136W        W51561  12.848   0.250  10.518
79137W        W51562  40.650  31.900   3.231
79138W        W51563  28.223  26.978   9.807
79139W        W51564  22.785   1.076  11.973
79140W        W51565   3.226  34.628   4.018
79141W        W51566  18.355  16.144   1.903
79142W        W51567  33.968   3.449   1.797
79143W        W51568  27.465  21.911   2.232
79144W        W51569  41.594  31.801   3.355
79145W        W51570  42.786  31.077  10.780
79146W        W51571  36.432  22.001   2.207
79147W        W51572  44.860  31.019   0.975
79148W        W51573  14.659  26.913  14.817
79149W        W51574  30.483   9.876  13.070
79150W        W51575  23.684  10.216   4.194
79151W        W51576   3.555  41.491  11.153
79152W        W51577  15.692  18.095  12.995
79153W        W51578  40.884  35.447   0.943
79154W        W51579   9.195  44.435  13.977
79155W        W51580  18.554   0.805  11.115
79156W        W51581  10.107  35.789   2.079
79157W        W51582  26.674  36.318  14.715
79158W        W51583   8.993  23.878  12.870
79159W        W51584  39.606  37.804  11.576
79160W        W51585  29.431  19.169   1.151
79161W        W51586   6.079  38.981   0.952
79162W        W51587   1.496  18.781   3.127
79163W        W51588   8.957  27.948  12.453
79164W        W51589   4.315  32.244   0.229
79165W        W51590  14.271   6.139  12.556
79166W        W51591  24.802  33.475  14.687
79167W        W51592  44.963  27.652   2.681
79168W        W51593  44.252   1.288  12.941
79169W        W51594  11.789  18.326   0.074
79170W        W51595  14.598  37.542   3.727
79171W        W51596  26.732  21.647  13.148
79172W        W51597  32.483  44.163  11.206
79173W        W51598   8.114   5.824  11.452
79174W        W51599  16.969  21.556  12.473
79175W        W51600  22.511  11.105  13.903
79176W        W51601  37.173  24.182   3.213
79177W        W51602   4.657  40.831  14.319
79178W        W51603   4.736  33.405   0.231
79179W        W51604  35.287  41.279  12.867
79180W        W51605  39.620   3.349  14.731
79181W        W51606  19.980  31.714  10.723
79182W        W51607  19.482  25.692  10.817
79183W        W51608  23.546  30.534   2.108
79184W        W51609   7.288  14.335   2.391
79185W        W51610   1.734   9.560   0.953
79186W        W51611  41.776  37.718  12.871
79187W        W51612  15.137  38.637  14.974
79188W        W51613  42.482  34.077   0.788
79189W        W51614  43.299  27.586   4.179
79190W        W51615  23.184  30.464  12.671
79191W        W51616  33.303  40.055  10.368
79192W        W51617  15.848   5.247  14.813
79193W        W51618  24.615  38.360   3.166
79194W        W51619  42.344  23.509   1.726
79195W        W51620   1.033  25.720  13.942
79196W        W51621   9.909  20.551   1.780
79197W        W51622  25.153  23.101   0.142
79198W        W51623  22.040  19.260   2.577
79199W        W51624   6.500  21.494   1.416
79200W        W51625  18.709  22.950  11.016
79201W        W51626  23.423  41.843  14.067
79202W        W51627  11.553   7.580   1.028
79203W        W51628  19.126   3.200   1.093
79204W        W51629  43.897  30.492   2.451
79205W        W51630  17.011  23.153   2.763
79206W        W51631  38.442  23.968  14.372
79207W        W51632  37.546  29.476   3.303
79208W        W51633  33.555   2.637  12.377
79209W        W51634  36.846  17.466   0.809
79210W        W51635  10.374  13.932  12.887
79211W        W51636  15.893  16.856  14.870
79212W        W51637  15.900   5.375   4.656
79213W        W51638  35.638  10.727  14.422
79214W        W51639  10.489  43.199  12.855
79215W        W51640  36.776  39.867   2.792
79216W        W51641   8.613  27.451  14.727
79217W        W51642  27.355   9.739  14.428
79218W        W51643  39.059  20.440  14.443
79219W        W51644  15.268  14.802   4.101
79220W        W51645  28.518  20.972  13.436
79221W        W51646  41.330   5.681  10.849
79222W        W51647  14.557  24.969   0.868
79223W        W51648  22.283   1.957  11.997
79224W        W51649   5.032  43.166   5.051
79225W        W51650   2.287   9.733   2.729
79226W        W51651   8.638  11.593   1.812
79227W        W51652  28.456  13.895   3.706
79228W        W51653  18.006  40.128  14.960
79229W        W51654  33.904  44.269   2.237
79230W        W51655  35.798  31.745   2.498
79231W        W51656  24.135  22.732   4.668
79232W        W51657  39.779   0.241   1.294
79233W        W51658  39.840   1.456   0.737
79234W        W51659  17.536  27.350  11.046
79235W        W51660  19.665   2.689  13.066
79236W        W51661  40.913  36.160   3.287
79237W        W51662   6.187  15.991   1.360
79238W        W51663  31.444  39.911  13.591
79239W        W51664  33.430  38.528   0.258
79240W        W51665  16.807  33.453  13.805
79241W        W51666  11.257   5.462   2.238
79242W        W51667  18.884  22.155   2.793
79243W        W51668  32.419  42.526   0.704
79244W        W51669  34.613  20.586  10.548
79245W        W51670  14.552   6.734  14.138
79246W        W51671  37.642   9.406  11.552
79247W        W51672   5.524  39.547   0.368
79248W        W51673  13.304   5.886   4.399
79249W        W51674  24.261  41.534  10.663
79250W        W51675  12.784   2.425  13.404
79251W        W51676   7.222  33.860   1.728
79252W        W51677  15.086  13.671   2.313
79253W        W51678   5.941  25.195  11.145
79254W        W51679  36.861  22.943   2.763
79255W        W51680  12.810  41.541  10.719
79256W        W51681   4.815  20.117   3.634
79257W        W51682   5.674  27.489   3.581
79258W        W51683  38.261  24.169   2.158
79259W        W51684  42.220   5.601  12.877
79260W        W51685  30.771   2.350   4.253
79261W        W51686  26.318  26.046   2.786
79262W        W51687   0.443  15.226   2.753
79263W        W51688  36.933   1.403  12.524
79264W        W51689  16.739  44.733  13.327
79265W        W51690  36.130  28.181   2.887
79266W        W51691  35.653   2.515   3.677
79267W        W51692  26.065  21.666  11.903
79268W        W51693  43.712  30.446  14.779
79269W        W51694  12.349  39.964  14.596
79270W        W51695   3.385  29.012   2.714
79271W        W51696  32.498  18.635  11.655
79272W        W51697  24.597  27.460   1.301
79273W        W51698   0.052  16.559  14.892
79274W        W51699  30.166  23.196  13.031
79275W        W51700  44.237  30.885  13.951
79276W        W51701  17.413   9.901   1.807
79277W        W51702  29.624   8.240   2.254
79278W        W51703  20.142  27.660  12.535
79279W        W51704  16.726  27.054   0.193
79280W        W51705  30.005  26.090  14.351
79281W        W51706  31.973  34.047  11.083
79282W        W51707  39.575   1.435   2.356
79283W        W51708  43.559  22.560   0.790
79284W        W51709  25.003  19.296   0.003
79285W        W51710  37.092  41.504  13.658
79286W        W51711   3.105  25.211   3.643
79287W        W51712   0.763   7.760  11.679
79288W        W51713   1.225  31.234   2.977
79289W        W51714  37.084  34.860  11.596
79290W        W51715  40.111   6.741   2.190
79291W        W51716   2.723  41.502   2.972
79292W        W51717  30.256  23.671   3.576
79293W        W51718  22.112  15.641   0.250
79294W        W51719  21.828   9.366   4.179
79295W        W51720   2.086  25.047   3.798
79296W        W51721  15.701  35.407  13.041
79297W        W51722  11.359  44.000  11.143
79298W        W51723  24.626   8.215   0.294
79299W        W51724  44.470  28.676   0.746
79300W        W51725  42.614  27.231   1.806
79301W        W51726   9.708  12.136  14.768
79302W        W51727  22.031   2.231   3.309
79303W        W51728   2.259   3.369  12.747
79304W        W51729  39.963   6.960  12.527
79305W        W51730  37.802  20.223  14.958
79306W        W51731  37.505  16.878   3.146
79307W        W51732  41.731  42.515  12.068
79308W        W51733  12.842  15.534  10.637
79309W        W51734  26.911   1.256  14.848
79310W        W51735  22.233  41.726  14.072
79311W        W51736  33.863   8.010  12.616
79312W        W51737   3.856  26.501   3.557
79313W        W51738  14.591   4.273  11.720
79314W        W51739   8.154  23.657   2.704
79315W        W51740  14.430   8.817  12.113
79316W        W51741  19.768  22.165   4.835
79317W        W51742   7.401   2.407  13.922
79318W        W51743  30.897  23.038   2.643
79319W        W51744  13.995  25.637  12.877
79320W        W51745   1.804  31.146   5.069
79321W        W51746   1.747  20.998   0.956
79322W        W51747  40.720  26.569   4.624
79323W        W51748   7.891   7.917  14.039
79324W        W51749  24.275  29.119   0.698
79325W        W51750  29.908  16.421   9.721
79326W        W51751  20.576   5.723  12.919
79327W        W51752  16.589   1.385   2.122
79328W        W51753  33.606  30.849  10.657
79329W        W51754  25.487   5.854   4.570
79330W        W51755  13.754  26.144   0.683
79331W        W51756   8.323  40.786   3.764
79332W        W51757  27.904  29.104  14.030
79333W        W51758  13.670  28.221  10.410
79334W        W51759   4.044  42.676  11.731
79335W        W51760   8.656   0.206  11.621
79336W        W51761  39.565   1.471   3.237
79337W        W51762  18.659  14.821  14.908
79338W        W51763  43.827   1.586   0.960
79339W        W51764  30.569  31.498   3.755
79340W        W51765  12.134  22.537   0.029
79341W        W51766  15.235  21.683   3.700
79342W        W51767   6.397  34.956   4.619
79343W        W51768  12.606   5.143  13.980
79344W        W51769  32.951  17.543   0.872
79345W        W51770  23.979  22.011   0.543
79346W        W51771   5.919  36.032   2.165
79347W        W51772  26.996  29.129   0.904
79348W        W51773  21.741   1.568   5.116
79349W        W51774   8.046  20.150   2.338
79350W        W51775  35.855  18.727  13.422
79351W        W51776  21.749  29.048  12.546
79352W        W51777   4.136  43.103  11.991
79353W        W51778  18.578   4.521  11.154
79354W        W51779  31.466  36.522   0.818
79355W        W51780  20.690  36.858  11.254
79356W        W51781  17.184   5.990   2.929
79357W        W51782  27.600   7.914  13.390
79358W        W51783  14.611  22.517   0.921
79359W        W51784  30.049  35.344   1.873
79360W        W51785  30.806  17.370  13.809
79361W        W51786  38.538  13.266  10.721
79362W        W51787   0.244  10.854   3.702
79363W        W51788  13.747  12.665  13.982
79364W        W51789   7.338  38.284   3.045
79365W        W51790   2.481   2.008   2.131
79366W        W51791  36.483  21.989  13.857
79367W        W51792   7.306  20.205   1.362
79368W        W51793  34.402  43.529  12.428
79369W        W51794  31.623  22.192  10.449
79370W        W51795  43.797  30.568   4.877
79371W        W51796  23.314  14.149  12.940
79372W        W51797   5.182   2.982  13.177
79373W        W51798   0.600  26.895   1.016
79374W        W51799  43.972  21.020   0.769
79375W        W51800  36.470  43.814   4.532
79376W        W51801  42.397  18.756  13.642
79377W        W51802  27.923  36.818  10.574
79378W        W51803   7.902  35.514  11.682
79379W        W51804  37.091  27.932   4.220
79380W        W51805  23.947  35.394  11.544
79381W        W51806  10.644  36.422  13.819
79382W        W51807  21.534  11.581  13.078
79383W        W51808  41.577   7.050  11.535
79384W        W51809  19.067  22.033  14.213
79385W        W51810  17.698  24.110  11.168
79386W        W51811  29.168  38.448  13.985
79387W        W51812  33.475  23.460  11.523
79388W        W51813   4.962   6.021   1.233
79389W        W51814   7.181  36.968   0.449
79390W        W51815  19.041  41.814  13.507
79391W        W51816  16.366   6.289   4.109
79392W        W51817  41.216  12.755  11.973
79393W        W51818  39.840  16.681   3.686
79394W        W51819  21.678  30.643   2.671
79395W        W51820  18.215  39.835  11.941
79396W        W51821   2.292  35.109   5.068
79397W        W51822   1.691  18.794  14.095
79398W        W51823  11.681  31.133   0.729
79399W        W51824   3.490   6.414   1.713
79400W        W51825   4.535  37.970   3.743
79401W        W51826   0.364  28.735   0.501
79402W        W51827   8.403  34.997   0.094
79403W        W51828  20.445  43.266  13.492
79404W        W51829  20.036  27.038  13.523
79405W        W51830  40.884  41.622  11.100
79406W        W51831  11.279  26.872  11.558
79407W        W51832   1.839  35.390  12.330
79408W        W51833  26.143   0.698  11.068
79409W        W51834  40.426  31.161  11.993
79410W        W51835  38.494  36.401   2.280
79411W        W51836  19.188  42.135   4.666
79412W        W51837  38.548  19.725  14.785
79413W        W51838   0.577  10.684  12.048
79414W        W51839  36.831  28.509   1.661
79415W        W51840  21.986   1.135  11.113
79416W        W51841   3.479   7.823  13.547
79417W        W51842   2.719  19.039  14.931
79418W        W51843  14.776   9.732  14.417
79419W        W51844  33.447  30.533  12.349
79420W        W51845   7.200  11.646   1.657
79421W        W51846  23.033  24.720   0.525
79422W        W51847  11.242  43.368  14.768
79423W        W51848  32.617  16.682  13.375
79424W        W51849  39.204  30.386   1.041
79425W        W51850  30.458  40.392  12.489
79426W        W51851  23.171  20.277  12.066
79427W        W51852  39.416  28.029   4.192
79428W        W51853   8.706   4.622   1.006
79429W        W51854   0.260  42.049  10.686
79430W        W51855  28.795  34.507   1.788
79431W        W51856   4.501   0.396  13.727
79432W        W51857   7.941  12.529  11.004
79433W        W51858  35.244  42.882   2.663
79434W        W51859  19.060  19.822  13.507
79435W        W51860  17.271  24.754   2.793
79436W        W51861   1.561  37.780   3.007
79437W        W51862  36.314   2.567  11.428
79438W        W51863  32.581  30.901   2.894
79439W        W51864  11.341  37.470   1.601
79440W        W51865  23.032  30.081   2.193
79441W        W51866  44.204  41.989   1.104
79442W        W51867  12.130  31.857   0.552
79443W        W51868  16.129  36.805   0.351
79444W        W51869  29.361  29.001   2.894
79445W        W51870  16.641  31.488  14.256
79446W        W51871  19.990  24.225  12.439
79447W        W51872  37.288  42.012   4.473
79448W        W51873  13.096   6.950  14.349
79449W        W51874  36.670   1.909   2.683
79450W        W51875  15.574  21.365   3.353
79451W        W51876  36.430  16.100  11.710
79452W        W51877  21.978  30.559   0.026
79453W        W51878  41.434  25.796  11.550
79454W        W51879   2.537   7.289  10.311
79455W        W51880  27.011  42.568  13.149
79456W        W51881  37.352  15.603   2.856
79457W        W51882  31.089  40.007  12.143
79458W        W51883  12.807  32.861   2.821
79459W        W51884  16.860  26.759   1.008
79460W        W51885  16.788  42.476  12.482
79461W        W51886  32.028   4.913  11.150
79462W        W51887   6.562  29.439   1.829
79463W        W51888   0.537  31.877  12.306
79464W        W51889  19.260  19.680  11.724
79465W        W51890  13.812  10.828  11.659
79466W        W51891  15.747   4.410  10.221
79467W        W51892  29.205   5.817   1.516
79468W        W51893  43.423  27.577  14.694
79469W        W51894  17.228  12.994   1.294
79470W        W51895  15.048   4.926   2.172
79471W        W51896  41.073  24.647  12.346
79472W        W51897  22.731  35.551  10.607
79473W        W51898  38.521   0.003   4.576
79474W        W51899  38.015  19.752  14.789
79475W        W51900  40.552   7.741  14.525
79476W        W51901  24.257  28.882  13.511
79477W        W51902   0.879  22.152  11.960
79478W        W51903   3.241  13.739   2.564
79479W        W51904   2.420  31.004   3.659
79480W        W51905  38.366  27.271  12.877
79481W        W51906  28.128  21.464   3.522
79482W        W51907  11.274  19.267   1.620
79483W        W51908  16.647  11.325  10.603
79484W        W51909  43.359  14.756  12.346
79485W        W51910  14.047  14.312   1.789
79486W        W51911  29.925   9.207  10.796
79487W        W51912   4.298   5.716   2.879
79488W        W51913   7.007  29.113   0.774
79489W        W51914   0.664  18.981   2.807
79490W        W51915   7.722   2.832  12.614
79491W        W51916   5.979  32.502  14.676
79492W        W51917  26.619  44.517  12.887
79493W        W51918  21.940  41.425   4.059
79494W        W51919  37.107  24.595   2.334
79495W        W51920  30.110  27.408  13.910
79496W        W51921  20.859  37.001   3.105
79497W        W51922  21.524  21.986   4.048
79498W        W51923  38.343  17.069   4.259
79499W        W51924   4.715  42.059   1.871
79500W        W51925  16.549  41.883   3.956
79501W        W51926  19.034  14.900   0.244
79502W        W51927  42.554  30.930   0.857
79503W        W51928  39.957  16.708  10.780
79504W        W51929  34.538  31.901   1.323
79505W        W51930  20.122  26.907  12.283
79506W        W51931  11.597  37.869  10.114
79507W        W51932   1.640  22.244   2.191
79508W        W51933  33.365   6.762  12.486
79509W        W51934  15.608   2.676   0.591
79510W        W51935  42.660  14.323   2.818
79511W        W51936  43.047   1.126  13.296
79512W        W51937  23.481  27.242  13.917
79513W        W51938  41.921   3.734  11.086
79514W        W51939  37.439  20.377  11.484
79515W        W51940   2.856  24.890   4.122
79516W        W51941  21.031   0.032   3.660
79517W        W51942  27.947  31.494   1.448
79518W        W51943  30.885  13.659  13.746
79519W        W51944  12.015  12.077   0.235
79520W        W51945   4.443  36.068  14.205
79521W        W51946  37.008   9.417  14.382
79522W        W51947   9.511   0.479  13.027
79523W        W51948  30.673  24.047   5.002
79524W        W51949  13.741  31.634  11.789
79525W        W51950  10.491  18.196   0.221
79526W        W51951  41.876  33.187   1.641
79527W        W51952  17.716  21.913  11.582
79528W        W51953  17.605  25.977   3.665
79529W        W51954  17.390  11.209   4.267
79530W        W51955   7.852   4.866  14.983
79531W        W51956   5.721  16.124   1.208
79532W        W51957  30.713  19.568  12.914
79533W        W51958  21.059  29.667   3.596
79534W        W51959   1.002  32.023   0.257
79535W        W51960  27.182   4.138  12.040
79536W        W51961  13.243  31.862   4.127
79537W        W51962  21.150  12.653   1.387
79538W        W51963  16.538   1.630   4.577
79539W        W51964  14.062   3.448   5.086
79540W        W51965   3.012   1.908  13.998
79541W        W51966  28.968   7.331   4.092
79542W        W51967  19.748  36.370  12.176
79543W        W51968   3.816  24.525  12.977
79544W        W51969  22.621  44.637   0.337
79545W        W51970  18.563  35.607   2.844
79546W        W51971  35.100  37.521  12.031
79547W        W51972   8.187  19.715   4.674
79548W        W51973  28.566   7.493  13.298
79549W        W51974   5.862  42.318   4.148
79550W        W51975   2.408  19.976  13.079
79551W        W51976  22.911  42.590   1.762
79552W        W51977  13.333  44.042   0.836
79553W        W51978   1.404  13.831   0.448
79554W        W51979  23.326  36.875   1.894
79555W        W51980  20.809  40.928   3.986
79556W        W51981  28.414   4.841   4.215
79557W        W51982  32.064  25.892   3.584
79558W        W51983  11.256  16.185  14.585
79559W        W51984  23.145  40.336   4.319
79560W        W51985   8.878   8.817  11.891
79561W        W51986   1.695  36.932   3.721
79562W        W51987  15.564  41.499   1.652
79563W        W51988  40.009  42.936  14.346
79564W        W51989  29.528  18.348  11.537
79565W        W51990  41.739  15.927   9.708
79566W        W51991   7.762   7.269  14.014
79567W        W51992  19.584  25.200  11.079
79568W        W51993  17.584  21.990  11.087
79569W        W51994   8.924  26.643   4.207
79570W        W51995  20.643   4.795   2.582
79571W        W51996  12.771  43.519   2.242
79572W        W51997  16.348  27.239  14.853
79573W        W51998  10.609  10.479  14.990
79574W        W51999  37.437   3.757   0.506
79575W        W52000   5.360  16.152   0.848
79576W        W52001  29.139  26.018  11.162
79577W        W52002  13.251  15.123  13.551
79578W        W52003  27.467  33.122   5.515
79579W        W52004  13.600  13.244  13.371
79580W        W52005  44.517  20.812  13.787
79581W        W52006  24.483   3.409  11.447
79582W        W52007   8.141  28.234   3.585
79583W        W52008  14.810  11.707   4.635
79584W        W52009  36.562  29.768   4.293
79585W        W52010  32.820  35.521  12.550
79586W        W52011  23.053  24.368   0.971
79587W        W52012   2.255  19.047  11.236
79588W        W52013   4.326  23.445   4.820
79589W        W52014  20.114  23.621   2.578
79590W        W52015   6.937  16.703   2.632
79591W        W52016  40.734  15.302   0.087
79592W        W52017  43.722  30.121   0.742
79593W        W52018   1.917   5.804  12.899
79594W        W52019  33.462  20.984  14.967
79595W        W52020  43.381  36.608  11.546
79596W        W52021  17.219  42.245   2.051
79597W        W52022  21.530  42.763  12.329
79598W        W52023   9.697  15.671   0.768
79599W        W52024  43.490  40.299  13.367
79600W        W52025   7.549  29.230  11.657
79601W        W52026   2.247  11.131   4.065
79602W        W52027   8.196   8.847   3.009
79603W        W52028  12.744   3.115   4.302
79604W        W52029  29.218   5.190   4.250
79605W        W52030  35.356  10.073   1.779
79606W        W52031  27.411  39.001   4.160
79607W        W52032  28.157   7.173  12.401
79608W        W52033  19.889  34.139  13.734
79609W        W52034  32.822   4.634   4.761
79610W        W52035   2.894  31.167   3.841
79611W        W52036   1.274  41.707  11.630
79612W        W52037  24.542   5.647  12.520
79613W        W52038   2.419  11.311   2.624
79614W        W52039   3.169  14.630   0.929
79615W        W52040   6.726  12.729  14.622
79616W        W52041  37.251  22.015   1.604
79617W        W52042  26.069  33.515  11.820
79618W        W52043  43.460  13.247   4.690
79619W        W52044   8.279  31.383  14.520
79620W        W52045  35.069   9.811  12.746
79621W        W52046  23.084  36.068   2.308
79622W        W52047  39.557  14.611  11.669
79623W        W52048  27.107  12.340   3.553
79624W        W52049  26.501  43.317   4.636
79625W        W52050  30.111   0.394  11.928
79626W        W52051  33.069  24.562   2.724
79627W        W52052   3.235  33.438   0.735
79628W        W52053  30.485  12.805  14.579
79629W        W52054   7.709   7.304   4.537
79630W        W52055  15.160  27.110  10.632
79631W        W52056   9.070  39.066   2.686
79632W        W52057  31.346   2.693  11.779
79633W        W52058   9.935   5.996  14.676
79634W        W52059  13.366  35.332  11.456
79635W        W52060  37.126  14.076  14.005
79636W        W52061  12.112   0.320  10.547
79637W        W52062  11.299   1.945   4.829
79638W        W52063   1.738  10.625  14.797
79639W        W52064  32.571  20.579  10.595
79640W        W52065  34.103  26.820   3.294
79641W        W52066  18.643  33.066   1.948
79642W        W52067   2.934   4.245  11.472
79643W        W52068  22.121   9.985   1.022
79644W        W52069   3.879   0.395   1.028
79645W        W52070  28.228  29.947  13.570
79646W        W52071  35.395  44.475  12.495
79647W        W52072  28.661  17.045  10.864
79648W        W52073  44.034  26.039  11.004
79649W        W52074  35.327  17.767   4.551
79650W        W52075  11.102   8.706   1.656
79651W        W52076  14.203  42.012   2.799
79652W        W52077  19.582   6.731  13.052
79653W        W52078   3.485  33.957  13.349
79654W        W52079  41.055  29.558   0.347
79655W        W52080   5.201  30.391  14.485
79656W        W52081  12.162  10.365  13.423
79657W        W52082  36.842  26.715   0.268
79658W        W52083  40.353  31.279   4.043
79659W        W52084  33.050  40.062   2.178
79660W        W52085   6.081  15.318   2.138
79661W        W52086  17.289  30.946  11.119
79662W        W52087  43.426  23.965   4.572
79663W        W52088  20.607   2.730   2.346
79664W        W52089  17.260  42.726   4.155
79665W        W52090  38.288   4.843   0.437
79666W        W52091   3.960   7.398  11.686
79667W        W52092  29.209  41.170   4.071
79668W        W52093  10.334  26.655   2.261
79669W        W52094  15.114  19.756   2.160
79670W        W52095   5.470  19.225   0.721
79671W        W52096  13.956  32.887   1.299
79672W        W52097  41.752  39.077  10.691
79673W        W52098  31.276  31.675   2.386
79674W        W52099  21.524  30.098   0.018
79675W        W52100  10.725  33.047   0.861
79676W        W52101   9.735  35.944   9.962
79677W        W52102  36.441  11.598   1.876
79678W        W52103  10.293   9.295  10.562
79679W        W52104  44.242  17.257   2.357
79680W        W52105   3.802  18.055  14.444
79681W        W52106  21.507  39.749   3.913
79682W        W52107  10.466  41.546   1.249
79683W        W52108  22.959  38.571   1.343
79684W        W52109  23.019  15.810   0.970
79685W        W52110  17.321  40.059  12.169
79686W        W52111  36.865  32.087  11.073
79687W        W52112   6.847   7.120   4.255
79688W        W52113  30.051  10.158  14.021
79689W        W52114  24.227   4.680   1.388
79690W        W52115   0.139  22.185   4.596
79691W        W52116   2.939  34.415   4.922
79692W        W52117  19.738   6.840  11.567
79693W        W52118   2.545  23.146  13.792
79694W        W52119   3.644   0.797  13.773
79695W        W52120  24.588  23.207  11.075
79696W        W52121  41.093   6.991   2.153
79697W        W52122  27.748  15.211   4.566
79698W        W52123  31.779  16.200  11.057
79699W        W52124   8.419  10.168   4.735
79700W        W52125  18.999  24.505   1.731
79701W        W52126  21.665  42.251   2.921
79702W        W52127  16.574   0.057  12.904
79703W        W52128  42.735  39.790  11.132
79704W        W52129  23.721  19.794  12.418
79705W        W52130  42.451  22.143   0.500
79706W        W52131  42.985   4.819  12.341
79707W        W52132   8.756  19.297   0.419
79708W        W52133  33.060  27.798  14.318
79709W        W52134   5.227  38.377  10.734
79710W        W52135  22.238  30.023  14.317
79711W        W52136   4.549   1.454  13.428
79712W        W52137  29.049  31.208   0.049
79713W        W52138  37.574  27.634  11.564
79714W        W52139  40.852  11.366  11.959
79715W        W52140  23.833   2.415   2.766
79716W        W52141   4.421  17.808   4.136
79717W        W52142  37.751   5.752  10.715
79718W        W52143  15.809  33.627   1.256
79719W        W52144  40.081   8.406  14.453
79720W        W52145   1.896   9.638   2.305
79721W        W52146  30.785  43.224  12.549
79722W        W52147  26.894  31.182   4.204
79723W        W52148  18.834  13.229  13.075
79724W        W52149   2.558  41.006   1.764
79725W        W52150  43.673   3.701  14.983
79726W        W52151   0.568  11.798  14.359
79727W        W52152  16.599   3.972   3.221
79728W        W52153  41.346  33.541   4.654
79729W        W52154   2.722   6.385  14.340
79730W        W52155  27.231  12.728  11.522
79731W        W52156  31.618  21.872   0.826
79732W        W52157  11.981   2.194   2.945
79733W        W52158  21.625  36.969  12.874
79734W        W52159   1.714  33.560   1.071
79735W        W52160  23.211  33.361  13.802
79736W        W52161   4.614  26.516   1.933
79737W        W52162  10.234  10.964  13.804
79738W        W52163  41.031  15.758   3.070
79739W        W52164   3.183  31.422   4.358
79740W        W52165  10.760  18.636   1.937
79741W        W52166   2.238  14.449   3.069
79742W        W52167  13.886  11.803   0.004
79743W        W52168  35.123   4.699   3.587
79744W        W52169  36.882  16.230   4.936
79745W        W52170  36.819  18.824   0.642
79746W        W52171  24.826   2.328  10.498
79747W        W52172  27.180  36.570   4.751
79748W        W52173  28.562  30.070   0.224
79749W        W52174  19.595  40.951  13.307
79750W        W52175  31.043  28.194  11.084
79751W        W52176  36.184  37.528  13.342
79752W        W52177  34.576  39.731   0.016
79753W        W52178  16.303  17.745   0.825
79754W        W52179   8.169  13.465   0.777
79755W        W52180  39.484   0.318  10.659
79756W        W52181  25.311   0.212  13.193
79757W        W52182  43.188  11.157  10.781
79758W        W52183  32.497  19.611  11.912
79759W        W52184  10.225  37.422   4.774
79760W        W52185  33.521  38.094   0.533
79761W        W52186  23.237  10.801   9.845
79762W        W52187  25.883  16.319  14.318
79763W        W52188  27.527  15.354   2.540
79764W        W52189   6.349  16.170  13.467
79765W        W52190  30.582  41.768   1.941
79766W        W52191  11.571   5.496   4.034
79767W        W52192  22.056  31.021  12.528
79768W        W52193  24.272  33.678  12.375
79769W        W52194  12.367  25.704   3.734
79770W        W52195  27.568  41.013  13.541
79771W        W52196  17.933  19.383  14.403
79772W        W52197   3.573  37.347  13.011
79773W        W52198  29.124  24.985   0.874
79774W        W52199  37.869  14.162  14.464
79775W        W52200  40.460  14.419  12.650
79776W        W52201   4.263   1.420  12.441
79777W        W52202  39.817  16.979   4.124
79778W        W52203  18.291   7.985   2.547
79779W        W52204  35.264  23.938   3.465
79780W        W52205  39.826   9.280   0.460
79781W        W52206  30.588  43.844  11.093
79782W        W52207  21.481   6.486  11.126
79783W        W52208  22.453  26.543  11.116
79784W        W52209  17.769   2.796   4.050
79785W        W52210  40.404   5.804   3.125
79786W        W52211  10.786  20.036  12.145
79787W        W52212  31.327  22.462  13.008
79788W        W52213  39.516  35.836   1.457
79789W        W52214  30.978  27.440   3.380
79790W        W52215  20.633  11.220   3.766
79791W        W52216  34.032  27.664   0.460
79792W        W52217  40.094  11.646  14.039
79793W        W52218   0.058   7.190  14.919
79794W        W52219   9.290  28.837   4.398
79795W        W52220  12.258  28.751  14.430
79796W        W52221  32.699  32.627   3.196
79797W        W52222   9.381  16.881   0.097
79798W        W52223  37.893  38.396   0.278
79799W        W52224  11.255  27.795   0.422
79800W        W52225  39.077  43.556  11.452
79801W        W52226  13.210  30.619  12.483
79802W        W52227  26.059  40.370  10.681
79803W        W52228   7.346  36.896  10.743
79804W        W52229   6.921  19.157  10.497
79805W        W52230  41.520  24.270   1.153
79806W        W52231  31.830  43.216   2.178
79807W        W52232  35.963  38.237   4.633
79808W        W52233  32.111  15.299   4.550
79809W        W52234  22.008  40.053   4.673
79810W        W52235  43.508  44.300  12.123
79811W        W52236  25.092  37.622  10.744
79812W        W52237  33.981  29.056  14.946
79813W        W52238  44.552   7.330   2.191
79814W        W52239  32.264   1.211   4.516
79815W        W52240  37.803  23.559  12.619
79816W        W52241  19.666  36.138   0.505
79817W        W52242  37.986  42.418  14.509
79818W        W52243  43.797  19.518   1.251
79819W        W52244  26.961  12.837   2.287
79820W        W52245  32.917   2.650   1.885
79821W        W52246  36.240  33.621   1.881
79822W        W52247  41.544  21.721   2.885
79823W        W52248   4.666  33.548   4.594
79824W        W52249   7.910   0.805  12.465
79825W        W52250  18.862  34.495   1.825
79826W        W52251  20.511  19.286   4.581
79827W        W52252   7.741  31.539   0.737
79828W        W52253  15.264   4.852   2.649
79829W        W52254  39.341  28.003   0.685
79830W        W52255  15.257  31.596   4.143
79831W        W52256  41.881   7.129  13.757
79832W        W52257  31.623   6.228   3.833
79833W        W52258  37.137   6.472   1.342
79834W        W52259  10.539  27.532   3.194
79835W        W52260  42.436   6.423   4.888
79836W        W52261  26.176   3.306   4.092
79837W        W52262  30.490   4.659   4.972
79838W        W52263  43.867  42.484  10.691
79839W        W52264  15.630  15.171   3.969
79840W        W52265   1.700  33.639  13.824
79841W        W52266  29.545  34.102  13.703
79842W        W52267  20.215  21.734   2.933
79843W        W52268  33.808  42.154   1.124
79844W        W52269  28.037  33.030  10.061
79845W        W52270  15.536  30.714  10.984
79846W        W52271  37.121  14.639  12.197
79847W        W52272  26.151  33.533   4.381
79848W        W52273  21.622  15.340  13.092
79849W        W52274   1.467   2.298   0.714
79850W        W52275   5.372  10.382   2.956
79851W        W52276   9.199  13.149   2.299
79852W        W52277  10.755   5.822  12.076
79853W        W52278  22.549  30.948   2.877
79854W        W52279   0.037  32.197  14.322
79855W        W52280  35.954  16.407  14.430
79856W        W52281  28.917  15.107   1.666
79857W        W52282  26.801  14.895  13.939
79858W        W52283  13.039  13.234   4.448
79859W        W52284  20.496  41.635  13.930
79860W        W52285   2.230   4.286   0.384
79861W        W52286   6.334  29.159  14.179
79862W        W52287  39.941  11.253   1.839
79863W        W52288  32.082  32.455  13.295
79864W        W52289  25.890  23.692  12.625
79865W        W52290   6.726  28.606   3.002
79866W        W52291  39.874   0.918  14.531
79867W        W52292  44.784  18.293  13.912
79868W        W52293  26.927  15.498   1.773
79869W        W52294   8.668   8.179  13.870
79870W        W52295   3.538   8.446  12.012
79871W        W52296  44.500  34.421  11.918
79872W        W52297  14.071  21.723   9.786
79873W        W52298  39.491  29.166   2.696
79874W        W52299  33.957  22.763  11.071
79875W        W52300  24.012  23.386   0.142
79876W        W52301   3.407  24.225   0.416
79877W        W52302   9.254  24.131   1.806
79878W        W52303  18.764   1.859  11.197
79879W        W52304  35.979  17.525  10.621
79880W        W52305   9.166  33.208  10.881
79881W        W52306   5.658   8.324   0.244
79882W        W52307  17.845  24.552  10.984
79883W        W52308  23.694  26.502   3.319
79884W        W52309  27.832  18.759  10.609
79885W        W52310  34.913   5.878  12.888
79886W        W52311  29.549  40.911  14.468
79887W        W52312   2.137  31.597   3.214
79888W        W52313  35.398  10.926  14.837
79889W        W52314   1.191  35.541   2.758
79890W        W52315  17.322  17.260  14.489
79891W        W52316   4.827   5.303  14.886
79892W        W52317  19.626   7.191  13.837
79893W        W52318  13.384  28.330   1.888
79894W        W52319  33.853   0.847  10.689
79895W        W52320  21.087  32.915  10.163
79896W        W52321  41.999  16.579   4.533
79897W        W52322  12.982  35.505  11.121
79898W        W52323  44.867  44.309  13.083
79899W        W52324  23.485  10.175  11.455
79900W        W52325  13.781   2.438  11.178
79901W        W52326  40.781  15.947  13.970
79902W        W52327  30.051  19.123  14.619
79903W        W52328   6.937  11.811  14.339
79904W        W52329  41.108  19.137  12.922
79905W        W52330  11.595  33.397   2.169
79906W        W52331  12.069  29.730  13.571
79907W        W52332  15.460  35.628   1.577
79908W        W52333  15.172  33.575   3.922
79909W        W52334  21.282   1.891  14.488
79910W        W52335  44.216   2.828  14.916
79911W        W52336  25.710  39.491   0.289
79912W        W52337  39.410   9.989  13.018
79913W        W52338   9.713  11.787  12.572
79914W        W52339  14.912   7.140  14.021
79915W        W52340  27.030   4.307   0.423
79916W        W52341  37.377  29.525  14.461
79917W        W52342   0.090   9.639  12.433
79918W        W52343  27.175  22.315   1.751
79919W        W52344  25.096   3.796   4.715
79920W        W52345  19.496   0.351  13.333
79921W        W52346   2.951  17.980   0.711
79922W        W52347   3.714  31.970  12.035
79923W        W52348   1.781  19.761   2.831
79924W        W52349  41.907  23.857   1.018
79925W        W52350  22.170  12.090  10.996
79926W        W52351  33.212   3.886  14.782
79927W        W52352  38.400   4.800  11.403
79928W        W52353  11.953   4.259   4.527
79929W        W52354  29.193  33.632  11.078
79930W        W52355  11.420  22.472  13.690
79931W        W52356  30.231   4.713   3.215
79932W        W52357  11.230  31.140  10.618
79933W        W52358  20.513  33.412   1.280
79934W        W52359   3.166  43.829  14.498
79935W        W52360  18.910  40.948  11.479
79936W        W52361  12.208  14.982  12.836
79937W        W52362  15.216  34.178   4.611
79938W        W52363  12.269   6.256  13.344
79939W        W52364  22.045  13.647  11.765
79940W        W52365   1.758  37.830   1.363
79941W        W52366   9.595  41.400   3.576
79942W        W52367  12.202  28.463   3.945
79943W        W52368  10.378  19.437  14.815
79944W        W52369  39.985  27.074  10.502
79945W        W52370  31.925  35.065  10.738
79946W        W52371  28.912  12.882  14.059
79947W        W52372  11.822  37.489   1.365
79948W        W52373  38.655  38.833   4.217
79949W        W52374  43.783  27.956  10.546
79950W        W52375  29.146  40.713   1.738
79951W        W52376  24.980  15.558  14.015
79952W        W52377  21.195  26.684   2.698
79953W        W52378  24.983  21.908   1.470
79954W        W52379  29.961  44.385  10.656
79955W        W52380  29.945   7.438   0.780
79956W        W52381  17.287   2.694   4.996
79957W        W52382  43.798  22.788   3.149
79958W        W52383  34.255  31.167   0.880
79959W        W52384  15.132  27.662   3.338
79960W        W52385   7.706  30.725  12.654
79961W        W52386  44.418  25.443   3.685
79962W        W52387  43.257  13.823  13.862
79963W        W52388  19.578  33.682   2.859
79964W        W52389  41.415   9.787   2.453
79965W        W52390   8.608   9.208   4.978
79966W        W52391   1.275  39.764   0.075
79967W        W52392   6.750  39.464   2.455
79968W        W52393  10.835  11.615   5.007
79969W        W52394   2.360  18.215  14.579
79970W        W52395  35.623  23.323  12.164
79971W        W52396   4.217  21.704   2.732
79972W        W52397  44.386   4.785  14.112
79973W        W52398  15.126   2.429   3.785
79974W        W52399   8.645  41.750   2.485
79975W        W52400   5.357  11.367   4.562
79976W        W52401  42.334   9.093   4.866
79977W        W52402  44.016  19.174   0.446
79978W        W52403  14.290   3.566   3.731
79979W        W52404  40.261  24.077  12.115
79980W        W52405  12.755  35.634   2.830
79981W        W52406  25.592  31.860   4.869
79982W        W52407   3.434   7.208   4.440
79983W        W52408  32.423   2.875   2.475
79984W        W52409  29.354  19.014   4.356
79985W        W52410   3.495  30.047  10.574
79986W        W52411  15.298  44.204  12.099
79987W        W52412  39.285  32.320  11.169
79988W        W52413  19.241  26.341  13.362
79989W        W52414  16.202  44.207  13.137
79990W        W52415  40.232  17.620   2.629
79991W        W52416  26.199  13.272   1.199
79992W        W52417  42.255   2.978  12.018
79993W        W52418  33.079   9.728  12.983
79994W        W52419   1.967   9.876  10.690
79995W        W52420   2.506   4.865  12.164
79996W        W52421  27.205  16.702   2.916
79997W        W52422  39.024  33.154  13.827
79998W        W52423  37.710  10.056   4.059
79999W        W52424  16.882   1.589   0.850
80000W        W52425  23.540  18.701  11.971
80001W        W52426  11.874   1.872  13.016
80002W        W52427   8.368  41.379  14.934
80003W        W52428  15.608  10.870  13.654
80004W        W52429   3.500   8.055   2.209
80005W        W52430  37.405  16.131  10.811
80006W        W52431  36.957   3.952   4.216
80007W        W52432  29.525  34.725   4.709
80008W        W52433  40.775   4.755  13.527
80009W        W52434  14.551  10.161  11.065
80010W        W52435   6.410  44.186   5.123
80011W        W52436  30.122  18.671   4.181
80012W        W52437   4.774   5.241   0.443
80013W        W52438  14.613  23.685  14.544
80014W        W52439  26.405  38.959   0.817
80015W        W52440  19.165  40.996   0.921
80016W        W52441   4.849  12.310  14.157
80017W        W52442   3.839  37.373   2.861
80018W        W52443  26.111  44.545   1.369
80019W        W52444   3.828  34.859  10.833
80020W        W52445  26.026  18.858  10.692
80021W        W52446   0.138  40.020   0.146
80022W        W52447  21.642  15.248   0.361
80023W        W52448  13.201  35.123   0.676
80024W        W52449  17.575  36.134  14.877
80025W        W52450   1.758   1.824   2.131
80026W        W52451  23.295  14.926   4.497
80027W        W52452  41.946   7.256  13.256
80028W        W52453  40.930  42.215   4.203
80029W        W52454  25.386  10.890   2.132
80030W        W52455   5.424  11.780  12.159
80031W        W52456  39.994  14.013  14.920
80032W        W52457  37.747  15.564   0.843
80033W        W52458  17.558  31.945   5.518
80034W        W52459   6.133  23.375   1.288
80035W        W52460  12.607  17.074   4.700
80036W        W52461  23.174  25.971   2.789
80037W        W52462  22.503   8.685   1.891
80038W        W52463   1.704  15.881  11.003
80039W        W52464  28.867  39.042   3.124
80040W        W52465   2.850  23.536   3.585
80041W        W52466  28.686  44.974  12.129
80042W        W52467  15.795   0.413  12.458
80043W        W52468  39.398  42.343   4.976
80044W        W52469  11.263  37.765  12.066
80045W        W52470  16.127  33.940  14.221
80046W        W52471  33.646  25.119  13.556
80047W        W52472  36.404   4.518  13.085
80048W        W52473  38.607   7.300  12.371
80049W        W52474  24.677  21.985   1.066
80050W        W52475  10.734  14.795   3.130
80051W        W52476  37.529   7.331   4.222
80052W        W52477   2.289   9.955   2.242
80053W        W52478   5.300   9.912  12.051
80054W        W52479   0.860  28.240   4.302
80055W        W52480  39.275  18.331   2.318
80056W        W52481  14.820  40.322   0.212
80057W        W52482  35.940   9.825  11.343
80058W        W52483  30.565  17.639  14.469
80059W        W52484  23.923  29.685  10.672
80060W        W52485   2.061   5.932  13.362
80061W        W52486  43.873  37.844   1.212
80062W        W52487   9.999  43.834   0.224
80063W        W52488  32.915  44.705  13.895
80064W        W52489  38.734   0.229   3.195
80065W        W52490  23.777  11.633  10.023
80066W        W52491  20.559  17.002  14.411
80067W        W52492  27.288  26.705  13.029
80068W        W52493  19.295   8.900  12.035
80069W        W52494  42.429  18.033  12.990
80070W        W52495   0.480  10.477  13.431
80071W        W52496  17.417  41.793   1.938
80072W        W52497  14.679   9.217  13.961
80073W        W52498  36.019  40.013  10.561
80074W        W52499  37.939  22.311  10.608
80075W        W52500  34.354  11.359   2.656
80076W        W52501  37.083  16.568   1.440
80077W        W52502  17.880  33.014  12.477
80078W        W52503  43.268   1.510   3.893
80079W        W52504   9.378  41.274   4.026
80080W        W52505  25.613   7.481   0.182
80081W        W52506  29.144   1.399   4.162
80082W        W52507  13.675  42.378   3.879
80083W        W52508  22.173  26.655   4.259
80084W        W52509  21.496  35.135   3.317
80085W        W52510  38.868  13.934   4.621
80086W        W52511  27.955   7.752   4.146
80087W        W52512  22.316  27.082  12.400
80088W        W52513  14.134  11.867   0.452
80089W        W52514  44.381   1.947  10.124
80090W        W52515  15.501  36.828  12.031
80091W        W52516  27.670  10.716   0.248
80092W        W52517  33.572  16.746  10.114
80093W        W52518   2.561  44.260  11.011
80094W        W52519  43.218  16.736   0.414
80095W        W52520   5.376  30.638  12.064
80096W        W52521  13.359  27.834  10.944
80097W        W52522  36.575  37.468  12.070
80098W        W52523  44.728  31.471  13.542
80099W        W52524  34.858  16.727  10.707
80100W        W52525  29.882  14.298   0.958
80101W        W52526   0.904  13.939  13.899
80102W        W52527   0.695  28.669  10.809
80103W        W52528  35.260  38.333   4.160
80104W        W52529  33.210  27.188  12.850
80105W        W52530  12.404  31.554  11.727
80106W        W52531  30.699  29.397  12.294
80107W        W52532  15.334  19.308   2.886
80108W        W52533  19.639  18.165   4.534
80109W        W52534   0.428   0.967  13.301
80110W        W52535  32.818  44.934  11.561
80111W        W52536  19.076   5.143  11.564
80112W        W52537  16.796  18.034   3.333
80113W        W52538  30.537   0.953   4.153
80114W        W52539  16.344   6.582   0.259
80115W        W52540  34.362  22.050   1.396
80116W        W52541   9.618  15.333  10.353
80117W        W52542  14.408  34.531  14.046
80118W        W52543  17.226   5.498  11.965
80119W        W52544  37.513   3.131  12.162
80120W        W52545  43.561   9.657   4.089
80121W        W52546  11.420   2.733  13.815
80122W        W52547   2.295  25.624  14.356
80123W        W52548  28.135  11.543   4.636
80124W        W52549  22.523  22.686  11.631
80125W        W52550   1.763  19.616   2.323
80126W        W52551   6.776  33.334  11.181
80127W        W52552   2.909  15.112   0.781
80128W        W52553   1.927  20.814  13.017
80129W        W52554   4.290   6.740  14.002
80130W        W52555  18.557   8.534   1.224
80131W        W52556  21.548   7.761   4.528
80132W        W52557   9.258   1.982   2.871
80133W        W52558  34.926  15.171  11.012
80134W        W52559  28.466  13.271   0.725
80135W        W52560   9.908  21.885  11.309
80136W        W52561  17.977  28.605  11.081
80137W        W52562  17.687  43.713  14.418
80138W        W52563  41.751   8.823   2.184
80139W        W52564   4.387  35.486  13.420
80140W        W52565  12.052  17.048   4.655
80141W        W52566  42.943   9.887  12.068
80142W        W52567   7.916  18.958   4.218
80143W        W52568  11.432  27.048   3.188
80144W        W52569  16.730   1.960   2.870
80145W        W52570  15.660  36.018   0.166
80146W        W52571   5.869  42.881  13.828
80147W        W52572  15.208   1.496   2.508
80148W        W52573   6.859  28.446  12.873
80149W        W52574  42.895  21.180   1.791
80150W        W52575  40.715   2.849  11.197
80151W        W52576  20.574  27.432   2.992
80152W        W52577  24.645   5.992  14.208
80153W        W52578  33.840  40.968  10.456
80154W        W52579  16.202  35.020   0.527
80155W        W52580  17.574  16.932   3.670
80156W        W52581  40.930   1.342  12.583
80157W        W52582  44.024  17.103  11.877
80158W        W52583  23.027   1.380   2.811
80159W        W52584  30.577  35.788   2.407
80160W        W52585   7.959  15.342   3.650
80161W        W52586  21.496  13.593  13.042
80162W        W52587  29.026  41.643   4.088
80163W        W52588   6.293  26.601   0.547
80164W        W52589   6.472  19.444  13.632
80165W        W52590  23.391   6.336  12.455
80166W        W52591  11.959  42.758  11.658
80167W        W52592  28.625  14.134  12.600
80168W        W52593  22.706   8.855  13.312
80169W        W52594  16.099  21.443  10.094
80170W        W52595  11.709   0.026  12.843
80171W        W52596  32.371  21.219  10.620
80172W        W52597  38.550  39.100  12.445
80173W        W52598  38.476  10.105  14.240
80174W        W52599  30.173  20.317  13.004
80175W        W52600  41.043  42.534   9.956
80176W        W52601  43.876  38.525   1.780
80177W        W52602  18.388  33.374   0.661
80178W        W52603  42.127   1.408   2.955
80179W        W52604  16.245  16.462   4.546
80180W        W52605  27.440  30.541  10.663
80181W        W52606  18.656  29.549  10.405
80182W        W52607  44.932  41.865   3.115
80183W        W52608  14.124   3.366   2.765
80184W        W52609   0.160  22.438  11.352
80185W        W52610  19.467   1.463   4.849
80186W        W52611  12.848  44.238  12.012
80187W        W52612  27.026  39.768  10.760
80188W        W52613  31.544  33.169   2.293
80189W        W52614  39.462  32.503   1.853
80190W        W52615  13.791  25.773   1.043
80191W        W52616   0.477  14.245  13.856
80192W        W52617  26.631  23.638  12.123
80193W        W52618  15.935  38.465   0.369
80194W        W52619   0.818  20.074  11.570
80195W        W52620   8.929  16.530  11.597
80196W        W52621  19.077   6.820  12.678
80197W        W52622   8.381   7.767  14.239
80198W        W52623  27.821   9.329  13.557
80199W        W52624  19.422  33.694  14.990
80200W        W52625  10.561  43.031  14.559
80201W        W52626  19.660   0.743  10.640
80202W        W52627  33.849  18.118   2.654
80203W        W52628  22.401   1.761  10.714
80204W        W52629  17.264  39.437   2.762
80205W        W52630  34.970  25.532  13.679
80206W        W52631  43.711  32.411  12.033
80207W        W52632  33.332  37.012   0.222
80208W        W52633  22.710  38.856  11.129
80209W        W52634   6.864   7.711  13.142
80210W        W52635   3.153  20.638   2.256
80211W        W52636  27.688  13.281  10.183
80212W        W52637  21.603  32.673  10.792
80213W        W52638   8.918   6.148   1.376
80214W        W52639  23.737  21.958  14.232
80215W        W52640  24.106  25.890  10.514
80216W        W52641  19.289  19.752   2.657
80217W        W52642  24.687  38.845  14.047
80218W        W52643  43.468  29.929   0.317
80219W        W52644  42.312  32.906  11.153
80220W        W52645  17.001  37.586  10.967
80221W        W52646   0.795  42.732   3.308
80222W        W52647  32.933  42.967   0.439
80223W        W52648  44.911  31.789   2.213
80224W        W52649  13.525   3.190  11.540
80225W        W52650   5.179  44.713  14.050
80226W        W52651  26.629  16.659  11.178
80227W        W52652  20.520  22.063   1.752
80228W        W52653  22.650  17.516  14.894
80229W        W52654  13.674  42.492   2.321
80230W        W52655  34.361   0.912   4.092
80231W        W52656  37.356  30.402  12.507
80232W        W52657  24.508  16.256  14.854
80233W        W52658  31.217  37.874   4.183
80234W        W52659  34.080  40.410   2.586
80235W        W52660  36.907  44.932  13.441
80236W        W52661  30.286   6.843  14.971
80237W        W52662   9.982   0.225  13.919
80238W        W52663  22.851   6.429  11.137
80239W        W52664  37.435  23.624   3.865
80240W        W52665  11.606  35.469   4.548
80241W        W52666  15.049  27.098   4.118
80242W        W52667  20.616   9.949   0.784
80243W        W52668   7.225  12.774  11.939
80244W        W52669  20.921   4.180   1.745
80245W        W52670  44.716  32.176   0.111
80246W        W52671  36.937  43.102  12.433
80247W        W52672  26.250  24.558  11.708
80248W        W52673   3.311  33.095   2.724
80249W        W52674  15.882  22.175   1.837
80250W        W52675  18.670  24.249   2.617
80251W        W52676  19.244  42.422   1.875
80252W        W52677   5.891  38.497   2.278
80253W        W52678   6.887  24.969  13.084
80254W        W52679  35.704  22.712  12.929
80255W        W52680  10.158  35.825   1.567
80256W        W52681  32.149  21.184   1.215
80257W        W52682  28.675   5.982   0.866
80258W        W52683  28.340  41.474  14.210
80259W        W52684  42.431  35.211  13.022
80260W        W52685  35.640  25.446  14.818
80261W        W52686  39.410  13.359  11.956
80262W        W52687  16.997  34.875  13.085
80263W        W52688  32.830   5.683  13.964
80264W        W52689   3.693  28.191  12.744
80265W        W52690  32.120  37.775   0.239
80266W        W52691   6.805  11.626   3.636
80267W        W52692  37.847  11.746  14.332
80268W        W52693  15.857  15.618  11.875
80269W        W52694   3.368  35.335  13.906
80270W        W52695  29.948  39.536   2.406
80271W        W52696   1.085  10.025   2.368
80272W        W52697  43.172  29.657   3.131
80273W        W52698  33.375  29.456   2.189
80274W        W52699   3.352  19.470   2.864
80275W        W52700  14.158  29.046  14.859
80276W        W52701  30.745  40.188  13.425
80277W        W52702  12.158  42.504   3.198
80278W        W52703  43.272  35.092  12.002
80279W        W52704  24.550   9.786   0.350
80280W        W52705   2.223  36.044  10.677
80281W        W52706  14.194  29.229   3.274
80282W        W52707  41.464  15.793   3.871
80283W        W52708  31.609  32.206   1.237
80284W        W52709  35.570   3.291  11.160
80285W        W52710  31.124  15.825  12.299
80286W        W52711  15.159   6.910  14.821
80287W        W52712  33.354   5.227   0.824
80288W        W52713  34.247  38.406   0.882
80289W        W52714  38.372  26.993   0.149
80290W        W52715  36.942  17.173   1.801
80291W        W52716  13.864  38.942   0.910
80292W        W52717  15.801  41.512  11.477
80293W        W52718  18.946   7.673   0.932
80294W        W52719   5.591  14.178   5.103
80295W        W52720  31.049  15.780   0.825
80296W        W52721  28.784   0.758   3.556
80297W        W52722  29.381  30.130  11.014
80298W        W52723  26.180  11.750  11.880
80299W        W52724   9.262  17.041  10.911
80300W        W52725  17.521   7.764  10.750
80301W        W52726  24.721   7.780   1.060
80302W        W52727  15.206  11.367  11.176
80303W        W52728  20.290  40.717  11.636
80304W        W52729  18.222  16.687   0.231
80305W        W52730  27.726  19.404   2.866
80306W        W52731  21.042   5.756  14.818
80307W        W52732   8.364  12.176  12.443
80308W        W52733  10.328   0.505  10.688
80309W        W52734  13.375  25.918   2.961
80310W        W52735  15.750  33.646  14.492
80311W        W52736   8.976  16.607  10.742
80312W        W52737  43.393  33.454   0.501
80313W        W52738  28.985   8.744   4.560
80314W        W52739  21.069  38.846  14.818
80315W        W52740  41.088   0.013   1.915
80316W        W52741  34.830  34.400   0.301
80317W        W52742  38.032   0.315  12.666
80318W        W52743  12.674  13.800  12.479
80319W        W52744  27.165  31.530   4.521
80320W        W52745  41.401  23.574  13.952
80321W        W52746  27.701   7.457   4.624
80322W        W52747  11.669  15.609  10.685
80323W        W52748  28.886  13.260   4.528
80324W        W52749   4.983  18.199  13.722
80325W        W52750  32.029  12.919  11.436
80326W        W52751  12.885   2.994  11.519
80327W        W52752  26.353  37.971  10.299
80328W        W52753  39.562   7.482  13.618
80329W        W52754   3.968   7.864   2.305
80330W        W52755  40.520  19.781   3.814
80331W        W52756  32.056   6.828   4.654
80332W        W52757  24.657  38.594   0.296
80333W        W52758  13.391  24.746   5.172
80334W        W52759  42.774  26.498  14.761
80335W        W52760  19.723  38.524   0.782
80336W        W52761  13.217  21.687  12.707
80337W        W52762  35.394   9.859  14.012
80338W        W52763  25.950  12.047   4.227
80339W        W52764  22.293   2.303   1.399
80340W        W52765   1.080  35.344  10.579
80341W        W52766   8.771   6.199   9.713
80342W        W52767  33.092   7.186   4.103
80343W        W52768  10.761  29.021  11.571
80344W        W52769  27.513   1.524  13.816
80345W        W52770  30.019  43.447   4.624
80346W        W52771   6.382  10.750  11.980
80347W        W52772  40.402  12.707   5.088
80348W        W52773   5.550  11.670   2.983
80349W        W52774  42.050   8.235  12.050
80350W        W52775   6.841   0.080   1.450
80351W        W52776  20.718  18.298   4.374
80352W        W52777  39.335  42.116   1.995
80353W        W52778  15.243  19.770   3.105
80354W        W52779  13.686   2.224  12.631
80355W        W52780  35.056  35.032   3.214
80356W        W52781  27.033  31.920   1.305
80357W        W52782  37.895  16.263   2.054
80358W        W52783  24.588  30.091  14.073
80359W        W52784  38.473   3.282   4.251
80360W        W52785  14.333  22.646   3.227
80361W        W52786  36.299  32.165  13.875
80362W        W52787  36.657   9.453  10.728
80363W        W52788   8.711  31.602   0.333
80364W        W52789  36.046   7.789  13.211
80365W        W52790   9.376  13.109  12.381
80366W        W52791  34.160   8.314  13.497
80367W        W52792   4.243   0.244  11.970
80368W        W52793  30.952   8.592  10.530
80369W        W52794  18.181  34.387   0.804
80370W        W52795   4.562   0.837   0.369
80371W        W52796  33.691  27.949  12.392
80372W        W52797  32.203   4.913   0.919
80373W        W52798   5.966  27.645  10.990
80374W        W52799  22.739  27.942   3.172
80375W        W52800  25.184   6.725  14.722
80376W        W52801  36.744  41.227  11.704
80377W        W52802  44.324  38.322  10.648
80378W        W52803  23.379  43.309  14.410
80379W        W52804  37.920  27.696   1.160
80380W        W52805  10.728  19.796   1.178
80381W        W52806  44.776  35.367   3.208
80382W        W52807  41.844   1.314   2.493
80383W        W52808  31.935  36.344   0.919
80384W        W52809  24.381  18.657  12.051
80385W        W52810  40.377  22.582   3.290
80386W        W52811  27.168   8.451  11.971
80387W        W52812   2.904  28.025  11.205
80388W        W52813   0.287   8.164  13.316
80389W        W52814  33.428  40.872   4.592
80390W        W52815  11.138  42.533   4.161
80391W        W52816  21.257  25.540   3.702
80392W        W52817  12.293  24.122  11.633
80393W        W52818  39.058  12.852  13.295
80394W        W52819  34.578   0.327  10.431
80395W        W52820   1.388  23.581  10.483
80396W        W52821   7.846  11.164   2.844
80397W        W52822   3.908  23.191  10.729
80398W        W52823  24.095   1.011  12.013
80399W        W52824   8.248  15.503   4.107
80400W        W52825   2.312  23.623   1.847
80401W        W52826  23.090   1.231   4.743
80402W        W52827  16.149  34.553  13.124
80403W        W52828  13.347  43.292  14.155
80404W        W52829  17.080  32.488  11.527
80405W        W52830  22.213  15.138   0.458
80406W        W52831  42.488   1.795   0.908
80407W        W52832  41.434  38.922   3.296
80408W        W52833  27.564  28.466  12.858
80409W        W52834  34.827  40.064   4.604
80410W        W52835  21.478  21.002  14.546
80411W        W52836   0.329  39.384   1.566
80412W        W52837  29.651   5.420  13.029
80413W        W52838  38.830  37.916   0.889
80414W        W52839  26.447  31.791  12.999
80415W        W52840  37.392  34.725   2.780
80416W        W52841  44.697   2.304  13.743
80417W        W52842  12.712  20.844   1.316
80418W        W52843   5.779  12.271  11.024
80419W        W52844  44.375  11.820   0.679
80420W        W52845  26.001   8.866   0.293
80421W        W52846  20.195  30.597  10.211
80422W        W52847  25.906  18.371  10.632
80423W        W52848  19.674  26.534  13.838
80424W        W52849  10.094   8.226   3.256
80425W        W52850  12.807  24.528  12.835
80426W        W52851  19.829  15.826  14.853
80427W        W52852   9.370   9.730   0.814
80428W        W52853  24.736  16.181  11.897
80429W        W52854  37.484  26.708  11.446
80430W        W52855  34.038   1.497   2.918
80431W        W52856   7.613  32.722  13.814
80432W        W52857  43.385   5.999  12.511
80433W        W52858  11.763   8.939   3.229
80434W        W52859  14.743  36.024   4.162
80435W        W52860   1.424  13.331   3.099
80436W        W52861  19.795  11.616   3.889
80437W        W52862  14.158  44.062   2.788
80438W        W52863  35.216  10.832   1.299
80439W        W52864  11.119  29.788  13.940
80440W        W52865  33.161  29.640  12.868
80441W        W52866  26.010  18.808   1.758
80442W        W52867   2.446  21.766   4.148
80443W        W52868  44.577   4.806  11.556
80444W        W52869  15.289   2.280   0.738
80445W        W52870  27.412   4.350  13.428
80446W        W52871  10.910  16.212  11.998
80447W        W52872  29.578  26.013   4.180
80448W        W52873  41.922   2.708   2.099
80449W        W52874  24.976  42.293  10.611
80450W        W52875   1.890  11.642   3.315
80451W        W52876  44.250  14.057  12.864
80452W        W52877  23.140  36.606   2.885
80453W        W52878  40.308   8.722   2.212
80454W        W52879  30.113  44.971   3.131
80455W        W52880  13.134  23.504  11.797
80456W        W52881  25.608  40.075  13.070
80457W        W52882   8.170   1.824   3.249
80458W        W52883  37.562  39.393   3.783
80459W        W52884   8.379  17.654  13.256
80460W        W52885   4.109  31.635  11.947
80461W        W52886  13.964  16.716   2.710
80462W        W52887  24.210  31.082   1.777
80463W        W52888  16.308   0.348  13.348
80464W        W52889  16.217  44.709   4.689
80465W        W52890   6.241  33.683   4.485
80466W        W52891  20.999  40.474   0.622
80467W        W52892  41.537   4.795   2.698
80468W        W52893  42.998  37.554   4.177
80469W        W52894  15.778  15.410   0.261
80470W        W52895   3.409  40.897   4.000
80471W        W52896  24.578  36.038   3.584
80472W        W52897  22.183  31.956   2.709
80473W        W52898  18.927  36.267  12.579
80474W        W52899  21.682  39.258   3.799
80475W        W52900   2.368   8.932  10.699
80476W        W52901   5.239  20.322   3.174
80477W        W52902  36.998  29.007   1.062
80478W        W52903  23.570  21.395   3.356
80479W        W52904  21.784  17.654  12.512
80480W        W52905  27.908   9.605   0.312
80481W        W52906  27.565  43.511  12.011
80482W        W52907  44.347  15.579  13.734
80483W        W52908  29.281  31.279  10.168
80484W        W52909  11.885  17.654   2.571
80485W        W52910  35.109  23.109   4.990
80486W        W52911  17.587  20.616  11.141
80487W        W52912  11.296  13.391   0.978
80488W        W52913  24.064   6.937  11.439
80489W        W52914   8.660  10.305  14.510
80490W        W52915  18.385  14.040   0.925
80491W        W52916  36.903  22.507   1.104
80492W        W52917   2.447  13.205   5.382
80493W        W52918   6.264  22.067   3.136
80494W        W52919  28.657   4.428  12.037
80495W        W52920  28.124  30.152   3.760
80496W        W52921  15.637  23.155  12.478
80497W        W52922   9.568   5.443  10.623
80498W        W52923  22.427  28.820  10.002
80499W        W52924  39.891   6.763   4.563
80500W        W52925  11.406  14.265  10.544
80501W        W52926   1.754  38.555  11.631
80502W        W52927  44.335  33.162   1.271
80503W        W52928   4.031  24.068  14.827
80504W        W52929  43.470  33.910   2.771
80505W        W52930  37.957   9.393   0.185
80506W        W52931  32.092  28.013  11.671
80507W        W52932  35.628  15.871   2.333
80508W        W52933  20.046  16.501  11.136
80509W        W52934  33.176  17.142   5.071
80510W        W52935  34.669  17.365   3.292
80511W        W52936  11.689  44.780   0.834
80512W        W52937  28.983  38.623  12.940
80513W        W52938  24.479  17.464  10.811
80514W        W52939  27.222  23.366   3.588
80515W        W52940  16.024  20.669   4.288
80516W        W52941   8.602  14.735   2.333
80517W        W52942   5.903  39.979   3.322
80518W        W52943  37.812  28.116  11.558
80519W        W52944  23.248  28.748  14.590
80520W        W52945  44.148  15.211   3.108
80521W        W52946   9.406   5.874  11.536
80522W        W52947  26.993   7.800  10.629
80523W        W52948  33.102  14.835   2.712
80524W        W52949   4.347   6.212   2.164
80525W        W52950  14.622  35.989   2.301
80526W        W52951  44.396  29.927   3.789
80527W        W52952  37.316  16.615   2.732
80528W        W52953   4.677  22.515  12.569
80529W        W52954  34.793   9.079  11.602
80530W        W52955   1.955  30.606  14.486
80531W        W52956   9.153  15.223  11.746
80532W        W52957  13.091  30.319   3.770
80533W        W52958  18.150  20.258  11.137
80534W        W52959  14.098  37.897   0.929
80535W        W52960  37.630   6.683  11.741
80536W        W52961  18.098  43.031   4.737
80537W        W52962  32.116  39.838  13.748
80538W        W52963  33.489   6.184   4.803
80539W        W52964  10.430  33.616  12.542
80540W        W52965  29.364  37.996   1.530
80541W        W52966   2.084  12.199  13.517
80542W        W52967  41.341  27.647  14.409
80543W        W52968  44.888  44.925  12.237
80544W        W52969  18.343  29.151   0.403
80545W        W52970  36.331  35.555  12.395
80546W        W52971  31.140  29.110  12.393
80547W        W52972  20.105  14.700   4.568
80548W        W52973   2.806  19.653  11.548
80549W        W52974  34.421  16.849  10.412
80550W        W52975  23.597  20.533  14.318
80551W        W52976  21.733  20.842  12.290
80552W        W52977   1.421  19.697   0.908
80553W        W52978  25.635  29.551   1.006
80554W        W52979  31.489  20.697  12.726
80555W        W52980  35.435  12.849  13.362
80556W        W52981  11.759  13.601   2.223
80557W        W52982   9.473  38.891  11.171
80558W        W52983  17.125  24.237  12.510
80559W        W52984   4.857  13.731   3.422
80560W        W52985  43.190  25.210   2.396
80561W        W52986  31.950  39.308  10.522
80562W        W52987  10.628  40.773  13.027
80563W        W52988  23.570  30.177  12.446
80564W        W52989  29.516  11.288   1.398
80565W        W52990  41.512  30.027   2.792
80566W        W52991  16.240  24.803  11.553
80567W        W52992  11.276   1.938  12.422
80568W        W52993  20.335  30.897   2.706
80569W        W52994  10.100  41.920  14.789
80570W        W52995   7.329   5.635  10.250
80571W        W52996   0.554  23.917  11.523
80572W        W52997  29.140  29.721  13.028
80573W        W52998   1.270  22.063   1.871
80574W        W52999  23.056   1.223  12.386
80575W        W53000   0.304   5.058   4.131
80576W        W53001  39.024  39.874  10.599
80577W        W53002  34.123  36.845  12.879
80578W        W53003  27.314  31.038  14.929
80579W        W53004  13.276  23.892  14.801
80580W        W53005  35.460  27.048  10.761
80581W        W53006  16.457  12.166   3.635
80582W        W53007  16.555   5.798   1.147
80583W        W53008  32.645   9.716  11.186
80584W        W53009  15.161  22.108   3.415
80585W        W53010  30.576  30.333  12.017
80586W        W53011  25.945  42.026  11.110
80587W        W53012   1.860  35.059  14.032
80588W        W53013   6.712  40.256  14.135
80589W        W53014  28.531  25.853   3.235
80590W        W53015  38.068  12.699  11.756
80591W        W53016  15.226  37.445  11.666
80592W        W53017   9.699  13.199  13.971
80593W        W53018  21.630   6.443  12.925
80594W        W53019  32.121  11.820  14.574
80595W        W53020   6.486  37.030  12.395
80596W        W53021  19.682  22.664   0.036
80597W        W53022  29.561   5.878   4.617
80598W        W53023   9.270  14.778  12.817
80599W        W53024  35.617  17.265   1.443
80600W        W53025  11.543   5.807  11.475
80601W        W53026  19.539  11.587   2.058
80602W        W53027   9.434  42.239   4.155
80603W        W53028  38.731  16.150  11.571
80604W        W53029  37.257   9.718  11.387
80605W        W53030  29.401  11.652   4.659
80606W        W53031  17.682  13.263  13.835
80607W        W53032  23.158  20.649   4.661
80608W        W53033  32.603   5.334  11.412
80609W        W53034  34.243  43.042   4.030
80610W        W53035  30.619   2.323  11.103
80611W        W53036  11.951   0.735  10.937
80612W        W53037  44.194  32.962  14.746
80613W        W53038  35.840  40.173   4.909
80614W        W53039  38.068   1.372  10.730
80615W        W53040  15.249  27.376  12.871
80616W        W53041  33.882  35.618   4.167
80617W        W53042  19.184  23.225   3.708
80618W        W53043  20.964  23.070   3.335
80619W        W53044  10.543  20.168   4.498
80620W        W53045   2.277   6.354  12.540
80621W        W53046  19.297  44.227   2.252
80622W        W53047  21.070  25.679  10.765
80623W        W53048  12.412  35.736   4.427
80624W        W53049  32.839  32.461   0.950
80625W        W53050  19.181   4.689  12.936
80626W        W53051   3.040  21.609   0.778
80627W        W53052   0.779  17.077  14.313
80628W        W53053   0.478   7.329   4.405
80629W        W53054  29.600   2.220   2.394
80630W        W53055  26.909  33.704  12.933
80631W        W53056  16.186   1.496   0.309
80632W        W53057  22.812  15.618   0.358
80633W        W53058  41.289  41.348   4.103
80634W        W53059  36.090  35.024   4.104
80635W        W53060   3.726  19.832   1.303
80636W        W53061  31.923  19.765   1.895
80637W        W53062   8.444  19.189  12.958
80638W        W53063  28.684  28.473  13.874
80639W        W53064   8.731  41.531   4.611
80640W        W53065  44.225  43.876   2.203
80641W        W53066  21.115  34.953   5.080
80642W        W53067  22.785   8.889  11.454
80643W        W53068  32.349   9.146  12.447
80644W        W53069  18.481   3.791   4.569
80645W        W53070  43.536  22.446  13.940
80646W        W53071  17.030   4.904   1.597
80647W        W53072   4.954  34.930   3.732
80648W        W53073  36.453  14.812   4.647
80649W        W53074  44.054  11.193  10.649
80650W        W53075   8.597  13.095  14.356
80651W        W53076   7.196   3.997   4.220
80652W        W53077   9.299  36.865   3.600
80653W        W53078  25.374  16.032  14.890
80654W        W53079  38.406  18.290   3.168
80655W        W53080  34.108  24.020  12.399
80656W        W53081  15.497  30.978   2.181
80657W        W53082  22.779  28.925   5.030
80658W        W53083  12.276  30.614  13.957
80659W        W53084  11.137   5.807  13.431
80660W        W53085  12.406  18.489  14.471
80661W        W53086  18.147  12.005   4.553
80662W        W53087  34.334  18.554   0.837
80663W        W53088  28.224  13.238   2.537
80664W        W53089  40.065   4.694   4.552
80665W        W53090  16.298  27.156  13.762
80666W        W53091   4.366  12.683   2.843
80667W        W53092  23.019   2.246   4.449
80668W        W53093   8.732  20.312  11.689
80669W        W53094  38.750   9.174  12.019
80670W        W53095  36.121  38.156   2.630
80671W        W53096  15.360  42.528  13.271
80672W        W53097  24.122  12.221   4.759
80673W        W53098  44.668  23.566   1.469
80674W        W53099   0.099  18.129   1.784
80675W        W53100  16.106  30.653  11.682
80676W        W53101  10.756   1.242   3.144
80677W        W53102   3.563  39.434   3.521
80678W        W53103  21.787   2.346   1.244
80679W        W53104  17.116  21.274   0.896
80680W        W53105  10.959  15.597  13.348
80681W        W53106  11.358   1.966  14.809
80682W        W53107   8.962  28.428   3.220
80683W        W53108  10.444   5.854   9.865
80684W        W53109  30.612  36.055  13.937
80685W        W53110  16.802  39.227  14.928
80686W        W53111  11.530  30.904   3.659
80687W        W53112   0.579  21.172  10.962
80688W        W53113  38.074  41.403   1.885
80689W        W53114  12.219  28.306   1.191
80690W        W53115   0.774  38.763  10.616
80691W        W53116  16.728  36.406   1.733
80692W        W53117  15.023  33.142   0.979
80693W        W53118  32.923  26.631   2.256
80694W        W53119  21.218   3.467  12.637
80695W        W53120  40.609  32.000  10.578
80696W        W53121  20.764  26.172   3.237
80697W        W53122  35.613  24.664   5.420
80698W        W53123   3.514  43.926  11.220
80699W        W53124  37.819   6.936   0.385
80700W        W53125  38.817  11.816   1.744
80701W        W53126   9.085   6.390  14.898
80702W        W53127   0.921  18.181  12.406
80703W        W53128  17.110  14.739   0.807
80704W        W53129  25.403   7.835  10.445
80705W        W53130  35.683  23.153  12.669
80706W        W53131  15.107  43.836   3.648
80707W        W53132  14.765  44.872   4.415
80708W        W53133  11.213  19.578   1.162
80709W        W53134  32.149  24.114   2.743
80710W        W53135  31.170  42.891  12.443
80711W        W53136  12.459   5.416   2.798
80712W        W53137  14.075  19.118   0.202
80713W        W53138  38.538   9.946   0.763
80714W        W53139   9.768  44.475  14.455
80715W        W53140   0.570   0.547  14.862
80716W        W53141  27.376  43.233  13.237
80717W        W53142  25.028   3.905   2.398
80718W        W53143  38.402   9.752   2.434
80719W        W53144  43.016  13.221   0.968
80720W        W53145  21.511   7.356  13.114
80721W        W53146   7.216  42.956  13.201
80722W        W53147   8.857  38.485   0.335
80723W        W53148   1.885  28.071   0.778
80724W        W53149   3.923   2.241  12.130
80725W        W53150  13.858  30.452   4.163
80726W        W53151   1.062  13.031  11.210
80727W        W53152  38.791  30.531  14.856
80728W        W53153  26.020  18.104   3.297
80729W        W53154  24.969   8.991   0.435
80730W        W53155   9.670   8.981   3.755
80731W        W53156  23.813  33.455  11.637
80732W        W53157  18.650  42.727   0.311
80733W        W53158  26.672  25.443   3.261
80734W        W53159  13.636  18.428  14.754
80735W        W53160   4.822  12.227   4.530
80736W        W53161  36.925  28.075  12.975
80737W        W53162  43.832  31.672  12.484
80738W        W53163  43.549  13.234   2.900
80739W        W53164  37.449   4.401  12.464
80740W        W53165  16.508  26.695  13.826
80741W        W53166   6.091  35.550  11.978
80742W        W53167  25.114  27.729  12.555
80743W        W53168  43.865   8.756   1.252
80744W        W53169   7.832  29.101   2.895
80745W        W53170  31.638   4.880  14.984
80746W        W53171  26.051   8.418   2.267
80747W        W53172   0.237  35.013   4.899
80748W        W53173   8.265  16.522   4.182
80749W        W53174  22.308  41.852   3.324
80750W        W53175   3.261  39.889   4.817
80751W        W53176  22.063  39.914  13.527
80752W        W53177  34.153  30.606  12.149
80753W        W53178  39.290  25.315  10.719
80754W        W53179  32.215  27.621   1.875
80755W        W53180  31.587  16.334  13.062
80756W        W53181  36.738  40.502   3.293
80757W        W53182  10.214  30.643  13.502
80758W        W53183  21.797  35.339   1.423
80759W        W53184  30.930  26.939  14.005
80760W        W53185  21.681   8.369   2.201
80761W        W53186  28.405  15.689   1.354
80762W        W53187  31.349  30.637  11.589
80763W        W53188   2.485  41.152   5.219
80764W        W53189  43.397  41.986   0.398
80765W        W53190  18.965  23.792  13.016
80766W        W53191  30.938   7.184  12.577
80767W        W53192  25.571  27.697  11.934
80768W        W53193   4.363   7.264   1.999
80769W        W53194  27.454  30.465  13.814
80770W        W53195  31.140  26.510   4.611
80771W        W53196  24.963  25.677  12.429
80772W        W53197  26.221   7.865  14.010
80773W        W53198  33.924   8.639  11.560
80774W        W53199  44.719  10.297  12.008
80775W        W53200  16.550  33.684   4.192
80776W        W53201  32.649   4.800   1.859
80777W        W53202  15.336  15.791  11.047
80778W        W53203   0.314  24.189  11.116
80779W        W53204  39.067  19.716  12.613
80780W        W53205  14.461  36.482  11.647
80781W        W53206   6.320  39.958   4.235
80782W        W53207  40.010  11.133   4.010
80783W        W53208  21.224  18.757   3.251
80784W        W53209  18.792   8.946   3.358
80785W        W53210  44.870   4.873  11.972
80786W        W53211  35.136  39.719   4.405
80787W        W53212  42.038  32.390   4.149
80788W        W53213  43.537   8.644  14.061
80789W        W53214  14.784  30.085  11.553
80790W        W53215   3.035   7.256  14.717
80791W        W53216  21.396  17.263   3.781
80792W        W53217  16.281   2.531   0.426
80793W        W53218  18.805  23.526   2.091
80794W        W53219  23.907  42.957   5.092
80795W        W53220  24.159  40.606  12.165
80796W        W53221  29.523  32.633   2.867
80797W        W53222  42.236  25.519  14.993
80798W        W53223  38.402  22.668   3.396
80799W        W53224  15.837  30.979   2.571
80800W        W53225  33.454  39.682  12.558
80801W        W53226   9.641  24.764  10.670
80802W        W53227  31.842   5.920   2.581
80803W        W53228  21.650  30.229  13.156
80804W        W53229  11.772  27.554   1.615
80805W        W53230  26.135  24.615  13.083
80806W        W53231  28.501   3.181   2.048
80807W        W53232  37.458  24.694  12.386
80808W        W53233  28.697  15.796   3.686
80809W        W53234  32.840  17.228  14.872
80810W        W53235  15.318  33.669   1.910
80811W        W53236  10.391   0.546  13.017
80812W        W53237   5.307  24.981  11.594
80813W        W53238  30.117  13.641   4.140
80814W        W53239  30.714  15.107  12.379
80815W        W53240  35.939  10.337  11.170
80816W        W53241  38.522   8.945   1.307
80817W        W53242   1.940  36.690   2.477
80818W        W53243  41.182  35.881   1.045
80819W        W53244  13.163  39.564  11.582
80820W        W53245   8.290  30.054  13.760
80821W        W53246   4.134  27.662   2.228
80822W        W53247  41.320  11.090   4.134
80823W        W53248  34.413  26.484  13.015
80824W        W53249   2.195  11.692   1.697
80825W        W53250   3.713  13.609  11.161
80826W        W53251  10.430  31.953  10.621
80827W        W53252  12.166   2.521   0.668
80828W        W53253  24.620  25.703  14.757
80829W        W53254  30.179  40.215   4.435
80830W        W53255  13.258  43.677   3.819
80831W        W53256   0.644   9.032   3.246
80832W        W53257  29.863  36.819   1.995
80833W        W53258  24.395   0.908  14.340
80834W        W53259  15.802  37.012  12.937
80835W        W53260  23.882  23.619  14.508
80836W        W53261  14.259  15.882   1.168
80837W        W53262  17.711  43.195  14.413
80838W        W53263  14.074  31.505   1.863
80839W        W53264  11.758  29.643   5.458
80840W        W53265  38.385  10.437   0.753
80841W        W53266  31.209  22.445  12.029
80842W        W53267   2.509  28.841  12.520
80843W        W53268  25.373  40.667  14.823
80844W        W53269  19.078   3.436  14.340
80845W        W53270  30.427  42.558  11.946
80846W        W53271  29.473  31.213  13.912
80847W        W53272  15.774   9.826  10.652
80848W        W53273  41.112   0.370  12.494
80849W        W53274  14.259  27.607   4.967
80850W        W53275  42.839  11.097   3.185
80851W        W53276  42.101  21.074  12.849
80852W        W53277   3.447  38.380  12.008
80853W        W53278  27.724  17.075  14.341
80854W        W53279  25.377   9.713  12.860
80855W        W53280   6.010  44.994   3.678
80856W        W53281   9.285  36.953  11.864
80857W        W53282  37.074  12.321  10.549
80858W        W53283  44.804  42.398  10.750
80859W        W53284   2.305  32.450   0.364
80860W        W53285   9.885  23.784   2.771
80861W        W53286  24.132  23.334  11.914
80862W        W53287  19.398  33.182   2.871
80863W        W53288  42.466  38.406  12.633
80864W        W53289  25.680   7.662  14.705
80865W        W53290  32.106  34.142  10.567
80866W        W53291  20.229  24.630  13.931
80867W        W53292  25.795  18.332  13.790
80868W        W53293   7.154  20.799  10.722
80869W        W53294   1.179  31.158   0.540
80870W        W53295  31.253  42.049  10.775
80871W        W53296   0.087  14.650  11.424
80872W        W53297   4.681  27.119   2.822
80873W        W53298  23.381   8.242   4.917
80874W        W53299  42.343   5.799  13.850
80875W        W53300  35.728  21.314   2.547
80876W        W53301  29.138  18.574   1.720
80877W        W53302  37.179  41.365   3.883
80878W        W53303  12.826   6.742   2.834
80879W        W53304  35.219  38.594  12.036
80880W        W53305  23.095  39.037   4.044
80881W        W53306   5.319   6.760   1.034
80882W        W53307  10.142  24.008   0.815
80883W        W53308  19.014  42.577   2.882
80884W        W53309  20.745  14.139  11.710
80885W        W53310   4.517  16.195   2.881
80886W        W53311   2.955  16.144  13.893
80887W        W53312  35.192  24.606   5.130
80888W        W53313  33.583  15.058   2.889
80889W        W53314   2.231  40.866   3.139
80890W        W53315   0.594   5.701   1.780
80891W        W53316  23.788  18.253  13.960
80892W        W53317  10.221  27.024   4.166
80893W        W53318  11.628  35.350  12.981
80894W        W53319  31.534  20.460   0.782
80895W        W53320  42.913  42.335   1.233
80896W        W53321   8.029  17.205   0.666
80897W        W53322  21.375  17.770   3.696
80898W        W53323  39.093   5.443   3.221
80899W        W53324  25.041  39.436   4.499
80900W        W53325  32.590   3.968   1.935
80901W        W53326  14.728  16.961   4.363
80902W        W53327  37.661  34.955   1.250
80903W        W53328   4.042  32.585  14.591
80904W        W53329  37.388  24.671   3.320
80905W        W53330  17.679  38.291  13.890
80906W        W53331  14.942  22.294  11.985
80907W        W53332  11.599  25.156   0.151
80908W        W53333  15.027  23.666  12.022
80909W        W53334  40.957  35.864  10.549
80910W        W53335  17.258  24.997  12.004
80911W        W53336  18.010  21.519   0.895
80912W        W53337  35.605  28.296   3.649
80913W        W53338  24.596   0.031   1.877
80914W        W53339  28.905   6.966   3.092
80915W        W53340  27.786  24.132   3.879
80916W        W53341  18.643  31.332   3.718
80917W        W53342  27.104  24.252   3.167
80918W        W53343  37.546  29.430  12.174
80919W        W53344  17.688  19.081   2.639
80920W        W53345  16.977  16.274   2.371
80921W        W53346  34.139  37.612   3.705
80922W        W53347  35.267   3.829  11.159
80923W        W53348  15.114  40.991  12.312
80924W        W53349  18.586  26.712  11.272
80925W        W53350   3.878   5.460   2.693
80926W        W53351   0.398  31.610  10.550
80927W        W53352   2.422  22.698   0.321
80928W        W53353  20.522  37.514  11.956
80929W        W53354   7.421  33.589   2.758
80930W        W53355  40.504  12.409   4.693
80931W        W53356  42.890  12.766  13.701
80932W        W53357  15.576   4.491  11.570
80933W        W53358   2.656  11.974   3.769
80934W        W53359  36.077  21.236  12.568
80935W        W53360  37.499  26.713  12.573
80936W        W53361  17.238  35.076   2.302
80937W        W53362  36.565  10.924   4.126
80938W        W53363  22.608   3.902   0.849
80939W        W53364  36.744   0.138  12.744
80940W        W53365  16.627  41.975   3.460
80941W        W53366  39.386   0.971  11.192
80942W        W53367  14.562  17.172  11.100
80943W        W53368   0.631  22.128  13.387
80944W        W53369   3.376   0.521   0.883
80945W        W53370   8.375  37.523   4.569
80946W        W53371  28.966  14.963  12.810
80947W        W53372  42.945  26.580   3.240
80948W        W53373  14.904  35.541   2.365
80949W        W53374  34.987  16.559   3.322
80950W        W53375  28.502  13.430   2.962
80951W        W53376  26.373  43.560  13.200
80952W        W53377  32.463  44.988  12.825
80953W        W53378  27.172  43.558  12.875
80954W        W53379  19.448  38.168   1.763
80955W        W53380  22.003  36.909  13.456
80956W        W53381  17.091  23.942  14.796
80957W        W53382   4.882  37.282  13.359
80958W        W53383  37.631   6.874   2.832
80959W        W53384  42.550  36.322   2.209
80960W        W53385  25.160  20.336  12.472
80961W        W53386  23.093  39.324  14.371
80962W        W53387  17.710  35.422   0.506
80963W        W53388  14.564  28.356   3.233
80964W        W53389  39.391  23.548   3.726
80965W        W53390  30.046   4.697  12.004
80966W        W53391  42.980  29.529   4.702
80967W        W53392   5.917  24.227   0.472
80968W        W53393  34.574   3.908   3.725
80969W        W53394  24.075  14.497  11.602
80970W        W53395  37.555  15.338   0.418
80971W        W53396   3.652  37.364   0.611
80972W        W53397  19.704  37.347  12.373
80973W        W53398  22.606   3.190   2.656
80974W        W53399   6.692  35.571  11.372
80975W        W53400   6.412  41.743  13.283
80976W        W53401  29.531  42.531  12.421
80977W        W53402  37.774  37.488   4.638
80978W        W53403  19.035   7.671   1.889
80979W        W53404  13.131  12.319   0.906
80980W        W53405  33.413  25.544   3.689
80981W        W53406  19.286  31.660   1.322
80982W        W53407  39.945  30.652   1.530
80983W        W53408  40.937  20.232  11.168
80984W        W53409  36.941  15.770   5.157
80985W        W53410  24.966  34.275  10.836
80986W        W53411   4.748  37.641   4.450
80987W        W53412  16.489  39.155  14.004
80988W        W53413  12.848  30.136   4.308
80989W        W53414  18.761   7.171   1.787
80990W        W53415  19.829  26.159   0.038
80991W        W53416  22.747  12.717  14.578
80992W        W53417  21.611  12.845   4.898
80993W        W53418  29.778  14.122   2.286
80994W        W53419   8.061  11.313   3.700
80995W        W53420   2.406  40.122   0.742
80996W        W53421   1.654  16.245  11.608
80997W        W53422   0.914   2.274   0.019
80998W        W53423   5.131  14.880  14.603
80999W        W53424  37.471  26.161   3.631
81000W        W53425  14.902   2.193   1.078
81001W        W53426  28.666   7.135   1.192
81002W        W53427  30.544  32.478   3.960
81003W        W53428  26.613   4.512   5.085
81004W        W53429  44.472  29.497   1.787
81005W        W53430   5.178  43.732   4.155
81006W        W53431  11.593  38.624   4.107
81007W        W53432  31.066   7.213  11.184
81008W        W53433   7.745  40.339  13.932
81009W        W53434  13.751  17.202   2.666
81010W        W53435   7.776  35.856  12.893
81011W        W53436   9.114  42.251  13.255
81012W        W53437  25.500  27.471  14.815
81013W        W53438  18.608  31.418  14.463
81014W        W53439  25.430  15.075  14.906
81015W        W53440  14.267  30.226   3.155
81016W        W53441  19.555  41.408   4.221
81017W        W53442  44.319  26.572  13.917
81018W        W53443   2.809  40.891  14.690
81019W        W53444   0.240  14.841  13.605
81020W        W53445   1.159  11.299  12.347
81021W        W53446  22.243  35.590   3.630
81022W        W53447   1.707  19.607   1.404
81023W        W53448   9.768  13.657   4.772
81024W        W53449  10.698  23.274   0.802
81025W        W53450  10.700  10.379  13.392
81026W        W53451   1.058  21.909   0.547
81027W        W53452  17.952  44.235   4.629
81028W        W53453  26.543  42.032   2.815
81029W        W53454  28.569   2.542   2.720
81030W        W53455  31.173  22.216  12.541
81031W        W53456  20.695  14.487   1.398
81032W        W53457   3.183  19.528   4.703
81033W        W53458  14.530  17.083   3.359
81034W        W53459  37.885  44.858   0.247
81035W        W53460  14.705  21.826  11.130
81036W        W53461  33.047  12.255  11.596
81037W        W53462  34.658  40.517  14.780
81038W        W53463  23.208  40.562  11.796
81039W        W53464  17.723  25.559   4.452
81040W        W53465   5.739  32.851  14.401
81041W        W53466  17.156   6.729  13.104
81042W        W53467  24.875  42.392   4.102
81043W        W53468  20.223  23.076   3.722
81044W        W53469  39.551  21.972   3.147
81045W        W53470  14.788  41.706   4.990
81046W        W53471  25.285  16.065   0.992
81047W        W53472  25.139  33.467   2.488
81048W        W53473  24.703   6.748   1.478
81049W        W53474  44.168  24.630   1.125
81050W        W53475  26.965  40.516  10.949
81051W        W53476   0.672  28.152  13.388
81052W        W53477   6.468  43.879   3.915
81053W        W53478   3.376  42.457  13.327
81054W        W53479  15.098  26.724   3.453
81055W        W53480   2.683  42.904   1.038
81056W        W53481   2.871  35.702   4.616
81057W        W53482  25.135  21.726   0.959
81058W        W53483  15.119  13.523   2.842
81059W        W53484   3.665  44.419   3.642
81060W        W53485  36.201  12.295   0.376
81061W        W53486  37.226  16.327  13.815
81062W        W53487  29.541   7.374   5.101
81063W        W53488  13.191  10.369   4.813
81064W        W53489  20.779  33.846   0.262
81065W        W53490  20.908   9.064  11.495
81066W        W53491   2.997  40.544   1.332
81067W        W53492   7.707  31.086   1.031
81068W        W53493  14.385  39.576   1.733
81069W        W53494  18.191  25.397   1.646
81070W        W53495  14.296  28.819  13.897
81071W        W53496   7.322  14.582  14.932
81072W        W53497  23.525  40.965   3.595
81073W        W53498  35.012   3.798   0.340
81074W        W53499   4.466   3.153   4.304
81075W        W53500  24.168   0.582   2.364
81076W        W53501  31.416   3.878   0.268
81077W        W53502  10.515  43.814  14.196
81078W        W53503  44.700  26.040  10.599
81079W        W53504  11.103  24.617  11.602
81080W        W53505  35.956   0.802   0.645
81081W        W53506  26.258  12.030  14.799
81082W        W53507  30.127  33.170   4.435
81083W        W53508  26.718   0.691   4.200
81084W        W53509   0.162  31.980   3.174
81085W        W53510  30.901  15.015   4.953
81086W        W53511  13.068   2.839  12.604
81087W        W53512  37.752  30.380   0.938
81088W        W53513  31.629  36.825  14.316
81089W        W53514  28.345   2.187  14.479
81090W        W53515  39.637  33.383   4.241
81091W        W53516  22.185  33.513  13.984
81092W        W53517  15.143  43.320   4.863
81093W        W53518  40.830   5.855  10.786
81094W        W53519   4.456  11.066   4.212
81095W        W53520  37.069  16.604   3.831
81096W        W53521   8.245  36.050   2.057
81097W        W53522  27.169   3.968   1.912
81098W        W53523  24.311  25.587   3.547
81099W        W53524   0.262   1.948   3.634
81100W        W53525  43.993  11.743   1.212
81101W        W53526   6.121  21.322  13.958
81102W        W53527  20.216  20.792   2.850
81103W        W53528  44.923  34.134  13.125
81104W        W53529  40.542   8.274  11.829
81105W        W53530  37.595  22.873   3.262
81106W        W53531  31.310  14.609  12.836
81107W        W53532  15.853  25.061   1.967
81108W        W53533  39.404  29.773  11.639
81109W        W53534  21.704   5.376   3.239
81110W        W53535  16.359  20.865  14.468
81111W        W53536  35.443  11.816  14.479
81112W        W53537  11.798   8.583  10.694
81113W        W53538  24.512  12.004  11.937
81114W        W53539  43.809  27.420  11.953
81115W        W53540  35.542  25.209   2.618
81116W        W53541  23.996   1.240   3.296
81117W        W53542  26.010  14.365  12.823
81118W        W53543  26.193  23.228   3.760
81119W        W53544   2.833  35.034   4.072
81120W        W53545  40.769  29.620   2.901
81121W        W53546  41.988  39.533   3.552
81122W        W53547  12.620   2.398   0.957
81123W        W53548  37.925   0.680  12.315
81124W        W53549  38.883   5.205  13.875
81125W        W53550  41.867  12.201  12.886
81126W        W53551   8.270  19.579   1.646
81127W        W53552  37.921  27.930  10.730
81128W        W53553  10.416  17.050  14.736
81129W        W53554  17.641   5.391  12.567
81130W        W53555  26.933  13.916  14.282
81131W        W53556  31.008   9.262   1.333
81132W        W53557  43.913  45.000  11.699
81133W        W53558  14.174  15.385   1.293
81134W        W53559  43.454  30.175  13.942
81135W        W53560  31.146  19.697   1.479
81136W        W53561   9.765  12.595   1.349
81137W        W53562  12.174  28.096   0.515
81138W        W53563   8.807   8.610  11.421
81139W        W53564   6.720  33.522  13.143
81140W        W53565  34.500  15.698   0.782
81141W        W53566   4.663  41.207  13.489
81142W        W53567  42.850  34.548   0.829
81143W        W53568  42.376  24.120   2.315
81144W        W53569  27.461  15.260  14.789
81145W        W53570  33.153  19.794   4.149
81146W        W53571  37.765  34.586   3.815
81147W        W53572  39.772  15.247   4.578
81148W        W53573  42.288   7.018  14.233
81149W        W53574   8.164  36.468   2.354
81150W        W53575  39.080  43.776   3.638
81151W        W53576  17.870  17.554  12.428
81152W        W53577  26.101  26.379  12.002
81153W        W53578   7.840   8.299  11.486
81154W        W53579  23.452  12.787   3.206
81155W        W53580  40.492  42.206  10.765
81156W        W53581  30.130  27.852  13.088
81157W        W53582  15.568  35.750   4.185
81158W        W53583  40.356  21.643  12.036
81159W        W53584   1.381  32.552   3.436
81160W        W53585  18.240   5.293  12.899
81161W        W53586  19.750  31.950  14.805
81162W        W53587  23.674   6.321   2.782
81163W        W53588  12.280  15.268  14.200
81164W        W53589  20.204  31.006   5.073
81165W        W53590  33.357  14.234  12.765
81166W        W53591  19.123  38.104   2.264
81167W        W53592  14.876  14.394  14.011
81168W        W53593  30.878  27.218   3.851
81169W        W53594  26.589  35.993  13.249
81170W        W53595  30.180   2.043  11.151
81171W        W53596  35.674   6.221  12.375
81172W        W53597  38.307  40.039  11.045
81173W        W53598  24.780  22.789   0.396
81174W        W53599  40.229   4.354   4.130
81175W        W53600  23.411  42.489   1.802
81176W        W53601  30.555  39.970  10.725
81177W        W53602  44.991  26.924  10.739
81178W        W53603  20.487  33.521  11.679
81179W        W53604  23.814   1.411  10.506
81180W        W53605   3.289  42.006  14.302
81181W        W53606   8.453  30.109  10.660
81182W        W53607  15.865  32.428  11.145
81183W        W53608   5.397   2.959  14.225
81184W        W53609  34.641  22.611   0.900
81185W        W53610   1.447   2.292   1.975
81186W        W53611  39.844  27.850   2.582
81187W        W53612  36.516  18.949  12.955
81188W        W53613  24.078   6.011   0.412
81189W        W53614   8.812  18.312  14.482
81190W        W53615  17.341  44.606   4.097
81191W        W53616  41.005  42.656   2.612
81192W        W53617  15.143   3.169  14.499
81193W        W53618  11.667   2.409   1.964
81194W        W53619  29.332  23.939   5.290
81195W        W53620  39.890  38.293  10.386
81196W        W53621  11.197  23.321   5.029
81197W        W53622  34.010  30.500  10.644
81198W        W53623   2.751   5.638   0.921
81199W        W53624   1.768  23.385  13.972
81200W        W53625  26.938  35.564   1.260
81201W        W53626  36.482  21.017   4.696
81202W        W53627  23.824  36.918  10.971
81203W        W53628  43.335   1.394   0.858
81204W        W53629   3.975   9.892   4.657
81205W        W53630   9.171  25.949   4.145
81206W        W53631  10.079  31.187   0.302
81207W        W53632  22.395   5.449  10.855
81208W        W53633  11.728   2.872   2.233
81209W        W53634  14.766  24.652  12.500
81210W        W53635  16.589  25.780  11.140
81211W        W53636  40.983   1.341   1.985
81212W        W53637  21.514  21.516  14.255
81213W        W53638   1.519  33.845  11.107
81214W        W53639   5.450  35.992  12.260
81215W        W53640   0.024  20.733   4.607
81216W        W53641   8.381  44.663  12.698
81217W        W53642   1.959  40.332   0.858
81218W        W53643  13.339   6.771   1.297
81219W        W53644   3.250  17.258  14.560
81220W        W53645  41.246   5.632  12.473
81221W        W53646  40.063  18.254  13.066
81222W        W53647   2.401  17.100  13.296
81223W        W53648  25.730   5.661   4.135
81224W        W53649  18.814   2.232  12.552
81225W        W53650  26.670   1.985  12.003
81226W        W53651   3.368   0.347   1.839
81227W        W53652  28.455  34.954  14.946
81228W        W53653  28.439  19.080  11.111
81229W        W53654  27.508  16.278  14.908
81230W        W53655  11.195  43.917   0.860
81231W        W53656   5.243  22.069   2.971
81232W        W53657  41.877  12.780   3.323
81233W        W53658  13.123  41.534   1.961
81234W        W53659   0.040  20.635  10.577
81235W        W53660   0.727  14.070   2.151
81236W        W53661   2.347  25.244   1.721
81237W        W53662  24.103  37.831   3.621
81238W        W53663  14.794  39.346   0.976
81239W        W53664  21.261  41.941  14.925
81240W        W53665  38.669  11.880   3.140
81241W        W53666  29.030  28.905  14.846
81242W        W53667  26.623  35.836  11.027
81243W        W53668   8.694  18.001  13.496
81244W        W53669  20.569   7.176   1.195
81245W        W53670   8.029   1.933  11.087
81246W        W53671   6.762  38.427  12.188
81247W        W53672   8.054  31.964   3.730
81248W        W53673  24.058  26.736  14.338
81249W        W53674   6.195  25.488   2.166
81250W        W53675  17.249  17.013  14.978
81251W        W53676  30.906  10.361   1.659
81252W        W53677  23.926  17.797   5.020
81253W        W53678  28.013   1.600   1.445
81254W        W53679  22.596  14.095  13.447
81255W        W53680   1.180  10.188   0.578
81256W        W53681   1.196  43.759  11.598
81257W        W53682  26.918  27.059  11.482
81258W        W53683  24.194  39.184  10.687
81259W        W53684   8.998   9.170   1.720
81260W        W53685  13.512   3.001   1.718
81261W        W53686  28.107  20.500   4.037
81262W        W53687  39.940  31.350   2.177
81263W        W53688   7.743  18.562   3.941
81264W        W53689   7.127  42.521  12.376
81265W        W53690  26.812  19.522   2.751
81266W        W53691   2.471  39.551  11.508
81267W        W53692  43.749  10.158  14.972
81268W        W53693  17.287  25.153   9.846
81269W        W53694  30.930   3.326   3.207
81270W        W53695  44.769  27.884   3.672
81271W        W53696  21.220  37.291   4.575
81272W        W53697   2.242  44.283  13.248
81273W        W53698  28.637  27.886  14.094
81274W        W53699  15.715  23.681   0.818
81275W        W53700  22.460  13.733   0.464
81276W        W53701  40.562  34.908   0.188
81277W        W53702  38.322  11.294   0.534
81278W        W53703  26.476  26.752  12.452
81279W        W53704   6.264  13.380  13.007
81280W        W53705  17.235  13.635  13.432
81281W        W53706   9.932  42.382   2.825
81282W        W53707  28.310  28.139  10.621
81283W        W53708  33.011  33.926   1.662
81284W        W53709   6.410   0.816   4.568
81285W        W53710   9.695  16.611   3.259
81286W        W53711  43.373  31.504  11.139
81287W        W53712  30.096   2.904  10.616
81288W        W53713  24.429   5.242   4.568
81289W        W53714  42.936  28.485  12.536
81290W        W53715  31.128  14.904  13.258
81291W        W53716  23.559  24.600  10.745
81292W        W53717  16.156  36.337  10.721
81293W        W53718  23.447  31.539   0.946
81294W        W53719  43.756  44.899  14.236
81295W        W53720  41.094  41.389   1.908
81296W        W53721  27.018  16.734   4.287
81297W        W53722  15.986  12.242   1.391
81298W        W53723  28.600  40.130   1.228
81299W        W53724  12.672  22.106   9.660
81300W        W53725  15.033  25.208   3.089
81301W        W53726  40.575  13.215  11.592
81302W        W53727  18.808  13.539   3.547
81303W        W53728  39.943  33.377   2.345
81304W        W53729  43.797  37.290   4.626
81305W        W53730  26.615   9.213   4.228
81306W        W53731  37.926  41.622   4.979
81307W        W53732  16.805  27.513  14.293
81308W        W53733   0.136  34.541  13.355
81309W        W53734   1.866   1.421   4.643
81310W        W53735  29.078  30.427  14.375
81311W        W53736  14.733   8.557  11.612
81312W        W53737  31.369  38.529  11.625
81313W        W53738  17.306   0.954  13.529
81314W        W53739  18.814  37.071   0.826
81315W        W53740  41.500  11.190  10.772
81316W        W53741  41.861  26.691  11.107
81317W        W53742  43.616  37.871  13.056
81318W        W53743   7.155  16.178   0.399
81319W        W53744  35.953   3.549   4.152
81320W        W53745  36.793  36.376   0.011
81321W        W53746  25.685   0.483  12.976
81322W        W53747  38.552  26.501  11.120
81323W        W53748  34.179  20.306   0.064
81324W        W53749  11.929  41.795   0.441
81325W        W53750   9.726  24.251  10.711
81326W        W53751   8.168  12.048  13.842
81327W        W53752  32.582  27.680  13.475
81328W        W53753   8.848  22.495  12.452
81329W        W53754  32.693  17.102  12.512
81330W        W53755   0.242  27.412   1.351
81331W        W53756  22.997  17.177   2.824
81332W        W53757   8.451  32.956   0.429
81333W        W53758  29.929  39.847  11.198
81334W        W53759  11.468  25.568  11.217
81335W        W53760  27.013  12.368  14.405
81336W        W53761  15.247   8.370  10.574
81337W        W53762   6.917   3.564   3.867
81338W        W53763  15.231  26.872  12.116
81339W        W53764  35.466  44.922  12.942
81340W        W53765  34.424  43.874   0.343
81341W        W53766   8.561  20.203   0.327
81342W        W53767  34.395  34.188  13.717
81343W        W53768  35.621  33.611  11.449
81344W        W53769  24.394  30.001   2.070
81345W        W53770  43.885   4.586   3.108
81346W        W53771  18.980   4.913  12.496
81347W        W53772  41.284  16.157  11.633
81348W        W53773  25.617  18.585   1.459
81349W        W53774   5.430  15.411  11.086
81350W        W53775  33.872  41.420   1.391
81351W        W53776  12.685  43.532  14.203
81352W        W53777  14.780  32.462   1.721
81353W        W53778   6.722  32.410   0.820
81354W        W53779  26.976  14.587   2.989
81355W        W53780  22.455  13.820   4.331
81356W        W53781  23.205  19.090   2.837
81357W        W53782   7.772   5.268   0.316
81358W        W53783  34.400  44.755   4.277
81359W        W53784   5.410  25.559   1.710
81360W        W53785  22.970  11.762  11.070
81361W        W53786  44.622  21.587   4.116
81362W        W53787  19.185  24.687  12.530
81363W        W53788  37.449  36.854  14.283
81364W        W53789  34.862   9.451   2.426
81365W        W53790  25.733  38.006   4.157
81366W        W53791   6.906  15.359  11.546
81367W        W53792  13.588  25.285  14.482
81368W        W53793  13.156   0.571   0.041
81369W        W53794  29.188  26.688   4.622
81370W        W53795  25.552  31.010   3.643
81371W        W53796   6.735  40.849   0.026
81372W        W53797  16.362  22.577  14.762
81373W        W53798   5.830  20.916   2.350
81374W        W53799  44.285  17.276  10.045
81375W        W53800  42.724   8.911  12.323
81376W        W53801   5.178  34.055  12.311
81377W        W53802  27.189  36.419   0.701
81378W        W53803  42.043  37.483  12.465
81379W        W53804  25.439  25.094   4.174
81380W        W53805  12.315  29.539   4.715
81381W        W53806  22.233  13.793   2.875
81382W        W53807  32.230  15.298   1.343
81383W        W53808  28.155  40.940   0.726
81384W        W53809   1.435  40.061   3.212
81385W        W53810  36.151  35.658  14.059
81386W        W53811  41.585  23.944  12.337
81387W        W53812  43.909  19.935   3.407
81388W        W53813   5.841  24.424  12.855
81389W        W53814   8.126  43.769  13.345
81390W        W53815   3.586  19.221  11.571
81391W        W53816  35.365  32.100  14.373
81392W        W53817  39.028  38.067  13.001
81393W        W53818  21.748  28.141  12.358
81394W        W53819  37.798  26.039  10.645
81395W        W53820  33.853  40.414  12.855
81396W        W53821   3.093  37.414   1.350
81397W        W53822  40.435  31.232   0.864
81398W        W53823  41.483  36.930   0.474
81399W        W53824  11.927  35.164  13.777
81400W        W53825  25.159  33.572  11.889
81401W        W53826  13.576  29.447   3.374
81402W        W53827  20.739  18.672  13.499
81403W        W53828   3.846  41.073  12.604
81404W        W53829  17.535  38.039  14.376
81405W        W53830  30.096  28.098  11.789
81406W        W53831  23.808  13.393  11.789
81407W        W53832  38.872  29.125   1.223
81408W        W53833  13.168   6.838  11.440
81409W        W53834  25.113  31.855   3.197
81410W        W53835  17.547  16.560   0.949
81411W        W53836  33.068  40.429  13.372
81412W        W53837  40.507  21.824  11.380
81413W        W53838  41.371  33.076  13.506
81414W        W53839  12.366   6.193  10.637
81415W        W53840   0.306   0.575  13.990
81416W        W53841  33.580  38.999   1.501
81417W        W53842  24.868   2.459   2.458
81418W        W53843  15.881   9.167   1.310
81419W        W53844  39.886  16.588  14.793
81420W        W53845  23.302  16.161   3.522
81421W        W53846  31.037  20.524   2.425
81422W        W53847  21.986  21.623   2.310
81423W        W53848   0.348   6.001   1.427
81424W        W53849  28.502  33.136   9.832
81425W        W53850  14.514   6.160   4.250
81426W        W53851  32.981   1.987  12.512
81427W        W53852  37.904   3.203   2.430
81428W        W53853   4.429  23.937  12.091
81429W        W53854  36.917  42.127  14.449
81430W        W53855  21.362  12.007   4.882
81431W        W53856  34.090  10.420  12.546
81432W        W53857  34.990  24.727   3.703
81433W        W53858  16.769  33.040  13.309
81434W        W53859  13.333  27.199   3.208
81435W        W53860  19.556  11.422   0.721
81436W        W53861   0.753  17.642   4.165
81437W        W53862  28.467   6.888   1.736
81438W        W53863  26.159  25.942  13.415
81439W        W53864   2.232  21.585   2.715
81440W        W53865  41.809  17.760  12.823
81441W        W53866  38.901  25.733   1.212
81442W        W53867  30.634  10.569   3.728
81443W        W53868  12.840   9.776   1.901
81444W        W53869   9.187  10.210  13.024
81445W        W53870   7.362  11.159   1.622
81446W        W53871  36.579   8.621  14.406
81447W        W53872  11.103   2.637   2.812
81448W        W53873  32.147  31.897  10.597
81449W        W53874  14.669  10.919  14.055
81450W        W53875   6.661  17.023   3.314
81451W        W53876   8.573  34.028   3.050
81452W        W53877   2.640  11.806  14.762
81453W        W53878  19.203   8.518  14.156
81454W        W53879  33.263  31.392   2.311
81455W        W53880  33.010  17.821   3.378
81456W        W53881  29.659  16.441  13.120
81457W        W53882  26.151  33.161  14.367
81458W        W53883   5.992  16.086  12.468
81459W        W53884  43.468  30.921   3.818
81460W        W53885   7.167  22.716   2.122
81461W        W53886  11.767  20.780  14.890
81462W        W53887  18.247  32.135  10.876
81463W        W53888  12.660  21.607   4.538
81464W        W53889  41.240   6.362  12.081
81465W        W53890  24.648  16.179  13.260
81466W        W53891  20.135  40.635   1.455
81467W        W53892  26.297   5.261  11.166
81468W        W53893  18.727  36.017   2.253
81469W        W53894  13.163  24.387  13.364
81470W        W53895  37.038  29.027  14.288
81471W        W53896  18.183  39.006  12.855
81472W        W53897   8.795  42.727   2.353
81473W        W53898   2.525  44.825   0.191
81474W        W53899  42.212  19.093   2.722
81475W        W53900   6.915   6.907  10.661
81476W        W53901  12.855   2.974  14.326
81477W        W53902   1.143   0.748  13.819
81478W        W53903  24.248  19.203   1.838
81479W        W53904  36.496  29.268   4.176
81480W        W53905  34.435  41.158  12.796
81481W        W53906   3.901  27.881   1.786
81482W        W53907   7.272  38.971  12.956
81483W        W53908   9.852  24.288  14.276
81484W        W53909   0.666  14.241   4.970
81485W        W53910   1.788  15.264   4.232
81486W        W53911  44.845  37.136   1.348
81487W        W53912  24.831  42.762  12.480
81488W        W53913   7.933  33.118   4.260
81489W        W53914  35.922  27.658  12.053
81490W        W53915  31.936   7.843  10.839
81491W        W53916  35.414   5.267  11.792
81492W        W53917  28.206   4.267   1.342
81493W        W53918  39.053  18.824   0.517
81494W        W53919  32.560  20.543   4.817
81495W        W53920  36.304   0.402  11.302
81496W        W53921  11.774  13.199   0.983
81497W        W53922  10.089  34.449   0.378
81498W        W53923  23.027   7.292  11.745
81499W        W53924   4.930  26.244   5.064
81500W        W53925  39.398  10.648   3.156
81501W        W53926  44.943  43.719   1.801
81502W        W53927  31.925  38.963  11.057
81503W        W53928  36.635  35.032   0.461
81504W        W53929   4.265   4.966  11.193
81505W        W53930  32.625  13.028   3.069
81506W        W53931  17.887  36.416  14.573
81507W        W53932  33.073  16.952  10.263
81508W        W53933  16.872  44.861  12.522
81509W        W53934  44.880  18.815   3.821
81510W        W53935  16.599  14.097  11.236
81511W        W53936  22.552  29.129   0.238
81512W        W53937  20.512  17.321  13.995
81513W        W53938  44.375  36.053  10.846
81514W        W53939  33.773  38.088  11.124
81515W        W53940   4.250  28.985  13.138
81516W        W53941  26.887  18.506  10.906
81517W        W53942  13.224  17.343   0.420
81518W        W53943   0.791   7.655  12.567
81519W        W53944  14.764   9.920   2.672
81520W        W53945  31.985  41.884  14.389
81521W        W53946   3.058  36.469   3.722
81522W        W53947  37.109  37.419  10.454
81523W        W53948  18.195  39.818  13.444
81524W        W53949  21.669  10.293  14.394
81525W        W53950   3.941  39.297  10.373
81526W        W53951  32.998  10.345  12.869
81527W        W53952  36.828  25.205  10.577
81528W        W53953  19.521  26.057  14.632
81529W        W53954  44.473  12.345  13.494
81530W        W53955  22.155   7.401  10.641
81531W        W53956   6.404   5.736   0.585
81532W        W53957  20.622  18.703  14.518
81533W        W53958  22.980   7.224  12.255
81534W        W53959  12.087  24.350  10.477
81535W        W53960  38.994  13.364   1.215
81536W        W53961   0.775  10.704   1.409
81537W        W53962  31.550  14.256  13.481
81538W        W53963  28.565  43.239   1.566
81539W        W53964  27.982  28.424  14.860
81540W        W53965  18.041   9.413   3.639
81541W        W53966   3.837  30.503   2.486
81542W        W53967  22.534  24.158  13.892
81543W        W53968   1.268  21.902  12.200
81544W        W53969  20.317   5.033   1.700
81545W        W53970   3.129  26.025   2.809
81546W        W53971  33.883  23.213  11.326
81547W        W53972   4.537  24.564   1.893
81548W        W53973  37.534  44.372   9.996
81549W        W53974  30.179   4.825  12.518
81550W        W53975  23.183  12.592   2.252
81551W        W53976   3.814   2.759   3.338
81552W        W53977   5.651  42.559  12.508
81553W        W53978  30.975   7.197  10.155
81554W        W53979  35.088  36.024   5.113
81555W        W53980  41.831  20.584   2.140
81556W        W53981  15.305  28.385   3.714
81557W        W53982  14.033  15.318  11.858
81558W        W53983  39.474  36.511   0.800
81559W        W53984  14.755   1.816  13.770
81560W        W53985   2.105   3.002  11.822
81561W        W53986  32.709   0.204  11.129
81562W        W53987   5.803  17.309   1.276
81563W        W53988  30.594  30.554   2.362
81564W        W53989  26.874  41.237  12.978
81565W        W53990  43.940  13.614  10.782
81566W        W53991   4.331  27.083   4.594
81567W        W53992   5.368  33.357  11.556
81568W        W53993  43.239  16.020   4.709
81569W        W53994  16.869  15.363  12.404
81570W        W53995  33.999  27.143  13.482
81571W        W53996  38.566   2.802   2.840
81572W        W53997   4.547  28.509  14.222
81573W        W53998   8.143  39.904  14.359
81574W        W53999  19.711   5.598  11.116
81575W        W54000   3.135  38.536  12.867
81576W        W54001  27.255  21.265  12.001
81577W        W54002  28.410  20.174   3.765
81578W        W54003  19.764  15.507   3.965
81579W        W54004  41.457  17.572  14.910
81580W        W54005  37.890   8.865  13.683
81581W        W54006  17.774  13.745   1.356
81582W        W54007  34.849  25.764  14.989
81583W        W54008   6.563  11.083  13.965
81584W        W54009   1.237  24.236  13.297
81585W        W54010  18.291  27.719   1.883
81586W        W54011  36.189   3.668  14.940
81587W        W54012  29.646  44.294   4.677
81588W        W54013  13.231   5.963   0.752
81589W        W54014  42.851  23.225  13.111
81590W        W54015   9.044  40.471  10.459
81591W        W54016  29.450  27.672   2.721
81592W        W54017  34.949   0.314  10.054
81593W        W54018  15.734  27.723   2.809
81594W        W54019  31.527  21.720   2.608
81595W        W54020   7.812  35.503  14.905
81596W        W54021  23.461  35.370   3.117
81597W        W54022  35.328  34.595   3.162
81598W        W54023  15.474   1.247   3.344
81599W        W54024  30.875  34.120  13.307
81600W        W54025  39.609   3.333  13.807
81601W        W54026   3.858   8.299   0.231
81602W        W54027  18.814  25.157  10.307
81603W        W54028  36.139  39.016  12.592
81604W        W54029  30.071  27.045   1.526
81605W        W54030  20.171  39.577  12.438
81606W        W54031  34.017  41.830   2.175
81607W        W54032  44.755   6.834   0.830
81608W        W54033  13.719   1.810   0.216
81609W        W54034  38.468  15.088   2.452
81610W        W54035  22.955  31.003   2.002
81611W        W54036  29.628  22.752  12.484
81612W        W54037  24.913   0.775  14.370
81613W        W54038  15.799  38.972  12.913
81614W        W54039   1.976  40.274  10.675
81615W        W54040  13.478  14.689  13.795
81616W        W54041   2.231  44.268  13.745
81617W        W54042   3.028  31.770   5.105
81618W        W54043  24.822  40.327   3.604
81619W        W54044  25.481  21.622   3.769
81620W        W54045  22.493   6.818  10.253
81621W        W54046   8.284  43.003   2.262
81622W        W54047  21.211  24.657  13.452
81623W        W54048  12.296  29.507  13.053
81624W        W54049  13.725  17.717   2.755
81625W        W54050  44.949  30.566  11.142
81626W        W54051  26.898  14.674   1.334
81627W        W54052  20.685   9.211   2.357
81628W        W54053  43.347  23.957   1.001
81629W        W54054  28.449  19.504   0.317
81630W        W54055   4.354  30.561  12.002
81631W        W54056  30.108  44.633   3.917
81632W        W54057  42.808   2.553  13.425
81633W        W54058  32.588  40.605  12.799
81634W        W54059  17.827   3.497  14.851
81635W        W54060  22.275  40.893   0.859
81636W        W54061  26.971   3.594   4.898
81637W        W54062   9.830  11.726   2.755
81638W        W54063  20.605  35.630  11.077
81639W        W54064   5.044   4.407  14.294
81640W        W54065  38.422  33.057  12.486
81641W        W54066   2.614   7.329   5.168
81642W        W54067  32.893  20.178   1.197
81643W        W54068   7.119   2.316  14.325
81644W        W54069  14.340  31.396  14.022
81645W        W54070  31.400  20.047  12.247
81646W        W54071  35.258  34.244  10.242
81647W        W54072  28.721  13.418   1.819
81648W        W54073  16.531   0.920  14.927
81649W        W54074  14.621  10.688  10.695
81650W        W54075  20.808   7.885   0.448
81651W        W54076  16.741  30.618  11.823
81652W        W54077  27.613   4.755   1.846
81653W        W54078  33.903  30.506  13.563
81654W        W54079  10.292  10.688  10.708
81655W        W54080   9.006  24.428  12.999
81656W        W54081   1.235   5.857   2.752
81657W        W54082  10.100  15.310  11.166
81658W        W54083  24.934  22.189  10.033
81659W        W54084  42.379   9.907   1.444
81660W        W54085  20.265  14.781   1.270
81661W        W54086  16.674   7.314  10.948
81662W        W54087  21.134  31.130  10.392
81663W        W54088   9.534  26.998   1.215
81664W        W54089  23.103  33.395   1.419
81665W        W54090  33.601  40.954  12.061
81666W        W54091  19.265  13.659  13.437
81667W        W54092  13.077  44.480   1.976
81668W        W54093  44.423  34.101  12.305
81669W        W54094  34.557  15.126   2.746
81670W        W54095  31.409   5.989  13.041
81671W        W54096  17.071  14.086  10.485
81672W        W54097   6.446   3.453  11.585
81673W        W54098  13.812  17.549  12.859
81674W        W54099  19.361  23.564   1.929
81675W        W54100  24.584  22.585  14.067
81676W        W54101  29.898  24.215   2.193
81677W        W54102   9.815  18.220  14.715
81678W        W54103  21.998  19.591   3.696
81679W        W54104  32.452   5.237   0.013
81680W        W54105  10.681  15.143  13.336
81681W        W54106  42.954  30.453   3.735
81682W        W54107   2.910  14.300   4.099
81683W        W54108   6.399  22.590  14.439
81684W        W54109  10.913  38.985   3.650
81685W        W54110   9.608  21.827  12.633
81686W        W54111  25.435   8.620  13.396
81687W        W54112  19.754   9.771   1.135
81688W        W54113  10.176  39.217   5.211
81689W        W54114  28.508  15.901   0.382
81690W        W54115  28.161  41.724   4.977
81691W        W54116   4.367  33.186   4.898
81692W        W54117   6.630  20.019  12.477
81693W        W54118  31.691   4.425   3.235
81694W        W54119  24.280  32.026  14.406
81695W        W54120  26.105  15.680  12.053
81696W        W54121  21.251   5.399   2.981
81697W        W54122  39.498  16.845   2.297
81698W        W54123   4.308  27.844  13.427
81699W        W54124  10.890  37.034   0.467
81700W        W54125  29.546  37.987   1.006
81701W        W54126  37.989  21.979   0.428
81702W        W54127  40.187   1.002  14.965
81703W        W54128   9.766   3.654   2.648
81704W        W54129  11.208  38.798  13.096
81705W        W54130  12.884   1.438  10.873
81706W        W54131   6.002  14.280  12.959
81707W        W54132   3.747  15.154   1.174
81708W        W54133  22.324   5.734  14.768
81709W        W54134  43.813  11.343   2.185
81710W        W54135  12.114  18.771   2.786
81711W        W54136   8.406  14.079   4.125
81712W        W54137  28.095  40.769   2.982
81713W        W54138  44.830  15.085  11.483
81714W        W54139  23.670  44.135   3.689
81715W        W54140   8.723  23.816   0.105
81716W        W54141   4.716   1.084   4.531
81717W        W54142   1.324  36.453   2.740
81718W        W54143  36.056   4.574  13.975
81719W        W54144  36.450  22.108  14.768
81720W        W54145  42.059  28.833  13.176
81721W        W54146  28.216  21.347  13.085
81722W        W54147  30.509  44.541   4.208
81723W        W54148  11.056   1.441  14.955
81724W        W54149   7.923  30.555   4.989
81725W        W54150  42.720  42.627  11.163
81726W        W54151  13.990   9.189   4.812
81727W        W54152  41.050   3.273   3.571
81728W        W54153  15.522  10.284   2.278
81729W        W54154  26.777  43.395  10.467
81730W        W54155   2.159  25.696  14.864
81731W        W54156  32.575  29.578  10.624
81732W        W54157   6.667  44.051   3.150
81733W        W54158  43.834  28.604   1.469
81734W        W54159  38.221   0.870  13.521
81735W        W54160  13.147   0.803  11.658
81736W        W54161  40.984  17.450  11.055
81737W        W54162  42.038  33.980  10.620
81738W        W54163  39.823  32.919  14.818
81739W        W54164   2.925  23.036   3.776
81740W        W54165  23.627   9.006   0.171
81741W        W54166  16.130  38.954  14.356
81742W        W54167  24.063  37.321   0.270
81743W        W54168   3.513   6.977   1.382
81744W        W54169  11.777  20.587   3.349
81745W        W54170  38.692  31.090  13.858
81746W        W54171  40.514  34.953   0.683
81747W        W54172  31.997   3.339  14.344
81748W        W54173  11.805   1.858  14.563
81749W        W54174  13.911   8.735   2.458
81750W        W54175  39.236  15.329  13.358
81751W        W54176  43.534  40.394   2.371
81752W        W54177   5.930  36.374   0.757
81753W        W54178   0.831  34.095  11.243
81754W        W54179   2.945  42.687  13.131
81755W        W54180  18.306  11.975   1.959
81756W        W54181  42.233  11.683  14.938
81757W        W54182   3.307  26.267   0.519
81758W        W54183  33.431   7.928  12.911
81759W        W54184  41.460  32.058   4.686
81760W        W54185  32.605  42.163  11.204
81761W        W54186  23.394   2.026   4.169
81762W        W54187   5.881  13.401   3.411
81763W        W54188  16.951  40.946  13.927
81764W        W54189  20.739   1.174  10.654
81765W        W54190  23.111  17.521  10.635
81766W        W54191  11.981  42.802  12.537
81767W        W54192  32.521  17.484   4.507
81768W        W54193  12.650   4.455  11.158
81769W        W54194   8.243  34.542   0.748
81770W        W54195   7.832  11.698   3.412
81771W        W54196   3.178  24.142  10.864
81772W        W54197  41.301  15.077   1.464
81773W        W54198   7.339  37.268  10.372
81774W        W54199  10.136  24.351  13.598
81775W        W54200   9.761  22.860  12.827
81776W        W54201  34.492  41.524   3.311
81777W        W54202  27.688  14.250  13.310
81778W        W54203  25.371  17.261   2.350
81779W        W54204  26.285   6.357   5.001
81780W        W54205  23.080  26.730  12.573
81781W        W54206   2.419  42.632  12.383
81782W        W54207  30.821  40.249  11.186
81783W        W54208   9.381   7.213   4.094
81784W        W54209  24.203   9.377  12.890
81785W        W54210   2.209  15.426   4.881
81786W        W54211  26.376   6.211  12.164
81787W        W54212  28.697  17.640  12.995
81788W        W54213   9.826   4.506  10.963
81789W        W54214  23.565  19.705   4.578
81790W        W54215  22.088  35.027  11.522
81791W        W54216  40.372  42.386   3.514
81792W        W54217  15.245  42.313  10.631
81793W        W54218  39.842  29.114   1.243
81794W        W54219  14.115   4.922   1.176
81795W        W54220  26.933  20.818  13.487
81796W        W54221   4.009  27.067  13.770
81797W        W54222   7.763  22.363  12.434
81798W        W54223   2.636   0.935  13.919
81799W        W54224   8.133   5.714   3.069
81800W        W54225  41.457  42.632  14.970
81801W        W54226  16.197  24.051   3.851
81802W        W54227  37.595  22.796   5.165
81803W        W54228  26.424  13.823  11.548
81804W        W54229  25.613   8.845  13.971
81805W        W54230  13.307   8.338  12.538
81806W        W54231  11.197  17.622   0.035
81807W        W54232  42.329  25.141   2.333
81808W        W54233  40.446  15.038   1.277
81809W        W54234  32.594  39.394   0.810
81810W        W54235  40.880  12.633   4.418
81811W        W54236  40.975  36.880   3.629
81812W        W54237  21.079   6.620  13.783
81813W        W54238  10.252  19.455   1.850
81814W        W54239  19.667  19.156   3.558
81815W        W54240  27.832  27.862  14.025
81816W        W54241  33.036   7.969  13.565
81817W        W54242  44.970  34.505   0.753
81818W        W54243   1.443   0.226  12.315
81819W        W54244  14.358  36.881  10.707
81820W        W54245   1.931   2.376   0.944
81821W        W54246  30.160  39.834  12.088
81822W        W54247  20.151  22.975  12.914
81823W        W54248  35.891  23.985   2.220
81824W        W54249  25.945  43.112  14.299
81825W        W54250  29.934  26.862  13.035
81826W        W54251  15.358  44.071  13.437
81827W        W54252  17.577  23.130  11.191
81828W        W54253  15.793  34.166   1.265
81829W        W54254  30.443   2.210  10.619
81830W        W54255  19.340  13.308   4.294
81831W        W54256  23.270   8.616   0.355
81832W        W54257  39.733  38.666  11.392
81833W        W54258  30.035  36.587  12.043
81834W        W54259  43.821  35.367  14.027
81835W        W54260  43.000  29.555   2.113
81836W        W54261  22.573  41.810   2.896
81837W        W54262  16.587  36.502   4.667
81838W        W54263  15.132  27.599  11.499
81839W        W54264  17.298   4.559  14.216
81840W        W54265  39.621   1.148  11.633
81841W        W54266  43.638  17.879   4.045
81842W        W54267   8.059  34.395  11.985
81843W        W54268  33.501  39.180  12.490
81844W        W54269  39.128  14.723   1.421
81845W        W54270  19.875  14.468   0.941
81846W        W54271  24.763  13.645  11.070
81847W        W54272  36.569   6.203   3.290
81848W        W54273   1.614   0.389   0.612
81849W        W54274  34.037  30.495   4.951
81850W        W54275  38.372  23.544   3.906
81851W        W54276  41.762  13.285   4.008
81852W        W54277  25.605   0.153  10.591
81853W        W54278  25.447   3.296  13.423
81854W        W54279  37.863  22.267  14.986
81855W        W54280  40.957   0.411  13.860
81856W        W54281  31.025   1.718  13.136
81857W        W54282  26.990   9.907   0.281
81858W        W54283  28.443  30.855  13.539
81859W        W54284  17.275  17.013  11.408
81860W        W54285  38.787   4.387  10.269
81861W        W54286  38.393  35.385  13.862
81862W        W54287  37.094  29.011   4.568
81863W        W54288  30.421  32.460   4.478
81864W        W54289  23.260  24.702   4.073
81865W        W54290   1.253   5.931  11.114
81866W        W54291  34.486  14.575  13.865
81867W        W54292  28.365  44.727   1.198
81868W        W54293  36.469  34.637   3.364
81869W        W54294   2.382   9.096   1.906
81870W        W54295  35.569   8.909   2.239
81871W        W54296  26.127   7.842   1.882
81872W        W54297   9.758  19.237   0.312
81873W        W54298  18.349  42.823  11.550
81874W        W54299  26.953  10.678   3.034
81875W        W54300  36.959  13.749  10.664
81876W        W54301  29.585   8.738   2.435
81877W        W54302   2.215  10.829   4.493
81878W        W54303  37.825   9.228   2.733
81879W        W54304  19.663  29.094   2.679
81880W        W54305  11.401  36.146   2.258
81881W        W54306  13.610  32.918  14.812
81882W        W54307  16.640  10.107  11.385
81883W        W54308   1.857   4.042   0.679
81884W        W54309  14.131  37.486  12.852
81885W        W54310  37.472  14.719  13.471
81886W        W54311   3.551  17.793  11.592
81887W        W54312  28.577  11.832   4.552
81888W        W54313  32.012  25.354  12.443
81889W        W54314  38.435   1.105   2.737
81890W        W54315   3.977   8.238  10.569
81891W        W54316  35.891  31.638  13.434
81892W        W54317  22.937   9.803  14.030
81893W        W54318  36.577  21.647  11.601
81894W        W54319   7.221  27.551   1.239
81895W        W54320  15.147  34.013   0.365
81896W        W54321  10.622  17.659  11.056
81897W        W54322  34.985  15.960   4.500
81898W        W54323  29.551   6.433  11.051
81899W        W54324  31.641   0.349  10.694
81900W        W54325   9.785  22.279   0.808
81901W        W54326  43.854  22.627   3.661
81902W        W54327  35.096  22.065   0.884
81903W        W54328  12.203   7.024  13.969
81904W        W54329  20.104  16.287   2.448
81905W        W54330  35.334  15.789   0.353
81906W        W54331  42.036  27.891  13.157
81907W        W54332   6.115  10.848   2.239
81908W        W54333   9.702  38.920   0.266
81909W        W54334  38.137  30.480   2.887
81910W        W54335  43.458  41.511  14.260
81911W        W54336  22.023   1.227   3.249
81912W        W54337  18.091   1.200  11.228
81913W        W54338  21.551  42.294  13.855
81914W        W54339  27.465  39.446  11.964
81915W        W54340   5.189  24.488  11.755
81916W        W54341  42.025  23.174   3.966
81917W        W54342  36.897  43.029   3.751
81918W        W54343   6.166   7.124   0.322
81919W        W54344  30.892   0.925  13.424
81920W        W54345  18.821  18.614   1.268
81921W        W54346  25.899   0.243  13.966
81922W        W54347  10.755  17.068  10.372
81923W        W54348  26.503   4.800  11.012
81924W        W54349  12.446  36.024  14.015
81925W        W54350  20.574  30.530   0.836
81926W        W54351  20.564  42.171   0.706
81927W        W54352  41.566   5.153   0.729
81928W        W54353  30.506  10.060  10.720
81929W        W54354  19.222  33.141   0.184
81930W        W54355  27.473  31.140  12.526
81931W        W54356  36.554   6.205  12.382
81932W        W54357  27.144  40.302   4.130
81933W        W54358   0.709  40.163   3.733
81934W        W54359   7.668  41.872   4.035
81935W        W54360  39.426  15.357   2.155
81936W        W54361  33.545   5.814   4.462
81937W        W54362  26.060  30.158   0.022
81938W        W54363  44.776  19.229  13.472
81939W        W54364   8.720  16.188   4.550
81940W        W54365   7.341   5.192  13.544
81941W        W54366  17.634  22.560  12.959
81942W        W54367  35.940  25.217   1.683
81943W        W54368  33.333  35.426  12.560
81944W        W54369  17.638  13.669   4.356
81945W        W54370  40.252  12.707   0.404
81946W        W54371  26.584   1.614   2.726
81947W        W54372  38.549  27.527   0.731
81948W        W54373  22.977  39.626   3.434
81949W        W54374  34.501  17.348  14.798
81950W        W54375  35.627   4.861  13.943
81951W        W54376  23.340   4.165  11.457
81952W        W54377  26.462   6.863  10.766
81953W        W54378  23.665  12.072  11.797
81954W        W54379  36.480  34.179   1.074
81955W        W54380  10.752   9.873  11.638
81956W        W54381  12.617  28.711   3.217
81957W        W54382  41.423  35.070  14.496
81958W        W54383   7.705   2.857  14.813
81959W        W54384  24.932  23.980  11.716
81960W        W54385  35.448   0.232   0.395
81961W        W54386   4.263  15.276  13.440
81962W        W54387  32.569  22.674  11.189
81963W        W54388  10.660  44.322   3.132
81964W        W54389  20.092  38.918  12.595
81965W        W54390  19.268  17.376  14.451
81966W        W54391  37.398  28.507  11.875
81967W        W54392   3.121   4.733   4.521
81968W        W54393  23.785  18.210   2.635
81969W        W54394  33.387  41.093   0.369
81970W        W54395  11.927   7.838   4.104
81971W        W54396  16.099  24.696   3.310
81972W        W54397  36.943  15.062  10.941
81973W        W54398  24.385  26.609   0.107
81974W        W54399  30.773   1.993   1.235
81975W        W54400  34.429   4.740   2.812
81976W        W54401  26.733  32.107  11.077
81977W        W54402  12.191  29.558   2.662
81978W        W54403  43.864  28.151   0.419
81979W        W54404  32.558   4.327  11.550
81980W        W54405  28.891  27.672   1.270
81981W        W54406   1.899   1.326  14.845
81982W        W54407  29.464  24.540   4.298
81983W        W54408  30.452   3.405  10.018
81984W        W54409  22.762  29.447   3.301
81985W        W54410   8.160   9.171  11.990
81986W        W54411  35.227  15.303  14.679
81987W        W54412  33.429  39.375   3.755
81988W        W54413   3.379  21.174  11.481
81989W        W54414  39.954   4.975  12.503
81990W        W54415  38.568  37.086  10.534
81991W        W54416  17.528  19.096  12.860
81992W        W54417  15.675  28.763   3.821
81993W        W54418  44.345  30.936   3.637
81994W        W54419   6.921  44.266  13.805
81995W        W54420  44.256  28.131  13.340
81996W        W54421  22.973  17.209   1.088
81997W        W54422  15.553  27.083  11.421
81998W        W54423  18.998  39.846   3.697
81999W        W54424   9.844  35.384   1.796
82000W        W54425  43.785  31.291  13.402
82001W        W54426  22.964  37.307  14.348
82002W        W54427   1.982  14.114  10.786
82003W        W54428   3.424  21.691  13.246
82004W        W54429  20.667   4.286   0.478
82005W        W54430  28.479   1.979  13.310
82006W        W54431  25.672   3.416  11.952
82007W        W54432   1.222   2.728  10.681
82008W        W54433  26.499  23.198   0.512
82009W        W54434   8.017  30.583   3.386
82010W        W54435  29.733  43.999  12.301
82011W        W54436   2.830   6.766  14.958
82012W        W54437   4.950   3.667  11.998
82013W        W54438   9.408   5.991   4.540
82014W        W54439  25.677  28.461   4.762
82015W        W54440   3.223  22.282  14.729
82016W        W54441  40.870  14.706  13.355
82017W        W54442   8.444  28.970  11.964
82018W        W54443  17.776  30.485  12.594
82019W        W54444   8.435   7.201  11.118
82020W        W54445  39.425   2.810  13.865
82021W        W54446  17.106  11.314   1.304
82022W        W54447  41.426  10.259   4.247
82023W        W54448  12.459  41.537  13.789
82024W        W54449  35.370  29.589   4.759
82025W        W54450   2.736  38.445   3.795
82026W        W54451   2.492  30.875   0.838
82027W        W54452  16.139  27.641  13.592
82028W        W54453   5.749   8.902  14.471
82029W        W54454  43.404  13.801  12.876
82030W        W54455   9.714  30.518  13.295
82031W        W54456  39.393   0.443   3.780
82032W        W54457   1.176   4.842  11.115
82033W        W54458  39.237  27.817   1.489
82034W        W54459  29.809  35.405   2.697
82035W        W54460  39.836  11.782  13.538
82036W        W54461  13.712  31.155  11.594
82037W        W54462   0.965  14.735   0.493
82038W        W54463  39.969  39.306  13.609
82039W        W54464  12.783   2.186   1.866
82040W        W54465   1.184   4.733   4.908
82041W        W54466  33.089  28.173   3.234
82042W        W54467  36.960  12.641   0.498
82043W        W54468  44.793  28.652  13.984
82044W        W54469   2.718  17.498   2.447
82045W        W54470  43.050  22.566  14.891
82046W        W54471   3.262  17.038   3.238
82047W        W54472  33.045  41.781   3.403
82048W        W54473  15.664   8.568  10.301
82049W        W54474   1.837   3.529  14.458
82050W        W54475  40.417   3.200   0.374
82051W        W54476  30.039   0.943  11.876
82052W        W54477  24.244  14.328  10.926
82053W        W54478  31.575   2.232   3.383
82054W        W54479  27.197   4.393   2.781
82055W        W54480  16.328  22.702   3.686
82056W        W54481  20.950  12.900   0.429
82057W        W54482  38.523  22.683  13.937
82058W        W54483  33.918  33.857  13.029
82059W        W54484  23.684  41.840  11.035
82060W        W54485  23.644  39.015  13.864
82061W        W54486   9.868  44.416  12.724
82062W        W54487  39.077  41.268  11.680
82063W        W54488  29.041  31.920   1.898
82064W        W54489  26.503  10.443  13.830
82065W        W54490   9.557  39.754   3.720
82066W        W54491   6.893  31.793  14.458
82067W        W54492  28.685  24.575  12.044
82068W        W54493   2.896  17.113  13.920
82069W        W54494  17.329   3.317   0.939
82070W        W54495   6.796  16.566   0.774
82071W        W54496   3.058   7.196   1.262
82072W        W54497   2.570  15.617   2.360
82073W        W54498  31.436  27.442  11.837
82074W        W54499  33.598  21.997   4.510
82075W        W54500  15.323  25.689   0.855
82076W        W54501  38.115  21.715  13.367
82077W        W54502  26.446  35.295   3.439
82078W        W54503  33.958  44.442  12.185
82079W        W54504  40.340  11.756   2.765
82080W        W54505  28.389  22.702  10.699
82081W        W54506  11.618  26.016   1.105
82082W        W54507  34.833  16.922  13.846
82083W        W54508   1.933  21.994  10.697
82084W        W54509  19.532   7.671   3.743
82085W        W54510  13.899  17.681  14.279
82086W        W54511   0.496  24.210  12.568
82087W        W54512   5.100   3.917  12.427
82088W        W54513   0.242  14.120   5.263
82089W        W54514  13.828  21.974  13.612
82090W        W54515  32.531  44.560  13.102
82091W        W54516  16.744  15.882  10.648
82092W        W54517  35.108   8.974   1.300
82093W        W54518   8.835   4.896   0.273
82094W        W54519   0.347  11.773   4.157
82095W        W54520  14.817  30.589  12.630
82096W        W54521  19.387   9.388   4.141
82097W        W54522  37.867  26.107   2.263
82098W        W54523  36.385   9.933  11.626
82099W        W54524  11.868   6.288  13.662
82100W        W54525  14.850  43.034  12.221
82101W        W54526  11.157  34.378   0.715
82102W        W54527  18.151  13.563   2.881
82103W        W54528  33.671  33.523   1.776
82104W        W54529  30.289  34.361  12.490
82105W        W54530  15.994  22.043  14.963
82106W        W54531  16.822  40.084   4.105
82107W        W54532   0.695   2.820  11.468
82108W        W54533  25.531   7.231  12.476
82109W        W54534  23.070  31.864   2.215
82110W        W54535  44.842  35.904  13.435
82111W        W54536  25.905  30.614   0.326
82112W        W54537   6.236  20.821  14.099
82113W        W54538  29.556  32.388  10.080
82114W        W54539  44.218  27.925   5.092
82115W        W54540  43.103   2.822   3.148
82116W        W54541  29.343  42.712  13.236
82117W        W54542  23.941  12.470  12.483
82118W        W54543   4.449  43.006  13.011
82119W        W54544   6.166   7.344  11.089
82120W        W54545  22.698   1.912  11.678
82121W        W54546  17.516  40.845   2.447
82122W        W54547  37.423  11.547   2.701
82123W        W54548  21.160  44.788  12.840
82124W        W54549  31.921  41.533   2.833
82125W        W54550   6.858  32.655  12.039
82126W        W54551  29.065  12.408  10.379
82127W        W54552   6.905  44.244  12.844
82128W        W54553  35.197   1.620   1.789
82129W        W54554  28.585  18.679   2.693
82130W        W54555  13.380  44.965   1.197
82131W        W54556  38.087  30.544   2.356
82132W        W54557  40.937  20.893   1.281
82133W        W54558  10.835  21.724   3.291
82134W        W54559   8.422   0.224   0.332
82135W        W54560  11.190   2.457  14.921
82136W        W54561  35.120  31.114  13.416
82137W        W54562  22.622  28.747  13.619
82138W        W54563   0.746  35.399  14.918
82139W        W54564   9.421  21.947  11.188
82140W        W54565   0.968  26.689  10.628
82141W        W54566  33.480  16.413   0.249
82142W        W54567  30.635   7.453  11.911
82143W        W54568  40.204  33.524  12.594
82144W        W54569  20.177  26.430  14.155
82145W        W54570   4.954  10.138   3.217
82146W        W54571  15.330   0.353   1.915
82147W        W54572  28.707  32.459  11.628
82148W        W54573  21.123  15.104   1.258
82149W        W54574  23.335  26.167   4.199
82150W        W54575  36.031  24.008  13.400
82151W        W54576  26.719  39.914  10.361
82152W        W54577  14.992   7.101   1.840
82153W        W54578  25.699  18.013   4.649
82154W        W54579  13.001   4.330   2.818
82155W        W54580  26.391   3.902  12.911
82156W        W54581   2.986  42.396   2.809
82157W        W54582   4.840  43.913   0.007
82158W        W54583  34.827   8.779   5.039
82159W        W54584   4.781   4.765  14.604
82160W        W54585  11.579   0.351   4.832
82161W        W54586   8.407  16.316   1.121
82162W        W54587   7.289  14.414   0.861
82163W        W54588  35.910   2.395   4.623
82164W        W54589  20.146   9.687  11.526
82165W        W54590  39.408  38.563   4.781
82166W        W54591  12.238   8.658   2.381
82167W        W54592  21.756  32.565  12.313
82168W        W54593   6.707  41.373   1.195
82169W        W54594  43.404  36.500  13.058
82170W        W54595  42.484  18.186   3.577
82171W        W54596  34.157  39.315   2.790
82172W        W54597  42.087  36.388   3.689
82173W        W54598  27.002  13.203  13.809
82174W        W54599  18.204  27.471  13.084
82175W        W54600  32.710  43.879  10.864
82176W        W54601  17.628  27.055   3.069
82177W        W54602   4.511  23.063  10.736
82178W        W54603  18.691  35.369  14.264
82179W        W54604   9.815   7.102   2.636
82180W        W54605  21.157   7.751  13.176
82181W        W54606  28.948  44.444   1.209
82182W        W54607   0.879  38.668   1.539
82183W        W54608  37.667  34.972   0.240
82184W        W54609  32.707  24.298  14.236
82185W        W54610  41.906   1.778   2.160
82186W        W54611  10.121  37.508   0.292
82187W        W54612  27.935  24.648  14.470
82188W        W54613  35.062  42.303   4.902
82189W        W54614  28.239   1.292  14.486
82190W        W54615   4.659   1.198   5.078
82191W        W54616  15.695  44.507   3.619
82192W        W54617  19.192  36.963   4.225
82193W        W54618  11.184  19.773  12.973
82194W        W54619  24.959  35.177   0.395
82195W        W54620  21.120  42.559   2.316
82196W        W54621   1.954   4.210   2.838
82197W        W54622  40.542  10.437   4.463
82198W        W54623  12.669  25.230   2.938
82199W        W54624  32.469   3.511  14.232
82200W        W54625  40.490  25.045  14.445
82201W        W54626  34.989  32.818  13.913
82202W        W54627  24.971  14.604  12.528
82203W        W54628  14.543  34.995   2.616
82204W        W54629   3.424  31.195   0.781
82205W        W54630  29.930  44.489   5.109
82206W        W54631  25.189  30.042  14.702
82207W        W54632   6.117  19.179   4.829
82208W        W54633   1.932   4.873  11.522
82209W        W54634  40.791   0.441  12.080
82210W        W54635  39.526  16.342  10.795
82211W        W54636  40.906  12.588  13.412
82212W        W54637  34.577  26.981   3.700
82213W        W54638  12.383   0.053   1.352
82214W        W54639  13.662  34.607  13.830
82215W        W54640  44.192   7.811  13.934
82216W        W54641  41.086   7.136  11.725
82217W        W54642  38.249  25.572   5.121
82218W        W54643  16.259  17.328   2.235
82219W        W54644  19.011  26.575  11.038
82220W        W54645  42.932   7.832  14.359
82221W        W54646  33.127   8.436   2.434
82222W        W54647  41.751  41.172  12.355
82223W        W54648  24.990  32.402   3.919
82224W        W54649   6.231  28.204  11.107
82225W        W54650  10.806  29.329   1.189
82226W        W54651  26.154  34.567   0.915
82227W        W54652  17.688   0.934   0.865
82228W        W54653  37.131  15.174   3.707
82229W        W54654  20.252  13.860   2.385
82230W        W54655   2.938  18.478   2.533
82231W        W54656  31.574  38.583   4.255
82232W        W54657  42.461  36.830   2.335
82233W        W54658  40.919  44.821   1.451
82234W        W54659  24.073  34.670   4.649
82235W        W54660  22.478  31.408   3.116
82236W        W54661  10.598  44.020  11.796
82237W        W54662  21.710   9.169  13.411
82238W        W54663  21.681  35.469  10.757
82239W        W54664   3.351  17.854  12.953
82240W        W54665   0.003  11.792  13.757
82241W        W54666  14.314  40.023   4.361
82242W        W54667  16.219   9.558  12.162
82243W        W54668  29.302  27.689   1.855
82244W        W54669  38.261  19.063  10.726
82245W        W54670  18.521  14.313  14.953
82246W        W54671  35.390  31.811   4.169
82247W        W54672  22.687  35.584   4.430
82248W        W54673  33.938  37.968   2.753
82249W        W54674  24.262  42.105  13.579
82250W        W54675  16.122  18.034   3.692
82251W        W54676  38.518   7.918  12.796
82252W        W54677  16.769  42.336   4.781
82253W        W54678  44.787  24.375   2.298
82254W        W54679  35.604  13.079  13.803
82255W        W54680  39.546   5.240   3.087
82256W        W54681  35.559  22.885  11.871
82257W        W54682  12.739  34.905   2.167
82258W        W54683   7.197   2.339  12.142
82259W        W54684   1.445  21.516   3.266
82260W        W54685  17.922  10.636  11.182
82261W        W54686  18.798  12.089   4.628
82262W        W54687  24.649  39.311   1.903
82263W        W54688   1.892  29.656  12.505
82264W        W54689   5.343  20.644  11.926
82265W        W54690  10.803  36.387   1.762
82266W        W54691  31.631   6.247  12.631
82267W        W54692  40.173  39.606  12.390
82268W        W54693  26.925   5.143  13.537
82269W        W54694  21.832  17.130  12.365
82270W        W54695  29.144   3.758  14.749
82271W        W54696  11.863  37.462  14.921
82272W        W54697  35.567  37.877  11.623
82273W        W54698  33.849  11.877   3.195
82274W        W54699  41.798   4.154   1.861
82275W        W54700  31.597  24.907   3.277
82276W        W54701  30.830  19.143  14.862
82277W        W54702   6.329  31.575   4.749
82278W        W54703  18.849  42.777  11.587
82279W        W54704  20.080  36.320   0.254
82280W        W54705  12.854  40.481   4.487
82281W        W54706  42.444   5.993   2.785
82282W        W54707  17.083  11.373   2.240
82283W        W54708   1.444   1.980   3.878
82284W        W54709  20.136  12.383  14.745
82285W        W54710  43.420   4.849  12.627
82286W        W54711  25.761  16.347   0.265
82287W        W54712  10.795  16.893   2.241
82288W        W54713  15.737  26.624  14.601
82289W        W54714  20.490  42.395  11.151
82290W        W54715  18.055  23.686   1.415
82291W        W54716  14.369  21.460   5.557
82292W        W54717  11.761  31.544  12.824
82293W        W54718  26.632   1.677  10.670
82294W        W54719  26.620   7.769   2.070
82295W        W54720   2.376  32.222  11.203
82296W        W54721  25.749  14.673  14.824
82297W        W54722  42.276   5.607   1.003
82298W        W54723  21.705  37.361  13.451
82299W        W54724   6.525  35.578   5.379
82300W        W54725  35.597  36.021   0.480
82301W        W54726  22.205  38.803   4.200
82302W        W54727  19.420  33.526  11.107
82303W        W54728  17.286  18.749   3.282
82304W        W54729  41.387   6.400  11.193
82305W        W54730  22.765  20.204   0.325
82306W        W54731   9.981  33.514   2.664
82307W        W54732  19.815  19.206  12.527
82308W        W54733  24.972  28.322   0.006
82309W        W54734  35.268  25.206   0.730
82310W        W54735  27.118  35.565   0.226
82311W        W54736  31.438  12.387  10.762
82312W        W54737  43.044  17.870  11.523
82313W        W54738  23.967  17.533  13.013
82314W        W54739  15.152  23.274  12.335
82315W        W54740   1.727  16.154   3.574
82316W        W54741   6.741  40.322  11.408
82317W        W54742  42.881  31.366   3.106
82318W        W54743  32.605  35.138   2.239
82319W        W54744   8.479  40.837  10.988
82320W        W54745  40.036  22.557  14.611
82321W        W54746  29.939   6.940   1.746
82322W        W54747  36.387  41.795  10.769
82323W        W54748  26.239  39.647   0.272
82324W        W54749  17.212  33.349  10.541
82325W        W54750  23.713  29.897   3.618
82326W        W54751  31.777   7.147   2.762
82327W        W54752  41.743  38.100  14.870
82328W        W54753  25.470  13.392  11.548
82329W        W54754  38.003  43.826   4.659
82330W        W54755  35.528  13.865   4.847
82331W        W54756  44.281  41.024  11.925
82332W        W54757  13.914  21.468   2.734
82333W        W54758  30.020   7.858   4.670
82334W        W54759  39.103  30.439   2.492
82335W        W54760  30.636  44.539   0.747
82336W        W54761  39.862  31.173   1.676
82337W        W54762   5.132  40.511  14.166
82338W        W54763  10.400   9.443  13.478
82339W        W54764  33.739   1.917  11.993
82340W        W54765   0.748  41.840  11.452
82341W        W54766  41.280  24.149   2.096
82342W        W54767  28.861  29.401   3.621
82343W        W54768   1.264  17.994  11.064
82344W        W54769   4.312  35.485   3.368
82345W        W54770  15.593  21.634  14.341
82346W        W54771  24.970  43.390   2.440
82347W        W54772  13.961   2.733   2.086
82348W        W54773  19.628  35.833  14.611
82349W        W54774  28.186   9.283   2.755
82350W        W54775  26.523  42.553   1.469
82351W        W54776   7.609   2.497   2.375
82352W        W54777  34.825  38.439  11.172
82353W        W54778  14.706  35.080   0.186
82354W        W54779  10.857   4.727  13.720
82355W        W54780  18.188  43.522   0.433
82356W        W54781  11.840  12.890   4.386
82357W        W54782  36.044  41.028   0.017
82358W        W54783  25.974  38.545  12.987
82359W        W54784  25.531  41.830   4.633
82360W        W54785  17.699  44.959  11.865
82361W        W54786  17.286  41.992  13.043
82362W        W54787  34.047  24.461  13.455
82363W        W54788  11.715  43.813   1.883
82364W        W54789   7.241  20.263   0.305
82365W        W54790  22.549  15.264  13.156
82366W        W54791  19.668  29.565  13.708
82367W        W54792  22.453  23.023   4.040
82368W        W54793  37.345  16.173   3.727
82369W        W54794  18.096  30.005  12.085
82370W        W54795  29.469  42.212   3.115
82371W        W54796  11.207   1.000  11.186
82372W        W54797  34.668  43.715   1.708
82373W        W54798  31.133  29.072  13.231
82374W        W54799  18.817  15.786   3.108
82375W        W54800  30.542  40.397  11.592
82376W        W54801   8.117   3.212  14.850
82377W        W54802  42.136  10.256   2.283
82378W        W54803  44.710  43.277   4.123
82379W        W54804  26.462   5.354  14.734
82380W        W54805  17.815  42.278   3.659
82381W        W54806  36.033  33.432   3.718
82382W        W54807  29.692  10.173  12.310
82383W        W54808  12.777  23.341  11.445
82384W        W54809   0.433  32.125  13.814
82385W        W54810  33.032  26.944  10.963
82386W        W54811  12.215   1.966   4.954
82387W        W54812  43.398  18.135  13.985
82388W        W54813  23.102  20.828  14.700
82389W        W54814  17.552   2.491   3.685
82390W        W54815  41.034  11.217   3.711
82391W        W54816  25.652  38.530   4.140
82392W        W54817  42.274  29.719   3.205
82393W        W54818  31.512  40.074   0.607
82394W        W54819  36.483   5.978  13.403
82395W        W54820   3.783  28.460   0.073
82396W        W54821  15.247  38.299   3.924
82397W        W54822  27.392  10.253  14.477
82398W        W54823  29.564  27.979   0.190
82399W        W54824  12.269  43.466  10.672
82400W        W54825  13.537  19.590   1.140
82401W        W54826  38.069  44.249   2.221
82402W        W54827  19.501  43.800   4.013
82403W        W54828  10.938  35.195   3.346
82404W        W54829  15.098  10.098  13.775
82405W        W54830  25.621  41.706  14.883
82406W        W54831   4.860  29.106   2.735
82407W        W54832  22.589   2.951  13.453
82408W        W54833  42.901  38.947  13.103
82409W        W54834   3.241   9.235  14.981
82410W        W54835  30.984  25.998  12.916
82411W        W54836  14.459  22.331   3.646
82412W        W54837   6.830  29.037  14.301
82413W        W54838  12.107  16.703   4.114
82414W        W54839  15.351  44.554  13.623
82415W        W54840  33.989   8.894  13.519
82416W        W54841   3.748  37.453   4.130
82417W        W54842  21.785  36.972  11.550
82418W        W54843   9.900  17.116   3.191
82419W        W54844  44.491  32.930  14.292
82420W        W54845  22.586   0.871   0.692
82421W        W54846   7.059   5.141   0.855
82422W        W54847  39.781  43.946  11.848
82423W        W54848   5.285  14.880   1.627
82424W        W54849  11.172  29.607  13.418
82425W        W54850   9.236  18.538   3.212
82426W        W54851  15.161   6.417   2.190
82427W        W54852   2.854  35.458  12.496
82428W        W54853   6.146  34.172  11.980
82429W        W54854  27.697  17.198  11.728
82430W        W54855  17.683   0.239   4.671
82431W        W54856   1.778  36.355  13.721
82432W        W54857   5.831  15.966   4.520
82433W        W54858  44.714   7.796   4.795
82434W        W54859  30.431   3.358   0.892
82435W        W54860  29.116  38.813   1.196
82436W        W54861  21.033  27.822  13.611
82437W        W54862  21.709  23.539  10.905
82438W        W54863   4.784   3.456  12.431
82439W        W54864  32.090   8.422  13.882
82440W        W54865  11.933  10.260   2.821
82441W        W54866  30.975  27.442  11.560
82442W        W54867  36.633  42.915  13.549
82443W        W54868  43.061   5.182   2.757
82444W        W54869   1.981   1.919   4.627
82445W        W54870  19.296   2.417  12.557
82446W        W54871  18.756  23.658  12.571
82447W        W54872  17.489  39.075   3.055
82448W        W54873   9.410  27.326  12.044
82449W        W54874  38.596   6.881  11.459
82450W        W54875   4.163  41.106  14.404
82451W        W54876  11.738  21.514  12.045
82452W        W54877   8.732  18.050   1.458
82453W        W54878  29.930  43.079   2.818
82454W        W54879  32.947   0.865  10.526
82455W        W54880  42.212  20.182  11.427
82456W        W54881   9.311  24.556   2.140
82457W        W54882   7.269   3.211  13.609
82458W        W54883  39.184  25.936  14.848
82459W        W54884   9.631  15.010  11.517
82460W        W54885  39.571  13.358  14.448
82461W        W54886   4.444   3.150  11.486
82462W        W54887  17.918  12.298   2.495
82463W        W54888  43.012  12.739   2.154
82464W        W54889  32.088  15.935   2.781
82465W        W54890  11.657  17.061  10.630
82466W        W54891  12.180   0.272  11.972
82467W        W54892   0.950  43.269  14.342
82468W        W54893  14.382  32.692  11.211
82469W        W54894  35.482  39.986   3.620
82470W        W54895  14.610  10.770   2.188
82471W        W54896  15.649  34.317   3.990
82472W        W54897  39.783  30.687  12.389
82473W        W54898  41.049  37.476  12.444
82474W        W54899  26.175  25.623   0.874
82475W        W54900  12.823  38.350  13.894
82476W        W54901   6.466  26.474  10.514
82477W        W54902   5.111  21.989  11.889
82478W        W54903  35.362  16.174  12.689
82479W        W54904  35.380  29.444   1.882
82480W        W54905  40.651   1.259  10.770
82481W        W54906  28.580  32.354   0.861
82482W        W54907  25.536  33.276  11.025
82483W        W54908  33.962   6.423  13.334
82484W        W54909   5.622  31.656  14.871
82485W        W54910  22.135  11.624  14.344
82486W        W54911  13.174  27.207   0.647
82487W        W54912  23.076  41.497   4.267
82488W        W54913  33.499  23.501   3.730
82489W        W54914  17.844  23.989  14.366
82490W        W54915  13.340  18.520  13.471
82491W        W54916   7.766  30.940   1.511
82492W        W54917  26.878  43.357  12.503
82493W        W54918  39.745  35.053   2.646
82494W        W54919   1.153   4.114   1.322
82495W        W54920  26.224  36.041   1.433
82496W        W54921  28.402  11.471   4.204
82497W        W54922   0.020  26.414  10.776
82498W        W54923   5.369  19.291   1.747
82499W        W54924  42.382  37.429   1.414
82500W        W54925  27.974   6.162  12.410
82501W        W54926  33.603   9.693  12.942
82502W        W54927  33.212   3.784  10.539
82503W        W54928  35.825   6.899  12.599
82504W        W54929  24.227  37.696  10.674
82505W        W54930  10.828   9.397  11.459
82506W        W54931  40.283  28.537   3.617
82507W        W54932  39.073  35.673   1.251
82508W        W54933   3.270  43.810   3.748
82509W        W54934  23.518   1.469   2.015
82510W        W54935  15.750   7.418  13.569
82511W        W54936   4.181  31.469   4.501
82512W        W54937  15.791   9.967   4.059
82513W        W54938  12.213  29.165   2.264
82514W        W54939  11.856  11.042   9.648
82515W        W54940  29.654  20.003  11.596
82516W        W54941  13.289   7.380   2.468
82517W        W54942   3.216  15.517  11.149
82518W        W54943   1.988  41.599   0.828
82519W        W54944  34.088  17.550   2.811
82520W        W54945  15.171   9.416  14.560
82521W        W54946  35.344   2.907  14.347
82522W        W54947  30.394  14.310   2.806
82523W        W54948  19.854  19.257  13.433
82524W        W54949   5.031  37.995   3.908
82525W        W54950  37.709  40.305  14.849
82526W        W54951  42.889  32.631  12.438
82527W        W54952   2.656  24.393   3.338
82528W        W54953  17.151  15.839  13.361
82529W        W54954  30.060  16.357  11.509
82530W        W54955   8.825  18.069  11.631
82531W        W54956  33.809  22.451  10.684
82532W        W54957  25.620  23.518  12.009
82533W        W54958  13.222  36.665   3.658
82534W        W54959  33.387  15.717   3.476
82535W        W54960   2.407  22.151   0.430
82536W        W54961  42.811  40.313   0.523
82537W        W54962  40.837  18.709  12.851
82538W        W54963  21.081  29.894   2.687
82539W        W54964   1.918  31.595  10.521
82540W        W54965  12.393  14.135   0.354
82541W        W54966   3.836  37.083  11.414
82542W        W54967  31.596   6.821   3.126
82543W        W54968  29.597  31.089  12.152
82544W        W54969   5.874  26.491  13.329
82545W        W54970  14.330  42.290  11.328
82546W        W54971  32.340   4.412   2.033
82547W        W54972  13.125  20.694  10.468
82548W        W54973  31.942  14.494  14.889
82549W        W54974  15.749  25.536   4.121
82550W        W54975   6.171  30.360  13.459
82551W        W54976  25.827  42.592  12.147
82552W        W54977  12.370  36.361   3.179
82553W        W54978   7.408   0.890   4.596
82554W        W54979  33.531   3.825   4.684
82555W        W54980  13.218  20.006   1.133
82556W        W54981   9.446   5.225  13.392
82557W        W54982  21.649  44.359  13.369
82558W        W54983  24.252  40.484   0.214
82559W        W54984  35.009  23.116  11.000
82560W        W54985  42.183   9.814  13.923
82561W        W54986  36.012  44.007   3.660
82562W        W54987   7.746  26.583   0.338
82563W        W54988  31.252   5.140   2.231
82564W        W54989  19.636   5.891  12.693
82565W        W54990   1.495  34.051  14.075
82566W        W54991   2.384  33.939  11.728
82567W        W54992  20.741  20.532  11.579
82568W        W54993  31.132  22.322   3.245
82569W        W54994  19.496   3.805  10.835
82570W        W54995  13.704  29.091   3.713
82571W        W54996   0.796  33.177   1.067
82572W        W54997  43.739  36.917   3.309
82573W        W54998   7.149   7.164   1.938
82574W        W54999  31.624  25.222   2.367
82575W        W55000  38.502  42.482  14.366
82576W        W55001   7.274  26.897  13.565
82577W        W55002  40.480  22.744  10.412
82578W        W55003   5.197  26.707   4.197
82579W        W55004   7.644  33.351   2.342
82580W        W55005  36.874   0.776   0.195
82581W        W55006  40.320  24.575  13.563
82582W        W55007  11.339  26.924   0.705
82583W        W55008  29.955  38.147  13.952
82584W        W55009   8.430  10.408   2.283
82585W        W55010   3.796  34.357  13.262
82586W        W55011   5.818  20.847  14.946
82587W        W55012   8.189  37.377  12.138
82588W        W55013   0.014  24.683  10.401
82589W        W55014  19.024   0.549  13.401
82590W        W55015   7.176  27.488   0.256
82591W        W55016  24.684  12.788  14.782
82592W        W55017  41.420  26.687   3.604
82593W        W55018  28.165  16.286  12.028
82594W        W55019   3.464  34.583  14.520
82595W        W55020  10.759  40.412   4.857
82596W        W55021  39.805  34.876   3.553
82597W        W55022  43.953  40.838  10.803
82598W        W55023  26.573  28.412   0.676
82599W        W55024  30.903  19.039  11.292
82600W        W55025  21.051  12.008  12.228
82601W        W55026   9.159  36.766   4.941
82602W        W55027   0.159  21.271  13.512
82603W        W55028   7.111  40.318   3.200
82604W        W55029  14.065   1.834   3.418
82605W        W55030  36.805  21.596   2.341
82606W        W55031  18.752  15.533   2.665
82607W        W55032  43.746   7.347  12.244
82608W        W55033  31.731  35.164   0.486
82609W        W55034  12.672  35.086   2.942
82610W        W55035  21.753  28.361  11.771
82611W        W55036   6.431  19.715   0.228
82612W        W55037  33.000  16.469   1.501
82613W        W55038  39.581  32.005  10.442
82614W        W55039   5.188  30.671  10.779
82615W        W55040  29.558  41.826  12.901
82616W        W55041  14.760   5.021   0.456
82617W        W55042  40.783  13.601   0.212
82618W        W55043   9.199  25.577   2.874
82619W        W55044  11.779  29.465  14.575
82620W        W55045  20.480   7.494  11.518
82621W        W55046  23.140  35.838   0.311
82622W        W55047   3.452   2.791  13.694
82623W        W55048  21.222  30.578  13.939
82624W        W55049  22.813   1.921  14.004
82625W        W55050  36.099  14.279  13.774
82626W        W55051  43.309  14.092   2.224
82627W        W55052  20.005  24.067  13.765
82628W        W55053   4.729  44.437   4.590
82629W        W55054  18.617  30.498  12.309
82630W        W55055  28.961  27.738   0.777
82631W        W55056  18.836   7.310  12.503
82632W        W55057   7.286  14.061  10.751
82633W        W55058  15.891  26.391  10.072
82634W        W55059  13.614  38.068  10.690
82635W        W55060  43.047   4.925  10.704
82636W        W55061   5.356  29.771   2.787
82637W        W55062  15.851   0.962   1.569
82638W        W55063  18.881  35.109   1.388
82639W        W55064  30.498  39.987  14.863
82640W        W55065  22.513  28.068   0.282
82641W        W55066  28.812   3.511  11.168
82642W        W55067  18.527  40.050  11.597
82643W        W55068  25.191  30.665   4.795
82644W        W55069  38.898   7.217   1.185
82645W        W55070  38.064   5.203  13.263
82646W        W55071  40.584  31.105   2.786
82647W        W55072   8.600  23.013   4.164
82648W        W55073  34.135   6.317  10.941
82649W        W55074  38.477  23.149  13.698
82650W        W55075  23.180  19.981   2.723
82651W        W55076  26.980  42.848   1.857
82652W        W55077  33.097  21.278   3.340
82653W        W55078  12.783  36.395  13.589
82654W        W55079  25.903  43.794   1.684
82655W        W55080   1.253  31.636   3.928
82656W        W55081  29.950  26.661  10.958
82657W        W55082  18.847   0.394  11.001
82658W        W55083   3.638  23.920   1.898
82659W        W55084  43.341   6.821   0.254
82660W        W55085  38.796   2.932   0.844
82661W        W55086  22.218  37.583  10.621
82662W        W55087   4.337   8.841   1.792
82663W        W55088   2.491  25.297  13.105
82664W        W55089  40.295  14.621  13.136
82665W        W55090  19.917   1.109  10.891
82666W        W55091  20.661   8.930   1.330
82667W        W55092  16.301   5.466  12.146
82668W        W55093   7.428   6.776   3.639
82669W        W55094   5.537  42.099  11.626
82670W        W55095   1.268  31.633   2.036
82671W        W55096   8.399  12.165   4.570
82672W        W55097  20.462  15.705  10.641
82673W        W55098   6.811   2.295  14.745
82674W        W55099   6.721  19.719   0.891
82675W        W55100  27.554  23.487   3.165
82676W        W55101  10.695  38.162  12.600
82677W        W55102  35.104   1.188   2.666
82678W        W55103  32.219  42.830  12.367
82679W        W55104  18.093  17.541  11.684
82680W        W55105  19.334   8.293   3.698
82681W        W55106  44.989  19.188   4.237
82682W        W55107   4.514   1.800   4.200
82683W        W55108  22.035  41.503  14.964
82684W        W55109   7.701   1.693  11.514
82685W        W55110  42.496   3.887  12.415
82686W        W55111  10.426   8.204  12.486
82687W        W55112  24.709  21.746   1.895
82688W        W55113   2.819  19.723   3.864
82689W        W55114  11.133  24.482  14.506
82690W        W55115  23.286  24.520   4.651
82691W        W55116   4.410   4.386  11.547
82692W        W55117  29.115  26.474  13.131
82693W        W55118  11.825   4.002   4.068
82694W        W55119  14.598   9.561   0.734
82695W        W55120  43.286   4.207  11.194
82696W        W55121  19.841  30.133   4.736
82697W        W55122   9.082  17.136   4.806
82698W        W55123  32.154  12.830  14.410
82699W        W55124  39.938  10.622   1.036
82700W        W55125  42.987  22.023   2.373
82701W        W55126  25.186  11.614  11.188
82702W        W55127  27.980   3.277  12.181
82703W        W55128  21.304  38.517  12.966
82704W        W55129  25.501  32.770  10.812
82705W        W55130  15.677  12.143  12.456
82706W        W55131   3.352   3.325  10.091
82707W        W55132  27.404   7.255   2.967
82708W        W55133   8.213   3.256   3.760
82709W        W55134   6.251   5.684  11.577
82710W        W55135  17.678   3.270   1.907
82711W        W55136   7.473   9.521  11.048
82712W        W55137  20.115   5.977  12.879
82713W        W55138  35.139  28.182   3.838
82714W        W55139  18.742   3.045   3.357
82715W        W55140   6.750  24.942   0.401
82716W        W55141  26.719  34.918   4.736
82717W        W55142  31.585  34.604  10.644
82718W        W55143  25.784   1.738  12.362
82719W        W55144  17.801  27.691  13.377
82720W        W55145  22.842  23.539  10.540
82721W        W55146  25.491   0.992  13.451
82722W        W55147  13.778  17.576  12.331
82723W        W55148  15.317  37.108  13.914
82724W        W55149   2.755  36.567  11.916
82725W        W55150   5.790  41.426  12.131
82726W        W55151  44.374  22.223   1.080
82727W        W55152   0.778  33.710   3.239
82728W        W55153   8.398  12.276  11.011
82729W        W55154  23.162  16.138  13.963
82730W        W55155  26.436  38.321  11.152
82731W        W55156   3.867  29.457   3.790
82732W        W55157  41.591  39.916  13.481
82733W        W55158  19.594  30.207   1.823
82734W        W55159   1.858  22.510  10.886
82735W        W55160  10.267   4.258   2.449
82736W        W55161  26.033  44.953   4.202
82737W        W55162  35.262  34.591   4.560
82738W        W55163  13.748  33.516  12.404
82739W        W55164  43.508  29.356   3.686
82740W        W55165  41.183  42.910  10.311
82741W        W55166  37.743  20.284  13.600
82742W        W55167  10.077  15.363   2.880
82743W        W55168   7.485  13.146  14.015
82744W        W55169  23.038  25.642   0.842
82745W        W55170  37.296  20.059  13.794
82746W        W55171   8.417   2.954  14.437
82747W        W55172  30.635  17.143  14.438
82748W        W55173  41.490  36.476   0.196
82749W        W55174  13.165  33.552  10.819
82750W        W55175   5.224  39.609   0.802
82751W        W55176   6.687  11.764   4.632
82752W        W55177  29.025  41.739   2.769
82753W        W55178   3.716  14.252  11.505
82754W        W55179   1.357  19.587  14.981
82755W        W55180   3.286  39.547  12.967
82756W        W55181  28.138   4.275  12.047
82757W        W55182  17.573  22.741  10.149
82758W        W55183  18.303  19.309   0.342
82759W        W55184  40.799   3.797   4.245
82760W        W55185  35.605  23.562   3.288
82761W        W55186  12.864  39.004   0.885
82762W        W55187  39.146   3.339  14.925
82763W        W55188  43.773  38.544  11.565
82764W        W55189  13.661  38.509  12.115
82765W        W55190  39.385   1.047   1.429
82766W        W55191  26.524  14.556  11.437
82767W        W55192  13.646  29.190   4.759
82768W        W55193   7.998  12.580  13.128
82769W        W55194  24.862  17.165   2.217
82770W        W55195   0.324  20.722   0.269
82771W        W55196  19.177  40.198  11.065
82772W        W55197  42.703  27.019  14.820
82773W        W55198  19.578   3.324   1.508
82774W        W55199  38.371   7.863   0.766
82775W        W55200   9.579  40.930   4.375
82776W        W55201  44.683  24.396  12.554
82777W        W55202  19.489  20.807   3.146
82778W        W55203  19.667  23.946  14.892
82779W        W55204  23.256  35.854   3.163
82780W        W55205  22.139  12.426  11.371
82781W        W55206  16.727  28.836   4.064
82782W        W55207   4.238  29.821  12.779
82783W        W55208  21.201  14.615   1.456
82784W        W55209   4.258  16.552   2.152
82785W        W55210  35.295  44.036  10.543
82786W        W55211   6.348  30.458   0.359
82787W        W55212  35.319  16.666  14.413
82788W        W55213  29.443  42.512  10.410
82789W        W55214  16.861  26.500   5.112
82790W        W55215  12.268  18.177  14.951
82791W        W55216  28.067   4.646  12.704
82792W        W55217  44.839  44.447  14.570
82793W        W55218  40.779  22.557   3.660
82794W        W55219   5.239  13.211  11.751
82795W        W55220   8.935  40.088  13.922
82796W        W55221  26.166  21.125  11.127
82797W        W55222  34.447  31.976  13.976
82798W        W55223  31.309  10.281  14.408
82799W        W55224  35.356  27.632   2.884
82800W        W55225  17.250  38.074   0.425
82801W        W55226  44.836  43.473   1.178
82802W        W55227   9.589  40.132   1.960
82803W        W55228  24.676  41.438  14.312
82804W        W55229  17.077   1.193   2.190
82805W        W55230  13.741  13.659   1.077
82806W        W55231  36.022  43.024   3.728
82807W        W55232  13.107  41.838  14.819
82808W        W55233  13.180  29.401   2.306
82809W        W55234  23.761  38.775   3.376
82810W        W55235  26.911   2.504   3.119
82811W        W55236   5.984  29.828   1.302
82812W        W55237   4.698  14.621   0.512
82813W        W55238  23.609  11.118   0.716
82814W        W55239  33.649  31.930   4.158
82815W        W55240  13.034   7.712   0.791
82816W        W55241  11.700  25.187  11.974
82817W        W55242  33.641  27.043  10.855
82818W        W55243  12.909  25.685   3.765
82819W        W55244  42.767  19.216   0.259
82820W        W55245   1.870  31.580  12.840
82821W        W55246   7.298  29.059  14.810
82822W        W55247   9.604  29.179   4.109
82823W        W55248  30.341   2.880   0.739
82824W        W55249  43.229  29.177  13.925
82825W        W55250   6.136   1.348   4.688
82826W        W55251  13.269  13.804   1.250
82827W        W55252  17.188  14.538   2.849
82828W        W55253  35.983  24.155   4.895
82829W        W55254  12.503  12.756  13.313
82830W        W55255   9.739  26.963   2.874
82831W        W55256  23.291  44.898   0.939
82832W        W55257   1.920   9.309  13.542
82833W        W55258  36.612  34.829   4.680
82834W        W55259  21.162   8.689  14.895
82835W        W55260  38.347  33.496   0.479
82836W        W55261  13.506   2.077   4.518
82837W        W55262  26.452   6.069   3.727
82838W        W55263  29.096  21.171   4.205
82839W        W55264  33.648  24.817  12.422
82840W        W55265  12.226   7.811  11.473
82841W        W55266   0.682  33.873   2.760
82842W        W55267  28.173   8.652   3.122
82843W        W55268  26.686  17.221   0.821
82844W        W55269  38.266  20.187  12.619
82845W        W55270  43.928  32.118   2.004
82846W        W55271  40.032  18.071   2.758
82847W        W55272   6.466  19.041   0.010
82848W        W55273  21.825  37.586   1.836
82849W        W55274  38.736  26.638   0.251
82850W        W55275  39.023  34.432   0.754
82851W        W55276  42.932   1.872   0.598
82852W        W55277  39.965   3.477   0.383
82853W        W55278  33.895  41.058   4.373
82854W        W55279  34.561  15.864  14.627
82855W        W55280  35.601  11.408   3.106
82856W        W55281  37.898  18.431  12.480
82857W        W55282  22.987  41.070  14.129
82858W        W55283   8.973  37.989  10.965
82859W        W55284  24.780  44.903  10.735
82860W        W55285  19.017  37.570  11.891
82861W        W55286  18.724  29.360   5.016
82862W        W55287  31.356  39.920  10.241
82863W        W55288   5.580  43.483   1.968
82864W        W55289   4.899  22.620  12.112
82865W        W55290  41.952  11.410  10.913
82866W        W55291  14.471  10.336   4.203
82867W        W55292   9.892  10.791   0.019
82868W        W55293  14.903  34.586  10.342
82869W        W55294  35.066   1.924   3.225
82870W        W55295  33.938  13.782  11.689
82871W        W55296  22.258  11.302  10.566
82872W        W55297  11.114  35.559   2.299
82873W        W55298   3.694  39.989   3.196
82874W        W55299  40.516  30.300  11.485
82875W        W55300   9.633  25.020  11.143
82876W        W55301  24.595   3.320  13.444
82877W        W55302  42.887  37.196  13.837
82878W        W55303  42.189   3.737   4.224
82879W        W55304  18.636  14.757  12.300
82880W        W55305  31.415  41.508   2.683
82881W        W55306  17.620  32.968  12.916
82882W        W55307  10.663  43.378  12.409
82883W        W55308  37.336  27.727   0.696
82884W        W55309   3.274   6.403  13.272
82885W        W55310  21.100  30.618  10.259
82886W        W55311  37.028   8.136  11.715
82887W        W55312  25.633  25.402   3.213
82888W        W55313  44.528  21.705  14.777
82889W        W55314   1.881   0.825  11.454
82890W        W55315   1.528  40.954   2.630
82891W        W55316  15.149  32.415   1.320
82892W        W55317  30.558  25.502   4.135
82893W        W55318  24.825  44.804   3.620
82894W        W55319  29.180  38.650  10.168
82895W        W55320   9.609  16.164   0.488
82896W        W55321  39.806   1.233  11.151
82897W        W55322   9.631  34.424  12.301
82898W        W55323  12.028  43.737   0.317
82899W        W55324  11.713  11.845   1.484
82900W        W55325  12.254  43.878   2.811
82901W        W55326   2.390   4.782   1.298
82902W        W55327  44.336  17.228   4.190
82903W        W55328  28.700  21.079  13.918
82904W        W55329  44.252  11.916  10.159
82905W        W55330  24.138  15.056   0.949
82906W        W55331   6.922  26.279  11.202
82907W        W55332  17.012  35.586  13.374
82908W        W55333  19.976  12.075  11.654
82909W        W55334  37.876   5.876   1.148
82910W        W55335  29.039   1.866   4.382
82911W        W55336   1.711  36.939  14.373
82912W        W55337  43.342  13.315   2.439
82913W        W55338  11.898  11.492   3.208
82914W        W55339  44.000  40.315  13.589
82915W        W55340  37.576  21.216   3.710
82916W        W55341  15.224   5.775   0.459
82917W        W55342   1.273  39.489  10.823
82918W        W55343   8.500  13.675   1.777
82919W        W55344  14.715   2.660   0.976
82920W        W55345  20.167   1.286  14.443
82921W        W55346  22.613  10.662   5.473
82922W        W55347  32.723  15.193   1.337
82923W        W55348  34.676  37.520  14.559
82924W        W55349  18.894  11.189  12.622
82925W        W55350  26.009  28.072   1.788
82926W        W55351  22.876  25.039   5.030
82927W        W55352  22.802  22.506  12.920
82928W        W55353  26.202  12.560  14.866
82929W        W55354   0.419  19.514   4.191
82930W        W55355   7.132   5.766   2.935
82931W        W55356  32.307  19.289  13.509
82932W        W55357  17.004  15.216  14.245
82933W        W55358  27.698  11.238   2.380
82934W        W55359  26.087  23.491   0.261
82935W        W55360  20.724  33.177  14.896
82936W        W55361  21.561  24.283  13.275
82937W        W55362  32.284  23.264   2.552
82938W        W55363   3.301  16.772  13.248
82939W        W55364  26.191  20.426   1.931
82940W        W55365  44.982  26.447  13.433
82941W        W55366  27.519  42.528   3.698
82942W        W55367  14.395  35.053  13.223
82943W        W55368  12.857  40.906  11.539
82944W        W55369  33.703  11.120   3.305
82945W        W55370   0.438  33.068  11.919
82946W        W55371  42.836  17.802  14.508
82947W        W55372  30.444  26.233   4.647
82948W        W55373  18.163  18.245   4.661
82949W        W55374  18.156  17.434   2.270
82950W        W55375  38.705  34.596  14.771
82951W        W55376   0.976  21.707  12.657
82952W        W55377  14.214   7.930  13.934
82953W        W55378  24.620   4.275  13.155
82954W        W55379  36.029   5.952   0.329
82955W        W55380  18.723  34.403  12.394
82956W        W55381  17.759  28.989   4.876
82957W        W55382  21.121  36.727   2.185
82958W        W55383   1.553  43.333  13.610
82959W        W55384   9.734  33.069   2.965
82960W        W55385  20.039   1.047  12.144
82961W        W55386  34.072  15.296   2.866
82962W        W55387  26.667   3.414   0.411
82963W        W55388  44.545   8.632   1.819
82964W        W55389   2.154  19.113  13.963
82965W        W55390  34.838  13.534  13.861
82966W        W55391  12.648  17.833  10.949
82967W        W55392   6.142  41.949   4.470
82968W        W55393   8.283  41.597   1.830
82969W        W55394  11.271   2.961   1.978
82970W        W55395  38.220   6.200   0.144
82971W        W55396  37.359  32.817  10.510
82972W        W55397  20.474  44.393   4.727
82973W        W55398  21.844  17.035   3.103
82974W        W55399  27.964  18.520  12.369
82975W        W55400  33.070  15.787  11.984
82976W        W55401   3.771  31.016   3.318
82977W        W55402  20.702  24.364  10.826
82978W        W55403  44.476   8.307   5.056
82979W        W55404  20.058  28.310  12.414
82980W        W55405  20.266  14.853   3.663
82981W        W55406  27.001  44.398   0.533
82982W        W55407  25.110  37.854  11.206
82983W        W55408  11.359  24.411  14.973
82984W        W55409  41.194  13.077   3.361
82985W        W55410  19.151  21.957   3.220
82986W        W55411  41.958   6.853  10.446
82987W        W55412  43.706  20.029   0.503
82988W        W55413  29.711   1.093  14.388
82989W        W55414  23.493  40.060  14.716
82990W        W55415   3.661  16.974  14.730
82991W        W55416  10.178  42.338   0.891
82992W        W55417  39.088   9.719   1.369
82993W        W55418  42.463   2.759   0.930
82994W        W55419   1.813  12.177   3.293
82995W        W55420  23.631  10.672   1.431
82996W        W55421  34.988  16.615  14.822
82997W        W55422   2.262  30.106  14.482
82998W        W55423   8.117  35.386  14.251
82999W        W55424   8.909  17.570   3.698
83000W        W55425  40.321  40.999   2.868
83001W        W55426  36.852   2.182   0.732
83002W        W55427  28.032  23.125  10.713
83003W        W55428   1.791  23.455  14.870
83004W        W55429  43.322  13.859   0.965
83005W        W55430  27.830  34.677   1.976
83006W        W55431   2.497  26.917  10.470
83007W        W55432  32.520  34.475  10.694
83008W        W55433  22.124   1.828  13.430
83009W        W55434  35.124   0.390  13.964
83010W        W55435  32.156   2.017   1.647
83011W        W55436   3.616   8.934  12.140
83012W        W55437  18.054   3.513   1.646
83013W        W55438  27.652  21.940   4.794
83014W        W55439  21.944   5.359   4.199
83015W        W55440  39.985   2.874  14.058
83016W        W55441  41.069  14.654   1.803
83017W        W55442  43.269  42.307   2.691
83018W        W55443   8.317   1.492  13.812
83019W        W55444   0.159  30.102   0.263
83020W        W55445  13.053   1.396   0.467
83021W        W55446  38.245  30.389   5.378
83022W        W55447  41.328  28.489   0.959
83023W        W55448  17.993   9.414  12.888
83024W        W55449   5.418  20.775  11.426
83025W        W55450  28.595  17.309   2.807
83026W        W55451  18.743  39.878   4.529
83027W        W55452   4.761   1.130  12.889
83028W        W55453   0.001   5.062   1.883
83029W        W55454   1.601  16.601   0.915
83030W        W55455  13.138  14.450  11.189
83031W        W55456  25.291  14.680   1.769
83032W        W55457   1.007   7.740   2.956
83033W        W55458  27.388  43.077   0.467
83034W        W55459   3.536  20.083  13.982
83035W        W55460   3.124  36.481  10.633
83036W        W55461  11.847  38.467  13.329
83037W        W55462  29.864  27.456  14.739
83038W        W55463   4.609  37.597  10.867
83039W        W55464  26.053   8.377  12.175
83040W        W55465  44.741   8.815  13.476
83041W        W55466  17.363  28.369  14.913
83042W        W55467  19.143  42.529   0.294
83043W        W55468  21.983  12.693   4.547
83044W        W55469  19.113  22.304   1.618
83045W        W55470  43.883  23.804   0.486
83046W        W55471  34.677   6.611  13.919
83047W        W55472   7.381  19.281  13.968
83048W        W55473   9.546  37.512  14.472
83049W        W55474  35.390  40.806   0.293
83050W        W55475  34.345  31.019  11.179
83051W        W55476  35.507   2.755  11.945
83052W        W55477   0.498  42.830  12.501
83053W        W55478  43.332  44.030  13.452
83054W        W55479  14.406  34.807   4.240
83055W        W55480  17.015  21.200  13.403
83056W        W55481  23.481   4.241   0.823
83057W        W55482  34.423  12.702  12.011
83058W        W55483   0.819   3.289   5.135
83059W        W55484   1.419   3.225   4.466
83060W        W55485  12.279  24.754   0.874
83061W        W55486  25.154  21.990  13.214
83062W        W55487  18.681   7.171   4.577
83063W        W55488  16.607  43.824   2.316
83064W        W55489  10.259  19.543   4.735
83065W        W55490  25.431  21.697  14.984
83066W        W55491  16.272   7.565  13.061
83067W        W55492   8.900  41.453   2.807
83068W        W55493  36.099  17.019   1.373
83069W        W55494  41.744  29.925   4.375
83070W        W55495  10.996  10.590  12.833
83071W        W55496  26.604  29.227   1.897
83072W        W55497   9.497  35.469  13.704
83073W        W55498   2.025  19.193   1.349
83074W        W55499  13.246  25.398  14.905
83075W        W55500   6.675   2.143   4.131
83076W        W55501  28.462  28.992  11.607
83077W        W55502  27.438   5.919  11.682
83078W        W55503  39.002  33.206  12.360
83079W        W55504  20.741   7.654   2.279
83080W        W55505  16.877  37.985   0.052
83081W        W55506  32.405   9.922  14.933
83082W        W55507  37.445   5.305   0.924
83083W        W55508  36.306  43.279   3.358
83084W        W55509  20.851   3.940  12.609
83085W        W55510   1.830  40.893  10.638
83086W        W55511  34.132  39.363   3.314
83087W        W55512  38.308  13.830   2.895
83088W        W55513  40.035   1.360   3.027
83089W        W55514  43.254   9.098   1.804
83090W        W55515  35.003  18.631  14.764
83091W        W55516   4.226   4.037   4.652
83092W        W55517   4.308   2.277  14.523
83093W        W55518  38.741  33.972  14.255
83094W        W55519  19.984  43.376   4.784
83095W        W55520   3.062  18.100  13.759
83096W        W55521  37.509  44.541   3.182
83097W        W55522  11.403   9.213   1.481
83098W        W55523  41.292  29.589   2.987
83099W        W55524   4.944   6.733   0.465
83100W        W55525   4.712   2.765  12.993
83101W        W55526  14.644  37.930  14.900
83102W        W55527  34.509  37.994   4.600
83103W        W55528   2.802  18.781   0.378
83104W        W55529  31.395  44.514   3.767
83105W        W55530  39.641  20.173   2.871
83106W        W55531  31.811  32.236  14.956
83107W        W55532  41.429  42.457  13.121
83108W        W55533  37.957  17.601  13.992
83109W        W55534  43.226  16.160  10.548
83110W        W55535  38.964   4.667   1.744
83111W        W55536  28.917  28.545   1.822
83112W        W55537   7.449  38.910  14.880
83113W        W55538  30.910   2.427  10.658
83114W        W55539  17.617  13.345  10.639
83115W        W55540  22.526  30.762  13.877
83116W        W55541  31.875  40.784  10.704
83117W        W55542   4.302  30.490  13.344
83118W        W55543   6.207  43.873   1.517
83119W        W55544  30.417  26.609   3.250
83120W        W55545  33.850  14.693   2.183
83121W        W55546  31.632  38.529  14.774
83122W        W55547  42.626   7.386   0.997
83123W        W55548  33.486  19.278   3.207
83124W        W55549  12.565  13.785   3.287
83125W        W55550  33.586   5.753  12.560
83126W        W55551  29.690   3.872  13.343
83127W        W55552  33.991  38.009   4.446
83128W        W55553  17.483  25.640  13.634
83129W        W55554  19.567   4.214   3.304
83130W        W55555  25.708  32.038   0.829
83131W        W55556   6.277  34.095   4.192
83132W        W55557  12.026   3.883  10.544
83133W        W55558  17.222  34.604   2.662
83134W        W55559  13.765  41.126  11.965
83135W        W55560  41.896   4.236   3.596
83136W        W55561   1.975  18.270   2.844
83137W        W55562   4.959  32.576   2.791
83138W        W55563   0.454  16.100  14.313
83139W        W55564   8.162  27.457   4.253
83140W        W55565  13.291  24.894   9.790
83141W        W55566  11.657   9.511   4.029
83142W        W55567  44.588  14.131  12.009
83143W        W55568  21.261   3.479  13.995
83144W        W55569   7.317  27.411  13.692
83145W        W55570  36.992  31.010   2.132
83146W        W55571  16.236  33.696  11.539
83147W        W55572  25.035  22.225  11.922
83148W        W55573  18.882  32.782   5.082
83149W        W55574   1.882  27.450   2.030
83150W        W55575  20.130  30.155  14.710
83151W        W55576  34.983   8.745  12.898
83152W        W55577   8.772  30.005  13.550
83153W        W55578  19.706  19.941   4.620
83154W        W55579  40.416  12.267  13.350
83155W        W55580  36.112  37.719   4.572
83156W        W55581  39.825  12.608   4.244
83157W        W55582  15.140  27.740  14.857
83158W        W55583   4.342  31.849  13.498
83159W        W55584   2.472   2.038   4.331
83160W        W55585  19.120  17.935   2.379
83161W        W55586  29.562  26.026  13.002
83162W        W55587  10.286  12.483   4.901
83163W        W55588  25.480  35.873   0.952
83164W        W55589   9.135   6.772  13.083
83165W        W55590  24.085  32.141   0.412
83166W        W55591   2.073  37.017  11.612
83167W        W55592  14.015  22.295  13.986
83168W        W55593  24.046   5.334   3.038
83169W        W55594  19.498  15.661  11.168
83170W        W55595   7.689   8.882   2.863
83171W        W55596  42.486  44.296  12.358
83172W        W55597  20.113  35.031   0.262
83173W        W55598  10.619  24.868  12.385
83174W        W55599  13.383  35.806   1.166
83175W        W55600  15.013  42.061   1.544
83176W        W55601  30.018  30.889   3.442
83177W        W55602  23.954  20.784  11.518
83178W        W55603  20.603  15.351   1.964
83179W        W55604   4.228  42.901  13.485
83180W        W55605  31.990  33.512   2.116
83181W        W55606  11.155  10.401   0.748
83182W        W55607  35.440  39.053  12.004
83183W        W55608  19.250  25.942   0.986
83184W        W55609   9.271  44.298  11.412
83185W        W55610   7.496   5.878   1.456
83186W        W55611  23.909  22.248   4.617
83187W        W55612  44.702   0.312   0.228
83188W        W55613  26.975  19.521   5.110
83189W        W55614  22.465   0.166   2.873
83190W        W55615   2.653   0.521   0.446
83191W        W55616  43.320  33.927  11.171
83192W        W55617  17.687  15.128  14.360
83193W        W55618  36.288  25.032   2.119
83194W        W55619  34.378  23.180   0.915
83195W        W55620  19.649  28.910  13.362
83196W        W55621  23.306  23.904   2.719
83197W        W55622  42.471  13.815   3.799
83198W        W55623  11.603  11.535   4.489
83199W        W55624  21.119  31.870  13.458
83200W        W55625  18.098  19.502   1.019
83201W        W55626   4.282  15.869   0.494
83202W        W55627  18.983  30.799  11.105
83203W        W55628  14.559  33.365   0.835
83204W        W55629  26.115  42.778   3.811
83205W        W55630  30.403   7.256   2.120
83206W        W55631  17.444   6.424   2.950
83207W        W55632  43.809  37.642  11.149
83208W        W55633  12.628  14.165  13.586
83209W        W55634  30.408  40.614  13.536
83210W        W55635  34.041  12.082  11.231
83211W        W55636  43.935  23.510  11.943
83212W        W55637  18.293  13.837  14.898
83213W        W55638  10.673   6.312   1.975
83214W        W55639   2.832  13.841  12.454
83215W        W55640  28.827  22.622   0.258
83216W        W55641  31.395  20.193   0.348
83217W        W55642  12.909  28.816   0.504
83218W        W55643   9.734  13.287   3.925
83219W        W55644  43.112  22.869   2.160
83220W        W55645  44.930   8.144  14.612
83221W        W55646  13.007  16.519   0.716
83222W        W55647  32.065  21.229   1.710
83223W        W55648  27.016   3.823  14.140
83224W        W55649   5.865  37.874   0.865
83225W        W55650  43.347  32.348   4.671
83226W        W55651  24.669   5.977  12.115
83227W        W55652  37.540  21.670   2.802
83228W        W55653   8.053   3.439  11.566
83229W        W55654  13.155  18.057   2.383
83230W        W55655  16.142  17.191  10.766
83231W        W55656  36.432  12.056   2.132
83232W        W55657  14.078  33.505  10.956
83233W        W55658  11.228  17.194   2.241
83234W        W55659  38.236   0.234   3.123
83235W        W55660  14.208  29.491   1.366
83236W        W55661  10.065   3.260   1.724
83237W        W55662   9.653  18.327  14.227
83238W        W55663   0.984  12.376   2.831
83239W        W55664  14.536  31.913   2.742
83240W        W55665  35.760   4.773   2.231
83241W        W55666  44.989  10.159  12.534
83242W        W55667  41.544  33.046   4.540
83243W        W55668   2.309  16.818   2.175
83244W        W55669  21.665  32.465   4.109
83245W        W55670  29.110   8.869   0.761
83246W        W55671  16.999  18.065  13.913
83247W        W55672  21.031  39.627   1.191
83248W        W55673  40.289  27.373  11.209
83249W        W55674   5.802  23.391  13.047
83250W        W55675  13.459  37.005  10.653
83251W        W55676  15.681  29.646   2.853
83252W        W55677  13.665  18.533   2.087
83253W        W55678   7.708  10.477  10.972
83254W        W55679  41.321  40.591   1.680
83255W        W55680  40.324  20.716   2.253
83256W        W55681   3.899  12.050  12.246
83257W        W55682  12.606   5.685   0.490
83258W        W55683  24.063  20.570  13.567
83259W        W55684  10.294  29.433   1.331
83260W        W55685   1.224   7.702   0.833
83261W        W55686  17.204  28.740   0.472
83262W        W55687   6.663  23.030  14.270
83263W        W55688  10.351  20.827   3.361
83264W        W55689  32.475   9.822   2.833
83265W        W55690  18.533  36.730   1.098
83266W        W55691  36.509  43.534  10.362
83267W        W55692  13.195  36.555  10.623
83268W        W55693  39.326  19.801   0.288
83269W        W55694  37.777  25.827   5.123
83270W        W55695  36.499  14.510   3.718
83271W        W55696  18.744  13.591   0.031
83272W        W55697  26.639  14.369   2.169
83273W        W55698   0.362  26.597   3.987
83274W        W55699   4.408  15.220  14.919
83275W        W55700  27.389  13.716  14.350
83276W        W55701  42.545   8.100  12.080
83277W        W55702  37.799  37.023  12.072
83278W        W55703   2.110  17.493   0.723
83279W        W55704  39.954  11.736   0.026
83280W        W55705  42.028   5.731  12.201
83281W        W55706  22.642   2.347  12.037
83282W        W55707   9.652  13.548   3.171
83283W        W55708  17.044  17.988  12.478
83284W        W55709   4.425  26.109   3.381
83285W        W55710  33.922  25.036   3.161
83286W        W55711   4.542  13.763  13.979
83287W        W55712  13.262  42.795   4.492
83288W        W55713  41.076  27.040  12.647
83289W        W55714  36.092  27.584  12.534
83290W        W55715  13.321  11.717   3.325
83291W        W55716  43.243  23.180  13.484
83292W        W55717   8.239  41.035   3.302
83293W        W55718  26.614  44.423   1.313
83294W        W55719  13.901   0.861   5.372
83295W        W55720  22.184  27.909   4.620
83296W        W55721  38.463   7.696   3.268
83297W        W55722  15.504  40.583   5.108
83298W        W55723   7.772  22.713   4.482
83299W        W55724  34.987  40.314   5.027
83300W        W55725  15.709  37.636  10.722
83301W        W55726  26.533   9.692   4.354
83302W        W55727  20.195  19.407  14.713
83303W        W55728  29.839  16.336   0.706
83304W        W55729   2.259   3.212   1.466
83305W        W55730  38.717  31.634   3.691
83306W        W55731  37.009  34.482   3.115
83307W        W55732  44.711   1.266   0.861
83308W        W55733  44.299  19.073  12.315
83309W        W55734   8.449  26.705   3.693
83310W        W55735  11.300  38.447   1.689
83311W        W55736   4.488  33.528  11.382
83312W        W55737  23.564  37.416   3.404
83313W        W55738   6.047  44.266  11.169
83314W        W55739  12.744  24.091  14.333
83315W        W55740   9.310  37.708  10.113
83316W        W55741  27.602  39.303   0.550
83317W        W55742  23.742   3.475  13.807
83318W        W55743  26.100   7.367  13.976
83319W        W55744  36.774  22.993   3.924
83320W        W55745  27.702   9.500  11.309
83321W        W55746   3.881  24.588   0.629
83322W        W55747   6.390  43.428   1.336
83323W        W55748  32.433   5.958  13.071
83324W        W55749  38.083  35.567  10.955
83325W        W55750  20.961   3.492   2.846
83326W        W55751   9.162  32.096  13.706
83327W        W55752  27.307  20.807  14.794
83328W        W55753  17.999  15.734  12.992
83329W        W55754  37.663  24.957   1.392
83330W        W55755   0.479  17.023   3.608
83331W        W55756  32.533  29.383   2.687
83332W        W55757  26.923  18.636   4.746
83333W        W55758  10.167  23.591   1.527
83334W        W55759   7.290  28.914   1.940
83335W        W55760  18.174  37.215   0.341
83336W        W55761  10.420  37.297   3.199
83337W        W55762  24.326  22.426  10.545
83338W        W55763  13.871  40.363  13.375
83339W        W55764  38.607   9.262  11.507
83340W        W55765   7.661  21.855   2.856
83341W        W55766  12.925   1.775  14.123
83342W        W55767  38.749   4.643   2.217
83343W        W55768   9.741  26.977   3.389
83344W        W55769  10.338  44.287  14.909
83345W        W55770  18.163  25.961  11.202
83346W        W55771  35.378   1.291  11.318
83347W        W55772   4.976  14.210   0.812
83348W        W55773   3.976   5.710   1.334
83349W        W55774  37.095   6.158  13.503
83350W        W55775  38.884   0.203   1.397
83351W        W55776  30.435  28.526  11.699
83352W        W55777  13.995  31.172   2.265
83353W        W55778  41.030   0.407  11.609
83354W        W55779   3.762  42.413  10.938
83355W        W55780  43.312  24.465   4.433
83356W        W55781  43.482  10.912   1.928
83357W        W55782  36.635  18.151   3.730
83358W        W55783  43.612   0.574   4.120
83359W        W55784  29.008   1.927   1.692
83360W        W55785  21.122  28.202  12.591
83361W        W55786  44.562   2.725  12.974
83362W        W55787  21.251   8.630   2.216
83363W        W55788  42.419  18.645   4.327
83364W        W55789   7.100   9.027   1.268
83365W        W55790   2.337  41.566  14.444
83366W        W55791  32.114  25.581  13.244
83367W        W55792   7.929  39.479  10.913
83368W        W55793  14.656  30.567  11.652
83369W        W55794  25.709   2.462  12.903
83370W        W55795  27.620  22.649   1.744
83371W        W55796  27.141  21.368  13.315
83372W        W55797  33.909  39.816   3.203
83373W        W55798   7.189  18.382   3.114
83374W        W55799  16.405  38.393  11.515
83375W        W55800  12.018  23.087   0.329
83376W        W55801  42.466  29.162   2.807
83377W        W55802  18.152   6.324  10.737
83378W        W55803   9.420  23.271   5.182
83379W        W55804  29.572  26.231   2.694
83380W        W55805  34.112   3.786  12.966
83381W        W55806  13.298  22.411  11.542
83382W        W55807  23.095   4.349   3.655
83383W        W55808   4.462  31.497   1.359
83384W        W55809  24.589   1.025  11.674
83385W        W55810  23.707  24.509   4.320
83386W        W55811  16.733  37.583   3.146
83387W        W55812  31.198  19.103   9.881
83388W        W55813   9.360  32.171  12.340
83389W        W55814  12.906  28.343  13.956
83390W        W55815  22.715  31.735  14.458
83391W        W55816  43.552  29.467   2.843
83392W        W55817  41.016   3.715  14.786
83393W        W55818  24.525  36.817  14.832
83394W        W55819  16.170  11.290   3.674
83395W        W55820  19.059  19.404   1.378
83396W        W55821  35.485   5.260  14.239
83397W        W55822  44.297   8.658  10.122
83398W        W55823  12.172  19.634   2.340
83399W        W55824  40.565  33.114   1.748
83400W        W55825  34.852   2.687   3.738
83401W        W55826  10.771  22.055  11.517
83402W        W55827  33.120  30.991   9.913
83403W        W55828  17.541  13.674   4.860
83404W        W55829  34.636  37.304  12.133
83405W        W55830  13.792   9.136   2.179
83406W        W55831   8.883  20.823   1.915
83407W        W55832  22.602  43.843   1.441
83408W        W55833  13.735  10.628   0.377
83409W        W55834  43.221  20.078  11.502
83410W        W55835   5.170   8.874  13.854
83411W        W55836  10.635  30.372  12.009
83412W        W55837  16.802  36.488  13.572
83413W        W55838   0.351  42.612  13.338
83414W        W55839  30.224  19.791  12.878
83415W        W55840  14.670  29.484  10.767
83416W        W55841  24.861  10.221  13.385
83417W        W55842   5.349  18.034  11.682
83418W        W55843  43.630  31.653   2.641
83419W        W55844  37.829   2.846  11.664
83420W        W55845  16.407  26.220   4.328
83421W        W55846  24.010  28.653  10.730
83422W        W55847  42.784  34.010   4.541
83423W        W55848  37.112  37.186  13.045
83424W        W55849  15.810   4.432   1.688
83425W        W55850  11.577  34.600   0.476
83426W        W55851  18.539  28.507  11.873
83427W        W55852  29.338   9.063   2.112
83428W        W55853  32.162  14.734   2.922
83429W        W55854  26.668  15.136  10.721
83430W        W55855   5.900  40.596   4.754
83431W        W55856  26.559   6.789   4.453
83432W        W55857   7.943  20.700  13.530
83433W        W55858  41.433  15.601  12.384
83434W        W55859   1.868  19.320  14.901
83435W        W55860  40.355  39.400   0.306
83436W        W55861  28.473  18.267  13.632
83437W        W55862  43.379  18.087   0.014
83438W        W55863  13.352  12.048   2.936
83439W        W55864   5.721  32.456   3.718
83440W        W55865  38.875  41.930  11.023
83441W        W55866   5.686  14.758   0.336
83442W        W55867   9.369  17.002   1.683
83443W        W55868   3.257  12.295   3.681
83444W        W55869  18.021  28.517   4.795
83445W        W55870  41.831  41.344   4.723
83446W        W55871  12.722  28.196  13.373
83447W        W55872  32.526  39.467   3.802
83448W        W55873  11.211  26.375  10.084
83449W        W55874  42.859   0.237   1.374
83450W        W55875  10.429  34.984  13.788
83451W        W55876  40.827  33.955  14.996
83452W        W55877  28.022   6.978  11.950
83453W        W55878  30.361  35.002   2.118
83454W        W55879  15.313  40.885   0.911
83455W        W55880  11.754  19.691  14.910
83456W        W55881  35.080  15.302  12.868
83457W        W55882  27.758  29.194   4.617
83458W        W55883  44.381  10.527   4.185
83459W        W55884  31.087   7.648  10.429
83460W        W55885  16.295  23.731  12.556
83461W        W55886  18.467  34.331  11.885
83462W        W55887  42.090  22.001   2.907
83463W        W55888  24.429  14.863  11.655
83464W        W55889  25.990  32.983   3.215
83465W        W55890  27.894  20.097   2.292
83466W        W55891   0.500  26.453  10.611
83467W        W55892   5.588   2.323  11.636
83468W        W55893  33.093  30.166   3.690
83469W        W55894  30.620  27.654  12.405
83470W        W55895  14.778  22.054  10.671
83471W        W55896  29.504  31.347   4.474
83472W        W55897  22.936   1.686   3.263
83473W        W55898  31.009  23.865  14.121
83474W        W55899  35.150  28.718  10.898
83475W        W55900  44.240  36.811   0.237
83476W        W55901   5.743   3.540  11.096
83477W        W55902  14.643  43.903   2.904
83478W        W55903  41.203  20.308  11.615
83479W        W55904  44.812  43.945  12.159
83480W        W55905  19.541  31.717   3.579
83481W        W55906  32.521  38.346   0.348
83482W        W55907  25.089  29.363   1.916
83483W        W55908  26.103   5.894   0.733
83484W        W55909  17.288  16.332   1.861
83485W        W55910  10.812  44.514  14.870
83486W        W55911  33.605  35.868  13.479
83487W        W55912  15.599   3.604   0.969
83488W        W55913  18.886  43.829  14.337
83489W        W55914  27.966  10.897  12.135
83490W        W55915  16.909  22.270   1.886
83491W        W55916  31.197  25.658  13.541
83492W        W55917  37.366  23.146   2.893
83493W        W55918  20.119  16.723  14.274
83494W        W55919  28.843   3.400  14.949
83495W        W55920  21.483   7.636  12.348
83496W        W55921   4.160  30.543   4.269
83497W        W55922   6.851   0.254  12.103
83498W        W55923  40.293  25.668   4.861
83499W        W55924   4.229  44.246   4.596
83500W        W55925  32.157  12.412  14.069
83501W        W55926   9.471  12.703   2.197
83502W        W55927  16.675  21.006  11.533
83503W        W55928  30.388  30.096  14.723
83504W        W55929   5.703  28.781  14.735
83505W        W55930  12.647   2.198   4.178
83506W        W55931  29.627  43.719   0.990
83507W        W55932  42.748   2.232  12.011
83508W        W55933  18.664  11.167   2.957
83509W        W55934  41.423  24.092  12.839
83510W        W55935  23.561  30.997  13.756
83511W        W55936  28.889  29.507  12.480
83512W        W55937   7.783  44.452   0.982
83513W        W55938  16.081  44.423  12.686
83514W        W55939  30.533  37.125   2.898
83515W        W55940  15.376   7.471   0.685
83516W        W55941  19.562  26.327   5.070
83517W        W55942   3.426  35.559  13.434
83518W        W55943  22.228  38.508   3.743
83519W        W55944  21.699  18.569  12.391
83520W        W55945  33.711   3.723  10.402
83521W        W55946  20.685  11.619   0.025
83522W        W55947  21.526  27.955  13.498
83523W        W55948  42.955  18.853   4.251
83524W        W55949  29.651  44.262   3.194
83525W        W55950  23.400  13.163   4.124
83526W        W55951  23.669   7.282  13.418
83527W        W55952  39.044  36.052  13.427
83528W        W55953  12.794  30.367  10.224
83529W        W55954  10.113  19.182  13.609
83530W        W55955  22.709  38.965   4.412
83531W        W55956  24.592  11.063   2.291
83532W        W55957   1.830   6.969   3.526
83533W        W55958  42.723   1.953  14.614
83534W        W55959  30.705  27.409  10.236
83535W        W55960   3.062   0.708  14.951
83536W        W55961  34.940  44.142  12.092
83537W        W55962  44.348  31.100   0.919
83538W        W55963  28.291  11.659   3.677
83539W        W55964  39.071  43.353   0.335
83540W        W55965  17.551  39.849   0.539
83541W        W55966  15.339  43.516   3.990
83542W        W55967  28.948  24.557   4.608
83543W        W55968  20.526  35.144   0.671
83544W        W55969  22.085  29.605  14.568
83545W        W55970  10.740  15.333  12.873
83546W        W55971  16.622  37.978  13.425
83547W        W55972  10.883  37.388   1.817
83548W        W55973  18.562  22.766   3.268
83549W        W55974  20.387  20.325   3.599
83550W        W55975  42.567  25.221  14.717
83551W        W55976   3.125  28.230   5.094
83552W        W55977   0.990  41.859   1.965
83553W        W55978  16.188  31.558   1.947
83554W        W55979  24.476   0.085   3.242
83555W        W55980  25.107   7.453   4.336
83556W        W55981  44.331  15.078  13.829
83557W        W55982  13.272   8.757  14.290
83558W        W55983  22.553  12.586  10.602
83559W        W55984  44.020  26.109  14.780
83560W        W55985   7.600   2.734   4.102
83561W        W55986  42.860  31.558   1.600
83562W        W55987  21.003   1.816  12.919
83563W        W55988  29.728  32.520  14.355
83564W        W55989  19.990  22.206   1.686
83565W        W55990   5.244  13.260  10.677
83566W        W55991  23.313  40.374   2.461
83567W        W55992  37.889  31.666  10.750
83568W        W55993  28.960  43.251   4.855
83569W        W55994  16.761   0.125   3.333
83570W        W55995   5.875  17.597  10.368
83571W        W55996   5.532  27.256  13.783
83572W        W55997  40.504   9.178  14.049
83573W        W55998  27.067  44.684   3.269
83574W        W55999  14.156  16.164  13.473
83575W        W56000   4.240  29.133   2.219
83576W        W56001  31.795  26.264   5.109
83577W        W56002   5.966  15.200   0.807
83578W        W56003  17.583  14.077  13.466
83579W        W56004  14.917  29.971  12.071
83580W        W56005  20.201  43.895  11.900
83581W        W56006  10.661  16.702  12.113
83582W        W56007  29.087  26.712  12.408
83583W        W56008  24.894  30.143   1.331
83584W        W56009  13.765  11.333   1.972
83585W        W56010   9.885  31.951  10.600
83586W        W56011  32.845   8.926  10.762
83587W        W56012   2.732  10.740  11.173
83588W        W56013   9.732   8.823   3.201
83589W        W56014  41.059  29.549   1.302
83590W        W56015  41.280   2.288   3.261
83591W        W56016  13.497   4.318   2.753
83592W        W56017   0.490  43.305  14.912
83593W        W56018   3.378  21.690  11.506
83594W        W56019  12.506  36.429  12.770
83595W        W56020  34.847  19.205  10.723
83596W        W56021  35.681  20.147  11.190
83597W        W56022  20.964  37.936  13.407
83598W        W56023   6.942  13.712   4.655
83599W        W56024   8.095  27.849   2.522
83600W        W56025   3.355  23.682  12.091
83601W        W56026  11.579  25.741  14.573
83602W        W56027  18.123   8.950  11.160
83603W        W56028  38.025  19.538   4.542
83604W        W56029   9.184  14.427   3.751
83605W        W56030  10.887  23.699  13.809
83606W        W56031  31.166  38.744   3.200
83607W        W56032  16.104   9.137   3.791
83608W        W56033  35.246   4.865  11.128
83609W        W56034  11.482  33.903  10.379
83610W        W56035  13.648  27.176   0.894
83611W        W56036  36.044  32.452  11.524
83612W        W56037  26.580  44.253  10.361
83613W        W56038  11.818  42.986   4.586
83614W        W56039  24.250   2.518  12.147
83615W        W56040  19.679  39.688   4.905
83616W        W56041  42.358   0.534  12.985
83617W        W56042  42.329  13.244   2.333
83618W        W56043   7.816  23.607   3.698
83619W        W56044  28.403   0.855  11.564
83620W        W56045  39.837  21.973  11.207
83621W        W56046  36.426  24.191  11.602
83622W        W56047  42.486   4.814   1.414
83623W        W56048  42.930  34.051   2.273
83624W        W56049  30.774   5.419  14.036
83625W        W56050  35.899  20.365   3.744
83626W        W56051  10.174  29.153   0.876
83627W        W56052  44.682   4.672   3.777
83628W        W56053  28.889   5.209  11.558
83629W        W56054   2.025  13.377   0.324
83630W        W56055   6.715  22.564  14.850
83631W        W56056  17.115  12.887  10.323
83632W        W56057  35.509  14.715  14.005
83633W        W56058   1.247   7.000  12.017
83634W        W56059  37.788  20.654   0.281
83635W        W56060  44.300   2.851   4.050
83636W        W56061  19.033  39.321  11.953
83637W        W56062   9.201   4.167   4.026
83638W        W56063  39.324  22.141  10.473
83639W        W56064  21.927  14.533   0.673
83640W        W56065   0.013  37.308   0.331
83641W        W56066   0.206   3.797   3.682
83642W        W56067  14.191  24.093   1.795
83643W        W56068  26.997  28.575  12.048
83644W        W56069  18.083  26.151  14.217
83645W        W56070  27.512  41.938   1.886
83646W        W56071  41.019  33.713   0.433
83647W        W56072  11.123   5.531  11.472
83648W        W56073  32.205  24.681  13.897
83649W        W56074   8.292  23.163  13.489
83650W        W56075  11.209   9.134  10.285
83651W        W56076  19.513   8.339  10.728
83652W        W56077  37.380  16.316  12.153
83653W        W56078  35.647  13.736  12.466
83654W        W56079  30.621   7.408  11.409
83655W        W56080  26.966   5.362   4.067
83656W        W56081  30.149  42.753   0.096
83657W        W56082   3.247  36.006  12.124
83658W        W56083  18.260  37.019   4.652
83659W        W56084  30.929  24.663   4.620
83660W        W56085   4.208  14.761  14.323
83661W        W56086  34.038  35.170   0.182
83662W        W56087   6.804  42.180  12.005
83663W        W56088   6.706   3.270   2.266
83664W        W56089  38.254  36.488   1.806
83665W        W56090  42.485  36.883  13.748
83666W        W56091   1.921   6.659   3.116
83667W        W56092  19.206  32.916  13.817
83668W        W56093  10.255   1.078  12.102
83669W        W56094  11.181  36.896   3.682
83670W        W56095  13.763   3.732   0.702
83671W        W56096  39.382  19.846  10.557
83672W        W56097  22.960   2.484   3.574
83673W        W56098  16.329   2.943  13.125
83674W        W56099  19.710  28.991   1.037
83675W        W56100  32.524  12.097   1.296
83676W        W56101   9.318  21.304   3.759
83677W        W56102  26.233  31.545   0.324
83678W        W56103  35.603  19.021  14.944
83679W        W56104  15.286  17.097  10.504
83680W        W56105  18.677  11.144  13.605
83681W        W56106  25.380  21.756   2.742
83682W        W56107   7.451   7.419  14.781
83683W        W56108  30.536  30.976   3.657
83684W        W56109  35.409  43.898  12.004
83685W        W56110  14.774   1.812   2.187
83686W        W56111  35.848   3.010  14.363
83687W        W56112  36.050  44.409  14.043
83688W        W56113  32.802  18.677   3.125
83689W        W56114  21.240  21.741  11.404
83690W        W56115  28.423  22.392   1.254
83691W        W56116  16.730  23.542   4.290
83692W        W56117   6.811   8.334  12.674
83693W        W56118   5.509  31.575  12.285
83694W        W56119   8.425  25.756  11.991
83695W        W56120   2.182  24.350   2.370
83696W        W56121  34.063  35.389  12.945
83697W        W56122  27.990  41.341   4.640
83698W        W56123  25.683   0.479   3.920
83699W        W56124  11.844  21.155   2.609
83700W        W56125  20.573   7.901  11.192
83701W        W56126   9.639  17.306   2.799
83702W        W56127   8.267   3.476   0.309
83703W        W56128  37.998  16.627   0.037
83704W        W56129   6.094  29.824   3.919
83705W        W56130  10.274  17.476   4.949
83706W        W56131  42.005   3.033  13.730
83707W        W56132  21.640   0.957  12.083
83708W        W56133   6.746  42.768   1.677
83709W        W56134  40.354  15.587   0.333
83710W        W56135  21.507  34.369  13.191
83711W        W56136  31.065  35.096  11.965
83712W        W56137  41.521  18.238  13.462
83713W        W56138   2.881  26.941   3.270
83714W        W56139  38.159   6.779   2.808
83715W        W56140  44.486  14.164   3.942
83716W        W56141  31.498  16.700   5.811
83717W        W56142  19.255  14.319   4.604
83718W        W56143  31.250  37.349  11.958
83719W        W56144  28.029  36.549  14.199
83720W        W56145  26.976  32.983  11.585
83721W        W56146   8.292  17.775  14.223
83722W        W56147  29.552  11.287  13.060
83723W        W56148   1.638   0.831  13.940
83724W        W56149   8.831   4.724  10.652
83725W        W56150  16.169   1.185   1.234
83726W        W56151  15.019  20.555  14.024
83727W        W56152  33.581   4.158  10.685
83728W        W56153  20.152   2.675  12.431
83729W        W56154  26.628  11.681  11.083
83730W        W56155  15.767   5.389  13.444
83731W        W56156  11.625   3.941  10.945
83732W        W56157  12.159  43.887   0.795
83733W        W56158   6.728  28.580  10.555
83734W        W56159  31.570   8.383   2.306
83735W        W56160  24.501   0.271  12.103
83736W        W56161   8.656  31.041   2.747
83737W        W56162  39.612  39.500   4.661
83738W        W56163   9.289  32.645   0.457
83739W        W56164   7.242  31.236   0.879
83740W        W56165  29.961  34.614  11.129
83741W        W56166  43.321  35.942   2.672
83742W        W56167  40.166  22.141   3.122
83743W        W56168  43.339  22.725   2.896
83744W        W56169  14.132   3.349  13.072
83745W        W56170  15.364  13.015   4.075
83746W        W56171  20.988  38.572  10.105
83747W        W56172   3.231   5.846   3.661
83748W        W56173  37.185  22.812   9.751
83749W        W56174  11.694  19.669   3.089
83750W        W56175  17.921  40.560  13.067
83751W        W56176  29.695  11.537   0.792
83752W        W56177  27.702  10.550  11.018
83753W        W56178  41.527   0.228  11.546
83754W        W56179  42.279  34.951   3.706
83755W        W56180  27.874   7.684   5.068
83756W        W56181   2.764  40.101   3.479
83757W        W56182  36.620  31.406   1.855
83758W        W56183  27.408  23.646   0.261
83759W        W56184  28.063  43.432  11.894
83760W        W56185   0.895  44.746  13.093
83761W        W56186  31.959  22.946  13.464
83762W        W56187  34.624   3.446   3.926
83763W        W56188  15.578  26.565  13.134
83764W        W56189  31.106   4.416  12.000
83765W        W56190   2.218  31.670   0.735
83766W        W56191  13.203   1.705   1.380
83767W        W56192  30.072  40.470  13.936
83768W        W56193   2.355  32.875   3.775
83769W        W56194  33.137  33.427   0.932
83770W        W56195   6.813  29.933   3.157
83771W        W56196  12.977  35.774  12.000
83772W        W56197  42.540   5.377  13.284
83773W        W56198  23.066  12.749  11.394
83774W        W56199  21.302  40.541  12.802
83775W        W56200   1.032   1.238  11.736
83776W        W56201  32.924  29.625   2.439
83777W        W56202  32.084  12.248   1.036
83778W        W56203  20.200   6.242  13.351
83779W        W56204  18.752  35.423   0.985
83780W        W56205   0.236  35.950   4.889
83781W        W56206  42.811  37.102  12.011
83782W        W56207   7.260  17.287  11.545
83783W        W56208  14.186  14.892   2.250
83784W        W56209  37.584   2.538   5.122
83785W        W56210  27.050  11.660  10.562
83786W        W56211   4.379   5.951  11.252
83787W        W56212  25.039   0.901  12.508
83788W        W56213   9.232  32.079   5.122
83789W        W56214   5.170  40.308  12.292
83790W        W56215  26.778  39.487   2.734
83791W        W56216  13.203   8.203  10.709
83792W        W56217  35.863  26.512  13.521
83793W        W56218   0.435   4.160  12.528
83794W        W56219   2.163   5.360  14.223
83795W        W56220  21.616  43.918   1.499
83796W        W56221  13.721  12.075   4.155
83797W        W56222  44.882  34.527   2.675
83798W        W56223  12.518  35.472   1.384
83799W        W56224   0.796   4.926  11.447
83800W        W56225   6.344  33.497   2.083
83801W        W56226  23.256  15.778   4.266
83802W        W56227  24.411   3.509  11.972
83803W        W56228  35.084   0.215  13.362
83804W        W56229  13.811  34.869  12.545
83805W        W56230  24.102  26.428  10.728
83806W        W56231  41.361  11.710   2.844
83807W        W56232  16.885  44.722   1.757
83808W        W56233  32.212  42.925   0.989
83809W        W56234  44.273  28.799  11.589
83810W        W56235  22.752  33.145  13.152
83811W        W56236   2.834  25.662   3.585
83812W        W56237  32.802  39.561   1.264
83813W        W56238  31.736  22.197  13.793
83814W        W56239   2.453  16.478   4.659
83815W        W56240  27.082  44.911  14.772
83816W        W56241  15.613   4.434   4.325
83817W        W56242  37.202   6.751  12.463
83818W        W56243  28.597  20.027  14.034
83819W        W56244  40.338  25.427   0.796
83820W        W56245   8.099  34.062  13.871
83821W        W56246  14.808  13.756   3.707
83822W        W56247  18.325  28.641  13.440
83823W        W56248  43.066   1.185   4.273
83824W        W56249  12.711   4.659  13.064
83825W        W56250   3.400   8.516   1.265
83826W        W56251   1.482  12.411  10.586
83827W        W56252  43.757  25.128  11.414
83828W        W56253   4.540   1.064  12.191
83829W        W56254  31.065  13.358   4.004
83830W        W56255  29.656  12.405   2.291
83831W        W56256  19.144  38.055   1.329
83832W        W56257   3.733   7.840  14.584
83833W        W56258  22.224  36.321  12.620
83834W        W56259  24.283  14.097   4.212
83835W        W56260   1.300  24.529  10.547
83836W        W56261  36.874   7.433  13.065
83837W        W56262  43.210  25.675   1.210
83838W        W56263  42.381   9.721  13.442
83839W        W56264   3.067  31.810   1.868
83840W        W56265  38.398  14.761   0.211
83841W        W56266  37.300  25.759  13.477
83842W        W56267  37.815  41.285   2.323
83843W        W56268  37.621  32.133  12.130
83844W        W56269  19.113  35.016  10.729
83845W        W56270  13.414  40.066  12.568
83846W        W56271  16.139  27.008   1.302
83847W        W56272  19.024   9.353  12.057
83848W        W56273  43.083  31.883   0.878
83849W        W56274  11.600  22.764   1.833
83850W        W56275  23.563   7.648   2.744
83851W        W56276  21.902  20.569   3.642
83852W        W56277   1.325  24.987  10.794
83853W        W56278   1.007  25.253   3.671
83854W        W56279   1.808   7.792   2.888
83855W        W56280   2.983  34.560  12.059
83856W        W56281  33.578  32.100   1.852
83857W        W56282  11.898  38.464  11.463
83858W        W56283  39.028  16.784  13.035
83859W        W56284  30.244  35.842  14.279
83860W        W56285   3.012   3.771   0.871
83861W        W56286  28.033  25.738   3.700
83862W        W56287  14.520  15.281  14.317
83863W        W56288   2.263  15.737  14.541
83864W        W56289  36.036  30.191   2.788
83865W        W56290  13.026  12.270   4.541
83866W        W56291   8.833  36.587  12.449
83867W        W56292  18.577  18.036  11.856
83868W        W56293  22.620  37.938  10.965
83869W        W56294  40.843  36.687   3.151
83870W        W56295   6.468  21.467   0.408
83871W        W56296  32.015   1.046   4.082
83872W        W56297   3.258  17.634   2.818
83873W        W56298  25.570  24.966  11.000
83874W        W56299   8.407  44.010   2.612
83875W        W56300   6.243  15.034   1.744
83876W        W56301  33.847  18.505  14.297
83877W        W56302  14.255  43.553  13.919
83878W        W56303   4.779  13.627   4.814
83879W        W56304  37.540   5.025   1.321
83880W        W56305  33.803  36.019  11.881
83881W        W56306  13.241  12.538   4.985
83882W        W56307  23.141  34.160  10.677
83883W        W56308   4.656  10.356  11.749
83884W        W56309   6.921   5.760  12.451
83885W        W56310  39.535  34.375  13.368
83886W        W56311  12.738  26.738  10.806
83887W        W56312  29.523   4.226  14.285
83888W        W56313  29.043  33.766   4.102
83889W        W56314   2.188  30.068   3.594
83890W        W56315  32.585   5.368   2.629
83891W        W56316  25.942  35.344   3.585
83892W        W56317  22.067  25.741  11.175
83893W        W56318  28.470  23.574   1.906
83894W        W56319  39.276  17.206  10.497
83895W        W56320  13.365  33.193  12.488
83896W        W56321  23.433  23.114   2.310
83897W        W56322  10.828  43.461  13.237
83898W        W56323  24.170  24.678   4.656
83899W        W56324  26.484  18.322  11.158
83900W        W56325  17.530  12.588   1.333
83901W        W56326  31.543  25.546  12.541
83902W        W56327  13.638  20.534   3.699
83903W        W56328  21.650  19.974   2.305
83904W        W56329  24.655  10.962   4.571
83905W        W56330  34.193  13.895  11.261
83906W        W56331  26.220  29.034   0.382
83907W        W56332  32.536  22.716  13.574
83908W        W56333  15.773  18.763   4.418
83909W        W56334  25.223  33.366   1.945
83910W        W56335  39.967  24.088   4.499
83911W        W56336  22.493  30.781   1.914
83912W        W56337  22.997  31.631   1.759
83913W        W56338  17.099  37.384  10.504
83914W        W56339   9.243  33.985  11.216
83915W        W56340   0.489  22.293  14.999
83916W        W56341  11.774  29.698  13.100
83917W        W56342  14.988  10.405  11.551
83918W        W56343  31.945  16.838   2.438
83919W        W56344  37.513   7.590   0.457
83920W        W56345  33.991   1.704   3.793
83921W        W56346  29.154  16.087   4.823
83922W        W56347  27.760  41.140   2.895
83923W        W56348  17.641  44.436   2.685
83924W        W56349  40.750  36.024  14.325
83925W        W56350  36.781  19.027  12.524
83926W        W56351  19.742   6.436   3.192
83927W        W56352  26.573  41.782   3.271
83928W        W56353  16.779  30.176  13.744
83929W        W56354   2.770  24.971  12.358
83930W        W56355  41.319   6.506   2.128
83931W        W56356   2.745  26.999   0.709
83932W        W56357  35.435  40.379  11.908
83933W        W56358  24.999  24.520   3.107
83934W        W56359   3.963  11.860  11.745
83935W        W56360  33.586  42.605  12.615
83936W        W56361  35.866   1.986  11.245
83937W        W56362  33.098  41.414   2.133
83938W        W56363  35.513  29.453   2.414
83939W        W56364   4.840   2.964  10.672
83940W        W56365  40.440   2.890   0.797
83941W        W56366  10.312  24.710  13.234
83942W        W56367  27.250  18.221   2.664
83943W        W56368   4.956  24.759   1.625
83944W        W56369  31.049   4.774   4.067
83945W        W56370  37.796  27.424   3.260
83946W        W56371  23.699   6.179   0.819
83947W        W56372  26.104  24.048   4.217
83948W        W56373  15.444  14.982   3.197
83949W        W56374  40.076  25.397   2.377
83950W        W56375  10.413  43.710  13.529
83951W        W56376  24.607  15.227   0.764
83952W        W56377  30.366  35.484   4.829
83953W        W56378  10.221  41.182  10.570
83954W        W56379   3.946  36.112  11.514
83955W        W56380  43.533   5.289  12.884
83956W        W56381  17.549   9.420   1.939
83957W        W56382  39.478  44.885   1.986
83958W        W56383  34.592  22.273   3.120
83959W        W56384  34.670  28.064   0.248
83960W        W56385  25.432  43.214   5.201
83961W        W56386  30.879   7.883  13.305
83962W        W56387  22.762  13.100  11.589
83963W        W56388  41.327  15.289  13.428
83964W        W56389   1.229   5.273  14.095
83965W        W56390   6.647  23.421   1.379
83966W        W56391  18.346  38.319   4.046
83967W        W56392  44.933  24.931   0.899
83968W        W56393  36.268  38.781   0.452
83969W        W56394  14.837  37.713  14.440
83970W        W56395  10.358  35.951   4.325
83971W        W56396  15.364  24.638   3.671
83972W        W56397  16.757  43.382   4.607
83973W        W56398   4.566  11.444   2.911
83974W        W56399  30.418  21.272  13.341
83975W        W56400  15.802  32.633  13.185
83976W        W56401  42.806  34.463   3.219
83977W        W56402  32.753  17.877   5.147
83978W        W56403  26.139  44.898   3.643
83979W        W56404  42.700  31.664   1.133
83980W        W56405  13.560  35.583   0.404
83981W        W56406  16.649  41.401   2.606
83982W        W56407  35.383  32.657   1.867
83983W        W56408  32.495   6.262  12.151
83984W        W56409  38.137  42.873  14.299
83985W        W56410  42.626   0.794   3.528
83986W        W56411  24.606  13.324  11.436
83987W        W56412  28.838  37.494  13.423
83988W        W56413  35.068  22.685   5.292
83989W        W56414  20.504  38.485   0.332
83990W        W56415  38.042  25.545  11.466
83991W        W56416  34.160   8.137   0.245
83992W        W56417  20.558   1.562   1.288
83993W        W56418  22.684  27.629  11.086
83994W        W56419  12.019  12.329   3.301
83995W        W56420   5.731  38.105  12.452
83996W        W56421  18.403  24.980   1.401
83997W        W56422  31.468  42.133   1.687
83998W        W56423  25.723  42.540   0.361
83999W        W56424   7.233  41.316  12.040
84000W        W56425  16.284  17.676  14.853
84001W        W56426   2.326  38.950  10.945
84002W        W56427  24.134  27.568  13.484
84003W        W56428  37.524  41.819   0.912
84004W        W56429  41.316  32.675  11.866
84005W        W56430  15.363  39.900   2.423
84006W        W56431  39.853  18.099  10.971
84007W        W56432  32.850  14.495   3.404
84008W        W56433  27.082  18.699   0.196
84009W        W56434  40.262  28.528  14.175
84010W        W56435  25.712  22.001  13.948
84011W        W56436  37.039  36.515   4.833
84012W        W56437  36.035  22.636   5.105
84013W        W56438  32.273  33.523  14.738
84014W        W56439  35.641  18.065  14.654
84015W        W56440  20.146  35.573   2.322
84016W        W56441  43.685  34.584   0.208
84017W        W56442  14.259  17.022  13.311
84018W        W56443   6.202  44.818   1.281
84019W        W56444  15.057  22.670  10.156
84020W        W56445  38.038  35.057  11.041
84021W        W56446   3.951  35.743  12.466
84022W        W56447  18.137  42.011   2.382
84023W        W56448   8.116  13.794  10.437
84024W        W56449   7.425  10.195   3.834
84025W        W56450  38.298   7.454  13.015
84026W        W56451  17.521  32.910   0.626
84027W        W56452  43.915  40.376  14.096
84028W        W56453  20.607  13.171  12.049
84029W        W56454   7.791  31.682  11.972
84030W        W56455  35.857  42.782   4.879
84031W        W56456  10.263   3.737   0.965
84032W        W56457  35.512  22.198  12.427
84033W        W56458  41.882  31.124   1.411
84034W        W56459  25.201  14.318   0.885
84035W        W56460  38.403  43.190  10.092
84036W        W56461  40.021  39.385  11.905
84037W        W56462   1.800   8.702   2.366
84038W        W56463  42.812  44.750  11.552
84039W        W56464  19.564  44.319  13.393
84040W        W56465  33.630  33.005  12.070
84041W        W56466   0.735  41.914  14.241
84042W        W56467  28.838   0.736  12.860
84043W        W56468   9.316   4.857  12.489
84044W        W56469   2.788  32.862   4.109
84045W        W56470  18.249   4.841   1.365
84046W        W56471  13.241  25.926  14.932
84047W        W56472   2.963  22.649   2.198
84048W        W56473   4.799  25.151   2.597
84049W        W56474  42.607  39.669   0.408
84050W        W56475  31.220   7.137   4.670
84051W        W56476  26.921   8.329   2.840
84052W        W56477  40.814  19.532  11.021
84053W        W56478   9.236  12.808   0.084
84054W        W56479  20.028  34.172  11.117
84055W        W56480  41.337  31.148   4.170
84056W        W56481  36.685   7.831  10.763
84057W        W56482  40.413   5.172  12.580
84058W        W56483  30.426  12.598  14.110
84059W        W56484  44.208  20.030   0.675
84060W        W56485  12.832  34.569  11.514
84061W        W56486  10.374  31.131  14.855
84062W        W56487   0.447  18.180  12.175
84063W        W56488  37.616  19.328   3.223
84064W        W56489  39.000  42.758   5.530
84065W        W56490  24.312  38.604  12.143
84066W        W56491   6.674   5.410   0.237
84067W        W56492   3.036  35.671  10.399
84068W        W56493  41.090   5.944  11.227
84069W        W56494  35.886  25.251   3.774
84070W        W56495  33.451  33.121  13.913
84071W        W56496  40.094  34.717  12.610
84072W        W56497  15.286  35.355   3.716
84073W        W56498  38.603  41.839  12.647
84074W        W56499  35.463  40.238  13.885
84075W        W56500  40.956  30.478  12.187
84076W        W56501  14.354  37.417   2.456
84077W        W56502  33.167  30.291   1.726
84078W        W56503  42.808  16.151  11.480
84079W        W56504  42.575  26.249  14.229
84080W        W56505  40.317   8.517  13.282
84081W        W56506   2.537  43.320   1.882
84082W        W56507  27.075   8.224   0.739
84083W        W56508  32.848   3.482   3.544
84084W        W56509   0.307   4.807  10.706
84085W        W56510  11.632   3.327  14.845
84086W        W56511   4.982  43.658   0.817
84087W        W56512  31.347  19.068  14.833
84088W        W56513  21.040  43.801   4.075
84089W        W56514  28.041  23.511  11.618
84090W        W56515  27.427   3.435  13.309
84091W        W56516  10.185   5.889  12.708
84092W        W56517  44.413  12.425   3.618
84093W        W56518  21.696   4.505  13.300
84094W        W56519  29.870  43.507  12.409
84095W        W56520  33.696   3.492   2.807
84096W        W56521  23.253  30.575   0.703
84097W        W56522  18.616  20.491   3.947
84098W        W56523  41.457  33.960  12.504
84099W        W56524  27.267  16.417   1.898
84100W        W56525  31.984   0.965   3.553
84101W        W56526  17.900  43.830   1.659
84102W        W56527  17.709   9.552   4.006
84103W        W56528  33.312   8.823   2.724
84104W        W56529  31.411  24.729   0.405
84105W        W56530  12.885  40.907   2.289
84106W        W56531   2.338  21.650   1.298
84107W        W56532  34.284  35.607   0.281
84108W        W56533   9.666   9.272  11.132
84109W        W56534   1.453  40.743  12.715
84110W        W56535   8.202  26.126   2.243
84111W        W56536   3.408  32.568  13.568
84112W        W56537  22.232  21.175   2.304
84113W        W56538  26.797   9.787   1.963
84114W        W56539  16.481   1.306   4.179
84115W        W56540  35.073  27.203   3.055
84116W        W56541   7.237  40.326  14.877
84117W        W56542  22.764  13.076   0.766
84118W        W56543  13.906   4.713  11.718
84119W        W56544  22.588   6.286   0.974
84120W        W56545  24.460   3.786  14.107
84121W        W56546   4.384  29.593  13.357
84122W        W56547  33.842  18.729   3.238
84123W        W56548  22.006  14.128  11.581
84124W        W56549  31.000  43.914  11.369
84125W        W56550  42.982  15.114  10.230
84126W        W56551   6.387  10.348  12.651
84127W        W56552  13.151  24.789   4.289
84128W        W56553  29.357  14.484  14.456
84129W        W56554  17.296  20.264  12.191
84130W        W56555  41.902  17.623  11.203
84131W        W56556   8.120   3.703   4.314
84132W        W56557  34.395  25.159   0.992
84133W        W56558  13.760  32.420  14.858
84134W        W56559  11.739  19.027   0.556
84135W        W56560  44.895   5.587   3.237
84136W        W56561  41.380   9.159  13.907
84137W        W56562   4.202  10.117   1.227
84138W        W56563  15.283  26.533   3.889
84139W        W56564  40.053   1.870  12.387
84140W        W56565  18.165  33.536  11.536
84141W        W56566  24.966   1.302  11.246
84142W        W56567   7.755   8.782  10.704
84143W        W56568  13.714  27.666  14.537
84144W        W56569  44.066  13.276   0.907
84145W        W56570  11.543  42.713   9.871
84146W        W56571  44.809   2.426  14.226
84147W        W56572   4.864  17.773  11.951
84148W        W56573  24.151   9.665  10.780
84149W        W56574   1.864   7.169  11.287
84150W        W56575  42.998  18.453  14.962
84151W        W56576  39.407  22.656   3.956
84152W        W56577  12.931  28.028   3.704
84153W        W56578  44.505  44.345  10.131
84154W        W56579  44.026   1.621  14.810
84155W        W56580  35.237  23.617  10.372
84156W        W56581  11.626   4.349   0.740
84157W        W56582   0.748   4.406   0.827
84158W        W56583  29.483   5.966  13.881
84159W        W56584  14.538  39.310  12.017
84160W        W56585  37.990  29.075  11.529
84161W        W56586   8.829  33.868   4.653
84162W        W56587  36.917   7.659  12.608
84163W        W56588  38.564  19.223   1.652
84164W        W56589   2.869  26.241   1.516
84165W        W56590   4.859  33.062   1.764
84166W        W56591  15.779  16.270   1.280
84167W        W56592  34.176  35.148  14.312
84168W        W56593   8.335  22.645   0.819
84169W        W56594  14.664   9.246  14.548
84170W        W56595  44.956  21.469  14.984
84171W        W56596  42.042   8.246   2.079
84172W        W56597  38.208  22.982  11.455
84173W        W56598  37.531  32.797   3.107
84174W        W56599   8.470  20.116  14.416
84175W        W56600   8.889   2.303   1.423
84176W        W56601   9.894  25.662  11.879
84177W        W56602  11.728  11.201   2.756
84178W        W56603  32.978  30.384  11.483
84179W        W56604   1.537  26.754  11.413
84180W        W56605  22.733  15.147   0.587
84181W        W56606  42.145  39.346  12.417
84182W        W56607  10.262   9.381   5.069
84183W        W56608  12.190  22.335   1.962
84184W        W56609   4.791   6.722  11.353
84185W        W56610  41.570  13.063  10.705
84186W        W56611  42.040  42.021  13.485
84187W        W56612  26.419  23.580  13.502
84188W        W56613   2.898  25.359   0.955
84189W        W56614  11.141   9.352   2.749
84190W        W56615   9.332   0.797   3.656
84191W        W56616  37.957   7.263   1.274
84192W        W56617  30.550  11.743   3.168
84193W        W56618  15.006  24.842  12.918
84194W        W56619  41.905  18.890   5.144
84195W        W56620  44.542  15.012  14.354
84196W        W56621  18.467   7.349   2.365
84197W        W56622   4.250  15.415   3.191
84198W        W56623  37.553  25.872   4.068
84199W        W56624  39.656  41.502   5.254
84200W        W56625   1.773  17.758   3.704
84201W        W56626   2.474  41.381   4.734
84202W        W56627  24.012  39.402  14.736
84203W        W56628  44.828  40.577   2.854
84204W        W56629   6.442  39.103  14.451
84205W        W56630  32.343  37.898  10.746
84206W        W56631   1.941  40.658   3.563
84207W        W56632  27.745  39.818   0.576
84208W        W56633  11.845  40.900  10.340
84209W        W56634  15.722  44.662  14.325
84210W        W56635  32.113  39.557   0.951
84211W        W56636  44.040  31.387  13.858
84212W        W56637  15.211  28.699   1.347
84213W        W56638  40.406  42.479  12.931
84214W        W56639  29.005  25.993   4.071
84215W        W56640   2.268  10.287   4.394
84216W        W56641  28.654   4.892  13.531
84217W        W56642  28.439  38.829   3.296
84218W        W56643  43.050  11.814   2.207
84219W        W56644   2.580  42.085  11.528
84220W        W56645   2.633  31.988   3.866
84221W        W56646  28.063  41.671  13.782
84222W        W56647   0.498   8.665  12.462
84223W        W56648  21.098  39.402   0.711
84224W        W56649  13.196  28.888  11.066
84225W        W56650  28.352  28.491   0.500
84226W        W56651  37.968  39.001  10.251
84227W        W56652  35.013  24.104   5.125
84228W        W56653   6.197   2.099  13.349
84229W        W56654  29.486  14.365   4.178
84230W        W56655  21.308  16.074  12.199
84231W        W56656  35.359  25.960  14.859
84232W        W56657  26.089   9.617   4.114
84233W        W56658  44.683  40.805   0.909
84234W        W56659  16.562   4.756   2.815
84235W        W56660  39.596  14.126  11.464
84236W        W56661  44.734   4.402  13.364
84237W        W56662  23.754  20.172   4.716
84238W        W56663   2.413  22.301  13.934
84239W        W56664  33.067  22.455   0.806
84240W        W56665  19.413   3.017  14.210
84241W        W56666  33.747   1.413  12.036
84242W        W56667   0.231  41.446   0.488
84243W        W56668   1.344  24.108  10.841
84244W        W56669  18.575  40.532  11.235
84245W        W56670   7.709  34.936  13.996
84246W        W56671  14.638  14.204  12.107
84247W        W56672  29.071  34.009   3.634
84248W        W56673  41.980  30.919   2.397
84249W        W56674  10.238  13.565   2.710
84250W        W56675  13.234  36.100  14.717
84251W        W56676  20.642  20.446  14.478
84252W        W56677   4.852  36.222  14.991
84253W        W56678   0.026  22.878  14.129
84254W        W56679  39.216  23.224   1.981
84255W        W56680  39.494  36.387   2.326
84256W        W56681   0.498  33.392   0.319
84257W        W56682   9.045  41.885  14.576
84258W        W56683  16.324  14.140  12.532
84259W        W56684  10.706  36.394  13.301
84260W        W56685   2.449   8.777   0.319
84261W        W56686  34.829  14.881   3.125
84262W        W56687  30.204  40.849  12.403
84263W        W56688  33.464  26.708  12.148
84264W        W56689  10.220  24.461  10.651
84265W        W56690  30.856   6.244   4.897
84266W        W56691  16.352  44.916  13.614
84267W        W56692  14.744  22.186   5.240
84268W        W56693  12.126  41.299   0.492
84269W        W56694  30.540  35.512   3.803
84270W        W56695   3.465  39.082  10.406
84271W        W56696  14.620  41.223  14.342
84272W        W56697  13.790  40.047   3.757
84273W        W56698   8.027  24.302  12.080
84274W        W56699  34.396  22.238  12.968
84275W        W56700  39.985  22.945   3.362
84276W        W56701  12.650  41.314   3.395
84277W        W56702  38.564   5.766  11.087
84278W        W56703  32.619   8.719  12.564
84279W        W56704  27.292  33.460  11.013
84280W        W56705  42.376  18.609   3.291
84281W        W56706   0.035  36.576   1.996
84282W        W56707  13.643  13.094  11.196
84283W        W56708  35.478  42.038  13.349
84284W        W56709  33.398  30.940   1.294
84285W        W56710  38.670  17.393  12.604
84286W        W56711  25.653   4.191   2.788
84287W        W56712   8.280   2.713  11.613
84288W        W56713  41.597  20.134   2.323
84289W        W56714   6.217  40.936  12.000
84290W        W56715  21.722  34.575  10.531
84291W        W56716  35.084  37.863   0.449
84292W        W56717  21.984  21.057  14.468
84293W        W56718  44.253   8.164  14.349
84294W        W56719  12.178  21.382   1.798
84295W        W56720  32.944  33.520  13.918
84296W        W56721  17.031  35.522   2.559
84297W        W56722  34.827  11.093   2.763
84298W        W56723  29.691  32.108   3.493
84299W        W56724   8.464  39.774   2.313
84300W        W56725  19.517   9.439  14.361
84301W        W56726  14.219  42.439  11.805
84302W        W56727  15.726  13.545  14.413
84303W        W56728  38.417  24.595  12.441
84304W        W56729  14.165  41.760  13.126
84305W        W56730   2.077  18.199   4.209
84306W        W56731  15.819  25.199   0.362
84307W        W56732  44.077  27.858   2.697
84308W        W56733  12.220  28.708  11.388
84309W        W56734   3.340  23.606   2.366
84310W        W56735   5.036  13.839  13.864
84311W        W56736  27.260  32.756  13.439
84312W        W56737  19.068   0.882   3.158
84313W        W56738   2.318   8.330  12.099
84314W        W56739  27.179  27.902  10.606
84315W        W56740   6.252   5.604   1.052
84316W        W56741  25.465   6.270  14.839
84317W        W56742   4.430  28.431  11.999
84318W        W56743  43.226  42.349   2.171
84319W        W56744  20.647  37.896  12.294
84320W        W56745  42.927   6.611  14.928
84321W        W56746  37.984   4.689  13.169
84322W        W56747  43.015  13.537  11.255
84323W        W56748   5.256   7.871   2.886
84324W        W56749  16.588  32.359  11.570
84325W        W56750  10.234  35.562   5.086
84326W        W56751  19.232  29.597  13.994
84327W        W56752  17.125  18.271   2.883
84328W        W56753   9.373  36.808   3.014
84329W        W56754  44.381  28.705  11.103
84330W        W56755  39.629  32.151  14.993
84331W        W56756   2.925   0.195   2.699
84332W        W56757  31.282   3.411   2.708
84333W        W56758  16.699  44.465   3.584
84334W        W56759  28.325  18.134   2.624
84335W        W56760  25.196   2.319  11.489
84336W        W56761  24.983   0.906   1.152
84337W        W56762  38.110  42.440  10.596
84338W        W56763   5.366  37.049  10.308
84339W        W56764  21.240  44.924  14.251
84340W        W56765  11.709  10.523   2.381
84341W        W56766  44.218   9.106   4.504
84342W        W56767  24.328  26.578   1.277
84343W        W56768   5.889  21.253   3.808
84344W        W56769  40.064  42.191  14.040
84345W        W56770  22.215  37.329  13.281
84346W        W56771  10.694  31.568  10.830
84347W        W56772  39.221   6.266   3.130
84348W        W56773  33.513   2.787   3.842
84349W        W56774  27.068  43.899   0.472
84350W        W56775  33.182  26.598   1.809
84351W        W56776  32.826  41.162   0.384
84352W        W56777   4.731  41.771  10.598
84353W        W56778   1.718  11.764  13.651
84354W        W56779   4.652  25.465  12.584
84355W        W56780  38.129  17.212   1.748
84356W        W56781   2.261  20.557   4.574
84357W        W56782   7.073   1.359  10.471
84358W        W56783   8.928   0.438  13.914
84359W        W56784  28.548  33.653   5.200
84360W        W56785  17.757  27.495   3.734
84361W        W56786  25.899   3.282   4.532
84362W        W56787   1.455  26.180   1.636
84363W        W56788  27.812  36.635  12.716
84364W        W56789  28.953  11.577   4.897
84365W        W56790   1.375  30.800   2.729
84366W        W56791  32.695  37.499  13.515
84367W        W56792  44.938  12.914   5.162
84368W        W56793  27.684  37.274  12.909
84369W        W56794  29.574   6.400   4.567
84370W        W56795   9.020  11.804   4.968
84371W        W56796  43.929  29.192   0.405
84372W        W56797  39.903  39.312  14.492
84373W        W56798  35.300  34.636   0.340
84374W        W56799  16.801  38.379   1.441
84375W        W56800  25.930  24.125  11.896
84376W        W56801  23.952  13.720  12.556
84377W        W56802  10.840  22.222  12.988
84378W        W56803  35.466  42.887   5.206
84379W        W56804   2.076  31.066   2.331
84380W        W56805  18.114  44.340   2.846
84381W        W56806   7.923   5.955  11.940
84382W        W56807  26.749  24.114  14.331
84383W        W56808  20.467  25.629  12.009
84384W        W56809  33.919  30.074   4.210
84385W        W56810   4.708  25.148  14.847
84386W        W56811  17.777   6.742  13.909
84387W        W56812  25.527  38.940  14.287
84388W        W56813  32.025   1.503   3.302
84389W        W56814  17.386  10.087   0.713
84390W        W56815   2.296   8.343   3.612
84391W        W56816  26.851  32.932   1.202
84392W        W56817  23.096  23.177   0.617
84393W        W56818  35.849   4.396  11.433
84394W        W56819  37.574   1.476  13.502
84395W        W56820  15.391  21.172  12.937
84396W        W56821   0.061   6.847   3.743
84397W        W56822   7.683  18.747  13.082
84398W        W56823   3.186  40.973  14.290
84399W        W56824  35.677   5.763   2.512
84400W        W56825  13.115  24.685  12.435
84401W        W56826  37.546  42.081   3.224
84402W        W56827  40.790  22.319   1.402
84403W        W56828   7.796  31.474   0.209
84404W        W56829  44.807  40.756   2.248
84405W        W56830  23.665  44.355  13.793
84406W        W56831   1.816  35.896   0.782
84407W        W56832  11.623  24.024  14.129
84408W        W56833  22.304  31.884   0.427
84409W        W56834   8.299  22.261  11.927
84410W        W56835  38.914   6.488  13.492
84411W        W56836  15.111   8.588   4.038
84412W        W56837  15.307  43.451   0.473
84413W        W56838   7.909   9.717   1.389
84414W        W56839  34.216   0.142  12.361
84415W        W56840  11.764   5.312  10.655
84416W        W56841   3.362   8.842   1.776
84417W        W56842   1.652  30.450  14.900
84418W        W56843   8.301   5.428   1.201
84419W        W56844  17.657  30.344   9.734
84420W        W56845  28.643   3.497   2.954
84421W        W56846  12.808  37.540   2.905
84422W        W56847  34.059  23.519   2.932
84423W        W56848  16.777  25.113   0.231
84424W        W56849  34.477  43.441   4.263
84425W        W56850  17.205  18.319   0.696
84426W        W56851   3.406   8.727  10.641
84427W        W56852  34.183  22.830   1.816
84428W        W56853  30.896  26.725  13.426
84429W        W56854  35.351  12.644   2.965
84430W        W56855  26.603   7.504  14.080
84431W        W56856  38.502  18.714   1.932
84432W        W56857   9.168  20.061   4.001
84433W        W56858  44.439  15.666  14.259
84434W        W56859  15.126  34.969  11.364
84435W        W56860  40.807   1.204   3.238
84436W        W56861  27.101   2.052   3.270
84437W        W56862  44.940  17.822   2.201
84438W        W56863  17.066   0.531  11.412
84439W        W56864  19.567   5.413  12.484
84440W        W56865   3.576  44.849   1.817
84441W        W56866  26.078  41.265   3.570
84442W        W56867   0.310  33.557   4.251
84443W        W56868  11.178  25.609   2.383
84444W        W56869  30.655  19.560  14.580
84445W        W56870   4.970  17.628   3.139
84446W        W56871  43.877  23.289   0.474
84447W        W56872  13.506  43.265  14.669
84448W        W56873  35.151  43.063  12.504
84449W        W56874   5.185  11.853   4.511
84450W        W56875  33.021   5.161   1.737
84451W        W56876  40.812  36.975  11.124
84452W        W56877  36.692  38.924  13.588
84453W        W56878  41.332  12.344  13.629
84454W        W56879   4.081  33.199   3.902
84455W        W56880  10.974  34.975   4.344
84456W        W56881  11.849  21.615   3.411
84457W        W56882  35.806  25.477  13.332
84458W        W56883  34.538  33.735  13.955
84459W        W56884   3.953  25.045   5.013
84460W        W56885  21.521  33.642   0.812
84461W        W56886  44.320  23.519   1.853
84462W        W56887  31.126  38.832  14.704
84463W        W56888  22.720   0.716  12.899
84464W        W56889  32.415  32.991  13.617
84465W        W56890  12.807  20.342   1.310
84466W        W56891   1.991   7.729   1.351
84467W        W56892  24.535  19.815  10.404
84468W        W56893  17.304  32.704  12.113
84469W        W56894  34.306  39.557   1.368
84470W        W56895   9.902  40.225  14.029
84471W        W56896  22.461  15.704  13.383
84472W        W56897  34.058  25.910   2.703
84473W        W56898   5.408  30.739   2.689
84474W        W56899  23.580   6.967  11.127
84475W        W56900   0.252  20.231   4.707
84476W        W56901   6.412  12.202   4.661
84477W        W56902  38.202  13.486   1.448
84478W        W56903  36.439   9.460   1.022
84479W        W56904  26.191   9.541   4.977
84480W        W56905  12.102   3.237  12.836
84481W        W56906   3.437  44.376  13.864
84482W        W56907  43.380  25.968   1.703
84483W        W56908  24.971  25.566   0.545
84484W        W56909  16.125  28.999  13.755
84485W        W56910  29.679  32.897   2.377
84486W        W56911   1.083  34.942   4.622
84487W        W56912  36.869   8.087   0.925
84488W        W56913   2.893  39.978  14.753
84489W        W56914  20.733  43.409   0.386
84490W        W56915  17.338  30.569   2.647
84491W        W56916  37.773  39.957   0.775
84492W        W56917  14.559  31.373  13.044
84493W        W56918   7.213   0.931   3.659
84494W        W56919  25.683  25.220  10.587
84495W        W56920  42.339   8.593   4.699
84496W        W56921  32.062  18.471  13.230
84497W        W56922  36.998  39.714  13.581
84498W        W56923   6.953  33.936  12.917
84499W        W56924  26.345  32.433  14.744
84500W        W56925  17.457  10.804   3.958
84501W        W56926  18.797   2.516   1.241
84502W        W56927  23.011  43.720  13.309
84503W        W56928   0.317  44.932   0.745
84504W        W56929  17.075   0.291  11.950
84505W        W56930  11.937  21.238  11.663
84506W        W56931  44.265   9.078   1.883
84507W        W56932  33.217  33.677  11.507
84508W        W56933  37.672  22.406  11.957
84509W        W56934  12.179  29.980   0.652
84510W        W56935  38.883   6.821  12.070
84511W        W56936  39.343  14.248  12.604
84512W        W56937  33.409  22.016  11.349
84513W        W56938  20.964  12.064  11.133
84514W        W56939  32.603  43.947   4.399
84515W        W56940  20.317   7.952   2.228
84516W        W56941  10.085  31.648  12.509
84517W        W56942  28.636   0.433  10.703
84518W        W56943  24.167  19.543  13.706
84519W        W56944   9.331  18.071   1.665
84520W        W56945   1.463  39.283   2.187
84521W        W56946  28.570  25.748   3.846
84522W        W56947  24.266  39.927  14.800
84523W        W56948  43.398  17.637   0.810
84524W        W56949  32.248  13.035   4.174
84525W        W56950  28.149   6.649  12.308
84526W        W56951  31.118  21.977   2.388
84527W        W56952  44.865  41.791  10.891
84528W        W56953  31.884  25.702   2.207
84529W        W56954  29.229  32.439  12.967
84530W        W56955  19.927  18.100  12.422
84531W        W56956  20.181  29.848   2.657
84532W        W56957  44.541  43.365  12.475
84533W        W56958   2.291  41.633  12.488
84534W        W56959  33.301   4.268   2.369
84535W        W56960   5.219   1.348  11.963
84536W        W56961  43.491  39.120   3.741
84537W        W56962  34.502   7.510   3.751
84538W        W56963  23.663  32.066   4.622
84539W        W56964  31.569  29.085   0.495
84540W        W56965   6.236  40.389  12.133
84541W        W56966  16.747  22.413  12.952
84542W        W56967  14.209  36.084   1.521
84543W        W56968   7.636   1.005   3.314
84544W        W56969  13.960   7.344  14.464
84545W        W56970  34.143  26.063   1.895
84546W        W56971  20.363  38.471   2.812
84547W        W56972  44.396  27.432  10.715
84548W        W56973  40.712  44.781   3.696
84549W        W56974  36.619  33.169   0.782
84550W        W56975  21.153   4.829  13.880
84551W        W56976  24.569  13.114  14.308
84552W        W56977  27.858  19.702  11.590
84553W        W56978  38.941   2.453  11.000
84554W        W56979   4.563  15.365  10.511
84555W        W56980  30.893  18.988  13.603
84556W        W56981  39.981  34.482  14.589
84557W        W56982  37.965   2.143   3.718
84558W        W56983  43.792  26.519   1.290
84559W        W56984  33.139  33.376  14.400
84560W        W56985  25.102  38.599  13.587
84561W        W56986  22.660  17.011   0.042
84562W        W56987   9.446  11.570  12.973
84563W        W56988  43.914  34.144   2.901
84564W        W56989  17.517  16.257   0.047
84565W        W56990  21.174  32.958  10.713
84566W        W56991  38.462  16.140   4.569
84567W        W56992   8.015   8.488   2.661
84568W        W56993  16.792  42.972   1.857
84569W        W56994  24.232  42.295   3.628
84570W        W56995   8.317   2.089   2.837
84571W        W56996  29.238  40.652   0.647
84572W        W56997  18.616  43.079  11.949
84573W        W56998   5.814  44.717   4.156
84574W        W56999  12.469  35.358  11.363
84575W        W57000  37.638  24.706   2.486
84576W        W57001  34.462  37.576  13.580
84577W        W57002  18.267   6.798  13.761
84578W        W57003  40.173  39.893  12.874
84579W        W57004  41.758  33.463  11.558
84580W        W57005  27.001   3.700   1.242
84581W        W57006  16.841  19.721   2.725
84582W        W57007  18.709  22.172  11.476
84583W        W57008   3.685  19.149   3.623
84584W        W57009   7.431  29.867   4.187
84585W        W57010  28.230  13.167  12.510
84586W        W57011   7.888  15.620   0.475
84587W        W57012  14.800  42.022  10.688
84588W        W57013  23.178   9.020   1.275
84589W        W57014  23.037  30.650   0.207
84590W        W57015  23.747  42.512  13.051
84591W        W57016  38.071  28.445  11.161
84592W        W57017  19.477  10.901   3.439
84593W        W57018  10.799  32.555   4.771
84594W        W57019  21.775  34.841   0.033
84595W        W57020  41.174  18.300   3.382
84596W        W57021   2.475  26.182   0.068
84597W        W57022  40.543  44.439   0.517
84598W        W57023   1.790  20.851   4.712
84599W        W57024  22.756   6.893  11.926
84600W        W57025  30.633  34.029   4.122
84601W        W57026  38.567  21.229  14.461
84602W        W57027  37.491  40.282  14.003
84603W        W57028  16.835  21.067  14.396
84604W        W57029  17.254  21.105  14.686
84605W        W57030  26.690   9.306   2.873
84606W        W57031  22.933  28.523  14.921
84607W        W57032  35.912  36.310   4.085
84608W        W57033  37.507  11.224   1.389
84609W        W57034  40.001   5.769   1.261
84610W        W57035   5.147  42.514   3.601
84611W        W57036  31.840  14.793   4.797
84612W        W57037  18.227  37.255  11.657
84613W        W57038  14.326  21.486  13.477
84614W        W57039  34.400  19.582  11.215
84615W        W57040  40.392  16.054  14.465
84616W        W57041   2.392  37.393  11.407
84617W        W57042  25.914  23.294   3.069
84618W        W57043  24.473  28.456   0.003
84619W        W57044  41.500  25.098   1.708
84620W        W57045   7.896   1.352   1.308
84621W        W57046  33.460  24.750   3.264
84622W        W57047   8.204  22.166   3.287
84623W        W57048  44.050   0.500  12.529
84624W        W57049  35.635  39.817  12.987
84625W        W57050  39.384   1.657  13.421
84626W        W57051  29.715  18.117  11.948
84627W        W57052  17.851  22.170  14.640
84628W        W57053  20.794  19.862  10.960
84629W        W57054  39.554  29.585  14.002
84630W        W57055   7.876  17.067   1.195
84631W        W57056  10.457   3.456  11.132
84632W        W57057   8.648  36.565  14.445
84633W        W57058  25.693  13.038   2.823
84634W        W57059  10.634  37.278  10.667
84635W        W57060  14.651  41.124  12.481
84636W        W57061  41.305  37.968   4.641
84637W        W57062  40.237  19.798   3.353
84638W        W57063   9.074  32.642  12.881
84639W        W57064   2.214  32.833  13.829
84640W        W57065  41.032  41.526   0.752
84641W        W57066  15.689  28.562   0.988
84642W        W57067  39.701  18.222  12.018
84643W        W57068  17.699  44.978  14.959
84644W        W57069   1.842  39.489  12.559
84645W        W57070  41.646  29.951  13.505
84646W        W57071  20.648   5.700   2.533
84647W        W57072  26.281  37.476  12.592
84648W        W57073  10.119  18.595  11.169
84649W        W57074  20.945  35.447   0.770
84650W        W57075  37.055  20.951  11.086
84651W        W57076   7.907   7.298   0.038
84652W        W57077  39.752  35.158  11.123
84653W        W57078  44.280  34.671  13.627
84654W        W57079  27.562  19.128  14.709
84655W        W57080  26.892  10.602   4.359
84656W        W57081   7.863  15.902  12.889
84657W        W57082  18.532  41.220   1.589
84658W        W57083  25.556  34.522  14.530
84659W        W57084  13.207  31.102  11.578
84660W        W57085   9.254  35.437  11.161
84661W        W57086  28.700  30.722  10.292
84662W        W57087  35.357   1.307  13.921
84663W        W57088  40.850   9.175  13.034
84664W        W57089  17.175  24.759  10.666
84665W        W57090  43.348  29.198  14.756
84666W        W57091  20.071   9.708  10.524
84667W        W57092   1.041  41.740  12.791
84668W        W57093  11.245  25.959   1.823
84669W        W57094  22.927  21.195  12.934
84670W        W57095  28.409   9.125   2.305
84671W        W57096  19.375   5.370   2.688
84672W        W57097  37.349  40.909   2.158
84673W        W57098  21.343  25.747  11.624
84674W        W57099  10.824  30.551   2.853
84675W        W57100  19.605  17.900  12.020
84676W        W57101  15.632  41.238  13.418
84677W        W57102   0.279  14.593  12.310
84678W        W57103  26.547  38.758   3.123
84679W        W57104  30.019  12.223  12.644
84680W        W57105  14.543  36.754  14.361
84681W        W57106  29.705  33.039   3.736
84682W        W57107  39.100  10.268   4.528
84683W        W57108  44.354  16.630  10.662
84684W        W57109  20.190  43.412   0.857
84685W        W57110   0.906  14.254   0.268
84686W        W57111   1.403   0.279  13.845
84687W        W57112  35.925  34.159  13.959
84688W        W57113  35.440  26.559  10.594
84689W        W57114  34.378  14.892   0.139
84690W        W57115  11.326  33.507  13.674
84691W        W57116  10.867  22.577  14.412
84692W        W57117  19.464  31.888  14.379
84693W        W57118  37.614  15.808   1.517
84694W        W57119  13.701   7.897   4.617
84695W        W57120  40.572  15.671  12.495
84696W        W57121  26.489  20.256  11.087
84697W        W57122  30.651   5.871   2.174
84698W        W57123   9.087  38.828  13.452
84699W        W57124  16.035  11.251  14.944
84700W        W57125   2.963  42.934   1.534
84701W        W57126  43.237  21.570   1.749
84702W        W57127  11.891   0.420   1.266
84703W        W57128   3.043   7.178   3.781
84704W        W57129  10.091  37.562  12.585
84705W        W57130  41.214  37.340   3.768
84706W        W57131  37.375  16.387   3.217
84707W        W57132  37.115  30.591   3.671
84708W        W57133   4.882  42.049  10.994
84709W        W57134  33.019  14.131  11.399
84710W        W57135   7.660   2.350  11.897
84711W        W57136  29.430  28.522   0.889
84712W        W57137  32.634  12.533  14.856
84713W        W57138  19.972  10.781   4.206
84714W        W57139  41.781  11.279  12.857
84715W        W57140   8.811  17.296  11.203
84716W        W57141  30.585  35.962   0.666
84717W        W57142   1.175  21.055   3.122
84718W        W57143  18.953  38.976   5.070
84719W        W57144  10.035  26.477   2.686
84720W        W57145   2.317  37.445   4.759
84721W        W57146  31.440  43.500  10.949
84722W        W57147  17.783   1.437   0.922
84723W        W57148  18.026  42.560   2.509
84724W        W57149  17.558  13.132   4.418
84725W        W57150  36.334  24.557  10.230
84726W        W57151  14.061  38.832  13.557
84727W        W57152  22.745  38.298  12.247
84728W        W57153  41.314  40.260  10.731
84729W        W57154   1.206  43.538  12.848
84730W        W57155  39.303   9.867  12.531
84731W        W57156  10.071  39.049   1.169
84732W        W57157  37.544  28.407  11.043
84733W        W57158   4.062  18.810  14.118
84734W        W57159  29.046  26.727  13.562
84735W        W57160   7.771  43.557  13.001
84736W        W57161  32.936  28.070   1.795
84737W        W57162  23.565   5.785   4.625
84738W        W57163   6.492   9.364  11.645
84739W        W57164  21.554  29.184  13.123
84740W        W57165   6.340  38.637  13.460
84741W        W57166  44.042  17.160  13.213
84742W        W57167   6.277  31.962   2.175
84743W        W57168  28.136  29.952  12.632
84744W        W57169   6.395  23.979  14.312
84745W        W57170  13.648   1.495  13.505
84746W        W57171  15.139  23.305  14.473
84747W        W57172   9.361  26.667  12.629
84748W        W57173   1.554   2.013  13.040
84749W        W57174  40.199  24.257  14.869
84750W        W57175  43.546  38.982   4.796
84751W        W57176  32.564  35.353   3.125
84752W        W57177  22.097  33.694  13.044
84753W        W57178   5.299  29.184   4.108
84754W        W57179  14.211  17.713  12.549
84755W        W57180   2.289  20.728  10.794
84756W        W57181  32.353  10.601  14.331
84757W        W57182  27.922   2.431   1.732
84758W        W57183  35.404   2.300   4.582
84759W        W57184  18.566  17.001  10.339
84760W        W57185  18.245  39.267   4.037
84761W        W57186  34.346  11.245  12.191
84762W        W57187   7.986  26.480   4.570
84763W        W57188  19.604  32.511   4.530
84764W        W57189  21.443  41.288  11.178
84765W        W57190  30.977  15.297   1.994
84766W        W57191  41.954   3.184   3.004
84767W        W57192   4.943   0.359   2.576
84768W        W57193  27.917  44.207   3.333
84769W        W57194   7.467  33.836  11.636
84770W        W57195   7.846  12.175  12.449
84771W        W57196  24.963  16.332   0.132
84772W        W57197  17.731  36.403   3.230
84773W        W57198  29.687  27.114   3.224
84774W        W57199  44.815  16.903  11.905
84775W        W57200  19.714   0.991   1.215
84776W        W57201  41.319   8.665   0.031
84777W        W57202   0.340  42.988   1.632
84778W        W57203  31.559  40.850   4.629
84779W        W57204   1.918  19.254   0.443
84780W        W57205   1.791  34.106  12.852
84781W        W57206   1.407  41.853   4.675
84782W        W57207  35.563  17.824  11.346
84783W        W57208  24.078  30.442   0.360
84784W        W57209  14.733  43.446   3.270
84785W        W57210  35.870   1.883  10.746
84786W        W57211   5.305   3.383   2.586
84787W        W57212  14.312  40.105  14.335
84788W        W57213  37.912  21.783   4.197
84789W        W57214   5.388  40.435   4.687
84790W        W57215  38.791   9.773  12.595
84791W        W57216  32.985  39.102   3.769
84792W        W57217  38.048  13.965  13.225
84793W        W57218  23.157   6.101   0.389
84794W        W57219   6.658  18.128  13.411
84795W        W57220  34.564  15.338  13.493
84796W        W57221  22.775  17.603   4.070
84797W        W57222  35.922  21.235   3.540
84798W        W57223   9.660  32.173   4.203
84799W        W57224  30.383  10.553   0.954
84800W        W57225  18.756   1.263  14.257
84801W        W57226   6.392   8.953  13.282
84802W        W57227  32.441  17.451  12.951
84803W        W57228   6.067   5.190  13.935
84804W        W57229   5.811  32.649   0.846
84805W        W57230  31.262   7.139   2.760
84806W        W57231  36.172  35.117  13.336
84807W        W57232  26.155  25.924  12.468
84808W        W57233  39.858  13.619   4.532
84809W        W57234  22.603  24.320   3.141
84810W        W57235  28.655  34.184   0.975
84811W        W57236   6.250  26.006   1.819
84812W        W57237  18.755   4.529   0.896
84813W        W57238  29.203  37.950  14.203
84814W        W57239  37.321  29.013   0.271
84815W        W57240  11.265  21.311  12.015
84816W        W57241  20.711  32.353  10.678
84817W        W57242  17.127  32.176  14.206
84818W        W57243  29.961  30.970   2.930
84819W        W57244  21.296  44.861   2.345
84820W        W57245   6.355   3.639  13.242
84821W        W57246  18.715   2.784  11.490
84822W        W57247  17.369   7.651   4.248
84823W        W57248   5.341   8.262   1.081
84824W        W57249  41.764   7.692   4.609
84825W        W57250  10.324  37.956  11.895
84826W        W57251   2.783   5.393   3.339
84827W        W57252  37.396  25.911   4.797
84828W        W57253  19.128  12.413   0.405
84829W        W57254  10.296  33.332   0.895
84830W        W57255   6.722  18.253  14.369
84831W        W57256   0.899  20.050   0.651
84832W        W57257  28.642  26.831   0.809
84833W        W57258  15.654  28.012  12.173
84834W        W57259  16.597  24.129  13.381
84835W        W57260   9.345  21.710   1.979
84836W        W57261   6.435  14.347   3.309
84837W        W57262  41.386  39.350   4.152
84838W        W57263   6.906   5.379   2.633
84839W        W57264  30.379  41.377   0.226
84840W        W57265  36.490  14.642  13.841
84841W        W57266  35.464  28.240  12.032
84842W        W57267   4.042   8.724  11.265
84843W        W57268  40.144   0.986  11.484
84844W        W57269  42.339  41.963  13.907
84845W        W57270  28.542  31.020   4.771
84846W        W57271  41.997  15.106   1.899
84847W        W57272  10.945  13.709  11.334
84848W        W57273  13.174  36.523   1.796
84849W        W57274   6.132  29.434  12.455
84850W        W57275  38.393  40.985  10.498
84851W        W57276  38.757  22.176  13.133
84852W        W57277  13.542  32.202   2.936
84853W        W57278  43.797  21.261  13.320
84854W        W57279  26.149  18.698   0.232
84855W        W57280  24.027   9.405   3.723
84856W        W57281   2.708  36.681   4.542
84857W        W57282  18.861  40.837   4.616
84858W        W57283  11.158  23.059   3.145
84859W        W57284  36.465   8.855  13.913
84860W        W57285  16.191  20.186   1.171
84861W        W57286  38.515  37.336  12.937
84862W        W57287  21.658  30.406  11.526
84863W        W57288  35.096  21.591  14.154
84864W        W57289  32.953  42.426   0.751
84865W        W57290   2.514  31.928  11.625
84866W        W57291  15.642  25.889  13.906
84867W        W57292  26.771  42.609  14.398
84868W        W57293   0.506   4.063  13.908
84869W        W57294  24.948  34.143   0.281
84870W        W57295  16.916  40.943   2.875
84871W        W57296  36.936  14.489   2.375
84872W        W57297  34.378  44.171  12.102
84873W        W57298   0.503  20.759  11.838
84874W        W57299  15.827  33.381  14.062
84875W        W57300  25.408  15.611   0.755
84876W        W57301  36.811   9.260   2.714
84877W        W57302   7.087  38.171  12.507
84878W        W57303   0.943   0.464  10.564
84879W        W57304  22.737   8.648  10.557
84880W        W57305  13.301  19.262   4.076
84881W        W57306  24.198  12.293  12.899
84882W        W57307  33.617  29.828  12.708
84883W        W57308   7.240  42.202   4.711
84884W        W57309  28.018  33.954  12.901
84885W        W57310  26.542  18.003  11.554
84886W        W57311  18.503  39.977   3.559
84887W        W57312  13.621   4.735   1.823
84888W        W57313   0.037   4.464   1.393
84889W        W57314  25.449  39.379   3.280
84890W        W57315  39.963   0.247  14.844
84891W        W57316  24.974  27.970   2.005
84892W        W57317  40.430  21.009   1.262
84893W        W57318  27.578  39.450   2.960
84894W        W57319   1.200  34.712   0.438
84895W        W57320  24.598  32.601  14.765
84896W        W57321   8.097  33.104   0.037
84897W        W57322  27.882  29.921   2.838
84898W        W57323  13.111  26.441  13.699
84899W        W57324   9.431  36.039   3.300
84900W        W57325   9.766  34.755  11.402
84901W        W57326  28.974  40.775   4.667
84902W        W57327   2.170   5.244   4.088
84903W        W57328   1.510  22.179   2.782
84904W        W57329  22.127  29.153   0.509
84905W        W57330  34.506  29.181  10.920
84906W        W57331  30.433   9.395  13.978
84907W        W57332  22.337  11.339   2.151
84908W        W57333  34.117  44.315  14.569
84909W        W57334  39.572  29.345   3.961
84910W        W57335  24.006   5.337  12.894
84911W        W57336  15.355  16.054   0.839
84912W        W57337  18.277  21.823   3.899
84913W        W57338  21.229  38.009  12.877
84914W        W57339  43.565   7.445   4.280
84915W        W57340  22.709  32.094   4.643
84916W        W57341   2.766  32.607  14.100
84917W        W57342   1.285  25.087   1.803
84918W        W57343   6.742  24.015  11.047
84919W        W57344   1.492  10.767   3.232
84920W        W57345   4.223  25.636   3.601
84921W        W57346  17.147  15.148   4.558
84922W        W57347  29.392  44.904  14.744
84923W        W57348  25.638  36.868   1.129
84924W        W57349  32.115  16.577  10.983
84925W        W57350  34.567  39.359  10.710
84926W        W57351  38.047  21.009   1.160
84927W        W57352  43.989  37.435   9.922
84928W        W57353  38.911  39.694   0.540
84929W        W57354  37.655   0.339   0.337
84930W        W57355  21.662  25.509   1.016
84931W        W57356  12.973   4.606  13.862
84932W        W57357  22.982  27.119   4.018
84933W        W57358  38.918  20.003   3.662
84934W        W57359   3.747  44.882   3.836
84935W        W57360  32.514  17.613  11.524
84936W        W57361  10.258  38.415   0.298
84937W        W57362  22.805  32.722   9.887
84938W        W57363   8.310  30.364  14.614
84939W        W57364  13.376  23.570  14.003
84940W        W57365  19.677   8.965  14.353
84941W        W57366  43.372  20.856   4.639
84942W        W57367  38.042   2.661  11.232
84943W        W57368   2.120  42.421  11.994
84944W        W57369   7.170  30.897   4.551
84945W        W57370   4.833  23.245  11.657
84946W        W57371   6.928  21.999  12.553
84947W        W57372  24.239  11.633  13.387
84948W        W57373  13.628  11.092  13.020
84949W        W57374  17.717  17.604   3.147
84950W        W57375  34.995   4.230  13.277
84951W        W57376  17.506  40.795  14.011
84952W        W57377  25.689  38.927  10.717
84953W        W57378  28.877  15.737  13.487
84954W        W57379  29.476  21.530  14.862
84955W        W57380  18.686  35.179   0.471
84956W        W57381  19.015  10.234  11.886
84957W        W57382   3.377  16.350  11.536
84958W        W57383  18.683  12.354  12.137
84959W        W57384  23.353  27.693  12.846
84960W        W57385  39.486  41.141   2.870
84961W        W57386  21.083   7.316  12.234
84962W        W57387  20.085  17.508   3.414
84963W        W57388  42.993  15.594   1.408
84964W        W57389   3.417  27.879   2.000
84965W        W57390   0.926  32.418   3.667
84966W        W57391   6.645   9.142   0.999
84967W        W57392  25.883  16.831  13.385
84968W        W57393  26.972   3.789   3.248
84969W        W57394  15.575   7.926   0.871
84970W        W57395  16.732  35.084   0.386
84971W        W57396  23.990  34.695   3.633
84972W        W57397  29.038   5.822   3.576
84973W        W57398  29.868  44.913  14.937
84974W        W57399  13.092  38.883   4.647
84975W        W57400  44.850  29.437  14.512
84976W        W57401  35.848   2.257  14.008
84977W        W57402  26.937  29.720  11.148
84978W        W57403  31.136  38.986  11.630
84979W        W57404  24.153  25.534  12.634
84980W        W57405  11.144  13.020  14.568
84981W        W57406  16.427  12.140   4.149
84982W        W57407   3.237   6.190   2.391
84983W        W57408  36.847  38.791  11.070
84984W        W57409  40.122  23.771   1.449
84985W        W57410   1.489   8.361   0.422
84986W        W57411  36.167  20.252  11.923
84987W        W57412   7.780  33.976  12.546
84988W        W57413  18.897  27.888   1.512
84989W        W57414  24.669  12.824  11.536
84990W        W57415   3.086  33.036   3.170
84991W        W57416  10.297  38.717   2.136
84992W        W57417  36.419  16.083   2.764
84993W        W57418   8.962   3.765   4.264
84994W        W57419  40.018  36.673  12.401
84995W        W57420  32.336   7.061  12.621
84996W        W57421   8.844  36.552  13.509
84997W        W57422  29.020  20.966  11.907
84998W        W57423  16.559  33.141   3.706
84999W        W57424  14.423   5.716  11.137
85000W        W57425  14.642   9.336  10.912
85001W        W57426  40.536  18.727  13.328
85002W        W57427   3.198  25.649  13.559
85003W        W57428  21.587  43.497  13.073
85004W        W57429  14.463  20.090  14.549
85005W        W57430  15.975   8.895  10.575
85006W        W57431  32.980   1.215   3.107
85007W        W57432  28.417  41.295   3.244
85008W        W57433  35.326  22.558  11.001
85009W        W57434   8.054  29.434  13.878
85010W        W57435  18.944  28.488  11.334
85011W        W57436   5.600  21.301  14.854
85012W        W57437   6.435  19.418  11.979
85013W        W57438  39.010  25.387   2.511
85014W        W57439  12.827  22.042   4.302
85015W        W57440  26.539  11.528  11.606
85016W        W57441  36.745  23.003  11.406
85017W        W57442  37.892  23.760  10.632
85018W        W57443  13.148   1.018   1.062
85019W        W57444  23.038  34.383  11.207
85020W        W57445  43.185  41.381  10.287
85021W        W57446   1.547  43.252   4.055
85022W        W57447  26.384  44.283   4.685
85023W        W57448  32.931  13.165  11.861
85024W        W57449   3.169   5.469   4.265
85025W        W57450  19.243  17.643  13.033
85026W        W57451  20.203  32.112   1.174
85027W        W57452  40.795  21.345  14.336
85028W        W57453  42.545  17.086  11.894
85029W        W57454  12.220  42.390  11.061
85030W        W57455  38.913  16.292  13.095
85031W        W57456  20.949  11.202  12.427
85032W        W57457  15.266  21.475   0.197
85033W        W57458  37.067  38.087  14.470
85034W        W57459   3.308  32.541   2.908
85035W        W57460  42.578  37.417  12.477
85036W        W57461  11.211  31.321   0.996
85037W        W57462   2.518  36.933   3.166
85038W        W57463  29.650   2.386  14.749
85039W        W57464   8.754  34.684   1.675
85040W        W57465  17.280  34.373  13.928
85041W        W57466  31.648  11.689   0.937
85042W        W57467  24.242  37.465  12.385
85043W        W57468  27.090   8.322  10.770
85044W        W57469  29.135   8.437   0.451
85045W        W57470  17.693   2.466   0.742
85046W        W57471  32.651  23.258   3.353
85047W        W57472  32.793  35.880  13.824
85048W        W57473  39.341  17.989   0.243
85049W        W57474  10.159  43.251   3.303
85050W        W57475  31.361  32.657   1.245
85051W        W57476  36.417  16.869  12.023
85052W        W57477   3.255  32.641   1.903
85053W        W57478  31.512  16.585   4.777
85054W        W57479  10.413  41.888   1.726
85055W        W57480   3.457  36.988  14.832
85056W        W57481  25.309  39.411  14.279
85057W        W57482  15.583  13.271  13.839
85058W        W57483  44.888  44.753   4.686
85059W        W57484  17.078  33.885  13.946
85060W        W57485  18.753  17.445  13.120
85061W        W57486  29.237  24.383   3.273
85062W        W57487  42.668  41.905   1.075
85063W        W57488  10.309  16.102  12.912
85064W        W57489   7.911  13.820   4.273
85065W        W57490  43.213   3.209   0.665
85066W        W57491  38.341  34.530   2.823
85067W        W57492   3.470  42.560   0.937
85068W        W57493  43.361  36.450   0.028
85069W        W57494  23.563   5.417  14.991
85070W        W57495   6.423   8.613  10.440
85071W        W57496  43.938  21.231   2.729
85072W        W57497  40.915  21.230  10.052
85073W        W57498  17.135  26.300   3.563
85074W        W57499  34.744  17.254   1.234
85075W        W57500  23.984  21.385   3.706
85076W        W57501  43.350   2.547   1.378
85077W        W57502  11.136  25.931   0.870
85078W        W57503  23.536  15.793   0.939
85079W        W57504  16.159   3.518   0.455
85080W        W57505  33.588  18.534  11.072
85081W        W57506  36.956   1.048   3.810
85082W        W57507  21.315   9.732   5.032
85083W        W57508  35.444  39.189   1.377
85084W        W57509   0.370  31.883  12.798
85085W        W57510  22.007  43.873  11.036
85086W        W57511  39.264  16.081   1.477
85087W        W57512  19.456  28.459  11.447
85088W        W57513  14.187   2.363   1.755
85089W        W57514  22.878   0.683   2.036
85090W        W57515   9.666  26.436   0.794
85091W        W57516   1.677  34.091   2.785
85092W        W57517  25.157  16.531  13.883
85093W        W57518   0.564   6.459   1.260
85094W        W57519  10.924  15.509  11.652
85095W        W57520  28.458  26.170   4.151
85096W        W57521  29.151  41.081  14.194
85097W        W57522  20.362  21.594   3.423
85098W        W57523  37.207  12.060  12.571
85099W        W57524  16.455  23.314  13.415
85100W        W57525  36.357  21.093   0.237
85101W        W57526  42.112  14.094   4.048
85102W        W57527  25.095  37.625   4.287
85103W        W57528  27.410  32.453  10.572
85104W        W57529  41.880  39.914  11.272
85105W        W57530  41.216  33.986   3.859
85106W        W57531   9.612  18.702  11.126
85107W        W57532   2.983  20.710   4.119
85108W        W57533  40.378  35.561   2.578
85109W        W57534  15.740   0.288  11.608
85110W        W57535   8.871  43.324  13.459
85111W        W57536  36.004  22.687  12.065
85112W        W57537  10.400  30.163   3.187
85113W        W57538  26.172  21.125   4.078
85114W        W57539  13.916  34.519  11.336
85115W        W57540   3.752  16.175   2.726
85116W        W57541   1.885  19.236  13.084
85117W        W57542   5.717  15.136  11.606
85118W        W57543  23.461  14.769   0.754
85119W        W57544  22.290  33.669   3.718
85120W        W57545  41.736  35.548   4.769
85121W        W57546  42.012  42.735  12.472
85122W        W57547   5.208   0.998  11.576
85123W        W57548  37.155  42.897   4.168
85124W        W57549  31.112  35.341   2.695
85125W        W57550  36.022  23.117  11.346
85126W        W57551  39.344  34.543  11.682
85127W        W57552  27.076  26.933  13.738
85128W        W57553  15.155  42.454   4.695
85129W        W57554  10.934  31.629  14.356
85130W        W57555  22.057  12.563  10.787
85131W        W57556  37.969  12.277   4.797
85132W        W57557   5.766  28.198   0.805
85133W        W57558  17.904  34.855  13.494
85134W        W57559  26.440  31.415   5.084
85135W        W57560   5.895   9.488   1.360
85136W        W57561  12.795  25.145  11.195
85137W        W57562   8.409  44.737  14.311
85138W        W57563   9.227  43.364  10.415
85139W        W57564  31.354  27.157   3.660
85140W        W57565  18.627   8.583   1.772
85141W        W57566   1.799  31.293   4.563
85142W        W57567  32.074   7.448  13.890
85143W        W57568  16.666  32.496  10.665
85144W        W57569  18.515  12.726  14.992
85145W        W57570  44.170  32.624   0.908
85146W        W57571  19.754  11.197   4.892
85147W        W57572  31.884  12.281   4.485
85148W        W57573  37.389   8.259   1.716
85149W        W57574  23.240  12.196   4.120
85150W        W57575   0.299  34.528  11.357
85151W        W57576  36.335  40.053  11.916
85152W        W57577  39.986  27.205  11.978
85153W        W57578  23.585  23.194  12.485
85154W        W57579  21.537  12.845   4.342
85155W        W57580  14.144  15.373   4.196
85156W        W57581   5.644  18.204   0.379
85157W        W57582  25.274   8.370   4.775
85158W        W57583  25.145  16.917  11.169
85159W        W57584  23.982  44.862   3.334
85160W        W57585  26.106  38.383   3.081
85161W        W57586   8.290  41.952  11.446
85162W        W57587  35.452  38.505  14.957
85163W        W57588   4.646  35.579   1.817
85164W        W57589   4.945  33.494   4.167
85165W        W57590  37.554  25.194   2.267
85166W        W57591  44.421  20.318  13.863
85167W        W57592  25.061   0.521   2.174
85168W        W57593  15.172  37.178   2.894
85169W        W57594   4.663  17.721  13.480
85170W        W57595   0.753  36.088   4.759
85171W        W57596   6.286  20.445  11.972
85172W        W57597  11.599   3.570  14.003
85173W        W57598  21.263  21.549  11.983
85174W        W57599  16.827  30.308   3.359
85175W        W57600  18.247   7.675  14.724
85176W        W57601  35.491  39.157   2.980
85177W        W57602  42.189  40.373   4.248
85178W        W57603  34.891  32.087  10.519
85179W        W57604  32.061  39.121   2.300
85180W        W57605  11.686  14.490   4.138
85181W        W57606   4.003  20.803   2.167
85182W        W57607  18.018  18.250   3.813
85183W        W57608  14.830  12.308  13.501
85184W        W57609  18.733   4.961  10.249
85185W        W57610  44.737  34.407   1.233
85186W        W57611  18.128  32.090  13.987
85187W        W57612  31.882   5.883  11.629
85188W        W57613   0.252   5.140  12.506
85189W        W57614  43.354   9.297   2.827
85190W        W57615  14.727   4.151  13.201
85191W        W57616  24.650  10.830  10.408
85192W        W57617  12.409  35.092  12.615
85193W        W57618  42.947   6.867  10.455
85194W        W57619   3.556  13.828  12.898
85195W        W57620  19.265   2.195   3.309
85196W        W57621   4.695  10.931   0.234
85197W        W57622  27.835  26.878  14.378
85198W        W57623   0.872  26.434  14.518
85199W        W57624  14.267  26.168   3.173
85200W        W57625   4.457   5.052  10.710
85201W        W57626  12.272  27.545   3.951
85202W        W57627  12.647  19.340   1.292
85203W        W57628  40.065  28.927   2.157
85204W        W57629  18.493  31.007   2.387
85205W        W57630  25.041  26.391  10.736
85206W        W57631  19.126   6.436   4.911
85207W        W57632  35.357  10.288  14.342
85208W        W57633  43.734  26.576  12.444
85209W        W57634   4.962  43.378  13.861
85210W        W57635  35.575  21.776   0.966
85211W        W57636  12.647   0.205  12.787
85212W        W57637  34.870  44.469  12.489
85213W        W57638   6.618  23.643  11.357
85214W        W57639  32.366   8.081  10.634
85215W        W57640  16.622  36.133  10.595
85216W        W57641  13.622  35.125  13.797
85217W        W57642   7.247  18.626   3.700
85218W        W57643  39.379  15.309  10.689
85219W        W57644  17.494  12.538   3.852
85220W        W57645  31.943  18.965   4.166
85221W        W57646  19.232  15.671   4.216
85222W        W57647   4.260  38.537   4.530
85223W        W57648  36.967  39.838  11.667
85224W        W57649  11.292  42.826  13.157
85225W        W57650  38.442  30.880   3.483
85226W        W57651  30.500   8.332   1.727
85227W        W57652  12.657  12.688   1.259
85228W        W57653   6.574   4.884  12.506
85229W        W57654  39.378   6.978   4.251
85230W        W57655  33.112  32.893  14.236
85231W        W57656  30.491  12.608   1.794
85232W        W57657  16.854  41.899   1.885
85233W        W57658  39.438  19.394  14.337
85234W        W57659  16.629  13.570  11.269
85235W        W57660   0.220   7.730   4.641
85236W        W57661   7.477   1.910   4.606
85237W        W57662   4.481  32.232   0.940
85238W        W57663  12.944   4.916  14.292
85239W        W57664  13.607   3.495  10.614
85240W        W57665  18.278  12.523  14.054
85241W        W57666  32.283  38.342  11.562
85242W        W57667  40.075  38.458   1.781
85243W        W57668  38.466  16.340  10.706
85244W        W57669  13.258  39.515   3.089
85245W        W57670  20.313  24.646  11.062
85246W        W57671   8.748  16.349   3.171
85247W        W57672  36.099  25.625  14.996
85248W        W57673  35.070  13.103  11.486
85249W        W57674  12.092   5.493   4.146
85250W        W57675  10.592  16.766   4.050
85251W        W57676  41.788   0.801  12.981
85252W        W57677  28.180   2.229   0.533
85253W        W57678  37.066   3.907  10.604
85254W        W57679  22.520   9.711   0.391
85255W        W57680  36.487  37.791   2.789
85256W        W57681  10.622   7.437  11.035
85257W        W57682  18.047  23.862  11.453
85258W        W57683  26.195  36.847  13.490
85259W        W57684  15.344  25.464  14.029
85260W        W57685   2.001   4.036  14.264
85261W        W57686   7.160  29.062  13.831
85262W        W57687  27.097  20.678   0.479
85263W        W57688  41.796  17.323   4.108
85264W        W57689  13.746  32.092  11.485
85265W        W57690  26.954   8.276   3.362
85266W        W57691  38.913  20.731   3.259
85267W        W57692  28.554  32.813   1.247
85268W        W57693  34.744  34.825  13.453
85269W        W57694  29.654  30.879  10.172
85270W        W57695  40.106   4.895  12.984
85271W        W57696  22.259   7.163  12.818
85272W        W57697  39.722  32.594  11.121
85273W        W57698  32.518   6.135  13.943
85274W        W57699  24.188   1.641  10.811
85275W        W57700   0.470  35.730  11.163
85276W        W57701   5.031   6.206   3.802
85277W        W57702  30.396  12.354   0.504
85278W        W57703  18.628  40.771  10.731
85279W        W57704   5.659  43.425   3.698
85280W        W57705   2.388  31.597  13.436
85281W        W57706  26.640  37.952   4.199
85282W        W57707  29.631   6.069   1.722
85283W        W57708  24.674  36.951  13.474
85284W        W57709  34.444  24.857  10.390
85285W        W57710  21.108  14.859   2.724
85286W        W57711  25.916  10.544  12.690
85287W        W57712  20.817  21.516  12.254
85288W        W57713  18.669  33.511  10.030
85289W        W57714  20.113   9.428  10.949
85290W        W57715  42.323  10.207  10.968
85291W        W57716  41.289   0.488   1.913
85292W        W57717  17.252  33.508  13.577
85293W        W57718  19.084  28.440   3.176
85294W        W57719  32.915  17.645   3.852
85295W        W57720  22.935  23.435   1.329
85296W        W57721  30.451   8.097   2.716
85297W        W57722  25.222  43.088  12.601
85298W        W57723  11.685   8.095  14.293
85299W        W57724   5.805  22.309   2.350
85300W        W57725  19.176   0.686   4.971
85301W        W57726   7.714  16.734  13.478
85302W        W57727  29.947  40.886  13.672
85303W        W57728  12.006  28.470   0.225
85304W        W57729  10.916  38.462   4.706
85305W        W57730  29.865  27.079  11.229
85306W        W57731  34.529  10.622  13.517
85307W        W57732  18.604  30.185   5.366
85308W        W57733  37.467  22.867  13.138
85309W        W57734  23.836  28.303   1.308
85310W        W57735  28.224  34.427  14.475
85311W        W57736  34.329  21.014  14.662
85312W        W57737  29.428  27.601  10.638
85313W        W57738  29.826  37.020  11.820
85314W        W57739  35.160  15.008   0.751
85315W        W57740  15.868  15.722  11.001
85316W        W57741  16.557  24.190  12.367
85317W        W57742   9.210  24.912  11.513
85318W        W57743  25.729   0.886  13.906
85319W        W57744   0.533  28.087  11.567
85320W        W57745  40.096  16.516   3.246
85321W        W57746  37.406  14.623   1.141
85322W        W57747  28.414  17.336   1.913
85323W        W57748  35.567  44.434  12.017
85324W        W57749   4.791  44.423  14.288
85325W        W57750  14.298  27.119   2.763
85326W        W57751  15.073  15.951  12.118
85327W        W57752   6.193  13.854  14.296
85328W        W57753  21.995  14.735   2.480
85329W        W57754  14.100   4.432   3.583
85330W        W57755  39.562  13.585  11.522
85331W        W57756  24.299  36.087   4.035
85332W        W57757  40.580  34.076  13.126
85333W        W57758  27.044  42.290   3.678
85334W        W57759  32.816  28.738  11.547
85335W        W57760  12.435  14.724   2.450
85336W        W57761   7.547   6.914  11.934
85337W        W57762  22.269   7.490  11.558
85338W        W57763   5.956  35.507   0.730
85339W        W57764  30.929   5.734  11.374
85340W        W57765  21.682   8.601  14.834
85341W        W57766   2.475  42.495   3.820
85342W        W57767  15.810   8.327   0.089
85343W        W57768  10.132   7.158  10.250
85344W        W57769  24.068   2.234   0.032
85345W        W57770  33.542  19.467   1.286
85346W        W57771   8.153   5.279   3.348
85347W        W57772  23.006  36.849  13.366
85348W        W57773  43.440  41.570   3.749
85349W        W57774  12.206  13.108   3.373
85350W        W57775  33.426  30.460   2.150
85351W        W57776  32.844  27.974  12.510
85352W        W57777   4.927  23.608  10.667
85353W        W57778   5.184  10.150   1.295
85354W        W57779  20.301  42.846  12.865
85355W        W57780  44.258  18.570   1.899
85356W        W57781   0.953  20.174  12.986
85357W        W57782  10.806   8.172  13.388
85358W        W57783  23.009   3.451   2.790
85359W        W57784   6.770  36.036  12.871
85360W        W57785  31.519   5.817  12.092
85361W        W57786  29.863  24.680   3.781
85362W        W57787   0.263   5.148  11.087
85363W        W57788   6.412  39.126  13.259
85364W        W57789  14.024  16.335  12.743
85365W        W57790  39.056   3.605   1.351
85366W        W57791  41.794  44.386  11.187
85367W        W57792  10.599  23.090  10.608
85368W        W57793   6.342  21.672  14.402
85369W        W57794  42.210  11.065  13.007
85370W        W57795  20.602   9.283  11.102
85371W        W57796   3.432  32.599  12.559
85372W        W57797   5.851  37.936  13.339
85373W        W57798  37.626  19.086   1.877
85374W        W57799  28.692  29.057   0.947
85375W        W57800  27.435  26.741  10.883
85376W        W57801  23.078   3.257  10.944
85377W        W57802  20.379  33.916  13.872
85378W        W57803  34.088  36.450   1.662
85379W        W57804   2.300   5.470   0.677
85380W        W57805   1.965   6.481   3.599
85381W        W57806  41.326  30.660  13.952
85382W        W57807   1.800   4.823   1.734
85383W        W57808   0.943  22.497   1.892
85384W        W57809  37.598   2.267  10.683
85385W        W57810  42.990  44.769  12.985
85386W        W57811  39.356  40.740   0.772
85387W        W57812  31.853  33.602  12.842
85388W        W57813  38.854  20.207   3.192
85389W        W57814  19.611   8.705  12.437
85390W        W57815  33.522   7.449  12.000
85391W        W57816   9.794  39.866  14.852
85392W        W57817  44.247  44.261  12.643
85393W        W57818   9.003  42.915  12.609
85394W        W57819  26.428  24.104  11.995
85395W        W57820  33.121  12.908   0.494
85396W        W57821   0.854  43.002  10.757
85397W        W57822  20.858   5.867  14.327
85398W        W57823  44.281  32.080   0.918
85399W        W57824  28.305  41.655  13.329
85400W        W57825  33.179  22.133  12.646
85401W        W57826  39.394   1.056  14.481
85402W        W57827  21.073  18.707  11.679
85403W        W57828  18.644  37.010  14.339
85404W        W57829  15.788  32.065  14.476
85405W        W57830  27.729  14.822  12.105
85406W        W57831  17.707  37.869   0.295
85407W        W57832  43.386  28.632   3.267
85408W        W57833  36.888  33.824   3.716
85409W        W57834  40.623  43.106   0.046
85410W        W57835  28.086  37.250  10.291
85411W        W57836  33.916  40.272   1.638
85412W        W57837  31.658  28.279  10.500
85413W        W57838  39.879  25.255   2.829
85414W        W57839   9.358  24.710  11.985
85415W        W57840  32.731  37.855   2.527
85416W        W57841  12.843  19.625  13.283
85417W        W57842  22.653  10.242  13.490
85418W        W57843  15.259  35.036  14.368
85419W        W57844  39.033  16.022   4.586
85420W        W57845  42.062  11.200   4.524
85421W        W57846  41.928   0.040   9.915
85422W        W57847  43.346   2.792   0.388
85423W        W57848   2.900  12.872   3.863
85424W        W57849  24.321   8.330   2.762
85425W        W57850  37.900   1.330   2.286
85426W        W57851  13.506  19.570   3.663
85427W        W57852  37.147  10.749   2.248
85428W        W57853  16.753  21.996   1.434
85429W        W57854  25.170  18.346  13.102
85430W        W57855  13.520  13.195   1.230
85431W        W57856  32.496  44.323   1.022
85432W        W57857  16.445  38.865   2.313
85433W        W57858  25.637   0.279  14.436
85434W        W57859  15.983  31.404  12.403
85435W        W57860  16.381   9.490  14.939
85436W        W57861  29.053  15.155   4.913
85437W        W57862  17.523  43.469   0.747
85438W        W57863   0.736  34.415  12.546
85439W        W57864  24.975  18.784  10.442
85440W        W57865  42.284  24.070   0.294
85441W        W57866  23.519  36.244  13.683
85442W        W57867  38.088  19.586   3.271
85443W        W57868  44.341   4.166  12.105
85444W        W57869   2.273  12.614  11.110
85445W        W57870  19.609  34.862  10.716
85446W        W57871   3.115  16.526  12.408
85447W        W57872  28.999  18.622  12.545
85448W        W57873   4.324  36.454   4.333
85449W        W57874  24.761  29.350  14.995
85450W        W57875  43.814  10.395   4.185
85451W        W57876  33.643  25.477   2.799
85452W        W57877  29.597  36.913   3.162
85453W        W57878  15.604  29.109  11.203
85454W        W57879  29.961  27.925   3.008
85455W        W57880  40.379  29.628   4.631
85456W        W57881   0.217  20.159  10.736
85457W        W57882  39.744  31.162  11.460
85458W        W57883   2.525  23.662  10.298
85459W        W57884  40.884   2.095   4.965
85460W        W57885   9.507  32.556  13.172
85461W        W57886  40.327  20.215  10.753
85462W        W57887  44.198   4.723   1.725
85463W        W57888  17.649  32.275   9.669
85464W        W57889  39.467   8.776  13.340
85465W        W57890  20.264  39.161   2.361
85466W        W57891   4.139  11.679   1.175
85467W        W57892  10.341  40.903  14.520
85468W        W57893   7.189  12.170  14.791
85469W        W57894  35.968   4.780   1.749
85470W        W57895  22.120   8.639   2.302
85471W        W57896  15.663  44.774  11.639
85472W        W57897   6.206  23.924  11.196
85473W        W57898  38.250   9.356   1.478
85474W        W57899  14.811   2.324   4.213
85475W        W57900   0.206  37.059   2.195
85476W        W57901   5.446  14.038   4.133
85477W        W57902  41.760   0.288   2.039
85478W        W57903  19.158   7.764   4.099
85479W        W57904  14.085   2.471  12.913
85480W        W57905  34.537   5.826   2.673
85481W        W57906  16.607  20.715  12.111
85482W        W57907  13.982  33.842   1.204
85483W        W57908  22.747   0.572  12.028
85484W        W57909  19.174  28.456  12.355
85485W        W57910  34.185  17.649   0.432
85486W        W57911  39.318  36.866   3.589
85487W        W57912  12.622  43.345  14.725
85488W        W57913  35.945  12.851  13.292
85489W        W57914  20.589  25.858   4.127
85490W        W57915  44.503  20.224  11.552
85491W        W57916   0.850  12.352   3.733
85492W        W57917   3.593  23.369  14.351
85493W        W57918  42.066   1.690   1.215
85494W        W57919   3.537  19.642  13.046
85495W        W57920   4.224  18.134   4.492
85496W        W57921  25.158  29.439   1.415
85497W        W57922  16.270  12.627   1.619
85498W        W57923   8.936  21.029  14.358
85499W        W57924  36.132  22.051   4.665
85500W        W57925  20.413  12.780  14.230
85501W        W57926  30.327  20.883   0.752
85502W        W57927  12.376  33.834  11.948
85503W        W57928  15.063  24.723   3.244
85504W        W57929  41.493  31.884   1.483
85505W        W57930  22.329  43.573   4.138
85506W        W57931  25.035  16.286   2.858
85507W        W57932  17.812   7.200  11.609
85508W        W57933   2.294  41.159   0.844
85509W        W57934  17.116  25.977  12.563
85510W        W57935  30.499  12.662   0.924
85511W        W57936  22.890  19.517   2.869
85512W        W57937  27.594  16.841  12.372
85513W        W57938   3.873  12.400  13.284
85514W        W57939   2.345  11.443   3.117
85515W        W57940   0.040   2.480   1.200
85516W        W57941  34.889  18.248   0.464
85517W        W57942  28.093  39.302   2.232
85518W        W57943  41.701  19.674  10.561
85519W        W57944  41.965  44.562   4.070
85520W        W57945  35.003  12.858   0.579
85521W        W57946   1.398   4.949   4.399
85522W        W57947   8.292  39.320   4.677
85523W        W57948  25.886  26.512  14.639
85524W        W57949   2.301  14.591   2.562
85525W        W57950  15.649  24.582  14.186
85526W        W57951   2.850  25.443  11.621
85527W        W57952  24.760  30.420   2.941
85528W        W57953  36.921  26.442   2.531
85529W        W57954  26.211  32.928  11.903
85530W        W57955  13.379  28.207   2.720
85531W        W57956   4.903   1.171   3.124
85532W        W57957  13.634   2.070   3.211
85533W        W57958  23.646  44.295   0.753
85534W        W57959  14.274  17.821  13.036
85535W        W57960   9.653  19.433   1.922
85536W        W57961  14.344  10.153   0.097
85537W        W57962  31.136   7.613  13.669
85538W        W57963  17.183  31.412  10.854
85539W        W57964  25.536  23.575   9.862
85540W        W57965  24.048   4.623   0.868
85541W        W57966   7.859  13.858   3.434
85542W        W57967   3.833   5.480   0.895
85543W        W57968  31.879  13.792   3.137
85544W        W57969  39.396   1.714   0.556
85545W        W57970  35.994  34.908  12.505
85546W        W57971   0.340  31.593   1.956
85547W        W57972  37.056  24.459   3.660
85548W        W57973  35.875  11.593  11.524
85549W        W57974  19.135  26.553   3.352
85550W        W57975  17.435  29.185  11.856
85551W        W57976  12.779  20.076   0.859
85552W        W57977  15.938  41.250  10.101
85553W        W57978  40.441  26.226   2.626
85554W        W57979  26.441  22.954   0.965
85555W        W57980  29.701   7.942  14.479
85556W        W57981  24.912  32.033   4.305
85557W        W57982  31.188  23.830   0.506
85558W        W57983   5.194  28.832   1.808
85559W        W57984  31.921  10.840   0.998
85560W        W57985  44.706  36.887   0.485
85561W        W57986  30.732  40.597  12.942
85562W        W57987  13.821  20.184   2.365
85563W        W57988  25.143  42.111   4.461
85564W        W57989  21.954  27.612   1.843
85565W        W57990  40.521  24.840  11.088
85566W        W57991  32.149  13.808   3.563
85567W        W57992  13.344  21.151  12.312
85568W        W57993  13.829   4.086  13.655
85569W        W57994   5.261  13.310   0.850
85570W        W57995  15.584   3.883   2.362
85571W        W57996  24.047  16.647   0.724
85572W        W57997  18.619  35.619  11.215
85573W        W57998  37.080  36.075  11.400
85574W        W57999   4.936  34.490   0.217
85575W        W58000  26.021   1.215  11.056
85576W        W58001  18.594  21.259   3.221
85577W        W58002  18.631  20.561   2.627
85578W        W58003  35.316  22.044  11.141
85579W        W58004  11.344  22.608  13.155
85580W        W58005  22.029  26.415   1.109
85581W        W58006  29.843  24.566  12.820
85582W        W58007  32.136  38.492  11.045
85583W        W58008  34.280  38.338   2.703
85584W        W58009  35.807  22.117   4.252
85585W        W58010  11.526  24.800  14.404
85586W        W58011  12.330  30.708  11.997
85587W        W58012  22.628  32.119   2.236
85588W        W58013   5.479  44.816  14.465
85589W        W58014  31.056  15.245  11.463
85590W        W58015  35.062  31.646  11.428
85591W        W58016  30.167  37.699   2.377
85592W        W58017  29.013  39.560  11.897
85593W        W58018  31.133  38.993  12.393
85594W        W58019   1.814  42.484   3.621
85595W        W58020  41.400  22.022  12.586
85596W        W58021  26.614  36.986   1.634
85597W        W58022  41.215   0.913   0.004
85598W        W58023   0.894  10.424  11.072
85599W        W58024  22.000  11.866   1.311
85600W        W58025  22.852  29.108   1.192
85601W        W58026  13.105  32.421   3.194
85602W        W58027  19.211  29.850   3.736
85603W        W58028  13.089  19.403  11.222
85604W        W58029  10.202   7.478   2.752
85605W        W58030   2.697  40.423   1.738
85606W        W58031  24.586  15.027   2.795
85607W        W58032  36.428  17.192   4.377
85608W        W58033  40.484  32.164  14.046
85609W        W58034  10.156  32.114  11.010
85610W        W58035  43.049  13.287  13.891
85611W        W58036  35.066  23.999   1.940
85612W        W58037   1.524  42.727   4.078
85613W        W58038  14.496  24.971  12.931
85614W        W58039   5.886  35.492  14.781
85615W        W58040   7.943  15.220   0.825
85616W        W58041   8.511  16.861   0.396
85617W        W58042  11.801  20.783  14.066
85618W        W58043  43.458  36.348  12.550
85619W        W58044   0.014  21.572  10.775
85620W        W58045   7.922  27.394   2.346
85621W        W58046  40.131  38.530   1.276
85622W        W58047  31.449  15.035   1.158
85623W        W58048  35.778   4.774  11.095
85624W        W58049   8.011  25.694  13.510
85625W        W58050  29.602  30.377  10.295
85626W        W58051   0.427  12.431  11.209
85627W        W58052   6.668  11.584  13.951
85628W        W58053  21.602  38.613  12.102
85629W        W58054   7.737  16.326  13.157
85630W        W58055  12.296  18.226  10.716
85631W        W58056  16.599  26.539  14.326
85632W        W58057  37.186  22.913   3.625
85633W        W58058  15.114  11.989   3.556
85634W        W58059  33.231  32.982  14.754
85635W        W58060  20.781  21.444  14.725
85636W        W58061  19.748  27.903  11.129
85637W        W58062   8.011  24.552   2.640
85638W        W58063   1.880   7.219   1.165
85639W        W58064  39.068  44.171   1.432
85640W        W58065  24.505  19.608   2.827
85641W        W58066  23.800  36.368   0.741
85642W        W58067  44.987  41.439   1.804
85643W        W58068  44.922  15.603  13.519
85644W        W58069   1.147   5.634  14.506
85645W        W58070  41.994   9.864   3.097
85646W        W58071   2.325   1.030   4.161
85647W        W58072  35.273   5.151  14.718
85648W        W58073   5.250  39.065   0.771
85649W        W58074   8.225   3.619  13.539
85650W        W58075  36.962   4.328  10.881
85651W        W58076  13.683  39.994  14.992
85652W        W58077  23.247  10.702  12.870
85653W        W58078  23.714  26.204  12.017
85654W        W58079   0.487  20.703   4.897
85655W        W58080  41.057   0.858  11.362
85656W        W58081  10.719  21.652   1.458
85657W        W58082   3.437  38.004   3.097
85658W        W58083  18.796  23.122   0.399
85659W        W58084  31.875  24.484   1.847
85660W        W58085  12.892   6.284  12.648
85661W        W58086  27.898   9.746   2.710
85662W        W58087  41.977  19.238   2.268
85663W        W58088  15.696  23.802  10.364
85664W        W58089   8.094  37.039   1.004
85665W        W58090  27.477  38.553   4.987
85666W        W58091  24.387  35.940  12.392
85667W        W58092  39.989  25.734   1.997
85668W        W58093  28.998  44.975   4.551
85669W        W58094  22.570   2.901   4.555
85670W        W58095  14.743   9.440   4.417
85671W        W58096   2.273  40.221   4.397
85672W        W58097  26.969  21.093  12.375
85673W        W58098   8.169  41.802   3.863
85674W        W58099   8.589   3.272  12.311
85675W        W58100  13.178  23.476   0.127
85676W        W58101  26.238  11.763   0.296
85677W        W58102  37.442  21.690   3.868
85678W        W58103  30.328  38.748   1.860
85679W        W58104  12.608  44.076  11.600
85680W        W58105  12.226  38.771  11.942
85681W        W58106  10.336  22.095   4.576
85682W        W58107   9.338  11.581   4.185
85683W        W58108   8.308  24.128   2.838
85684W        W58109   4.106  34.926  14.993
85685W        W58110   1.618  34.871   4.659
85686W        W58111   3.802  28.476  11.181
85687W        W58112   1.483  21.532   1.881
85688W        W58113  16.827  17.727  11.529
85689W        W58114  36.015  12.781  12.450
85690W        W58115  41.479  24.657   3.392
85691W        W58116   4.376  38.627  10.127
85692W        W58117  35.964  37.272  11.186
85693W        W58118  17.334  25.048  11.105
85694W        W58119  21.555   5.935  14.949
85695W        W58120  26.445  28.903  11.985
85696W        W58121  27.550  38.492  10.495
85697W        W58122  23.371   7.732  11.449
85698W        W58123  19.532  18.828  13.505
85699W        W58124  33.908  34.551   3.115
85700W        W58125  34.081  11.321   1.661
85701W        W58126  11.921  42.237   0.814
85702W        W58127  42.106  27.889   3.255
85703W        W58128  28.851   2.142  14.375
85704W        W58129  11.908   3.636   0.535
85705W        W58130  11.583  10.040   2.488
85706W        W58131  44.543   6.489  13.925
85707W        W58132  21.094  24.713   1.898
85708W        W58133  19.211  17.618   1.545
85709W        W58134   7.147  23.661  13.013
85710W        W58135  21.269  15.304  11.548
85711W        W58136   0.436  27.258  13.629
85712W        W58137  44.367  22.719  11.149
85713W        W58138  23.198  19.605   3.286
85714W        W58139  11.354  12.137  14.541
85715W        W58140  33.986   9.245   2.396
85716W        W58141   2.306  30.558   4.792
85717W        W58142   2.446  16.455   3.786
85718W        W58143  11.288  40.349   2.466
85719W        W58144  26.303   8.830   3.319
85720W        W58145  27.739  38.324  11.431
85721W        W58146  11.595  29.444  10.633
85722W        W58147   9.402  25.716  11.916
85723W        W58148  36.836   3.417  13.459
85724W        W58149   2.202  10.232   3.885
85725W        W58150  13.477  42.063  10.842
85726W        W58151  41.891  27.213  12.517
85727W        W58152  29.869  21.614   4.045
85728W        W58153  16.326  39.175  12.639
85729W        W58154  31.411  18.174   0.421
85730W        W58155  40.466  38.630   0.726
85731W        W58156  26.659  10.634  13.312
85732W        W58157   4.652  38.991  13.942
85733W        W58158  29.620  36.582  13.572
85734W        W58159   6.169  33.142  11.898
85735W        W58160  34.554  15.972  11.365
85736W        W58161  31.518  42.301  14.724
85737W        W58162  29.121  33.836  13.841
85738W        W58163  38.987   3.713  13.102
85739W        W58164  39.414  31.196   2.066
85740W        W58165  37.694  13.380   1.292
85741W        W58166   3.736   1.478  12.595
85742W        W58167  44.736  26.002  11.514
85743W        W58168  37.111  31.973   3.472
85744W        W58169  11.246   5.773   3.041
85745W        W58170  19.201  16.197  11.828
85746W        W58171  12.586  35.587  12.526
85747W        W58172  38.881  26.514  13.308
85748W        W58173  10.878   5.980  13.859
85749W        W58174  10.143  31.027  14.401
85750W        W58175  23.684   0.823  13.853
85751W        W58176  28.349   5.048   3.748
85752W        W58177  33.783  30.967  11.171
85753W        W58178   7.804  31.129  11.316
85754W        W58179  35.566  23.020   1.984
85755W        W58180  17.160   1.456  13.480
85756W        W58181  26.420   7.183   2.946
85757W        W58182  25.509  39.585  12.975
85758W        W58183  25.819  39.467  14.286
85759W        W58184   3.428  41.437  10.236
85760W        W58185  12.761   1.954  11.538
85761W        W58186  42.858  26.904  11.630
85762W        W58187   6.457  34.559   1.502
85763W        W58188  37.495  36.629   5.079
85764W        W58189  39.807   6.151  14.064
85765W        W58190  35.584  44.445  10.738
85766W        W58191  23.751   8.497   0.189
85767W        W58192  16.939   8.375   1.380
85768W        W58193  34.376  24.111  14.883
85769W        W58194  13.481  12.715   2.317
85770W        W58195  41.389  33.391  11.153
85771W        W58196  36.481  15.728   4.940
85772W        W58197  44.774  22.581  14.502
85773W        W58198   8.495  39.050  14.854
85774W        W58199  39.235   5.782  14.883
85775W        W58200  34.442   0.335   3.112
85776W        W58201  39.768  35.413  11.998
85777W        W58202  24.743  31.761   2.818
85778W        W58203  41.536  29.034   0.703
85779W        W58204  33.806   9.215   4.027
85780W        W58205  10.422  28.748  12.568
85781W        W58206  17.621   5.608   0.579
85782W        W58207  23.916  26.232   5.031
85783W        W58208   1.244   0.069  14.314
85784W        W58209  13.784   1.690   2.876
85785W        W58210   4.641   0.622  13.006
85786W        W58211  24.513  11.861   2.666
85787W        W58212   0.032  43.109  12.481
85788W        W58213  28.761  36.017   3.787
85789W        W58214  35.868  36.258  14.659
85790W        W58215  18.119   9.183   0.744
85791W        W58216  11.848  37.508   0.856
85792W        W58217   1.477   5.103  10.768
85793W        W58218  41.791  41.068  14.165
85794W        W58219  29.543  41.720   2.968
85795W        W58220  18.254  15.501   2.310
85796W        W58221   0.866  30.963   2.702
85797W        W58222   9.335  33.130  14.495
85798W        W58223  14.150   2.510   4.667
85799W        W58224  20.717   5.906   2.026
85800W        W58225  16.852  13.927   3.778
85801W        W58226  32.549  22.980   4.814
85802W        W58227  15.795  24.096   0.260
85803W        W58228   3.277  19.045   4.566
85804W        W58229  43.069   6.857   2.269
85805W        W58230  33.117  19.026   2.406
85806W        W58231  14.961   0.342   5.029
85807W        W58232   1.438  27.295  10.629
85808W        W58233  22.456  36.802  12.619
85809W        W58234   1.840  10.423  14.304
85810W        W58235  14.194   1.850   0.022
85811W        W58236  13.462  33.021   1.103
85812W        W58237  44.333  30.158  12.546
85813W        W58238  22.969  29.531  10.634
85814W        W58239  30.160  26.985  11.642
85815W        W58240   7.951   1.899  11.920
85816W        W58241  18.250   8.832   1.511
85817W        W58242  16.729  28.027   0.393
85818W        W58243  22.918   1.164   3.307
85819W        W58244  44.494  41.385  14.411
85820W        W58245  24.650  31.931   4.774
85821W        W58246  20.840   3.765  10.392
85822W        W58247   9.678  24.208  12.429
85823W        W58248  16.361   9.095   1.452
85824W        W58249   2.305  10.463   2.355
85825W        W58250   9.187  13.405  11.081
85826W        W58251  37.676  30.288  12.003
85827W        W58252   8.181   6.379   4.068
85828W        W58253  23.663   0.271   0.494
85829W        W58254  41.061  43.923  14.033
85830W        W58255   4.351  43.508   2.281
85831W        W58256  38.864  43.646   2.728
85832W        W58257  11.415  29.304  13.045
85833W        W58258   2.657   1.276   3.413
85834W        W58259  29.962  24.457  11.459
85835W        W58260  38.554   1.537  10.689
85836W        W58261  19.318   6.094   3.244
85837W        W58262   3.788  35.320   2.688
85838W        W58263  28.978  18.350  14.358
85839W        W58264  44.722   6.813  14.789
85840W        W58265   9.528  23.255  10.773
85841W        W58266  19.852  15.115  14.313
85842W        W58267   9.052  15.695  11.941
85843W        W58268  29.599  32.595   3.389
85844W        W58269  37.038  16.724   4.867
85845W        W58270  27.094  35.103   0.001
85846W        W58271   0.262  43.491   1.447
85847W        W58272  33.976  37.799   3.233
85848W        W58273  22.892  12.553   0.579
85849W        W58274  11.244  41.513   4.397
85850W        W58275  26.920  34.512   3.804
85851W        W58276  34.052   4.537  13.516
85852W        W58277  13.348   1.059   2.282
85853W        W58278  34.036  33.570   1.381
85854W        W58279  27.539  13.235   0.492
85855W        W58280  23.274  24.421   2.743
85856W        W58281  19.175  27.234   0.960
85857W        W58282  28.168  16.561  13.767
85858W        W58283  42.379  28.228   0.335
85859W        W58284  23.528  21.312   3.913
85860W        W58285  17.656  31.477  11.076
85861W        W58286  18.065  36.613   2.236
85862W        W58287  35.831  26.236  10.803
85863W        W58288   3.683  42.851  12.091
85864W        W58289  22.273  24.826  14.052
85865W        W58290   1.221  40.018   3.674
85866W        W58291  31.363  12.220   3.380
85867W        W58292  40.367   0.731  11.926
85868W        W58293   0.142  27.667   4.617
85869W        W58294  37.807  40.282  11.841
85870W        W58295   4.152  37.426   0.482
85871W        W58296  17.544   3.513   3.740
85872W        W58297   9.168  25.650   2.258
85873W        W58298  10.154   5.388   4.943
85874W        W58299  42.389  17.958   1.731
85875W        W58300  39.389  10.196  12.142
85876W        W58301  44.481   4.784  10.725
85877W        W58302  35.385  27.439  14.886
85878W        W58303   2.419  40.122   2.117
85879W        W58304  36.105  43.312  11.988
85880W        W58305  22.903  21.819   4.226
85881W        W58306  43.522  42.339  14.219
85882W        W58307  19.700  36.104  13.041
85883W        W58308  24.117  21.042   1.651
85884W        W58309  36.116   2.100  14.422
85885W        W58310   1.972  40.503   4.710
85886W        W58311  14.414   3.004  11.423
85887W        W58312   5.073  26.771   1.302
85888W        W58313  14.725  44.433  11.153
85889W        W58314   3.283   2.711  13.225
85890W        W58315   1.798  34.503  12.487
85891W        W58316  11.911  36.939  14.371
85892W        W58317  20.155  12.233   4.158
85893W        W58318   6.280  13.638  13.480
85894W        W58319   1.952  33.353   4.846
85895W        W58320  17.188   3.286  10.922
85896W        W58321  38.374  16.308  11.934
85897W        W58322  14.355   7.689   2.423
85898W        W58323  16.900   9.598   2.714
85899W        W58324   8.987  33.396  14.801
85900W        W58325  24.667  27.208   1.776
85901W        W58326  16.009  26.143   3.350
85902W        W58327  35.363  27.050  11.266
85903W        W58328  28.638  29.391  10.670
85904W        W58329   4.904  21.163  10.779
85905W        W58330  31.930  17.629  12.898
85906W        W58331  30.017  27.045   0.519
85907W        W58332   9.617  43.349   0.142
85908W        W58333   3.856  19.980   4.157
85909W        W58334  29.518  41.445  11.970
85910W        W58335  17.830  14.808   1.937
85911W        W58336  22.960  11.087  13.461
85912W        W58337  23.542  27.197   3.154
85913W        W58338  11.137   3.050   3.633
85914W        W58339   6.573  12.866  11.182
85915W        W58340  39.808  33.063  13.599
85916W        W58341  33.035  35.152  12.228
85917W        W58342  34.475  32.755  13.746
85918W        W58343  38.332  22.077   4.243
85919W        W58344  25.161   4.415  13.939
85920W        W58345  39.983  33.662  13.938
85921W        W58346   9.717  38.586  12.877
85922W        W58347  28.666   9.349  11.396
85923W        W58348  15.720  36.030  10.639
85924W        W58349  40.763  43.780  11.856
85925W        W58350   5.660  36.893   1.800
85926W        W58351  14.716  27.251   0.820
85927W        W58352  15.547  34.994  11.653
85928W        W58353  27.000  22.441   0.292
85929W        W58354  17.577  20.539   1.807
85930W        W58355  39.810  23.127  13.327
85931W        W58356  24.441  44.460   2.729
85932W        W58357  39.868  36.944  13.898
85933W        W58358  27.036  17.482  14.390
85934W        W58359  37.506  39.290  14.912
85935W        W58360  37.700  37.397   2.788
85936W        W58361  38.970   4.605  12.011
85937W        W58362  29.045  32.998   4.603
85938W        W58363  11.915  34.435   4.706
85939W        W58364   5.462  30.056   1.288
85940W        W58365   9.806  42.903   5.072
85941W        W58366  18.427  36.361  12.681
85942W        W58367  18.120  32.495  10.529
85943W        W58368  33.753  31.871   3.648
85944W        W58369  30.320   9.053  10.483
85945W        W58370  42.022  12.697  11.606
85946W        W58371  13.235  15.826  11.355
85947W        W58372  39.711   3.169  12.623
85948W        W58373  31.288  24.311   0.708
85949W        W58374   0.685  14.173  12.894
85950W        W58375   8.705   3.833   1.826
85951W        W58376   0.263  36.213  13.692
85952W        W58377  44.045  38.783  12.092
85953W        W58378   1.680  23.227   0.360
85954W        W58379   5.119  39.123  14.450
85955W        W58380  39.135  34.984  11.542
85956W        W58381  22.515  43.344  14.243
85957W        W58382  13.648  40.533  14.921
85958W        W58383  10.392   7.648  11.781
85959W        W58384  42.148  36.521  12.333
85960W        W58385  37.834   2.462   0.868
85961W        W58386  11.635  15.233   4.849
85962W        W58387  16.153  16.563   2.289
85963W        W58388   0.293   2.362   1.841
85964W        W58389  35.035  18.550   3.042
85965W        W58390  16.802  23.819  12.613
85966W        W58391   8.624  21.953  14.450
85967W        W58392  34.921  10.774   0.491
85968W        W58393  25.167   8.469   0.906
85969W        W58394  22.689   7.699   5.081
85970W        W58395   9.411   5.646  12.009
85971W        W58396  40.447  24.669  14.074
85972W        W58397   7.349  23.169   0.380
85973W        W58398  23.061  34.914   1.313
85974W        W58399   5.760  14.758   1.779
85975W        W58400   6.059  14.721   2.189
85976W        W58401   3.806  21.744  10.677
85977W        W58402   8.836  13.867  14.007
85978W        W58403  25.713   3.554   4.076
85979W        W58404  40.887  40.867  13.727
85980W        W58405   5.685   9.392  13.019
85981W        W58406  38.301  25.370  10.622
85982W        W58407  32.977   7.697  12.549
85983W        W58408  17.535  20.134  12.612
85984W        W58409   6.274  20.685   2.193
85985W        W58410  17.514  33.125  14.769
85986W        W58411  21.609  38.505   2.041
85987W        W58412  14.072  30.730  11.542
85988W        W58413  18.105  17.997  12.603
85989W        W58414  13.789  34.291   4.677
85990W        W58415  18.554  26.483  13.864
85991W        W58416  21.156   2.551   4.349
85992W        W58417  27.220  21.494   2.328
85993W        W58418  26.094  28.289   2.764
85994W        W58419   4.295  13.098   3.130
85995W        W58420  30.132   8.709  14.768
85996W        W58421  36.037  20.036  13.357
85997W        W58422  41.421  42.427  13.634
85998W        W58423  17.055   3.716  13.902
85999W        W58424  25.592  42.005   2.752
86000W        W58425  37.689   5.024  10.044
86001W        W58426   7.393  13.569  14.866
86002W        W58427  31.533  40.118   3.074
86003W        W58428  34.261  44.847  14.548
86004W        W58429   3.088  40.833   4.952
86005W        W58430  35.088  10.352  11.139
86006W        W58431  36.578  28.403  10.460
86007W        W58432  22.214  25.182  11.813
86008W        W58433  42.807  10.226   0.309
86009W        W58434  28.310   7.741   2.857
86010W        W58435  35.402   0.475   4.770
86011W        W58436  43.311  43.236  13.926
86012W        W58437  37.258  19.248  12.491
86013W        W58438  16.307  13.422  12.957
86014W        W58439  19.950   2.239   0.767
86015W        W58440   9.647  25.932   4.483
86016W        W58441   6.641  21.233  13.880
86017W        W58442  22.132  18.103  10.659
86018W        W58443  38.415  24.683   3.663
86019W        W58444  26.415   4.676   2.422
86020W        W58445  18.918  40.719   5.231
86021W        W58446   8.297  23.086   0.562
86022W        W58447   7.198  43.475   3.652
86023W        W58448  41.941  13.135  12.612
86024W        W58449  23.861  39.308  12.549
86025W        W58450  18.887  37.625  14.310
86026W        W58451  28.564   9.845   3.277
86027W        W58452  19.867  24.130   4.631
86028W        W58453  41.892  37.280   1.280
86029W        W58454  39.833  18.255   0.417
86030W        W58455  23.632   2.463  14.887
86031W        W58456  27.695  16.768   0.033
86032W        W58457   4.624  44.675   2.082
86033W        W58458   7.654  14.150  13.310
86034W        W58459   4.861  16.623  10.699
86035W        W58460   2.546  30.298  12.841
86036W        W58461  36.876  25.597  14.417
86037W        W58462   7.663  44.362  14.005
86038W        W58463   1.458  40.458   4.688
86039W        W58464  18.343  35.963   4.639
86040W        W58465  39.063  25.541  11.668
86041W        W58466  39.042   6.734  13.994
86042W        W58467  17.543   0.719   3.071
86043W        W58468  37.242  42.198   2.825
86044W        W58469  31.367  28.970   0.037
86045W        W58470  14.613  18.765   2.926
86046W        W58471  23.101   0.195   3.386
86047W        W58472  36.454  19.172   3.734
86048W        W58473  20.103  32.356  13.837
86049W        W58474  18.051   7.874  12.489
86050W        W58475  11.245  37.416  11.658
86051W        W58476  39.935  26.939   3.645
86052W        W58477  36.829  33.553  11.113
86053W        W58478  25.211   8.351  10.450
86054W        W58479  23.960   7.555  12.016
86055W        W58480  18.003  18.268   0.308
86056W        W58481  42.786  20.115   4.575
86057W        W58482  25.939   6.918  13.061
86058W        W58483   1.246  32.742  13.841
86059W        W58484  16.519   3.560  10.252
86060W        W58485  40.267  23.138  10.717
86061W        W58486  24.182  25.964  13.397
86062W        W58487  26.961   3.123  14.515
86063W        W58488  42.000  21.607  14.741
86064W        W58489  20.944  36.929  12.182
86065W        W58490  32.601  25.467  13.340
86066W        W58491  23.288  14.543   3.148
86067W        W58492   5.435  12.095  14.445
86068W        W58493  40.480  33.113  10.445
86069W        W58494  22.111  19.093   3.057
86070W        W58495  38.591   6.256   4.228
86071W        W58496  27.787  37.512  13.857
86072W        W58497  23.062   8.153  12.581
86073W        W58498  41.906  32.044  10.794
86074W        W58499  10.412  15.561  11.532
86075W        W58500  32.507   2.723  13.948
86076W        W58501  28.521  24.028   4.897
86077W        W58502  22.916   0.740   4.583
86078W        W58503   4.937  25.463   0.330
86079W        W58504   9.610   1.853  12.940
86080W        W58505  11.257  26.451  14.958
86081W        W58506  21.763  26.148   1.929
86082W        W58507   9.872  42.459   0.463
86083W        W58508  34.974   7.688   4.515
86084W        W58509   1.053  26.236   0.332
86085W        W58510  21.582  34.842   1.375
86086W        W58511  11.612   4.342  14.368
86087W        W58512  29.921  34.415   2.615
86088W        W58513  18.218  17.337  14.408
86089W        W58514   5.287  37.060   2.844
86090W        W58515   3.480  18.080  12.038
86091W        W58516  43.302  38.678  14.533
86092W        W58517   8.535  44.559   4.280
86093W        W58518  29.377   3.908   1.523
86094W        W58519   5.715  35.086   4.805
86095W        W58520   7.238  42.423   2.909
86096W        W58521  17.599   0.398  12.129
86097W        W58522   4.475  40.333  13.403
86098W        W58523  35.671  30.493  13.791
86099W        W58524  34.134   0.648  13.144
86100W        W58525  17.189   8.339   0.539
86101W        W58526  22.503  19.785  13.845
86102W        W58527  20.245  40.497   0.965
86103W        W58528  26.303  11.631   0.813
86104W        W58529  30.071   2.902   4.054
86105W        W58530   7.309   3.351   0.366
86106W        W58531  37.568   4.111  11.207
86107W        W58532  28.572  30.085  14.236
86108W        W58533  39.620  21.516  11.625
86109W        W58534   5.398   4.883   1.488
86110W        W58535  14.196  11.952   3.765
86111W        W58536  12.036  10.456  12.083
86112W        W58537   8.600   9.361   2.708
86113W        W58538  30.052  13.805   1.195
86114W        W58539  29.262   2.901  11.895
86115W        W58540  19.147  15.609  13.039
86116W        W58541  41.195  43.901  12.108
86117W        W58542  19.191  21.988   4.240
86118W        W58543  34.378  36.410   2.891
86119W        W58544  43.144  38.766  14.060
86120W        W58545   9.605  40.880  12.034
86121W        W58546  35.134  37.292  14.449
86122W        W58547  21.422  26.037  13.973
86123W        W58548  19.013  44.608   0.316
86124W        W58549  12.989   8.884  11.918
86125W        W58550  31.435  35.861  13.615
86126W        W58551  15.165   2.143  10.803
86127W        W58552  41.776  10.197  13.839
86128W        W58553   2.309  41.935  14.852
86129W        W58554  39.038  20.663  12.410
86130W        W58555  33.782  18.571  12.255
86131W        W58556  35.859  42.215   1.732
86132W        W58557   7.861   7.309  12.072
86133W        W58558  28.061   8.192  11.041
86134W        W58559  24.164  21.900  11.202
86135W        W58560  34.540  30.556  10.841
86136W        W58561   1.482  13.804   3.291
86137W        W58562  33.798   2.401  12.753
86138W        W58563  44.009  26.037   1.296
86139W        W58564  12.404   9.109   2.229
86140W        W58565   5.787  12.068  11.948
86141W        W58566  10.769  39.653   1.355
86142W        W58567  20.240  38.497   0.773
86143W        W58568   0.809   2.457   2.978
86144W        W58569  41.906   0.299  12.921
86145W        W58570  15.968  20.081  12.375
86146W        W58571  24.524  42.332  12.457
86147W        W58572  32.106  42.907   1.866
86148W        W58573  38.962   1.216  10.643
86149W        W58574  13.137  14.679   4.670
86150W        W58575  33.139   5.227  14.445
86151W        W58576  11.584  27.148   5.016
86152W        W58577  34.761   5.113  11.443
86153W        W58578  10.679   8.659   4.631
86154W        W58579   6.907   2.854   2.009
86155W        W58580  33.995   7.260  11.950
86156W        W58581  32.212  18.083   5.069
86157W        W58582  40.055   1.847   2.335
86158W        W58583   3.481   9.614  11.477
86159W        W58584  42.773  15.095   1.190
86160W        W58585  10.306   2.988  11.209
86161W        W58586   2.741   8.610   0.988
86162W        W58587  22.681   8.376   3.338
86163W        W58588  23.548  13.729   2.519
86164W        W58589  39.054  44.354   3.173
86165W        W58590  29.367  44.287   2.263
86166W        W58591   6.887  35.321  10.947
86167W        W58592  42.088   0.314   0.729
86168W        W58593  43.104  13.161   3.350
86169W        W58594  27.121  21.710   1.010
86170W        W58595  27.301   2.517  11.006
86171W        W58596  42.785  41.437   1.308
86172W        W58597  19.105  10.190  11.381
86173W        W58598  13.085   6.371   1.980
86174W        W58599  40.584  41.347   2.055
86175W        W58600  14.334   1.892  13.482
86176W        W58601  44.332  31.601  12.590
86177W        W58602  34.923  26.965  14.263
86178W        W58603  41.037  19.121  10.770
86179W        W58604  19.337  40.558  12.351
86180W        W58605  41.021   7.977  14.388
86181W        W58606  32.015   9.656  14.359
86182W        W58607  18.993   9.827   2.628
86183W        W58608  20.281   5.850   1.086
86184W        W58609  22.790  36.504   0.012
86185W        W58610   2.122  36.116  13.422
86186W        W58611  20.388  31.391   3.644
86187W        W58612  17.774   3.925   2.846
86188W        W58613  15.308   7.194  13.703
86189W        W58614  21.581  16.354  14.378
86190W        W58615  16.463  37.611  10.989
86191W        W58616  44.050  24.771   3.240
86192W        W58617  13.785  10.639   4.584
86193W        W58618  11.896  23.645  13.857
86194W        W58619  14.852  25.404   0.769
86195W        W58620  15.401   4.398  13.800
86196W        W58621  29.342  37.296  12.476
86197W        W58622  31.121  33.438   2.256
86198W        W58623   0.766   7.722   2.450
86199W        W58624  24.965   3.502  14.828
86200W        W58625  32.851   4.465  12.310
86201W        W58626  39.266  41.923   0.305
86202W        W58627  15.752   5.171   3.768
86203W        W58628  24.532   2.811  14.401
86204W        W58629   1.192   5.430   4.292
86205W        W58630  43.931  19.312   3.270
86206W        W58631  23.160   9.102  13.428
86207W        W58632  34.599  12.839   4.613
86208W        W58633  20.535  21.767   4.791
86209W        W58634  37.502  17.753   4.963
86210W        W58635  43.427  39.949   4.144
86211W        W58636  30.588   8.060  12.570
86212W        W58637  41.801  19.063  14.895
86213W        W58638  42.603   1.478   2.721
86214W        W58639  18.808  40.558   2.334
86215W        W58640   8.419  35.164  14.616
86216W        W58641   0.290  41.004  10.584
86217W        W58642   0.231   8.663  13.433
86218W        W58643  33.606  35.043   3.779
86219W        W58644  22.547  36.076   4.488
86220W        W58645  44.797  16.054   3.532
86221W        W58646   8.616  17.042  13.790
86222W        W58647  12.447  20.084   4.194
86223W        W58648   6.811  33.068  12.880
86224W        W58649  26.149  36.383   0.729
86225W        W58650   6.730  34.991  13.876
86226W        W58651  17.481  39.911  14.766
86227W        W58652   4.535  11.755  13.301
86228W        W58653  21.704  18.846   4.645
86229W        W58654  44.335  34.627   4.136
86230W        W58655  10.676  38.254  10.931
86231W        W58656  27.499   3.141   3.466
86232W        W58657  40.543  15.632   3.054
86233W        W58658  29.892  38.675   2.330
86234W        W58659   2.003   8.542  10.797
86235W        W58660  15.874   2.705  13.085
86236W        W58661  15.700  12.363   2.932
86237W        W58662   5.679  30.092   3.739
86238W        W58663  15.680  17.656  11.412
86239W        W58664  36.275  19.931   3.185
86240W        W58665   1.191   2.238  13.866
86241W        W58666  12.266  44.934   4.733
86242W        W58667  26.616  37.478   3.969
86243W        W58668  13.949  17.372   4.074
86244W        W58669  19.043  30.224  12.802
86245W        W58670  36.061  15.336   0.255
86246W        W58671  44.316  44.365  13.135
86247W        W58672   3.715  32.377   0.342
86248W        W58673  37.155  28.547  13.078
86249W        W58674  29.156  18.710   3.726
86250W        W58675  20.654  16.652   0.755
86251W        W58676  44.368  28.211  11.205
86252W        W58677  33.414   8.702  10.712
86253W        W58678  18.468   3.461   3.717
86254W        W58679  12.737  35.740  10.695
86255W        W58680  17.966   7.900  14.335
86256W        W58681  42.915   6.415  11.210
86257W        W58682   1.332  40.036   2.708
86258W        W58683  28.143  32.679   0.780
86259W        W58684  10.921   5.850   2.104
86260W        W58685   4.204  25.658   4.731
86261W        W58686  22.307  35.007  11.030
86262W        W58687  12.549  28.657  13.563
86263W        W58688  25.835  43.019   2.031
86264W        W58689  15.096  23.084   4.775
86265W        W58690  41.444   2.843   1.914
86266W        W58691   4.289  31.556   3.983
86267W        W58692  18.124  20.208  14.868
86268W        W58693  23.784  13.391   0.851
86269W        W58694  36.576  27.625   4.327
86270W        W58695  22.838  37.926  11.470
86271W        W58696   5.328  20.511  10.570
86272W        W58697  14.132   0.211   0.782
86273W        W58698  28.867  41.547   3.231
86274W        W58699  34.337   3.101   3.602
86275W        W58700  17.606  11.312  12.482
86276W        W58701  22.523  35.867   1.333
86277W        W58702  43.749  25.183   2.327
86278W        W58703  21.700  35.647  12.109
86279W        W58704  27.502  17.871   3.577
86280W        W58705   4.359  19.700  11.516
86281W        W58706  21.677  31.206   0.274
86282W        W58707  15.132  35.972   0.370
86283W        W58708   6.175   2.635   3.192
86284W        W58709  15.692  30.951   4.133
86285W        W58710   1.759  13.635   2.761
86286W        W58711  34.655  18.229   4.960
86287W        W58712  29.072  38.124  11.666
86288W        W58713   4.413  21.557  13.558
86289W        W58714  10.199  36.818   3.148
86290W        W58715  34.401   5.225   4.302
86291W        W58716  37.806  39.632   4.180
86292W        W58717   1.309  38.876  12.513
86293W        W58718  34.597  30.084  13.569
86294W        W58719   7.628   5.206  10.359
86295W        W58720   2.497  25.699   0.295
86296W        W58721  41.810  35.316   1.734
86297W        W58722  43.405   4.758   3.254
86298W        W58723   3.667   7.883  14.067
86299W        W58724  29.537  33.085  10.213
86300W        W58725  41.859   9.062   3.141
86301W        W58726   4.472   8.700   0.694
86302W        W58727  17.736  35.857   3.207
86303W        W58728  31.793   1.016  12.311
86304W        W58729   2.387  12.419  10.654
86305W        W58730  33.714  17.833   0.490
86306W        W58731   9.715  11.595  11.681
86307W        W58732  13.263  15.290   4.039
86308W        W58733  31.528   9.285  12.213
86309W        W58734   9.453  16.635  11.631
86310W        W58735  14.562   4.962  10.587
86311W        W58736  16.161  29.017  13.245
86312W        W58737  31.203  28.090   2.260
86313W        W58738  16.932  29.323  11.685
86314W        W58739  20.299  17.803  13.133
86315W        W58740  19.236  31.025  13.865
86316W        W58741  33.550   2.931  11.970
86317W        W58742  10.284  16.096  11.536
86318W        W58743  20.074  22.908  11.482
86319W        W58744  23.055   3.611   3.254
86320W        W58745   5.335   0.055   3.281
86321W        W58746  35.483   6.845  11.872
86322W        W58747  22.149   7.383   1.358
86323W        W58748  24.774  28.844  14.820
86324W        W58749  31.538  14.513   1.066
86325W        W58750  44.027  11.420   0.820
86326W        W58751   7.170  36.130  11.231
86327W        W58752  39.893  33.302   3.816
86328W        W58753  26.454  36.647  10.631
86329W        W58754  29.624  27.988  12.004
86330W        W58755   2.957  35.983   0.378
86331W        W58756  10.256   8.777  14.860
86332W        W58757   4.415  37.501   4.880
86333W        W58758   6.114  30.076   0.875
86334W        W58759   7.674  10.772   0.386
86335W        W58760  13.266  26.809   0.982
86336W        W58761   8.397  22.283   2.808
86337W        W58762   1.245  22.571   2.335
86338W        W58763  12.719  39.810  10.574
86339W        W58764  42.477  40.985  12.417
86340W        W58765  15.141  34.892   3.865
86341W        W58766  41.252  10.367  13.707
86342W        W58767  30.077  19.224   3.030
86343W        W58768  24.232  26.874  11.001
86344W        W58769  23.054  31.779   3.097
86345W        W58770  30.196  38.465   0.072
86346W        W58771   4.740  11.054  10.660
86347W        W58772  34.052   1.061  11.104
86348W        W58773  19.403  32.311   3.616
86349W        W58774  21.178  21.268  11.521
86350W        W58775  29.297  40.677   4.120
86351W        W58776  40.094   5.829   2.179
86352W        W58777  27.333  27.184  11.168
86353W        W58778  34.852  10.745  13.120
86354W        W58779  13.682  24.417  13.437
86355W        W58780  43.333  24.948   5.161
86356W        W58781  34.442  28.918   3.382
86357W        W58782  28.149  37.506   4.633
86358W        W58783  29.173  12.944   0.888
86359W        W58784  16.227  31.151   4.994
86360W        W58785  15.128   1.550  12.388
86361W        W58786   0.612  20.305   1.324
86362W        W58787  33.820  34.595   3.641
86363W        W58788  13.376   4.668  10.104
86364W        W58789  24.874  35.678   3.874
86365W        W58790   3.482  40.941   2.564
86366W        W58791  36.729  43.803   4.088
86367W        W58792  38.805  26.845   4.176
86368W        W58793   0.517  23.619  11.099
86369W        W58794  20.412  11.174  10.744
86370W        W58795  43.828  21.437   2.096
86371W        W58796  42.209  27.396  12.905
86372W        W58797  35.915  41.792   5.111
86373W        W58798  12.897  21.717   1.392
86374W        W58799  40.008   9.726  11.545
86375W        W58800  25.518   3.949  12.548
86376W        W58801   8.245  11.160   1.833
86377W        W58802  40.993  31.542   1.934
86378W        W58803   8.485   4.843   2.375
86379W        W58804  31.383  19.676   4.575
86380W        W58805   9.192  39.116  11.671
86381W        W58806  18.247  13.726  13.406
86382W        W58807  40.189  40.908  11.925
86383W        W58808  35.138  23.126   1.596
86384W        W58809  12.757   8.463  10.576
86385W        W58810  22.022  44.284  10.685
86386W        W58811  28.619  14.137  13.847
86387W        W58812  19.828  13.296  11.015
86388W        W58813  32.006   3.218  11.688
86389W        W58814  12.065  36.748   4.081
86390W        W58815  21.610  21.966  11.643
86391W        W58816  23.266   2.910  11.627
86392W        W58817  25.470  29.033  14.362
86393W        W58818  13.205  26.577  11.957
86394W        W58819  17.556  31.601   1.727
86395W        W58820  12.559   8.106   2.826
86396W        W58821  37.285   8.352   3.057
86397W        W58822  37.907   7.771   2.791
86398W        W58823  27.394  37.136   4.833
86399W        W58824  34.122   5.871  14.929
86400W        W58825  37.908  23.543  14.061
86401W        W58826  36.649  21.319  11.198
86402W        W58827   2.594  17.748  14.744
86403W        W58828  40.775  23.050  10.732
86404W        W58829  30.433  25.198  14.792
86405W        W58830  31.134  14.593   0.754
86406W        W58831   0.792   3.033  13.486
86407W        W58832  35.943  10.769  10.901
86408W        W58833   2.244   4.154   3.763
86409W        W58834  19.227  30.982  10.685
86410W        W58835  43.284   8.498   4.321
86411W        W58836  23.812  10.820  11.087
86412W        W58837  43.607  33.140  10.942
86413W        W58838  25.694  39.148  11.975
86414W        W58839  27.422  19.071   1.291
86415W        W58840  27.408  15.834  10.515
86416W        W58841   6.391   8.860   3.656
86417W        W58842  35.776  20.700   0.526
86418W        W58843   3.234   0.914   1.213
86419W        W58844  24.769  26.130   2.880
86420W        W58845  26.557  41.466  11.078
86421W        W58846  15.255  38.071   2.349
86422W        W58847  19.228  27.712  13.036
86423W        W58848  28.701  43.701  14.720
86424W        W58849  44.011  42.208  13.488
86425W        W58850  33.174   2.478  14.096
86426W        W58851  13.852  32.306  10.615
86427W        W58852  20.773  32.593   1.806
86428W        W58853  43.549  29.613   2.083
86429W        W58854  42.396   2.652   4.176
86430W        W58855  27.623  35.965   1.824
86431W        W58856   2.660  42.767   3.409
86432W        W58857  14.916  28.483  10.669
86433W        W58858  22.304  30.582  12.666
86434W        W58859   0.744   7.110   1.889
86435W        W58860   0.466  44.797   3.059
86436W        W58861  33.990  15.200  14.956
86437W        W58862  40.374  29.120  10.337
86438W        W58863  33.733  16.102  14.899
86439W        W58864  19.123  33.825  12.502
86440W        W58865  17.876  18.713  11.199
86441W        W58866  17.782  19.871  10.451
86442W        W58867  44.806  33.181  13.974
86443W        W58868  31.140  42.020  12.113
86444W        W58869  23.255  33.912   2.344
86445W        W58870  39.248   6.321   1.533
86446W        W58871  41.041  19.677   3.768
86447W        W58872  43.382  20.171  14.751
86448W        W58873  25.022  37.500   2.814
86449W        W58874  40.951   2.936  10.749
86450W        W58875  31.102  27.567   2.717
86451W        W58876  43.606   8.417   0.410
86452W        W58877  36.686  10.395   0.732
86453W        W58878  24.577  24.704   2.228
86454W        W58879  30.994  25.549   1.806
86455W        W58880   7.630  36.947  11.180
86456W        W58881  25.315   7.897   3.392
86457W        W58882   7.834  10.183  14.771
86458W        W58883  32.489  15.899  13.016
86459W        W58884  18.625  36.928  13.327
86460W        W58885  31.616  35.369  11.088
86461W        W58886   5.030   5.732  13.836
86462W        W58887  38.477   2.378  11.202
86463W        W58888  25.742  15.122  14.005
86464W        W58889  16.678  40.558   1.768
86465W        W58890  32.711  23.580  13.524
86466W        W58891  40.553  29.395  10.754
86467W        W58892  26.288  13.830  14.873
86468W        W58893  34.048  26.987   4.579
86469W        W58894  28.268  39.289  13.379
86470W        W58895  12.483  19.143  11.948
86471W        W58896  23.053  12.294   1.775
86472W        W58897  41.456  20.646  14.068
86473W        W58898  28.250  36.543  12.447
86474W        W58899   6.302  18.684   3.606
86475W        W58900  31.808  42.974  14.247
86476W        W58901   1.266  18.512   3.952
86477W        W58902  30.784  44.372   2.084
86478W        W58903  23.063  29.905   4.730
86479W        W58904  15.810  35.901   3.233
86480W        W58905  40.295   3.051   4.375
86481W        W58906  27.626   3.859  10.848
86482W        W58907  44.584   1.312  10.818
86483W        W58908  29.473   8.310  11.985
86484W        W58909  11.263  27.043   2.671
86485W        W58910  27.848   8.472   1.835
86486W        W58911  42.171  28.103   2.324
86487W        W58912  36.104  19.681   4.470
86488W        W58913  41.093  31.922  10.742
86489W        W58914  36.598  13.124   2.633
86490W        W58915   1.794  37.485   3.618
86491W        W58916  40.098  25.478  11.778
86492W        W58917  32.817  17.783  12.027
86493W        W58918  31.166  20.188  10.887
86494W        W58919  14.704  23.794  11.060
86495W        W58920  25.677   1.002  14.812
86496W        W58921   7.609  10.719  11.423
86497W        W58922  14.910  15.829   3.793
86498W        W58923  37.013  11.348  10.615
86499W        W58924  28.606  13.442   0.255
86500W        W58925  15.353  26.160   4.246
86501W        W58926   2.467   8.908   3.217
86502W        W58927  23.207  44.761   3.083
86503W        W58928  43.098  37.079  11.025
86504W        W58929  13.092  37.982  10.661
86505W        W58930   0.963  34.125  12.209
86506W        W58931  26.060  25.708  13.898
86507W        W58932   0.277  22.009   2.027
86508W        W58933   8.060   9.680   3.100
86509W        W58934  11.314  16.333   1.874
86510W        W58935  44.910  22.010  11.557
86511W        W58936  22.670  30.828   4.687
86512W        W58937  31.181  34.094  12.893
86513W        W58938  16.608  38.452   0.791
86514W        W58939   6.646  12.749  10.690
86515W        W58940  24.259  19.141   2.778
86516W        W58941  25.028  25.014   2.862
86517W        W58942  44.729  26.128  13.067
86518W        W58943  11.186  34.417  11.515
86519W        W58944  25.429  26.899   2.333
86520W        W58945   7.735  31.894  10.144
86521W        W58946   4.952  24.615   3.949
86522W        W58947  19.805  24.076   3.755
86523W        W58948  26.965  30.214  14.950
86524W        W58949  26.394  36.878   4.752
86525W        W58950  14.962  38.571   2.619
86526W        W58951   2.870   9.052   0.515
86527W        W58952   1.241  19.809   1.397
86528W        W58953  16.228  19.055   3.825
86529W        W58954  39.813   9.663  11.069
86530W        W58955  16.584   8.397  13.282
86531W        W58956  23.005   1.562  12.813
86532W        W58957  27.907  38.770  11.920
86533W        W58958  44.769   2.737   2.659
86534W        W58959  41.403  44.058   1.329
86535W        W58960   7.047  44.305  10.437
86536W        W58961  25.435  31.732  10.578
86537W        W58962  26.912  11.174   2.821
86538W        W58963  16.598   7.440   2.581
86539W        W58964  37.561  21.705  11.561
86540W        W58965  39.754  34.414  12.375
86541W        W58966  24.192  21.586   1.740
86542W        W58967  15.167   4.953   0.795
86543W        W58968  27.229  14.999  13.513
86544W        W58969  31.955  11.289  10.671
86545W        W58970  34.843  11.165  12.845
86546W        W58971   0.183   7.523  11.999
86547W        W58972  37.640  17.138   3.753
86548W        W58973  19.778   8.312  11.559
86549W        W58974   7.668   1.975  13.934
86550W        W58975  14.007  24.792   1.247
86551W        W58976  19.119  15.209  14.385
86552W        W58977  28.004  39.316  10.637
86553W        W58978  20.773  32.602  14.471
86554W        W58979  36.638   3.429  11.164
86555W        W58980  36.897  15.053  11.966
86556W        W58981  37.059  40.528   1.849
86557W        W58982  22.965  19.146   3.290
86558W        W58983  44.150  40.839  12.864
86559W        W58984  25.013   3.942   2.915
86560W        W58985  30.559  32.995   4.218
86561W        W58986   8.143   3.060  11.183
86562W        W58987  16.673  18.506  13.048
86563W        W58988   7.368  35.655  14.656
86564W        W58989  28.562  44.717  14.850
86565W        W58990  17.856  15.717   4.622
86566W        W58991  16.744  42.852   4.568
86567W        W58992  42.397   9.833   4.669
86568W        W58993  24.213  17.127  10.491
86569W        W58994   1.005  19.507  13.838
86570W        W58995  38.068  25.864  14.496
86571W        W58996  15.748  27.201  10.485
86572W        W58997  37.918  16.647  13.411
86573W        W58998  44.755  36.585   2.888
86574W        W58999  21.231  15.907   1.765
86575W        W59000  37.632  34.835  10.718
86576W        W59001  28.602  13.997  14.838
86577W        W59002   3.357  29.016  13.106
86578W        W59003  26.053   7.215  12.620
86579W        W59004   3.255  20.818  13.722
86580W        W59005  42.959  22.146  12.620
86581W        W59006  10.886  23.014  11.901
86582W        W59007   6.526  22.867   0.427
86583W        W59008  30.915  17.088  13.374
86584W        W59009  20.552  40.369   4.575
86585W        W59010  35.011  15.157  12.380
86586W        W59011  22.596  19.484  11.934
86587W        W59012  17.100  39.133  11.189
86588W        W59013  10.845   8.895   5.460
86589W        W59014  20.739  43.912  10.680
86590W        W59015  30.548  10.383  13.010
86591W        W59016  26.480  43.237  12.811
86592W        W59017  29.398  36.969   3.641
86593W        W59018  40.470  37.594  13.084
86594W        W59019  42.790  21.689  14.424
86595W        W59020   9.702  39.039   0.772
86596W        W59021  35.548  22.668  14.816
86597W        W59022  36.904  21.112   0.212
86598W        W59023  42.341  13.755  13.711
86599W        W59024   2.374  38.381   4.761
86600W        W59025  24.667  17.131  12.788
86601W        W59026  39.627  27.366   3.697
86602W        W59027   3.990  32.675   1.705
86603W        W59028   9.831  14.737  12.938
86604W        W59029  21.254  15.052   0.737
86605W        W59030  29.922  18.179   0.284
86606W        W59031   9.462  16.611  14.658
86607W        W59032  33.616  25.390  11.591
86608W        W59033  38.398  34.147  14.633
86609W        W59034   3.916  15.755  11.083
86610W        W59035   9.193   8.201  10.289
86611W        W59036   0.355  28.921   0.014
86612W        W59037   7.836  34.543   4.614
86613W        W59038   7.162  25.004  12.611
86614W        W59039   7.889  18.725  12.603
86615W        W59040  30.082  19.019   2.566
86616W        W59041  40.045  28.651  12.106
86617W        W59042   1.741  35.591   2.721
86618W        W59043  34.432  37.583   3.269
86619W        W59044  26.998  37.937  11.625
86620W        W59045  36.525  27.266   2.818
86621W        W59046  38.916  30.459   4.231
86622W        W59047  27.894   4.940  10.712
86623W        W59048  28.927   3.139   3.177
86624W        W59049   8.526  14.198  11.204
86625W        W59050  17.084   2.228  10.096
86626W        W59051  39.279  27.834  12.855
86627W        W59052  38.809  10.663  11.070
86628W        W59053  24.418  24.319  14.458
86629W        W59054  25.377   1.246   1.134
86630W        W59055  19.275  35.937   3.299
86631W        W59056   0.780   6.990   3.206
86632W        W59057  19.936  38.047   1.881
86633W        W59058   5.490  11.438  11.140
86634W        W59059  13.612  19.174   1.451
86635W        W59060  22.798   2.217   0.684
86636W        W59061   0.748  15.543  14.896
86637W        W59062  34.374   1.841   4.325
86638W        W59063  35.130   1.736   9.888
86639W        W59064  38.552  25.866  10.643
86640W        W59065  24.326  40.973   3.320
86641W        W59066  39.074  44.477  10.906
86642W        W59067  27.011   5.259   1.379
86643W        W59068  37.934   7.387   0.170
86644W        W59069   4.447  35.822  12.412
86645W        W59070   4.737   9.426   4.392
86646W        W59071  13.554   7.678   1.875
86647W        W59072   5.365   1.095   2.333
86648W        W59073  21.549   8.941   3.937
86649W        W59074  38.071   4.782   4.419
86650W        W59075  20.980   1.662   0.002
86651W        W59076   9.810   3.005  11.111
86652W        W59077   3.436  28.820   1.037
86653W        W59078  27.513  39.430   0.061
86654W        W59079  24.326  34.464  13.819
86655W        W59080  20.998   0.431   4.968
86656W        W59081  37.901  29.967   0.694
86657W        W59082  37.094   5.857   4.171
86658W        W59083  25.536  26.173  14.449
86659W        W59084  37.398  40.952   4.323
86660W        W59085  29.149  27.113   1.016
86661W        W59086  44.037  27.142  12.352
86662W        W59087  20.442  18.701   0.030
86663W        W59088   3.999  26.436   4.036
86664W        W59089  24.408  42.763   5.153
86665W        W59090  23.803   8.790  11.271
86666W        W59091  38.004  32.605  14.065
86667W        W59092  35.834  20.244   3.253
86668W        W59093  12.359  13.674  14.376
86669W        W59094  41.264   6.307  14.420
86670W        W59095   4.134   5.489  11.417
86671W        W59096  35.331  19.054  12.542
86672W        W59097   9.649  25.205  12.635
86673W        W59098  39.596  24.668  11.499
86674W        W59099   1.869  44.577   3.653
86675W        W59100  23.051  28.077   1.199
86676W        W59101  37.637  36.856  10.620
86677W        W59102  18.807  12.602   1.944
86678W        W59103  19.380  34.550   1.863
86679W        W59104   7.613  39.059  12.515
86680W        W59105  22.110  34.345  14.727
86681W        W59106  25.611  20.414   2.185
86682W        W59107  22.788  39.844   1.039
86683W        W59108  40.372  28.534  14.686
86684W        W59109   3.862   9.242   0.312
86685W        W59110  17.529  30.130   2.293
86686W        W59111  17.297  26.172   4.032
86687W        W59112  31.377  18.280  11.118
86688W        W59113   2.395   4.778   4.126
86689W        W59114   9.436  25.607   3.350
86690W        W59115  11.238  18.807   1.822
86691W        W59116  11.568  14.745  14.842
86692W        W59117  29.628  12.824   4.231
86693W        W59118  37.527  36.114   2.204
86694W        W59119  36.264  33.027  12.302
86695W        W59120  31.941  32.304   3.673
86696W        W59121  29.965  10.492  13.566
86697W        W59122   2.725  26.805   4.996
86698W        W59123  10.317  14.434   0.956
86699W        W59124  40.106  16.166  12.516
86700W        W59125   8.741  21.082  11.387
86701W        W59126  31.888  14.240   2.690
86702W        W59127  25.493   1.494   1.864
86703W        W59128  32.621  30.057  11.658
86704W        W59129   1.478  34.533   0.857
86705W        W59130  34.609  30.512  11.898
86706W        W59131  11.509  41.947   0.725
86707W        W59132  37.790  31.650   0.284
86708W        W59133  31.900  35.564  14.768
86709W        W59134  19.865  18.662   0.506
86710W        W59135  31.207  17.008   4.229
86711W        W59136  11.888   4.794   3.644
86712W        W59137   4.644  24.486   1.292
86713W        W59138  13.867  41.388   3.666
86714W        W59139  33.103  21.507   3.787
86715W        W59140  26.677  27.195   0.849
86716W        W59141   1.826   8.980  12.445
86717W        W59142   9.285  18.236  12.845
86718W        W59143  23.253  38.043   2.761
86719W        W59144  15.165  39.999  14.933
86720W        W59145  23.176  40.848   2.657
86721W        W59146  26.582   2.309  12.507
86722W        W59147  25.665  43.209  14.778
86723W        W59148  22.933   6.211  13.260
86724W        W59149  31.496  13.141  12.736
86725W        W59150  39.540  41.272   3.971
86726W        W59151  34.386   0.097   3.858
86727W        W59152  10.716  24.659  10.667
86728W        W59153  43.353  35.739  11.363
86729W        W59154  10.768   9.151  13.276
86730W        W59155  11.762  39.402  13.922
86731W        W59156  26.127  42.568  14.488
86732W        W59157   9.958  28.732   3.327
86733W        W59158  14.126  23.104   3.212
86734W        W59159  21.508  35.584   4.139
86735W        W59160  27.961  34.199   1.240
86736W        W59161  30.500  36.384  12.829
86737W        W59162  42.854  36.042  10.215
86738W        W59163  35.548   8.062  12.914
86739W        W59164  20.576  38.873   0.003
86740W        W59165  38.493   2.569  14.495
86741W        W59166   5.210  24.539  13.661
86742W        W59167   2.967   3.235   2.018
86743W        W59168  11.433   7.758   9.834
86744W        W59169  42.966  36.598  11.950
86745W        W59170  36.064  23.512  10.113
86746W        W59171   6.104  21.266   3.140
86747W        W59172  22.714  34.052  10.374
86748W        W59173  31.519  39.585  10.619
86749W        W59174  33.027   6.779  10.622
86750W        W59175  32.889  11.303   4.621
86751W        W59176  18.934  33.984   4.626
86752W        W59177  26.651  15.678  14.581
86753W        W59178  11.251  11.348  14.997
86754W        W59179  31.084  16.606   3.945
86755W        W59180   3.631  23.136   0.019
86756W        W59181  29.905   1.935   2.745
86757W        W59182   6.280  41.593   0.324
86758W        W59183  33.664   5.222   1.281
86759W        W59184   1.821  21.126  14.283
86760W        W59185  18.195  21.602   2.421
86761W        W59186  12.208   6.005   1.631
86762W        W59187  38.496  36.223  10.523
86763W        W59188   1.657  26.583  14.961
86764W        W59189  27.276  21.721  12.947
86765W        W59190  36.011  39.523   2.175
86766W        W59191  29.909  23.584   1.327
86767W        W59192  33.391  24.830  11.556
86768W        W59193  12.877  32.687  11.155
86769W        W59194  33.664  25.862  10.574
86770W        W59195  42.182  44.017  11.924
86771W        W59196  31.910  38.567   2.259
86772W        W59197   5.551  36.972   5.659
86773W        W59198  10.339  10.732   4.439
86774W        W59199  11.139  20.168  14.452
86775W        W59200  37.094  38.313   1.737
86776W        W59201  37.819  26.461  12.917
86777W        W59202  37.441   4.254   0.906
86778W        W59203   6.259  11.722   2.372
86779W        W59204  31.381   9.183   0.934
86780W        W59205  39.463  32.233   0.474
86781W        W59206  19.317  43.425   0.039
86782W        W59207  31.184   6.329  10.664
86783W        W59208  42.980  12.288   1.879
86784W        W59209  27.236  27.442   3.374
86785W        W59210  43.972   4.941   0.346
86786W        W59211  44.521  44.880  14.979
86787W        W59212  36.591   4.897  14.841
86788W        W59213  23.722  27.546  10.834
86789W        W59214  25.268   4.460   4.189
86790W        W59215  33.853   3.962   0.923
86791W        W59216  39.398  42.460  12.947
86792W        W59217  44.366   0.986   2.965
86793W        W59218  17.802  13.619  11.051
86794W        W59219  31.562  22.694   3.968
86795W        W59220  32.002  18.060   3.785
86796W        W59221  25.312  39.359   2.151
86797W        W59222  15.828   4.663   3.917
86798W        W59223   9.132  12.315  11.948
86799W        W59224  32.161  32.831  12.032
86800W        W59225   8.646  23.258  10.632
86801W        W59226  39.066  10.690  10.582
86802W        W59227  13.680   9.361   0.025
86803W        W59228  20.705  39.014  11.829
86804W        W59229  23.707  18.570   1.875
86805W        W59230  39.299  27.364   1.239
86806W        W59231  40.301  22.920   2.245
86807W        W59232  28.673   6.267   0.404
86808W        W59233  20.366  28.574   3.887
86809W        W59234  32.651  35.325   0.938
86810W        W59235  44.656  26.155  14.048
86811W        W59236  13.853  26.994  11.084
86812W        W59237   5.697  16.236  12.848
86813W        W59238  23.988  23.666   3.254
86814W        W59239  36.380  35.504  11.814
86815W        W59240   7.447  30.006  14.690
86816W        W59241  41.913   5.784   2.752
86817W        W59242   2.377   3.508   2.754
86818W        W59243  24.205   1.939  14.244
86819W        W59244  21.545  18.797  11.940
86820W        W59245  24.398   4.222   4.166
86821W        W59246  25.147   9.883  12.416
86822W        W59247   0.348  41.238   3.890
86823W        W59248  12.687  14.862   3.367
86824W        W59249  11.140  41.817  14.672
86825W        W59250  27.685  35.333  12.571
86826W        W59251   6.712  43.283  12.049
86827W        W59252  19.525  22.020   1.008
86828W        W59253   6.154   9.337   0.902
86829W        W59254  21.374  38.454  14.941
86830W        W59255   2.772   5.842   1.876
86831W        W59256  18.128   2.258  14.964
86832W        W59257  41.409  13.172  14.986
86833W        W59258  36.152   9.802   2.321
86834W        W59259  41.004  41.404  14.832
86835W        W59260  40.514  40.278   1.947
86836W        W59261  28.419   1.018   2.650
86837W        W59262   7.270  14.799   2.630
86838W        W59263  14.337  12.674  14.498
86839W        W59264  14.942  22.441   0.027
86840W        W59265  36.576  12.576   0.095
86841W        W59266   8.959  36.310   4.086
86842W        W59267  41.208   9.918  13.935
86843W        W59268   5.764  28.448   4.103
86844W        W59269  23.091   4.715   1.444
86845W        W59270  44.983   9.835  11.859
86846W        W59271   4.189  29.476  11.328
86847W        W59272  35.062  28.684  11.407
86848W        W59273  34.789  29.677   0.961
86849W        W59274  29.677   8.308  10.639
86850W        W59275  10.220  38.799  13.895
86851W        W59276  29.428  26.756   2.660
86852W        W59277  42.425  13.865  11.508
86853W        W59278   5.813  36.887   3.114
86854W        W59279  28.111   5.927  10.744
86855W        W59280   7.958  38.425  12.497
86856W        W59281  21.214  37.507  10.691
86857W        W59282  42.896  28.987   2.277
86858W        W59283  26.077   4.176  14.245
86859W        W59284  10.611   4.399   3.816
86860W        W59285  35.036  30.631  11.627
86861W        W59286  20.736  30.569   2.788
86862W        W59287  44.408  10.271  14.340
86863W        W59288   7.480  26.592   1.456
86864W        W59289   2.934  28.489  12.419
86865W        W59290  12.713  39.822  14.911
86866W        W59291  17.806  18.233   1.573
86867W        W59292   6.210   7.803  14.825
86868W        W59293  28.239  16.298  13.032
86869W        W59294  25.730  39.870   3.507
86870W        W59295  30.173   1.463  13.324
86871W        W59296  34.841  38.451   4.540
86872W        W59297  27.083   9.175   4.422
86873W        W59298  23.214  40.034  12.975
86874W        W59299   4.660  31.116   2.711
86875W        W59300   1.276  20.321   1.360
86876W        W59301  10.683  20.771  11.053
86877W        W59302   4.433   6.718   3.253
86878W        W59303  20.628  20.791   3.750
86879W        W59304  44.183   7.945  10.539
86880W        W59305  22.169  14.732   1.092
86881W        W59306  16.619  39.835  14.351
86882W        W59307  36.506  37.759  12.989
86883W        W59308  27.139  33.536   5.592
86884W        W59309  36.983  10.837  10.764
86885W        W59310  22.827   6.708   2.373
86886W        W59311  14.972  38.614  10.963
86887W        W59312  15.073  41.399   4.674
86888W        W59313  19.571  35.066   2.114
86889W        W59314  43.048  37.386  11.648
86890W        W59315   0.996  16.073   0.933
86891W        W59316  10.047   9.758  11.140
86892W        W59317   3.714  36.892  14.355
86893W        W59318  13.766  14.044   1.429
86894W        W59319  21.557  41.780   1.315
86895W        W59320   6.280  31.323   1.999
86896W        W59321  11.205  15.041   4.610
86897W        W59322   9.377  26.495   1.965
86898W        W59323  29.286  36.247   2.719
86899W        W59324   3.987   8.211   1.877
86900W        W59325  15.348  23.474   0.465
86901W        W59326   2.072  29.633   3.847
86902W        W59327  16.635  16.585   0.929
86903W        W59328  39.652  31.968  10.946
86904W        W59329  40.390  43.522   3.295
86905W        W59330  19.772  26.126  10.631
86906W        W59331   6.921   5.209  11.809
86907W        W59332  39.643  40.924   2.165
86908W        W59333  16.642  34.979   4.746
86909W        W59334  36.409  18.795   1.359
86910W        W59335  14.866   7.908  13.462
86911W        W59336   4.855  41.282   4.170
86912W        W59337  27.046   0.675  13.664
86913W        W59338   2.702  24.103  10.642
86914W        W59339   7.717  25.268   3.601
86915W        W59340  29.038  42.349  12.175
86916W        W59341  29.965  17.743   2.047
86917W        W59342   6.794  18.875   3.761
86918W        W59343  34.918   8.101  11.524
86919W        W59344  27.811  26.393   1.200
86920W        W59345  31.816  24.687  14.279
86921W        W59346  32.140  26.549   4.760
86922W        W59347  40.215  30.422  13.454
86923W        W59348  20.502   0.794   1.661
86924W        W59349  40.090  10.722   0.557
86925W        W59350  30.116  22.162  11.604
86926W        W59351  21.287  41.081   3.633
86927W        W59352  31.044   3.133  12.005
86928W        W59353  28.517   1.835   0.344
86929W        W59354  35.522  11.935  14.987
86930W        W59355  17.588  44.985   9.894
86931W        W59356   9.850  35.429  14.100
86932W        W59357  15.813  27.860  11.717
86933W        W59358  34.864   5.363   2.819
86934W        W59359  13.725   1.461  14.030
86935W        W59360  40.462  26.083  14.938
86936W        W59361  36.366  38.192  13.867
86937W        W59362  29.906  38.842   1.138
86938W        W59363  27.302  23.032   3.108
86939W        W59364  22.203  42.349  11.590
86940W        W59365  13.646   0.744   2.640
86941W        W59366  41.586  26.608   0.362
86942W        W59367  14.547  39.289  14.933
86943W        W59368   3.405  12.271   1.403
86944W        W59369  28.266  23.933  11.225
86945W        W59370  29.999  18.305   3.233
86946W        W59371  27.184  43.523   0.150
86947W        W59372  27.727  20.614   4.717
86948W        W59373  24.062   9.045  14.374
86949W        W59374  18.879  34.071  13.553
86950W        W59375  28.385  26.644  11.903
86951W        W59376   6.377  37.939   3.657
86952W        W59377  24.937  24.013  13.583
86953W        W59378  35.438  31.561   3.712
86954W        W59379   3.787  18.536   4.237
86955W        W59380  41.581  35.878  13.939
86956W        W59381  16.550   3.725  12.003
86957W        W59382  29.934  12.085   1.374
86958W        W59383  37.041  24.969  13.792
86959W        W59384  37.838  13.158  11.588
86960W        W59385  42.918  31.844   4.971
86961W        W59386  18.685  17.410  10.656
86962W        W59387  19.798  22.258  11.935
86963W        W59388  13.736  39.582   2.800
86964W        W59389  27.087  15.391  10.496
86965W        W59390  38.517  28.955   0.428
86966W        W59391  28.655  10.658   3.994
86967W        W59392  42.975  32.651  11.565
86968W        W59393  15.365  43.316   2.396
86969W        W59394  14.173  36.918   2.496
86970W        W59395   1.383  16.608  13.465
86971W        W59396  14.606  25.731  14.290
86972W        W59397  43.703  25.407  12.081
86973W        W59398  10.047   6.121  10.165
86974W        W59399  41.804  29.177  12.202
86975W        W59400  24.725  43.927  14.424
86976W        W59401  42.762   3.429  10.764
86977W        W59402  34.452  18.606  12.937
86978W        W59403  10.113  30.762  11.512
86979W        W59404  42.496   6.461  12.531
86980W        W59405  14.009  19.657   1.330
86981W        W59406  38.812  19.213   0.782
86982W        W59407  19.492  23.614  10.661
86983W        W59408  12.557   8.698   2.790
86984W        W59409  28.344  22.078  13.589
86985W        W59410  30.589  40.135  12.030
86986W        W59411  21.415   3.250   0.904
86987W        W59412  28.990  14.299  11.466
86988W        W59413   1.437  19.071   0.057
86989W        W59414  36.483  21.347   4.310
86990W        W59415   6.708  35.491   3.056
86991W        W59416   7.313  20.684   4.831
86992W        W59417  43.346  15.638   5.061
86993W        W59418  31.524  17.065  14.902
86994W        W59419   9.769  25.991   1.054
86995W        W59420  12.266  26.548   4.063
86996W        W59421  22.604   6.572  11.563
86997W        W59422  11.785   3.466  10.711
86998W        W59423   0.008   8.305  10.739
86999W        W59424  10.584  17.844  14.295
87000W        W59425  44.861   3.960  10.916
87001W        W59426  32.517   1.380   3.233
87002W        W59427  24.133  27.529   1.561
87003W        W59428  18.888  31.201   1.186
87004W        W59429  20.580   8.359  13.022
87005W        W59430   5.218  23.928   2.666
87006W        W59431  28.425  34.882  10.763
87007W        W59432  19.692  25.282  10.586
87008W        W59433  29.608  27.420  11.963
87009W        W59434  28.184   8.918   5.119
87010W        W59435  27.584  17.157   2.252
87011W        W59436   0.529  11.698  11.111
87012W        W59437  12.364  43.399  12.923
87013W        W59438  15.255   6.779  13.376
87014W        W59439   5.265  30.723   5.081
87015W        W59440   2.934  30.975   1.479
87016W        W59441   9.709  29.612   4.395
87017W        W59442   0.317  17.035  13.866
87018W        W59443   5.719   7.303   1.905
87019W        W59444  23.671  34.869  12.441
87020W        W59445  35.517  34.102  11.488
87021W        W59446  26.626  30.136  13.371
87022W        W59447  32.091  34.953  12.653
87023W        W59448  44.377  43.881   2.711
87024W        W59449   2.694  44.718   0.850
87025W        W59450  37.118   3.162  11.239
87026W        W59451  21.576   2.844   1.211
87027W        W59452  13.860  25.839  11.538
87028W        W59453  10.176   3.827  10.894
87029W        W59454  42.211  38.423  14.010
87030W        W59455   0.973  15.044   3.664
87031W        W59456  10.212  10.391   3.553
87032W        W59457  31.918   9.655  12.730
87033W        W59458   2.903  38.770   3.099
87034W        W59459   0.417   9.765  14.030
87035W        W59460   0.464  31.229   2.870
87036W        W59461  44.993   0.638  14.393
87037W        W59462  44.048   5.955   3.677
87038W        W59463  18.150   5.799  11.602
87039W        W59464  38.107   9.650  11.472
87040W        W59465  26.713  44.083   2.678
87041W        W59466   7.663  44.062   1.930
87042W        W59467  41.443  26.257  12.809
87043W        W59468   1.001  27.395   1.773
87044W        W59469  18.687  15.288   0.387
87045W        W59470   3.716  21.678   4.599
87046W        W59471  27.269   7.512  10.025
87047W        W59472  19.001  37.156  13.567
87048W        W59473   1.896  23.957  14.826
87049W        W59474  17.796  38.810   1.933
87050W        W59475   0.955  26.259  12.273
87051W        W59476   2.780   5.128   4.196
87052W        W59477  15.180  23.486   1.424
87053W        W59478  14.759  35.663  14.800
87054W        W59479   5.797   8.323   3.500
87055W        W59480  25.316  34.154  14.241
87056W        W59481   7.810  38.081   3.245
87057W        W59482  14.722  17.338  14.594
87058W        W59483  44.847  21.470   3.145
87059W        W59484   8.872   3.679  14.997
87060W        W59485  11.606   6.778   4.993
87061W        W59486   7.363   1.160   0.757
87062W        W59487  30.089  41.385  12.961
87063W        W59488  13.663  25.551   4.618
87064W        W59489  25.163  15.630   3.246
87065W        W59490   4.797   4.964   4.204
87066W        W59491  44.988  11.669   1.352
87067W        W59492  30.531  16.364   2.193
87068W        W59493   5.563   5.796   4.276
87069W        W59494  11.308   4.757   1.433
87070W        W59495  39.257  11.023   2.580
87071W        W59496  41.500  31.687  12.718
87072W        W59497   4.777  11.810   4.172
87073W        W59498   3.828   1.907  14.844
87074W        W59499  21.179  37.947  14.923
87075W        W59500  18.417  15.471   4.850
87076W        W59501  29.924  37.031   1.153
87077W        W59502   6.333   4.227  12.160
87078W        W59503  31.564  20.080   3.199
87079W        W59504  25.966   5.245  12.502
87080W        W59505  37.586  20.239   2.729
87081W        W59506   0.929   6.150  13.871
87082W        W59507  35.886  14.096  10.483
87083W        W59508   5.140  41.440   0.868
87084W        W59509   9.223   0.392   3.310
87085W        W59510  19.853   8.226  12.482
87086W        W59511  19.211  37.430  11.446
87087W        W59512   6.161  16.348  12.003
87088W        W59513  25.427  24.154  11.789
87089W        W59514   3.875  15.648  13.976
87090W        W59515  41.618  44.400   0.909
87091W        W59516  24.623  12.283  10.648
87092W        W59517   4.176  19.636   2.504
87093W        W59518   0.884  38.517  12.094
87094W        W59519  25.745   4.646  12.144
87095W        W59520  20.573  42.889  11.266
87096W        W59521  17.046  23.746   1.333
87097W        W59522  12.780   6.059   2.317
87098W        W59523  25.453  36.172   4.563
87099W        W59524  28.206  17.775  10.710
87100W        W59525   0.689  11.043  12.411
87101W        W59526  42.849   2.806   3.931
87102W        W59527  37.402  14.401   2.124
87103W        W59528   1.157   1.840  14.897
87104W        W59529  43.956  29.518   2.414
87105W        W59530   8.200  40.682  12.086
87106W        W59531   5.315   6.392   0.678
87107W        W59532   6.966  16.819  13.909
87108W        W59533   7.208  44.682   1.336
87109W        W59534  13.324  13.361  14.743
87110W        W59535  40.743  24.951   5.328
87111W        W59536  24.224   1.128  10.657
87112W        W59537  24.649  33.517  12.020
87113W        W59538  29.069   6.809  11.138
87114W        W59539   2.203  38.127   2.259
87115W        W59540  10.479  34.388   3.697
87116W        W59541   4.837   2.457   0.847
87117W        W59542  27.745  22.195  10.453
87118W        W59543  30.111  27.899   4.389
87119W        W59544  14.475   5.343   0.733
87120W        W59545  40.792   5.757   1.653
87121W        W59546  29.154  25.039  13.858
87122W        W59547  35.864   1.658  13.509
87123W        W59548  18.140   2.510   0.425
87124W        W59549  43.541  22.583  11.020
87125W        W59550   5.843  16.117   3.034
87126W        W59551  21.515  28.561  13.874
87127W        W59552  32.782  20.853  11.977
87128W        W59553  41.867  33.662   1.394
87129W        W59554  39.496   7.971   4.584
87130W        W59555   0.946  37.431  11.205
87131W        W59556   5.429  10.634  14.458
87132W        W59557  31.553  41.816   1.217
87133W        W59558  34.798  19.800  12.800
87134W        W59559  22.040  26.095  12.340
87135W        W59560  12.655  38.811  14.790
87136W        W59561  19.221  18.199   1.836
87137W        W59562  39.827   6.296   0.372
87138W        W59563  35.107  22.759  13.865
87139W        W59564  27.171  18.774  14.682
87140W        W59565   7.749   7.400  13.107
87141W        W59566   4.572   0.348  12.356
87142W        W59567   5.633  41.542   0.718
87143W        W59568  19.187  39.148   1.183
87144W        W59569  21.300  40.048  13.038
87145W        W59570  30.920  32.495   0.938
87146W        W59571  39.565  44.824   1.490
87147W        W59572  17.592  22.853   1.441
87148W        W59573  18.434  23.099  11.932
87149W        W59574  19.777  35.634   3.413
87150W        W59575  17.707  44.656  13.484
87151W        W59576  35.391  34.483   4.079
87152W        W59577  25.629   2.032   4.128
87153W        W59578   5.907   4.873  11.930
87154W        W59579  18.749  44.737  14.836
87155W        W59580  19.734   9.789  11.834
87156W        W59581  10.144   8.498   2.808
87157W        W59582  11.601  34.789   2.741
87158W        W59583  15.442  10.438  11.301
87159W        W59584  20.996  26.552  11.104
87160W        W59585  40.359  18.979  13.906
87161W        W59586  42.200  30.976   1.807
87162W        W59587  40.206  22.007   4.161
87163W        W59588   0.491   3.270  14.962
87164W        W59589   8.727  34.621  12.943
87165W        W59590   5.412  25.881   4.846
87166W        W59591  24.783  41.524  10.607
87167W        W59592  26.974  41.460   3.253
87168W        W59593   3.803   6.927  14.151
87169W        W59594  32.866  32.099   0.314
87170W        W59595   6.710  25.686  13.580
87171W        W59596  34.253  27.577  13.580
87172W        W59597  23.372  41.615   4.678
87173W        W59598  41.389  10.645  12.784
87174W        W59599  40.104   5.301   0.859
87175W        W59600  37.787   2.342   3.282
87176W        W59601  34.652  15.743   2.209
87177W        W59602  17.130  39.109  13.811
87178W        W59603   4.827   3.325   2.349
87179W        W59604   2.944   0.933   0.386
87180W        W59605  31.530  22.771   0.615
87181W        W59606  12.792   9.066   4.544
87182W        W59607  43.054   0.748  10.540
87183W        W59608  42.400  11.584  12.216
87184W        W59609  11.861   0.944  13.999
87185W        W59610   7.151  41.055  14.367
87186W        W59611   0.020   7.480  13.059
87187W        W59612   4.848  21.407   5.098
87188W        W59613  21.948  34.868   0.550
87189W        W59614   1.830  27.014   3.175
87190W        W59615  24.053   4.855  11.199
87191W        W59616  37.121  26.654   3.701
87192W        W59617  30.930  21.426   4.744
87193W        W59618  33.507  18.254   0.705
87194W        W59619   2.843  40.759  13.285
87195W        W59620  24.061   7.285   1.239
87196W        W59621  39.344  21.047  13.517
87197W        W59622  15.580  40.910   3.886
87198W        W59623  26.418   7.292   4.274
87199W        W59624  17.624  42.322   1.724
87200W        W59625   9.441  12.187   3.411
87201W        W59626   7.565  12.291  12.950
87202W        W59627  36.508  39.981  13.482
87203W        W59628   0.866  30.470   0.314
87204W        W59629  28.654  37.541  11.098
87205W        W59630  43.178  39.508  11.063
87206W        W59631  15.452  30.958   4.601
87207W        W59632   6.198  18.278   3.255
87208W        W59633   7.685  28.440   3.752
87209W        W59634  24.302  33.048  13.836
87210W        W59635  41.237  38.617  13.756
87211W        W59636  26.087   5.721  11.008
87212W        W59637   2.969  34.330  13.462
87213W        W59638   7.844  43.432  10.570
87214W        W59639   1.921  38.073   2.749
87215W        W59640  36.499   7.459   4.258
87216W        W59641  27.358  21.519  14.477
87217W        W59642   5.253   2.101  13.589
87218W        W59643   9.681   4.449  11.505
87219W        W59644   5.333   0.586  13.462
87220W        W59645  19.118   0.747   2.288
87221W        W59646  25.781   1.672  14.044
87222W        W59647  12.616  40.337  13.827
87223W        W59648  17.196  17.205  13.074
87224W        W59649   0.796  41.958   2.428
87225W        W59650  14.130  38.855   2.854
87226W        W59651   1.698   1.845  11.722
87227W        W59652  12.089  34.151  13.326
87228W        W59653  36.558  18.788   2.376
87229W        W59654  14.613   2.564  11.154
87230W        W59655  12.690  14.511  13.169
87231W        W59656  27.196   9.155  13.067
87232W        W59657  43.814  13.387  11.231
87233W        W59658   8.421  31.476  14.016
87234W        W59659  31.933  20.181  13.398
87235W        W59660   3.073  12.864   2.421
87236W        W59661  27.914  31.925   1.769
87237W        W59662   7.224   4.659   0.837
87238W        W59663   5.833  42.166  12.059
87239W        W59664  23.722  27.323   1.854
87240W        W59665  42.358   3.363   3.293
87241W        W59666  24.816  35.834   3.125
87242W        W59667  38.392   8.390  12.189
87243W        W59668  24.730  20.326  13.777
87244W        W59669  20.516  19.725  13.910
87245W        W59670  22.036   4.211   4.529
87246W        W59671  32.365  34.210  11.369
87247W        W59672  24.546  10.353   3.657
87248W        W59673   1.223  38.362  13.281
87249W        W59674  33.957  20.014   3.837
87250W        W59675   2.461  11.724   0.710
87251W        W59676   0.052  16.487   0.904
87252W        W59677  27.376  33.118   4.040
87253W        W59678  17.954  42.490  12.059
87254W        W59679  43.858  11.917   0.733
87255W        W59680   9.318  38.011   2.556
87256W        W59681  42.423   4.301   2.192
87257W        W59682  28.091  11.423   5.151
87258W        W59683  33.841  44.364   0.906
87259W        W59684  13.593   1.204   2.916
87260W        W59685  16.275  33.360   1.180
87261W        W59686   4.354   2.839   3.606
87262W        W59687  42.024  12.838   0.322
87263W        W59688   1.726   6.333   2.144
87264W        W59689   8.405  40.018  13.903
87265W        W59690  40.862   5.499  11.394
87266W        W59691  41.915   1.218  10.198
87267W        W59692  42.436  35.363   4.264
87268W        W59693   0.387  18.235  11.210
87269W        W59694  14.688  12.906  11.840
87270W        W59695   6.880  18.168   2.751
87271W        W59696  13.545  30.671  11.599
87272W        W59697  20.582  22.203  13.096
87273W        W59698   3.372  16.112  10.548
87274W        W59699  20.172   1.942   1.924
87275W        W59700  21.511  33.398   0.338
87276W        W59701  29.122  22.573   1.742
87277W        W59702  22.747  37.380   1.400
87278W        W59703   2.502  29.910   2.759
87279W        W59704  25.454  42.102  12.601
87280W        W59705   3.844  24.716  13.904
87281W        W59706  13.558  44.038  13.048
87282W        W59707  18.081  28.165  13.461
87283W        W59708  15.714  43.521  11.079
87284W        W59709  28.863  33.667   1.205
87285W        W59710  27.937  17.686  11.153
87286W        W59711  10.291  38.489  14.751
87287W        W59712  41.810   8.152   2.566
87288W        W59713  36.373  17.610   4.671
87289W        W59714   9.125  15.775   2.281
87290W        W59715  31.045  24.928   3.314
87291W        W59716   7.564  14.022   2.699
87292W        W59717  17.131  13.174  14.893
87293W        W59718  18.561  30.426  10.877
87294W        W59719   8.632   4.996   1.897
87295W        W59720  10.903  33.882  12.400
87296W        W59721  21.323  37.515   1.906
87297W        W59722  38.337  10.389   1.687
87298W        W59723  14.848  44.759   1.155
87299W        W59724  24.536  32.076  10.191
87300W        W59725  36.435   7.869  12.457
87301W        W59726  41.179  14.188  13.798
87302W        W59727  40.798   8.421  12.471
87303W        W59728  29.585  26.828  12.392
87304W        W59729  35.374  36.260   0.911
87305W        W59730   3.677   8.837   2.448
87306W        W59731  22.686  40.328   4.563
87307W        W59732   0.034  20.596   3.219
87308W        W59733   5.012  36.741   3.771
87309W        W59734  34.682  30.799   0.448
87310W        W59735  16.067  35.361  14.282
87311W        W59736   0.581  12.845  12.977
87312W        W59737  20.177  26.182   4.050
87313W        W59738   3.463  20.672  11.596
87314W        W59739   0.949  26.501   3.187
87315W        W59740   7.755  25.714   0.385
87316W        W59741  20.080  40.064  12.545
87317W        W59742  33.439  32.779  11.630
87318W        W59743  21.572  13.162   2.562
87319W        W59744  19.280  39.147  11.060
87320W        W59745   5.220  11.954   3.254
87321W        W59746  19.543  41.460   2.176
87322W        W59747  43.484  16.723  11.192
87323W        W59748   3.093  17.479   4.111
87324W        W59749  11.063  23.595  14.305
87325W        W59750   1.276  32.675   3.946
87326W        W59751  10.239  11.821   3.090
87327W        W59752  25.947  42.256  12.534
87328W        W59753  37.458  30.456  13.074
87329W        W59754   5.315  33.573  12.459
87330W        W59755   3.024  30.033   4.693
87331W        W59756  11.953  40.076   1.814
87332W        W59757  24.242  30.396  13.416
87333W        W59758  15.657  13.006  12.294
87334W        W59759  13.760  39.939  11.236
87335W        W59760  14.347  33.128  12.404
87336W        W59761  33.459  11.533   3.111
87337W        W59762  15.080   9.898   3.671
87338W        W59763   0.251   9.284   0.303
87339W        W59764  21.759  12.170  11.658
87340W        W59765  38.135  44.735   3.697
87341W        W59766   2.499  24.726  11.007
87342W        W59767   0.690  32.420   2.881
87343W        W59768  17.747  26.307   2.383
87344W        W59769  26.243  15.199  11.986
87345W        W59770  36.467   6.907  11.522
87346W        W59771   3.516  32.996  12.898
87347W        W59772  44.403  44.257   0.804
87348W        W59773   8.638  10.763  13.496
87349W        W59774  43.418   8.348  12.000
87350W        W59775  20.620  30.955  12.335
87351W        W59776  10.833  24.181   4.166
87352W        W59777   1.906  25.053  14.869
87353W        W59778  37.448  30.555   2.760
87354W        W59779  22.078  40.394   2.279
87355W        W59780  37.896  41.367  10.740
87356W        W59781  10.762  26.942   2.369
87357W        W59782  31.474  11.134   3.851
87358W        W59783  13.788  38.471  14.788
87359W        W59784  38.451  10.207   3.323
87360W        W59785  21.275  26.155  14.444
87361W        W59786   4.458  32.619  10.468
87362W        W59787   4.937  22.253  12.921
87363W        W59788  30.142  44.716  11.043
87364W        W59789  28.576  29.894  11.592
87365W        W59790  27.599  28.063  14.879
87366W        W59791  27.676  19.145   3.685
87367W        W59792  13.276  33.590   4.757
87368W        W59793   2.934  20.473   3.154
87369W        W59794  19.529  11.859  14.440
87370W        W59795  10.308  11.586   4.284
87371W        W59796  33.080  26.157   1.425
87372W        W59797  16.719  16.737   2.167
87373W        W59798  33.315  20.809  10.961
87374W        W59799  42.007   9.830   4.301
87375W        W59800  24.629  21.532  12.708
87376W        W59801  10.984  25.456   0.823
87377W        W59802  13.273  36.938  12.947
87378W        W59803  10.993   6.475  13.001
87379W        W59804  21.014  17.264  13.601
87380W        W59805  39.329  42.865   1.308
87381W        W59806  37.156   2.494   0.462
87382W        W59807  33.074   3.476   1.393
87383W        W59808  40.343   7.125  14.965
87384W        W59809  33.353  25.711   4.190
87385W        W59810  31.121  14.823  14.742
87386W        W59811  11.660   9.988   4.189
87387W        W59812   0.926  22.185  12.466
87388W        W59813  40.509  31.198  14.053
87389W        W59814  31.838  20.800   1.916
87390W        W59815  36.014  10.543  12.353
87391W        W59816  26.116  12.616  12.101
87392W        W59817  40.366   4.121   0.783
87393W        W59818  30.073   6.674   1.312
87394W        W59819  19.746  22.164  12.906
87395W        W59820  23.630  15.708   3.915
87396W        W59821  15.720  26.313  14.191
87397W        W59822  43.216  11.237  12.105
87398W        W59823  30.682  14.196  13.535
87399W        W59824  12.721  32.405  14.480
87400W        W59825   1.018  18.749  14.965
87401W        W59826  42.396  27.438   4.695
87402W        W59827   9.351  38.619  11.595
87403W        W59828  43.182  19.621  14.067
87404W        W59829  40.338  34.508   0.428
87405W        W59830  39.006  39.264   0.274
87406W        W59831   1.915   6.494   4.961
87407W        W59832  17.178  16.594   3.621
87408W        W59833  43.411   6.636  11.755
87409W        W59834  38.956  11.982  14.450
87410W        W59835  40.734  33.371   2.159
87411W        W59836  30.362  24.117   4.048
87412W        W59837  29.568  27.181   0.739
87413W        W59838  18.974  26.387   0.995
87414W        W59839   3.919   8.386   3.991
87415W        W59840  21.250   5.312  13.734
87416W        W59841  12.858  42.295   1.742
87417W        W59842  24.967  37.718   1.815
87418W        W59843  36.778  13.320  11.477
87419W        W59844   6.507   1.633   0.202
87420W        W59845  20.048  42.795   0.189
87421W        W59846  15.564  25.533  11.743
87422W        W59847   3.660   2.048   2.851
87423W        W59848   1.426  10.263   3.854
87424W        W59849  31.983   7.951   0.675
87425W        W59850  22.622  38.070   4.569
87426W        W59851  19.154  27.182   2.718
87427W        W59852  19.692  21.829   4.428
87428W        W59853  32.690  18.382   5.102
87429W        W59854   2.516   3.038   2.431
87430W        W59855  14.158   8.115   0.853
87431W        W59856  28.041  27.659   2.902
87432W        W59857  14.544   3.336   1.770
87433W        W59858  14.744   2.420  14.555
87434W        W59859  35.205  41.616   3.561
87435W        W59860  32.149  39.303  12.514
87436W        W59861  44.033   9.429  11.604
87437W        W59862  16.710  23.028   0.456
87438W        W59863  27.431  34.941   1.785
87439W        W59864  21.464  17.241  14.415
87440W        W59865  19.009   9.855   1.705
87441W        W59866  13.852  33.032  11.573
87442W        W59867   4.446  26.147   4.875
87443W        W59868  25.582  37.630  12.966
87444W        W59869  41.464   9.199   0.023
87445W        W59870  38.395   0.336  11.281
87446W        W59871  13.717  37.071   0.198
87447W        W59872   0.691   4.875   3.665
87448W        W59873  22.964   5.321   2.779
87449W        W59874  43.752   6.487   0.324
87450W        W59875  27.182  14.881   0.957
87451W        W59876  40.283  34.907   1.822
87452W        W59877  23.249  44.525  14.576
87453W        W59878  33.313   9.478   4.168
87454W        W59879   5.697   9.063  13.932
87455W        W59880  23.597  35.890   2.307
87456W        W59881  37.782  28.038   2.496
87457W        W59882   2.284  20.520  14.348
87458W        W59883   9.394  31.105   1.269
87459W        W59884   1.479   2.141   3.351
87460W        W59885   7.481  30.276  12.913
87461W        W59886  32.534  19.229  14.312
87462W        W59887  22.003  41.484   4.580
87463W        W59888  35.562  16.293  11.507
87464W        W59889   8.647  43.927   1.708
87465W        W59890  39.629  16.600  11.242
87466W        W59891   4.945   2.823   2.221
87467W        W59892  36.888  34.954   3.283
87468W        W59893  44.976  25.229  12.987
87469W        W59894  21.773  12.372   0.291
87470W        W59895   0.680  29.228  12.497
87471W        W59896  22.679  32.673   0.461
87472W        W59897  31.529   6.224   2.302
87473W        W59898  19.781  36.830   4.103
87474W        W59899   6.309   3.932  14.411
87475W        W59900  32.040  39.404   1.451
87476W        W59901  32.951  16.475  11.514
87477W        W59902   5.396  17.689  12.073
87478W        W59903  37.068  26.115  14.460
87479W        W59904   1.307  24.581   4.624
87480W        W59905  21.709  32.531   2.367
87481W        W59906  11.686  13.470  10.686
87482W        W59907   8.444  20.046  12.899
87483W        W59908  23.156  42.462   1.309
87484W        W59909  15.856  22.838  12.929
87485W        W59910  32.598   5.951  12.549
87486W        W59911  21.724   9.695  10.716
87487W        W59912  23.645  16.616   3.423
87488W        W59913   3.946   5.630  13.350
87489W        W59914  42.231  22.202  14.068
87490W        W59915  28.965  11.220   0.312
87491W        W59916   1.018  19.086   0.367
87492W        W59917  34.402  40.158   1.878
87493W        W59918  16.738  37.505   0.266
87494W        W59919  14.296  10.176  11.503
87495W        W59920  41.535  16.827   3.826
87496W        W59921  14.003  27.393   2.422
87497W        W59922  30.566   6.809   4.453
87498W        W59923   7.772  38.799  12.964
87499W        W59924  30.082  32.122   1.721
87500W        W59925  40.256  12.847  11.455
87501W        W59926  43.468  39.836  13.558
87502W        W59927  10.074  26.087  11.601
87503W        W59928  40.982  26.168   4.230
87504W        W59929  23.092  16.588  12.530
87505W        W59930  13.099  14.848  11.531
87506W        W59931  33.911  30.903  14.554
87507W        W59932  11.139  10.140  10.105
87508W        W59933  21.012  17.185  14.114
87509W        W59934  40.724  33.958   3.946
87510W        W59935  43.748  20.574   2.673
87511W        W59936   7.375  13.742  13.081
87512W        W59937  42.372  30.436  12.132
87513W        W59938   9.031  18.756  11.167
87514W        W59939  29.449   4.314  13.467
87515W        W59940  12.319  35.312   0.276
87516W        W59941   4.436  39.337   3.966
87517W        W59942  13.681  11.311   2.855
87518W        W59943  26.433  25.063  11.990
87519W        W59944   4.879   7.476   0.713
87520W        W59945   9.652  38.070   2.163
87521W        W59946  26.728  41.693  10.646
87522W        W59947   5.476   4.461   1.222
87523W        W59948  35.358  14.832   3.112
87524W        W59949  31.364  37.210   2.755
87525W        W59950   5.303  17.899   1.401
87526W        W59951  25.389  36.351   0.473
87527W        W59952  36.598  27.741  12.548
87528W        W59953  14.771  32.919  12.564
87529W        W59954  10.703  26.161  10.585
87530W        W59955  34.469  32.666  11.126
87531W        W59956   1.291   4.103  10.541
87532W        W59957   8.240  43.348  13.020
87533W        W59958  34.508  12.879   0.375
87534W        W59959  40.503  14.932  13.700
87535W        W59960  36.964  27.186  13.352
87536W        W59961  43.033  13.577   0.130
87537W        W59962   4.880   8.454   0.921
87538W        W59963  34.166  27.219   1.317
87539W        W59964  34.899  13.361   2.380
87540W        W59965   5.415   3.062   1.275
87541W        W59966  15.041   0.357   3.712
87542W        W59967  37.974  16.171  10.757
87543W        W59968   3.257  21.232   1.940
87544W        W59969  24.548   8.699   0.500
87545W        W59970  27.747  11.875   1.963
87546W        W59971   2.429   4.250  12.367
87547W        W59972  24.283  17.696   1.416
87548W        W59973  20.055   8.519  12.094
87549W        W59974  30.255  30.163   1.938
87550W        W59975  29.695  33.363  12.538
87551W        W59976  29.389   5.213  12.375
87552W        W59977   8.629  18.524   3.915
87553W        W59978  44.985  26.010  11.073
87554W        W59979   3.485  21.217   3.778
87555W        W59980  36.096  18.714   2.113
87556W        W59981  17.164  29.064  14.402
87557W        W59982  26.534  29.429   5.038
87558W        W59983  43.961   3.021  11.655
87559W        W59984  10.389  13.021  12.975
87560W        W59985  16.278  44.230   2.423
87561W        W59986   0.301  38.010  14.099
87562W        W59987  22.677  36.887   1.251
87563W        W59988  35.082  42.841  14.303
87564W        W59989  34.423   2.781   1.274
87565W        W59990  37.736  40.130   4.137
87566W        W59991  20.570  22.954  11.715
87567W        W59992  15.557  22.399   3.292
87568W        W59993  33.185  32.179  12.431
87569W        W59994   9.249   9.939   0.354
87570W        W59995  23.950  15.646   1.891
87571W        W59996  23.767  16.180   3.731
87572W        W59997  23.505  25.460  14.508
87573W        W59998   5.394  35.620  14.822
87574W        W59999  11.327  41.726   2.483
87575W        W60000  23.368  21.035   2.173
87576W        W60001   5.964  18.222  14.105
87577W        W60002  34.102   7.227  10.961
87578W        W60003  33.390  42.537   0.421
87579W        W60004   7.302  41.931   3.677
87580W        W60005  10.121  29.201   4.135
87581W        W60006  44.307   5.650  14.394
87582W        W60007   1.717   9.354   4.057
87583W        W60008   2.790   1.432  13.868
87584W        W60009  42.016  38.607  10.996
87585W        W60010  44.411  35.679  14.289
87586W        W60011  30.096  17.364  11.592
87587W        W60012  14.733  10.512   0.040
87588W        W60013  17.041  27.495  13.307
87589W        W60014  14.106  32.453   3.351
87590W        W60015  30.504  29.552   4.340
87591W        W60016   4.199  31.781  12.975
87592W        W60017  15.028   4.378   2.705
87593W        W60018   8.331  38.860  10.098
87594W        W60019  27.489  26.059   4.203
87595W        W60020   1.504  22.687  14.483
87596W        W60021  31.953  40.446  12.505
87597W        W60022  34.095  41.324  12.423
87598W        W60023  17.695  12.674  14.470
87599W        W60024  12.859   8.220  13.414
87600W        W60025  30.176   6.771  10.585
87601W        W60026   6.887   4.713   1.260
87602W        W60027  12.077  38.860   1.419
87603W        W60028  15.205  34.406   3.724
87604W        W60029   3.696  19.978  11.164
87605W        W60030  25.873  10.854   2.299
87606W        W60031   0.990   4.199  13.823
87607W        W60032  13.693  28.982  12.350
87608W        W60033  44.909  37.493  14.774
87609W        W60034  26.313  10.908   3.633
87610W        W60035   8.845  26.771   1.478
87611W        W60036  26.983  21.677  11.908
87612W        W60037  32.038  44.924   0.766
87613W        W60038  22.725   8.545   9.590
87614W        W60039  24.483  36.306   3.134
87615W        W60040  18.057  24.600   1.491
87616W        W60041  18.456  25.407   0.686
87617W        W60042   9.613  25.278  10.670
87618W        W60043  36.496  40.399  12.617
87619W        W60044  15.674  22.814   1.303
87620W        W60045  37.378   7.043  12.065
87621W        W60046   2.730  44.000   3.700
87622W        W60047  17.910  14.095  11.167
87623W        W60048  12.119   4.641  12.527
87624W        W60049  32.997  24.529   3.236
87625W        W60050   0.539  31.902  11.027
87626W        W60051  26.736  32.175  12.636
87627W        W60052  29.212  28.983   1.034
87628W        W60053  44.454   4.268  10.729
87629W        W60054  29.756  39.181   4.165
87630W        W60055  25.325  43.849  12.448
87631W        W60056   0.417  36.933  14.836
87632W        W60057   6.866   4.268  14.419
87633W        W60058  33.530  42.735   3.010
87634W        W60059  32.554  32.067  11.990
87635W        W60060  44.783   6.422   3.658
87636W        W60061   6.316  30.626  14.835
87637W        W60062   0.958  28.293   1.986
87638W        W60063  34.262  31.429   0.417
87639W        W60064  24.416  15.366  13.481
87640W        W60065  27.597  39.496  13.494
87641W        W60066  42.185  25.849  12.140
87642W        W60067  32.474  31.052  10.701
87643W        W60068  22.345  15.620  11.011
87644W        W60069  17.731  17.118  12.938
87645W        W60070  17.806   8.721  11.992
87646W        W60071  11.224  36.512   0.443
87647W        W60072  11.287  43.768  13.971
87648W        W60073  20.979   7.569   5.061
87649W        W60074  33.085  41.462  10.919
87650W        W60075   2.233  43.913  14.106
87651W        W60076  30.146  29.190   2.267
87652W        W60077  29.970  15.394   4.684
87653W        W60078  35.497   8.830  10.633
87654W        W60079  30.139  16.954   1.805
87655W        W60080  11.363  21.519   2.180
87656W        W60081  24.776  25.237  10.494
87657W        W60082  43.482  24.093   1.515
87658W        W60083  29.658  12.564  12.523
87659W        W60084  34.352  25.592  12.050
87660W        W60085  37.104  29.453  13.996
87661W        W60086  27.752  38.496   2.480
87662W        W60087  15.306  17.545   0.787
87663W        W60088  29.118  22.593   3.120
87664W        W60089   2.720  14.250   3.587
87665W        W60090   8.824  33.915   1.164
87666W        W60091  25.213  41.904   3.692
87667W        W60092  42.833  24.384   2.279
87668W        W60093   6.457  11.660  11.477
87669W        W60094  25.673   2.172  13.943
87670W        W60095  39.138  24.186  13.801
87671W        W60096  39.922  25.545  11.260
87672W        W60097  32.415  16.856   3.315
87673W        W60098  28.083   0.792  11.090
87674W        W60099   1.847  11.876  11.173
87675W        W60100  14.866  29.389   1.808
87676W        W60101   8.280  24.216   4.356
87677W        W60102   5.342  14.066  14.705
87678W        W60103  25.924   0.487   2.455
87679W        W60104  14.077  32.557   2.354
87680W        W60105  43.340   0.711   1.727
87681W        W60106  31.998  42.859   3.205
87682W        W60107   4.730  10.658   4.418
87683W        W60108   2.758  20.323  14.379
87684W        W60109  38.898  15.557  10.630
87685W        W60110  35.936  26.057   4.307
87686W        W60111  11.726  16.273   2.901
87687W        W60112  39.589  20.564   0.847
87688W        W60113  25.050  21.485  13.638
87689W        W60114  35.124  20.666   2.756
87690W        W60115  31.697  25.760  13.466
87691W        W60116  23.659   6.249   4.334
87692W        W60117  40.445  21.761  14.316
87693W        W60118  41.998  19.594  12.571
87694W        W60119  34.533  11.935   0.813
87695W        W60120   7.659   5.182   3.228
87696W        W60121  25.046   5.436   3.371
87697W        W60122  23.571  23.838   1.297
87698W        W60123  18.180  12.160   0.663
87699W        W60124  36.588  27.487  13.770
87700W        W60125  14.797  34.016   1.386
87701W        W60126  15.817  23.204   5.264
87702W        W60127  44.686   3.901   4.449
87703W        W60128  22.555   8.331  14.267
87704W        W60129  29.252   5.975  14.623
87705W        W60130  27.099  40.225  10.554
87706W        W60131  39.414  15.761  14.226
87707W        W60132  29.495  16.753  10.880
87708W        W60133  16.882  43.967   1.857
87709W        W60134  43.827  37.052   2.168
87710W        W60135  32.206   4.772  10.684
87711W        W60136   2.819  18.660  10.668
87712W        W60137  18.961   6.778   2.831
87713W        W60138  16.103   1.766  14.869
87714W        W60139   1.744  10.900  13.519
87715W        W60140  38.016  20.685  13.394
87716W        W60141  10.908  15.576  12.435
87717W        W60142  26.934  35.303   3.286
87718W        W60143  25.255  26.371   0.318
87719W        W60144   5.879  30.104  12.552
87720W        W60145  39.717  44.841  12.585
87721W        W60146  15.499  29.675  13.841
87722W        W60147  38.889  20.111   2.315
87723W        W60148  40.331  35.942   0.758
87724W        W60149  28.088  40.819   2.461
87725W        W60150  26.031  17.299   4.455
87726W        W60151  13.811  21.692  11.099
87727W        W60152  32.608  24.593   2.332
87728W        W60153  44.046  35.998   3.123
87729W        W60154  11.804  30.581  12.640
87730W        W60155   0.864  20.764  13.504
87731W        W60156  25.749  14.807  12.052
87732W        W60157  13.553  12.211  14.236
87733W        W60158  38.288   4.075  14.398
87734W        W60159   8.442  27.453   2.419
87735W        W60160  27.288  21.704   0.118
87736W        W60161   4.277  17.876  14.520
87737W        W60162  12.708  12.543  10.887
87738W        W60163  39.281  23.598   4.981
87739W        W60164  10.837  32.440  11.134
87740W        W60165  26.734  23.752  13.872
87741W        W60166   7.444  18.626   4.517
87742W        W60167   6.141  33.135   0.275
87743W        W60168  24.448  23.300  12.400
87744W        W60169   7.768  23.254   0.078
87745W        W60170  18.599  41.354  11.477
87746W        W60171  19.292  38.826  10.632
87747W        W60172   1.313  39.289   4.513
87748W        W60173   5.487  44.803  11.171
87749W        W60174  17.014  26.639  13.784
87750W        W60175  37.887  44.725   4.155
87751W        W60176   0.700  42.323  10.498
87752W        W60177  38.852  24.479   0.757
87753W        W60178  12.998  19.498   3.735
87754W        W60179   3.263  42.958  12.372
87755W        W60180   4.742  15.383  12.892
87756W        W60181   5.194  29.451   0.112
87757W        W60182   4.096  17.373   3.503
87758W        W60183  19.762   0.577   0.917
87759W        W60184  21.444  29.635  12.023
87760W        W60185  16.604  29.109   3.667
87761W        W60186  44.462  43.826  14.850
87762W        W60187  10.212   0.729  11.137
87763W        W60188  39.145  38.295  13.857
87764W        W60189  15.126  17.234   4.124
87765W        W60190  39.491   0.275  14.142
87766W        W60191   9.275   4.373   2.257
87767W        W60192  22.562  28.911  11.611
87768W        W60193  43.861   6.933   1.915
87769W        W60194   8.944  12.620  12.932
87770W        W60195   1.020  37.523   0.095
87771W        W60196  36.370   6.425   4.534
87772W        W60197  29.898   1.324  10.943
87773W        W60198  26.861  20.750   2.852
87774W        W60199  29.985  26.916  13.968
87775W        W60200   2.731  36.006  14.913
87776W        W60201  16.323   5.959   2.861
87777W        W60202  31.644  27.618   0.790
87778W        W60203   8.653   3.633   1.298
87779W        W60204  36.913  21.598   1.423
87780W        W60205  12.181  36.459   4.487
87781W        W60206  17.381  32.797   2.733
87782W        W60207  42.754  28.138  12.871
87783W        W60208  27.464  40.281  12.664
87784W        W60209  26.926  35.480  10.288
87785W        W60210   6.627  21.152   3.182
87786W        W60211   3.736  40.801  13.028
87787W        W60212   3.534   1.814  13.003
87788W        W60213  27.675  39.709  12.354
87789W        W60214   5.156  28.635   0.342
87790W        W60215  30.178  23.842  11.565
87791W        W60216  19.768  24.518   0.946
87792W        W60217   6.281  16.553  11.128
87793W        W60218  27.519  38.917  12.251
87794W        W60219   6.111  40.237   5.142
87795W        W60220  32.441   1.883   3.302
87796W        W60221  29.898  39.347  11.223
87797W        W60222  19.167   9.056  14.243
87798W        W60223  43.843  17.047   4.165
87799W        W60224  23.165  31.977  11.880
87800W        W60225   9.730  44.859   0.283
87801W        W60226  43.375  28.984   4.227
87802W        W60227  38.553  22.118   1.362
87803W        W60228   0.680  11.268  14.319
87804W        W60229  14.962  24.484   2.257
87805W        W60230  12.658  38.347   3.928
87806W        W60231  13.006  11.249  10.613
87807W        W60232  19.698  27.419   1.933
87808W        W60233   2.791  23.248  12.471
87809W        W60234  33.333  21.031   0.769
87810W        W60235  15.341   6.662   3.551
87811W        W60236  44.088  21.252  13.757
87812W        W60237   9.388   8.315  12.191
87813W        W60238  26.045   6.920   2.183
87814W        W60239  23.732  43.056   0.907
87815W        W60240  41.482  29.140  11.718
87816W        W60241  11.587  16.124  13.889
87817W        W60242   0.953  29.417   2.760
87818W        W60243  18.684  34.417   0.902
87819W        W60244  12.699  31.089   4.100
87820W        W60245  18.027  23.671   4.119
87821W        W60246  27.686  32.662   3.429
87822W        W60247   8.736  10.545   1.787
87823W        W60248   5.244   4.701  12.858
87824W        W60249  32.339  12.205   3.638
87825W        W60250   7.993  38.933  14.757
87826W        W60251  24.242   1.403  11.621
87827W        W60252  12.642  20.249   3.235
87828W        W60253  36.093  44.913  12.165
87829W        W60254  32.001  22.745   1.732
87830W        W60255   0.791  27.945   0.357
87831W        W60256  26.232  20.567  13.904
87832W        W60257  19.957  19.628   0.935
87833W        W60258  43.542  12.277   3.280
87834W        W60259  19.879  27.093  13.052
87835W        W60260  14.320  19.490   1.717
87836W        W60261  42.430  28.289   3.304
87837W        W60262  31.116  19.722  11.113
87838W        W60263  42.380  12.744  10.891
87839W        W60264  19.267   9.933   2.144
87840W        W60265  28.642  34.094   4.292
87841W        W60266  11.594  15.643   4.136
87842W        W60267  38.051  13.373   2.867
87843W        W60268   7.616  19.895   2.241
87844W        W60269  23.528  38.511  13.405
87845W        W60270  23.152  19.973  12.500
87846W        W60271  29.681  44.458   3.671
87847W        W60272  11.076   8.847   3.685
87848W        W60273  41.966   9.480   2.738
87849W        W60274  31.476  44.242   3.319
87850W        W60275   4.374   4.390  12.584
87851W        W60276  10.485  17.289  13.233
87852W        W60277  16.983  10.231   3.724
87853W        W60278  40.904  14.916  10.730
87854W        W60279   8.768  17.479  13.512
87855W        W60280  38.416   1.038  13.072
87856W        W60281  29.074  19.531   4.328
87857W        W60282   1.206  29.022  11.996
87858W        W60283  10.132  38.833   3.253
87859W        W60284  44.213  43.465  10.059
87860W        W60285  33.297  35.952  13.905
87861W        W60286  36.090  39.851  13.215
87862W        W60287  23.470  34.069  13.926
87863W        W60288  24.332  18.105   2.667
87864W        W60289  30.531   3.816  11.563
87865W        W60290  31.475  37.045   0.628
87866W        W60291  20.774  42.069  13.925
87867W        W60292  11.625  33.512  10.686
87868W        W60293  14.791   8.969   2.230
87869W        W60294  18.369  19.106  13.515
87870W        W60295  16.535  14.268   0.338
87871W        W60296  29.939   6.776   4.585
87872W        W60297   7.190  10.871  13.392
87873W        W60298   4.213  26.907  13.329
87874W        W60299   4.031   2.362  13.552
87875W        W60300  42.840  25.204  13.006
87876W        W60301  12.876   1.843  12.556
87877W        W60302  24.397  39.727   0.274
87878W        W60303   1.761  30.473  11.335
87879W        W60304   6.003  17.649   2.564
87880W        W60305  20.312  18.624  13.758
87881W        W60306  34.533  34.873   0.298
87882W        W60307  15.227   5.663  13.500
87883W        W60308   5.259  40.342   0.093
87884W        W60309   7.935  24.998  12.096
87885W        W60310  39.566   3.113   0.220
87886W        W60311   6.173  44.294  11.709
87887W        W60312  18.577  23.235   0.862
87888W        W60313   1.978  42.743   1.494
87889W        W60314  33.091  34.056  14.016
87890W        W60315  36.576  25.450  14.854
87891W        W60316  10.361  37.317   2.409
87892W        W60317   3.590  32.750  11.048
87893W        W60318   3.409  26.800  12.118
87894W        W60319  15.863  21.580   2.346
87895W        W60320   3.395  29.610  14.838
87896W        W60321  44.257  36.665   3.216
87897W        W60322  13.311  23.115  12.089
87898W        W60323   5.185  24.126  10.886
87899W        W60324   8.324   9.898  12.910
87900W        W60325  14.518  10.311   2.401
87901W        W60326   4.302  33.384   2.721
87902W        W60327  20.467   3.040  12.553
87903W        W60328  26.502  38.335   3.411
87904W        W60329   3.400  16.080   0.020
87905W        W60330  25.452   2.732   0.239
87906W        W60331  11.731  15.656   0.703
87907W        W60332   0.394   3.861  13.413
87908W        W60333   6.043   1.489  10.780
87909W        W60334  15.703  29.712  12.932
87910W        W60335  12.847  36.325   1.428
87911W        W60336  34.239  31.899  11.556
87912W        W60337  27.906  37.583   2.820
87913W        W60338  21.657  34.468  11.027
87914W        W60339  30.324  41.033   3.279
87915W        W60340  31.367  12.787  14.020
87916W        W60341  13.540  13.653   2.341
87917W        W60342  17.903   3.377   4.936
87918W        W60343  44.831  26.651  13.878
87919W        W60344   1.217  41.037  10.697
87920W        W60345  15.792  39.972   4.325
87921W        W60346  40.424  20.534  11.146
87922W        W60347   7.786  23.098  11.693
87923W        W60348   3.476  37.299   1.686
87924W        W60349  12.380  12.916  10.837
87925W        W60350  38.208  42.373   1.865
87926W        W60351   6.271  22.027   4.197
87927W        W60352   9.676  29.157  12.084
87928W        W60353   6.938   4.323  11.490
87929W        W60354  15.845  16.641  13.023
87930W        W60355  30.619  14.216  14.945
87931W        W60356  29.999   4.929   2.798
87932W        W60357  26.009  37.620   0.037
87933W        W60358  30.454   9.631  12.601
87934W        W60359  10.295  41.527   2.642
87935W        W60360  42.817   9.110   3.642
87936W        W60361  39.776  24.056   1.753
87937W        W60362   4.410  44.507  13.410
87938W        W60363  12.836  25.711   2.041
87939W        W60364  16.955  11.862   2.467
87940W        W60365   9.895   8.405   2.348
87941W        W60366   3.304  12.348   2.868
87942W        W60367  43.780   4.786  11.123
87943W        W60368   2.354  12.289   2.755
87944W        W60369  18.679  27.353   0.657
87945W        W60370  32.385   3.485  14.725
87946W        W60371  24.608   0.365   1.484
87947W        W60372  19.267  17.613  13.905
87948W        W60373   5.088  34.748  13.485
87949W        W60374   5.763  22.157   4.322
87950W        W60375  12.652  16.076   3.749
87951W        W60376  10.311   8.314   0.761
87952W        W60377  37.965  32.413   2.774
87953W        W60378   6.478   8.720   1.760
87954W        W60379  10.617  30.456  12.884
87955W        W60380  18.202  20.726  14.953
87956W        W60381  19.770   5.895   1.119
87957W        W60382  29.897  42.346  11.165
87958W        W60383  35.879  17.803   0.787
87959W        W60384  39.327  16.075   4.128
87960W        W60385  20.114   7.766   3.088
87961W        W60386  39.567  36.014   4.124
87962W        W60387   7.648  33.586   3.252
87963W        W60388  39.765  43.119  12.534
87964W        W60389  29.015   2.836   2.751
87965W        W60390  19.110   2.214  12.122
87966W        W60391  43.624  37.231  10.924
87967W        W60392  21.858  11.303  10.127
87968W        W60393  22.323  12.261   4.753
87969W        W60394  39.523  34.957   3.130
87970W        W60395  28.256  31.167   1.151
87971W        W60396   0.282  36.976   1.672
87972W        W60397  35.484   7.296  13.653
87973W        W60398  32.487   6.868  14.025
87974W        W60399  27.420  29.506   3.571
87975W        W60400  31.620  37.540   2.280
87976W        W60401  44.508  11.501   0.257
87977W        W60402   6.288   6.335  14.287
87978W        W60403   6.832  23.718   1.848
87979W        W60404  20.350  28.550  11.175
87980W        W60405   9.815  19.218   1.361
87981W        W60406  16.985  23.174  14.486
87982W        W60407  13.222  11.088  14.023
87983W        W60408  28.948  38.768   4.034
87984W        W60409  22.720  23.383  11.035
87985W        W60410  25.300  34.675   0.723
87986W        W60411   9.764   4.313   0.700
87987W        W60412  34.491  23.245   2.325
87988W        W60413  27.694  17.706  14.046
87989W        W60414  13.372   0.651   1.967
87990W        W60415  13.554   3.412  12.969
87991W        W60416  42.134   8.662  11.133
87992W        W60417  15.734  28.861  14.216
87993W        W60418  15.862  24.598   0.115
87994W        W60419  23.731  35.646   2.740
87995W        W60420  44.372   5.891   1.200
87996W        W60421  37.914   9.184   1.887
87997W        W60422  18.895  37.429   2.700
87998W        W60423  15.244  18.870  14.577
87999W        W60424  12.153   0.825  13.220
88000W        W60425  41.493  41.427  11.947
88001W        W60426  43.049  34.546   1.766
88002W        W60427  25.599   5.180  12.022
88003W        W60428  34.568  20.118   2.158
88004W        W60429  29.144  36.778   4.385
88005W        W60430  41.546  40.338  14.404
88006W        W60431  32.122  25.307   5.051
88007W        W60432  23.952  31.433  10.772
88008W        W60433  11.899  41.038  11.240
88009W        W60434  36.094  25.555   2.383
88010W        W60435   5.793  29.086   3.831
88011W        W60436   5.413   4.681  12.059
88012W        W60437  20.994   2.921   4.005
88013W        W60438  26.213  42.816   1.162
88014W        W60439  29.936   1.560   4.044
88015W        W60440  12.517  31.871   3.666
88016W        W60441  36.924  36.867  14.919
88017W        W60442  11.768  18.043  13.878
88018W        W60443  28.754  34.244   4.790
88019W        W60444   2.701  10.387   3.097
88020W        W60445  40.049  43.088   3.862
88021W        W60446  27.849   5.359  11.502
88022W        W60447  22.195   7.026  14.345
88023W        W60448  10.058  34.033   3.340
88024W        W60449  44.421  20.306  12.946
88025W        W60450  29.860  29.196   4.972
88026W        W60451   2.720  19.813   0.320
88027W        W60452  22.122   9.646   2.386
88028W        W60453  35.006   9.754  10.575
88029W        W60454  25.723  22.606   2.239
88030W        W60455   3.484   0.817  10.065
88031W        W60456   1.947  19.282   2.693
88032W        W60457  22.843  17.602  12.392
88033W        W60458  33.429  10.896   3.928
88034W        W60459  28.421  30.465  13.897
88035W        W60460  44.432   0.414  13.739
88036W        W60461   6.226   4.231   4.467
88037W        W60462  44.976  22.246  12.368
88038W        W60463  27.132  28.090   0.699
88039W        W60464  18.096  30.618  11.165
88040W        W60465  44.895  33.943   1.446
88041W        W60466  19.749  13.939   0.924
88042W        W60467  44.972  40.342  13.311
88043W        W60468  35.611  11.062   0.442
88044W        W60469  15.334  25.037  14.386
88045W        W60470  42.699  23.454   1.179
88046W        W60471  15.204  28.560   0.829
88047W        W60472  38.033  12.213  12.955
88048W        W60473  17.642  25.119   0.898
88049W        W60474  22.266  19.518  12.377
88050W        W60475  20.283  13.639   3.333
88051W        W60476  42.964  19.314   4.038
88052W        W60477   2.386  29.804  12.694
88053W        W60478   5.426  15.059  14.995
88054W        W60479  25.519  37.396   2.816
88055W        W60480  42.309  21.344   4.774
88056W        W60481  30.649  22.301  14.883
88057W        W60482  34.666  34.669  11.096
88058W        W60483  15.303  20.050   4.629
88059W        W60484   1.630  29.889  13.597
88060W        W60485  26.679  43.009   1.276
88061W        W60486   2.685   5.855   3.675
88062W        W60487  44.316  33.075   3.253
88063W        W60488   8.682  25.692  14.729
88064W        W60489  28.920  38.330   0.304
88065W        W60490   2.169  13.775  14.983
88066W        W60491   6.537  39.857   0.778
88067W        W60492  41.588  19.301   0.776
88068W        W60493  20.989  30.546   3.225
88069W        W60494  17.714  18.060  14.297
88070W        W60495  27.120  25.489   4.485
88071W        W60496  27.242  41.407   1.714
88072W        W60497   4.746  35.230   2.281
88073W        W60498  14.273  25.705   4.468
88074W        W60499  43.600  32.427  14.305
88075W        W60500  25.947  11.572   2.995
88076W        W60501  39.828   8.367   2.990
88077W        W60502  26.282   0.193   2.667
88078W        W60503   4.363  14.592  11.168
88079W        W60504  21.646  21.854   1.155
88080W        W60505   0.984  22.182   2.852
88081W        W60506  19.932  23.369  10.546
88082W        W60507  43.451  38.525   0.910
88083W        W60508  11.283  22.878  11.112
88084W        W60509  10.421  13.963   4.266
88085W        W60510  43.893  33.910  13.961
88086W        W60511   3.256  22.024   0.598
88087W        W60512   3.399  43.786  10.727
88088W        W60513  11.845  29.984  10.516
88089W        W60514  11.818  26.038   2.115
88090W        W60515  19.756   4.160   1.860
88091W        W60516  44.011  18.863  11.937
88092W        W60517  33.825  31.188   0.590
88093W        W60518   4.934   9.921  11.697
88094W        W60519  26.738  27.770   2.681
88095W        W60520  30.034  18.897  11.254
88096W        W60521   0.303  19.116  12.021
88097W        W60522  20.111  27.607   2.196
88098W        W60523  26.088   7.442   2.246
88099W        W60524  39.083  19.604   4.655
88100W        W60525  40.196  30.576   4.559
88101W        W60526  13.902  37.944   3.220
88102W        W60527  19.065  11.813  11.499
88103W        W60528  13.864  28.553  12.998
88104W        W60529   0.309  36.307  12.228
88105W        W60530   6.478  22.538   3.252
88106W        W60531  28.112  21.308   2.843
88107W        W60532   3.511  43.910  12.015
88108W        W60533  20.343  39.903   1.766
88109W        W60534   7.664  37.451  12.203
88110W        W60535   4.034  27.996  13.848
88111W        W60536  10.672   9.476  14.836
88112W        W60537  26.987   5.257   2.295
88113W        W60538  27.898  36.417   1.850
88114W        W60539  31.060  28.349  12.898
88115W        W60540  44.371  16.531  11.178
88116W        W60541  21.643   2.529  12.461
88117W        W60542  43.533  15.896  13.673
88118W        W60543  36.610   8.254  11.039
88119W        W60544  38.117  28.425  14.340
88120W        W60545  33.384  34.262   9.947
88121W        W60546  37.607  44.767   3.694
88122W        W60547  20.273  10.911  13.003
88123W        W60548  24.962  41.435   4.519
88124W        W60549   2.628   3.841  11.585
88125W        W60550  36.143  18.100  14.550
88126W        W60551  31.220  10.012   3.839
88127W        W60552  16.738  30.974   4.941
88128W        W60553  42.952  33.439  12.028
88129W        W60554  37.468  35.598   2.318
88130W        W60555  37.794  37.846  12.669
88131W        W60556  31.929  31.389  13.784
88132W        W60557  15.774  15.556  14.274
88133W        W60558  31.379  27.261  14.314
88134W        W60559  25.257  24.230  14.214
88135W        W60560  38.250  30.830   0.279
88136W        W60561  41.083  24.082   3.780
88137W        W60562  26.699  36.953  13.522
88138W        W60563  40.555  10.239  14.491
88139W        W60564  35.125  38.852   4.391
88140W        W60565   4.824   7.248   4.729
88141W        W60566   0.215   6.751   4.573
88142W        W60567  20.265  20.529  13.587
88143W        W60568  15.267  39.585   1.172
88144W        W60569   9.695  25.474   1.218
88145W        W60570  40.943  30.690   2.900
88146W        W60571  35.873  35.514  10.824
88147W        W60572   9.963  17.146   0.773
88148W        W60573  25.886  16.554   4.781
88149W        W60574  21.573  28.678  10.819
88150W        W60575  38.372  32.945   0.451
88151W        W60576  35.821  23.076   4.141
88152W        W60577  35.275  28.228   5.251
88153W        W60578  33.568   3.733  13.819
88154W        W60579  42.552  36.462   4.542
88155W        W60580  23.134  18.024   1.367
88156W        W60581  39.412  24.243   3.283
88157W        W60582  31.418  27.924  12.539
88158W        W60583   4.377   9.890  13.051
88159W        W60584   1.790  21.767  13.031
88160W        W60585  20.266  10.195  10.603
88161W        W60586  18.710   9.800   0.251
88162W        W60587  23.042  22.662  11.782
88163W        W60588  39.139  14.813   4.701
88164W        W60589  17.643   2.374   5.198
88165W        W60590  19.070   2.274  11.187
88166W        W60591   2.660   9.098   4.252
88167W        W60592   9.539   3.528  14.420
88168W        W60593  25.890  35.985  14.299
88169W        W60594  27.540  28.093   1.448
88170W        W60595  32.122  16.255  13.580
88171W        W60596  15.856  10.145   1.308
88172W        W60597  26.184  22.226   5.270
88173W        W60598  24.138   0.713  10.952
88174W        W60599   3.353  15.098   3.279
88175W        W60600  36.624  31.923  12.980
88176W        W60601  35.604  20.154   0.323
88177W        W60602   0.537  20.446  10.446
88178W        W60603  35.822  25.021   4.605
88179W        W60604  20.257  29.886   4.596
88180W        W60605   7.365  40.805  12.927
88181W        W60606  27.610  12.198   4.768
88182W        W60607  15.454  21.837  12.378
88183W        W60608  26.966  27.235   1.287
88184W        W60609   0.816  43.479   0.259
88185W        W60610  29.954  32.088  11.992
88186W        W60611   6.617  12.119   2.340
88187W        W60612  28.634   9.454  11.921
88188W        W60613  34.320  32.584   3.676
88189W        W60614  39.012  25.170  11.157
88190W        W60615  28.654  25.228  10.614
88191W        W60616  24.462   8.589   4.085
88192W        W60617  38.168  42.942   4.022
88193W        W60618  37.038  24.523  11.611
88194W        W60619  22.544  21.749  12.584
88195W        W60620  19.678   2.666  14.920
88196W        W60621   5.153   3.396  14.437
88197W        W60622   9.843  27.410  11.522
88198W        W60623  17.688  15.664  14.327
88199W        W60624  11.630  36.089   1.504
88200W        W60625  27.085  15.395   0.935
88201W        W60626  11.669  18.825   4.714
88202W        W60627  29.463  30.693  11.597
88203W        W60628  38.317  14.794  10.795
88204W        W60629  37.041   5.793   4.696
88205W        W60630  20.631  32.018  12.563
88206W        W60631  36.439  10.174   3.539
88207W        W60632  18.502  15.623   1.850
88208W        W60633  28.572  40.820   2.788
88209W        W60634   3.091  36.867  11.627
88210W        W60635  33.326  10.435  12.135
88211W        W60636  33.284  36.120  11.973
88212W        W60637  18.185  24.029  12.412
88213W        W60638  31.184  22.138  10.731
88214W        W60639   9.588  36.395  11.074
88215W        W60640  39.367  29.543   4.382
88216W        W60641  20.633   0.521   1.223
88217W        W60642  41.456  30.173  12.885
88218W        W60643  25.079  16.627  10.748
88219W        W60644  29.454  36.528   1.859
88220W        W60645   9.333  27.552  14.803
88221W        W60646  20.323   3.670  12.441
88222W        W60647  17.108   5.023   4.475
88223W        W60648  21.451   5.012  11.632
88224W        W60649  27.456  15.730  13.870
88225W        W60650  14.646  37.795   1.470
88226W        W60651  17.068  38.973   3.338
88227W        W60652  11.644  40.545   9.991
88228W        W60653  14.585  37.026   0.217
88229W        W60654  20.020   5.610   4.178
88230W        W60655  43.711   1.419   0.482
88231W        W60656   2.677   5.720  10.822
88232W        W60657  19.130  36.318   3.655
88233W        W60658   1.340  23.753  12.012
88234W        W60659  44.893  39.413   2.371
88235W        W60660  29.197  44.765   2.554
88236W        W60661  21.991  41.857   2.903
88237W        W60662  14.618  39.377  10.971
88238W        W60663  13.233   4.773   1.035
88239W        W60664  21.620  10.439   9.838
88240W        W60665  32.595  41.341   2.193
88241W        W60666  25.214  41.804  11.442
88242W        W60667  13.110  17.139  14.913
88243W        W60668  14.294  42.066   1.801
88244W        W60669   2.524  10.065  13.653
88245W        W60670   4.334  41.506   1.153
88246W        W60671  25.033  31.476  10.781
88247W        W60672   5.387  18.781  14.393
88248W        W60673   4.312   8.570  13.556
88249W        W60674  25.579  33.689   2.723
88250W        W60675   0.192  32.188  12.107
88251W        W60676  36.524   7.940  13.402
88252W        W60677  17.232  29.689   4.235
88253W        W60678   6.891  11.753  13.445
88254W        W60679  41.197   5.148  12.288
88255W        W60680   4.790   5.923   2.709
88256W        W60681  17.248  42.815  13.355
88257W        W60682  33.642  30.923   2.302
88258W        W60683  33.788  15.640  10.718
88259W        W60684   4.198   6.288   0.240
88260W        W60685  15.783  12.246   0.404
88261W        W60686  21.791   1.009  11.576
88262W        W60687  20.611   3.554   1.316
88263W        W60688  14.235  36.377   3.782
88264W        W60689  15.857  20.824   0.420
88265W        W60690   1.255   9.841   3.633
88266W        W60691   0.285  12.570  13.900
88267W        W60692  38.135  10.918  12.475
88268W        W60693  18.975   3.777  10.732
88269W        W60694  20.567  26.211   3.716
88270W        W60695  20.654  11.765  13.348
88271W        W60696   3.793  38.610   0.266
88272W        W60697   2.802  23.070  13.321
88273W        W60698  32.567  36.040  10.418
88274W        W60699  41.454  14.326   1.858
88275W        W60700  26.001  28.746  13.052
88276W        W60701   1.402  26.247  11.461
88277W        W60702  12.399  16.186   3.299
88278W        W60703  10.244  19.084   1.040
88279W        W60704  17.738  39.464   4.191
88280W        W60705  10.109  39.012  12.041
88281W        W60706   0.396  29.432   0.050
88282W        W60707  33.222   9.565   0.704
88283W        W60708  12.789  10.643  12.659
88284W        W60709   1.359   2.020  11.283
88285W        W60710  41.212  37.742   4.108
88286W        W60711  30.183   4.184  12.059
88287W        W60712  44.975   0.318   0.757
88288W        W60713  43.942  22.007  11.659
88289W        W60714  22.481  35.581  14.293
88290W        W60715  19.831  13.410   3.609
88291W        W60716  32.568  43.881  10.374
88292W        W60717   7.707  33.455   1.478
88293W        W60718  18.149  37.596  13.928
88294W        W60719   3.992  18.851  14.692
88295W        W60720  12.744   4.609   4.139
88296W        W60721   2.273  27.615  12.589
88297W        W60722  28.660  27.159  10.672
88298W        W60723   6.437  43.013   3.776
88299W        W60724   8.874   8.023  14.308
88300W        W60725  20.236  17.114   0.236
88301W        W60726  44.561   4.878   1.339
88302W        W60727  31.428   1.327  12.043
88303W        W60728  20.575  35.994  13.365
88304W        W60729  34.115  24.488   2.547
88305W        W60730  29.471  27.052  12.856
88306W        W60731  23.912  14.294   1.375
88307W        W60732  30.464  35.413   4.317
88308W        W60733  22.741   2.870  14.851
88309W        W60734  44.847   9.116  14.333
88310W        W60735  31.220  11.079  14.487
88311W        W60736  21.945  40.596  10.990
88312W        W60737  44.759  11.092  14.192
88313W        W60738  32.608  43.930   3.393
88314W        W60739  36.278  21.563   2.440
88315W        W60740  44.304   2.914  12.567
88316W        W60741  12.167  25.039   2.873
88317W        W60742  13.980  20.070  12.159
88318W        W60743  42.882  30.364  13.962
88319W        W60744  37.054  38.333  10.890
88320W        W60745  22.688   6.609  10.682
88321W        W60746  33.928   0.534  14.377
88322W        W60747  24.716   6.616  12.619
88323W        W60748  30.604  18.753   1.193
88324W        W60749  12.978  15.644   2.416
88325W        W60750  29.814   4.191   0.827
88326W        W60751  23.504   1.435   0.125
88327W        W60752  33.193  20.905   2.424
88328W        W60753  28.511   2.496   0.819
88329W        W60754  25.593  22.041   4.556
88330W        W60755   9.830   6.453   9.819
88331W        W60756   4.995   7.685  13.517
88332W        W60757  43.296  34.041   1.909
88333W        W60758  44.271  13.624  11.188
88334W        W60759  19.654  17.304  13.121
88335W        W60760  37.557  18.835   3.353
88336W        W60761  17.049   9.838  10.801
88337W        W60762  41.350   2.869  12.993
88338W        W60763  36.966  32.650  13.391
88339W        W60764  29.482  15.509   0.494
88340W        W60765  20.121  43.536  14.916
88341W        W60766  27.528  15.696  12.992
88342W        W60767   1.327  43.000  12.087
88343W        W60768  36.091  21.146  14.794
88344W        W60769  30.430   2.183   3.369
88345W        W60770  22.306  42.438  14.425
88346W        W60771  16.776  23.975   4.578
88347W        W60772  24.426   3.050  13.932
88348W        W60773   1.742  17.211   3.358
88349W        W60774  37.318  15.350   4.600
88350W        W60775  35.625  17.325  11.500
88351W        W60776  39.752  43.292   2.932
88352W        W60777  11.976  41.831  11.696
88353W        W60778  37.510  44.754  11.329
88354W        W60779  38.856  35.462  14.750
88355W        W60780  27.452   1.220  11.578
88356W        W60781   1.057  18.753   0.749
88357W        W60782  12.360  17.587   2.297
88358W        W60783   8.912  15.733  10.625
88359W        W60784  12.794  29.823   2.028
88360W        W60785   3.122   7.741   0.861
88361W        W60786  34.495  13.351   4.593
88362W        W60787  18.287  27.428   3.699
88363W        W60788   1.555  43.968   3.329
88364W        W60789  28.735  33.343  14.272
88365W        W60790   2.699  17.417  14.310
88366W        W60791   6.956  18.849   4.606
88367W        W60792  21.449   2.845  10.984
88368W        W60793  37.736  39.381  11.477
88369W        W60794  16.773  29.663  13.627
88370W        W60795  40.110   8.379   3.398
88371W        W60796  11.410  15.083  12.614
88372W        W60797  10.095  30.609  11.021
88373W        W60798  27.279   8.636   3.153
88374W        W60799  29.085  41.370  10.931
88375W        W60800  20.164  37.485   4.716
88376W        W60801  34.554   9.855   2.253
88377W        W60802   3.716   5.249   0.448
88378W        W60803  12.210  11.435   1.242
88379W        W60804  32.067  22.643   4.060
88380W        W60805  44.276  41.533  12.013
88381W        W60806  31.842  18.029  13.410
88382W        W60807   1.427  32.541  13.395
88383W        W60808  30.403  16.941  10.223
88384W        W60809  37.472  13.346   0.328
88385W        W60810  12.711   7.403   1.788
88386W        W60811  27.424   0.711   1.353
88387W        W60812   7.160  10.249   2.806
88388W        W60813   6.295   3.794  12.512
88389W        W60814  34.117  21.292  12.032
88390W        W60815  44.337  10.877  11.519
88391W        W60816  26.565  14.634   1.732
88392W        W60817  18.162  19.142   2.845
88393W        W60818  13.570  30.723   3.760
88394W        W60819  36.853  29.491  14.461
88395W        W60820  29.995   9.678  13.788
88396W        W60821  25.425   3.690   2.649
88397W        W60822  40.710   6.168   4.532
88398W        W60823  38.404   4.417  13.977
88399W        W60824   3.526  16.307  13.057
88400W        W60825  42.127  27.989   4.601
88401W        W60826   4.447  10.859   3.730
88402W        W60827   5.912  23.753  10.773
88403W        W60828   9.751  13.249   4.445
88404W        W60829   1.470  29.636   0.509
88405W        W60830  21.083  44.985   0.425
88406W        W60831  22.011  11.744  11.958
88407W        W60832  19.467  26.246   2.655
88408W        W60833  10.787  38.527   3.435
88409W        W60834  42.005  25.073  13.991
88410W        W60835  38.318  22.653  14.436
88411W        W60836  15.339  11.814  12.155
88412W        W60837  44.844  26.989  11.615
88413W        W60838  11.301  21.016  14.914
88414W        W60839  11.381  37.281  12.155
88415W        W60840  10.108  29.501   0.391
88416W        W60841  32.153  20.809   4.565
88417W        W60842  31.071  34.919   2.336
88418W        W60843   0.534  10.125  12.526
88419W        W60844  29.844  34.989  12.873
88420W        W60845  15.068  19.821   1.652
88421W        W60846  36.181  23.143   9.766
88422W        W60847  13.590  37.493   4.118
88423W        W60848  20.073  40.369  11.033
88424W        W60849   3.977  26.505  14.937
88425W        W60850  33.040  36.985   1.351
88426W        W60851   0.962  10.805   0.933
88427W        W60852  38.573  22.601  13.369
88428W        W60853  24.159  41.864  11.307
88429W        W60854  10.217   8.473   1.788
88430W        W60855  28.198  40.391   1.420
88431W        W60856  14.696  19.292   3.798
88432W        W60857   8.125  23.046   2.281
88433W        W60858  34.566  12.046   4.116
88434W        W60859   1.782   9.918   3.632
88435W        W60860   0.348  19.123   1.902
88436W        W60861  14.337   5.093  13.628
88437W        W60862  30.708  39.216  12.592
88438W        W60863  38.305   2.872   3.973
88439W        W60864  17.832  38.454   4.119
88440W        W60865  39.289   4.504  12.922
88441W        W60866  21.243  14.854   3.237
88442W        W60867   1.945  23.417  12.451
88443W        W60868  16.282  16.113   1.658
88444W        W60869   4.003  31.896   0.422
88445W        W60870  26.584  13.145  13.387
88446W        W60871  13.548  24.907  12.590
88447W        W60872   0.602  16.424   0.026
88448W        W60873  43.912  18.048  14.029
88449W        W60874  15.147  18.002  12.946
88450W        W60875   3.414  21.747  13.801
88451W        W60876  19.215  29.951  10.777
88452W        W60877  41.157  32.064  12.510
88453W        W60878   8.456  13.274   3.668
88454W        W60879   7.438  28.117  14.985
88455W        W60880   6.354  27.272  11.048
88456W        W60881  27.534  15.192   0.695
88457W        W60882  37.265   8.849  12.987
88458W        W60883  35.084  28.058   2.919
88459W        W60884  14.818  18.234  14.978
88460W        W60885  18.780  43.771  13.834
88461W        W60886   9.127  32.124  11.107
88462W        W60887  29.427  34.541  13.447
88463W        W60888   7.336  44.523   4.245
88464W        W60889  40.820  41.837   4.562
88465W        W60890  39.459  13.715   3.313
88466W        W60891  23.927  28.759  13.898
88467W        W60892  12.038   8.685  12.057
88468W        W60893   2.757  34.297   1.756
88469W        W60894  26.424  24.671  12.635
88470W        W60895   6.422  19.005   0.963
88471W        W60896  22.172   2.031   2.833
88472W        W60897  42.917  37.025   4.183
88473W        W60898  30.107  25.152   4.389
88474W        W60899  43.095   7.122   1.835
88475W        W60900  10.695  13.352  12.070
88476W        W60901  41.557  33.825  14.051
88477W        W60902  39.369  16.852   0.903
88478W        W60903   2.187   3.421   2.276
88479W        W60904  17.701  28.009   1.457
88480W        W60905  32.575  41.831   3.644
88481W        W60906   8.544  10.617  11.096
88482W        W60907  28.376  37.602   3.582
88483W        W60908   7.455   1.531  13.833
88484W        W60909  27.597  31.911  11.960
88485W        W60910  44.907  35.031  13.964
88486W        W60911  17.770  42.388   4.157
88487W        W60912  35.898  15.878  14.368
88488W        W60913  38.955  31.232   1.249
88489W        W60914  44.982  29.992   2.010
88490W        W60915   9.905  39.715  13.907
88491W        W60916  27.317  32.878  14.934
88492W        W60917   8.123  38.095   1.889
88493W        W60918  39.088  10.581  13.624
88494W        W60919  21.991  32.114   4.512
88495W        W60920   3.852  42.131  10.534
88496W        W60921  40.412  32.085   3.658
88497W        W60922  28.225  39.295  14.292
88498W        W60923  19.003  29.066   3.247
88499W        W60924  34.425   9.369   2.114
88500W        W60925   0.667  29.927  11.153
88501W        W60926   9.940  13.542  14.923
88502W        W60927  18.555  42.658   1.321
88503W        W60928  12.357  32.601  11.151
88504W        W60929   5.310  10.654   2.079
88505W        W60930   3.014  13.775   4.359
88506W        W60931   4.835  10.904   0.824
88507W        W60932   5.204   3.053   3.276
88508W        W60933   3.393   8.646  13.471
88509W        W60934  44.237  31.587  10.867
88510W        W60935  10.658  26.091  13.487
88511W        W60936   8.086  21.920  13.277
88512W        W60937   0.444  16.589  14.538
88513W        W60938  29.437  30.702  14.005
88514W        W60939  16.734  12.101  11.978
88515W        W60940  41.082  32.407   2.226
88516W        W60941  16.116  43.928  10.761
88517W        W60942   2.820  10.094   0.502
88518W        W60943  32.581  16.132  11.691
88519W        W60944  41.789  12.053   4.303
88520W        W60945  39.773  15.350  13.408
88521W        W60946  35.765  38.476   4.184
88522W        W60947   5.841  33.585  13.278
88523W        W60948  37.633  41.786  11.039
88524W        W60949  12.189   2.558  12.042
88525W        W60950  15.978   8.789   4.940
88526W        W60951  37.850  30.863   2.686
88527W        W60952  10.908  20.780  13.956
88528W        W60953  18.202  12.706  10.739
88529W        W60954   5.124   7.936   0.715
88530W        W60955  33.112  10.375   4.355
88531W        W60956   8.095  33.551  13.979
88532W        W60957  10.776  23.566  10.545
88533W        W60958  34.141  16.614  12.732
88534W        W60959  37.186  15.379   0.798
88535W        W60960  15.320   0.047   1.159
88536W        W60961  44.870  35.994   0.262
88537W        W60962  28.175  14.301   3.855
88538W        W60963  12.591  12.092  13.970
88539W        W60964   5.842  31.504   3.835
88540W        W60965  15.397  11.405   4.158
88541W        W60966  33.904  29.649   3.452
88542W        W60967  38.550  35.364   3.200
88543W        W60968  42.676   7.394  14.241
88544W        W60969  17.233   0.245   3.175
88545W        W60970   2.523  23.239  10.666
88546W        W60971  23.995  32.907  12.428
88547W        W60972  36.095  13.272  12.991
88548W        W60973   6.305  31.835  13.506
88549W        W60974  13.108   1.213  11.319
88550W        W60975  13.851   9.845  13.106
88551W        W60976   7.612  22.069   3.800
88552W        W60977  25.952   0.914   4.622
88553W        W60978   6.136  18.305   0.487
88554W        W60979  11.955  27.047   0.303
88555W        W60980  16.952   7.437  11.975
88556W        W60981   7.447  27.119   1.412
88557W        W60982  42.921  30.024  11.433
88558W        W60983  20.490  23.890  10.744
88559W        W60984   5.183  43.021  13.515
88560W        W60985   4.869  24.086   4.762
88561W        W60986  37.391   1.955  14.792
88562W        W60987   3.158  24.462   3.225
88563W        W60988  20.557  28.693   3.046
88564W        W60989  39.137   7.253  14.359
88565W        W60990   2.290  14.766  14.269
88566W        W60991  17.942  34.336  11.936
88567W        W60992   1.724  16.707   4.272
88568W        W60993  29.018  20.796  14.569
88569W        W60994   2.835  25.524  11.115
88570W        W60995  33.582  14.264   3.183
88571W        W60996  20.135  27.507   3.279
88572W        W60997  33.147   9.694  11.158
88573W        W60998  12.083  15.876   2.864
88574W        W60999  33.034  29.649  14.426
88575W        W61000  21.534   5.495   0.835
88576W        W61001  24.903   5.421   0.321
88577W        W61002  16.515  17.083  11.141
88578W        W61003   3.436  35.513  10.767
88579W        W61004  27.232  11.786   1.254
88580W        W61005  40.385  36.381   1.490
88581W        W61006  19.144   0.717   9.889
88582W        W61007  26.153  43.841  13.810
88583W        W61008  11.402   8.444  11.024
88584W        W61009  32.242   0.317   4.533
88585W        W61010   2.359  21.143  13.493
88586W        W61011  42.934  37.568   3.310
88587W        W61012   4.401   9.085  13.440
88588W        W61013  12.378  37.078  10.507
88589W        W61014  14.849  41.867  12.879
88590W        W61015  32.448  14.691   2.461
88591W        W61016  23.750  31.165  11.852
88592W        W61017   3.219  14.835   2.835
88593W        W61018  31.100  33.921   2.455
88594W        W61019   7.347  31.638  14.937
88595W        W61020   0.258   7.831  11.566
88596W        W61021  42.353  23.604   0.817
88597W        W61022  43.252  27.208  12.845
88598W        W61023   2.254  27.357   2.737
88599W        W61024  36.748  11.143  12.458
88600W        W61025  19.228   2.228   1.340
88601W        W61026  30.118  12.159  10.596
88602W        W61027  29.624  20.977   3.223
88603W        W61028  34.799  16.315  11.011
88604W        W61029   1.182  35.329  13.920
88605W        W61030  15.151   1.249  10.996
88606W        W61031   1.614  35.171  14.493
88607W        W61032  19.142  31.341  14.502
88608W        W61033  43.067   7.249   4.955
88609W        W61034  22.525  35.209   3.456
88610W        W61035   5.912  19.497   4.023
88611W        W61036  17.568  42.702  13.777
88612W        W61037  27.046  42.760   2.797
88613W        W61038  12.385  15.611   3.756
88614W        W61039  31.104  18.825   1.288
88615W        W61040  40.959  20.668   3.902
88616W        W61041  42.326  38.915  14.685
88617W        W61042  41.583  20.844   3.372
88618W        W61043   5.627  23.282   1.329
88619W        W61044  19.605  29.449   4.182
88620W        W61045  16.596  42.124  10.666
88621W        W61046   2.394   6.150  10.787
88622W        W61047  22.632  36.579  10.670
88623W        W61048   7.418   3.905   2.326
88624W        W61049  20.023  44.825  12.259
88625W        W61050  16.798  32.692  11.115
88626W        W61051   8.741  22.244   3.191
88627W        W61052   3.783  28.341   9.956
88628W        W61053   7.528  16.743  11.115
88629W        W61054  26.900   3.912  12.844
88630W        W61055   6.708  14.866  12.952
88631W        W61056  22.141   4.868  14.263
88632W        W61057  35.164   6.691  13.410
88633W        W61058  23.736   0.802   3.203
88634W        W61059   9.641  19.068   3.248
88635W        W61060   4.912   3.155   2.832
88636W        W61061  10.148  29.205   2.286
88637W        W61062   0.794   2.660   1.354
88638W        W61063  10.376  27.955   0.381
88639W        W61064  21.243   4.887  14.408
88640W        W61065   7.018  22.763   0.236
88641W        W61066  41.438  15.428  13.913
88642W        W61067  10.289  27.183   2.247
88643W        W61068  19.695  10.860  11.434
88644W        W61069  20.905  15.647  11.624
88645W        W61070  23.235  39.955  11.006
88646W        W61071  20.704  38.141   4.956
88647W        W61072  15.567  21.084  14.318
88648W        W61073   2.382  13.452  10.770
88649W        W61074  13.032  36.401  12.725
88650W        W61075  15.186  14.078   4.891
88651W        W61076   0.894   0.258  12.971
88652W        W61077   5.354  25.409  13.802
88653W        W61078  22.669   4.520  12.584
88654W        W61079   8.913  13.350  14.058
88655W        W61080   4.871  30.370   3.852
88656W        W61081  22.761  25.244  10.928
88657W        W61082  22.120  22.020   1.958
88658W        W61083  27.680  43.221  11.591
88659W        W61084  41.178  16.804  14.464
88660W        W61085  31.689  22.172   3.256
88661W        W61086  31.952   7.127  13.503
88662W        W61087  20.594  26.644   3.401
88663W        W61088  41.924  14.526   1.733
88664W        W61089  23.057  29.985  12.361
88665W        W61090  22.027  13.639  12.270
88666W        W61091  14.388  36.812  13.016
88667W        W61092  41.029  17.456  12.513
88668W        W61093  26.639  11.850  13.941
88669W        W61094  10.881   3.294   1.976
88670W        W61095   7.387  11.188   4.320
88671W        W61096  30.018  27.891  14.959
88672W        W61097   4.370  10.728   3.232
88673W        W61098  12.519  21.338   2.258
88674W        W61099  38.829  25.967   4.751
88675W        W61100  39.187  16.594  12.561
88676W        W61101  19.227  27.556  14.449
88677W        W61102  29.360   8.415   0.924
88678W        W61103  22.538  13.223   0.227
88679W        W61104   5.424  39.479   2.130
88680W        W61105  32.450  16.629   4.330
88681W        W61106  19.893  22.878  10.646
88682W        W61107  35.851  24.942  14.795
88683W        W61108  26.043   5.392   3.241
88684W        W61109  42.988  40.468  14.013
88685W        W61110  41.711   0.479  13.377
88686W        W61111  10.103  40.416  11.614
88687W        W61112  20.072  39.049   1.481
88688W        W61113  36.954  24.000  12.358
88689W        W61114  42.408   2.056  12.974
88690W        W61115  13.650  42.325   0.472
88691W        W61116  34.881  43.112   4.478
88692W        W61117  33.920  36.646   4.071
88693W        W61118  33.592  29.384  13.008
88694W        W61119   6.412  23.954   3.720
88695W        W61120  19.203   9.910  12.959
88696W        W61121  35.346  42.010  14.706
88697W        W61122  26.632   8.824  11.273
88698W        W61123  15.281  42.831  14.838
88699W        W61124   4.698   0.883  13.958
88700W        W61125  14.516  31.053  11.659
88701W        W61126  44.280  10.264   1.197
88702W        W61127  21.704  39.554  14.987
88703W        W61128  27.037  23.066  10.584
88704W        W61129  27.887   5.653   0.387
88705W        W61130  13.133  43.287  10.758
88706W        W61131   2.816  28.354  11.593
88707W        W61132  35.619  13.021  12.903
88708W        W61133  22.541  15.174  11.169
88709W        W61134   9.791   5.179   4.595
88710W        W61135   7.912  23.792   1.866
88711W        W61136   3.712  16.519  14.505
88712W        W61137  21.986  18.300   1.710
88713W        W61138  26.835  25.200   2.737
88714W        W61139  24.435  30.055   1.560
88715W        W61140  19.706   8.685   3.650
88716W        W61141   2.898  34.984   2.001
88717W        W61142  15.775  31.477  10.077
88718W        W61143   9.694  11.141   0.978
88719W        W61144  42.606  15.172  14.454
88720W        W61145  23.064  13.309  11.176
88721W        W61146  23.472   3.375   2.595
88722W        W61147  43.961  15.825  10.670
88723W        W61148   0.727  17.052   3.153
88724W        W61149  26.968  16.114  14.613
88725W        W61150  24.709  38.940  10.850
88726W        W61151  41.026  44.688   9.980
88727W        W61152  38.303  21.185  13.418
88728W        W61153  33.465  27.776   2.527
88729W        W61154  43.803   4.601   0.886
88730W        W61155  16.669  18.324  13.582
88731W        W61156  12.251   5.483  13.824
88732W        W61157  13.502   4.340  11.175
88733W        W61158  30.136  32.520  11.179
88734W        W61159   0.497  30.362   5.042
88735W        W61160  11.122  44.065  12.519
88736W        W61161  17.218   9.399   3.938
88737W        W61162   2.077  40.913   0.414
88738W        W61163  15.908  13.821   0.867
88739W        W61164   4.318  26.427   4.437
88740W        W61165  16.306  43.136  11.191
88741W        W61166  30.199  24.912  12.690
88742W        W61167  27.176   9.881  13.874
88743W        W61168  39.172  34.055  10.766
88744W        W61169   9.347   2.539  14.934
88745W        W61170  41.549  41.891   3.641
88746W        W61171  40.815  31.339   2.370
88747W        W61172  13.119  22.165   0.294
88748W        W61173  39.917  13.238  13.088
88749W        W61174  25.214  20.110   2.862
88750W        W61175  25.192  33.343  12.433
88751W        W61176  37.477   8.658  11.121
88752W        W61177  43.708  40.580   4.093
88753W        W61178  40.995  42.019  10.761
88754W        W61179   1.259  39.760   2.242
88755W        W61180  44.896  37.363  11.655
88756W        W61181  33.053  30.385  13.772
88757W        W61182  10.438  40.048   1.377
88758W        W61183  22.587  19.256   1.280
88759W        W61184  22.165  44.390   3.647
88760W        W61185  33.223  11.707   1.690
88761W        W61186  16.636  39.088  10.435
88762W        W61187  27.499  44.977   0.803
88763W        W61188  25.657   6.474  13.038
88764W        W61189  36.772  10.876  11.231
88765W        W61190  17.055  41.444   0.709
88766W        W61191  20.238  41.010   1.123
88767W        W61192  13.527  25.292  13.020
88768W        W61193   7.588  12.912  11.051
88769W        W61194  44.930  13.251  11.515
88770W        W61195   6.821  11.205   3.049
88771W        W61196  40.438  27.701  12.125
88772W        W61197   9.948   5.888   5.046
88773W        W61198  23.473  20.682  11.336
88774W        W61199  20.070  32.058   0.686
88775W        W61200  10.306  11.937   2.580
88776W        W61201  40.902  34.438  11.911
88777W        W61202   0.484  26.077  12.556
88778W        W61203  37.878  15.327  14.008
88779W        W61204  35.853  29.050   3.080
88780W        W61205   5.439  26.227  14.963
88781W        W61206  37.313  41.995  12.890
88782W        W61207  44.946   5.952  11.365
88783W        W61208   6.915  27.226   0.901
88784W        W61209  10.757  20.678   2.407
88785W        W61210   7.947  23.855   4.237
88786W        W61211  39.831  28.451  10.683
88787W        W61212  10.869   1.334   1.758
88788W        W61213  18.663  29.822  12.084
88789W        W61214  37.942   8.644  11.494
88790W        W61215   8.999   7.474   4.349
88791W        W61216  38.489  43.379  12.756
88792W        W61217  15.285  22.430   0.437
88793W        W61218  26.124  34.927  13.906
88794W        W61219  10.902   1.677  13.179
88795W        W61220  19.615  13.698  14.504
88796W        W61221   8.390  21.999  11.113
88797W        W61222  24.194  26.530   2.416
88798W        W61223  43.406   5.211   0.299
88799W        W61224  25.927  33.367   0.360
88800W        W61225  23.112   0.781  14.982
88801W        W61226  10.917  15.196  14.247
88802W        W61227  18.472   8.879  13.842
88803W        W61228  33.903  11.955  12.453
88804W        W61229  44.837  44.378  14.050
88805W        W61230  34.020  36.089   0.308
88806W        W61231   3.711  37.138   2.437
88807W        W61232   7.202   7.323   1.442
88808W        W61233   6.683  15.250  13.327
88809W        W61234   9.261  38.700  14.289
88810W        W61235  27.904  22.565   2.475
88811W        W61236  32.008  35.393  11.989
88812W        W61237   7.853  30.169   4.405
88813W        W61238  35.848  34.643   0.377
88814W        W61239  18.641  33.994  14.409
88815W        W61240  20.530  12.626  14.951
88816W        W61241  22.272  21.211   3.676
88817W        W61242  38.103  41.245  13.514
88818W        W61243   0.547  44.826  13.480
88819W        W61244  44.493   8.786  12.637
88820W        W61245  32.371  37.984   1.302
88821W        W61246  42.044  44.286  13.865
88822W        W61247  24.570  18.848   3.860
88823W        W61248  37.427  36.108  12.812
88824W        W61249  25.310   9.275   1.426
88825W        W61250   5.187  16.773   2.184
88826W        W61251  22.715  24.562  13.340
88827W        W61252  37.986   5.733   0.271
88828W        W61253  10.177  29.190  14.922
88829W        W61254  12.062  37.466  12.508
88830W        W61255   0.774  14.316  14.722
88831W        W61256  25.766  20.018   1.249
88832W        W61257  15.133  36.325  14.864
88833W        W61258  30.100  14.908   2.198
88834W        W61259   6.273  41.353   2.128
88835W        W61260   2.137  36.621  13.407
88836W        W61261  23.480  36.522  13.209
88837W        W61262  15.183   7.281   4.391
88838W        W61263  35.281  22.647   4.699
88839W        W61264  43.377  16.289   3.294
88840W        W61265  27.676  34.971   4.347
88841W        W61266  11.242  36.334   3.998
88842W        W61267   1.061   2.786  11.846
88843W        W61268   3.512  27.658   4.263
88844W        W61269  11.180  15.999  12.598
88845W        W61270   3.462  24.063   3.262
88846W        W61271  18.912  31.928  12.275
88847W        W61272  37.260   0.148  11.637
88848W        W61273   8.905  27.051  14.908
88849W        W61274  35.342  35.337   1.833
88850W        W61275  38.941   2.341  14.483
88851W        W61276  44.237   0.943  11.672
88852W        W61277  25.228  39.520  13.386
88853W        W61278  32.166  38.169  13.401
88854W        W61279   4.394  35.593   1.073
88855W        W61280  43.539  20.539  10.675
88856W        W61281  42.741  22.979  14.904
88857W        W61282  29.062  29.196  12.918
88858W        W61283  10.652  25.720  12.055
88859W        W61284   2.850  12.221   2.600
88860W        W61285  43.228  12.263  14.424
88861W        W61286  38.338   6.502  11.214
88862W        W61287  12.610   4.830   4.726
88863W        W61288  34.589  34.354   1.672
88864W        W61289  36.066   4.284  10.987
88865W        W61290   7.672  32.407  11.346
88866W        W61291  39.163  36.945  13.404
88867W        W61292   4.645  38.729   3.261
88868W        W61293  31.107  39.489   3.662
88869W        W61294  27.994   4.754  12.202
88870W        W61295  27.099  40.795  13.672
88871W        W61296  12.038   3.228  12.336
88872W        W61297  43.388  44.966   4.806
88873W        W61298  38.647  28.680   1.401
88874W        W61299   1.914   4.704  13.008
88875W        W61300  20.193  13.355   0.176
88876W        W61301  37.217   8.633   3.886
88877W        W61302  40.652  26.011   0.404
88878W        W61303  41.082  22.539   1.025
88879W        W61304  25.588  43.500  10.951
88880W        W61305  26.427   0.248   4.361
88881W        W61306   4.853   7.665  10.929
88882W        W61307  17.344  27.604   0.283
88883W        W61308  41.803  38.935   4.169
88884W        W61309  35.133  23.618   1.385
88885W        W61310  26.962  26.008  14.122
88886W        W61311  37.364   3.467  13.478
88887W        W61312  41.402  33.606  12.103
88888W        W61313  13.150  16.135   4.625
88889W        W61314  18.744  13.250  11.719
88890W        W61315  38.017   4.775  14.926
88891W        W61316  44.965  38.078  11.167
88892W        W61317  16.832  22.658  14.932
88893W        W61318  21.517   6.321   0.878
88894W        W61319   2.480   1.077   1.045
88895W        W61320  29.964  14.527   2.570
88896W        W61321  43.006   5.266  12.969
88897W        W61322   7.980  29.545  11.203
88898W        W61323  40.788  39.649  14.569
88899W        W61324   2.470  21.540  14.194
88900W        W61325  17.208  10.169   1.411
88901W        W61326   7.296  22.185  14.348
88902W        W61327  32.932  38.460   1.950
88903W        W61328  10.729   3.492   0.983
88904W        W61329  15.623  31.425   2.423
88905W        W61330  30.391  33.584   4.282
88906W        W61331  42.208  17.140  13.330
88907W        W61332  32.618  27.564  10.433
88908W        W61333  42.309  26.913   3.643
88909W        W61334  20.349  15.300  14.292
88910W        W61335  17.844   8.112   2.266
88911W        W61336  22.834  32.154  11.496
88912W        W61337   1.938  31.424  13.802
88913W        W61338  12.386  42.277   3.601
88914W        W61339   1.869   9.385   1.868
88915W        W61340  25.106  20.198  14.501
88916W        W61341  25.471   5.367   0.104
88917W        W61342  10.714  33.445  12.131
88918W        W61343   9.785   2.450  13.736
88919W        W61344  14.090  12.784  13.485
88920W        W61345   1.703   5.668   2.746
88921W        W61346  35.259  31.920   2.605
88922W        W61347  11.164  13.499   4.843
88923W        W61348  31.623  18.623  11.442
88924W        W61349  10.833  16.589   0.875
88925W        W61350   1.830  40.645  11.875
88926W        W61351   3.832  31.234   4.185
88927W        W61352  11.160  12.737  13.170
88928W        W61353  27.164   2.372   2.155
88929W        W61354  39.403  11.955  14.782
88930W        W61355  44.944  43.430   3.171
88931W        W61356  21.743  22.651  11.054
88932W        W61357  31.213  29.943   0.889
88933W        W61358  43.088   8.004   2.707
88934W        W61359   9.460  28.560  12.638
88935W        W61360  27.109  15.087   3.293
88936W        W61361  33.025   5.025  11.461
88937W        W61362  27.563   4.706  12.846
88938W        W61363  12.586  23.974   2.818
88939W        W61364  15.545   7.259  12.994
88940W        W61365  15.066  12.089   1.719
88941W        W61366  39.093   2.317   3.713
88942W        W61367   9.146   8.958   9.761
88943W        W61368  22.722   3.377  14.862
88944W        W61369  20.216  28.394   2.749
88945W        W61370  26.163   4.179   1.954
88946W        W61371   8.239  18.189   4.632
88947W        W61372  10.680   8.370  12.920
88948W        W61373  29.080  39.346   1.806
88949W        W61374  36.306  21.585   0.428
88950W        W61375   1.466  40.739  14.884
88951W        W61376   4.915  23.788  11.559
88952W        W61377  31.835  12.765   4.246
88953W        W61378   2.846   9.789   1.697
88954W        W61379   5.066  34.558   1.852
88955W        W61380  43.289  44.360  13.028
88956W        W61381  15.954  22.812  10.068
88957W        W61382  13.443  13.558  13.753
88958W        W61383  35.297  39.833  14.449
88959W        W61384  42.869   7.468  12.826
88960W        W61385  19.241  44.887   0.985
88961W        W61386  16.780  44.797   2.268
88962W        W61387  18.066  27.533   2.308
88963W        W61388  28.160  36.568   0.195
88964W        W61389  38.982  36.420  11.648
88965W        W61390  10.206   0.178   0.404
88966W        W61391  31.569  23.216  11.881
88967W        W61392   3.258  40.870   3.481
88968W        W61393  23.047   7.620   5.467
88969W        W61394  44.806  38.346   3.836
88970W        W61395  20.971  26.959  13.527
88971W        W61396  18.183   0.190  11.748
88972W        W61397  30.346  43.026  12.183
88973W        W61398   7.273   8.702  10.543
88974W        W61399  31.557  40.584   3.293
88975W        W61400  11.776  11.252  11.164
88976W        W61401  22.580  15.829   1.254
88977W        W61402  25.599   0.960   1.840
88978W        W61403  36.333   8.348  14.008
88979W        W61404   3.363   9.392   3.631
88980W        W61405   8.188  19.145   4.627
88981W        W61406   6.829  20.257   4.711
88982W        W61407  40.343  25.637  13.887
88983W        W61408  14.275  16.225   4.516
88984W        W61409  11.048  20.125   4.598
88985W        W61410  24.606  34.333  14.544
88986W        W61411  33.285  18.576   1.479
88987W        W61412  15.385  33.173  10.474
88988W        W61413  35.544  31.220  12.535
88989W        W61414  16.132   7.712   1.743
88990W        W61415  33.876  31.193  12.996
88991W        W61416  16.010  27.108  12.483
88992W        W61417  37.380  19.162  11.147
88993W        W61418   2.787  10.048  14.335
88994W        W61419   7.973  33.909   0.635
88995W        W61420  16.510   6.693   0.777
88996W        W61421  37.963   6.161  12.192
88997W        W61422  15.265  24.127   3.733
88998W        W61423  25.235   3.116   3.880
88999W        W61424  40.386  32.207  11.996
89000W        W61425  32.661  37.333  14.337
89001W        W61426  12.639   2.746  11.890
89002W        W61427  17.020  35.057   2.792
89003W        W61428  13.777  30.908  11.124
89004W        W61429  10.560  21.175   4.196
89005W        W61430   3.934  18.685   3.322
89006W        W61431  32.352  15.697  11.524
89007W        W61432  21.308  13.322  11.491
89008W        W61433   2.258  17.966   3.782
89009W        W61434  36.605   5.279  13.576
89010W        W61435  20.617  18.718   0.980
89011W        W61436  44.395   7.088  12.909
89012W        W61437  24.215  32.337  13.445
89013W        W61438   9.381   3.157  11.935
89014W        W61439   7.227   8.559  12.459
89015W        W61440   4.421  16.215   0.879
89016W        W61441  37.878  42.811   1.841
89017W        W61442  40.351   3.334   5.016
89018W        W61443  36.945  32.753   2.779
89019W        W61444  38.412  23.083   4.237
89020W        W61445  42.042  16.746   1.361
89021W        W61446  31.012   6.251   2.260
89022W        W61447  29.733  37.854  13.370
89023W        W61448  18.126  32.681  13.436
89024W        W61449  26.471  14.686   2.821
89025W        W61450  15.841  25.183  12.856
89026W        W61451  14.687  28.023  10.697
89027W        W61452   7.237  29.983  14.185
89028W        W61453  39.887  19.132   1.491
89029W        W61454  17.296  43.237  11.978
89030W        W61455  16.139  14.246  11.090
89031W        W61456   4.338  27.344   0.884
89032W        W61457   7.079  13.155  11.648
89033W        W61458  29.483  17.356  14.965
89034W        W61459  15.322  27.208  13.912
89035W        W61460  24.980  25.904  10.630
89036W        W61461  39.817  32.089   1.752
89037W        W61462  25.565  19.932   0.769
89038W        W61463  31.188  44.460  14.864
89039W        W61464  13.119  13.752  10.548
89040W        W61465  17.962   0.335   4.192
89041W        W61466  10.926  33.180   2.610
89042W        W61467  35.925   3.182  12.448
89043W        W61468  31.081  14.662   1.304
89044W        W61469   5.893  12.226   3.833
89045W        W61470  28.082  13.597   0.062
89046W        W61471  27.491  42.449   2.827
89047W        W61472  40.283  43.945  11.002
89048W        W61473  41.031  31.129  12.802
89049W        W61474  41.794  31.610   4.660
89050W        W61475  37.480  39.936  10.648
89051W        W61476  13.368  30.455   3.349
89052W        W61477  23.227  20.074  11.242
89053W        W61478  35.537  37.948   4.810
89054W        W61479  22.545  11.301  14.382
89055W        W61480   8.856  36.081  13.262
89056W        W61481   9.240  15.513  13.297
89057W        W61482  26.640  33.367  14.425
89058W        W61483  44.257  27.740  14.523
89059W        W61484  35.093   5.908  11.239
89060W        W61485   1.883  33.980  11.835
89061W        W61486  32.639   3.710  13.131
89062W        W61487   6.893  11.310   4.494
89063W        W61488  38.565   3.007  10.957
89064W        W61489  42.540  19.074   3.163
89065W        W61490  18.479  26.439   0.804
89066W        W61491  30.303   0.687  12.909
89067W        W61492  20.083  39.436  13.352
89068W        W61493  16.509  41.016   5.041
89069W        W61494  20.914  17.707  12.404
89070W        W61495  44.472  40.623  14.845
89071W        W61496  26.948  15.702   4.685
89072W        W61497  27.692  40.384   1.442
89073W        W61498  24.844  36.421  14.771
89074W        W61499  25.633  34.682  14.041
89075W        W61500   9.042   9.147  13.022
89076W        W61501  32.663  27.204  14.870
89077W        W61502  38.419  43.410  11.519
89078W        W61503   8.730  12.092   3.709
89079W        W61504  33.059  18.724  13.601
89080W        W61505   4.884  31.169   5.007
89081W        W61506   6.285  43.003   1.625
89082W        W61507  10.334  31.608   0.468
89083W        W61508  29.990  10.062  10.542
89084W        W61509  34.348   7.868  12.545
89085W        W61510   7.660   2.719  13.097
89086W        W61511  44.251  21.870  12.930
89087W        W61512  11.115  35.658  14.690
89088W        W61513  15.271   8.687   3.206
89089W        W61514  13.842  25.068   2.922
89090W        W61515  34.182  43.600   3.297
89091W        W61516  28.634  26.189  11.864
89092W        W61517  35.309   3.826   0.853
89093W        W61518   3.165  18.155   2.150
89094W        W61519  22.644   0.255   4.668
89095W        W61520   4.359  17.412   0.412
89096W        W61521   5.308  28.210   4.437
89097W        W61522  25.137  13.269  10.757
89098W        W61523   8.039  22.800  12.543
89099W        W61524  18.160   9.263   0.213
89100W        W61525  41.355  25.201  13.026
89101W        W61526   6.582  36.627  12.018
89102W        W61527  24.507  26.074   4.634
89103W        W61528  18.591  21.434   2.133
89104W        W61529  22.447  40.758  11.869
89105W        W61530  31.517  10.816  10.944
89106W        W61531  36.000  10.393   4.614
89107W        W61532  11.438  27.519   1.246
89108W        W61533   3.583  23.233   0.949
89109W        W61534  12.640  30.855   1.849
89110W        W61535  44.350   7.111  13.408
89111W        W61536  42.975  12.366  11.402
89112W        W61537  18.799  36.524  13.031
89113W        W61538  43.303   9.704   2.521
89114W        W61539  35.659  23.812  10.182
89115W        W61540   7.438  21.583  12.166
89116W        W61541  31.211  17.215   2.635
89117W        W61542  22.422  29.619   2.937
89118W        W61543  28.547  22.234  12.894
89119W        W61544  21.058   8.374   3.899
89120W        W61545   5.262   1.387   0.477
89121W        W61546   8.570  22.846   4.953
89122W        W61547   0.437  31.546   3.267
89123W        W61548  26.967  25.533  12.478
89124W        W61549  27.324  37.030   2.199
89125W        W61550  17.730  39.104  12.184
89126W        W61551  34.385   1.305  13.915
89127W        W61552  17.634  18.609   4.490
89128W        W61553   0.422  35.343   1.308
89129W        W61554  12.547  36.683   2.809
89130W        W61555  28.064  39.765  13.516
89131W        W61556  39.419  44.926  11.054
89132W        W61557  39.993  17.266  12.941
89133W        W61558  26.659  25.965  12.429
89134W        W61559  15.284  44.197   4.775
89135W        W61560  29.023   7.587   1.093
89136W        W61561  17.855  24.848  12.515
89137W        W61562  31.101   8.649   5.427
89138W        W61563  17.573  20.696  12.144
89139W        W61564  21.030  19.672  11.707
89140W        W61565  19.327  16.677   3.284
89141W        W61566  14.463  25.259  14.790
89142W        W61567  39.326  14.337   4.718
89143W        W61568   8.973  25.881   4.631
89144W        W61569  25.364  14.841   3.851
89145W        W61570  27.745   8.421   3.248
89146W        W61571  44.263   0.087  13.329
89147W        W61572  11.365  42.130  13.433
89148W        W61573  13.547   7.132  11.176
89149W        W61574  19.730  24.795   1.391
89150W        W61575  15.099  27.870  12.876
89151W        W61576  35.558  22.307   0.893
89152W        W61577  28.729   2.926   4.517
89153W        W61578  21.659  27.238  12.938
89154W        W61579  28.738  20.573   2.864
89155W        W61580  15.395   4.714   3.629
89156W        W61581  34.503  23.086  13.972
89157W        W61582  32.422   2.503  11.426
89158W        W61583  35.598  22.377  11.959
89159W        W61584   9.630  40.911  12.942
89160W        W61585  25.606  21.707   2.277
89161W        W61586  38.401  23.155   4.767
89162W        W61587  30.047  14.771   1.223
89163W        W61588  16.125   4.026  12.011
89164W        W61589  38.410  10.250  12.333
89165W        W61590  13.738  27.510   4.864
89166W        W61591  12.798   2.869  13.042
89167W        W61592  42.898  37.424  10.252
89168W        W61593  36.407  28.471  13.858
89169W        W61594  42.625   8.766  11.010
89170W        W61595  20.165  22.781   0.229
89171W        W61596   0.829   8.699   0.737
89172W        W61597  40.363  18.123   1.303
89173W        W61598  27.506  11.264   0.420
89174W        W61599  32.438  16.107   0.248
89175W        W61600   8.214  16.688  13.455
89176W        W61601   1.449   9.558  13.436
89177W        W61602  31.684  19.714   1.402
89178W        W61603  38.848   7.362  10.006
89179W        W61604   5.023  15.526   2.697
89180W        W61605   2.770  43.632  13.990
89181W        W61606   4.164  34.443   1.452
89182W        W61607  28.671   9.847  10.960
89183W        W61608   9.780  32.596   2.202
89184W        W61609   8.778  15.240  10.992
89185W        W61610  40.813   7.613   4.092
89186W        W61611  29.670  24.967  13.708
89187W        W61612   4.314  21.590   1.317
89188W        W61613  16.828  17.322   0.025
89189W        W61614  21.712  20.574   2.980
89190W        W61615  23.553  37.380  11.863
89191W        W61616  38.874  15.033  14.808
89192W        W61617   5.174  23.564   9.930
89193W        W61618  41.010  10.821  10.640
89194W        W61619   3.991  23.073   1.840
89195W        W61620  32.678  18.199   1.932
89196W        W61621  14.184  10.759   4.281
89197W        W61622  39.022   4.216  14.727
89198W        W61623   4.257   3.394  13.484
89199W        W61624  35.946  22.322   3.796
89200W        W61625  17.519   9.584  10.814
89201W        W61626  43.215   7.679  10.419
89202W        W61627   4.508   5.843   1.858
89203W        W61628  34.216   1.340  14.922
89204W        W61629  33.423  18.519   4.556
89205W        W61630  31.693  18.523  11.954
89206W        W61631  11.014  37.921  11.648
89207W        W61632  10.040  36.617  14.417
89208W        W61633  32.966  16.545   4.295
89209W        W61634  41.971  36.362  14.415
89210W        W61635   8.621  12.595   0.722
89211W        W61636  18.781   6.843   1.365
89212W        W61637   2.900  19.692  13.900
89213W        W61638  14.052  14.781  12.504
89214W        W61639  21.498  38.376   4.426
89215W        W61640  31.237  35.060  14.427
89216W        W61641  21.275  32.032  11.161
89217W        W61642  16.163  30.955  14.350
89218W        W61643  28.447  18.155   1.406
89219W        W61644  19.428  39.046   3.364
89220W        W61645  36.847  34.691   0.121
89221W        W61646   8.762  32.926  14.790
89222W        W61647  34.360  14.129  11.711
89223W        W61648  25.137  23.060   2.490
89224W        W61649  37.833  39.374   3.335
89225W        W61650  23.656   0.265   1.022
89226W        W61651  23.997  28.863  12.996
89227W        W61652  23.124  27.679   3.726
89228W        W61653  38.384  23.064   1.236
89229W        W61654  12.337  43.864   4.688
89230W        W61655  18.094   2.066  13.487
89231W        W61656  44.752  10.876   2.704
89232W        W61657  21.575  20.266  13.381
89233W        W61658  10.703   4.657  14.704
89234W        W61659   0.200  16.512   3.241
89235W        W61660   3.182  11.506   3.244
89236W        W61661  26.865   8.354  11.236
89237W        W61662  17.848   2.921   3.123
89238W        W61663  10.195  28.075   4.075
89239W        W61664  12.510  43.773  13.306
89240W        W61665   1.703   3.983   1.468
89241W        W61666  28.191   0.206   1.788
89242W        W61667  19.792   4.332  10.436
89243W        W61668   5.423  15.702   1.252
89244W        W61669  35.215   3.729   4.816
89245W        W61670  29.204  28.515  12.389
89246W        W61671   3.029  13.603   1.606
89247W        W61672   9.018  26.148   2.133
89248W        W61673  21.051   2.892   1.126
89249W        W61674  21.818  38.370  11.694
89250W        W61675  33.149  22.947  14.007
89251W        W61676  30.641  41.360  13.273
89252W        W61677  13.407  24.115   0.814
89253W        W61678   4.248   5.547  10.539
89254W        W61679  11.996  31.622   2.284
89255W        W61680  33.980  44.016   0.036
89256W        W61681  11.204   6.735   4.667
89257W        W61682   0.184  35.954  11.558
89258W        W61683  19.658  38.091   3.691
89259W        W61684  30.567  12.743   2.287
89260W        W61685  33.660   3.302   2.301
89261W        W61686  40.169  11.171  14.253
89262W        W61687   6.272  41.423  11.853
89263W        W61688  29.173  16.553   0.004
89264W        W61689  37.006  13.780   1.744
89265W        W61690   3.998  25.990   4.298
89266W        W61691   6.145  15.263  14.505
89267W        W61692   7.425   6.127  13.306
89268W        W61693  13.329  26.610   3.214
89269W        W61694  10.243  32.871  14.644
89270W        W61695  11.151   5.409   0.781
89271W        W61696   5.573  34.157   2.737
89272W        W61697  39.552  19.664  12.494
89273W        W61698   9.856  15.511  11.574
89274W        W61699  27.836  29.481   3.248
89275W        W61700  21.538   6.467  14.883
89276W        W61701  41.438  18.182  10.560
89277W        W61702  32.136  26.181  13.074
89278W        W61703  11.614  20.243  14.021
89279W        W61704   5.714   9.699   0.264
89280W        W61705  39.383  29.494  12.066
89281W        W61706   1.459  37.075  13.880
89282W        W61707  44.552  21.664  12.483
89283W        W61708  38.975  34.492  13.527
89284W        W61709  36.632  17.183   3.560
89285W        W61710  10.904  35.629   0.360
89286W        W61711  38.787  43.934  10.364
89287W        W61712  25.132  10.295   2.270
89288W        W61713  31.700  31.539   1.452
89289W        W61714  44.062  12.306   4.146
89290W        W61715  41.936  14.013  13.908
89291W        W61716  15.043  39.468  11.922
89292W        W61717  43.588  40.915   2.638
89293W        W61718  41.398  44.342  11.976
89294W        W61719  16.021   4.933   1.727
89295W        W61720  40.585  38.287   1.075
89296W        W61721   9.251  20.549   0.956
89297W        W61722  24.509  28.235   0.748
89298W        W61723   7.352  35.899   2.387
89299W        W61724  38.645  12.093  14.064
89300W        W61725  17.472  24.072  12.152
89301W        W61726  39.944  44.965   3.241
89302W        W61727   3.002  28.126   2.794
89303W        W61728  26.159  35.836  12.642
89304W        W61729  19.546  17.267  10.718
89305W        W61730  44.396  36.368  11.675
89306W        W61731  13.216  23.707   3.881
89307W        W61732  16.562  28.739   2.724
89308W        W61733  44.779   7.083   0.360
89309W        W61734  14.858  27.992   3.632
89310W        W61735  18.301  12.927   4.150
89311W        W61736  21.306  41.967  11.175
89312W        W61737  11.728   5.831  14.468
89313W        W61738   2.057  41.055   1.690
89314W        W61739  29.095  20.143  13.842
89315W        W61740   5.697  16.134  14.074
89316W        W61741  19.041  22.452   3.251
89317W        W61742  23.252  39.016  11.066
89318W        W61743  25.005  43.457  12.325
89319W        W61744  27.484  24.429   3.577
89320W        W61745  12.158  44.186   5.096
89321W        W61746   4.255  37.086  14.203
89322W        W61747  14.264   3.449  10.332
89323W        W61748  42.053   0.729   1.807
89324W        W61749   6.419  24.779   4.133
89325W        W61750  24.742  38.345  13.336
89326W        W61751   2.515  12.510  13.408
89327W        W61752  41.476  30.317   1.403
89328W        W61753  39.460  41.687   4.819
89329W        W61754   4.419  38.069   1.702
89330W        W61755   3.897  21.207   4.751
89331W        W61756  27.068   7.425  11.037
89332W        W61757  33.975   4.417   0.705
89333W        W61758  12.431   5.736   2.027
89334W        W61759   1.930  38.634   1.978
89335W        W61760   0.472   1.909   4.551
89336W        W61761  30.549  43.063   2.546
89337W        W61762  10.754  30.563   2.337
89338W        W61763  29.566  43.358  10.606
89339W        W61764  18.585   2.597   0.747
89340W        W61765   4.274  23.755  13.938
89341W        W61766  40.220  12.303  12.268
89342W        W61767  38.873  34.540  11.444
89343W        W61768  41.344  22.540  12.466
89344W        W61769  35.156  18.147  12.089
89345W        W61770  30.001   6.499  14.489
89346W        W61771  17.811  10.281  10.561
89347W        W61772  23.988  11.800  12.981
89348W        W61773  43.684  31.057  12.926
89349W        W61774  16.798  22.540   4.587
89350W        W61775  42.674  27.493   2.316
89351W        W61776  23.130  24.656   2.309
89352W        W61777  29.775  38.715   0.261
89353W        W61778  37.355  37.755   2.697
89354W        W61779  10.252   8.710   3.312
89355W        W61780  27.934  19.702   0.313
89356W        W61781  17.334  30.984   3.673
89357W        W61782  28.505  24.271  11.579
89358W        W61783   4.055  21.954   1.012
89359W        W61784   2.635  20.527   0.797
89360W        W61785  35.596  18.841  12.956
89361W        W61786  21.178  32.610  12.911
89362W        W61787  36.371  43.810   3.073
89363W        W61788  36.923  44.523   3.720
89364W        W61789  13.097  34.937   4.565
89365W        W61790  32.947  28.807   3.749
89366W        W61791   2.505   9.259   3.792
89367W        W61792  42.064  20.169  11.901
89368W        W61793  17.817  10.709  11.687
89369W        W61794   5.298  15.608  12.857
89370W        W61795  41.989  41.410   0.892
89371W        W61796  28.034  14.892   1.768
89372W        W61797  13.310   4.765   3.006
89373W        W61798  40.275  21.058  14.187
89374W        W61799  28.662  22.574   2.813
89375W        W61800  29.989  24.572  13.318
89376W        W61801  23.957   9.017   1.613
89377W        W61802  36.093  25.174  11.945
89378W        W61803  22.544  12.712   2.368
89379W        W61804  34.742  33.597  10.351
89380W        W61805   4.926  27.724  14.892
89381W        W61806  18.327  43.451  14.000
89382W        W61807  19.177  41.022  12.768
89383W        W61808   2.501  41.962   1.405
89384W        W61809  29.454   2.497   0.707
89385W        W61810  32.720  26.929  12.537
89386W        W61811   7.466  10.335   4.882
89387W        W61812  16.647  25.113   4.657
89388W        W61813  21.190   9.772   1.464
89389W        W61814  23.547  28.857   4.251
89390W        W61815  18.102  42.439   1.996
89391W        W61816  25.428  43.731   1.318
89392W        W61817   8.478  37.620  11.795
89393W        W61818  30.592  31.097  12.662
89394W        W61819  41.471  10.674   0.998
89395W        W61820  11.249  34.851  14.240
89396W        W61821   9.428  40.158  10.325
89397W        W61822  22.200  15.486   3.289
89398W        W61823  40.948  23.401   4.111
89399W        W61824  16.778   7.308  11.462
89400W        W61825   6.375  35.064   3.006
89401W        W61826   0.975  37.655   1.398
89402W        W61827  24.762   1.349  12.537
89403W        W61828  18.153  33.459   2.587
89404W        W61829  40.863  38.284   3.605
89405W        W61830  27.124  33.344   2.600
89406W        W61831  30.466  27.914   1.332
89407W        W61832  18.573  19.102  13.025
89408W        W61833  28.564   5.703  10.765
89409W        W61834  19.202   4.694  13.964
89410W        W61835  10.290  17.248   2.169
89411W        W61836  32.316   0.032  11.401
89412W        W61837   9.597   8.325   3.332
89413W        W61838   3.813  11.719  12.616
89414W        W61839  32.664  30.469   3.165
89415W        W61840  27.013  36.887  12.578
89416W        W61841  30.352  18.681   3.137
89417W        W61842  31.704   8.897   9.925
89418W        W61843  37.822  28.562   1.741
89419W        W61844  24.617  32.081  10.727
89420W        W61845  40.002  20.548   3.692
89421W        W61846  39.328  34.635  12.191
89422W        W61847  16.453  40.303   1.363
89423W        W61848  37.949  44.208  10.706
89424W        W61849  42.350  33.986  12.435
89425W        W61850  21.831  24.430  12.807
89426W        W61851   6.687   7.198   0.282
89427W        W61852  26.932   4.740   2.275
89428W        W61853   5.103  25.031  13.532
89429W        W61854  38.605  25.918   4.182
89430W        W61855  13.611  32.505  13.877
89431W        W61856  27.232  39.725   2.699
89432W        W61857  31.160  11.244   4.568
89433W        W61858  28.062   2.744   0.586
89434W        W61859  15.936  40.328   1.265
89435W        W61860  38.414  33.354  11.172
89436W        W61861   4.992   1.201  13.340
89437W        W61862  15.544  10.703   4.651
89438W        W61863  43.207  22.504  10.115
89439W        W61864  15.256  39.088   0.936
89440W        W61865  27.518   4.762   0.897
89441W        W61866  28.661   1.306  11.580
89442W        W61867  14.583  39.502  13.516
89443W        W61868  22.506  32.568   3.765
89444W        W61869  27.939  32.587   9.792
89445W        W61870  40.779  23.809  12.496
89446W        W61871  41.435  35.790   3.001
89447W        W61872   4.835  27.660   0.978
89448W        W61873   2.507  15.701   4.244
89449W        W61874   1.388  27.739  11.378
89450W        W61875  30.019  34.003   3.339
89451W        W61876  23.008  35.644  12.551
89452W        W61877  25.988  20.335  10.673
89453W        W61878  44.867   5.436  13.423
89454W        W61879  35.761  25.622   9.613
89455W        W61880  11.293  30.231   4.457
89456W        W61881  24.403  34.064   3.152
89457W        W61882  34.852  18.254   2.623
89458W        W61883  42.655   3.697  13.570
89459W        W61884  32.420  40.589  12.317
89460W        W61885   5.034  31.209  11.033
89461W        W61886  30.096  39.593  11.627
89462W        W61887  35.530  13.405   2.721
89463W        W61888  31.463  40.817  11.047
89464W        W61889  14.572  41.358   4.558
89465W        W61890  13.633   0.029   0.758
89466W        W61891  26.870  23.722   0.919
89467W        W61892  29.210   1.193  14.513
89468W        W61893  32.938  22.126  10.611
89469W        W61894  23.195  10.829  14.811
89470W        W61895  39.413  33.054   3.862
89471W        W61896   8.962  33.501   2.808
89472W        W61897  38.924  19.020   3.430
89473W        W61898   3.100  36.133  14.028
89474W        W61899  28.996  35.962  10.840
89475W        W61900  33.893  31.070  12.110
89476W        W61901  39.459  24.743  12.964
89477W        W61902  14.090  15.397  13.018
89478W        W61903  31.756  23.626   3.668
89479W        W61904   9.883  20.648   3.157
89480W        W61905  32.469  31.833  10.131
89481W        W61906  38.791  19.281  12.510
89482W        W61907  26.539  14.239  12.148
89483W        W61908  32.637   1.024   1.349
89484W        W61909   8.127  15.004   4.074
89485W        W61910   6.922  36.521  11.612
89486W        W61911  33.723   9.883  13.411
89487W        W61912  34.908  13.437   3.243
89488W        W61913  35.883  23.040   3.243
89489W        W61914   6.367   6.812   2.993
89490W        W61915  39.013  35.562   2.200
89491W        W61916  31.799  14.646  10.965
89492W        W61917  13.081  24.976   1.250
89493W        W61918  30.752  23.636  14.642
89494W        W61919   5.277  22.535  11.254
89495W        W61920  41.462  21.963  14.551
89496W        W61921  13.193  11.704  12.991
89497W        W61922  24.439  43.252   3.294
89498W        W61923  34.861   3.392  11.257
89499W        W61924  13.316  41.712   2.896
89500W        W61925  32.804  29.979  14.841
89501W        W61926  31.465  39.024   4.601
89502W        W61927  14.648  27.104  10.876
89503W        W61928   8.331  34.654   3.535
89504W        W61929  37.349  28.991   4.110
89505W        W61930  16.736  25.576  10.678
89506W        W61931  18.014   6.281  13.943
89507W        W61932  39.719  19.284  11.736
89508W        W61933  33.983  14.470  12.435
89509W        W61934  19.772  18.672  13.948
89510W        W61935  22.806  33.565  11.445
89511W        W61936  13.718  16.693  13.903
89512W        W61937  13.268  17.695  11.039
89513W        W61938  13.220   3.008   1.273
89514W        W61939  43.681  14.246  11.586
89515W        W61940   4.257  36.283   1.379
89516W        W61941  38.533  34.520  14.293
89517W        W61942   2.206  42.442  12.845
89518W        W61943  22.490  42.132  12.813
89519W        W61944  16.010  10.211   2.140
89520W        W61945  16.355  14.684   1.768
89521W        W61946  37.530  11.721  13.277
89522W        W61947  11.126  35.000   1.433
89523W        W61948  17.098  10.614   2.734
89524W        W61949  40.082  31.025  13.778
89525W        W61950  32.846  40.881  14.536
89526W        W61951  28.932  25.168   2.218
89527W        W61952  44.942  44.670   1.966
89528W        W61953  36.335  27.920   1.301
89529W        W61954  14.647  22.067   0.246
89530W        W61955  13.040  34.339  11.111
89531W        W61956  13.140  13.281   0.893
89532W        W61957  13.871  28.188   3.810
89533W        W61958  28.080  26.988   1.820
89534W        W61959  44.765  41.408  12.067
89535W        W61960  26.121  26.597   0.461
89536W        W61961   2.202  26.252  10.116
89537W        W61962  44.754  39.541   4.370
89538W        W61963  36.110   5.205   3.284
89539W        W61964  30.429  20.338  14.941
89540W        W61965   4.804  31.614  14.010
89541W        W61966   0.432  14.229   3.587
89542W        W61967   1.838  43.412  11.595
89543W        W61968  15.322  15.757  13.052
89544W        W61969  22.678  19.243   1.798
89545W        W61970  28.111  24.076  13.120
89546W        W61971  15.617  25.027  13.895
89547W        W61972  17.677  22.249   3.337
89548W        W61973  36.996  39.456  12.980
89549W        W61974  19.508  37.489  11.025
89550W        W61975  24.992  16.285  12.552
89551W        W61976  24.785   7.879  14.510
89552W        W61977   2.734   4.254   3.106
89553W        W61978  18.961  10.253   2.957
89554W        W61979  44.414  17.002  11.028
89555W        W61980  42.324  13.744  12.350
89556W        W61981  39.041  32.033   2.416
89557W        W61982  44.931   8.961   1.207
89558W        W61983  25.121  35.465   4.856
89559W        W61984  11.224  14.389  11.883
89560W        W61985  23.623  43.386   4.503
89561W        W61986  40.032  44.728   4.655
89562W        W61987  32.646  12.618  12.508
89563W        W61988  25.524   8.371   3.464
89564W        W61989  42.471   4.824  12.448
89565W        W61990  11.257  41.588   1.997
89566W        W61991  32.046   6.880   0.668
89567W        W61992   0.410   1.478  14.555
89568W        W61993  18.039  10.217   4.760
89569W        W61994  34.855  32.967   0.772
89570W        W61995   6.440  11.814   5.084
89571W        W61996  24.711  11.133  13.831
89572W        W61997  40.495  22.666  13.331
89573W        W61998  17.286   7.837  12.005
89574W        W61999  31.908  29.453   5.147
89575W        W62000  43.556  39.651   3.743
89576W        W62001   2.539  10.785  13.895
89577W        W62002  15.156  34.076  11.877
89578W        W62003  42.446  18.601  14.432
89579W        W62004  28.748  39.331  13.225
89580W        W62005   1.356  34.180   1.827
89581W        W62006  14.850   8.557   0.913
89582W        W62007  41.726  33.213   3.951
89583W        W62008  19.111   0.478   1.835
89584W        W62009  14.484   1.932   0.927
89585W        W62010   0.926  37.519   9.914
89586W        W62011  28.590  19.235  13.348
89587W        W62012  20.512  34.456   4.101
89588W        W62013  17.353  20.516   0.346
89589W        W62014   9.339  26.458   3.438
89590W        W62015  28.985   8.817  12.929
89591W        W62016  31.192   1.238   4.586
89592W        W62017   1.454  22.806  11.984
89593W        W62018  44.564   1.343   2.069
89594W        W62019   5.945   7.908  14.399
89595W        W62020   3.963  23.695  13.167
89596W        W62021  18.372  29.278  10.742
89597W        W62022  10.121  11.404   0.796
89598W        W62023  16.725  33.971  10.572
89599W        W62024  35.845  25.954  13.575
89600W        W62025  42.322  40.497  14.841
89601W        W62026   0.301  43.699   0.187
89602W        W62027   3.712  31.695  13.849
89603W        W62028  28.699  39.844   2.678
89604W        W62029  31.579  29.348  12.548
89605W        W62030  27.076  29.939   4.007
89606W        W62031  42.061  36.029  13.000
89607W        W62032  12.598  23.781   2.288
89608W        W62033  16.051  28.196   3.310
89609W        W62034  35.775  13.503   3.450
89610W        W62035  29.125  11.998   3.351
89611W        W62036  23.073  33.681  10.262
89612W        W62037  18.805  28.880  12.134
89613W        W62038  25.665   5.687   0.937
89614W        W62039  37.322  27.484  12.002
89615W        W62040  13.891  16.337   0.427
89616W        W62041  17.019   7.857  10.707
89617W        W62042   4.717  29.921  13.078
89618W        W62043  35.326   3.664   1.852
89619W        W62044  26.154  36.891   1.909
89620W        W62045   1.311  27.645   3.668
89621W        W62046  15.789  14.131  13.144
89622W        W62047  44.788   4.930  11.111
89623W        W62048   7.148  38.603   2.686
89624W        W62049  29.989  15.189  12.005
89625W        W62050  43.026  11.216   0.819
89626W        W62051  12.336  20.556  11.498
89627W        W62052  32.848  18.143  13.419
89628W        W62053  20.534  32.356   4.168
89629W        W62054   1.344  26.235  13.237
89630W        W62055  42.513  33.197   3.280
89631W        W62056  39.980  24.344  11.643
89632W        W62057  40.558  18.464  11.940
89633W        W62058  38.758   8.173  11.913
89634W        W62059   6.775  15.274  13.873
89635W        W62060   0.811  41.730   4.739
89636W        W62061  31.297  22.746   3.529
89637W        W62062  11.850   9.805   1.636
89638W        W62063  27.825  36.992   2.319
89639W        W62064   0.872  35.136   3.530
89640W        W62065  41.791  42.171   4.667
89641W        W62066  33.711  43.043   2.657
89642W        W62067  26.561  15.347  11.193
89643W        W62068   2.794  44.838  10.659
89644W        W62069  19.196  12.252   3.334
89645W        W62070  14.577  13.283   3.787
89646W        W62071  11.713  42.064  11.212
89647W        W62072  21.696  11.025  13.837
89648W        W62073   6.164   5.713   2.867
89649W        W62074  19.562  17.334   2.900
89650W        W62075  26.579   5.036   4.066
89651W        W62076  17.213  41.594  13.359
89652W        W62077   9.614  43.694  13.778
89653W        W62078  14.833   4.245  12.193
89654W        W62079  12.047  11.619   0.501
89655W        W62080  35.685   5.351   1.460
89656W        W62081  30.354  26.673   0.310
89657W        W62082  24.417   8.705  14.548
89658W        W62083  15.847  33.101   1.339
89659W        W62084  31.091  38.265  10.631
89660W        W62085   5.175  30.659   4.154
89661W        W62086  42.189  12.494  14.480
89662W        W62087   2.998  11.791  14.340
89663W        W62088  11.993  37.477  13.417
89664W        W62089  18.728  42.307   3.749
89665W        W62090  34.581   7.572  10.970
89666W        W62091  44.629  29.722   1.295
89667W        W62092   6.512   4.938   1.706
89668W        W62093  24.557   4.148   3.130
89669W        W62094   0.969  19.251   3.645
89670W        W62095  23.957   0.302  10.573
89671W        W62096  10.109  29.475  10.237
89672W        W62097   8.654  23.765  11.002
89673W        W62098  29.637   6.218   3.614
89674W        W62099  12.246  16.204  11.840
89675W        W62100  14.806  38.614  13.287
89676W        W62101   2.257  14.283  14.043
89677W        W62102  37.399   0.756   0.158
89678W        W62103  10.278   0.524   2.933
89679W        W62104  24.063  28.145   3.888
89680W        W62105  36.541  42.838  12.602
89681W        W62106  22.734  10.410   3.244
89682W        W62107  14.251  43.467  10.708
89683W        W62108  12.576  30.232   3.789
89684W        W62109  25.206   3.741  12.014
89685W        W62110   8.974   5.281  14.380
89686W        W62111   0.375  33.484  14.452
89687W        W62112  17.676  23.054   2.756
89688W        W62113   6.933   5.618   0.675
89689W        W62114   5.643  40.952  13.442
89690W        W62115  19.655  17.599  12.486
89691W        W62116  29.806  22.281  12.637
89692W        W62117  24.186  11.677   3.876
89693W        W62118  15.876  26.515   1.156
89694W        W62119  18.731   3.606  14.904
89695W        W62120   0.156  21.081   3.274
89696W        W62121  18.635   1.786   1.843
89697W        W62122   1.016  36.330  13.864
89698W        W62123  43.065   4.297  12.075
89699W        W62124  24.911  19.763   0.260
89700W        W62125  27.430   9.788  12.197
89701W        W62126   0.762  23.540  14.343
89702W        W62127   6.674  27.748  12.111
89703W        W62128   2.289  32.833  12.125
89704W        W62129   4.887  25.026  10.957
89705W        W62130  40.059  21.942  13.407
89706W        W62131  11.879  32.124   2.361
89707W        W62132  34.083  15.766   4.767
89708W        W62133  12.844  30.198   2.412
89709W        W62134  15.238  37.010   3.375
89710W        W62135   5.151  44.432  12.873
89711W        W62136   2.769  10.103   2.292
89712W        W62137  28.877  40.472  10.980
89713W        W62138   9.224  19.070  12.388
89714W        W62139  40.134  10.099   2.374
89715W        W62140   0.711  15.141   3.211
89716W        W62141  43.799  21.074   0.259
89717W        W62142  12.586  18.577   3.909
89718W        W62143   8.709  39.300   2.360
89719W        W62144  25.493  22.806   4.100
89720W        W62145  25.467  27.640  10.443
89721W        W62146   0.958   0.408   3.795
89722W        W62147  11.520  26.281   4.067
89723W        W62148  13.165  24.274   5.208
89724W        W62149   4.643  35.595  14.356
89725W        W62150  14.841  44.865  10.892
89726W        W62151   5.303   3.426  12.523
89727W        W62152  39.861   8.210  11.220
89728W        W62153  36.830   6.523  10.796
89729W        W62154  37.055  42.568   0.839
89730W        W62155  18.500  39.096   0.250
89731W        W62156  26.642  42.229  12.989
89732W        W62157   5.810  37.356   0.851
89733W        W62158  20.663  21.967  13.536
89734W        W62159  10.873  16.961  11.695
89735W        W62160  12.284  30.717  11.127
89736W        W62161  14.870  44.361  13.769
89737W        W62162  41.298  23.070  12.513
89738W        W62163  21.974  29.375  12.890
89739W        W62164   5.005   0.879   4.101
89740W        W62165  22.144   7.115  11.902
89741W        W62166  38.110   2.204  13.078
89742W        W62167  26.778   1.798  14.961
89743W        W62168  20.305  39.308   0.011
89744W        W62169  24.168  37.003  13.499
89745W        W62170  12.574  17.365  10.730
89746W        W62171  21.260   1.384  13.064
89747W        W62172  41.809  31.381   0.840
89748W        W62173  14.097  30.926  12.891
89749W        W62174  33.936   2.977   1.243
89750W        W62175  21.742  20.615   4.380
89751W        W62176  39.786  11.207   1.352
89752W        W62177   8.877   3.716   2.738
89753W        W62178  18.551  22.638  14.215
89754W        W62179   3.999  17.084   2.711
89755W        W62180  31.165  34.294   1.558
89756W        W62181  12.659   1.473  11.338
89757W        W62182  35.046  14.454  12.037
89758W        W62183   4.836  11.637   1.433
89759W        W62184   6.017   6.330  11.289
89760W        W62185  22.594  29.511  14.376
89761W        W62186  28.100  44.839  13.938
89762W        W62187  39.953  16.309  14.164
89763W        W62188  33.345  15.533  13.587
89764W        W62189  37.818  37.916   2.852
89765W        W62190  18.076  24.319  11.964
89766W        W62191  40.440  15.591  11.393
89767W        W62192  11.754  22.566  11.476
89768W        W62193  42.731  18.260   0.849
89769W        W62194  44.884   7.344   4.526
89770W        W62195  38.843  18.572   3.708
89771W        W62196   4.172  18.433   0.519
89772W        W62197  30.921   4.198   1.759
89773W        W62198  33.598  10.450   4.131
89774W        W62199  34.059   4.968  12.155
89775W        W62200  10.931  27.133  14.441
89776W        W62201  33.604  24.541   3.740
89777W        W62202  15.904   0.042  13.375
89778W        W62203  29.031  22.805  13.548
89779W        W62204  13.200   8.216   4.321
89780W        W62205   4.713  41.950   4.553
89781W        W62206  10.992  22.793  10.428
89782W        W62207  10.686  29.408  13.447
89783W        W62208   2.911   7.463  12.940
89784W        W62209  30.327  35.082  13.020
89785W        W62210  17.370  17.619  12.381
89786W        W62211  34.391  42.830  11.206
89787W        W62212  24.095   4.643  10.245
89788W        W62213   0.843  40.888  13.763
89789W        W62214  31.356  40.400   3.740
89790W        W62215   6.886  20.700  11.159
89791W        W62216   8.954   8.891  14.200
89792W        W62217  41.770  15.766   3.131
89793W        W62218  38.690  30.091  12.121
89794W        W62219  21.255   5.157   1.677
89795W        W62220  32.130  19.293  12.134
89796W        W62221   2.310   2.682  14.422
89797W        W62222  34.480   7.663   2.820
89798W        W62223   2.917   7.202  10.692
89799W        W62224  15.609  14.345  14.958
89800W        W62225  32.386  43.950   0.360
89801W        W62226  43.749  17.150   2.445
89802W        W62227   0.336   1.461  11.228
89803W        W62228  31.461  32.619  14.200
89804W        W62229  35.204  18.194   3.725
89805W        W62230   8.640  15.150   4.037
89806W        W62231  32.188  41.754  11.208
89807W        W62232  40.390  31.682  11.991
89808W        W62233  36.597  20.042  14.409
89809W        W62234  17.116  26.437   0.677
89810W        W62235  16.317  15.479  11.661
89811W        W62236   0.455  41.244   1.966
89812W        W62237  38.647  30.057  14.628
89813W        W62238  26.350  27.780  13.026
89814W        W62239  18.075  19.496  10.716
89815W        W62240  12.601  13.799  10.612
89816W        W62241   8.378  37.504  10.261
89817W        W62242   9.746  36.215  12.808
89818W        W62243   7.453   2.206  13.032
89819W        W62244  13.225  40.076   3.776
89820W        W62245  19.218  32.129   4.619
89821W        W62246   6.751  42.435   1.295
89822W        W62247  40.339   0.353   1.981
89823W        W62248  40.067  19.129  13.052
89824W        W62249  26.443  24.205   1.740
89825W        W62250  10.329  21.765  13.562
89826W        W62251   1.455  32.045  13.494
89827W        W62252  24.000   7.232  13.852
89828W        W62253   9.788  37.625   4.613
89829W        W62254  28.130   8.897   3.710
89830W        W62255   9.911  42.041  11.624
89831W        W62256  20.832  23.839  13.654
89832W        W62257  21.496  36.887  13.389
89833W        W62258  27.675  33.878   1.518
89834W        W62259  24.919  22.635   3.569
89835W        W62260   6.823   7.191  12.454
89836W        W62261  25.516  11.352  11.471
89837W        W62262  27.742   7.748  13.887
89838W        W62263  16.574  43.024  11.607
89839W        W62264   2.893  22.327   0.364
89840W        W62265  21.613  36.589   3.212
89841W        W62266  38.116  28.029  13.516
89842W        W62267  33.410   5.354  14.876
89843W        W62268  18.471  44.860  14.422
89844W        W62269  13.105   2.024  14.823
89845W        W62270  26.154  42.271   3.800
89846W        W62271   6.937  16.391  12.467
89847W        W62272  22.042  36.228  13.921
89848W        W62273  27.959  14.019   1.941
89849W        W62274  17.342  34.006  13.491
89850W        W62275  22.686  28.313  12.976
89851W        W62276   5.731  38.237  11.638
89852W        W62277  24.041  26.324   4.532
89853W        W62278  17.727  14.267   0.298
89854W        W62279  12.273  38.761   3.156
89855W        W62280   9.668  10.961   0.460
89856W        W62281  13.251  15.700   2.843
89857W        W62282   2.073  13.228  13.035
89858W        W62283  10.456   8.890   2.869
89859W        W62284   6.867   9.279   2.484
89860W        W62285   3.671   3.223  13.944
89861W        W62286  41.809  34.568   1.059
89862W        W62287  11.848  21.902   2.979
89863W        W62288  24.350   4.211  14.366
89864W        W62289  38.524  28.731  14.965
89865W        W62290  35.954  29.701  14.391
89866W        W62291  19.584  11.827  11.444
89867W        W62292  26.620   2.810  11.694
89868W        W62293  37.330   4.450  14.437
89869W        W62294  23.164  13.252   4.585
89870W        W62295  28.408  21.947   2.208
89871W        W62296  37.609  41.767   2.819
89872W        W62297  18.245  22.127  14.252
89873W        W62298  16.079  17.590  11.113
89874W        W62299   8.321  11.196   4.525
89875W        W62300  42.843  25.019  14.304
89876W        W62301  10.630  18.770   0.069
89877W        W62302  22.197  37.428  11.841
89878W        W62303  10.781  22.326   4.475
89879W        W62304  20.501  43.813   4.110
89880W        W62305   4.643  23.046  12.559
89881W        W62306  15.698  26.766   3.700
89882W        W62307  19.629  19.172  10.635
89883W        W62308  38.845  20.761  10.437
89884W        W62309  23.574  10.024   3.171
89885W        W62310  44.317  15.939   3.782
89886W        W62311  28.450  22.156   3.598
89887W        W62312  42.276   9.262   0.729
89888W        W62313   2.697  34.651   1.353
89889W        W62314  21.310  18.105   4.077
89890W        W62315  10.352  25.740  12.532
89891W        W62316  21.624  19.666   4.067
89892W        W62317  23.057  18.294   1.804
89893W        W62318  30.657  26.387   3.695
89894W        W62319  44.907  24.961   2.301
89895W        W62320  29.392   1.987   2.833
89896W        W62321   7.970  38.051   0.921
89897W        W62322   7.310  20.119  14.804
89898W        W62323  11.198  31.190  14.346
89899W        W62324  34.513   4.572   1.828
89900W        W62325  19.571  37.108   0.311
89901W        W62326  42.594  38.484   1.320
89902W        W62327  40.391  30.040   1.483
89903W        W62328  19.129   3.424  13.322
89904W        W62329  14.558  44.917   0.732
89905W        W62330  11.090   6.765  13.469
89906W        W62331  19.404  38.375  11.133
89907W        W62332   6.446  21.182  14.404
89908W        W62333  25.640   4.874   2.083
89909W        W62334  33.402  13.047  12.536
89910W        W62335  27.603  35.253  14.925
89911W        W62336  28.893   0.902   2.553
89912W        W62337  23.022  24.273  10.137
89913W        W62338  21.009  34.437  11.124
89914W        W62339  19.297  21.575   1.311
89915W        W62340  40.306   5.438  14.417
89916W        W62341  44.524  20.517   1.508
89917W        W62342  16.808  24.006   0.273
89918W        W62343   9.906  40.955   4.780
89919W        W62344  35.532  29.623  13.057
89920W        W62345  14.009  36.459   2.716
89921W        W62346  39.519  14.905  13.449
89922W        W62347   4.855  42.789   1.235
89923W        W62348  18.194  40.409   3.585
89924W        W62349  23.444  12.197   4.974
89925W        W62350   5.148  44.694   4.426
89926W        W62351   2.524   7.867  12.058
89927W        W62352  38.342  42.060   1.445
89928W        W62353   3.210  22.198   3.332
89929W        W62354  35.487  29.496   0.415
89930W        W62355  22.263  10.632  13.951
89931W        W62356  43.568  16.223  12.856
89932W        W62357  25.914   4.249  12.461
89933W        W62358  16.272  10.363  10.153
89934W        W62359  30.977  17.816  10.554
89935W        W62360  42.473   4.632   4.708
89936W        W62361  29.189  28.111  13.480
89937W        W62362  28.513  18.383  11.248
89938W        W62363  32.086  35.385  12.957
89939W        W62364  27.968  24.981   2.272
89940W        W62365  22.156   7.174  11.108
89941W        W62366  30.895  20.515  14.841
89942W        W62367   9.763  16.563  13.320
89943W        W62368   4.698  39.783   0.004
89944W        W62369  41.551   7.585  11.605
89945W        W62370  21.742  14.605   1.831
89946W        W62371  39.160  11.308  13.067
89947W        W62372  16.544  44.679   3.160
89948W        W62373  19.032  43.565   0.459
89949W        W62374   7.124  16.017   1.483
89950W        W62375  29.492  44.987  13.021
89951W        W62376  16.802   0.737   1.812
89952W        W62377  22.234  16.788  11.476
89953W        W62378  33.943  26.295   1.477
89954W        W62379  27.646   1.521   4.540
89955W        W62380  36.393  43.724  14.089
89956W        W62381  14.673  36.370  12.968
89957W        W62382  31.128  19.825  11.863
89958W        W62383  16.170  39.886   4.683
89959W        W62384  10.360  37.551  14.826
89960W        W62385  13.691   9.938   0.907
89961W        W62386  40.433  43.786   2.845
89962W        W62387  32.446  21.701  12.620
89963W        W62388  31.950  18.211   0.384
89964W        W62389  39.846  25.111  11.544
89965W        W62390  17.841  21.717  13.472
89966W        W62391  16.100  15.835   0.391
89967W        W62392  13.809  32.406  11.926
89968W        W62393  43.669  22.075  14.272
89969W        W62394   3.212  19.140  13.777
89970W        W62395  34.881  31.661   4.143
89971W        W62396   2.605  20.222   1.222
89972W        W62397   0.766  12.885   3.753
89973W        W62398   3.756  44.042   4.506
89974W        W62399   3.730  25.974   2.882
89975W        W62400  30.592  12.258  10.416
89976W        W62401  28.745  25.027   4.698
89977W        W62402  22.981   5.406   0.861
89978W        W62403  33.092  14.863   3.674
89979W        W62404  42.492   8.762  13.319
89980W        W62405  20.290  13.214  13.993
89981W        W62406  17.264  41.913   0.662
89982W        W62407   9.038  25.044   3.784
89983W        W62408  25.031  12.844   3.267
89984W        W62409   4.459  14.176  14.304
89985W        W62410   6.823   1.898  14.374
89986W        W62411  32.903  44.710  10.748
89987W        W62412  32.301  16.091   5.040
89988W        W62413  41.518   7.667   1.509
89989W        W62414  33.471  38.414   4.146
89990W        W62415  13.864  18.732   1.229
89991W        W62416  27.553  42.416  13.837
89992W        W62417  19.700  25.949  11.634
89993W        W62418  17.536  27.915   4.090
89994W        W62419   4.183  36.636  10.686
89995W        W62420  26.916  39.033   0.014
89996W        W62421  38.377  23.944  13.397
89997W        W62422  34.619  32.557   2.857
89998W        W62423  43.647  35.337   2.213
89999W        W62424  38.785  20.599   2.210
90000W        W62425  26.734  29.700   4.669
90001W        W62426  34.006  39.530  11.376
90002W        W62427  15.146  39.659  12.441
90003W        W62428  41.784  37.492  11.999
90004W        W62429  19.329  29.085   0.207
90005W        W62430   3.328   0.984  12.162
90006W        W62431  11.941  43.883   3.735
90007W        W62432  14.747  16.330  12.391
90008W        W62433  28.459  42.919  13.604
90009W        W62434  40.131  22.546   0.712
90010W        W62435  30.111  32.581   2.308
90011W        W62436   8.448  29.593  13.514
90012W        W62437  35.550  39.760   4.098
90013W        W62438  35.473  31.926   2.131
90014W        W62439  43.879  34.855  11.899
90015W        W62440   5.650  41.061   3.776
90016W        W62441  38.468   2.366   2.362
90017W        W62442  18.049  40.300   1.289
90018W        W62443   1.125   1.347  10.632
90019W        W62444  37.087  32.376   3.097
90020W        W62445  42.501  31.737   0.553
90021W        W62446   0.558  37.441  10.269
90022W        W62447  31.174  36.603  14.408
90023W        W62448  35.216  19.635   4.675
90024W        W62449  19.678  30.803   3.835
90025W        W62450  27.103   2.147  10.708
90026W        W62451  17.594  13.886  12.894
90027W        W62452   2.249  13.681   1.315
90028W        W62453   5.315   6.408   0.170
90029W        W62454  44.656  18.160   4.647
90030W        W62455   8.268  11.466   0.069
90031W        W62456   4.536  25.083   1.728
90032W        W62457  44.880  29.891  12.028
90033W        W62458  15.084  14.842  11.575
90034W        W62459   6.951  27.278   2.248
90035W        W62460  17.668  36.524   1.263
90036W        W62461   1.491  36.389  14.552
90037W        W62462  26.952  16.215   1.529
90038W        W62463  37.463   4.313  10.723
90039W        W62464  11.416   3.974  14.809
90040W        W62465  20.003  14.525  13.375
90041W        W62466  27.612  42.365   4.571
90042W        W62467  26.989   2.324   4.112
90043W        W62468  15.062  38.376  11.829
90044W        W62469  39.914  25.217   4.101
90045W        W62470  24.399  26.767  12.995
90046W        W62471   5.353  20.224  11.636
90047W        W62472  32.978  29.505  10.921
90048W        W62473   6.622  32.012  10.783
90049W        W62474  35.255  12.781  11.839
90050W        W62475  41.479  14.653  12.437
90051W        W62476  21.428  35.866   2.808
90052W        W62477  41.404  34.557   0.198
90053W        W62478  14.681  33.339  12.064
90054W        W62479  28.202   6.956  10.698
90055W        W62480  38.864  24.656  13.932
90056W        W62481  41.941   9.182   3.630
90057W        W62482  30.947  26.046  11.460
90058W        W62483  29.893   5.385   2.229
90059W        W62484  37.298   7.650   5.097
90060W        W62485  33.497  44.986  10.408
90061W        W62486  13.269  23.610  12.301
90062W        W62487  11.736  19.146   2.852
90063W        W62488  35.669  32.930  12.988
90064W        W62489  26.480  26.494  13.362
90065W        W62490  36.516  23.260  12.604
90066W        W62491   3.840  13.743  14.742
90067W        W62492  39.407  30.373  13.316
90068W        W62493  42.900   7.096   0.096
90069W        W62494  40.070  26.236   4.170
90070W        W62495  26.475  12.666   2.323
90071W        W62496   7.658   9.718   4.091
90072W        W62497  23.988  40.515   3.309
90073W        W62498  16.706   9.407   1.245
90074W        W62499  16.034  37.299   3.681
90075W        W62500  24.650  10.238   2.023
90076W        W62501   6.351   2.455   2.671
90077W        W62502  35.718  39.075   2.185
90078W        W62503   2.760  27.527  11.199
90079W        W62504   4.155  38.250   1.252
90080W        W62505  16.091  28.382   2.074
90081W        W62506  14.996  13.095   0.536
90082W        W62507  17.140  35.412   3.555
90083W        W62508   1.007   5.655  12.949
90084W        W62509  32.380  26.892   0.167
90085W        W62510  38.992  38.818   0.964
90086W        W62511  17.105  40.453  13.833
90087W        W62512   8.274  27.568  13.960
90088W        W62513  19.873   3.408  14.029
90089W        W62514  19.770  30.672   0.906
90090W        W62515  31.495  36.920   1.640
90091W        W62516   0.259   1.256  12.085
90092W        W62517  27.196  22.651  10.935
90093W        W62518  22.627  26.810  10.706
90094W        W62519  13.891  30.319  11.820
90095W        W62520   9.311  13.875   5.021
90096W        W62521  34.175   6.794  10.681
90097W        W62522  31.837  11.854  12.988
90098W        W62523   7.916  28.057  11.144
90099W        W62524   6.051  35.336   4.474
90100W        W62525  30.734  21.962  12.609
90101W        W62526  11.148   4.726   2.739
90102W        W62527  35.191  43.318  12.973
90103W        W62528  19.663  10.026  10.251
90104W        W62529  43.919  35.017   0.376
90105W        W62530  24.003  40.898   3.696
90106W        W62531   5.269  10.933  11.988
90107W        W62532  12.735  35.878  13.576
90108W        W62533  22.114  10.876  10.310
90109W        W62534  29.838  19.087   4.257
90110W        W62535  23.545  22.270   3.563
90111W        W62536  11.274  27.386  10.653
90112W        W62537  27.971  42.793   3.721
90113W        W62538  22.786   0.775  11.550
90114W        W62539   7.324  21.296  13.006
90115W        W62540   3.839  36.010  10.546
90116W        W62541  42.101   5.903   3.212
90117W        W62542  39.873  13.442   4.042
90118W        W62543  41.608   0.301   0.553
90119W        W62544  35.516  35.113   2.913
90120W        W62545  18.551  30.448   1.622
90121W        W62546   5.552   8.863  12.965
90122W        W62547   6.853  28.613   1.804
90123W        W62548  43.331  30.139  11.127
90124W        W62549  12.201  15.634   3.288
90125W        W62550  41.762  41.314  11.506
90126W        W62551   5.748  40.925  10.590
90127W        W62552   9.099   5.859  11.117
90128W        W62553  42.883  38.085   2.666
90129W        W62554  20.164  10.848   2.302
90130W        W62555   6.446  24.665  13.228
90131W        W62556  27.084   8.125   4.376
90132W        W62557  17.271  12.377  10.297
90133W        W62558  40.084  15.568   3.277
90134W        W62559  19.631  44.299   4.067
90135W        W62560  39.869  26.747   0.794
90136W        W62561  21.496  43.043  14.547
90137W        W62562  28.339   4.777   1.335
90138W        W62563  33.626   1.686   1.766
90139W        W62564  13.584  24.140   3.722
90140W        W62565  31.993  11.107   2.717
90141W        W62566  28.694  10.882  13.564
90142W        W62567  40.076  18.039   3.524
90143W        W62568  15.746  18.668  12.942
90144W        W62569  42.796  30.078   0.943
90145W        W62570  19.464  13.100  12.460
90146W        W62571   0.225  30.061   0.776
90147W        W62572  17.084   4.277  14.964
90148W        W62573  19.623   8.118   2.784
90149W        W62574   7.355  23.516  14.907
90150W        W62575   3.694  22.657  11.628
90151W        W62576   9.330   4.991  11.639
90152W        W62577  40.250  36.402   3.731
90153W        W62578   0.243  36.547   3.466
90154W        W62579  43.225  40.028  11.191
90155W        W62580   9.145  34.507  12.160
90156W        W62581  18.020  41.965   3.175
90157W        W62582  22.327  24.741   2.931
90158W        W62583  13.068  32.165   4.526
90159W        W62584   5.460   3.482   0.317
90160W        W62585   7.673  24.014  14.880
90161W        W62586  37.154  22.659  12.791
90162W        W62587  20.221  15.692  12.855
90163W        W62588  13.583  34.960   1.883
90164W        W62589  24.737   7.274   0.258
90165W        W62590  17.732  43.303  11.084
90166W        W62591  24.347   9.000   1.277
90167W        W62592  15.318  23.228   9.865
90168W        W62593  22.591  39.859  13.454
90169W        W62594  37.943  37.587  10.924
90170W        W62595  41.754  26.640   4.453
90171W        W62596   1.842  14.516  11.054
90172W        W62597  32.147   9.328   2.196
90173W        W62598  13.865   9.603  11.128
90174W        W62599  44.883  31.519   0.754
90175W        W62600  15.089  14.758  12.594
90176W        W62601  41.782  19.277  12.204
90177W        W62602   9.512  10.690  12.002
90178W        W62603  17.665  26.504   3.753
90179W        W62604  35.808  12.872   0.763
90180W        W62605  42.467  32.042  14.101
90181W        W62606  30.955  21.990   4.594
90182W        W62607  43.018  33.630   2.788
90183W        W62608  37.502  34.911  12.160
90184W        W62609   0.661  32.211   4.581
90185W        W62610  20.153  20.752   1.820
90186W        W62611  38.339  40.748   4.795
90187W        W62612  22.547  41.860   0.383
90188W        W62613  16.535  33.929  13.865
90189W        W62614  32.016   3.047  12.152
90190W        W62615  14.073  28.142  11.554
90191W        W62616  36.383  44.798  12.574
90192W        W62617  33.883   5.010   4.231
90193W        W62618  26.655  41.875  11.944
90194W        W62619  13.180  34.632   2.216
90195W        W62620  26.009  14.773  12.499
90196W        W62621  44.179  21.206   9.621
90197W        W62622   2.048  37.419   1.486
90198W        W62623  38.892   1.478  12.441
90199W        W62624  43.566  16.032  14.195
90200W        W62625  13.559  15.314   1.840
90201W        W62626  26.129  30.997   5.104
90202W        W62627  26.513  23.755  11.178
90203W        W62628  36.357  20.077  14.869
90204W        W62629   4.174  14.234   3.825
90205W        W62630  22.157  29.244  10.872
90206W        W62631  33.451  41.454   3.596
90207W        W62632  42.459  19.520   2.934
90208W        W62633   0.776  33.134  11.521
90209W        W62634   0.992   5.366   1.934
90210W        W62635  13.448  37.433   2.228
90211W        W62636  14.100  25.568  14.465
90212W        W62637  37.983   4.174  14.833
90213W        W62638  37.265  38.484  11.677
90214W        W62639  33.152   2.393   1.508
90215W        W62640  12.426  11.336  14.408
90216W        W62641   9.585  31.103   0.514
90217W        W62642  42.129  22.222   4.333
90218W        W62643  32.827  25.109   3.715
90219W        W62644   4.910   1.828   3.863
90220W        W62645  21.998  23.222   4.183
90221W        W62646  38.757  15.147  12.524
90222W        W62647  27.053  38.853  12.501
90223W        W62648  43.486  30.411   2.979
90224W        W62649   2.994   7.710   1.373
90225W        W62650   3.639  40.450   4.107
90226W        W62651  43.423  16.303  13.342
90227W        W62652  16.796  10.836  14.882
90228W        W62653  34.858  37.543   1.824
90229W        W62654   6.904  15.877  11.555
90230W        W62655  37.806  29.995   3.712
90231W        W62656  11.230  33.357  11.048
90232W        W62657  42.453  13.114  11.237
90233W        W62658   6.251   2.734   4.562
90234W        W62659  12.114   9.716   4.146
90235W        W62660   4.197  23.584   2.337
90236W        W62661   6.787   0.787  14.702
90237W        W62662   8.582   1.192  12.482
90238W        W62663  15.364   3.017  12.435
90239W        W62664  13.396  19.193   3.101
90240W        W62665  16.871  29.560   3.626
90241W        W62666   2.960  35.627  13.972
90242W        W62667  33.897  22.507   3.855
90243W        W62668  31.341  11.338   1.169
90244W        W62669  37.771   4.722  10.969
90245W        W62670  36.873  20.311   1.705
90246W        W62671  22.642   6.716  12.760
90247W        W62672   1.287  20.746  11.302
90248W        W62673  26.283  36.602   4.130
90249W        W62674   4.758   0.705   1.824
90250W        W62675  18.283  41.058  12.464
90251W        W62676  24.180   5.753  14.280
90252W        W62677   6.209  32.136   9.781
90253W        W62678  44.002  26.237  13.423
90254W        W62679   4.929  20.982   2.326
90255W        W62680   9.345  24.479  13.393
90256W        W62681  33.980  10.309  13.880
90257W        W62682   9.481  18.669   0.909
90258W        W62683   4.670  14.119   1.222
90259W        W62684  35.267  40.300   3.251
90260W        W62685   9.853  37.297  13.986
90261W        W62686  27.893  37.827   1.927
90262W        W62687  13.719  29.447  11.751
90263W        W62688  28.657  10.260   4.612
90264W        W62689  32.847  25.593   3.166
90265W        W62690  39.797   0.205  11.267
90266W        W62691  31.483  11.700  13.355
90267W        W62692  25.041  24.021   3.794
90268W        W62693  27.479  30.516   1.675
90269W        W62694  31.828  32.948  14.296
90270W        W62695   6.825   4.648   4.191
90271W        W62696   2.231  21.090   4.573
90272W        W62697  21.555  20.121   2.788
90273W        W62698  39.395   3.997  13.010
90274W        W62699   2.088  24.270  13.096
90275W        W62700   5.261  28.452   0.847
90276W        W62701   5.943  24.581   4.155
90277W        W62702  25.000  37.914  13.993
90278W        W62703  11.426  18.043  14.834
90279W        W62704  11.404   6.214   0.287
90280W        W62705  30.918   5.217  12.525
90281W        W62706  11.827  44.041   3.259
90282W        W62707  18.185  24.514   0.982
90283W        W62708  33.699   0.720   2.839
90284W        W62709  17.355   1.724   4.943
90285W        W62710   2.935   4.224   4.472
90286W        W62711  31.166  16.228  13.564
90287W        W62712  24.079  40.927   0.456
90288W        W62713  42.500  18.511  11.104
90289W        W62714  24.054   0.790   0.920
90290W        W62715  28.772  25.691  11.339
90291W        W62716  39.472  10.453   0.802
90292W        W62717   7.353  23.593   3.231
90293W        W62718   8.678  36.815  13.104
90294W        W62719  40.747  41.450   1.526
90295W        W62720   2.201  39.090   1.900
90296W        W62721   9.856  25.068   4.202
90297W        W62722   7.130  25.404  13.543
90298W        W62723  41.239   9.589   3.739
90299W        W62724   4.331  13.605  11.236
90300W        W62725  42.273  24.081   2.837
90301W        W62726  30.933  10.652  14.377
90302W        W62727  11.266  10.503   1.739
90303W        W62728  44.876  31.660   3.775
90304W        W62729  29.134  12.578   4.182
90305W        W62730  37.360   6.020   1.478
90306W        W62731  12.019  44.801  12.192
90307W        W62732  36.600  35.696  14.844
90308W        W62733  31.114  19.624  12.366
90309W        W62734  43.389  13.841   1.743
90310W        W62735   2.437  38.125   3.462
90311W        W62736  26.203  39.977   2.175
90312W        W62737  14.273  16.709  11.060
90313W        W62738   5.822  21.961  10.686
90314W        W62739  38.788  19.692  13.917
90315W        W62740  29.065  27.684   2.368
90316W        W62741   1.976  29.619  14.474
90317W        W62742  20.037  21.790   0.207
90318W        W62743  18.055   6.897  12.499
90319W        W62744   9.861  19.532  14.136
90320W        W62745  26.636   3.960   0.386
90321W        W62746  29.961  13.421   0.817
90322W        W62747   4.025   9.199  11.944
90323W        W62748  23.781  26.261  11.079
90324W        W62749   3.439   3.967   4.199
90325W        W62750  20.687  23.480  10.965
90326W        W62751  17.249  16.094   0.499
90327W        W62752  20.636  14.338  10.963
90328W        W62753  32.377  39.035   3.536
90329W        W62754  32.262  39.396   2.793
90330W        W62755  32.449  38.370  13.001
90331W        W62756   1.209  32.375   1.028
90332W        W62757   9.366  39.559  14.744
90333W        W62758  32.031  20.720   1.430
90334W        W62759  21.063  43.318  14.710
90335W        W62760  21.244  40.295   0.215
90336W        W62761   6.825  13.637   0.740
90337W        W62762   1.543  17.448   1.962
90338W        W62763  37.914  31.078  12.575
90339W        W62764  40.703   2.844  13.032
90340W        W62765   7.634  19.380   2.340
90341W        W62766   9.567  39.016   4.555
90342W        W62767  10.085  39.441  11.430
90343W        W62768   0.267   8.572  14.806
90344W        W62769  24.441  35.417   2.236
90345W        W62770   0.035  29.391  13.131
90346W        W62771  34.527   5.939   1.815
90347W        W62772  43.277  20.629  11.575
90348W        W62773  19.130  33.084  11.059
90349W        W62774   5.891  37.073   4.724
90350W        W62775  14.226  35.367   3.617
90351W        W62776  24.878  29.800   4.574
90352W        W62777   0.017   2.269   0.725
90353W        W62778   2.019   2.277   5.157
90354W        W62779  18.176  20.595  11.524
90355W        W62780  39.849  33.834   0.886
90356W        W62781   5.880   8.816  13.378
90357W        W62782  12.676  11.703   1.899
90358W        W62783  34.523  44.423   0.802
90359W        W62784  21.553  26.605   0.112
90360W        W62785  28.964  34.547  11.906
90361W        W62786   0.390  34.460  11.849
90362W        W62787   1.233  38.521  10.700
90363W        W62788   8.210  33.005  14.087
90364W        W62789  39.680   7.046   0.876
90365W        W62790  12.581  12.050  10.765
90366W        W62791  32.870  43.006   2.215
90367W        W62792  11.606  31.473  13.601
90368W        W62793  27.216  18.507   4.352
90369W        W62794  12.134   1.875   9.811
90370W        W62795  23.439  43.137   4.928
90371W        W62796   1.936  13.686  14.502
90372W        W62797   8.289  10.680  14.601
90373W        W62798   2.793  29.028  13.411
90374W        W62799  19.476  38.319   0.262
90375W        W62800   7.284  37.964  10.274
90376W        W62801  28.045  10.392   0.922
90377W        W62802  29.784   1.784   1.276
90378W        W62803  43.964  17.568  13.875
90379W        W62804   4.215  40.907  11.004
90380W        W62805  24.429  12.819   1.441
90381W        W62806  37.882  20.428  14.484
90382W        W62807  30.088  21.639  12.342
90383W        W62808  23.941  18.312  14.880
90384W        W62809  35.347  24.617  10.460
90385W        W62810  40.225  28.062  14.833
90386W        W62811   8.813  35.271   0.823
90387W        W62812  43.009  44.273  11.656
90388W        W62813   3.839  12.070  13.694
90389W        W62814  26.902  16.820  12.004
90390W        W62815  31.230  17.036   2.143
90391W        W62816  39.429  19.704  11.996
90392W        W62817  33.964  16.818   4.932
90393W        W62818   7.988  11.516  11.886
90394W        W62819  39.425  41.329  14.770
90395W        W62820   0.082  25.736  13.085
90396W        W62821  21.691  14.086   0.803
90397W        W62822  24.200  41.842  14.343
90398W        W62823  16.810   7.210   1.256
90399W        W62824  41.262  37.887  10.704
90400W        W62825  19.597  32.906   2.436
90401W        W62826  16.725  40.056  13.876
90402W        W62827  39.987  25.128   1.718
90403W        W62828  36.810   8.109  14.985
90404W        W62829  10.229  13.275  11.857
90405W        W62830   3.900  29.466   1.345
90406W        W62831  44.286  38.896  13.995
90407W        W62832  17.100   7.867   3.858
90408W        W62833  38.303  32.033  10.966
90409W        W62834  23.317   2.900  12.153
90410W        W62835  33.033  33.193   1.388
90411W        W62836  10.415   6.675  12.051
90412W        W62837   7.924  11.208  12.536
90413W        W62838  34.317  35.339   4.119
90414W        W62839  38.936  44.766   0.254
90415W        W62840  14.346   9.173  13.379
90416W        W62841  37.357  17.679  12.813
90417W        W62842  13.995  12.629   2.403
90418W        W62843  23.230  26.986  12.045
90419W        W62844  26.490  12.380  11.815
90420W        W62845  10.681  31.291   4.289
90421W        W62846  26.491  30.408  14.940
90422W        W62847  28.156  32.494  14.365
90423W        W62848  33.011  31.829  14.438
90424W        W62849   1.669   1.959   1.638
90425W        W62850  36.691  10.766  12.817
90426W        W62851  42.868  21.538   2.188
90427W        W62852  27.254  30.693  13.376
90428W        W62853  26.531  40.616  11.454
90429W        W62854  10.475  25.062  12.863
90430W        W62855  14.056  32.040   2.249
90431W        W62856  33.427  23.457  10.625
90432W        W62857  13.313  44.816  12.595
90433W        W62858  41.059  39.734   2.820
90434W        W62859  13.282  25.649   0.368
90435W        W62860   3.226  33.528  13.476
90436W        W62861  22.464  20.194   2.366
90437W        W62862  24.775  32.844  13.818
90438W        W62863   6.930  40.049   3.631
90439W        W62864   2.370  18.623  13.350
90440W        W62865   2.274   5.147  11.817
90441W        W62866  37.867  27.500  11.137
90442W        W62867  17.771   1.212  13.331
90443W        W62868  25.969  31.337   9.790
90444W        W62869   0.366  20.202   2.181
90445W        W62870  12.871  29.710   0.273
90446W        W62871  36.892  43.602  12.441
90447W        W62872  20.690   1.867   1.773
90448W        W62873  27.388   9.579  10.904
90449W        W62874  15.160   6.810  10.582
90450W        W62875   6.762  27.693  10.671
90451W        W62876  18.694  36.842  13.848
90452W        W62877  15.123  31.597  14.309
90453W        W62878  39.557  32.975  11.499
90454W        W62879  22.414  13.258  14.704
90455W        W62880  43.371  21.669   2.260
90456W        W62881  42.176  43.852   2.373
90457W        W62882  34.879  42.386   2.991
90458W        W62883  17.228  35.353  11.364
90459W        W62884   5.134  40.376   3.227
90460W        W62885  20.179  31.233   5.536
90461W        W62886  15.641  29.080   0.315
90462W        W62887   2.819  25.125  10.817
90463W        W62888  25.938   2.936  12.868
90464W        W62889   5.768  15.234  13.613
90465W        W62890  12.498  44.992   0.402
90466W        W62891  29.948  41.862  13.850
90467W        W62892  32.868  21.479  14.949
90468W        W62893  24.611   1.879  14.985
90469W        W62894  34.920  43.371   1.043
90470W        W62895  26.094  43.307   1.497
90471W        W62896  14.608   1.376  13.997
90472W        W62897  29.596  10.676   2.457
90473W        W62898   9.611  35.236   9.715
90474W        W62899   2.163   1.345   1.451
90475W        W62900  37.536  16.662   3.610
90476W        W62901  23.877  18.111  11.625
90477W        W62902   4.515   1.224   1.800
90478W        W62903   2.247  44.396   1.907
90479W        W62904  28.767  28.412  10.634
90480W        W62905  21.117  23.304  12.539
90481W        W62906  25.077  38.131  10.714
90482W        W62907  23.710  28.137  13.006
90483W        W62908  25.175  28.499   3.137
90484W        W62909  44.910  34.876   3.286
90485W        W62910  30.009  43.096   1.922
90486W        W62911   1.295  31.461  11.711
90487W        W62912  40.360  35.530   4.049
90488W        W62913  23.438   1.867  12.879
90489W        W62914  38.886  28.972  14.230
90490W        W62915  15.632  28.827   4.633
90491W        W62916  44.750   7.446   1.304
90492W        W62917  28.043  30.091  14.041
90493W        W62918   7.819   7.772  11.527
90494W        W62919  15.348  20.085  14.761
90495W        W62920  38.526  15.588   2.021
90496W        W62921  19.961  25.485   0.527
90497W        W62922   6.779  17.049   4.218
90498W        W62923  20.601  28.986  12.486
90499W        W62924   8.624  35.137  12.973
90500W        W62925  32.475   3.501   0.231
90501W        W62926  13.582   2.827  13.488
90502W        W62927  20.960  31.877  14.564
90503W        W62928  29.968  40.546   4.779
90504W        W62929  30.840   0.011   2.665
90505W        W62930  16.961   1.369   3.886
90506W        W62931  39.871  13.742   1.777
90507W        W62932  20.078   1.683  11.091
90508W        W62933  14.165  39.329   0.308
90509W        W62934  22.664  39.271   3.675
90510W        W62935  35.440   4.356   2.214
90511W        W62936  22.029   8.888   4.128
90512W        W62937   1.552  19.344  10.631
90513W        W62938   2.329  38.756   2.289
90514W        W62939  16.316  15.057  10.745
90515W        W62940  12.751   5.011   2.324
90516W        W62941  13.585   0.857  11.397
90517W        W62942  44.067   3.462  11.873
90518W        W62943   3.577  28.566   0.571
90519W        W62944  37.886  16.494  11.648
90520W        W62945  41.522  12.691   0.264
90521W        W62946  39.425  28.726   2.411
90522W        W62947  16.637   6.862   4.667
90523W        W62948  22.171  20.771   4.617
90524W        W62949  20.725  37.945   2.383
90525W        W62950  18.529   8.699  10.981
90526W        W62951  28.695   4.422   1.147
90527W        W62952  41.005  37.204   2.693
90528W        W62953  19.571  29.940   1.367
90529W        W62954  20.726  41.364  12.984
90530W        W62955  19.020   3.350  12.323
90531W        W62956  33.074  39.439  11.008
90532W        W62957   7.893  19.782   2.705
90533W        W62958  36.530  17.442   3.108
90534W        W62959  33.750  35.648   0.253
90535W        W62960  44.584  17.166   2.768
90536W        W62961   0.457  32.344  12.544
90537W        W62962  36.492  10.747  12.252
90538W        W62963  42.962  24.283  11.209
90539W        W62964  26.006  15.427   1.959
90540W        W62965   0.120  32.033  10.695
90541W        W62966  27.730  19.292  10.690
90542W        W62967  14.176  25.655   3.217
90543W        W62968  40.547  26.676  14.146
90544W        W62969  17.738   2.303   4.190
90545W        W62970  29.085  35.625  13.120
90546W        W62971  33.506  37.570  10.275
90547W        W62972   6.307   4.840  10.281
90548W        W62973  33.242   4.818  14.790
90549W        W62974   1.752   4.320   1.873
90550W        W62975  39.043  13.336  14.462
90551W        W62976   1.712  41.454   1.589
90552W        W62977  12.423  33.919   1.273
90553W        W62978  17.995  33.631   4.795
90554W        W62979  41.760  20.061   2.834
90555W        W62980   7.642  28.111  13.456
90556W        W62981  15.250  44.612   4.437
90557W        W62982  13.673  43.745  14.907
90558W        W62983  41.839  32.649   0.427
90559W        W62984  27.611  37.272   4.197
90560W        W62985  20.557   3.391  11.626
90561W        W62986  22.935   9.115  10.959
90562W        W62987  12.219  16.794   1.842
90563W        W62988  15.194  37.634   2.663
90564W        W62989   3.207   0.485  11.042
90565W        W62990   9.813  26.791   1.889
90566W        W62991  41.022   2.467  12.986
90567W        W62992  31.010  29.716   1.340
90568W        W62993  37.415  31.181   4.158
90569W        W62994  20.338  10.503  14.489
90570W        W62995  20.166   7.959   4.509
90571W        W62996  23.978   9.283   5.073
90572W        W62997  44.769  14.849   2.365
90573W        W62998  22.105  39.408  10.813
90574W        W62999  38.826  44.476  13.273
90575W        W63000  21.667  25.411  11.124
90576W        W63001   7.740  30.172  11.875
90577W        W63002  35.968  33.621   4.191
90578W        W63003  24.049   3.288  14.698
90579W        W63004  36.502  33.346   2.405
90580W        W63005   3.496   5.840  11.002
90581W        W63006   7.207  18.805   1.135
90582W        W63007   3.305   6.282   0.743
90583W        W63008  22.266  21.522   1.847
90584W        W63009  18.122  23.695   2.328
90585W        W63010  40.555  39.841   2.890
90586W        W63011  17.264   5.189  10.659
90587W        W63012  30.911  27.621  14.967
90588W        W63013   8.502  43.186  12.595
90589W        W63014   0.297   0.549   2.374
90590W        W63015  16.172   4.135  10.974
90591W        W63016  33.904  29.602   2.939
90592W        W63017  44.355  44.467   1.319
90593W        W63018  19.259  33.847   3.680
90594W        W63019  28.307  40.592   4.941
90595W        W63020  15.077  40.072  11.094
90596W        W63021   3.764  34.126   1.927
90597W        W63022  44.888  23.566  12.229
90598W        W63023  30.569   6.372  13.650
90599W        W63024  14.275   6.375  12.088
90600W        W63025  32.090  33.828   1.709
90601W        W63026  33.971  17.675  13.154
90602W        W63027  24.543   1.958  13.829
90603W        W63028  25.973  15.779  13.939
90604W        W63029  39.487  16.533  12.986
90605W        W63030   1.448   5.140   3.898
90606W        W63031  25.022   2.933   2.257
90607W        W63032   4.934  30.021   2.338
90608W        W63033  17.246   5.637  13.844
90609W        W63034  10.314  22.623   4.545
90610W        W63035   2.243  42.210   4.185
90611W        W63036  22.543   2.908   3.107
90612W        W63037   6.783  24.487   2.325
90613W        W63038   1.805  26.124   4.877
90614W        W63039  10.111  27.083   0.394
90615W        W63040  31.032  36.261   0.703
90616W        W63041   8.311   9.395   9.754
90617W        W63042  34.444   8.441   3.775
90618W        W63043  39.588  40.912   1.235
90619W        W63044  26.638   7.185  14.474
90620W        W63045   5.855  10.342  12.614
90621W        W63046  27.867  20.172  14.153
90622W        W63047  10.698  34.662   1.411
90623W        W63048  17.021   6.222  12.927
90624W        W63049   6.323   8.239   1.806
90625W        W63050   9.852  20.049  10.577
90626W        W63051  15.665  17.786  10.892
90627W        W63052   1.276  28.851   3.188
90628W        W63053  25.555  15.968  13.466
90629W        W63054  21.474  31.640   5.072
90630W        W63055  41.891   5.569   0.653
90631W        W63056   4.214   1.445  11.393
90632W        W63057  27.823  26.468  11.177
90633W        W63058  14.286   5.298  11.414
90634W        W63059  17.700  44.228  11.649
90635W        W63060  41.048   4.964   0.779
90636W        W63061  25.740  17.025  11.587
90637W        W63062  33.415  34.858  12.479
90638W        W63063  34.408  15.567  11.647
90639W        W63064  25.028   2.193   1.493
90640W        W63065  28.313  27.146   1.227
90641W        W63066  36.823  25.364   1.810
90642W        W63067  36.506  42.087  13.669
90643W        W63068  40.283  40.681  13.989
90644W        W63069   4.952  35.836  12.395
90645W        W63070  32.930  19.073  11.304
90646W        W63071  25.157  44.481  10.678
90647W        W63072  33.750  26.914   4.990
90648W        W63073  20.652  31.970   1.384
90649W        W63074  27.657  30.156  12.641
90650W        W63075   4.876  17.197  13.582
90651W        W63076   3.317  29.192   0.101
90652W        W63077   5.294   8.863  12.100
90653W        W63078   3.622   4.738   3.757
90654W        W63079  36.855  26.178   4.449
90655W        W63080  24.050  31.022  13.550
90656W        W63081  38.827  42.873  14.919
90657W        W63082  30.166  23.529  10.465
90658W        W63083  34.119  38.135   3.588
90659W        W63084  30.119   3.329   4.891
90660W        W63085   8.900  34.900  13.371
90661W        W63086  26.475  38.038  11.729
90662W        W63087  29.303  23.450  14.723
90663W        W63088   7.690  36.303   0.187
90664W        W63089  44.994  44.722  12.741
90665W        W63090  31.967  21.801  12.827
90666W        W63091  28.939  14.762   1.272
90667W        W63092  28.235  42.546  11.634
90668W        W63093  38.939  33.187   4.549
90669W        W63094  18.716  14.051   3.745
90670W        W63095  24.482   1.329  12.101
90671W        W63096  40.639  37.356  13.575
90672W        W63097  36.424  31.391  10.689
90673W        W63098  22.977  10.746   4.149
90674W        W63099  19.818  21.649  10.954
90675W        W63100  12.781  26.608   1.711
90676W        W63101  21.209  38.929  12.003
90677W        W63102  14.356  43.455   1.482
90678W        W63103  30.469  32.186   0.786
90679W        W63104  25.530  11.736   2.645
90680W        W63105  24.403  10.235  11.481
90681W        W63106  11.755  37.616   1.861
90682W        W63107  31.552  20.536   2.282
90683W        W63108  36.436  10.282   1.713
90684W        W63109  13.786  12.394  10.757
90685W        W63110  31.847   2.440   1.760
90686W        W63111  41.640  30.014   3.833
90687W        W63112   4.200  24.118   1.054
90688W        W63113  11.601  34.508  14.382
90689W        W63114  14.097  12.810  12.584
90690W        W63115  20.939  26.381  11.576
90691W        W63116  15.705  20.121   4.175
90692W        W63117  14.866  43.486   2.378
90693W        W63118   8.464  21.195   9.926
90694W        W63119   1.541   8.712   3.270
90695W        W63120  10.531  13.482   9.889
90696W        W63121  40.563  29.867  10.545
90697W        W63122  19.831  24.692   4.151
90698W        W63123  41.862  34.863   1.979
90699W        W63124  38.461  27.902   3.689
90700W        W63125  15.878  27.357  13.988
90701W        W63126  14.233  15.794  13.857
90702W        W63127  38.593  37.010  11.497
90703W        W63128  22.633   7.432  11.088
90704W        W63129  20.638  36.545   2.881
90705W        W63130  38.512  43.193  14.025
90706W        W63131  36.449  11.095   3.402
90707W        W63132  36.883   2.827   3.260
90708W        W63133   2.274   0.235  11.004
90709W        W63134  15.644  37.121  11.626
90710W        W63135  37.382   2.755  10.753
90711W        W63136  21.013  19.750   1.845
90712W        W63137  18.249  28.735   0.036
90713W        W63138   6.922  22.574  14.350
90714W        W63139   6.744  38.879  11.906
90715W        W63140  17.071  39.612   0.721
90716W        W63141   9.446  28.633   3.258
90717W        W63142  34.085  36.762   3.591
90718W        W63143  21.881  33.615  11.159
90719W        W63144   6.256  20.514  13.304
90720W        W63145  24.843   9.098   1.320
90721W        W63146  41.277  21.152   0.768
90722W        W63147  23.229  12.587  14.719
90723W        W63148  29.617  42.760   1.863
90724W        W63149  42.017  37.085  13.819
90725W        W63150   9.442  27.758   0.837
90726W        W63151   1.852   8.325   2.784
90727W        W63152  24.191  15.143   0.405
90728W        W63153  28.933  10.247   5.073
90729W        W63154  15.927   3.723  11.193
90730W        W63155  22.476  34.561  14.397
90731W        W63156   6.347  13.438  13.976
90732W        W63157   5.949  43.463  11.577
90733W        W63158  20.672  40.410  14.574
90734W        W63159  13.878  30.463   0.703
90735W        W63160  19.993  15.386  12.104
90736W        W63161  35.179  22.050  14.363
90737W        W63162  11.632  14.139   0.875
90738W        W63163   2.987  24.123   4.533
90739W        W63164  16.264  13.806   1.512
90740W        W63165  21.593  26.337   4.771
90741W        W63166  31.719  14.890  12.585
90742W        W63167  16.888  14.223   0.795
90743W        W63168  17.587  24.452  10.560
90744W        W63169  30.502  12.900   3.990
90745W        W63170  29.926   5.393   4.640
90746W        W63171  32.145  24.788   3.205
90747W        W63172   5.726  24.069  12.511
90748W        W63173  35.392  10.650  13.080
90749W        W63174  29.888  41.841   5.099
90750W        W63175  16.102  44.245   4.978
90751W        W63176  20.865  27.371   5.208
90752W        W63177  23.915   3.534  12.111
90753W        W63178   1.358  13.511   1.776
90754W        W63179  11.683  32.060  11.950
90755W        W63180  38.010   0.775   3.670
90756W        W63181  33.553  15.245   0.261
90757W        W63182   0.145  29.692  12.462
90758W        W63183  13.163  25.018  14.331
90759W        W63184  14.114   7.848  11.496
90760W        W63185  39.492  37.425  14.637
90761W        W63186  31.561  17.799   3.736
90762W        W63187   6.539  19.025   5.070
90763W        W63188   9.641  34.958  10.576
90764W        W63189  35.613  39.300  14.283
90765W        W63190  44.793   3.355  14.294
90766W        W63191  15.256  10.773   1.387
90767W        W63192   4.832  14.161   0.295
90768W        W63193  29.062  10.737   0.223
90769W        W63194  44.746  33.021   4.540
90770W        W63195  34.997  24.326  14.525
90771W        W63196  17.139  28.683  11.184
90772W        W63197  10.706  26.757  12.018
90773W        W63198  37.883  41.234   1.404
90774W        W63199  20.480  43.419  13.005
90775W        W63200   5.651  33.997  12.989
90776W        W63201  10.190  42.762   3.129
90777W        W63202  12.722  38.980  14.309
90778W        W63203  13.371  20.101  12.459
90779W        W63204  37.634  36.003  13.265
90780W        W63205  11.770  34.938   3.718
90781W        W63206  10.925  12.770   0.796
90782W        W63207  32.912  14.317  14.507
90783W        W63208  38.453  37.879  14.573
90784W        W63209  20.071  35.886   5.028
90785W        W63210  10.734   3.016   1.228
90786W        W63211   3.179  23.131   2.181
90787W        W63212  27.037  16.162  12.501
90788W        W63213   1.897   0.522  12.084
90789W        W63214  33.718  13.897   0.921
90790W        W63215  36.336  10.905  14.066
90791W        W63216   5.928  39.834   1.561
90792W        W63217  15.362  13.584   3.847
90793W        W63218  18.687  30.858   3.903
90794W        W63219  33.149   1.479  10.992
90795W        W63220  21.886  24.109   3.623
90796W        W63221  19.450   1.404   9.992
90797W        W63222  36.953   3.345   2.228
90798W        W63223  27.162   3.927   3.712
90799W        W63224  44.901  13.331   3.757
90800W        W63225  35.478  41.240  13.758
90801W        W63226   0.226  21.630   2.387
90802W        W63227  27.611  13.133   0.986
90803W        W63228  14.760  38.117  13.357
90804W        W63229  15.801   7.432  11.178
90805W        W63230  12.274  32.096   2.033
90806W        W63231  32.928  22.673   0.307
90807W        W63232  11.153  22.235   0.557
90808W        W63233  11.782  32.522   0.463
90809W        W63234  13.759  22.211   3.205
90810W        W63235  22.988  37.606   2.793
90811W        W63236  34.073   7.243   0.209
90812W        W63237  43.802  21.612  12.038
90813W        W63238  25.078  10.898   2.953
90814W        W63239  40.888  15.461   3.857
90815W        W63240  31.165  21.083  10.288
90816W        W63241   7.354   3.389   0.887
90817W        W63242  32.951  16.173  12.958
90818W        W63243   3.712  25.237  11.421
90819W        W63244  10.324  32.915   1.228
90820W        W63245  25.099  23.501   3.820
90821W        W63246   4.999   5.647  12.457
90822W        W63247  35.567  38.147  12.049
90823W        W63248   1.372  28.061   0.808
90824W        W63249  38.109  41.984  12.488
90825W        W63250  36.218  19.561   1.859
90826W        W63251  40.336  30.514  11.059
90827W        W63252   0.572   8.259  11.603
90828W        W63253  41.632  39.068   1.952
90829W        W63254  26.306  39.947  11.863
90830W        W63255  35.142  43.403   1.958
90831W        W63256   6.304  22.412   4.548
90832W        W63257  15.642  30.713  11.476
90833W        W63258  43.318  15.599  14.032
90834W        W63259  22.727  23.005  13.831
90835W        W63260  16.574   2.477  10.970
90836W        W63261  28.157  12.823   4.208
90837W        W63262  11.742  32.375  10.224
90838W        W63263  30.441  43.928  13.043
90839W        W63264  25.656   3.966  14.702
90840W        W63265   0.146   5.936   1.893
90841W        W63266   4.965  17.744  10.559
90842W        W63267   5.625  22.017  11.996
90843W        W63268  31.004   0.780   1.277
90844W        W63269  36.423  42.197   0.423
90845W        W63270  35.197  13.236  14.522
90846W        W63271   7.294   5.413  12.123
90847W        W63272   8.728  10.892  12.117
90848W        W63273  15.694  30.370  12.496
90849W        W63274  13.581  15.666   0.802
90850W        W63275  23.180  28.168  12.979
90851W        W63276  36.269  25.631  13.525
90852W        W63277  43.612  19.362  13.943
90853W        W63278  41.625  19.627   3.185
90854W        W63279  35.143  41.620  13.897
90855W        W63280  19.049  23.555   1.022
90856W        W63281   7.134   4.122  13.719
90857W        W63282  29.078  37.482   0.487
90858W        W63283  19.966  38.968  13.566
90859W        W63284  17.599  22.425   0.491
90860W        W63285   0.425   2.357  14.871
90861W        W63286  32.667   8.643   3.733
90862W        W63287  34.112   9.300  13.903
90863W        W63288  20.554  20.962  13.552
90864W        W63289  38.631  29.953  13.458
90865W        W63290  33.746   9.382  12.484
90866W        W63291  32.497  31.569   2.676
90867W        W63292   5.503  28.426   1.688
90868W        W63293   7.822  10.292  13.879
90869W        W63294  10.538  41.893  12.957
90870W        W63295  42.949  14.098  12.113
90871W        W63296  43.608  10.838  13.387
90872W        W63297  10.461  39.542  10.959
90873W        W63298   6.997  16.305  10.751
90874W        W63299  24.459  37.371  11.913
90875W        W63300  41.560  10.399  13.282
90876W        W63301  14.557  22.797  10.180
90877W        W63302  44.908  11.410   1.823
90878W        W63303   2.049  29.581  13.526
90879W        W63304  19.523   2.099  14.293
90880W        W63305   2.565  42.339  13.770
90881W        W63306  44.024   4.551  10.602
90882W        W63307  40.993  27.023   4.595
90883W        W63308   6.420  17.268  10.730
90884W        W63309  33.911  32.964  11.601
90885W        W63310  24.499  18.139  13.356
90886W        W63311  34.431  30.334   0.414
90887W        W63312  16.040  27.705  13.070
90888W        W63313  38.340   3.319  12.630
90889W        W63314  13.607  37.478   3.589
90890W        W63315  25.450  12.969  12.855
90891W        W63316  19.176   8.942   4.342
90892W        W63317   6.466  27.759  11.086
90893W        W63318   4.333  30.622  10.574
90894W        W63319  42.482   3.870   3.353
90895W        W63320  29.121   0.503   2.770
90896W        W63321  42.039  28.141   1.170
90897W        W63322   8.284  27.396  11.643
90898W        W63323  16.529  40.564   3.631
90899W        W63324  26.945  40.368   4.658
90900W        W63325  31.968   1.559   4.235
90901W        W63326  22.602   5.543  11.546
90902W        W63327  11.356  26.151  12.355
90903W        W63328  36.173  14.987  13.596
90904W        W63329  13.719  10.142   4.746
90905W        W63330  32.458  30.505  11.441
90906W        W63331   0.391   7.587  11.129
90907W        W63332  22.639  32.445  14.960
90908W        W63333  44.706  41.318   3.075
90909W        W63334  17.070  33.412   0.078
90910W        W63335  22.568  29.387  11.418
90911W        W63336  21.803  17.003   3.612
90912W        W63337  39.282  24.462  13.386
90913W        W63338  41.838  23.803  12.781
90914W        W63339  28.969  37.099  11.501
90915W        W63340  18.111  14.260  14.330
90916W        W63341  19.847   2.842  10.719
90917W        W63342  41.463  21.159   0.270
90918W        W63343  19.276   0.733   1.366
90919W        W63344  20.800  31.875  11.032
90920W        W63345   2.305  37.651  13.340
90921W        W63346  35.608  27.415   4.224
90922W        W63347  26.548  40.001   3.774
90923W        W63348  43.938   7.358   4.658
90924W        W63349  36.198  41.018   2.765
90925W        W63350  15.550  33.097   0.916
90926W        W63351  25.044  15.531   4.961
90927W        W63352  42.487  20.063   4.171
90928W        W63353  17.741   0.707   1.800
90929W        W63354  23.617  34.995  11.562
90930W        W63355  35.324  26.561  13.070
90931W        W63356  13.866   9.246   1.236
90932W        W63357   6.982  43.935  12.445
90933W        W63358   0.965  21.003  13.956
90934W        W63359   3.201  22.592   3.661
90935W        W63360  14.422  29.611   0.510
90936W        W63361  43.049  20.755  12.385
90937W        W63362  44.818  11.529  11.332
90938W        W63363  18.655   1.755   0.181
90939W        W63364   7.911   0.179  11.071
90940W        W63365   3.625   2.363   3.641
90941W        W63366  33.254  43.086   5.012
90942W        W63367  29.781  18.182  13.728
90943W        W63368  32.505  15.204   1.790
90944W        W63369  10.548   0.034   2.434
90945W        W63370  17.847  41.316  12.634
90946W        W63371  23.266  16.249   0.829
90947W        W63372  36.996  43.888  12.017
90948W        W63373  12.302  17.039  13.472
90949W        W63374   5.080  22.311  14.476
90950W        W63375  30.839  16.097  10.106
90951W        W63376  16.822  18.827   0.078
90952W        W63377  32.565   2.100  11.106
90953W        W63378  23.935  17.050   2.022
90954W        W63379  23.656   7.335  12.877
90955W        W63380  30.062  35.324  13.460
90956W        W63381   2.421  37.514   1.872
90957W        W63382  39.539  38.486   1.707
90958W        W63383   5.247   1.551   3.191
90959W        W63384  11.210  15.556  12.859
90960W        W63385  23.133  44.748  12.018
90961W        W63386  43.842  36.756  13.534
90962W        W63387  23.579  40.238  12.597
90963W        W63388   3.949  30.490   4.770
90964W        W63389  26.582  38.968  12.328
90965W        W63390  37.845   1.820  10.774
90966W        W63391  14.510   7.394  12.388
90967W        W63392  20.473  44.828  10.473
90968W        W63393   3.001   6.858  13.491
90969W        W63394  42.047  15.683  13.597
90970W        W63395  17.709  17.478  13.787
90971W        W63396  12.498  38.743  13.874
90972W        W63397  35.110  20.129   2.814
90973W        W63398  18.025   8.776   0.444
90974W        W63399   3.853  37.097   1.284
90975W        W63400  38.030   8.795   0.465
90976W        W63401  41.959  25.047   1.988
90977W        W63402   8.462   7.375  13.371
90978W        W63403  18.590  14.090  13.572
90979W        W63404  43.465  44.012  14.356
90980W        W63405   9.813  25.739  13.851
90981W        W63406  26.169  35.596  11.034
90982W        W63407  14.674  29.215  13.388
90983W        W63408  31.555  22.618  12.574
90984W        W63409  40.842   5.331   0.284
90985W        W63410  13.757  39.445  11.047
90986W        W63411  19.526  13.589  10.707
90987W        W63412   3.365  24.839  13.007
90988W        W63413   2.737  34.263   4.042
90989W        W63414  10.771  32.644   1.275
90990W        W63415  19.789  32.128  11.030
90991W        W63416  30.692  27.084  12.437
90992W        W63417  30.716  37.858  11.470
90993W        W63418  19.668  40.175   4.740
90994W        W63419  32.578   1.461  13.402
90995W        W63420  30.570   5.406   4.360
90996W        W63421  32.866  23.499  10.656
90997W        W63422  21.304  27.056   3.098
90998W        W63423  23.767  34.588   1.776
90999W        W63424  41.018  21.001  10.593
91000W        W63425  21.155  26.613   4.668
91001W        W63426  38.923  37.991  12.180
91002W        W63427   1.743  12.430   0.860
91003W        W63428  21.938  43.894  14.609
91004W        W63429  37.768  38.951   1.290
91005W        W63430  13.796  27.758  10.658
91006W        W63431  38.798   4.696  12.966
91007W        W63432  44.469   3.313  14.722
91008W        W63433   1.580  30.924   2.260
91009W        W63434  28.749  17.255  11.744
91010W        W63435  36.327  13.683   0.803
91011W        W63436  13.205  30.326  11.125
91012W        W63437  36.577  15.314   0.347
91013W        W63438   7.616  43.245  11.037
91014W        W63439  13.225  12.558   2.771
91015W        W63440   3.206   4.557  11.121
91016W        W63441  41.027  44.953   9.519
91017W        W63442  20.721   1.439   4.572
91018W        W63443  33.632  36.940   0.912
91019W        W63444  10.181  24.987  14.640
91020W        W63445  35.500  30.506  12.878
91021W        W63446  38.627  40.434  11.247
91022W        W63447  14.821   5.347   1.455
91023W        W63448  43.614   5.889   4.928
91024W        W63449   6.896  30.399  14.181
91025W        W63450  23.157  37.957  14.953
91026W        W63451  25.267   6.332  14.357
91027W        W63452  19.602  11.142   1.796
91028W        W63453  18.787   0.956   2.690
91029W        W63454  39.635  17.193   4.553
91030W        W63455  25.317  31.482  13.595
91031W        W63456  39.059   4.262   0.226
91032W        W63457  26.294  11.195  12.573
91033W        W63458  11.306  39.078  12.679
91034W        W63459  19.221   9.821   1.217
91035W        W63460  10.161   0.912   2.171
91036W        W63461   0.247  10.249  13.861
91037W        W63462  28.924   7.824  14.857
91038W        W63463  22.487   8.453  11.275
91039W        W63464  32.952   0.700   3.238
91040W        W63465  38.797  17.600   2.863
91041W        W63466   9.186  32.005   2.631
91042W        W63467  11.674  24.262  13.107
91043W        W63468  11.724  15.373  12.901
91044W        W63469  26.903  32.400   3.650
91045W        W63470  24.389  43.042  10.101
91046W        W63471  38.787  42.996  11.132
91047W        W63472  28.401   1.795  11.529
91048W        W63473  37.567  17.856   2.401
91049W        W63474  18.135  36.477  10.815
91050W        W63475  26.474  32.621   1.394
91051W        W63476  18.038  18.259   1.123
91052W        W63477  20.671  14.242   2.975
91053W        W63478   0.529  35.522   0.377
91054W        W63479   1.799   4.163  11.272
91055W        W63480  21.523  27.777  10.517
91056W        W63481  14.963  41.118   4.222
91057W        W63482  18.530  18.184   3.657
91058W        W63483  17.063  17.533   2.594
91059W        W63484  36.734  22.378  10.578
91060W        W63485  29.968  25.093  12.256
91061W        W63486   2.289  16.328   2.420
91062W        W63487   8.825  44.775   2.384
91063W        W63488   4.416  34.022   4.577
91064W        W63489  34.322   0.489   2.643
91065W        W63490  21.957  14.133  12.107
91066W        W63491  26.366  35.941  14.529
91067W        W63492  32.113   0.885  11.435
91068W        W63493   7.931  36.028  11.106
91069W        W63494   6.991  33.393   4.202
91070W        W63495  28.158  40.882  11.089
91071W        W63496  38.968  36.967   1.839
91072W        W63497  23.955   9.063   2.353
91073W        W63498   0.320  36.390   3.968
91074W        W63499   4.645   9.768   0.156
91075W        W63500   8.710   7.216  14.972
91076W        W63501  14.517  17.555   1.779
91077W        W63502  43.848  27.366  13.514
91078W        W63503  13.132   7.787  10.985
91079W        W63504  13.298  22.163  11.092
91080W        W63505  25.289  38.489   1.992
91081W        W63506   5.490  25.481   4.510
91082W        W63507   1.239  36.691   3.668
91083W        W63508  35.411   1.759   2.242
91084W        W63509  31.544   2.186   4.714
91085W        W63510  15.762  38.947  10.976
91086W        W63511  42.848  32.134   3.599
91087W        W63512   2.232  41.446   3.730
91088W        W63513   1.253  29.493  14.897
91089W        W63514   1.756   3.463   1.465
91090W        W63515   7.726  27.656   4.089
91091W        W63516  42.281  19.536  13.064
91092W        W63517  40.326  44.858   2.158
91093W        W63518  39.612  31.171  12.298
91094W        W63519  13.179   1.907   3.985
91095W        W63520  43.816  20.954   3.175
91096W        W63521  22.724  38.841   0.958
91097W        W63522  33.628   8.405   2.610
91098W        W63523  22.738  24.266   1.409
91099W        W63524  24.159   0.039   1.585
91100W        W63525   6.098  42.806  12.454
91101W        W63526  11.221  37.064  12.890
91102W        W63527  41.537  24.554  11.147
91103W        W63528  18.085  30.533  12.126
91104W        W63529   5.224  10.487   3.774
91105W        W63530  37.356  44.862   1.757
91106W        W63531  41.480  12.970  14.375
91107W        W63532  11.168   4.962  14.826
91108W        W63533  29.303  32.072  11.060
91109W        W63534  26.932   6.212  11.128
91110W        W63535  44.974  35.503   2.255
91111W        W63536  25.417  37.581   0.118
91112W        W63537   4.327  26.579  14.033
91113W        W63538  27.609  43.712   2.252
91114W        W63539  11.446  36.862   3.205
91115W        W63540  33.843  17.657   2.348
91116W        W63541   4.423  35.437  14.801
91117W        W63542   4.465  43.994  13.215
91118W        W63543  31.549   6.725   4.621
91119W        W63544  38.844  12.909  14.761
91120W        W63545   8.724   2.441   0.795
91121W        W63546  33.020  31.680  12.433
91122W        W63547  32.960  44.285   4.613
91123W        W63548  36.131  15.272   3.652
91124W        W63549  12.377  34.840   3.808
91125W        W63550  31.046   9.456   1.851
91126W        W63551  26.200  26.383  11.108
91127W        W63552  27.640  21.644  12.499
91128W        W63553   5.777  24.471  14.771
91129W        W63554  44.823  41.747   2.193
91130W        W63555  17.790  31.001  12.695
91131W        W63556  41.422  29.849   0.101
91132W        W63557   2.217  36.002   1.769
91133W        W63558  33.387  22.184  10.872
91134W        W63559  34.506   8.111   2.375
91135W        W63560   9.436  29.493  13.495
91136W        W63561  41.425  16.336   0.772
91137W        W63562  19.609  36.605   0.312
91138W        W63563  37.984  15.487   3.523
91139W        W63564  22.818  35.906  10.982
91140W        W63565   0.564  41.735  12.566
91141W        W63566  16.182  35.187   4.658
91142W        W63567  42.411  16.970  13.773
91143W        W63568  22.900  24.457   1.873
91144W        W63569  43.363  22.167   1.050
91145W        W63570  36.885  39.121   4.550
91146W        W63571  30.143  39.374   4.797
91147W        W63572  32.488  39.649  12.099
91148W        W63573   2.024  14.381  12.353
91149W        W63574  26.582  33.568   2.806
91150W        W63575  35.430  16.083   4.274
91151W        W63576  29.616  35.022   0.183
91152W        W63577  26.219  31.964  10.280
91153W        W63578  29.964  40.913  14.180
91154W        W63579   5.336  10.265  13.017
91155W        W63580  24.932   4.940  14.043
91156W        W63581  27.000  30.129  12.106
91157W        W63582  20.086  33.909  10.652
91158W        W63583  40.075  43.937  12.890
91159W        W63584  12.896  20.254   4.367
91160W        W63585  13.199  37.412   3.251
91161W        W63586  22.727  21.651  13.057
91162W        W63587  30.434  16.589   0.298
91163W        W63588  18.122  27.100   1.436
91164W        W63589  26.201  37.955   3.900
91165W        W63590  27.968  13.275  14.671
91166W        W63591  21.354  38.810   4.644
91167W        W63592  44.764  20.632   0.320
91168W        W63593  20.124   6.267   1.433
91169W        W63594  33.694  26.433   0.896
91170W        W63595  15.640  19.296   1.240
91171W        W63596  32.693   5.827   0.188
91172W        W63597  24.524  26.822   3.463
91173W        W63598  23.342  39.972   2.827
91174W        W63599  22.127  19.093  13.081
91175W        W63600  28.282  25.225   4.557
91176W        W63601  42.987  24.492  12.678
91177W        W63602  22.543  26.472   5.109
91178W        W63603  39.868   3.487  11.714
91179W        W63604  32.005  18.112  11.996
91180W        W63605  16.632  29.950   2.413
91181W        W63606  29.619  24.275   3.593
91182W        W63607   9.552   6.650  12.221
91183W        W63608  40.852  42.945  10.701
91184W        W63609  21.101   8.571  10.959
91185W        W63610   2.804  25.471   1.915
91186W        W63611  43.387   2.387   3.103
91187W        W63612  34.848  30.978  13.919
91188W        W63613  12.277  38.390   1.357
91189W        W63614  35.218   8.712  11.051
91190W        W63615  37.541   5.154  13.991
91191W        W63616   4.900  26.745  14.856
91192W        W63617   4.578  39.445   3.108
91193W        W63618  39.379  18.908  10.611
91194W        W63619  19.745  43.769  11.638
91195W        W63620   0.537  40.713   3.766
91196W        W63621  40.566  29.602   1.173
91197W        W63622  41.363  11.333  13.411
91198W        W63623  24.139  21.574  14.321
91199W        W63624  20.062  29.179   1.366
91200W        W63625   2.159  39.420   3.448
91201W        W63626  20.838  17.519   0.621
91202W        W63627  20.252  18.233  12.019
91203W        W63628  21.056  40.763  14.579
91204W        W63629  37.608  19.733   4.276
91205W        W63630  14.298  30.666   0.501
91206W        W63631  40.388  20.493  11.985
91207W        W63632  36.563   1.791   3.166
91208W        W63633  17.259   0.181  12.438
91209W        W63634  29.466  21.478   0.869
91210W        W63635   5.951  27.460  14.035
91211W        W63636   6.419   5.855  12.433
91212W        W63637  12.573  24.221  10.552
91213W        W63638  21.019  28.540  13.935
91214W        W63639  38.389  37.409  14.347
91215W        W63640  18.152   4.226   4.633
91216W        W63641  12.656  30.532   0.259
91217W        W63642  42.346  10.710  14.836
91218W        W63643  25.082   8.755  10.792
91219W        W63644  32.511  20.504   1.389
91220W        W63645  16.530  43.468  14.346
91221W        W63646  29.158  27.784   4.679
91222W        W63647   7.317  25.514  14.687
91223W        W63648  30.691  25.529   1.342
91224W        W63649  31.133  19.567  14.863
91225W        W63650  41.718  39.417   0.360
91226W        W63651  42.795  18.800   0.997
91227W        W63652  35.914  11.858  12.353
91228W        W63653  33.527  43.417   0.630
91229W        W63654  11.253  33.862  13.270
91230W        W63655  41.287  44.098  14.859
91231W        W63656  28.284   7.903   3.700
91232W        W63657  14.231   0.476  13.784
91233W        W63658  37.786   3.434   1.965
91234W        W63659   2.955  38.577  11.933
91235W        W63660  40.520  18.602   2.734
91236W        W63661  26.586  38.369   1.906
91237W        W63662   5.204  34.312   2.319
91238W        W63663  41.812   0.200  14.289
91239W        W63664   6.702  22.471  12.518
91240W        W63665  17.790  29.165   2.210
91241W        W63666  32.603  18.570   0.714
91242W        W63667  15.329  38.059  12.171
91243W        W63668  16.354  30.997  10.687
91244W        W63669  18.669   9.228  14.470
91245W        W63670  30.474  16.588   9.841
91246W        W63671  29.506  21.687  12.134
91247W        W63672  28.707   2.803   1.168
91248W        W63673  11.769   0.390  13.231
91249W        W63674  17.836  38.049  13.216
91250W        W63675  24.787   2.541   4.202
91251W        W63676  11.079   1.434   3.696
91252W        W63677  41.500  37.475   4.608
91253W        W63678   4.425  13.542  12.998
91254W        W63679   3.337  35.226   2.340
91255W        W63680   8.147  13.040   4.016
91256W        W63681  40.844  14.124  13.418
91257W        W63682  34.037  39.767   1.784
91258W        W63683  30.911  28.620  13.342
91259W        W63684  15.709  41.834   3.375
91260W        W63685  38.209   3.631   1.706
91261W        W63686   8.802   1.298   0.729
91262W        W63687   9.939  17.272   0.279
91263W        W63688  29.149  27.462  12.895
91264W        W63689   7.727  17.637  10.603
91265W        W63690  32.573   7.772  13.465
91266W        W63691  41.836  21.689   3.547
91267W        W63692  26.528  32.110   1.329
91268W        W63693  35.028  20.586  11.515
91269W        W63694   5.295  34.852   4.556
91270W        W63695   1.258  22.288   0.956
91271W        W63696   8.372  43.405   3.004
91272W        W63697  33.889  21.951  11.497
91273W        W63698  38.274  24.419  13.547
91274W        W63699   6.852  25.441   0.406
91275W        W63700  34.301  42.250  13.952
91276W        W63701  29.401  24.482   4.828
91277W        W63702  34.641  29.178   4.395
91278W        W63703  40.367   5.444  13.010
91279W        W63704  23.154  23.693   0.497
91280W        W63705  15.988  35.941   5.219
91281W        W63706  34.675   3.893  14.937
91282W        W63707   5.470  32.119  12.525
91283W        W63708  41.949  32.589  11.530
91284W        W63709  34.917  13.748  10.730
91285W        W63710  33.484   6.864   0.469
91286W        W63711  27.938  14.363   2.823
91287W        W63712  30.452   5.538   3.862
91288W        W63713  38.975  44.286   3.710
91289W        W63714  28.140  30.266   0.415
91290W        W63715  36.974  22.269  14.748
91291W        W63716  18.567  43.715   4.255
91292W        W63717  15.680   1.027   4.621
91293W        W63718  43.594  36.021  12.948
91294W        W63719  16.846  14.182   2.295
91295W        W63720   1.707  22.774  12.955
91296W        W63721   2.530  29.658   3.594
91297W        W63722   9.890  21.226  14.929
91298W        W63723  11.321  33.483   4.971
91299W        W63724  27.463  40.263   4.617
91300W        W63725  42.761  20.225   0.375
91301W        W63726  29.458  18.302   0.502
91302W        W63727  29.816  12.208   3.134
91303W        W63728  29.424  41.614   4.960
91304W        W63729  15.213  16.791   3.177
91305W        W63730  32.676   9.349  14.060
91306W        W63731  44.311  13.629   4.531
91307W        W63732  21.256  42.614   3.175
91308W        W63733  24.017  39.918   4.555
91309W        W63734  23.127  13.750  10.930
91310W        W63735   0.663  14.367   0.717
91311W        W63736  30.976  16.422  13.997
91312W        W63737  44.931  24.439  13.233
91313W        W63738  32.596  39.360   0.272
91314W        W63739  11.301  42.157  12.007
91315W        W63740  14.628   0.670   1.436
91316W        W63741  17.257  13.418   3.717
91317W        W63742  43.339  35.422   2.635
91318W        W63743  32.492  14.612   0.440
91319W        W63744   4.203  38.233   5.004
91320W        W63745  32.024  13.607   1.809
91321W        W63746  31.381   5.179  10.613
91322W        W63747  10.689   2.361  14.792
91323W        W63748  36.697  24.040   3.294
91324W        W63749  35.064  22.665   4.228
91325W        W63750  12.216   5.809  12.029
91326W        W63751  37.556  25.154  11.000
91327W        W63752  13.098   0.837   4.313
91328W        W63753  38.106  11.111   3.303
91329W        W63754  29.498   6.077   4.130
91330W        W63755  21.220  38.393  13.505
91331W        W63756  15.727  17.171   2.236
91332W        W63757   5.292  26.915   0.853
91333W        W63758  34.623  25.513  14.538
91334W        W63759  42.368  28.994   2.318
91335W        W63760  37.562  29.057  14.422
91336W        W63761  10.859  42.952   3.650
91337W        W63762  34.617  26.893  14.756
91338W        W63763   1.519   8.684   1.492
91339W        W63764  38.010  16.022  12.847
91340W        W63765   4.753  16.462   4.324
91341W        W63766  22.121  13.178   4.466
91342W        W63767   9.389   8.818  12.843
91343W        W63768  43.416  24.728  14.734
91344W        W63769  31.979   2.441  13.364
91345W        W63770  17.196  22.564   1.241
91346W        W63771  43.420  11.241   4.851
91347W        W63772  23.042  40.969   0.407
91348W        W63773  18.019  31.572   2.576
91349W        W63774  10.289  10.732  14.676
91350W        W63775   1.295  38.929   3.590
91351W        W63776  27.029   4.273  11.576
91352W        W63777  28.123   7.189  13.388
91353W        W63778  22.756   2.445   1.171
91354W        W63779  41.829  22.326   1.486
91355W        W63780  43.871   9.105   0.236
91356W        W63781  27.032  29.189   2.229
91357W        W63782   8.681  10.614   4.845
91358W        W63783  18.354   5.244   2.731
91359W        W63784  39.568   0.009   4.719
91360W        W63785  42.971  21.034   0.901
91361W        W63786  11.252  39.960  10.726
91362W        W63787   6.256   6.911   0.946
91363W        W63788  10.435   9.293   2.168
91364W        W63789   1.305  19.889  14.574
91365W        W63790   6.765  37.984   0.347
91366W        W63791  13.651   5.002  10.435
91367W        W63792  39.820  12.694  12.359
91368W        W63793   4.540  33.550  10.860
91369W        W63794  23.218   1.712   4.550
91370W        W63795  25.972  11.189  13.005
91371W        W63796   8.478  10.355  11.555
91372W        W63797  39.899  42.424  13.081
91373W        W63798  10.237  19.332  13.135
91374W        W63799  30.678   8.253   3.156
91375W        W63800  40.398  16.440  13.015
91376W        W63801  23.646  14.172  12.516
91377W        W63802   3.781   4.893  13.814
91378W        W63803  32.385  27.191   3.855
91379W        W63804  43.544  13.250   0.944
91380W        W63805  22.565  35.978  12.424
91381W        W63806  14.845  20.116  11.152
91382W        W63807  18.268  26.605  14.466
91383W        W63808  26.705  18.057   1.767
91384W        W63809  33.628  18.577   2.784
91385W        W63810   0.548  12.036   1.296
91386W        W63811   2.914  19.525  14.868
91387W        W63812  32.224  43.273  11.521
91388W        W63813  21.692   9.318   1.919
91389W        W63814   9.774  38.576  10.846
91390W        W63815  16.795  29.023  14.872
91391W        W63816  26.664  14.701   4.159
91392W        W63817  12.319   2.177   2.218
91393W        W63818  43.430  28.462   0.563
91394W        W63819  37.090  28.559   0.396
91395W        W63820  18.164  42.517   1.026
91396W        W63821  25.469  10.789  13.501
91397W        W63822  34.701  13.987  13.086
91398W        W63823  34.339  17.636   2.210
91399W        W63824   2.933  32.921  12.632
91400W        W63825  13.072  43.908  12.907
91401W        W63826  35.949  31.035   4.568
91402W        W63827  40.867  22.500  10.684
91403W        W63828  17.133  19.920  12.921
91404W        W63829   6.717  29.968  13.963
91405W        W63830  13.987  44.480   3.609
91406W        W63831  22.245  19.331   4.068
91407W        W63832  33.640  33.167   2.597
91408W        W63833  36.164  32.883  12.854
91409W        W63834  25.590  32.407  13.548
91410W        W63835  42.353  10.813  13.948
91411W        W63836  17.485  34.850   1.817
91412W        W63837  24.009  24.905   5.096
91413W        W63838  37.596  44.035   2.288
91414W        W63839  22.292  24.145  14.418
91415W        W63840   4.393  13.162   2.624
91416W        W63841  26.164  43.101   2.430
91417W        W63842  27.939  29.704   2.088
91418W        W63843   1.731  14.664   1.818
91419W        W63844  15.238   9.212  13.647
91420W        W63845  31.137  29.224   1.401
91421W        W63846  20.637  28.112   4.241
91422W        W63847  18.972  19.607   2.197
91423W        W63848  28.211  29.275  14.449
91424W        W63849  15.229  44.498  11.493
91425W        W63850   0.555  12.109  14.780
91426W        W63851  13.214   2.399   4.228
91427W        W63852   2.831   6.839   4.554
91428W        W63853  43.706  30.922   2.221
91429W        W63854  12.153  16.961  11.200
91430W        W63855  21.764  41.306   1.277
91431W        W63856  31.467  36.342  13.414
91432W        W63857  23.369   3.223  13.520
91433W        W63858  15.266  18.219   4.388
91434W        W63859  23.380  25.259   0.838
91435W        W63860  44.792  12.631   2.151
91436W        W63861   8.720  39.807   1.847
91437W        W63862  33.899  26.996  12.095
91438W        W63863  26.575   1.788  11.525
91439W        W63864   1.379  23.710   0.514
91440W        W63865  35.733  18.981  10.654
91441W        W63866  31.155  20.720   4.866
91442W        W63867  27.700   6.944   0.342
91443W        W63868  31.141  32.234  14.191
91444W        W63869   8.699  30.261  11.103
91445W        W63870  18.046  18.634   2.763
91446W        W63871  27.458   6.741   2.786
91447W        W63872  13.513   3.948   1.561
91448W        W63873  40.016  29.338   1.838
91449W        W63874  28.884  43.180  14.633
91450W        W63875   7.785  44.822  11.979
91451W        W63876  35.989  25.395   2.859
91452W        W63877  22.532  14.390   1.289
91453W        W63878  29.545   0.030  10.686
91454W        W63879   7.134  23.283   4.059
91455W        W63880   4.655  19.812  11.895
91456W        W63881  44.845  35.144  11.918
91457W        W63882  31.170   5.628  13.330
91458W        W63883  32.601  35.505   4.821
91459W        W63884   1.836  37.225   4.574
91460W        W63885  10.780  34.725   0.012
91461W        W63886  44.560   5.820  11.006
91462W        W63887  16.604  17.456  14.492
91463W        W63888  39.824   7.952   3.336
91464W        W63889  28.045   4.880   0.889
91465W        W63890  27.850  27.925  11.389
91466W        W63891  29.479  33.455   3.526
91467W        W63892   6.355  12.534  14.922
91468W        W63893  34.909   4.524   3.088
91469W        W63894  21.970  11.825   2.206
91470W        W63895  21.522   3.718   3.721
91471W        W63896  35.739  24.653   2.847
91472W        W63897   0.392  41.087   3.403
91473W        W63898  32.705   5.726   4.602
91474W        W63899  40.322   0.205  12.005
91475W        W63900  17.934  10.397   2.725
91476W        W63901  27.942  41.636  14.983
91477W        W63902  12.632   5.684   1.011
91478W        W63903  26.024  22.252  12.816
91479W        W63904   8.425  34.071  11.614
91480W        W63905  20.432  18.532   2.645
91481W        W63906  35.337   2.014  10.589
91482W        W63907  11.564  26.144  11.182
91483W        W63908  19.642  39.623   2.636
91484W        W63909  26.372  27.619   0.847
91485W        W63910  24.464  15.634  13.936
91486W        W63911   4.386   2.723  10.585
91487W        W63912  29.453  10.563  12.065
91488W        W63913   2.292  35.610  12.520
91489W        W63914  20.573  35.420  11.532
91490W        W63915  13.666  42.531  13.509
91491W        W63916   9.355   7.954   3.644
91492W        W63917  30.021   0.512  14.109
91493W        W63918  41.537   9.837  12.022
91494W        W63919  29.158  10.255   0.371
91495W        W63920  10.403  23.248   1.822
91496W        W63921  13.422  15.663   3.726
91497W        W63922  13.382   2.019  13.019
91498W        W63923  32.506  13.303   1.775
91499W        W63924  37.159  37.118  11.467
91500W        W63925  13.598   0.275   2.341
91501W        W63926   9.546  42.912  14.835
91502W        W63927   7.968   6.422   5.430
91503W        W63928  31.504  43.847   1.342
91504W        W63929  27.528  12.270   0.209
91505W        W63930  37.958  41.081  13.989
91506W        W63931  26.890   1.837  11.090
91507W        W63932  24.087  36.097   4.499
91508W        W63933  30.170   3.842  12.481
91509W        W63934  22.200  41.374  13.501
91510W        W63935  22.596   3.422   3.132
91511W        W63936  30.792   2.771  13.905
91512W        W63937  21.294  32.817  14.421
91513W        W63938  12.340  24.733  14.066
91514W        W63939  18.977   5.974  14.803
91515W        W63940  10.661  39.416   4.400
91516W        W63941  17.481   8.738   0.404
91517W        W63942  22.046  40.990   3.796
91518W        W63943  20.606  33.970  11.463
91519W        W63944  11.715  24.011   3.882
91520W        W63945   3.432  23.510  13.074
91521W        W63946  21.271  28.324  14.685
91522W        W63947  26.715  17.066   2.771
91523W        W63948  43.059  29.807  12.549
91524W        W63949  29.503  32.855   4.203
91525W        W63950  23.904   9.277  11.049
91526W        W63951  20.142   9.404   1.909
91527W        W63952  32.957   4.935   3.789
91528W        W63953  37.564   2.535   2.246
91529W        W63954  33.674  25.408  14.017
91530W        W63955  39.476   0.777  14.039
91531W        W63956  39.499  17.021   3.190
91532W        W63957  40.342  30.879   1.720
91533W        W63958  12.303  43.542   1.939
91534W        W63959  26.117  24.780   0.173
91535W        W63960  43.360  40.481  12.374
91536W        W63961  11.113  17.355   4.577
91537W        W63962  10.328   8.790  10.590
91538W        W63963  33.098  29.234  14.039
91539W        W63964  12.639   4.282  11.636
91540W        W63965  15.578  19.353   3.776
91541W        W63966  40.294  23.997  12.626
91542W        W63967  26.899   7.141   5.200
91543W        W63968  18.733   6.360  11.302
91544W        W63969  18.080  11.710  12.460
91545W        W63970  12.340  31.421   4.423
91546W        W63971  17.606  34.421   0.344
91547W        W63972  25.972  14.220  14.920
91548W        W63973  26.478  32.962   4.995
91549W        W63974  32.996   5.826  10.687
91550W        W63975  36.617  21.634   0.967
91551W        W63976  26.541  12.111  14.363
91552W        W63977  36.877  18.539  12.583
91553W        W63978   4.949  20.275  14.912
91554W        W63979  39.835  24.763   2.667
91555W        W63980  32.445   1.946  14.422
91556W        W63981  21.171  27.539  14.042
91557W        W63982   1.261  38.757   2.756
91558W        W63983  15.786  24.627  12.582
91559W        W63984  14.272  25.535   1.792
91560W        W63985  10.353  40.534   4.561
91561W        W63986  24.416  38.360   1.689
91562W        W63987  29.360  40.793  12.789
91563W        W63988  23.198   4.590   0.526
91564W        W63989   4.227   8.096  13.352
91565W        W63990  43.525   9.316   2.252
91566W        W63991  36.121  34.244  12.104
91567W        W63992  27.542  29.894   0.913
91568W        W63993  41.829  29.935   1.323
91569W        W63994  30.898   1.389  10.881
91570W        W63995   1.759  25.692  14.195
91571W        W63996  39.590  26.528   2.540
91572W        W63997  30.104  36.566   0.375
91573W        W63998  31.447  44.781   3.304
91574W        W63999  32.729  40.411  11.471
91575W        W64000  16.153  43.159   3.760
91576W        W64001   9.889  23.904  12.837
91577W        W64002  33.387   1.260   4.439
91578W        W64003  29.967  11.694  11.404
91579W        W64004  20.607  22.719  13.046
91580W        W64005  28.502  41.268   0.979
91581W        W64006  37.567  24.553  11.371
91582W        W64007  38.032  18.585   2.138
91583W        W64008  27.260  11.793   1.780
91584W        W64009  19.341  33.538  10.196
91585W        W64010  30.367  20.797  13.534
91586W        W64011  42.130  24.671  10.913
91587W        W64012  23.409  17.403  12.393
91588W        W64013   2.577  23.087   0.695
91589W        W64014  44.608  35.564   0.085
91590W        W64015  14.176  43.760  12.174
91591W        W64016  20.799  12.354  10.699
91592W        W64017  17.777   6.862  11.225
91593W        W64018  31.722  31.588  10.573
91594W        W64019   6.797  14.294  14.940
91595W        W64020   1.023  39.565  12.130
91596W        W64021  31.435  39.874   3.522
91597W        W64022  30.676  23.640  12.149
91598W        W64023  10.378  22.540  14.935
91599W        W64024  29.269  22.190   1.021
91600W        W64025  40.287   4.414  13.018
91601W        W64026  16.680  43.332  13.817
91602W        W64027  37.466  12.839   0.349
91603W        W64028   0.616  32.791  11.027
91604W        W64029  29.416  30.446   5.576
91605W        W64030  12.780   7.528   1.225
91606W        W64031  10.957   3.492  11.227
91607W        W64032  27.378  12.323  12.065
91608W        W64033  24.968  11.307   3.805
91609W        W64034   7.943  42.604   1.265
91610W        W64035  11.812  24.667   1.227
91611W        W64036  31.985  36.445   4.097
91612W        W64037  26.509  32.573  14.007
91613W        W64038  37.884  25.913  12.900
91614W        W64039  14.498  15.460  11.124
91615W        W64040  28.957  19.112  11.185
91616W        W64041  29.735  41.099   4.139
91617W        W64042  30.641  28.977   2.287
91618W        W64043  43.237  28.478  11.213
91619W        W64044   4.724  27.090   3.843
91620W        W64045  28.626   7.858   3.267
91621W        W64046   8.443  25.732  11.092
91622W        W64047  38.332  30.975  13.505
91623W        W64048  44.684  14.631   0.971
91624W        W64049  15.790  10.160  14.414
91625W        W64050  29.159  29.204   4.427
91626W        W64051  20.193  39.450  10.967
91627W        W64052  44.210   5.709   4.094
91628W        W64053  39.314   9.431  11.194
91629W        W64054  36.645  27.213   4.616
91630W        W64055  38.377  25.015   1.928
91631W        W64056  25.518  29.729  12.059
91632W        W64057   0.083  12.938   1.807
91633W        W64058  27.684  23.093   3.489
91634W        W64059  23.102   3.129   0.551
91635W        W64060  27.980  33.889   4.125
91636W        W64061  11.985   6.444   5.174
91637W        W64062  13.237   0.458   4.976
91638W        W64063  22.627  29.667   4.526
91639W        W64064  20.646  19.606  11.359
91640W        W64065  16.108   6.267  14.752
91641W        W64066   1.815   3.278  13.997
91642W        W64067   3.465   3.086  12.906
91643W        W64068  32.507  18.240   2.412
91644W        W64069  33.450  17.297  11.648
91645W        W64070  17.744  32.515  12.423
91646W        W64071  17.646  44.271   1.697
91647W        W64072  12.555   9.079  13.648
91648W        W64073  16.687  31.480   5.639
91649W        W64074  36.331   1.733   1.286
91650W        W64075   6.202  42.550   3.832
91651W        W64076  34.886   0.578  11.980
91652W        W64077  16.546  11.306  14.961
91653W        W64078  29.492  22.419   0.369
91654W        W64079  19.426   7.223  10.803
91655W        W64080  32.973  35.625  12.043
91656W        W64081  44.365   6.059   4.444
91657W        W64082  28.456   6.871   4.604
91658W        W64083  34.034  16.564   3.997
91659W        W64084  24.055  25.328  12.164
91660W        W64085  12.694   6.709   1.037
91661W        W64086  43.911  28.676   3.016
91662W        W64087  34.555  23.932   1.901
91663W        W64088  29.259  34.116  11.914
91664W        W64089  20.040  42.027  14.458
91665W        W64090  44.024  13.424  14.046
91666W        W64091   3.916  12.303  10.712
91667W        W64092  34.638  26.558   4.018
91668W        W64093   5.317  44.193  10.641
91669W        W64094  41.218  17.815   1.286
91670W        W64095  26.028  30.635  14.807
91671W        W64096   8.902   3.410  13.188
91672W        W64097  31.605  11.094  14.854
91673W        W64098   0.705  21.716   1.401
91674W        W64099  34.970  44.010  14.034
91675W        W64100  42.595  15.063  12.057
91676W        W64101   6.671  43.013  14.416
91677W        W64102   4.406  41.285   1.646
91678W        W64103  24.426  43.005  13.653
91679W        W64104  30.099  23.291   3.134
91680W        W64105   9.284  43.535   3.860
91681W        W64106  37.002   8.251   2.643
91682W        W64107  28.688  27.353   2.305
91683W        W64108  24.279  38.394   1.205
91684W        W64109  28.145  16.973  14.077
91685W        W64110  34.086  21.407   2.518
91686W        W64111  29.016  17.124   4.413
91687W        W64112  13.127  14.818   4.180
91688W        W64113  37.864  31.205  12.063
91689W        W64114  35.112  16.870   4.663
91690W        W64115  27.384  11.591  11.826
91691W        W64116  16.118  22.743   0.630
91692W        W64117  42.084   8.212   3.473
91693W        W64118  38.984  31.718   4.558
91694W        W64119   1.912  28.185  13.948
91695W        W64120  28.656  26.412  12.336
91696W        W64121  27.037  41.250   3.749
91697W        W64122   5.823  25.135   0.413
91698W        W64123  39.849  36.602  14.316
91699W        W64124   2.532  29.442  13.041
91700W        W64125  41.971  15.047   2.841
91701W        W64126  31.144  41.041   4.358
91702W        W64127   6.591  15.585  11.205
91703W        W64128  16.702  37.952  11.324
91704W        W64129   6.431  41.995  14.283
91705W        W64130  26.795   2.761   2.255
91706W        W64131  21.422  27.920  10.009
91707W        W64132  33.035  26.450  12.076
91708W        W64133   8.062   0.421  12.762
91709W        W64134  42.774  33.465   4.273
91710W        W64135  27.539   1.764  12.413
91711W        W64136  44.006   7.330  14.063
91712W        W64137   3.185  33.815  12.943
91713W        W64138  23.985  39.500  11.116
91714W        W64139  12.373   9.814   1.632
91715W        W64140   1.413  18.898  13.074
91716W        W64141  40.069  12.212   0.401
91717W        W64142  14.232  27.338  11.157
91718W        W64143  19.681  18.249   3.121
91719W        W64144   7.318   9.313   3.876
91720W        W64145  18.069  27.210  13.497
91721W        W64146   3.492  18.850   1.921
91722W        W64147  22.000  37.537  14.299
91723W        W64148  33.438  12.800   3.669
91724W        W64149  15.360  15.656  14.577
91725W        W64150  24.758  30.374   0.880
91726W        W64151  12.781  13.657   1.816
91727W        W64152   2.784  36.545   1.217
91728W        W64153  37.870  43.524  10.075
91729W        W64154  37.423   3.942  14.416
91730W        W64155  43.333   0.039   1.338
91731W        W64156  33.664  23.594  11.996
91732W        W64157   4.783   3.848   0.544
91733W        W64158  15.325  38.103   3.260
91734W        W64159   2.282  27.113   0.507
91735W        W64160   2.891  30.946   3.371
91736W        W64161  38.860  39.405   3.279
91737W        W64162  39.793  23.496   0.764
91738W        W64163  34.101  22.834  14.740
91739W        W64164  14.448  41.032  13.028
91740W        W64165  37.496   2.326   4.645
91741W        W64166   3.439  42.526   1.456
91742W        W64167  26.612  19.255  11.972
91743W        W64168   7.326   2.473  12.629
91744W        W64169  34.353  16.977   4.221
91745W        W64170  25.106  14.025   1.854
91746W        W64171   8.465  33.823  13.035
91747W        W64172  30.134  16.166   3.753
91748W        W64173  33.484  23.223   1.918
91749W        W64174  36.928  34.581   2.600
91750W        W64175  14.199   9.219   3.872
91751W        W64176  22.781  26.284  10.835
91752W        W64177  14.868  11.343  13.116
91753W        W64178  40.549  14.820   3.615
91754W        W64179   1.499  13.452  12.455
91755W        W64180  12.782  39.056  13.567
91756W        W64181  30.890  37.224  11.616
91757W        W64182   2.939  22.271  12.695
91758W        W64183  40.736  30.000   3.270
91759W        W64184  34.217  13.775   0.835
91760W        W64185  44.468  13.863   2.598
91761W        W64186   1.791   8.382   1.863
91762W        W64187  38.025  39.417  11.915
91763W        W64188  42.456   6.311   3.226
91764W        W64189  28.473  43.517   3.753
91765W        W64190  18.280  35.331   1.876
91766W        W64191   2.683   4.618   0.795
91767W        W64192  12.714  12.894   4.217
91768W        W64193   8.127  36.919   0.039
91769W        W64194  44.725  22.021   4.928
91770W        W64195  10.619  23.276  12.783
91771W        W64196  19.142  33.428  13.882
91772W        W64197   5.290  26.891  14.123
91773W        W64198  33.111   2.591   3.519
91774W        W64199  21.499  38.008   1.876
91775W        W64200   1.416  15.619  10.616
91776W        W64201  33.067  13.144   4.265
91777W        W64202  37.477  22.617   0.904
91778W        W64203  29.185  17.741  12.844
91779W        W64204   6.123  36.041  13.116
91780W        W64205   5.210  28.677   1.306
91781W        W64206  39.338   5.458  12.109
91782W        W64207  15.909  11.319   4.138
91783W        W64208  30.274  23.550  14.429
91784W        W64209  27.903  28.641   0.789
91785W        W64210  31.015  34.514   0.428
91786W        W64211   1.868  33.116   0.884
91787W        W64212  20.605  12.112   1.437
91788W        W64213  43.917  42.395   4.891
91789W        W64214  30.983   2.908  14.371
91790W        W64215  10.830  14.673  14.380
91791W        W64216  13.212  28.074  14.966
91792W        W64217  37.480  42.316  14.665
91793W        W64218  23.216   1.766  12.377
91794W        W64219  19.033   7.066   3.285
91795W        W64220  39.984  39.005   4.400
91796W        W64221  43.525  25.459  13.816
91797W        W64222   9.187   1.742   0.275
91798W        W64223  17.915   2.867   2.195
91799W        W64224  16.489  34.829   1.618
91800W        W64225  43.461  41.466  13.746
91801W        W64226  24.497  19.104  14.996
91802W        W64227   8.058  27.973   3.155
91803W        W64228  11.845  17.645   0.832
91804W        W64229  15.726   9.427   4.079
91805W        W64230   6.603   2.387  14.262
91806W        W64231  23.460   8.003  13.934
91807W        W64232  17.982  23.323  11.920
91808W        W64233   2.131  34.018   4.811
91809W        W64234  22.625  11.442  12.187
91810W        W64235   1.555   1.398   0.756
91811W        W64236  26.425  24.892   2.715
91812W        W64237   6.876  16.069   3.290
91813W        W64238  35.727  28.451  12.484
91814W        W64239  37.033  11.649  13.870
91815W        W64240  27.370  36.940   3.884
91816W        W64241  22.943  39.533  11.132
91817W        W64242  14.054   3.680  10.786
91818W        W64243  19.279  27.645   1.758
91819W        W64244  38.036   6.506   2.369
91820W        W64245  24.488  11.342   1.268
91821W        W64246  21.279  39.334  14.700
91822W        W64247  13.674  43.602  11.917
91823W        W64248  14.964  21.621  11.561
91824W        W64249  16.098  43.741   2.226
91825W        W64250  16.287  41.688  12.879
91826W        W64251  34.781  28.355   0.933
91827W        W64252   1.760  39.986  12.388
91828W        W64253  15.996   5.750  14.917
91829W        W64254  14.764  42.742   1.538
91830W        W64255  25.304   7.593   2.402
91831W        W64256  12.682   0.980  11.544
91832W        W64257  20.537  27.084   0.179
91833W        W64258  17.032  11.020   0.878
91834W        W64259  20.539   5.031   4.607
91835W        W64260  23.445  38.343   4.560
91836W        W64261   0.503   1.854  14.193
91837W        W64262  14.292  19.435   5.178
91838W        W64263  18.102  43.052   3.687
91839W        W64264  21.717   7.781  10.565
91840W        W64265  43.608  37.344   1.762
91841W        W64266  11.735  16.853   2.185
91842W        W64267  19.377  37.763  14.210
91843W        W64268  12.301  30.338   1.030
91844W        W64269  18.616  35.046  10.385
91845W        W64270   9.240   0.305   1.807
91846W        W64271  21.184  11.636  12.566
91847W        W64272  27.168  22.129  10.507
91848W        W64273   1.383  36.640   0.904
91849W        W64274  12.342   7.327   1.042
91850W        W64275  34.624  14.973  13.043
91851W        W64276  37.420  38.609   2.598
91852W        W64277  41.640  40.774   4.124
91853W        W64278  44.436   4.473   3.376
91854W        W64279   1.365   9.164   1.736
91855W        W64280   3.749  23.453  11.188
91856W        W64281  11.145  26.120   0.364
91857W        W64282  19.268  35.843   4.636
91858W        W64283  35.900   9.347  13.352
91859W        W64284  33.887   1.300  13.730
91860W        W64285  36.603  10.811   1.268
91861W        W64286  23.753  32.610  12.048
91862W        W64287   3.169   4.492  13.346
91863W        W64288  42.961  36.434  12.762
91864W        W64289   2.311  27.548   1.238
91865W        W64290   2.987  35.104   1.256
91866W        W64291  38.137  40.505   4.357
91867W        W64292  17.107   9.187   2.041
91868W        W64293   4.782  39.292  14.899
91869W        W64294  20.158   9.005   4.737
91870W        W64295  28.980  29.448  14.814
91871W        W64296  44.767  11.143  13.674
91872W        W64297  23.167  26.720  13.076
91873W        W64298  29.122  31.598  14.669
91874W        W64299  14.024  19.525   2.788
91875W        W64300  42.911  19.072   1.827
91876W        W64301  24.847  24.547  14.306
91877W        W64302  15.763  21.747   3.744
91878W        W64303  28.925  29.586   4.120
91879W        W64304  33.470  39.354   2.365
91880W        W64305  38.148   9.845   0.016
91881W        W64306  38.428  34.265  12.030
91882W        W64307  16.048  36.369   3.381
91883W        W64308  20.583   3.843  11.213
91884W        W64309  34.445  12.614   2.182
91885W        W64310   4.537   2.327  13.564
91886W        W64311  23.227  18.988  11.659
91887W        W64312  43.000  22.610   4.767
91888W        W64313   8.618  18.899   3.551
91889W        W64314  34.125   3.383  10.808
91890W        W64315  34.069  34.627   2.098
91891W        W64316  28.962  27.482  14.796
91892W        W64317  19.316   6.958  11.230
91893W        W64318   7.108  21.955  11.365
91894W        W64319  24.253  19.700   4.095
91895W        W64320   6.932  43.484  14.492
91896W        W64321   7.209  44.718   2.284
91897W        W64322  26.778   0.720   3.298
91898W        W64323  38.495   1.919   4.255
91899W        W64324  42.659   2.001   3.437
91900W        W64325  25.268  17.517   3.203
91901W        W64326  25.538  14.644  13.347
91902W        W64327  39.896  42.298   3.313
91903W        W64328  32.436  16.001  13.971
91904W        W64329  41.961   8.733  13.369
91905W        W64330  24.773  31.027  10.771
91906W        W64331  30.749  23.089   0.326
91907W        W64332  24.207  37.353  14.340
91908W        W64333  18.081  21.331   3.789
91909W        W64334  14.077  42.783  14.311
91910W        W64335  41.236  16.391   2.348
91911W        W64336  10.315  39.976  14.944
91912W        W64337  21.470  40.879   1.234
91913W        W64338   5.138  40.992  11.967
91914W        W64339  14.674  32.323   0.420
91915W        W64340  27.363   0.863  14.502
91916W        W64341  14.747   1.174   1.370
91917W        W64342  18.494   1.453   2.219
91918W        W64343  33.445  11.768   1.205
91919W        W64344   1.475   0.464  11.448
91920W        W64345  11.786  36.919   9.985
91921W        W64346  26.642  40.240   4.215
91922W        W64347  37.142  44.333   1.412
91923W        W64348   5.477  24.389  14.101
91924W        W64349  42.465  18.308  12.502
91925W        W64350   0.470  43.778  14.290
91926W        W64351  19.554   5.382  11.537
91927W        W64352  12.146  11.921  13.640
91928W        W64353  31.479  44.386   2.141
91929W        W64354   0.320  27.608   0.445
91930W        W64355  42.440  22.590   2.802
91931W        W64356   5.655  18.443   2.236
91932W        W64357  40.975  36.048  11.015
91933W        W64358  28.682   5.245   1.660
91934W        W64359  36.101  22.635  12.566
91935W        W64360  34.873   4.926   4.982
91936W        W64361  40.082   6.596   2.699
91937W        W64362  19.778  26.307  13.374
91938W        W64363  14.714  36.818   4.831
91939W        W64364  30.698   9.378   3.297
91940W        W64365  30.115  39.681   0.048
91941W        W64366  40.061  18.567   3.577
91942W        W64367  21.588   8.412  11.071
91943W        W64368  28.369  39.013  11.997
91944W        W64369   0.792  20.567   3.688
91945W        W64370  15.012   9.890   0.709
91946W        W64371  20.036  19.412   2.175
91947W        W64372  23.630  34.717   5.013
91948W        W64373  10.365  27.039  13.692
91949W        W64374  15.608  36.260   4.091
91950W        W64375  36.302  25.060  11.451
91951W        W64376   9.889  17.973   3.806
91952W        W64377  10.876  32.050  12.584
91953W        W64378  26.792  27.226   3.549
91954W        W64379  30.583  40.965   0.031
91955W        W64380   6.006  19.664  11.787
91956W        W64381   4.802  16.567   0.362
91957W        W64382  39.346   3.816  14.786
91958W        W64383   7.107  40.803  12.092
91959W        W64384  34.432  42.343  11.363
91960W        W64385  38.987  15.624   5.032
91961W        W64386  24.629  38.050   4.468
91962W        W64387  27.706  26.980   3.419
91963W        W64388   5.853   6.268   4.097
91964W        W64389  41.117  42.055  13.404
91965W        W64390  28.409   3.858   2.545
91966W        W64391   1.903  32.406  11.114
91967W        W64392  39.581  31.592   0.805
91968W        W64393  23.163  39.967  12.469
91969W        W64394  11.098  22.597   1.813
91970W        W64395   4.510  30.940   2.184
91971W        W64396  12.166  30.891   0.864
91972W        W64397  38.078   4.306   0.327
91973W        W64398  18.142   0.737  10.180
91974W        W64399  28.776  23.860  13.409
91975W        W64400  26.964  19.818   3.152
91976W        W64401  13.269  15.232   2.591
91977W        W64402  15.598   7.765   1.760
91978W        W64403   9.839  21.919   3.783
91979W        W64404  44.897  34.620  14.810
91980W        W64405  13.178   6.316   4.018
91981W        W64406  33.579  30.526  14.387
91982W        W64407  17.028   7.182   1.754
91983W        W64408  27.355   8.099  13.837
91984W        W64409  42.968   0.500   5.018
91985W        W64410   6.347  20.479   1.354
91986W        W64411  11.659   3.746   2.890
91987W        W64412  41.815   9.382  11.389
91988W        W64413  15.793  41.403   4.173
91989W        W64414  22.855  35.064  11.032
91990W        W64415   6.765  31.549  12.831
91991W        W64416  21.252  23.858  14.904
91992W        W64417  22.166  43.981   3.326
91993W        W64418  44.423   0.932  13.531
91994W        W64419  31.013  21.342  14.542
91995W        W64420   4.938  11.903   0.994
91996W        W64421  27.966  12.230  13.013
91997W        W64422  40.332  13.834   1.974
91998W        W64423  30.105  11.232   0.322
91999W        W64424  39.612   2.279  13.938
92000W        W64425   4.308  14.673   4.085
92001W        W64426   4.223  14.778  10.697
92002W        W64427  34.037   1.823  14.913
92003W        W64428  37.430  33.414   4.584
92004W        W64429  23.988   5.555  10.666
92005W        W64430  40.859  22.075   2.467
92006W        W64431  33.461  13.581   4.314
92007W        W64432  27.662  18.025   4.776
92008W        W64433  34.529  11.548   4.882
92009W        W64434  40.369  17.210  13.785
92010W        W64435  38.012  38.936   3.133
92011W        W64436  33.990   5.310  14.025
92012W        W64437  29.555   9.613  13.472
92013W        W64438  26.979  26.650   0.333
92014W        W64439  20.320  25.181  12.506
92015W        W64440  20.737   1.938   4.731
92016W        W64441   8.301  21.766  12.441
92017W        W64442  17.852  42.881   0.819
92018W        W64443  36.998   7.938   0.443
92019W        W64444  17.533  16.605  13.733
92020W        W64445  26.122  41.236   0.460
92021W        W64446  22.620  23.454   3.323
92022W        W64447   4.252  13.624  12.062
92023W        W64448   6.913  27.376   3.701
92024W        W64449  18.312  32.625  14.354
92025W        W64450  37.805  33.171   9.930
92026W        W64451  31.970  17.022  14.626
92027W        W64452   3.690  11.601   3.169
92028W        W64453  22.331  17.744  12.487
92029W        W64454  17.641  42.465   2.206
92030W        W64455  39.502   5.198  12.502
92031W        W64456   8.376  36.857   1.401
92032W        W64457  40.962  19.155   1.613
92033W        W64458  18.461  18.636  14.307
92034W        W64459  31.891  31.601   3.868
92035W        W64460  43.532  26.709   4.166
92036W        W64461  25.166   3.197   0.366
92037W        W64462  28.954  21.513   3.720
92038W        W64463  26.075  43.264   0.973
92039W        W64464  13.838  12.265   0.309
92040W        W64465  15.280  11.647  14.544
92041W        W64466  14.763   3.698   4.704
92042W        W64467   8.257   4.334  10.703
92043W        W64468  28.620  20.836   4.373
92044W        W64469  17.058  42.838  11.673
92045W        W64470  11.887   7.757  13.916
92046W        W64471   5.044  10.575   0.408
92047W        W64472   3.183  13.035  14.381
92048W        W64473   6.484  38.091   3.147
92049W        W64474  29.649   3.751   1.962
92050W        W64475   4.895  29.482   3.638
92051W        W64476  16.772  37.881  13.956
92052W        W64477  29.904  30.545   1.823
92053W        W64478   2.255  18.443  12.888
92054W        W64479  25.003  42.274  12.271
92055W        W64480   9.692  20.127  11.553
92056W        W64481  34.910  33.175  11.546
92057W        W64482  34.859  30.013  11.272
92058W        W64483  34.612  21.462   3.742
92059W        W64484  24.104  33.118   3.743
92060W        W64485  25.173  42.099  14.697
92061W        W64486   3.348  30.711   3.244
92062W        W64487  20.272  13.520  10.905
92063W        W64488  41.476  19.625  14.002
92064W        W64489  16.096  37.660   2.746
92065W        W64490  44.786  44.249  12.571
92066W        W64491  38.361  32.329  13.776
92067W        W64492  12.395  26.912   0.539
92068W        W64493  12.028  11.121   3.642
92069W        W64494  20.888  19.555   0.458
92070W        W64495  19.599  10.836  12.417
92071W        W64496  38.364   6.940   1.977
92072W        W64497  12.284   1.244  14.009
92073W        W64498  31.684   8.964   0.558
92074W        W64499  43.461  23.109   4.145
92075W        W64500  16.415   7.727   4.971
92076W        W64501  34.985  42.959  12.026
92077W        W64502   2.660  18.616   1.692
92078W        W64503  24.374  16.967  13.766
92079W        W64504  35.950  19.892  10.579
92080W        W64505   5.422  27.722  11.486
92081W        W64506  18.670  19.126   2.673
92082W        W64507  21.781  28.895  11.670
92083W        W64508  19.383  14.678   2.168
92084W        W64509  43.487   8.145  11.136
92085W        W64510  18.696  22.882   4.599
92086W        W64511  41.123  26.066   1.508
92087W        W64512   0.201  14.722  14.971
92088W        W64513  24.604  20.432   5.056
92089W        W64514   0.491  40.989   0.446
92090W        W64515  15.243  44.216   2.888
92091W        W64516  27.611  39.115  10.935
92092W        W64517   4.245  14.278  11.558
92093W        W64518  40.526  12.946   4.640
92094W        W64519   3.822  14.375   2.680
92095W        W64520  19.507   0.887  12.111
92096W        W64521  16.631  22.792  12.607
92097W        W64522   8.774   1.422   1.784
92098W        W64523  12.332   8.217  12.225
92099W        W64524  34.108  38.656   3.580
92100W        W64525  14.684  24.905   2.865
92101W        W64526  26.613  20.191  11.968
92102W        W64527   6.353   6.103  13.823
92103W        W64528  41.924  33.547   2.701
92104W        W64529  34.540   9.817  14.430
92105W        W64530  14.787  31.570  14.729
92106W        W64531  35.107   0.314  10.550
92107W        W64532  37.878   9.185  12.399
92108W        W64533   1.701  38.289  10.711
92109W        W64534  13.255  21.144  10.201
92110W        W64535  22.775  15.601   4.124
92111W        W64536  30.588  10.629  11.583
92112W        W64537  17.704  22.511  13.482
92113W        W64538  44.105  44.389   1.942
92114W        W64539  38.296   0.115  13.082
92115W        W64540   5.292  27.170   3.834
92116W        W64541  31.810  19.140  13.446
92117W        W64542  23.755   7.847  12.398
92118W        W64543  21.291   7.280  11.200
92119W        W64544  22.836  41.421  14.543
92120W        W64545  13.581  17.136  12.105
92121W        W64546  12.703   1.530   1.431
92122W        W64547  43.497  22.134  13.502
92123W        W64548  42.474  35.191   0.819
92124W        W64549  37.968  25.066   0.204
92125W        W64550  16.855  12.196   0.256
92126W        W64551  12.134  20.130   3.270
92127W        W64552  37.039  44.267   3.244
92128W        W64553  44.454  37.809   4.103
92129W        W64554   8.905  11.645   2.720
92130W        W64555  43.018   8.916   5.069
92131W        W64556  12.562  23.583   0.928
92132W        W64557  18.802   1.957   2.780
92133W        W64558  38.036  29.601   3.384
92134W        W64559  22.751  17.325   1.532
92135W        W64560  29.265  12.735  11.727
92136W        W64561  22.679  17.775   1.296
92137W        W64562  14.111   9.045   3.386
92138W        W64563   9.302   9.616   1.665
92139W        W64564  22.380  23.606   4.205
92140W        W64565  26.201  42.719   1.828
92141W        W64566  16.811  14.329  12.525
92142W        W64567  30.498   7.290  12.802
92143W        W64568  43.008  18.883   2.316
92144W        W64569  43.054  26.792   3.701
92145W        W64570  33.926  28.224  13.879
92146W        W64571  37.025  38.608  14.532
92147W        W64572  24.627  16.787  10.531
92148W        W64573   6.485  25.508   4.516
92149W        W64574  39.891  26.920   4.596
92150W        W64575  22.498  42.278   1.727
92151W        W64576  18.223  40.645   4.144
92152W        W64577  19.728  16.444  10.718
92153W        W64578  31.237   5.291  11.495
92154W        W64579   1.488  38.904   0.812
92155W        W64580  38.978  38.435   1.901
92156W        W64581  14.084  44.797  13.105
92157W        W64582  44.413  12.673   4.282
92158W        W64583  33.922   0.360   1.178
92159W        W64584  11.561   3.418   0.867
92160W        W64585  39.425  29.467  14.985
92161W        W64586  39.465  26.610  10.053
92162W        W64587  38.735  13.323   1.659
92163W        W64588  34.670  40.969   1.473
92164W        W64589   4.182  34.152   4.115
92165W        W64590  30.438  35.618  13.720
92166W        W64591  25.616   4.796  11.673
92167W        W64592  20.186  28.722  12.679
92168W        W64593   1.183  17.772  12.533
92169W        W64594  32.076  17.014   1.478
92170W        W64595  31.394  25.714   2.389
92171W        W64596  20.025  28.541   0.391
92172W        W64597  20.970  13.720   4.250
92173W        W64598   0.979  10.582   4.122
92174W        W64599  18.316  16.616  10.598
92175W        W64600  36.363  34.618   0.300
92176W        W64601  23.217   2.722  14.698
92177W        W64602  21.609  32.219  13.526
92178W        W64603   5.372  33.017   3.325
92179W        W64604  24.059   4.895   3.307
92180W        W64605  20.586  17.824   4.142
92181W        W64606  27.874  41.854  12.566
92182W        W64607   0.842   1.018   2.618
92183W        W64608  28.154  37.478  11.199
92184W        W64609  19.196  35.156  14.261
92185W        W64610  19.248  39.930  10.613
92186W        W64611  40.341   9.354   0.236
92187W        W64612  18.957   0.514   0.470
92188W        W64613  26.226  18.679   4.153
92189W        W64614  31.218  12.820  12.432
92190W        W64615  15.937   8.329   1.104
92191W        W64616  42.109  27.395   0.570
92192W        W64617  28.944   5.677  14.981
92193W        W64618  38.438  29.224  14.208
92194W        W64619  42.269  34.468  10.698
92195W        W64620  23.196  32.122   1.783
92196W        W64621  43.943  35.649  14.466
92197W        W64622   6.992  22.279  12.967
92198W        W64623  15.271  39.800  12.947
92199W        W64624  32.639  40.481  14.301
92200W        W64625   3.313  34.036   4.707
92201W        W64626   1.279  43.286  10.764
92202W        W64627  27.390  14.211  14.213
92203W        W64628  35.108  10.260   0.535
92204W        W64629  39.136  42.471   3.709
92205W        W64630  41.019  20.685  12.481
92206W        W64631  36.070  30.593   4.203
92207W        W64632  38.556  12.391   3.976
92208W        W64633  40.852  21.926  10.448
92209W        W64634   5.419   4.223  12.976
92210W        W64635  16.172  30.908  12.598
92211W        W64636   7.164  20.258  13.926
92212W        W64637  26.624  43.331   2.210
92213W        W64638   7.153  26.203   4.132
92214W        W64639  24.365  30.362   4.552
92215W        W64640  25.787   6.665  13.508
92216W        W64641  40.771  43.621   4.161
92217W        W64642   3.462  19.716   3.329
92218W        W64643  24.967  33.648   0.453
92219W        W64644  39.886  13.252   2.685
92220W        W64645   3.054   6.187   1.380
92221W        W64646  43.403  42.508   0.268
92222W        W64647   4.765  13.181   0.665
92223W        W64648  28.680   2.262  11.517
92224W        W64649   4.905  19.193   4.082
92225W        W64650  27.249  32.966  10.720
92226W        W64651  13.713  34.087   0.237
92227W        W64652  43.274   8.230  12.494
92228W        W64653  21.429  44.032   1.959
92229W        W64654  16.473  44.108  11.088
92230W        W64655   3.748  12.100   1.767
92231W        W64656  24.689  16.668   4.979
92232W        W64657  28.977  36.152   1.147
92233W        W64658  16.603  41.215  13.356
92234W        W64659   7.627  36.525  12.052
92235W        W64660  11.887  30.343  14.924
92236W        W64661  16.111  42.414   4.466
92237W        W64662  34.683  10.924  12.409
92238W        W64663  40.006  14.348   3.618
92239W        W64664  25.689  30.186  11.881
92240W        W64665  38.410  36.137   3.797
92241W        W64666  19.218  22.261  11.509
92242W        W64667   8.519  17.548  10.846
92243W        W64668  20.620  14.815   2.068
92244W        W64669  42.161  20.850   4.962
92245W        W64670  17.740   8.331  12.577
92246W        W64671   3.393  38.397  10.991
92247W        W64672  10.248  33.568  14.487
92248W        W64673  35.587   0.150  13.990
92249W        W64674  35.658  22.277  11.465
92250W        W64675   7.427  21.097  11.995
92251W        W64676   5.951  34.182  12.560
92252W        W64677   4.470   8.089   3.535
92253W        W64678   4.966  11.814   3.700
92254W        W64679  23.407  39.808   3.762
92255W        W64680  38.499  26.993   0.668
92256W        W64681  23.981  33.025  14.837
92257W        W64682  14.647   2.340   4.696
92258W        W64683  39.576   2.496  12.848
92259W        W64684  29.921  40.579  11.637
92260W        W64685  17.052   7.896   0.346
92261W        W64686   2.360  41.942  12.901
92262W        W64687  17.562  37.121  10.492
92263W        W64688   8.529  14.790  10.679
92264W        W64689   4.741  34.048   2.411
92265W        W64690  10.761  22.035  13.472
92266W        W64691  10.774   5.528   2.491
92267W        W64692   9.167  18.551   1.760
92268W        W64693  30.695  16.827  14.887
92269W        W64694  30.601  15.541  11.411
92270W        W64695  39.101   6.349  14.796
92271W        W64696   9.903   8.454   5.094
92272W        W64697   0.731   1.766   0.199
92273W        W64698  13.771  41.106   1.364
92274W        W64699  36.062  28.088   0.852
92275W        W64700  30.116  39.343   3.804
92276W        W64701  31.141  11.119   2.291
92277W        W64702  32.416  25.701   0.803
92278W        W64703  11.615  43.088  14.527
92279W        W64704  27.001   0.908   4.752
92280W        W64705  22.271  12.720  14.830
92281W        W64706  27.679  13.796  12.972
92282W        W64707   2.272  20.837  11.690
92283W        W64708  30.373  42.012   4.036
92284W        W64709  32.358   4.966  14.567
92285W        W64710   0.405  38.161   0.905
92286W        W64711  44.783  23.728  14.570
92287W        W64712  19.018   4.708  10.660
92288W        W64713  44.974   4.469  11.648
92289W        W64714  21.005  20.123  14.744
92290W        W64715  13.963  34.690   4.968
92291W        W64716  40.857  42.504  10.957
92292W        W64717  42.779   4.631  11.112
92293W        W64718   0.851  29.612   0.191
92294W        W64719   4.058  24.767   1.965
92295W        W64720  22.012   5.887  10.690
92296W        W64721  17.728   1.446  10.480
92297W        W64722   4.597  42.549   1.761
92298W        W64723  11.125   9.655   1.428
92299W        W64724  32.822  23.951  13.878
92300W        W64725  32.002  15.831   0.300
92301W        W64726  38.502   6.212  13.264
92302W        W64727  26.519   2.541   2.790
92303W        W64728   7.151  26.158   3.610
92304W        W64729  33.559   0.752  13.986
92305W        W64730  30.139  17.499  13.611
92306W        W64731  21.662  21.083   3.048
92307W        W64732   5.905  36.910  11.992
92308W        W64733  18.320  43.333  14.954
92309W        W64734  10.205  34.676   9.747
92310W        W64735  31.500   8.921   3.166
92311W        W64736  12.857  26.023   3.375
92312W        W64737  33.368  35.790   2.407
92313W        W64738  22.330  39.035   0.078
92314W        W64739  44.264  22.133  10.751
92315W        W64740   6.851  10.321  12.402
92316W        W64741   5.279  27.926   0.843
92317W        W64742  28.124  42.321  12.114
92318W        W64743  41.454  42.513   1.430
92319W        W64744   7.962  40.146  14.804
92320W        W64745  32.915   3.156   1.783
92321W        W64746  37.679  31.915  13.412
92322W        W64747  40.064  15.116  12.042
92323W        W64748  28.903   9.744  14.107
92324W        W64749   8.667  32.877   4.590
92325W        W64750   1.263  11.068  14.704
92326W        W64751  19.759  13.208  11.505
92327W        W64752  23.467  25.329   1.740
92328W        W64753  18.950   8.596  13.316
92329W        W64754  10.156  20.656   2.620
92330W        W64755   7.187  16.889   0.936
92331W        W64756  38.955  23.066  14.435
92332W        W64757  33.044   7.877   0.383
92333W        W64758  23.107  16.481   2.285
92334W        W64759   2.196  24.126   0.357
92335W        W64760  21.438  17.234   1.315
92336W        W64761  35.361  32.417  12.992
92337W        W64762  22.641  34.077   1.574
92338W        W64763  14.104  35.011   2.323
92339W        W64764   5.805  40.569   3.793
92340W        W64765  26.975  28.475   0.332
92341W        W64766  28.940  25.687   2.206
92342W        W64767  12.604  25.192  14.011
92343W        W64768  17.589  39.097   0.051
92344W        W64769   4.909  33.141  11.459
92345W        W64770  41.278   3.010   2.786
92346W        W64771  15.390  15.163  12.448
92347W        W64772  11.595  39.015   1.330
92348W        W64773   6.863  13.507   3.182
92349W        W64774  16.281  28.397  11.562
92350W        W64775  20.800  25.463   0.901
92351W        W64776  33.397  42.435  13.947
92352W        W64777  15.084  10.370  14.665
92353W        W64778  37.514  31.946   9.885
92354W        W64779  44.510  25.649   1.700
92355W        W64780  12.964  15.143   1.088
92356W        W64781  34.197  21.480  14.457
92357W        W64782  25.742   9.294  11.941
92358W        W64783  20.112   7.660   4.100
92359W        W64784  22.965  12.875   2.660
92360W        W64785  21.403   8.814   3.196
92361W        W64786  33.603  15.582  14.877
92362W        W64787  13.199   5.880  10.573
92363W        W64788  15.588   0.740   4.204
92364W        W64789  30.630   4.024   2.159
92365W        W64790  15.876  43.289   4.178
92366W        W64791   1.271   0.262   2.642
92367W        W64792   5.605  15.165  10.668
92368W        W64793  25.671  28.423   3.304
92369W        W64794  12.373   2.452   2.702
92370W        W64795  15.745  43.303   3.131
92371W        W64796  37.897   3.777  14.209
92372W        W64797  36.932   1.153   2.903
92373W        W64798  36.058  36.000   1.032
92374W        W64799  25.026   6.191   3.795
92375W        W64800  14.599   1.856  12.596
92376W        W64801  40.532  17.557  10.651
92377W        W64802  34.534   6.173  12.618
92378W        W64803  32.107  20.979  13.873
92379W        W64804  13.338  19.559  11.698
92380W        W64805   9.873  44.856  11.017
92381W        W64806   9.340   2.696  13.840
92382W        W64807   1.459  43.427   0.761
92383W        W64808   0.862   6.227  11.416
92384W        W64809   6.110  16.621  12.447
92385W        W64810  34.791  27.928  11.551
92386W        W64811  40.898  42.494  13.515
92387W        W64812  21.627  26.994  14.294
92388W        W64813  17.527  36.915   3.249
92389W        W64814  37.352  33.935   4.502
92390W        W64815  12.394  39.535  12.369
92391W        W64816  32.725  29.508  13.098
92392W        W64817  26.420  17.047  14.928
92393W        W64818  37.904   6.934  14.865
92394W        W64819  14.718  44.763  10.395
92395W        W64820  30.041  27.574   3.873
92396W        W64821   2.724  18.301  11.083
92397W        W64822   0.491  15.973  14.824
92398W        W64823  41.231  15.309   0.245
92399W        W64824   0.628   1.288   0.502
92400W        W64825  17.359  21.929   0.416
92401W        W64826  44.492  34.808   2.197
92402W        W64827   9.840  44.009   2.960
92403W        W64828  13.761  35.637   3.696
92404W        W64829  26.583  44.734  12.419
92405W        W64830  27.300  42.696  14.476
92406W        W64831  29.446  17.327  13.727
92407W        W64832  12.377  26.796  13.444
92408W        W64833  20.756  37.559   3.249
92409W        W64834  11.814  21.775  10.057
92410W        W64835  20.737  14.220   0.551
92411W        W64836  13.689  15.208   3.709
92412W        W64837  32.333  26.189   0.920
92413W        W64838  41.207   2.808   3.264
92414W        W64839  41.736  16.355  10.751
92415W        W64840  10.317  11.554   2.184
92416W        W64841   1.272  19.302  11.048
92417W        W64842   5.978  30.613   2.909
92418W        W64843  35.668   5.824   4.091
92419W        W64844   9.045  24.515   0.829
92420W        W64845  17.597  34.573  10.822
92421W        W64846   4.203   4.476   1.688
92422W        W64847   0.762  35.621   3.300
92423W        W64848  19.190  38.350   3.779
92424W        W64849  35.504  12.870   4.500
92425W        W64850  28.219  19.691   3.772
92426W        W64851  38.876  26.460  10.086
92427W        W64852  43.807   0.689   1.937
92428W        W64853  18.060  13.739  14.358
92429W        W64854   4.921  36.651  11.186
92430W        W64855  20.999   7.637   0.883
92431W        W64856  21.213  17.592  11.614
92432W        W64857  36.609   6.833  13.058
92433W        W64858  39.495  22.183   0.056
92434W        W64859  10.669  38.907  14.227
92435W        W64860  29.580  16.254   2.464
92436W        W64861  23.412  14.208  10.942
92437W        W64862  17.120  37.175   0.528
92438W        W64863  29.578  37.468  12.019
92439W        W64864  31.076   8.225  11.482
92440W        W64865  35.060  22.012  12.406
92441W        W64866  40.732   6.512  13.418
92442W        W64867  22.787  42.074   0.785
92443W        W64868   1.975   6.251  14.767
92444W        W64869   8.191  34.825   4.877
92445W        W64870  43.012  19.901   2.149
92446W        W64871  19.824  36.304   4.119
92447W        W64872  30.132  22.303   2.344
92448W        W64873  14.144   5.417   4.483
92449W        W64874  22.636   1.751   2.823
92450W        W64875   8.832   8.986   5.390
92451W        W64876  13.867  25.087   4.440
92452W        W64877  15.576  11.625  12.556
92453W        W64878  39.091  19.098  10.980
92454W        W64879   2.285   3.186  14.197
92455W        W64880  16.140  38.861   1.353
92456W        W64881  19.019  19.527  12.147
92457W        W64882  37.896  17.017  11.691
92458W        W64883  24.339  17.317  11.285
92459W        W64884  35.356  18.227   2.751
92460W        W64885  19.422  42.122   0.508
92461W        W64886  36.535  33.339  10.720
92462W        W64887  13.081  36.365   0.427
92463W        W64888   8.453  11.806   2.969
92464W        W64889   6.697   7.472   2.207
92465W        W64890  14.745  16.328  14.281
92466W        W64891   0.013  40.546   4.710
92467W        W64892  41.808  29.668   0.841
92468W        W64893  27.988  33.966   5.495
92469W        W64894  21.673  29.645   1.773
92470W        W64895  26.718  17.552  13.964
92471W        W64896   6.323  14.528   0.887
92472W        W64897   3.723  12.590   1.110
92473W        W64898  28.310  13.253   1.517
92474W        W64899  28.820   6.131  12.815
92475W        W64900   0.077   1.907  12.687
92476W        W64901  29.399   5.148  14.922
92477W        W64902  11.126  36.740  14.012
92478W        W64903  22.123   2.794   1.254
92479W        W64904  18.140  44.050   0.429
92480W        W64905  23.365  10.737   2.392
92481W        W64906  31.108  34.522   3.075
92482W        W64907  19.577  15.037  10.486
92483W        W64908  42.887   7.235   3.162
92484W        W64909  20.174  41.536  12.236
92485W        W64910  39.234  27.498  10.401
92486W        W64911  40.934   8.941  14.771
92487W        W64912   6.748  21.970   2.224
92488W        W64913  35.925  32.402   3.804
92489W        W64914  24.978  38.230   3.731
92490W        W64915  23.011  29.975  14.885
92491W        W64916  25.507  29.500  13.608
92492W        W64917  32.027   8.787   4.147
92493W        W64918  10.147  20.773  14.432
92494W        W64919  12.362  15.151   0.220
92495W        W64920  33.800  33.076   2.026
92496W        W64921  36.938   7.085  11.728
92497W        W64922  32.945  32.666  11.548
92498W        W64923  44.374  22.067   2.572
92499W        W64924  37.144  39.113  14.398
92500W        W64925  38.313  39.858   3.677
92501W        W64926  15.835  23.626   1.697
92502W        W64927  21.870  33.052   0.187
92503W        W64928   5.280  39.903   3.984
92504W        W64929  12.876   7.423  13.592
92505W        W64930  23.894  42.033  13.953
92506W        W64931  32.104   0.626  14.627
92507W        W64932  38.728  27.837   2.785
92508W        W64933  28.133  15.162   1.328
92509W        W64934  18.282  21.060   2.309
92510W        W64935   6.268   0.455   2.335
92511W        W64936   9.393  33.167   0.417
92512W        W64937  23.254  32.645   3.560
92513W        W64938   0.444  41.307  12.014
92514W        W64939   3.240  31.909  13.839
92515W        W64940  42.909  22.145  11.675
92516W        W64941  23.273  23.284  13.844
92517W        W64942  20.054  35.463  14.974
92518W        W64943  12.688  38.513   1.002
92519W        W64944  16.820  43.361  11.862
92520W        W64945  35.068  19.781   3.639
92521W        W64946  14.002  23.541   2.183
92522W        W64947  27.892  15.987   3.816
92523W        W64948  24.745  19.329   1.845
92524W        W64949  17.853  25.191   3.246
92525W        W64950  30.515  21.607  12.945
92526W        W64951  40.683  35.020  11.109
92527W        W64952   7.839   1.409   0.812
92528W        W64953  21.194  26.894  14.868
92529W        W64954  20.746  21.196   3.435
92530W        W64955  10.970  25.501  11.091
92531W        W64956  44.889   9.904   3.683
92532W        W64957  31.529  40.447   4.291
92533W        W64958   0.823  21.354   4.645
92534W        W64959  11.208  32.053  14.274
92535W        W64960   3.462   1.018  14.822
92536W        W64961   5.654  15.392  14.438
92537W        W64962  15.765  23.684  12.522
92538W        W64963  35.638   8.472  14.500
92539W        W64964  20.787  10.834  12.909
92540W        W64965  38.233  33.443   2.675
92541W        W64966  14.154  11.596   2.223
92542W        W64967  30.412  14.364  14.426
92543W        W64968   6.945  33.212   1.444
92544W        W64969  29.036  42.497  12.657
92545W        W64970   7.818   9.918   3.623
92546W        W64971  26.550  35.254   1.951
92547W        W64972   9.402  17.794   3.693
92548W        W64973  44.914  17.132  10.911
92549W        W64974   3.801  21.448   0.356
92550W        W64975   5.544  44.231  11.091
92551W        W64976  36.631  18.336   1.452
92552W        W64977  11.202   3.242   1.209
92553W        W64978   4.755  26.032   1.142
92554W        W64979  26.748  18.362  13.494
92555W        W64980  17.844  39.049   0.960
92556W        W64981   7.703  21.486  12.583
92557W        W64982   7.391  41.448   4.137
92558W        W64983   1.243  30.029   0.940
92559W        W64984  27.251  13.751  14.841
92560W        W64985  32.468   1.232   1.824
92561W        W64986  12.423  20.027  11.522
92562W        W64987   3.707   0.773   2.789
92563W        W64988   8.821  39.481   2.858
92564W        W64989  31.229  26.450  13.077
92565W        W64990  10.326   9.220   3.280
92566W        W64991  30.915   5.712   4.107
92567W        W64992  18.010  19.958  12.493
92568W        W64993  33.983   2.433  10.937
92569W        W64994  15.596  40.814  13.039
92570W        W64995  11.745  19.731  14.012
92571W        W64996  33.110   6.999   3.248
92572W        W64997  28.525  20.733  11.982
92573W        W64998  19.748   2.175   4.168
92574W        W64999  16.546  22.226  11.051
92575W        W65000   4.216  22.127   3.385
92576W        W65001  11.595  35.645  14.519
92577W        W65002  16.681   6.834   3.252
92578W        W65003  21.206  27.458  13.037
92579W        W65004  32.065  10.650   1.485
92580W        W65005  36.420  18.994  14.401
92581W        W65006  25.096  26.041  14.715
92582W        W65007  24.738  14.290  13.816
92583W        W65008  35.906  13.991   3.306
92584W        W65009   2.015  18.460   0.922
92585W        W65010  10.674  32.470  13.977
92586W        W65011  43.083  39.918   1.874
92587W        W65012  29.144  18.116  12.422
92588W        W65013  32.464  24.144  14.678
92589W        W65014  34.606  13.845  14.249
92590W        W65015  12.758   2.266   0.446
92591W        W65016  28.630   3.014  11.086
92592W        W65017  13.634  19.109   0.948
92593W        W65018   2.540  41.582  11.612
92594W        W65019  24.770  15.630   2.192
92595W        W65020  31.479  11.275  11.172
92596W        W65021   7.805   2.662   0.312
92597W        W65022  43.974   8.322   0.033
92598W        W65023  19.043  29.170  14.775
92599W        W65024   9.169  34.241  13.997
92600W        W65025  11.823  29.922  11.438
92601W        W65026  23.134  32.473   0.229
92602W        W65027   4.507  21.946  14.867
92603W        W65028   9.121  28.440   1.539
92604W        W65029   3.098  23.069  12.878
92605W        W65030  16.054  20.560  12.575
92606W        W65031  22.596  14.659  10.958
92607W        W65032  27.474  33.143  13.153
92608W        W65033  40.829  29.297   0.852
92609W        W65034  35.096   7.652  14.404
92610W        W65035  31.056  35.468  12.938
92611W        W65036   8.690  29.614   2.644
92612W        W65037  22.739  40.465  11.528
92613W        W65038  21.807   7.856   1.289
92614W        W65039  31.226  36.947   0.203
92615W        W65040  36.235  13.655   1.335
92616W        W65041  17.078   3.307  13.056
92617W        W65042   5.378  34.667  11.956
92618W        W65043   6.654  13.762  10.550
92619W        W65044  17.158  22.652  14.302
92620W        W65045   8.329  21.126   2.608
92621W        W65046  30.650  12.620  11.737
92622W        W65047  17.742  16.713  12.598
92623W        W65048  17.662  24.602  11.471
92624W        W65049  36.800  13.387  14.867
92625W        W65050   9.114  31.119   3.629
92626W        W65051  18.834   6.372  12.500
92627W        W65052  12.600  43.052  10.788
92628W        W65053   8.699  25.486   2.079
92629W        W65054   6.332   6.364   1.458
92630W        W65055   1.317  32.244  13.968
92631W        W65056  23.203  24.960  10.887
92632W        W65057   8.838  37.097   1.438
92633W        W65058  39.952   8.631  11.500
92634W        W65059  37.028   9.189  12.563
92635W        W65060  33.375  38.642  14.376
92636W        W65061  32.113  19.102  10.791
92637W        W65062   6.905   2.809  12.038
92638W        W65063   0.714  18.060   3.258
92639W        W65064   8.690  31.892  14.905
92640W        W65065  14.687  36.902   1.222
92641W        W65066  39.296  13.358   3.789
92642W        W65067   0.567  24.300   0.937
92643W        W65068  24.969  24.516  13.456
92644W        W65069  33.209  19.072   1.396
92645W        W65070   1.436  36.839   2.349
92646W        W65071  10.390   4.612   5.278
92647W        W65072  12.778   2.380   2.366
92648W        W65073   1.410  21.480  12.506
92649W        W65074  43.736  28.120   1.700
92650W        W65075  42.353  15.316  12.463
92651W        W65076  28.706  19.575   0.782
92652W        W65077  37.314  36.411  14.971
92653W        W65078  10.803  31.514   3.397
92654W        W65079  31.765  11.238   2.278
92655W        W65080  14.762   7.726   0.334
92656W        W65081  40.605   8.227   4.929
92657W        W65082  14.558  32.088   4.587
92658W        W65083  25.657  20.508  12.013
92659W        W65084  42.374   2.757  13.986
92660W        W65085   9.142   9.416  14.901
92661W        W65086  41.940  19.082   4.634
92662W        W65087  27.752  29.637   9.558
92663W        W65088  32.094  44.366   2.808
92664W        W65089  19.696   2.294  13.403
92665W        W65090  20.580   7.327  14.042
92666W        W65091  16.162  11.277   2.165
92667W        W65092  13.695  34.410  13.343
92668W        W65093  39.875  26.237   0.840
92669W        W65094  38.854  10.366  14.036
92670W        W65095  21.076  13.314  14.677
92671W        W65096   6.698   6.320   3.848
92672W        W65097  31.003  25.455  14.064
92673W        W65098  22.954  20.463   2.785
92674W        W65099   9.349   0.931  14.816
92675W        W65100  14.659  21.652  14.897
92676W        W65101  27.453  21.072   3.714
92677W        W65102  25.096  13.353  12.901
92678W        W65103  23.196   6.322  14.035
92679W        W65104  23.617  37.175  11.402
92680W        W65105  32.585  10.347   4.682
92681W        W65106  36.742  23.322   5.422
92682W        W65107  26.980   8.181  14.339
92683W        W65108   6.184  28.512  10.640
92684W        W65109  32.890   7.912  12.079
92685W        W65110  44.352  42.339   4.123
92686W        W65111   0.400   8.377   2.890
92687W        W65112  21.917  31.315  14.453
92688W        W65113   0.789  41.739  13.228
92689W        W65114   9.573  22.758  14.368
92690W        W65115  34.893  20.165   1.745
92691W        W65116  21.323  19.157  11.437
92692W        W65117  41.944  34.893   2.485
92693W        W65118  44.173   3.365  14.313
92694W        W65119  40.342   9.075  12.039
92695W        W65120  30.055   9.955  12.794
92696W        W65121  11.828  22.668  10.990
92697W        W65122   3.366  40.082   0.500
92698W        W65123  44.865  27.970   0.367
92699W        W65124  23.094  37.692  12.924
92700W        W65125   9.310  44.957   0.850
92701W        W65126   3.198  25.705  11.918
92702W        W65127   2.790  33.241   4.497
92703W        W65128  30.681  32.940  11.915
92704W        W65129  44.888  40.372   0.714
92705W        W65130   9.738  33.053  12.418
92706W        W65131  15.700  44.968   1.804
92707W        W65132  39.326  15.152   4.125
92708W        W65133  18.115  34.298   0.249
92709W        W65134  41.680  41.371  13.331
92710W        W65135  21.143   5.124  12.024
92711W        W65136  25.931  29.189   3.050
92712W        W65137  20.064   1.775   3.292
92713W        W65138   2.776  44.417   1.907
92714W        W65139  32.092  19.714  10.159
92715W        W65140  16.042  28.095  12.521
92716W        W65141   0.861  19.884  10.318
92717W        W65142  36.617  15.042   3.710
92718W        W65143  24.185   3.534   2.448
92719W        W65144  44.821  23.193  11.421
92720W        W65145  25.450  32.380  12.607
92721W        W65146   7.768  31.869   2.312
92722W        W65147  11.386   4.183  12.979
92723W        W65148   8.253  31.661   2.302
92724W        W65149  32.601  38.509  13.473
92725W        W65150   2.871  17.641  12.895
92726W        W65151  31.520  37.827   1.003
92727W        W65152  44.750  35.176   1.920
92728W        W65153  21.766  10.157  13.334
92729W        W65154  36.564  29.916  11.234
92730W        W65155  35.453  41.022  13.293
92731W        W65156  11.910  37.402   2.820
92732W        W65157  29.625   2.155  13.860
92733W        W65158  39.417   9.020  14.834
92734W        W65159  31.873  11.249   4.777
92735W        W65160   9.217  41.530   1.845
92736W        W65161  42.303  41.538  10.713
92737W        W65162   2.971  42.025   0.503
92738W        W65163  44.255  19.028  14.293
92739W        W65164  24.068   2.360   4.588
92740W        W65165  44.302  33.952   0.165
92741W        W65166  20.247   9.590   0.964
92742W        W65167  29.134  26.458  11.494
92743W        W65168  14.085   5.875   4.193
92744W        W65169  10.834  37.303  11.153
92745W        W65170  33.209  10.872  14.217
92746W        W65171  36.480  22.239   0.787
92747W        W65172   8.710  23.889   5.034
92748W        W65173   3.034  29.427  13.121
92749W        W65174  42.239  24.728   3.414
92750W        W65175  11.770  33.320  12.755
92751W        W65176  39.616  36.789  11.579
92752W        W65177  29.118   5.147  10.266
92753W        W65178  42.421  22.206  13.314
92754W        W65179  39.019  41.940  14.855
92755W        W65180  32.035  32.792   3.729
92756W        W65181  42.690  34.537  11.530
92757W        W65182   1.493   2.027   0.278
92758W        W65183   0.806   9.888   0.763
92759W        W65184   1.010  14.743   1.404
92760W        W65185  31.937  20.801   2.790
92761W        W65186  31.083  36.544  12.173
92762W        W65187  16.550  35.269   2.928
92763W        W65188  21.689  14.287  14.308
92764W        W65189  16.525  17.109   3.331
92765W        W65190  39.269  42.538  11.399
92766W        W65191  10.430  25.731  14.394
92767W        W65192  38.394  35.007   3.586
92768W        W65193  28.150   6.289  13.937
92769W        W65194  26.009  22.083   0.281
92770W        W65195   6.145   2.416   4.105
92771W        W65196  40.741  33.950  10.926
92772W        W65197   9.308  20.785   3.729
92773W        W65198  11.862  41.569   3.822
92774W        W65199  15.167  42.607  11.042
92775W        W65200  17.503   8.307  12.113
92776W        W65201  27.777  15.679  12.514
92777W        W65202  42.460   7.904   0.266
92778W        W65203  16.575  18.258   3.795
92779W        W65204  41.944  24.638  12.108
92780W        W65205  29.174  17.898  10.671
92781W        W65206  38.855  20.190  12.555
92782W        W65207  10.921  29.922  12.062
92783W        W65208   9.765   0.200   4.121
92784W        W65209  21.793  19.763   4.626
92785W        W65210  14.119  23.698   2.679
92786W        W65211  41.908  39.018   2.393
92787W        W65212  23.068  38.065  11.930
92788W        W65213  29.828  34.836   5.118
92789W        W65214  24.649  33.216  10.721
92790W        W65215  39.788  42.615  13.975
92791W        W65216  37.389  19.476  12.989
92792W        W65217   3.071  14.660  12.102
92793W        W65218  29.897  40.794   2.380
92794W        W65219  38.577   8.177   3.178
92795W        W65220   5.836  32.429   1.340
92796W        W65221   3.789  27.535  13.865
92797W        W65222   8.141   9.426  13.919
92798W        W65223  15.476  42.913   4.820
92799W        W65224  40.325  11.371  10.578
92800W        W65225  23.053  30.022   1.673
92801W        W65226   5.134   9.377   0.809
92802W        W65227  42.949   1.014   0.394
92803W        W65228  21.881  22.766   0.719
92804W        W65229   6.946  37.572  12.873
92805W        W65230   1.917   2.407   1.479
92806W        W65231  44.120  43.671   3.299
92807W        W65232  38.024  44.804  12.768
92808W        W65233  31.784  34.891   5.136
92809W        W65234  12.670   7.068   0.279
92810W        W65235  24.763  34.312  14.045
92811W        W65236  39.410  33.004  14.488
92812W        W65237  37.604  18.039  12.566
92813W        W65238  14.892  31.400  11.612
92814W        W65239   4.564  40.549  11.139
92815W        W65240  37.861  21.623  11.141
92816W        W65241  17.694  11.713  11.579
92817W        W65242  37.779  10.454   2.738
92818W        W65243  32.441   6.114   1.642
92819W        W65244   0.937  36.929   0.948
92820W        W65245  14.158   5.759   0.970
92821W        W65246  35.534   0.981  14.533
92822W        W65247  29.944  22.264   4.568
92823W        W65248  25.425  28.036   3.790
92824W        W65249  24.397  37.649  12.960
92825W        W65250  43.996  41.883   4.047
92826W        W65251  24.176  44.465  10.298
92827W        W65252  41.798  35.782  12.438
92828W        W65253  20.386  38.797   3.241
92829W        W65254  37.128  31.454   1.890
92830W        W65255  31.714   0.481   3.677
92831W        W65256  29.817  19.719   3.087
92832W        W65257  28.560   4.890   0.830
92833W        W65258  31.205  15.891   2.685
92834W        W65259  34.923  43.760   2.714
92835W        W65260   1.912  15.469  14.265
92836W        W65261  28.683  36.076   1.611
92837W        W65262  10.057  42.409  13.540
92838W        W65263  34.948   3.892  10.753
92839W        W65264   9.543   3.890   2.236
92840W        W65265  14.119  38.234  12.159
92841W        W65266  40.610  40.823  10.996
92842W        W65267  28.808  30.341   2.696
92843W        W65268  11.334  21.112  14.020
92844W        W65269  14.687  20.762  12.416
92845W        W65270   1.244   7.404   0.243
92846W        W65271  14.048  27.082   4.885
92847W        W65272  34.001  33.319   3.734
92848W        W65273  29.446   1.513   0.960
92849W        W65274  23.449  26.634   1.124
92850W        W65275  17.345  14.081   3.716
92851W        W65276  33.352   1.840   1.301
92852W        W65277  15.907  17.144   1.276
92853W        W65278  31.631  34.723  14.384
92854W        W65279  26.726  15.649  10.802
92855W        W65280  13.883   6.459  10.719
92856W        W65281   6.413  31.562   3.005
92857W        W65282  11.675  17.911   4.941
92858W        W65283   1.045  20.565   3.147
92859W        W65284   2.782   3.992  14.486
92860W        W65285  30.547  42.975   4.128
92861W        W65286  11.391  20.334  12.922
92862W        W65287  36.922  43.525   3.705
92863W        W65288  30.898  29.282   4.096
92864W        W65289  28.078  35.891  14.890
92865W        W65290  35.583  30.107   3.711
92866W        W65291   8.404  24.742  11.214
92867W        W65292  30.006  11.129   4.077
92868W        W65293  40.364  17.910   2.213
92869W        W65294  31.499   8.897  14.117
92870W        W65295   0.166  39.154   9.857
92871W        W65296  21.597  27.647  12.504
92872W        W65297  24.533  28.723  12.899
92873W        W65298  32.922  34.201   1.179
92874W        W65299   2.763  34.488  12.514
92875W        W65300  14.126  21.242  12.457
92876W        W65301  32.372  40.443  11.833
92877W        W65302  15.153   7.480   2.929
92878W        W65303  28.063   0.476  11.491
92879W        W65304  10.231  32.843   2.234
92880W        W65305  30.964  32.041   0.683
92881W        W65306  23.156  42.033   4.354
92882W        W65307   2.038  43.386  13.456
92883W        W65308  15.166  39.534   0.172
92884W        W65309  14.924  16.815   4.846
92885W        W65310  42.797  27.482   4.272
92886W        W65311   7.055   8.995   4.212
92887W        W65312   6.826   5.278  12.302
92888W        W65313  39.259  12.203   1.486
92889W        W65314  35.623  34.157   2.403
92890W        W65315  40.980  21.768  11.187
92891W        W65316   0.966  43.330  12.434
92892W        W65317  37.788  21.609  12.966
92893W        W65318  44.772   8.853  10.292
92894W        W65319   9.363  23.442  13.428
92895W        W65320  12.932  35.841   4.540
92896W        W65321  32.882   2.493  11.189
92897W        W65322  25.980   5.313   0.773
92898W        W65323  37.422   1.976  13.427
92899W        W65324  39.110  19.382  10.552
92900W        W65325  33.305  27.965   0.838
92901W        W65326  35.065  25.574  14.181
92902W        W65327  26.114   1.963  10.631
92903W        W65328  26.616   4.666  12.412
92904W        W65329  11.292  19.977  14.929
92905W        W65330  14.547   3.779  10.607
92906W        W65331  37.368  15.093  11.243
92907W        W65332  36.360  37.999  13.408
92908W        W65333  31.876   8.443  12.030
92909W        W65334  25.630  19.553   4.242
92910W        W65335  13.573  44.047  11.639
92911W        W65336  29.172  28.597  13.810
92912W        W65337   9.959  19.573   0.957
92913W        W65338  35.893  34.069  13.448
92914W        W65339   3.956   7.909   3.295
92915W        W65340  24.189   9.173   4.590
92916W        W65341  21.608  30.123  12.658
92917W        W65342   1.696   1.532   0.286
92918W        W65343  37.415  29.377  11.113
92919W        W65344  44.603  22.543  10.722
92920W        W65345  43.720  24.481   2.332
92921W        W65346  44.703   4.266   0.943
92922W        W65347  22.591  10.928  10.657
92923W        W65348   6.721  43.873   4.357
92924W        W65349  16.589  38.210  12.864
92925W        W65350  21.756  40.822  14.051
92926W        W65351  39.768  25.599  14.580
92927W        W65352  23.720  12.216   2.835
92928W        W65353  40.602  15.772  13.413
92929W        W65354  14.372   0.181   3.169
92930W        W65355  27.040  15.983   2.787
92931W        W65356  37.073  27.690  10.716
92932W        W65357  32.561  33.981   2.842
92933W        W65358  41.994  18.057   3.642
92934W        W65359  17.171  31.241   4.122
92935W        W65360  18.049  32.055   2.830
92936W        W65361  24.262   1.850   4.527
92937W        W65362  11.136  33.188  11.936
92938W        W65363  12.117  38.281   3.284
92939W        W65364  38.501  19.262   3.190
92940W        W65365  44.040   6.201   3.227
92941W        W65366   9.911  21.823   4.488
92942W        W65367  14.634  37.028   3.827
92943W        W65368  34.838   9.407   0.956
92944W        W65369  37.136  25.702  12.499
92945W        W65370  10.293  34.061  11.084
92946W        W65371  27.894   1.962  11.494
92947W        W65372  33.632  38.407  14.800
92948W        W65373   8.715  41.962  13.076
92949W        W65374  35.969   7.762   0.113
92950W        W65375  35.632  13.249  14.992
92951W        W65376  15.575  39.930  12.527
92952W        W65377  30.632  15.935   3.576
92953W        W65378  33.574   7.733   2.305
92954W        W65379  20.496  14.987  14.692
92955W        W65380  18.440  41.288  10.678
92956W        W65381   5.920   8.381   2.206
92957W        W65382  21.112   6.305   5.056
92958W        W65383   2.441  25.292   4.092
92959W        W65384  14.606  17.644   3.322
92960W        W65385  33.426  16.570  10.970
92961W        W65386   6.395  25.528   2.687
92962W        W65387  22.137  34.520   0.222
92963W        W65388   2.931  28.081  13.074
92964W        W65389  12.825  13.608  13.010
92965W        W65390  13.449  35.244  12.532
92966W        W65391   5.261  22.580  10.745
92967W        W65392  25.937  22.627   3.852
92968W        W65393  37.012   9.696  14.831
92969W        W65394  14.365  15.222  10.504
92970W        W65395  31.142  17.071  11.930
92971W        W65396  12.230  35.979  14.470
92972W        W65397   3.874  12.095   3.168
92973W        W65398  36.687  26.835   2.279
92974W        W65399   7.008  23.530  13.530
92975W        W65400  13.090  21.230  13.551
92976W        W65401  30.415  28.949   1.785
92977W        W65402   6.756  41.667  12.139
92978W        W65403  38.043  11.383   4.557
92979W        W65404  37.055   1.954   4.788
92980W        W65405  43.532  27.876   0.105
92981W        W65406  39.869  42.845   2.174
92982W        W65407  26.608  43.121   3.606
92983W        W65408  15.501  41.926   2.451
92984W        W65409  33.630  32.611   0.811
92985W        W65410   7.874  29.649   1.631
92986W        W65411  26.931  13.721  11.538
92987W        W65412   2.796  32.176   4.716
92988W        W65413   8.262  38.851   4.418
92989W        W65414  40.369  43.782   0.752
92990W        W65415  26.268  15.848  10.664
92991W        W65416  28.061  35.686  12.584
92992W        W65417  20.751  29.149   1.700
92993W        W65418  41.118  16.327  12.959
92994W        W65419   6.713   5.940   2.653
92995W        W65420  34.377  15.824   0.236
92996W        W65421   7.995  20.100  14.216
92997W        W65422   5.864  12.555   0.455
92998W        W65423  13.468  18.689   1.610
92999W        W65424  33.279  37.193   3.578
93000W        W65425  25.133  13.081   4.628
93001W        W65426  29.174  10.210   4.620
93002W        W65427  24.911  18.714  11.921
93003W        W65428  44.918  10.963  14.716
93004W        W65429  39.058  10.566   1.434
93005W        W65430  18.670  40.436  10.020
93006W        W65431  30.237  42.044  11.954
93007W        W65432  18.157  43.503  14.497
93008W        W65433  27.573  12.541  13.320
93009W        W65434  17.041  27.058  14.343
93010W        W65435   5.388  27.175  10.618
93011W        W65436   0.760  13.834   2.903
93012W        W65437  37.130   6.260  12.568
93013W        W65438  44.513  25.121  13.956
93014W        W65439  44.059  32.154  13.374
93015W        W65440  44.680  35.017   5.021
93016W        W65441  26.211  29.753   4.816
93017W        W65442  28.635  39.918  14.785
93018W        W65443  33.491  11.936  12.965
93019W        W65444  39.542  31.971  11.448
93020W        W65445  33.453   6.075   1.883
93021W        W65446   8.183  40.184  12.000
93022W        W65447  42.285  19.222  11.050
93023W        W65448  44.773  36.877  11.466
93024W        W65449  21.380  38.964   3.480
93025W        W65450  43.422  11.088  13.845
93026W        W65451  12.310  21.993  14.910
93027W        W65452   7.240   1.355   3.335
93028W        W65453   4.839  35.023  14.415
93029W        W65454   0.188  16.345   1.408
93030W        W65455  34.391  42.505   0.844
93031W        W65456   7.736  19.592  12.601
93032W        W65457  37.831  23.145  13.434
93033W        W65458  17.610  35.601   3.663
93034W        W65459  19.220   2.846   2.962
93035W        W65460   6.420  37.407   2.059
93036W        W65461  26.464   6.562   1.458
93037W        W65462  16.945  25.183   4.237
93038W        W65463  43.264   2.691  11.279
93039W        W65464  28.127  41.889  14.431
93040W        W65465  36.861  43.009  14.925
93041W        W65466  28.478  21.570  14.004
93042W        W65467  30.425  16.380   4.336
93043W        W65468   9.601  41.687  10.313
93044W        W65469  37.947  35.350   2.439
93045W        W65470  11.880   3.451   3.333
93046W        W65471  40.024  22.968  14.951
93047W        W65472  16.660  21.166   3.909
93048W        W65473  21.742   9.714  12.520
93049W        W65474  13.396  27.944   1.489
93050W        W65475  16.534  22.227   3.714
93051W        W65476  42.919  21.641   2.714
93052W        W65477  18.069  43.036   2.671
93053W        W65478  27.199  16.658  10.998
93054W        W65479  34.519  24.228   2.339
93055W        W65480  25.264  40.891  13.360
93056W        W65481  13.490  16.942   5.124
93057W        W65482  18.174  23.974  13.939
93058W        W65483  41.020  12.660   3.893
93059W        W65484  28.984  19.808  12.467
93060W        W65485  34.114  44.806  12.725
93061W        W65486  39.041  32.566   0.025
93062W        W65487   6.163  41.219  10.528
93063W        W65488  27.443  34.735  14.882
93064W        W65489   7.780  31.038  10.807
93065W        W65490  26.790  15.355  13.354
93066W        W65491   4.175  36.080  12.013
93067W        W65492  44.330  26.207   4.664
93068W        W65493  17.451  13.504   3.007
93069W        W65494  44.365  43.421  11.989
93070W        W65495  10.363  20.989  14.888
93071W        W65496   6.845  17.843   1.116
93072W        W65497  13.659  18.724   2.580
93073W        W65498  28.647  25.893   1.821
93074W        W65499  21.989  36.846  10.618
93075W        W65500  29.541   8.846  12.004
93076W        W65501  24.407  34.509   3.415
93077W        W65502   0.209  38.886  14.330
93078W        W65503  22.065  24.663   4.722
93079W        W65504  22.024   9.754  14.031
93080W        W65505  29.491   1.905   1.893
93081W        W65506   3.751  34.536  13.763
93082W        W65507  19.777  31.589  12.933
93083W        W65508  27.343  29.048   2.615
93084W        W65509  21.829   9.629   4.962
93085W        W65510  25.550  20.825  14.999
93086W        W65511  19.786  19.880   1.364
93087W        W65512  34.814  27.855   0.755
93088W        W65513  28.155  19.324  11.994
93089W        W65514  32.444  41.728   1.215
93090W        W65515  26.038  10.696   2.772
93091W        W65516  33.353  28.340  10.203
93092W        W65517  23.271  16.694   2.746
93093W        W65518  14.261  37.383  10.710
93094W        W65519  15.069  12.399  12.854
93095W        W65520  22.119   9.933   4.049
93096W        W65521  17.638  31.186  14.835
93097W        W65522  13.776  36.083   3.407
93098W        W65523  28.405   0.513  13.780
93099W        W65524  10.946   5.214  13.504
93100W        W65525  17.664  37.469   3.155
93101W        W65526  25.691  25.155  14.943
93102W        W65527  15.528   2.018   4.617
93103W        W65528   5.422  32.311   2.652
93104W        W65529  43.496  29.104  13.047
93105W        W65530  31.102  40.073   2.783
93106W        W65531  35.629   4.679   3.622
93107W        W65532  42.044   5.282  13.272
93108W        W65533   0.495  33.047  13.321
93109W        W65534  40.051  24.980   3.237
93110W        W65535  32.070  28.061   0.355
93111W        W65536  14.996  27.087   2.239
93112W        W65537  17.288  26.140  10.670
93113W        W65538   5.038  28.589   3.267
93114W        W65539   9.850  17.030  12.249
93115W        W65540  27.785  27.089   0.267
93116W        W65541   9.387  31.017  11.976
93117W        W65542  31.637   8.318  11.497
93118W        W65543  19.079   9.461  10.679
93119W        W65544  39.128  44.765   9.727
93120W        W65545  39.930  30.815   2.033
93121W        W65546  17.150   9.217   1.048
93122W        W65547  23.478   2.946   4.139
93123W        W65548  43.399  17.496   2.644
93124W        W65549  41.398  40.131   3.745
93125W        W65550  17.785  17.426   3.648
93126W        W65551   0.378  30.714  10.487
93127W        W65552  19.537   9.367  12.093
93128W        W65553   1.696  28.638  13.825
93129W        W65554  35.450  30.624  14.250
93130W        W65555   9.683  15.871   3.801
93131W        W65556  20.657  19.358   5.080
93132W        W65557  33.925  17.985  14.272
93133W        W65558  34.473   1.421  13.418
93134W        W65559  24.435  23.712   4.970
93135W        W65560  23.074  13.628   2.165
93136W        W65561  16.776  14.598  13.449
93137W        W65562  27.497   6.306  14.820
93138W        W65563  13.120  29.901  14.845
93139W        W65564   3.969  37.879  14.704
93140W        W65565  41.522  43.645  14.972
93141W        W65566   0.500  18.102  12.697
93142W        W65567   3.947   0.354   3.972
93143W        W65568  10.378  24.683   0.908
93144W        W65569  40.467  41.317  11.731
93145W        W65570  34.172  39.890  12.659
93146W        W65571  10.177  31.492  10.662
93147W        W65572  29.858  37.903  12.034
93148W        W65573  26.016  39.745  13.350
93149W        W65574  36.870  27.741  12.056
93150W        W65575  33.429  32.381   2.303
93151W        W65576  40.318   2.998   2.945
93152W        W65577  33.146  27.946   3.807
93153W        W65578   1.359  22.312  11.810
93154W        W65579  17.123  44.831   3.703
93155W        W65580  25.076  12.661  14.372
93156W        W65581   6.997  21.515   1.293
93157W        W65582   5.443  26.465   1.038
93158W        W65583  11.620  10.222   0.949
93159W        W65584  39.395  34.358   4.521
93160W        W65585  16.965  33.490   4.711
93161W        W65586  12.050  12.714  12.195
93162W        W65587  24.052  43.422   0.166
93163W        W65588  16.308   6.798   3.946
93164W        W65589   0.246  33.863   4.985
93165W        W65590  19.151   9.787   3.131
93166W        W65591   6.991  13.077  13.885
93167W        W65592  15.622   2.336   2.357
93168W        W65593   3.266  38.071   0.441
93169W        W65594  14.753  43.395  13.975
93170W        W65595  25.982  13.941   0.375
93171W        W65596   4.720  23.041   1.065
93172W        W65597  41.830  22.969  11.618
93173W        W65598  14.097  31.104   3.207
93174W        W65599   7.225  13.746   0.329
93175W        W65600  16.103  17.809   4.152
93176W        W65601  16.401  41.001   1.659
93177W        W65602  16.196  27.933   4.604
93178W        W65603  35.306  39.487   3.745
93179W        W65604  35.095  18.015  11.160
93180W        W65605  13.469  37.928   1.936
93181W        W65606  11.696  42.032   3.684
93182W        W65607   8.333  31.064  11.580
93183W        W65608  10.224  11.121  12.943
93184W        W65609  38.830  32.353   4.092
93185W        W65610  31.560  40.123  10.659
93186W        W65611  20.595  25.771  13.246
93187W        W65612   5.782  11.079   0.369
93188W        W65613   9.900   9.448   3.753
93189W        W65614   7.172  31.823   3.430
93190W        W65615  14.083  42.689   3.554
93191W        W65616  44.306  37.012  13.488
93192W        W65617  24.977  21.896   0.475
93193W        W65618  11.074   7.679  12.430
93194W        W65619  28.947  36.419   4.090
93195W        W65620  17.393  27.996  13.974
93196W        W65621  30.139  29.694   1.563
93197W        W65622  29.443  33.604  10.114
93198W        W65623  21.426  12.696  14.491
93199W        W65624  19.195  23.337  12.957
93200W        W65625  38.531  34.804  13.625
93201W        W65626  41.226  39.317   0.215
93202W        W65627  10.913   2.572  10.695
93203W        W65628   2.517  43.831  12.125
93204W        W65629  16.797  12.907  14.197
93205W        W65630  23.439  13.096   2.788
93206W        W65631  33.434  36.702   2.817
93207W        W65632   3.315  44.280  10.877
93208W        W65633  32.086  41.751   4.214
93209W        W65634   0.290  34.056   1.948
93210W        W65635   7.157  14.200   4.644
93211W        W65636   8.092  41.135  11.907
93212W        W65637  10.914  39.816   4.209
93213W        W65638  30.933   9.745  10.686
93214W        W65639  37.455   2.340   3.703
93215W        W65640  18.319  44.570   4.816
93216W        W65641  14.823   4.944  13.402
93217W        W65642  38.208   8.412  10.036
93218W        W65643  41.985  31.108   3.791
93219W        W65644   2.879   0.757   0.869
93220W        W65645  27.673  16.649  11.442
93221W        W65646   9.772   3.861  13.569
93222W        W65647  21.679  25.737   1.489
93223W        W65648  39.434   2.041   4.056
93224W        W65649  11.165  36.566  13.134
93225W        W65650   8.837  42.199   2.354
93226W        W65651  21.351  35.385   4.906
93227W        W65652   0.448  26.971   4.392
93228W        W65653  23.058  26.110   3.763
93229W        W65654   9.707  44.232   2.411
93230W        W65655   1.274  31.394   3.478
93231W        W65656  38.347  12.271   2.965
93232W        W65657   2.263  15.721  13.982
93233W        W65658  43.534   4.643   0.376
93234W        W65659  19.362  29.243  13.044
93235W        W65660  17.644  10.085  11.904
93236W        W65661  10.373   5.799  11.208
93237W        W65662  14.250  16.842  11.547
93238W        W65663  42.901  14.574  12.517
93239W        W65664   9.113  40.862   3.137
93240W        W65665  37.670  25.683  12.479
93241W        W65666  27.487  35.455   4.298
93242W        W65667  15.609   9.480   1.725
93243W        W65668  38.685  22.104  14.624
93244W        W65669   3.559   1.959  13.906
93245W        W65670  18.311  29.741  11.693
93246W        W65671  21.696   2.498  10.681
93247W        W65672  20.120  21.040  11.558
93248W        W65673  11.837  37.538  11.994
93249W        W65674  29.611  26.769   1.727
93250W        W65675   4.987  31.479   1.319
93251W        W65676  19.027  17.582  14.995
93252W        W65677  15.164  19.252  10.678
93253W        W65678  26.165  13.067  11.247
93254W        W65679  32.622   2.847   2.933
93255W        W65680  15.412  33.503  13.707
93256W        W65681  17.110   4.951  11.103
93257W        W65682  26.262   7.411   1.284
93258W        W65683  26.179  21.591  11.305
93259W        W65684  14.333  25.405   3.677
93260W        W65685  14.290   0.680  12.910
93261W        W65686   2.198  11.778  11.948
93262W        W65687  10.646  44.127   2.413
93263W        W65688  42.784   8.387   4.188
93264W        W65689   7.842  25.237   1.846
93265W        W65690  36.324  18.496  14.270
93266W        W65691  13.041  27.842  13.939
93267W        W65692  22.996  36.466  14.545
93268W        W65693  31.057  40.119  10.726
93269W        W65694  25.087  17.407  10.991
93270W        W65695   4.538   1.879   1.376
93271W        W65696  38.370  12.782   2.329
93272W        W65697  28.921  29.524   0.860
93273W        W65698  15.680  33.083  12.989
93274W        W65699   6.887  31.132   0.497
93275W        W65700  37.593   8.789   3.580
93276W        W65701   2.258  40.365   3.884
93277W        W65702  12.143  33.552   0.896
93278W        W65703  13.590  42.006   2.219
93279W        W65704  33.969   6.306   2.225
93280W        W65705  22.329   3.679   9.964
93281W        W65706  14.096   8.295   1.356
93282W        W65707   9.192  32.483  11.476
93283W        W65708  23.721  37.096   2.711
93284W        W65709   7.872  42.346   0.451
93285W        W65710  14.251   6.357  14.321
93286W        W65711   1.995   9.010   0.407
93287W        W65712  38.365   0.493   4.432
93288W        W65713  29.475  11.059   2.800
93289W        W65714  30.218  17.104   0.816
93290W        W65715  39.531  25.965   1.823
93291W        W65716  30.714  36.928   0.265
93292W        W65717  40.942  17.627   4.388
93293W        W65718  35.602  31.266  10.712
93294W        W65719  30.637  13.233   3.608
93295W        W65720  24.516  34.861   4.330
93296W        W65721  24.726  27.639   4.327
93297W        W65722  37.367  19.282   2.786
93298W        W65723  18.923  24.158  11.710
93299W        W65724   4.184  11.288   3.820
93300W        W65725   4.309  33.165   4.364
93301W        W65726  36.623  24.722   3.771
93302W        W65727   0.147  31.116   2.002
93303W        W65728  40.801  30.675  12.634
93304W        W65729  32.553  25.202   0.701
93305W        W65730  30.438  31.111   4.131
93306W        W65731   1.001  36.912  12.376
93307W        W65732  33.947  10.339   1.891
93308W        W65733  41.956   4.187   4.110
93309W        W65734  15.194  33.084   0.506
93310W        W65735  14.800  10.501  12.348
93311W        W65736  32.605  18.742  13.352
93312W        W65737   0.774  36.317   1.424
93313W        W65738  41.874   6.348  10.318
93314W        W65739   7.806   6.607   1.378
93315W        W65740   4.218  33.165  12.100
93316W        W65741  10.862   0.258   4.123
93317W        W65742  44.272  24.701  12.502
93318W        W65743  27.710  25.973   2.127
93319W        W65744   6.238  39.866  14.196
93320W        W65745  13.073  18.308   2.875
93321W        W65746  19.703  16.582  13.565
93322W        W65747   8.264  41.326  11.244
93323W        W65748  40.471  27.637  14.110
93324W        W65749  11.079  32.430   2.323
93325W        W65750  39.775  35.015   1.812
93326W        W65751  30.639   9.306   2.205
93327W        W65752  27.023   2.278   0.726
93328W        W65753  26.919  17.078  11.108
93329W        W65754   1.717  31.502   1.232
93330W        W65755  43.804  27.633   0.474
93331W        W65756  27.367  32.050  12.806
93332W        W65757  12.252  41.568   2.585
93333W        W65758  40.576  13.717  10.990
93334W        W65759  40.725  24.455  10.831
93335W        W65760  31.549  34.090   0.997
93336W        W65761  21.774  17.374   0.401
93337W        W65762  17.052  32.428   2.467
93338W        W65763   5.867  23.698   4.686
93339W        W65764  11.292  28.416  13.066
93340W        W65765  24.733  28.594   2.856
93341W        W65766  33.728  21.176   3.696
93342W        W65767  24.817  15.335  11.601
93343W        W65768  20.133  29.211  12.538
93344W        W65769  11.129  38.828   4.276
93345W        W65770  21.643   9.235   5.690
93346W        W65771   6.800  39.380   3.453
93347W        W65772  33.625  29.846  13.341
93348W        W65773  27.919   6.369   3.864
93349W        W65774   5.426   9.926   4.630
93350W        W65775  31.458   2.034   0.478
93351W        W65776  16.428  11.080   1.755
93352W        W65777  43.979  41.565   3.614
93353W        W65778  12.668   2.316  14.898
93354W        W65779  40.251  33.940  11.074
93355W        W65780  11.258  18.312   0.782
93356W        W65781  25.048  13.762  10.632
93357W        W65782  32.610  12.391   0.801
93358W        W65783  19.117  20.593   3.395
93359W        W65784  37.591  18.067   3.778
93360W        W65785  20.940  25.685   0.314
93361W        W65786   3.912  44.767  14.426
93362W        W65787  15.645  14.282  10.882
93363W        W65788  17.971  30.971   3.268
93364W        W65789  21.254   7.875   4.095
93365W        W65790  28.730  38.891  10.268
93366W        W65791  29.114  41.372   0.466
93367W        W65792  26.063  22.747  12.641
93368W        W65793  19.499  41.436   1.354
93369W        W65794  44.917  34.492   2.154
93370W        W65795  21.981  36.852  12.429
93371W        W65796  21.342   9.679  13.473
93372W        W65797   2.863  13.594  14.875
93373W        W65798  44.399  16.905  11.544
93374W        W65799  14.716   5.309  14.431
93375W        W65800  32.662  30.949   3.406
93376W        W65801  21.505  26.018   3.753
93377W        W65802  21.237  18.244   3.071
93378W        W65803  26.713  21.595   2.234
93379W        W65804   9.681  25.513   2.654
93380W        W65805  26.139  35.492  14.426
93381W        W65806  42.220  23.571   2.845
93382W        W65807  39.417  12.281  11.169
93383W        W65808  31.043  18.673   1.780
93384W        W65809   1.997  12.708   1.498
93385W        W65810  34.176  16.115   2.849
93386W        W65811  39.914   4.193  14.794
93387W        W65812  32.553  28.681   0.576
93388W        W65813  38.054  25.066   2.366
93389W        W65814  38.445  40.852   0.713
93390W        W65815  19.935  19.337  11.193
93391W        W65816  16.098  20.558  12.040
93392W        W65817  28.500   0.435   3.245
93393W        W65818  25.432  43.950  13.942
93394W        W65819  19.165  33.288   2.425
93395W        W65820  16.064  32.483  13.581
93396W        W65821   6.227  27.640   0.242
93397W        W65822  10.814  44.887  14.529
93398W        W65823  35.916   5.226  11.912
93399W        W65824  14.157  34.535  13.598
93400W        W65825   0.125  22.934  10.663
93401W        W65826  41.950  31.402  12.955
93402W        W65827   3.795   3.025   2.846
93403W        W65828  44.001  23.824   3.247
93404W        W65829   2.906  27.444  14.299
93405W        W65830   0.118  20.287   1.138
93406W        W65831  27.453  15.109  14.285
93407W        W65832  21.988   8.229   0.041
93408W        W65833  18.841  33.491   3.345
93409W        W65834  40.882  19.496  11.528
93410W        W65835   3.108   9.226   4.047
93411W        W65836   1.659  24.082   0.689
93412W        W65837  32.052   1.261   2.223
93413W        W65838  13.836  13.180  13.865
93414W        W65839   0.837  37.566   3.702
93415W        W65840  42.077  39.767  11.715
93416W        W65841  39.054  39.176  12.324
93417W        W65842  36.654  39.655  12.033
93418W        W65843  36.496  37.338  14.235
93419W        W65844   8.165  18.094   0.889
93420W        W65845  39.024   7.921  11.124
93421W        W65846  36.460  26.100   0.781
93422W        W65847  38.920  35.153  11.119
93423W        W65848  31.990  17.831  12.426
93424W        W65849  27.401  14.740  10.662
93425W        W65850   6.886  24.590  13.466
93426W        W65851  11.508  15.614  13.751
93427W        W65852   5.031  37.549   2.717
93428W        W65853   2.079  32.492   1.285
93429W        W65854  22.100   5.685  13.839
93430W        W65855  29.009  34.884  12.515
93431W        W65856  34.181  25.571  10.710
93432W        W65857  14.279   7.329   2.913
93433W        W65858   9.417   6.623  10.720
93434W        W65859  15.153  43.991   1.230
93435W        W65860  17.695   0.712  13.221
93436W        W65861   4.866   2.716  13.556
93437W        W65862  35.981   7.851   1.917
93438W        W65863  39.322  23.729   3.242
93439W        W65864  42.120  16.595  11.109
93440W        W65865   4.896   1.580   1.657
93441W        W65866  21.247  34.564  14.941
93442W        W65867   5.831   8.064   1.229
93443W        W65868  17.118  34.452   4.603
93444W        W65869  30.923  12.645   4.136
93445W        W65870  16.146  19.200   1.347
93446W        W65871  27.125  21.079  14.300
93447W        W65872  43.477  41.031   3.981
93448W        W65873  28.852  17.042   1.965
93449W        W65874  35.118   7.123  14.403
93450W        W65875  27.403  13.797  13.420
93451W        W65876  25.108  23.017  13.394
93452W        W65877   0.429  10.809  10.499
93453W        W65878  21.351   4.733   0.451
93454W        W65879  13.240   7.759   1.451
93455W        W65880  26.239  14.298  11.740
93456W        W65881  24.395   4.440  14.824
93457W        W65882  36.263  21.081   3.172
93458W        W65883  37.106  40.513   4.550
93459W        W65884  22.307  31.720   4.687
93460W        W65885  27.604  17.199   0.977
93461W        W65886  27.829  32.643   5.008
93462W        W65887  36.562   4.711   2.596
93463W        W65888  39.059  34.092   0.355
93464W        W65889  33.376  34.992   1.680
93465W        W65890   7.820   4.229  11.916
93466W        W65891   8.150  24.417  14.051
93467W        W65892  11.247  21.053   4.824
93468W        W65893  32.866   7.681   2.657
93469W        W65894  21.372  15.152  12.660
93470W        W65895  43.412  38.832   2.592
93471W        W65896   7.123   4.968   4.540
93472W        W65897   5.758  36.926  11.111
93473W        W65898  17.926  15.829  11.110
93474W        W65899  22.362   9.285  12.723
93475W        W65900   8.366   7.245  14.310
93476W        W65901  36.099   2.463  11.891
93477W        W65902  25.284  28.645   1.281
93478W        W65903  11.567  41.977   1.875
93479W        W65904  37.922   8.350  11.922
93480W        W65905  32.963  14.914   0.048
93481W        W65906  41.051   9.841   2.815
93482W        W65907  39.419  24.001   4.652
93483W        W65908   5.984   0.945  11.522
93484W        W65909   5.935  14.170  13.850
93485W        W65910  15.181  21.382  10.188
93486W        W65911  21.030  42.304  12.985
93487W        W65912  37.844  33.589  10.873
93488W        W65913  12.173  20.489  14.788
93489W        W65914  17.013   4.270  11.398
93490W        W65915   6.702  30.437   2.304
93491W        W65916   5.134  35.503  14.294
93492W        W65917  29.442  14.870   4.152
93493W        W65918  19.967   5.773  13.974
93494W        W65919  17.937  17.742   2.674
93495W        W65920  14.872  12.620  14.463
93496W        W65921  16.187  11.269  12.656
93497W        W65922  13.592  42.566   1.351
93498W        W65923  12.345  20.943   4.436
93499W        W65924   5.706   9.828   0.773
93500W        W65925  15.503  20.586   4.298
93501W        W65926   4.786  41.321  12.538
93502W        W65927  20.542  10.188   1.634
93503W        W65928  35.577   0.839  14.026
93504W        W65929   2.345   5.319   1.195
93505W        W65930  41.306   1.702  11.933
93506W        W65931   5.398   2.225   0.884
93507W        W65932   4.715  24.666  13.522
93508W        W65933   1.276  27.407   2.238
93509W        W65934  31.672  14.807   2.037
93510W        W65935  30.537  19.556   0.423
93511W        W65936  27.197  20.264   1.765
93512W        W65937  28.122  13.852   2.892
93513W        W65938  42.357  22.047   3.855
93514W        W65939  22.512  11.750   3.483
93515W        W65940  37.113   6.971   2.824
93516W        W65941  34.367  17.802  12.382
93517W        W65942  36.158  31.525   1.661
93518W        W65943  32.824  18.789   9.923
93519W        W65944  37.113  10.079   0.723
93520W        W65945  18.958  23.693   3.760
93521W        W65946  43.789  39.704   1.353
93522W        W65947  21.896   2.116   0.528
93523W        W65948  26.084   7.621   2.803
93524W        W65949  37.530  25.641   3.537
93525W        W65950  17.698  19.151   2.115
93526W        W65951   1.269  27.924   2.671
93527W        W65952  30.095  40.347  12.086
93528W        W65953  11.054  30.369   1.351
93529W        W65954  12.210   0.740   3.824
93530W        W65955  42.838  44.972  13.954
93531W        W65956  39.048   2.849   3.772
93532W        W65957   3.825  16.711  13.038
93533W        W65958  12.896  35.441   3.291
93534W        W65959  37.000  23.099  10.159
93535W        W65960  40.900   5.015   2.999
93536W        W65961  12.851  42.840   2.870
93537W        W65962  15.185  20.460  10.935
93538W        W65963   1.970  27.965  11.750
93539W        W65964  28.681  20.760   0.725
93540W        W65965  35.913   0.639  14.670
93541W        W65966   5.763  33.375   3.428
93542W        W65967  21.469  42.278   0.735
93543W        W65968  27.664  28.716  10.862
93544W        W65969  40.362   8.815   3.642
93545W        W65970  31.440  10.753   2.929
93546W        W65971  18.571  21.693  12.492
93547W        W65972  32.892   3.203  14.362
93548W        W65973  33.842  29.267   0.395
93549W        W65974  10.304  28.919  11.368
93550W        W65975  24.757   1.110   0.717
93551W        W65976  40.329  19.426  11.176
93552W        W65977   3.230   3.425   1.329
93553W        W65978  39.955  25.758   1.017
93554W        W65979  20.745  42.404  14.307
93555W        W65980   9.999  37.062  13.539
93556W        W65981  39.619  30.973   1.242
93557W        W65982  13.150  19.894  12.038
93558W        W65983  34.808  11.425  12.406
93559W        W65984  35.521  35.604   1.429
93560W        W65985  44.944  29.672  10.789
93561W        W65986  35.075  38.292  10.750
93562W        W65987  13.785  17.197   4.560
93563W        W65988  12.084  38.179   1.985
93564W        W65989  20.518  41.923  14.353
93565W        W65990  34.576  36.025  12.430
93566W        W65991  19.603   0.911   3.156
93567W        W65992  40.314   6.864  11.958
93568W        W65993  37.363  17.215   0.923
93569W        W65994  24.975  39.814  14.322
93570W        W65995  28.405  15.560  11.601
93571W        W65996  18.689   7.749  10.706
93572W        W65997  33.554  43.743  14.286
93573W        W65998  36.094  35.953  10.617
93574W        W65999  35.496  24.732  10.934
93575W        W66000   9.490  35.877  10.991
93576W        W66001  25.032   8.814   4.636
93577W        W66002  44.325   2.038   4.961
93578W        W66003   5.025  30.141  14.910
93579W        W66004  40.405  31.599  12.502
93580W        W66005  44.325  33.365   4.541
93581W        W66006  39.436  24.265   0.424
93582W        W66007  10.400  22.474  12.082
93583W        W66008  29.360  16.302   1.455
93584W        W66009  36.566  10.127  10.279
93585W        W66010  24.566  11.449  13.012
93586W        W66011  21.239  40.049   4.952
93587W        W66012  41.406   7.792   3.215
93588W        W66013  35.559  20.355   2.841
93589W        W66014   7.960  22.140  14.989
93590W        W66015  31.007  32.524  11.238
93591W        W66016  28.393   2.702  11.424
93592W        W66017   2.921  33.211  10.674
93593W        W66018  40.942  17.558  14.953
93594W        W66019  26.092  21.736  12.881
93595W        W66020   3.736   8.333  11.016
93596W        W66021   5.761  31.071   3.585
93597W        W66022  30.568   5.716  14.486
93598W        W66023   8.289   8.065   2.757
93599W        W66024  31.602  23.195  10.927
93600W        W66025  25.207  15.515   0.087
93601W        W66026   9.715  33.562   3.643
93602W        W66027  22.027  24.151   2.305
93603W        W66028  43.547  35.598   3.625
93604W        W66029   8.559  35.613  14.406
93605W        W66030   9.471  36.652  12.892
93606W        W66031  17.495  13.154  13.377
93607W        W66032  33.313  37.201   2.698
93608W        W66033  44.522  25.253   0.045
93609W        W66034  31.519  24.161  14.760
93610W        W66035  14.998  18.988   1.958
93611W        W66036  26.480  32.135   3.235
93612W        W66037  38.555  39.344  12.909
93613W        W66038  38.562  44.824  11.556
93614W        W66039   2.789  20.361  12.140
93615W        W66040  43.780   4.691   3.599
93616W        W66041  33.015  12.130   0.008
93617W        W66042  33.357  27.611  13.960
93618W        W66043  35.419   3.763  12.908
93619W        W66044   9.717   7.424   2.245
93620W        W66045  19.156  16.625  12.131
93621W        W66046  24.793  21.225   4.166
93622W        W66047  20.055  12.836   4.644
93623W        W66048  34.564  44.019  13.372
93624W        W66049  14.256  28.806  11.999
93625W        W66050  30.472  28.913  12.113
93626W        W66051  28.560   7.113   2.294
93627W        W66052   4.805  27.033   3.322
93628W        W66053   6.895  10.075   0.709
93629W        W66054  39.674  15.078   3.250
93630W        W66055  37.468  13.066  13.964
93631W        W66056  39.947  16.696   1.717
93632W        W66057   9.245  22.659  12.789
93633W        W66058   8.183  19.726  13.783
93634W        W66059  38.847   5.973   1.424
93635W        W66060   9.433  24.482   2.722
93636W        W66061   1.679  36.362  13.227
93637W        W66062  33.925  15.616   0.277
93638W        W66063  19.580   3.453  14.461
93639W        W66064  29.227  28.004  12.961
93640W        W66065  31.810  20.219   1.489
93641W        W66066   7.256   8.528  11.041
93642W        W66067  40.913   6.682  12.948
93643W        W66068  40.881  18.062  13.995
93644W        W66069  25.521  31.869  11.660
93645W        W66070  17.324  25.946   3.235
93646W        W66071  10.990  19.567   1.928
93647W        W66072   6.288  38.908   0.429
93648W        W66073  25.160  30.121   3.640
93649W        W66074  42.542  40.909   3.565
93650W        W66075   0.287  37.689   0.085
93651W        W66076  27.244   9.559   1.856
93652W        W66077  18.529  20.777   4.856
93653W        W66078  26.850  29.357   4.302
93654W        W66079  38.146  15.874  14.972
93655W        W66080  28.883   4.209  14.825
93656W        W66081   6.247  17.913  12.154
93657W        W66082  26.426  23.486   2.322
93658W        W66083  22.870  23.826   4.280
93659W        W66084  13.850  30.129   1.480
93660W        W66085  12.250  24.710   1.501
93661W        W66086  44.031  41.363  13.781
93662W        W66087  30.818  12.066   0.560
93663W        W66088  41.097  43.120  12.563
93664W        W66089  28.938  19.621  13.382
93665W        W66090  29.935  37.566  14.928
93666W        W66091   4.674  15.056   1.305
93667W        W66092  36.356  15.326   4.642
93668W        W66093  23.507  22.654  13.590
93669W        W66094  24.571  19.815  13.937
93670W        W66095  30.125  10.116   1.198
93671W        W66096  15.691   1.411   2.352
93672W        W66097  12.451  25.040   4.206
93673W        W66098  33.904  30.478   2.898
93674W        W66099  19.725  11.387   3.411
93675W        W66100  24.780  10.890   1.490
93676W        W66101   4.351   5.673   3.381
93677W        W66102  18.229  31.576  10.184
93678W        W66103  27.484  31.733  11.461
93679W        W66104  44.869   0.314   4.558
93680W        W66105  20.711  15.496   1.432
93681W        W66106  16.897  12.045   3.964
93682W        W66107  36.426   6.602  11.963
93683W        W66108  19.998  26.904  14.024
93684W        W66109  10.743  14.768   4.562
93685W        W66110  16.709   2.978  10.954
93686W        W66111  20.074   7.727  12.370
93687W        W66112  26.549  32.352  10.365
93688W        W66113  17.396  16.792   3.179
93689W        W66114  38.504  11.243   4.277
93690W        W66115  42.400  14.776   2.749
93691W        W66116  10.030  22.569  14.535
93692W        W66117   1.008  41.105   2.636
93693W        W66118  10.179  25.167   1.193
93694W        W66119  16.311  20.795   3.772
93695W        W66120  11.289   5.483  14.797
93696W        W66121  23.316   7.089   4.339
93697W        W66122  37.356  30.246  11.587
93698W        W66123  34.113  40.727  14.012
93699W        W66124  37.230  15.777   1.890
93700W        W66125   5.155  44.011   2.733
93701W        W66126  18.696  22.257   5.011
93702W        W66127  18.630  28.901  12.610
93703W        W66128  20.244  11.337  14.915
93704W        W66129  42.757  40.900   3.057
93705W        W66130   9.084  21.459  11.499
93706W        W66131   0.489  17.264  12.568
93707W        W66132  39.984   2.761   4.685
93708W        W66133  17.778  18.908   3.135
93709W        W66134  23.606   3.968   1.275
93710W        W66135  26.707  23.326  12.669
93711W        W66136  32.429   1.824   0.735
93712W        W66137  19.678  27.584  14.945
93713W        W66138  39.444   5.242   3.601
93714W        W66139   2.339  26.790  13.870
93715W        W66140   6.640  32.726  11.507
93716W        W66141  12.677   1.954  14.536
93717W        W66142  26.936  27.130   2.163
93718W        W66143  34.424  41.554   0.655
93719W        W66144  34.114  37.931  13.793
93720W        W66145  37.625  44.950   0.691
93721W        W66146  22.467  26.979  13.713
93722W        W66147  11.098  11.629   3.660
93723W        W66148  17.008  38.967   2.804
93724W        W66149  31.589  27.105   2.294
93725W        W66150  23.303  38.545   4.106
93726W        W66151  15.728  12.254  10.672
93727W        W66152  25.269  33.393   4.263
93728W        W66153  39.532  31.662  12.184
93729W        W66154  24.291  13.356  13.926
93730W        W66155  40.736  44.631   1.902
93731W        W66156   2.393  38.434   0.237
93732W        W66157  11.704  17.785   2.118
93733W        W66158  17.589  23.738   2.377
93734W        W66159  23.543  35.953  11.906
93735W        W66160  21.223  14.648   3.731
93736W        W66161   1.844   9.877  13.404
93737W        W66162  11.212  25.448  14.904
93738W        W66163  18.067  36.835   3.236
93739W        W66164  32.659  44.779   3.210
93740W        W66165  23.178  38.291  11.489
93741W        W66166  22.985  29.692  11.528
93742W        W66167  30.150   8.300   3.151
93743W        W66168  30.669  23.264   1.278
93744W        W66169  34.348  38.559   0.374
93745W        W66170  24.308  34.008   2.270
93746W        W66171  28.238   5.697  12.008
93747W        W66172   0.202  10.981   0.192
93748W        W66173  27.154  20.943  13.038
93749W        W66174  31.580  34.700   2.363
93750W        W66175  29.583  32.624  13.327
93751W        W66176   9.802  13.739   1.210
93752W        W66177  32.962   5.413   4.005
93753W        W66178  29.728  15.702   3.701
93754W        W66179  31.050  19.673  10.098
93755W        W66180  31.300  28.411   0.069
93756W        W66181  13.401  37.893   3.305
93757W        W66182  22.668  41.798   4.246
93758W        W66183  20.987  16.032   3.574
93759W        W66184  43.283  38.259  10.724
93760W        W66185  18.160  39.613  14.954
93761W        W66186  33.567   0.517   3.876
93762W        W66187  17.358  29.604  10.736
93763W        W66188  31.481  32.360  12.459
93764W        W66189   4.946  38.869  13.464
93765W        W66190  39.433   4.361  12.051
93766W        W66191  33.419   2.861  12.827
93767W        W66192  16.234  44.576  11.148
93768W        W66193  22.631   3.992  13.463
93769W        W66194  38.530  28.407   3.798
93770W        W66195  14.811  15.841  13.704
93771W        W66196  37.711  13.215  14.876
93772W        W66197  20.652  28.716  12.920
93773W        W66198  44.451   9.936  11.094
93774W        W66199  23.033  13.178   3.135
93775W        W66200  41.293  23.677   4.362
93776W        W66201  34.043  40.859  12.621
93777W        W66202   2.892  39.538   0.044
93778W        W66203  13.607  23.308  11.707
93779W        W66204  36.365   2.271  13.954
93780W        W66205  21.116   0.058  11.093
93781W        W66206  10.198   6.327   5.077
93782W        W66207  16.550  34.754   4.236
93783W        W66208  34.803  22.612   2.781
93784W        W66209   3.866  14.447  10.910
93785W        W66210  35.440  15.749  10.516
93786W        W66211  28.213   4.228  12.973
93787W        W66212  11.579  13.286   3.681
93788W        W66213  36.124  24.808   3.656
93789W        W66214   1.797  40.796  14.465
93790W        W66215  12.593  38.929   1.354
93791W        W66216   9.349   5.805  10.243
93792W        W66217   0.222  37.413   3.878
93793W        W66218   9.546   6.287  10.233
93794W        W66219  19.169  19.489   3.155
93795W        W66220  33.062   3.893  13.898
93796W        W66221  14.688  21.208  10.311
93797W        W66222  20.488  13.636  11.685
93798W        W66223  22.261   7.348   2.934
93799W        W66224  19.521   0.533  14.126
93800W        W66225  25.544  38.537   0.670
93801W        W66226   3.793  26.666  14.068
93802W        W66227  39.326  15.611   1.711
93803W        W66228  31.896  17.747   2.376
93804W        W66229  29.405   2.026  10.821
93805W        W66230   9.145   9.225  12.055
93806W        W66231   0.069   5.011   1.367
93807W        W66232   5.374  31.357  14.461
93808W        W66233   8.351  37.498   4.056
93809W        W66234  18.592  38.579   0.343
93810W        W66235  43.581  23.572   3.423
93811W        W66236   4.297  11.846  10.425
93812W        W66237   4.359  12.231   3.062
93813W        W66238  17.537  27.723   1.054
93814W        W66239  34.397  11.705  11.081
93815W        W66240  20.151  22.489  14.796
93816W        W66241  34.726  14.462  12.937
93817W        W66242  27.496  15.877  11.959
93818W        W66243  42.450   5.676  14.459
93819W        W66244   1.676  12.218  12.553
93820W        W66245  38.117  30.632  10.532
93821W        W66246  25.149  31.864   2.216
93822W        W66247  17.474  24.801  10.187
93823W        W66248  35.538   9.800  10.621
93824W        W66249  27.496  12.204  11.155
93825W        W66250  39.829  41.896  10.170
93826W        W66251  36.642  14.153  13.836
93827W        W66252  32.068   4.939   2.836
93828W        W66253  19.302  32.670   2.797
93829W        W66254  10.659  10.430  12.413
93830W        W66255   7.012  12.173  12.916
93831W        W66256  23.050  11.766   4.988
93832W        W66257  19.843  20.418   0.417
93833W        W66258  33.472  44.749  14.035
93834W        W66259  17.463  37.426   3.620
93835W        W66260  20.583  32.520  13.599
93836W        W66261  27.141  18.603   1.222
93837W        W66262  29.977  15.356   3.284
93838W        W66263   3.306  22.580  12.535
93839W        W66264  25.080  38.627   0.923
93840W        W66265  29.708  24.037  11.549
93841W        W66266  41.848   5.314   1.142
93842W        W66267  20.531   5.470   4.264
93843W        W66268  13.143  11.757   2.154
93844W        W66269  23.559  40.950   0.469
93845W        W66270  22.332  41.076  11.488
93846W        W66271  13.748  17.564  11.437
93847W        W66272  35.019  44.557   1.956
93848W        W66273   7.322   9.807   0.752
93849W        W66274  25.782  39.028   3.062
93850W        W66275   6.389  18.827   2.660
93851W        W66276  20.057   8.620   2.815
93852W        W66277   2.348  38.983  13.189
93853W        W66278  15.434  39.565  14.736
93854W        W66279  44.341  30.703  11.639
93855W        W66280  27.522  36.635  14.009
93856W        W66281  15.001  18.399   2.949
93857W        W66282  11.160  38.448   0.634
93858W        W66283  37.076  23.677   3.206
93859W        W66284  18.595  43.819   0.242
93860W        W66285   0.943  10.279   3.710
93861W        W66286  26.193  36.005   4.217
93862W        W66287  36.523   5.700   2.353
93863W        W66288  17.201  35.976   0.814
93864W        W66289  14.133  24.176   5.369
93865W        W66290  16.734  18.163  11.795
93866W        W66291  13.085  27.669   1.927
93867W        W66292  16.308  18.040  10.960
93868W        W66293  19.098   7.726  11.627
93869W        W66294  37.161  20.275  11.898
93870W        W66295   3.775  25.461  14.404
93871W        W66296  18.615  14.548   0.896
93872W        W66297  16.600  41.559   3.103
93873W        W66298  30.203  31.023   9.999
93874W        W66299  11.435   4.671   1.971
93875W        W66300  25.464  20.467   1.350
93876W        W66301  32.306  28.965   0.961
93877W        W66302  13.394  25.562   3.853
93878W        W66303  42.146  41.792   4.641
93879W        W66304  20.019  25.974  14.322
93880W        W66305  13.118  44.305  13.930
93881W        W66306   5.924  40.455   9.830
93882W        W66307   3.409   1.436  10.887
93883W        W66308  16.144  22.031   2.276
93884W        W66309  43.825  40.580  10.356
93885W        W66310  10.223  36.256   1.873
93886W        W66311  25.585   2.217   0.339
93887W        W66312  32.068  14.882  12.982
93888W        W66313   4.162  42.072  12.104
93889W        W66314  27.693  25.669  14.578
93890W        W66315  36.621  28.817  10.750
93891W        W66316  22.969   7.405   3.437
93892W        W66317  10.249  25.138   0.688
93893W        W66318  38.527  37.368  14.871
93894W        W66319  13.788  14.617   3.382
93895W        W66320  39.593  16.010   1.910
93896W        W66321  36.044  16.083   3.291
93897W        W66322  41.891  24.344   0.805
93898W        W66323   3.463  31.190  12.961
93899W        W66324   7.678  16.797   0.769
93900W        W66325   6.399  29.716  12.903
93901W        W66326  14.913  34.073   0.869
93902W        W66327  42.839   3.456  11.499
93903W        W66328  17.524  34.805  13.097
93904W        W66329  13.459  23.775   0.429
93905W        W66330  30.050  39.116   2.122
93906W        W66331  44.501  16.050  11.343
93907W        W66332   7.601  17.631  14.966
93908W        W66333  19.370  31.957   2.242
93909W        W66334  28.235  15.623  14.495
93910W        W66335   0.773   5.792  11.058
93911W        W66336  10.757  20.267   1.414
93912W        W66337  35.364   2.800   4.437
93913W        W66338  21.843   5.728  14.574
93914W        W66339  25.301   7.845  13.996
93915W        W66340  16.334   6.067   0.182
93916W        W66341  35.874  35.370   3.799
93917W        W66342  29.211  16.095  13.299
93918W        W66343  35.003  19.374  14.239
93919W        W66344  38.480  34.765   1.869
93920W        W66345  33.136  10.802   1.249
93921W        W66346  26.651  11.810   1.655
93922W        W66347   4.375  24.903   4.187
93923W        W66348   4.830  33.103  14.767
93924W        W66349  15.125  27.675  13.610
93925W        W66350  24.199  15.305  11.051
93926W        W66351  42.928  14.579   1.256
93927W        W66352  31.097  26.919   3.279
93928W        W66353   2.533  41.172  12.535
93929W        W66354  12.236  21.786  12.033
93930W        W66355  26.518   2.040  12.971
93931W        W66356   6.757  33.128   2.710
93932W        W66357  38.079   3.522   2.855
93933W        W66358  18.780   3.718  11.593
93934W        W66359  43.306  31.921   1.440
93935W        W66360  41.406  44.277  13.353
93936W        W66361  18.153  14.154  12.158
93937W        W66362  16.248  25.958  14.928
93938W        W66363   6.300  31.274   3.415
93939W        W66364   6.249   3.794   0.360
93940W        W66365  19.195  41.298   3.601
93941W        W66366  12.749  41.121   0.490
93942W        W66367  16.039  27.694   3.253
93943W        W66368   7.655  30.201   0.801
93944W        W66369  18.933  15.329  14.899
93945W        W66370  34.002  38.541  10.875
93946W        W66371  27.950   2.948  12.773
93947W        W66372  14.074   9.362  11.537
93948W        W66373  35.470  23.149  10.239
93949W        W66374  13.502   2.892   2.245
93950W        W66375   0.459  13.898   1.674
93951W        W66376  37.172   0.413  10.035
93952W        W66377   8.609  31.114   3.661
93953W        W66378   8.777  15.601   0.380
93954W        W66379  39.349  38.953   1.837
93955W        W66380  28.293  28.141  12.831
93956W        W66381  18.146   4.144  11.074
93957W        W66382  39.311  11.597  14.429
93958W        W66383  15.134  24.002  11.622
93959W        W66384  35.027  13.709   0.311
93960W        W66385  14.421  30.118  11.914
93961W        W66386  24.255  26.670   4.205
93962W        W66387  17.296  18.813  12.084
93963W        W66388   4.308  28.427  14.943
93964W        W66389  34.979  20.866  13.546
93965W        W66390  36.493  24.194   1.461
93966W        W66391  20.032  32.329   9.750
93967W        W66392   4.390  13.277  13.880
93968W        W66393  41.354  20.901   4.675
93969W        W66394  20.086  37.627   0.741
93970W        W66395   2.183  12.649   1.020
93971W        W66396  17.157  20.696   2.110
93972W        W66397  22.292   3.280  13.824
93973W        W66398   3.695  25.981  14.300
93974W        W66399  31.374  41.854   2.125
93975W        W66400   8.353  16.296   2.841
93976W        W66401  38.057  34.460   2.389
93977W        W66402  11.304  42.746   1.277
93978W        W66403  40.786  34.884   4.237
93979W        W66404  34.298  16.082  11.791
93980W        W66405  35.597   3.338  12.066
93981W        W66406   5.710  38.361  14.368
93982W        W66407  13.662   6.217  11.145
93983W        W66408  36.780  32.939  11.679
93984W        W66409  28.712  17.258  12.248
93985W        W66410   9.996   2.806  11.576
93986W        W66411   8.445  41.511   4.187
93987W        W66412  36.784   0.902  11.705
93988W        W66413  11.301   7.229   9.725
93989W        W66414  35.570  29.116  12.867
93990W        W66415  13.619  20.662   2.408
93991W        W66416  27.484  39.490   3.456
93992W        W66417  35.091  35.881  12.982
93993W        W66418  24.126  44.724   4.184
93994W        W66419  34.318  10.264  12.091
93995W        W66420  33.295  21.106  11.578
93996W        W66421   8.104   6.246   1.606
93997W        W66422  25.187  32.142   0.763
93998W        W66423  24.344  10.486   5.033
93999W        W66424  26.855  24.648  14.362
94000W        W66425  28.631  23.503   3.942
94001W        W66426   4.943  12.361   3.118
94002W        W66427  10.473  11.570  12.997
94003W        W66428  39.026  30.716   2.894
94004W        W66429  15.737  27.453  12.740
94005W        W66430  34.148   0.968   1.777
94006W        W66431   6.916  40.743   2.973
94007W        W66432   6.776  38.549   4.046
94008W        W66433  15.089  37.934   1.213
94009W        W66434  42.851  37.468   0.482
94010W        W66435  30.961  31.612  12.281
94011W        W66436  34.208  24.021   1.119
94012W        W66437   8.502  10.957   3.061
94013W        W66438   4.333  33.042  12.597
94014W        W66439  37.538  29.853  14.846
94015W        W66440  20.040  10.958  14.431
94016W        W66441  41.937  43.612   4.546
94017W        W66442  37.984  37.536  11.945
94018W        W66443  42.980  11.439  11.704
94019W        W66444  21.818  10.228  12.397
94020W        W66445  19.954  40.859   1.897
94021W        W66446   0.369  23.742   2.643
94022W        W66447  42.421  34.123   3.284
94023W        W66448   9.422  20.578  14.914
94024W        W66449  31.052  44.438  13.377
94025W        W66450  14.745  13.864   4.671
94026W        W66451  39.279  13.766  14.200
94027W        W66452   1.753   6.890  12.099
94028W        W66453  42.581  23.842  11.532
94029W        W66454  27.586   8.821  11.464
94030W        W66455  37.313  19.740   1.112
94031W        W66456  26.393  29.515   0.508
94032W        W66457  27.782  11.241  11.495
94033W        W66458   6.226  13.626  12.539
94034W        W66459   3.366   2.978   4.192
94035W        W66460   1.730  23.654  13.011
94036W        W66461  10.366  27.223  12.400
94037W        W66462  39.499   0.368   2.165
94038W        W66463  30.307   9.654  11.723
94039W        W66464   7.862  15.804   3.859
94040W        W66465  43.542   5.370   2.087
94041W        W66466  13.203  39.079   3.392
94042W        W66467  14.335  13.728  10.838
94043W        W66468  27.015  20.512   1.344
94044W        W66469  44.511  17.644   2.950
94045W        W66470  39.495  37.857  12.998
94046W        W66471  29.144   2.308  11.740
94047W        W66472  12.531  35.493  14.430
94048W        W66473  23.157  16.559  11.151
94049W        W66474   3.718  33.507   3.687
94050W        W66475  11.373  20.698  11.165
94051W        W66476  22.247  13.040   0.864
94052W        W66477  17.079  22.935  11.948
94053W        W66478  28.931  23.544  11.623
94054W        W66479  26.957  12.313  13.071
94055W        W66480   3.855  29.698  14.602
94056W        W66481  27.176  30.876   0.408
94057W        W66482  41.218  39.529  13.329
94058W        W66483  44.840  37.506  13.400
94059W        W66484  44.057   8.459  10.589
94060W        W66485  29.328  16.538  14.520
94061W        W66486  32.929   2.510   4.570
94062W        W66487  39.477  38.553   0.279
94063W        W66488  16.777  36.646   0.777
94064W        W66489  12.818  16.152   2.378
94065W        W66490  17.215   5.870   3.438
94066W        W66491   9.165   9.646  12.885
94067W        W66492  11.593  13.174  14.372
94068W        W66493  20.636  10.605  10.658
94069W        W66494  24.517  26.745   0.805
94070W        W66495  29.567  13.290  10.642
94071W        W66496  14.475  32.992   4.744
94072W        W66497  30.468  40.817  14.030
94073W        W66498   5.664  24.653   1.257
94074W        W66499  32.947  29.700   2.956
94075W        W66500  34.462  19.161   2.663
94076W        W66501  33.654  40.475  13.324
94077W        W66502   9.356  17.009  12.403
94078W        W66503   4.746   2.239   0.313
94079W        W66504  21.510   8.631   0.821
94080W        W66505  41.249  32.572   1.779
94081W        W66506  38.798  25.276   5.453
94082W        W66507  23.229   9.624  13.109
94083W        W66508  18.801  17.403  13.856
94084W        W66509   2.214  21.251   0.989
94085W        W66510  24.113  16.201   0.351
94086W        W66511  25.360  41.779  14.334
94087W        W66512  26.992   3.174   1.266
94088W        W66513  22.023  14.029   3.357
94089W        W66514  17.135  30.915  14.736
94090W        W66515  38.811  17.140   3.107
94091W        W66516  44.437   5.918  11.502
94092W        W66517  25.610   5.920  13.864
94093W        W66518  10.199   0.226  11.121
94094W        W66519  33.688   8.815  11.140
94095W        W66520  15.715   7.288   4.065
94096W        W66521  30.699  33.941  12.604
94097W        W66522   0.358   6.408   1.785
94098W        W66523  26.576  39.288   3.243
94099W        W66524  21.689  29.023  14.498
94100W        W66525  19.552  21.504   4.052
94101W        W66526  12.688  10.397  10.592
94102W        W66527  34.562   9.894  11.820
94103W        W66528  37.062  27.168   2.374
94104W        W66529   4.707  36.629   0.300
94105W        W66530  35.903  37.601   1.826
94106W        W66531  38.342  31.382  11.619
94107W        W66532  17.792  22.932  13.809
94108W        W66533  21.752  42.847  14.954
94109W        W66534  16.539  13.590  12.071
94110W        W66535  42.265   9.237  11.136
94111W        W66536   5.901  18.093   2.853
94112W        W66537   6.850   5.353  12.808
94113W        W66538  22.346  27.131   3.048
94114W        W66539  41.060   9.383   2.276
94115W        W66540  18.884  26.521   4.129
94116W        W66541  19.163  11.929   2.815
94117W        W66542  35.672  32.242   1.767
94118W        W66543  13.953  44.561  14.217
94119W        W66544   6.807  37.099   4.235
94120W        W66545   1.185   4.819   0.035
94121W        W66546   8.466  30.107   2.646
94122W        W66547  41.967  19.437  13.475
94123W        W66548  11.928   5.951  13.014
94124W        W66549   0.692  36.365   4.320
94125W        W66550  26.622  35.495   0.384
94126W        W66551  41.021  11.641  11.364
94127W        W66552  29.140   5.441  11.964
94128W        W66553  28.606  39.548   0.184
94129W        W66554  24.452  20.579   1.421
94130W        W66555  44.648  20.973   3.376
94131W        W66556  16.448  37.500  14.831
94132W        W66557  43.437   6.184   2.748
94133W        W66558  33.460  15.629   1.673
94134W        W66559  40.851   5.409  12.704
94135W        W66560  20.276  22.340   2.129
94136W        W66561  21.589  39.583   2.820
94137W        W66562  30.680  42.850  10.179
94138W        W66563   5.638  32.687  12.481
94139W        W66564  27.093  15.159   1.411
94140W        W66565   1.243  12.766   4.609
94141W        W66566   1.876  16.672  13.320
94142W        W66567   3.860  38.458  12.801
94143W        W66568  20.756   2.265   2.151
94144W        W66569  27.135  32.443  14.687
94145W        W66570  20.267  32.625   1.792
94146W        W66571  17.336  10.601  13.538
94147W        W66572  36.382  13.155  12.517
94148W        W66573  16.330   1.932  13.088
94149W        W66574  39.114  28.165   1.120
94150W        W66575   6.153  26.059  14.366
94151W        W66576  43.767   5.423   4.778
94152W        W66577  42.375  36.368   0.398
94153W        W66578  19.049  43.366   4.613
94154W        W66579   9.700  25.571   4.084
94155W        W66580  32.979  35.580   0.605
94156W        W66581  10.890  10.102  10.976
94157W        W66582  21.724   4.872  11.233
94158W        W66583  26.461  10.117   2.230
94159W        W66584   3.851  15.146   0.175
94160W        W66585  13.411  12.411  12.426
94161W        W66586  40.352  27.231   3.750
94162W        W66587   5.647  12.919   2.518
94163W        W66588  41.517  17.678  10.817
94164W        W66589  34.367   3.943   3.279
94165W        W66590  35.109  34.016   4.128
94166W        W66591  38.328  40.808  13.739
94167W        W66592  14.159  25.461  11.371
94168W        W66593  41.270  27.716   4.103
94169W        W66594  42.870   5.957  13.746
94170W        W66595   9.112  23.793   3.761
94171W        W66596  34.466  18.650  14.758
94172W        W66597  42.044   1.512  11.199
94173W        W66598  40.492  32.954  11.444
94174W        W66599  30.944  36.896   2.691
94175W        W66600  44.213  16.755   3.960
94176W        W66601  23.901  23.490   2.355
94177W        W66602  16.104  14.133  14.921
94178W        W66603   7.432  34.475  13.849
94179W        W66604  32.987  10.383   1.850
94180W        W66605  41.233   3.288   0.710
94181W        W66606  13.744  14.903   0.438
94182W        W66607   7.806  32.373   2.300
94183W        W66608  20.727   5.460   0.116
94184W        W66609  18.293  32.992   2.775
94185W        W66610  16.086  42.847   0.527
94186W        W66611  14.433  44.889  13.491
94187W        W66612  29.961   3.810   2.612
94188W        W66613   4.817   0.750  13.469
94189W        W66614   5.796   2.757  11.499
94190W        W66615  22.854   0.091  11.253
94191W        W66616  18.105  38.470  11.189
94192W        W66617  32.933  18.147   1.491
94193W        W66618  15.196  30.614  13.959
94194W        W66619  43.140  29.663   2.609
94195W        W66620  37.219  13.082  14.819
94196W        W66621  33.367  38.340  13.939
94197W        W66622  43.241  21.534   3.656
94198W        W66623  20.192   8.732  14.441
94199W        W66624   1.728  24.755   3.543
94200W        W66625  12.816  42.894  12.968
94201W        W66626   0.362  15.332   2.240
94202W        W66627  23.420   1.238  14.569
94203W        W66628  28.156  11.263  14.093
94204W        W66629  14.315  21.268  13.967
94205W        W66630  33.846  35.113   4.260
94206W        W66631  26.627  37.159  12.014
94207W        W66632  22.714  19.017  14.786
94208W        W66633  15.410  30.136  12.133
94209W        W66634  15.263  37.253  12.149
94210W        W66635   1.869  36.109   2.657
94211W        W66636  11.164  28.603   2.040
94212W        W66637  29.224  44.476   2.996
94213W        W66638   7.710  29.728   3.124
94214W        W66639  27.093  11.474  14.673
94215W        W66640  37.823  22.556  14.553
94216W        W66641  29.101  14.571  12.488
94217W        W66642  25.379  44.504  11.152
94218W        W66643  36.163  42.748  14.406
94219W        W66644   9.737   1.166   0.417
94220W        W66645  36.787  33.547  13.853
94221W        W66646   2.853  21.462  14.953
94222W        W66647  21.835  42.739  12.727
94223W        W66648  41.279   2.985  13.479
94224W        W66649  18.630  27.045   3.828
94225W        W66650  19.723  19.059   1.998
94226W        W66651  30.690   9.254   0.268
94227W        W66652  10.837  35.385  10.780
94228W        W66653  37.532   0.972   4.053
94229W        W66654   8.036  41.561  12.570
94230W        W66655  26.887  29.457   0.355
94231W        W66656  29.616  40.083  13.840
94232W        W66657  38.483  22.222  14.162
94233W        W66658  13.919  34.512   4.232
94234W        W66659  33.071  24.568   3.759
94235W        W66660  20.327   8.450   2.380
94236W        W66661   0.604   2.909   4.734
94237W        W66662  15.199   4.256   4.593
94238W        W66663  44.483   8.096  12.998
94239W        W66664  30.645  27.556   4.634
94240W        W66665  19.586  33.582  11.618
94241W        W66666   8.118  22.212   0.600
94242W        W66667  13.743   9.069   4.074
94243W        W66668  22.640  21.243  11.436
94244W        W66669  40.432  28.980  13.999
94245W        W66670   6.381  36.392  13.412
94246W        W66671  19.178   2.355   0.375
94247W        W66672   1.901  19.775  13.940
94248W        W66673  25.582  40.893  14.369
94249W        W66674  38.526   6.239  12.352
94250W        W66675  44.661  22.401  10.203
94251W        W66676   1.805  11.673   2.415
94252W        W66677  25.355  42.949   0.107
94253W        W66678  13.701  21.598  14.711
94254W        W66679  34.713  42.787   9.771
94255W        W66680  43.980  39.339   3.720
94256W        W66681  16.934  30.968  11.506
94257W        W66682  29.879  24.136  12.511
94258W        W66683  29.967  28.055   1.528
94259W        W66684  10.768   5.346   2.018
94260W        W66685  15.306  12.404  13.316
94261W        W66686  34.894  44.446   4.942
94262W        W66687  12.353  14.573   5.097
94263W        W66688  22.007  23.245  13.780
94264W        W66689   0.791  18.590  11.502
94265W        W66690  34.252   3.941  11.990
94266W        W66691  10.344  17.260  13.750
94267W        W66692  40.859  29.586   4.853
94268W        W66693  34.019  25.773  11.634
94269W        W66694  18.176  11.163   0.761
94270W        W66695  17.690  25.969  10.964
94271W        W66696   4.079  28.517  11.618
94272W        W66697  12.186   8.616  13.107
94273W        W66698  12.809  40.238  13.348
94274W        W66699  35.602  14.773  11.642
94275W        W66700  17.994  29.212   0.017
94276W        W66701  10.162  36.018   3.813
94277W        W66702  16.735  13.702  14.559
94278W        W66703  39.339  11.289   4.522
94279W        W66704  16.526   1.860   9.858
94280W        W66705  10.086   8.147  11.530
94281W        W66706  35.611  25.112  12.953
94282W        W66707  20.590  44.461   2.943
94283W        W66708  32.195   1.746  14.043
94284W        W66709   4.426   2.402  12.224
94285W        W66710  18.193  44.862  12.602
94286W        W66711  42.098  44.816   1.802
94287W        W66712  39.413  21.736  14.322
94288W        W66713  30.201  37.053   1.645
94289W        W66714   2.373  27.356  12.150
94290W        W66715  20.206   2.712   4.122
94291W        W66716  22.181  18.214   2.193
94292W        W66717  26.706  37.891  11.200
94293W        W66718  36.072  16.358  11.399
94294W        W66719  24.168  22.569   2.229
94295W        W66720   9.936  14.242  12.815
94296W        W66721  12.510  10.273  11.978
94297W        W66722  26.217   8.675  12.556
94298W        W66723  31.587  34.001  13.864
94299W        W66724   9.592  42.079   2.340
94300W        W66725  14.177  18.118   4.600
94301W        W66726   4.396  22.172   2.387
94302W        W66727  28.590  33.776  14.505
94303W        W66728  28.578  13.822   0.837
94304W        W66729   7.616  26.798   2.717
94305W        W66730  25.954  41.807   1.785
94306W        W66731  23.546  26.297  11.526
94307W        W66732  17.778  20.320  13.548
94308W        W66733  33.382  37.533  14.861
94309W        W66734  15.635  26.478   4.697
94310W        W66735  27.188  38.963   1.428
94311W        W66736  21.956  25.116   1.195
94312W        W66737   8.811  22.267  11.992
94313W        W66738   6.860   9.077   3.747
94314W        W66739   8.814  32.782  13.383
94315W        W66740  25.190  36.603  12.579
94316W        W66741  32.278  20.034   1.364
94317W        W66742  20.669  30.972  14.986
94318W        W66743  23.903  34.118  13.006
94319W        W66744  37.913  40.491  14.318
94320W        W66745  26.105  44.084   3.354
94321W        W66746   4.735  17.705   3.697
94322W        W66747  31.973   1.033   3.037
94323W        W66748  32.622  32.494  13.808
94324W        W66749   5.185  27.667   2.234
94325W        W66750  31.173  34.107  12.378
94326W        W66751  25.678  25.413   2.242
94327W        W66752   9.166  29.225  11.958
94328W        W66753  16.813  10.585  11.597
94329W        W66754  14.747  30.605   2.366
94330W        W66755   7.621  15.340   1.831
94331W        W66756  11.730   5.672   0.480
94332W        W66757  33.843  34.948   2.772
94333W        W66758  38.576  40.534   4.050
94334W        W66759  12.744  23.243   4.494
94335W        W66760  34.108  13.207  11.917
94336W        W66761  15.744  39.564   4.677
94337W        W66762  33.195  42.223   4.392
94338W        W66763  40.039  43.336  11.746
94339W        W66764  37.280  29.243   1.878
94340W        W66765  28.782  16.764  12.921
94341W        W66766   4.886  42.998  10.530
94342W        W66767  36.484  15.110   0.816
94343W        W66768  31.319  17.976   4.184
94344W        W66769  31.523  25.123  14.298
94345W        W66770  26.539  17.301   3.244
94346W        W66771  22.608  23.634   4.681
94347W        W66772  37.472  18.771   2.855
94348W        W66773  30.529  14.853  14.307
94349W        W66774  19.913  35.978  13.500
94350W        W66775  43.007  40.470  11.449
94351W        W66776  17.095  32.407   3.462
94352W        W66777   6.168  40.807   0.840
94353W        W66778   6.275  42.091  11.558
94354W        W66779  43.929  11.620  11.835
94355W        W66780  26.208  11.129   0.889
94356W        W66781  22.592  37.509   5.197
94357W        W66782  41.971  34.868   0.232
94358W        W66783  27.464  21.056   2.238
94359W        W66784   0.082  15.120   0.275
94360W        W66785  18.301  18.832   3.242
94361W        W66786   4.746  10.604   4.927
94362W        W66787  18.819  38.915   4.567
94363W        W66788   9.345  35.433   1.901
94364W        W66789  31.141  43.977   2.031
94365W        W66790  42.487  19.025   0.640
94366W        W66791  12.320  19.569  13.376
94367W        W66792  25.936  15.782   4.375
94368W        W66793  26.315  34.012  14.736
94369W        W66794   3.436  16.284   0.545
94370W        W66795  35.180  10.657  12.165
94371W        W66796  26.988  39.584  12.071
94372W        W66797   2.949  34.955  12.652
94373W        W66798  21.600  21.380  10.413
94374W        W66799  19.658  31.133  12.023
94375W        W66800  43.813  19.974   1.001
94376W        W66801  41.021  40.233   1.903
94377W        W66802  35.866   1.497  11.125
94378W        W66803  21.694  28.084  14.908
94379W        W66804   8.403  18.950  13.407
94380W        W66805  38.546  12.241  13.157
94381W        W66806  24.457  38.986   0.542
94382W        W66807  11.370  12.094  13.534
94383W        W66808  10.703  11.069   4.173
94384W        W66809  21.157  11.129   0.284
94385W        W66810   2.434  36.780   2.677
94386W        W66811  40.446  23.310   1.911
94387W        W66812  23.710   5.883  10.373
94388W        W66813  24.449   2.507   1.790
94389W        W66814  36.402  27.673  13.333
94390W        W66815   6.141  24.912  10.312
94391W        W66816  25.683   4.208   3.946
94392W        W66817  43.032   6.230   1.852
94393W        W66818  44.962  16.190   4.621
94394W        W66819  24.598   2.316   4.640
94395W        W66820  15.359  43.039  13.384
94396W        W66821  19.980  44.434   4.939
94397W        W66822  31.352  14.087  12.896
94398W        W66823  31.088   5.706  14.331
94399W        W66824  32.553   3.941   0.523
94400W        W66825   4.733  14.888  10.709
94401W        W66826  43.907   3.305  12.869
94402W        W66827  23.707  31.188  11.344
94403W        W66828   2.862  16.316   1.161
94404W        W66829  31.968  43.445  13.645
94405W        W66830  17.106  20.116  11.433
94406W        W66831  13.179  35.822  11.494
94407W        W66832  28.332  34.717   1.830
94408W        W66833  26.249  39.603  14.528
94409W        W66834  10.270  29.682  13.577
94410W        W66835   1.074  37.855   4.641
94411W        W66836  39.894  26.959  14.428
94412W        W66837   3.418  43.164   0.210
94413W        W66838  37.430  42.910   1.472
94414W        W66839  10.554  37.553   5.140
94415W        W66840  40.827  35.614  13.611
94416W        W66841  41.914  13.587   0.647
94417W        W66842   8.389  26.524   3.174
94418W        W66843  21.893   8.288  10.671
94419W        W66844  30.724  43.861  12.619
94420W        W66845   1.351  28.659   1.871
94421W        W66846  24.523  44.967  13.553
94422W        W66847   0.826  36.593  14.994
94423W        W66848  44.377  15.575   4.173
94424W        W66849  44.319  27.417  12.811
94425W        W66850  35.854  30.474   0.547
94426W        W66851  28.134  16.538  10.720
94427W        W66852  42.087  11.336  14.324
94428W        W66853  33.100  25.239  11.619
94429W        W66854  10.344  37.818   2.443
94430W        W66855  17.243   6.912   1.240
94431W        W66856  10.369  26.867   4.658
94432W        W66857  12.269   1.264  11.616
94433W        W66858   0.506  21.955  12.649
94434W        W66859  17.165  25.263  10.663
94435W        W66860   7.869  41.759  10.784
94436W        W66861   3.513  35.919   1.216
94437W        W66862  37.468  39.968  11.519
94438W        W66863  26.016  17.423  12.098
94439W        W66864   6.998   2.029  11.147
94440W        W66865  40.746   7.654  10.646
94441W        W66866  33.058  39.711  12.898
94442W        W66867  39.058  42.053   4.462
94443W        W66868  24.138  13.549  11.385
94444W        W66869  35.948  27.011  13.311
94445W        W66870  39.694  33.398  12.423
94446W        W66871  40.926  20.748  11.132
94447W        W66872  17.314  43.923   1.543
94448W        W66873   3.697  27.538   2.885
94449W        W66874  33.979  14.669   0.423
94450W        W66875  44.161  24.235   0.737
94451W        W66876  36.634   5.737  13.837
94452W        W66877  39.583  34.332   1.309
94453W        W66878  12.550  30.565   2.889
94454W        W66879   3.379  23.668   0.278
94455W        W66880  41.725   3.868  11.896
94456W        W66881  32.027   6.927   2.368
94457W        W66882  35.345  42.007  11.649
94458W        W66883  32.404  17.299  10.799
94459W        W66884  19.508  44.535  12.006
94460W        W66885  12.735  30.808  13.666
94461W        W66886  23.459  15.813   1.802
94462W        W66887  40.979   3.384  12.019
94463W        W66888  21.895  13.888   1.299
94464W        W66889  44.421  35.650  13.272
94465W        W66890  39.072  16.549   1.314
94466W        W66891  36.454  20.241   2.814
94467W        W66892  44.703  43.557  11.606
94468W        W66893   2.253  30.581  13.476
94469W        W66894  31.030   5.926  11.937
94470W        W66895  41.776  24.470  13.398
94471W        W66896   6.388  17.101  14.888
94472W        W66897   5.791  43.020  10.720
94473W        W66898  29.008  40.886   2.210
94474W        W66899  36.638   4.192   2.386
94475W        W66900  29.685  19.680  12.004
94476W        W66901  13.289  20.581  11.446
94477W        W66902  28.057  43.796   3.626
94478W        W66903  17.307  29.052   1.920
94479W        W66904   7.355   5.448   1.198
94480W        W66905   3.258  26.595  12.572
94481W        W66906   0.807  21.862   4.523
94482W        W66907   5.900  41.203  13.931
94483W        W66908  37.886   2.830  14.060
94484W        W66909  29.540   6.769  11.970
94485W        W66910  26.617  34.982  11.343
94486W        W66911  16.327  21.106  10.990
94487W        W66912  13.868  36.474  14.337
94488W        W66913   8.162   7.348  11.533
94489W        W66914  33.598  29.997   1.836
94490W        W66915  28.086  30.545   1.427
94491W        W66916  14.271  37.125   4.653
94492W        W66917   5.432  35.932  14.383
94493W        W66918  24.485  11.732  14.487
94494W        W66919  36.114  32.784  11.072
94495W        W66920   7.698  27.116   3.187
94496W        W66921  19.742  26.933   1.773
94497W        W66922  13.607   8.946   0.900
94498W        W66923  18.567  15.452  12.877
94499W        W66924   5.338   8.614  11.650
94500W        W66925  19.525  26.024   3.696
94501W        W66926  12.731  19.838   1.310
94502W        W66927  12.576  14.148  14.454
94503W        W66928  33.030  24.050   3.890
94504W        W66929  20.483  31.199  11.514
94505W        W66930   3.460   0.942   3.242
94506W        W66931  40.726  15.771  10.206
94507W        W66932  44.213  37.023  14.289
94508W        W66933  15.324  19.965  13.502
94509W        W66934  17.480  44.377   4.524
94510W        W66935  19.753  18.593  14.481
94511W        W66936  24.549  32.706  10.843
94512W        W66937  10.161  30.547  14.622
94513W        W66938  18.309   7.700   1.203
94514W        W66939  33.946  18.714   3.758
94515W        W66940   7.878  28.855  11.776
94516W        W66941   0.734   3.694   1.286
94517W        W66942  23.139   7.695  12.079
94518W        W66943  34.112  11.752  12.902
94519W        W66944  38.013   6.261   1.479
94520W        W66945   5.278  24.962   2.768
94521W        W66946  18.530   2.249   1.609
94522W        W66947  40.793  41.078   0.288
94523W        W66948  37.957  13.151  14.332
94524W        W66949  21.827  16.188  12.095
94525W        W66950  30.478  22.786   4.596
94526W        W66951  38.004  19.296   2.832
94527W        W66952  29.255  25.497  11.183
94528W        W66953   4.920  44.164  11.569
94529W        W66954  36.512  44.808   2.815
94530W        W66955   9.431   9.923   4.739
94531W        W66956  33.116  38.579   3.782
94532W        W66957   2.172   4.991  13.829
94533W        W66958  12.625   3.714  12.136
94534W        W66959   3.819  28.957  11.447
94535W        W66960   3.850  23.596  14.951
94536W        W66961  15.356  12.580   4.716
94537W        W66962  36.150  38.404  14.289
94538W        W66963   8.462  17.379   0.387
94539W        W66964  41.179   6.788  13.381
94540W        W66965  11.924  20.067   4.276
94541W        W66966  19.065   1.483   2.725
94542W        W66967   9.414   2.454   4.533
94543W        W66968  40.943   6.546   1.755
94544W        W66969  15.893   1.444   0.860
94545W        W66970   2.756  27.248   1.177
94546W        W66971   8.971   2.894   4.526
94547W        W66972  39.116  12.581   2.779
94548W        W66973  25.935   8.308   1.745
94549W        W66974   8.028  13.560  12.417
94550W        W66975  26.146  34.050   3.625
94551W        W66976   1.407  12.205   1.784
94552W        W66977  22.468  12.748  12.528
94553W        W66978   4.448  18.069  11.043
94554W        W66979  22.020  35.407  11.170
94555W        W66980  13.865  35.476  11.471
94556W        W66981  24.704  35.256   1.767
94557W        W66982  11.799  37.824  11.076
94558W        W66983   1.644  28.278  12.529
94559W        W66984  32.370  30.877   1.936
94560W        W66985  33.498  11.910   0.707
94561W        W66986  40.670  36.043   1.153
94562W        W66987  38.981  30.708   1.434
94563W        W66988  30.090  13.601  14.728
94564W        W66989  13.414  37.554  14.973
94565W        W66990  39.159   7.275  13.850
94566W        W66991   7.443   3.804   0.545
94567W        W66992  22.378  23.141   4.537
94568W        W66993  13.546  39.215  11.585
94569W        W66994   0.895  17.240  13.818
94570W        W66995  25.704  34.644   4.396
94571W        W66996  21.800  22.267  10.717
94572W        W66997  10.388   4.972  11.641
94573W        W66998  15.328  34.805  14.848
94574W        W66999  34.929  27.659   3.201
94575W        W67000  14.017  32.038   2.792
94576W        W67001  41.710  37.153  11.283
94577W        W67002  13.181  13.389   3.176
94578W        W67003  10.692   2.067  10.771
94579W        W67004  11.394  29.462  14.927
94580W        W67005  16.703  21.994   0.514
94581W        W67006  16.727  15.783   3.580
94582W        W67007  26.632   0.571  14.434
94583W        W67008  43.035  24.608  13.224
94584W        W67009  29.824  44.998   2.670
94585W        W67010  25.697  27.922   3.382
94586W        W67011  38.517   3.755  12.382
94587W        W67012  18.946  27.407  10.562
94588W        W67013  13.626  16.741   4.358
94589W        W67014  22.736  12.755   0.114
94590W        W67015  30.875  21.796  14.801
94591W        W67016  13.523   7.875  12.435
94592W        W67017  23.584  10.219   3.676
94593W        W67018  36.307  27.432   3.269
94594W        W67019  38.786  18.570   2.355
94595W        W67020  26.715  30.186   1.991
94596W        W67021   0.052  25.102  11.168
94597W        W67022  33.116   9.334  13.789
94598W        W67023   0.246  10.952  12.924
94599W        W67024  33.111  27.628   2.138
94600W        W67025  40.379  12.375   0.802
94601W        W67026  21.499  13.737  14.558
94602W        W67027  32.281  30.923  11.172
94603W        W67028  19.210   2.899  13.369
94604W        W67029   8.658  43.394   4.798
94605W        W67030  15.751  17.314   4.530
94606W        W67031  18.392  29.487  12.915
94607W        W67032   7.593   0.776   2.864
94608W        W67033   0.374   0.294  14.440
94609W        W67034   6.379  18.336   2.794
94610W        W67035  29.479   1.534  10.723
94611W        W67036  10.851  33.456   4.670
94612W        W67037  37.797  35.410   1.906
94613W        W67038  38.914   9.358   1.732
94614W        W67039  12.308   6.306  11.948
94615W        W67040   0.501  35.468   4.145
94616W        W67041  19.717  26.680   9.968
94617W        W67042  43.454  18.462   1.394
94618W        W67043  22.654  11.729   5.368
94619W        W67044  33.109  30.048   0.843
94620W        W67045  21.025  28.715  12.560
94621W        W67046  15.819  17.826   4.998
94622W        W67047  20.346   8.119  12.199
94623W        W67048   1.468   8.598  12.768
94624W        W67049  34.128  12.356  13.536
94625W        W67050   6.948   6.805  14.310
94626W        W67051  28.183  10.209  14.004
94627W        W67052  10.167   5.980   4.186
94628W        W67053  41.445  22.659   1.377
94629W        W67054  15.756  29.897  10.745
94630W        W67055   1.857  20.569  10.478
94631W        W67056  23.994  10.744   4.154
94632W        W67057  34.529  31.470  11.011
94633W        W67058  17.838  25.728  12.977
94634W        W67059  16.125  28.637   3.564
94635W        W67060  26.109  41.536   2.208
94636W        W67061  12.704   0.482   1.319
94637W        W67062  31.960  40.859  12.211
94638W        W67063  19.529  10.637   1.606
94639W        W67064   6.224  30.878   4.938
94640W        W67065  43.806   7.862   4.596
94641W        W67066   6.823  30.854   1.521
94642W        W67067  15.701  27.970   4.230
94643W        W67068  23.442  31.408  10.751
94644W        W67069  14.132  42.566  10.937
94645W        W67070   8.176   7.752   0.971
94646W        W67071  11.292  43.904   4.486
94647W        W67072   0.017  28.029   9.754
94648W        W67073  18.226  12.672   2.663
94649W        W67074   6.003   7.736  13.481
94650W        W67075  35.923  38.819   1.193
94651W        W67076  34.398   5.373  12.143
94652W        W67077  29.808  14.576   0.169
94653W        W67078  40.881  20.584   2.904
94654W        W67079   3.280  10.175   2.286
94655W        W67080  33.303  41.613  12.574
94656W        W67081   6.743  33.162   2.169
94657W        W67082  13.101  14.272  13.387
94658W        W67083  30.162  39.506   2.867
94659W        W67084   2.407  16.531  10.695
94660W        W67085  20.436  10.307   1.114
94661W        W67086  12.822  36.559   4.494
94662W        W67087  14.866   0.960   3.147
94663W        W67088  15.144  43.765  14.347
94664W        W67089   1.945  25.286  10.358
94665W        W67090  12.233  27.445   3.441
94666W        W67091  14.600  31.440   1.897
94667W        W67092  28.634  27.794   2.700
94668W        W67093  40.494  20.256  14.858
94669W        W67094  40.950   1.154  13.486
94670W        W67095  15.992   4.516   5.242
94671W        W67096  18.152  32.060   0.009
94672W        W67097   6.868  10.335  10.386
94673W        W67098  16.887  39.468  10.793
94674W        W67099   9.694   7.708   1.814
94675W        W67100  16.808  27.072   3.662
94676W        W67101  25.750  24.642   4.212
94677W        W67102   9.271   0.043   2.298
94678W        W67103  27.032  17.692  10.647
94679W        W67104   7.656  38.953   0.729
94680W        W67105   2.362  41.030  13.077
94681W        W67106   4.387  12.759  10.892
94682W        W67107  25.910   3.739   2.813
94683W        W67108  13.954  13.419  13.005
94684W        W67109  26.009  29.034  13.816
94685W        W67110  36.935  26.091  10.088
94686W        W67111  34.856  10.430   4.250
94687W        W67112  22.697  18.678  14.340
94688W        W67113  33.377  15.561   5.066
94689W        W67114  30.002  34.838   1.697
94690W        W67115  15.193   0.935   1.204
94691W        W67116  21.532   3.704  12.987
94692W        W67117  33.240   9.160  12.401
94693W        W67118  33.891  20.987   4.140
94694W        W67119   8.363  32.649   0.019
94695W        W67120  34.815  40.789  14.371
94696W        W67121   6.518  34.850  13.419
94697W        W67122  14.230  23.599  11.097
94698W        W67123   6.859  31.457   2.374
94699W        W67124   0.731   1.279  13.014
94700W        W67125  20.623  44.446   3.449
94701W        W67126  40.319  28.111  13.849
94702W        W67127  25.524  17.376  11.263
94703W        W67128  25.935  36.503  12.933
94704W        W67129  27.438  19.793   1.903
94705W        W67130  22.014   6.120  12.902
94706W        W67131  15.901  36.939   2.226
94707W        W67132  42.253  28.891  12.190
94708W        W67133   1.976  25.652   3.123
94709W        W67134  37.488  37.959   1.891
94710W        W67135   5.942   6.474   2.454
94711W        W67136  28.976  10.660   4.403
94712W        W67137  30.602  35.404  12.734
94713W        W67138  15.629  39.904  10.434
94714W        W67139  27.421  23.973  12.473
94715W        W67140  43.085   8.137   3.755
94716W        W67141  10.689  36.663   4.376
94717W        W67142  23.506  25.625  12.916
94718W        W67143  33.515   4.478   1.931
94719W        W67144   0.759   1.089  13.679
94720W        W67145  16.817  32.254   4.131
94721W        W67146  25.665  22.195  10.693
94722W        W67147  28.893  37.006  14.816
94723W        W67148   8.940   1.107  14.506
94724W        W67149  25.184  29.061   4.606
94725W        W67150  32.585  15.609   3.948
94726W        W67151  41.456  28.421  11.968
94727W        W67152  37.068  36.102  14.559
94728W        W67153  44.068   4.690  11.552
94729W        W67154  44.046  18.455  12.931
94730W        W67155   4.930  36.703  14.837
94731W        W67156  33.349  20.063  14.964
94732W        W67157  42.598  26.716   0.254
94733W        W67158   4.132  21.507  10.986
94734W        W67159  28.066  42.918   1.616
94735W        W67160  28.133  16.627   3.036
94736W        W67161   3.224  24.710  12.139
94737W        W67162  25.309  32.431  11.117
94738W        W67163  15.316   4.500   2.280
94739W        W67164  44.373  38.401   3.223
94740W        W67165   2.969  36.836   4.119
94741W        W67166  30.653  18.246   2.476
94742W        W67167   2.161  42.995   1.078
94743W        W67168  35.408  15.233  13.667
94744W        W67169  21.052  11.927  11.686
94745W        W67170  21.157  19.231   1.815
94746W        W67171  21.483   1.871   4.281
94747W        W67172  19.694  42.823   9.982
94748W        W67173  10.066  22.501  13.006
94749W        W67174  28.072  12.548   0.377
94750W        W67175   3.800  23.486   1.555
94751W        W67176  30.725  32.051  12.444
94752W        W67177   6.147  31.986  10.558
94753W        W67178  40.419  15.556  14.306
94754W        W67179   2.044   3.128   2.696
94755W        W67180   3.386  15.377  12.958
94756W        W67181  21.675  36.048   0.825
94757W        W67182  27.053  19.162   0.487
94758W        W67183  24.576  19.275  10.495
94759W        W67184  18.362  31.897   2.408
94760W        W67185  14.637  35.048  11.531
94761W        W67186  15.623  32.771   0.502
94762W        W67187  38.287  33.599  12.601
94763W        W67188  17.929  13.894   1.855
94764W        W67189  35.490  31.433  11.195
94765W        W67190  42.380   5.343   0.303
94766W        W67191  37.380  44.316   0.941
94767W        W67192  31.106  20.034   0.768
94768W        W67193  23.895   8.564   1.914
94769W        W67194  20.762  28.667   1.883
94770W        W67195   5.896  35.512  10.229
94771W        W67196  19.979  38.067  13.514
94772W        W67197  11.622  32.850   1.399
94773W        W67198   3.918  37.311  13.890
94774W        W67199   9.260  41.086  14.885
94775W        W67200  34.620   7.485  12.311
94776W        W67201  29.484  19.457  12.432
94777W        W67202  38.108  30.007  13.425
94778W        W67203  41.615  26.548  12.107
94779W        W67204  17.564   5.044   3.706
94780W        W67205  34.583   1.863  11.721
94781W        W67206  25.649  11.154  11.936
94782W        W67207  44.023   7.899  12.928
94783W        W67208  42.994  31.985   1.872
94784W        W67209  23.057  32.670  13.293
94785W        W67210   9.908  24.433  12.816
94786W        W67211  15.274   7.668   0.220
94787W        W67212  22.994  12.749  12.615
94788W        W67213  10.320   1.937   4.780
94789W        W67214  36.286  19.209   2.220
94790W        W67215  40.619  19.809   0.770
94791W        W67216  15.951  34.867  13.617
94792W        W67217  44.366  40.747  10.506
94793W        W67218  21.503   9.241   5.140
94794W        W67219   8.189   3.836   1.158
94795W        W67220  26.886  41.023  14.860
94796W        W67221   4.904   1.912   3.359
94797W        W67222  21.369   5.833  14.415
94798W        W67223  38.480  20.564   3.022
94799W        W67224  26.070   2.285   0.146
94800W        W67225  38.171  44.906   5.088
94801W        W67226   8.610  14.362  12.490
94802W        W67227   8.758  28.476  11.003
94803W        W67228  20.764  32.530   4.585
94804W        W67229  13.896  31.490  13.697
94805W        W67230   5.900  37.549  14.875
94806W        W67231  22.509  11.184   1.655
94807W        W67232  33.837  17.671   3.266
94808W        W67233  34.831  22.294   1.300
94809W        W67234  36.937  38.024   2.776
94810W        W67235  35.967  44.009   2.827
94811W        W67236   5.976   1.000   4.355
94812W        W67237  31.521  20.177   9.907
94813W        W67238  34.133   0.632  12.419
94814W        W67239  43.524   6.827  12.662
94815W        W67240  10.315  10.756   0.319
94816W        W67241  24.552  17.182  11.807
94817W        W67242   4.873  22.450   2.940
94818W        W67243   4.386  28.724  12.422
94819W        W67244  43.305  21.595  11.390
94820W        W67245  27.051  24.013  10.710
94821W        W67246  10.358   2.258   4.375
94822W        W67247  24.434   2.276  14.665
94823W        W67248   6.790  12.603   0.926
94824W        W67249   4.425  43.051   2.448
94825W        W67250  24.370  19.726   1.769
94826W        W67251  31.914  18.602   3.211
94827W        W67252  36.348  20.180   3.626
94828W        W67253   0.575   6.853   3.657
94829W        W67254   3.902  30.575  14.026
94830W        W67255  30.233  35.092  11.992
94831W        W67256  26.663  44.919  11.148
94832W        W67257  42.802  43.489  13.143
94833W        W67258  20.641  12.105  11.928
94834W        W67259  14.728  42.562  10.763
94835W        W67260  26.407  43.262  12.299
94836W        W67261  28.352  10.137   4.167
94837W        W67262   4.420  16.364  11.526
94838W        W67263  40.779  17.097  10.733
94839W        W67264   2.341  30.768  12.057
94840W        W67265  29.397  42.615  13.740
94841W        W67266   4.866  20.603  10.788
94842W        W67267  16.365  40.061   2.475
94843W        W67268  43.882  12.045  11.461
94844W        W67269  27.757   2.991  10.456
94845W        W67270  35.870  23.224   2.765
94846W        W67271  33.663   0.813   4.608
94847W        W67272  35.088  27.419  13.755
94848W        W67273  17.316  25.733  14.516
94849W        W67274  26.659  32.951   2.546
94850W        W67275  41.893  31.058   0.412
94851W        W67276  34.722  27.054   2.707
94852W        W67277  37.048   4.254   0.274
94853W        W67278  15.798  40.835   4.743
94854W        W67279  42.250  26.141   3.226
94855W        W67280  21.762  17.801  10.940
94856W        W67281  14.199  37.580   0.544
94857W        W67282  20.091  29.151  14.961
94858W        W67283  34.606   7.605   2.279
94859W        W67284  20.450  34.017   2.272
94860W        W67285  23.914  27.574  14.817
94861W        W67286  15.588  16.018   4.065
94862W        W67287  30.355   5.387   0.770
94863W        W67288   8.608  37.434   5.022
94864W        W67289   7.863  23.209   1.850
94865W        W67290  11.359   7.170  10.562
94866W        W67291  39.609   7.932  13.342
94867W        W67292  16.681  21.045   2.650
94868W        W67293  19.668  27.030   3.819
94869W        W67294  19.042  32.597   4.577
94870W        W67295   6.855  31.221   1.884
94871W        W67296  22.610  16.596  13.465
94872W        W67297  25.500  19.972   2.422
94873W        W67298  22.046  43.433   3.198
94874W        W67299  23.517  26.118   2.359
94875W        W67300  28.173  10.495  10.231
94876W        W67301  40.093  34.043   0.475
94877W        W67302  27.576  29.075   0.024
94878W        W67303   9.135  32.689  12.339
94879W        W67304  24.927  18.987   4.250
94880W        W67305  35.351   4.236   3.689
94881W        W67306  41.988  44.619   5.496
94882W        W67307  42.116   7.734   2.705
94883W        W67308  20.046  24.693  11.965
94884W        W67309   7.820  22.506   1.412
94885W        W67310  34.424  36.910  12.447
94886W        W67311  12.698  37.387   3.459
94887W        W67312   2.239  16.684  14.098
94888W        W67313   6.604  22.647  10.615
94889W        W67314  21.089  27.455   1.303
94890W        W67315  24.559  43.877   1.204
94891W        W67316  16.128  18.604   0.671
94892W        W67317   1.357  25.638  12.053
94893W        W67318   2.286  41.077   2.201
94894W        W67319  12.341   5.194  11.579
94895W        W67320  18.029  29.124  11.079
94896W        W67321  44.366   8.716  11.136
94897W        W67322  44.261   4.968  11.167
94898W        W67323  29.414  40.279   2.785
94899W        W67324  20.104   5.206  13.385
94900W        W67325   4.502  22.999   3.598
94901W        W67326  38.623  29.630   1.229
94902W        W67327  16.083   1.907   4.604
94903W        W67328  42.084  38.430  13.475
94904W        W67329  19.667   7.031  12.043
94905W        W67330  39.385  19.716   2.752
94906W        W67331  13.893  36.764  10.523
94907W        W67332   6.231  44.875  10.698
94908W        W67333  43.520  20.637  14.985
94909W        W67334  39.803  36.242  14.707
94910W        W67335  24.594  31.569   3.293
94911W        W67336  28.218  17.233   3.708
94912W        W67337  13.854  11.175   4.264
94913W        W67338  15.723   6.926   2.582
94914W        W67339  42.833  32.062  13.181
94915W        W67340  22.062  21.821   1.484
94916W        W67341  34.361  44.000   2.325
94917W        W67342  28.957  14.790  10.740
94918W        W67343  36.333  17.792  13.618
94919W        W67344  26.274   6.956  12.102
94920W        W67345  27.271  44.304   4.111
94921W        W67346  43.457  18.656   3.957
94922W        W67347   9.690  33.571   2.218
94923W        W67348  22.008  25.989   4.673
94924W        W67349  26.490  22.712   3.680
94925W        W67350  41.431   0.712  11.689
94926W        W67351  39.816   9.637   3.673
94927W        W67352  11.653   7.696   3.662
94928W        W67353  21.765  22.583  13.748
94929W        W67354  15.192  44.927   1.643
94930W        W67355  36.653   5.190   2.391
94931W        W67356  39.915   5.658   2.615
94932W        W67357  31.634  26.978   3.271
94933W        W67358  29.720  40.239   1.204
94934W        W67359  13.186   7.854   4.684
94935W        W67360  38.570   6.647   4.584
94936W        W67361  12.491  20.510  13.358
94937W        W67362  10.950  32.012   2.671
94938W        W67363   4.961  36.023   1.836
94939W        W67364  19.276  25.454  13.085
94940W        W67365  28.572  36.942  12.461
94941W        W67366  13.655   4.272  11.650
94942W        W67367   3.219   4.375   1.648
94943W        W67368  34.528   4.199   1.462
94944W        W67369  39.701  12.958  14.754
94945W        W67370   2.842   0.956  12.364
94946W        W67371   1.137  27.464   4.655
94947W        W67372  34.020  22.008  13.250
94948W        W67373  44.028   2.397   0.225
94949W        W67374  32.184  22.747   2.572
94950W        W67375  11.774  24.764  12.903
94951W        W67376   7.287  32.544  11.050
94952W        W67377  29.039  44.520  14.090
94953W        W67378  37.204  22.184  14.278
94954W        W67379  11.880  36.578  11.659
94955W        W67380  16.372  18.437  12.420
94956W        W67381  31.540  29.876  13.422
94957W        W67382  23.554  33.798   0.347
94958W        W67383  22.159  22.719  11.985
94959W        W67384   5.130  10.342   4.522
94960W        W67385  32.614  26.241   0.064
94961W        W67386  39.494  13.309   1.234
94962W        W67387  34.735  42.916  10.801
94963W        W67388   9.381  30.195   1.270
94964W        W67389   7.336  29.284   2.875
94965W        W67390   2.302   9.717  12.056
94966W        W67391   8.713   6.679  13.946
94967W        W67392  15.084   1.365  13.292
94968W        W67393  19.865  12.576  10.526
94969W        W67394  37.916   9.733   2.643
94970W        W67395  17.527  12.151  12.910
94971W        W67396  31.970  43.479   3.056
94972W        W67397  21.123   6.185  10.236
94973W        W67398  15.273  39.401   1.671
94974W        W67399   0.834  34.099   1.784
94975W        W67400  34.400  37.858  12.410
94976W        W67401  38.698  29.849   5.080
94977W        W67402  17.239  10.819   4.569
94978W        W67403  29.063   2.406   3.684
94979W        W67404  22.476  22.623  13.336
94980W        W67405   0.985   8.676  12.583
94981W        W67406  21.694  18.266   3.758
94982W        W67407   1.181   1.350   4.404
94983W        W67408  23.608  22.633   2.601
94984W        W67409  32.965  17.120   1.249
94985W        W67410   8.892  36.629   2.864
94986W        W67411   3.851   2.522  14.512
94987W        W67412  16.096  21.139  13.653
94988W        W67413  18.576   9.361   0.524
94989W        W67414  28.311  27.080  14.403
94990W        W67415   2.144  38.379   1.330
94991W        W67416  38.353  22.408  12.928
94992W        W67417  29.209  37.545   3.305
94993W        W67418  10.196  16.933  11.363
94994W        W67419  26.612  24.548   1.371
94995W        W67420  32.098  31.080   0.649
94996W        W67421  24.930  18.589   0.746
94997W        W67422  17.828  16.795   0.570
94998W        W67423  18.618  44.236   2.914
94999W        W67424  21.730  28.972  13.585
95000W        W67425  30.797  42.181  14.079
95001W        W67426  15.183  41.894  11.596
95002W        W67427   3.809   3.431  10.791
95003W        W67428  20.665  36.346  10.525
95004W        W67429  18.139  37.333   1.742
95005W        W67430  15.452  22.480  12.949
95006W        W67431   0.333  25.337  14.858
95007W        W67432  16.086   9.822   2.802
95008W        W67433   0.696  14.073   4.487
95009W        W67434   2.472  14.040   4.972
95010W        W67435  24.496   8.194  14.806
95011W        W67436  32.183   4.800   0.030
95012W        W67437   0.007   3.483   1.425
95013W        W67438  40.703  35.114  13.697
95014W        W67439  36.462  44.834  13.088
95015W        W67440   1.897  26.376  11.495
95016W        W67441  17.272  37.418  11.908
95017W        W67442  10.823  34.062  11.085
95018W        W67443  38.267  28.058   2.335
95019W        W67444  44.931  21.737   1.727
95020W        W67445   4.238  28.985   0.069
95021W        W67446  40.249  36.998   0.819
95022W        W67447   3.977  10.777   0.967
95023W        W67448   1.400  38.598   1.931
95024W        W67449  11.200  15.705  10.449
95025W        W67450  15.747  43.980   4.718
95026W        W67451  34.033  13.823   2.670
95027W        W67452  37.497  34.621   4.586
95028W        W67453  33.809  43.128  14.854
95029W        W67454  18.075  16.236   4.608
95030W        W67455   5.942  31.984   0.452
95031W        W67456  41.109   3.615   3.176
95032W        W67457  10.814  42.141  14.343
95033W        W67458  12.623  10.258   1.820
95034W        W67459  29.463  41.507   4.377
95035W        W67460  30.091  24.291  14.974
95036W        W67461  35.124  13.777  12.561
95037W        W67462   3.711  25.784   4.673
95038W        W67463  10.029  26.564   0.421
95039W        W67464  25.572  14.286   1.249
95040W        W67465  42.460  18.618   4.845
95041W        W67466  18.978  15.110  13.019
95042W        W67467   4.467  22.545   4.151
95043W        W67468   1.762  21.313   4.485
95044W        W67469  31.215  19.724   3.341
95045W        W67470   2.013   6.222   1.323
95046W        W67471  23.091   3.836   3.709
95047W        W67472  33.005  39.769  13.834
95048W        W67473  22.127  21.972   3.264
95049W        W67474  37.426  22.163   5.064
95050W        W67475  18.246  36.593  13.936
95051W        W67476  17.082  15.787   0.950
95052W        W67477  31.086  18.554  11.464
95053W        W67478   9.197  36.102  10.115
95054W        W67479   3.465  39.546   3.016
95055W        W67480  16.710  32.086  12.542
95056W        W67481  41.421  25.007   2.205
95057W        W67482  36.849   7.416   2.771
95058W        W67483  37.867  24.155  10.309
95059W        W67484  29.704   7.629  12.502
95060W        W67485  25.306  20.239   3.732
95061W        W67486  38.091  18.636  13.808
95062W        W67487   0.473  34.573   0.884
95063W        W67488  13.096  39.467   2.599
95064W        W67489  40.324  31.679  11.109
95065W        W67490  21.102  26.634   1.782
95066W        W67491   3.309  12.888   1.922
95067W        W67492   2.492  21.809  13.747
95068W        W67493  41.824  44.329  11.698
95069W        W67494  35.000  24.457   0.863
95070W        W67495  29.860  10.775   0.253
95071W        W67496  27.651  42.064  11.042
95072W        W67497   8.893  41.140  10.922
95073W        W67498   9.107  16.783  12.014
95074W        W67499  35.616  38.867  11.510
95075W        W67500   1.341  27.704  13.772
95076W        W67501  31.812  20.772  14.691
95077W        W67502   7.473  17.274  12.021
95078W        W67503  32.893  19.477   2.241
95079W        W67504   1.780  34.363   4.602
95080W        W67505  20.509  21.493  12.661
95081W        W67506  21.315  33.096  12.127
95082W        W67507   9.458  37.798   3.125
95083W        W67508   7.723  25.385  14.981
95084W        W67509   7.225   8.657   2.855
95085W        W67510  27.459  29.455  13.894
95086W        W67511   3.306  28.470  13.804
95087W        W67512  39.073  27.453   2.831
95088W        W67513  10.133  31.602  14.993
95089W        W67514  10.423  15.100  12.545
95090W        W67515  31.409  10.157   1.632
95091W        W67516  13.837  43.387   2.271
95092W        W67517  44.781   0.344  11.965
95093W        W67518  39.419  28.217  14.334
95094W        W67519   6.538  15.677  13.619
95095W        W67520   5.175   2.475   0.455
95096W        W67521  34.496  28.454   1.345
95097W        W67522  15.987  39.314  13.984
95098W        W67523  23.538  11.726   2.730
95099W        W67524  40.986  40.112   0.449
95100W        W67525   7.420   0.550  11.285
95101W        W67526  19.502  26.759   2.637
95102W        W67527  34.165  25.270   4.385
95103W        W67528  38.310  29.537  13.466
95104W        W67529   8.435  33.915   2.006
95105W        W67530  25.088   0.378  10.703
95106W        W67531  13.028  36.541   2.791
95107W        W67532  29.334  30.754  14.882
95108W        W67533  44.247  36.448  11.191
95109W        W67534  23.084   0.806   1.001
95110W        W67535  43.314  29.075  11.888
95111W        W67536   7.365  43.119   4.155
95112W        W67537  18.043  21.666  12.503
95113W        W67538  44.725  15.951   4.069
95114W        W67539   7.494  35.878  10.939
95115W        W67540  44.426  21.511   1.787
95116W        W67541  30.035  10.439   2.631
95117W        W67542   6.872   1.864   4.537
95118W        W67543  29.652   4.466  13.002
95119W        W67544   9.312  24.687   3.568
95120W        W67545  31.759  24.637  13.443
95121W        W67546   9.286  23.611   2.497
95122W        W67547  36.807  44.844  14.363
95123W        W67548  31.335   6.122  11.112
95124W        W67549  14.220  25.113  10.545
95125W        W67550   9.160  14.080   3.348
95126W        W67551  44.257  21.270   1.224
95127W        W67552  44.732   0.047  13.512
95128W        W67553   3.067  16.804   0.465
95129W        W67554  34.707  18.277   1.779
95130W        W67555  26.594  18.264   4.466
95131W        W67556  34.081  22.331   1.740
95132W        W67557  16.288  39.382   3.591
95133W        W67558  27.469  18.674   3.562
95134W        W67559  24.021  29.907  14.302
95135W        W67560  15.255  14.300   0.400
95136W        W67561  14.200  18.710   0.493
95137W        W67562  11.299  16.038   1.420
95138W        W67563  38.340  37.469  13.416
95139W        W67564   2.353  13.190  11.201
95140W        W67565   2.926   4.882  14.021
95141W        W67566  33.221  19.787  11.705
95142W        W67567   1.338   9.314   1.207
95143W        W67568  40.963  15.631  12.147
95144W        W67569  26.009  32.713   1.182
95145W        W67570  39.926  27.332   2.573
95146W        W67571  41.514   4.507  11.376
95147W        W67572  35.039  19.336  12.883
95148W        W67573  13.180   5.213   0.283
95149W        W67574  35.049  32.035  13.219
95150W        W67575   8.219  14.497  13.827
95151W        W67576  38.758   9.065  14.512
95152W        W67577  16.947  13.770   1.990
95153W        W67578   3.990  41.336   5.023
95154W        W67579   6.190  43.425   2.783
95155W        W67580  28.167  17.046  10.639
95156W        W67581  23.066  17.934   0.003
95157W        W67582  17.503   9.655   0.485
95158W        W67583  16.510  21.862   0.988
95159W        W67584  25.610  24.537  13.080
95160W        W67585  16.735  11.242   0.451
95161W        W67586  31.871  30.105  12.056
95162W        W67587  21.094  31.248   1.739
95163W        W67588  40.988  22.626  14.930
95164W        W67589  43.718  42.035  13.054
95165W        W67590  31.935  10.808   4.159
95166W        W67591   9.886   2.217   4.612
95167W        W67592  40.973   3.197  14.925
95168W        W67593  23.923  37.367   3.804
95169W        W67594  33.019  35.354   1.812
95170W        W67595  16.220  39.375   1.165
95171W        W67596  15.265  15.477   4.672
95172W        W67597  32.920  15.319  13.364
95173W        W67598  39.667  14.371  14.747
95174W        W67599  10.283   9.077   3.772
95175W        W67600  18.140  44.798  12.085
95176W        W67601   1.009  27.166  14.764
95177W        W67602  33.376   6.442  13.964
95178W        W67603  26.040   1.997  12.779
95179W        W67604  11.878  17.299  12.836
95180W        W67605   7.415  30.921  12.034
95181W        W67606  21.472  23.954  11.127
95182W        W67607  21.144  32.279   0.737
95183W        W67608  15.614   7.801  12.920
95184W        W67609   8.664  13.604  14.464
95185W        W67610  24.280  38.053   0.805
95186W        W67611  27.180  36.932  11.672
95187W        W67612  12.411  11.195   0.806
95188W        W67613  10.809  38.419  14.814
95189W        W67614  36.533  12.260   2.586
95190W        W67615  35.015  14.333   3.753
95191W        W67616  27.657  33.435   9.536
95192W        W67617  16.837  17.523   3.363
95193W        W67618  15.468  23.179   2.863
95194W        W67619  22.276  27.616   2.846
95195W        W67620   2.218  27.164  13.099
95196W        W67621  29.818  41.857  11.032
95197W        W67622  42.451  13.580  13.222
95198W        W67623  25.472   0.243   2.344
95199W        W67624  17.066  20.580   4.452
95200W        W67625  26.120  31.603  11.596
95201W        W67626  41.678  16.718   2.336
95202W        W67627  12.858  13.559  14.464
95203W        W67628  23.445  30.459   3.775
95204W        W67629  20.767   8.339   2.659
95205W        W67630  15.552  10.609  14.624
95206W        W67631  13.021  26.482   3.631
95207W        W67632  39.368  32.582  12.098
95208W        W67633   3.825  26.604  13.560
95209W        W67634  15.620  32.696  12.044
95210W        W67635  10.081   1.335  11.654
95211W        W67636   9.573   1.465  12.588
95212W        W67637  14.047  20.339  14.786
95213W        W67638  44.448  26.981   1.745
95214W        W67639  22.073  44.410  11.936
95215W        W67640  20.644  44.719   0.874
95216W        W67641  16.295  18.329   4.228
95217W        W67642   3.989  24.146  11.883
95218W        W67643  36.988  17.204   3.171
95219W        W67644  36.917   9.921   1.172
95220W        W67645  23.201   3.752  11.143
95221W        W67646  41.310  33.245  10.651
95222W        W67647  28.576   9.254   4.922
95223W        W67648  19.752  12.482   1.449
95224W        W67649   5.311  27.422   0.837
95225W        W67650  39.445  14.105   4.276
95226W        W67651  24.657  25.589   4.753
95227W        W67652  13.580  21.859   1.781
95228W        W67653  41.307  38.550  11.827
95229W        W67654  28.359  23.818  14.872
95230W        W67655  34.508   0.868   3.161
95231W        W67656  35.932  24.242  10.175
95232W        W67657   1.030  21.776  14.327
95233W        W67658  16.572   3.342  11.656
95234W        W67659   2.015  32.267   2.771
95235W        W67660  37.949   7.636   3.340
95236W        W67661   5.968  30.783  14.372
95237W        W67662  44.061   5.882  11.156
95238W        W67663  30.208   7.131   0.415
95239W        W67664  32.578   0.657  10.212
95240W        W67665  17.835  32.208   5.117
95241W        W67666  30.952   2.268  11.946
95242W        W67667   1.499  29.929  11.480
95243W        W67668  27.131  14.462   4.200
95244W        W67669   9.674  32.594  12.153
95245W        W67670  13.275   5.161  12.364
95246W        W67671  16.316  18.159  14.536
95247W        W67672  11.432   7.278  11.457
95248W        W67673  32.751  38.377   2.438
95249W        W67674  24.022  25.001  10.647
95250W        W67675   4.003  33.532  12.757
95251W        W67676  14.775   7.608   1.449
95252W        W67677  26.608  22.179   3.831
95253W        W67678  36.544  17.229  11.083
95254W        W67679   1.329  11.856   2.257
95255W        W67680  28.516  44.493  13.977
95256W        W67681  15.549  32.106   1.381
95257W        W67682  42.448  40.472   4.686
95258W        W67683  43.983  15.836  13.980
95259W        W67684  31.207  18.889  12.828
95260W        W67685  19.133  24.027   0.762
95261W        W67686  21.448  17.234   2.838
95262W        W67687  30.889  15.155   4.049
95263W        W67688   7.772  26.134  12.975
95264W        W67689  32.596  32.909   1.432
95265W        W67690   9.348   1.631  11.143
95266W        W67691  36.154  20.161  10.973
95267W        W67692  17.434   5.191   3.216
95268W        W67693  42.517   0.892  14.463
95269W        W67694  12.012  22.111   2.521
95270W        W67695  12.503  18.032  12.434
95271W        W67696   3.242   3.010   1.652
95272W        W67697  33.620  10.416  13.503
95273W        W67698  21.680  24.039  14.010
95274W        W67699  30.670  28.634  13.824
95275W        W67700  16.269  43.109  14.080
95276W        W67701  34.623  15.245   4.612
95277W        W67702  39.083  44.097  13.046
95278W        W67703  17.088  33.616   4.222
95279W        W67704   6.434  24.394  11.164
95280W        W67705   4.378  12.554  13.035
95281W        W67706  13.796  35.594  13.817
95282W        W67707   9.939   8.901  12.038
95283W        W67708  16.051   5.835   0.909
95284W        W67709   3.824  24.749   4.521
95285W        W67710  10.655   9.738   2.286
95286W        W67711  16.713  44.969   4.640
95287W        W67712  44.845  35.457  12.613
95288W        W67713  32.245  37.895  12.966
95289W        W67714   6.233  28.860   2.682
95290W        W67715  42.342  33.205   1.890
95291W        W67716  27.677  44.933   2.878
95292W        W67717  14.597  43.130   5.120
95293W        W67718  15.815   2.361   9.570
95294W        W67719  24.256  15.621   0.207
95295W        W67720  38.936  44.928  10.177
95296W        W67721  23.070  16.371  13.521
95297W        W67722  18.195  28.105   1.560
95298W        W67723  10.937  11.687  12.826
95299W        W67724  22.629  24.531  14.319
95300W        W67725   1.764   1.039   1.383
95301W        W67726  22.970   7.347   1.963
95302W        W67727  13.061  14.049  14.359
95303W        W67728   7.374  40.141   4.869
95304W        W67729   0.850   1.291   2.163
95305W        W67730   6.371  32.614  11.080
95306W        W67731   2.365   0.097  10.516
95307W        W67732  10.299  28.574  12.068
95308W        W67733  34.902   2.200   4.475
95309W        W67734  22.639  37.567  13.112
95310W        W67735   2.559   5.298  10.524
95311W        W67736   2.577  11.436  11.486
95312W        W67737  17.573  44.570   1.249
95313W        W67738   5.161   6.687   1.962
95314W        W67739  18.746  13.554   0.967
95315W        W67740   3.287   4.318   0.120
95316W        W67741  38.925  11.559  13.443
95317W        W67742  30.141  19.766   1.196
95318W        W67743   0.057  36.338  13.236
95319W        W67744  35.535  28.654  13.986
95320W        W67745   1.882  42.405  12.454
95321W        W67746  15.068  25.681   0.395
95322W        W67747  39.428  25.486   2.782
95323W        W67748  44.893  11.737   0.822
95324W        W67749  30.921  37.850  10.967
95325W        W67750  10.843  31.940  13.928
95326W        W67751  11.833  27.118  14.811
95327W        W67752  35.423  16.376   3.836
95328W        W67753  37.609  11.768  13.801
95329W        W67754  17.880   6.469  13.475
95330W        W67755  26.167  36.630  11.059
95331W        W67756  37.343   1.328   2.201
95332W        W67757  11.645   2.822   3.625
95333W        W67758  37.852  38.890  13.798
95334W        W67759  15.733   7.907  13.409
95335W        W67760   6.810  37.637   0.753
95336W        W67761  23.529   2.714  12.580
95337W        W67762  20.245   2.655  14.311
95338W        W67763  36.025  18.733   4.589
95339W        W67764   8.814  39.566   4.440
95340W        W67765  32.128   3.431   1.327
95341W        W67766  34.369  27.687   4.377
95342W        W67767  17.964   7.257   2.346
95343W        W67768  43.315   2.822   4.168
95344W        W67769  41.971  17.052   3.628
95345W        W67770  22.478   7.186   2.125
95346W        W67771  15.528   1.818  14.043
95347W        W67772   9.719  23.749  14.167
95348W        W67773  24.682  12.138   3.650
95349W        W67774  26.505  16.238  13.340
95350W        W67775   3.360  30.170   2.312
95351W        W67776  11.270  14.649  12.895
95352W        W67777  14.449  44.877  11.211
95353W        W67778  26.547   6.143  13.476
95354W        W67779   1.997   6.322  12.967
95355W        W67780  31.302  11.286   0.231
95356W        W67781  42.399  20.589   2.231
95357W        W67782  39.295  12.765  14.993
95358W        W67783  42.388  22.225  14.979
95359W        W67784  25.503  15.085   2.775
95360W        W67785  21.554  35.178   0.407
95361W        W67786  31.939  21.266  14.873
95362W        W67787   6.253  25.171  11.562
95363W        W67788  20.292  14.740  10.706
95364W        W67789  36.890  21.775  11.214
95365W        W67790  38.123  38.756   4.196
95366W        W67791  32.156  24.754   4.150
95367W        W67792  23.123  17.478  14.650
95368W        W67793  28.021  34.510   0.440
95369W        W67794   2.517  21.588   0.747
95370W        W67795   5.536   4.905   1.971
95371W        W67796   5.341  35.128  14.570
95372W        W67797   4.257  44.262   2.819
95373W        W67798  28.078  25.134  14.270
95374W        W67799  34.520  19.737  13.729
95375W        W67800   5.292  34.127   1.655
95376W        W67801  34.147  26.084  10.583
95377W        W67802  33.639  40.431   4.790
95378W        W67803   9.425  31.086  13.017
95379W        W67804  38.951  23.096   0.458
95380W        W67805   5.856   8.782   1.003
95381W        W67806  40.000  39.596  14.052
95382W        W67807  25.126  34.590  10.457
95383W        W67808  31.435  26.944   1.073
95384W        W67809  14.533   8.223   2.728
95385W        W67810  31.528  39.519  14.405
95386W        W67811   9.347   3.206  11.098
95387W        W67812  32.876  17.339   3.198
95388W        W67813  18.730  30.000  10.634
95389W        W67814  43.259  40.413   1.904
95390W        W67815  21.011  11.268   0.876
95391W        W67816   5.791  29.947  14.096
95392W        W67817   3.795   7.393   2.154
95393W        W67818  24.505  30.033  11.198
95394W        W67819   9.286  29.583  10.677
95395W        W67820  17.753  21.319   1.303
95396W        W67821  38.820  18.218   4.529
95397W        W67822  43.719   3.305   3.517
95398W        W67823  41.393  21.011  14.461
95399W        W67824  31.082  31.089   0.274
95400W        W67825  34.408  24.785   1.692
95401W        W67826  40.376  31.924   0.393
95402W        W67827   6.688   8.883  11.667
95403W        W67828  38.523   1.443   4.493
95404W        W67829  30.933  26.690  12.114
95405W        W67830  37.082   8.618  10.778
95406W        W67831  36.529  13.214   0.869
95407W        W67832  44.860  40.211  14.730
95408W        W67833  12.472  31.098   1.217
95409W        W67834  13.176  18.093  14.581
95410W        W67835  39.743  13.360   3.570
95411W        W67836  40.477  19.326   0.724
95412W        W67837  24.498   6.431  14.725
95413W        W67838  10.785  10.722  14.367
95414W        W67839  43.794  35.797  13.407
95415W        W67840  36.508  38.909   3.762
95416W        W67841  19.116  32.852   2.157
95417W        W67842  18.729  16.053  14.280
95418W        W67843   1.021  17.292   2.824
95419W        W67844   7.232  21.081  11.518
95420W        W67845   1.821  27.533   3.008
95421W        W67846  10.773   3.401  14.052
95422W        W67847   6.105  12.114  14.769
95423W        W67848  21.348  22.180   0.267
95424W        W67849  41.477  25.029  14.000
95425W        W67850  33.520  44.564   3.677
95426W        W67851  40.197  38.053  10.730
95427W        W67852  39.632  17.186   3.661
95428W        W67853  35.332  16.635   0.246
95429W        W67854  15.026  27.557   3.872
95430W        W67855   9.791  17.118  10.782
95431W        W67856  14.299  41.233   3.398
95432W        W67857  14.114  44.372  14.862
95433W        W67858  29.598  16.161   3.915
95434W        W67859   4.929  33.384  13.781
95435W        W67860  18.326  34.751   0.466
95436W        W67861   6.752  32.956  10.554
95437W        W67862  15.092   6.235  11.162
95438W        W67863  39.346  33.634   3.890
95439W        W67864  31.569  32.484   0.792
95440W        W67865   4.205   4.390   3.616
95441W        W67866   0.002  26.077  14.444
95442W        W67867  19.153   0.091  10.649
95443W        W67868  24.112  26.111   3.675
95444W        W67869  25.159  41.853  10.759
95445W        W67870  36.350  29.567   2.644
95446W        W67871  10.786  31.441   0.704
95447W        W67872  30.386   5.424   2.055
95448W        W67873  25.742  15.316  11.939
95449W        W67874  25.609  12.603  12.077
95450W        W67875  24.767   5.288  10.978
95451W        W67876  17.478   6.037   4.738
95452W        W67877  27.594   1.485   2.678
95453W        W67878  18.301  19.299   3.835
95454W        W67879  32.349  30.792  14.901
95455W        W67880  31.487  13.628   0.657
95456W        W67881  31.137  31.936  13.780
95457W        W67882  38.965  16.978   2.645
95458W        W67883  39.921   8.312  13.968
95459W        W67884  18.320  18.027   4.193
95460W        W67885   3.460  21.529  14.417
95461W        W67886  40.467  35.204   2.200
95462W        W67887  43.804  44.527  14.815
95463W        W67888   9.413  11.840   4.639
95464W        W67889   7.646   0.429   1.759
95465W        W67890  21.157  40.293  14.189
95466W        W67891  21.230   3.768   0.863
95467W        W67892  23.460  14.358   3.810
95468W        W67893  43.408  35.227  11.519
95469W        W67894  14.110  35.577  10.445
95470W        W67895  16.082  25.177   0.927
95471W        W67896  33.027  39.147   4.626
95472W        W67897  42.049  13.824   4.602
95473W        W67898  32.560   3.769  12.184
95474W        W67899  22.579  32.606   1.354
95475W        W67900  35.274  32.565  11.177
95476W        W67901  28.716  32.520   5.042
95477W        W67902  38.524  22.961  11.033
95478W        W67903   3.905  41.024   4.150
95479W        W67904  36.805  20.024  12.480
95480W        W67905  29.926  34.805  11.629
95481W        W67906  38.956  24.613   2.615
95482W        W67907  26.917   2.239   4.630
95483W        W67908  13.520   6.135  13.247
95484W        W67909  39.040  43.404   1.890
95485W        W67910  31.636  23.613   1.279
95486W        W67911  23.183  44.850   4.088
95487W        W67912   9.907  24.578  11.063
95488W        W67913  12.272  14.178   1.712
95489W        W67914  19.952  20.451  12.879
95490W        W67915  41.084  16.248   1.815
95491W        W67916  35.715  36.821  12.919
95492W        W67917  35.360  18.591   3.425
95493W        W67918  43.257   3.481   2.178
95494W        W67919  25.131   9.340  14.540
95495W        W67920  11.455   3.865  12.569
95496W        W67921  31.438  31.397   4.104
95497W        W67922   5.392  39.150   3.494
95498W        W67923   4.501  42.554  14.248
95499W        W67924  42.414   3.203   4.319
95500W        W67925  38.526  36.019   5.273
95501W        W67926  38.373  15.193  14.953
95502W        W67927  18.033  20.099  11.611
95503W        W67928  20.057  23.649   4.559
95504W        W67929  31.913  10.548  11.123
95505W        W67930  34.585  43.436  14.760
95506W        W67931   9.665  13.297  13.047
95507W        W67932  13.857  33.006  12.558
95508W        W67933  36.299  29.408  13.458
95509W        W67934  41.228   6.981   0.053
95510W        W67935  28.420  34.539   2.722
95511W        W67936  43.844  34.138   0.916
95512W        W67937   4.971  16.364   3.128
95513W        W67938   4.368  21.623   0.437
95514W        W67939   8.924  44.826  14.311
95515W        W67940  18.025  25.467  12.492
95516W        W67941  21.890  35.481  11.658
95517W        W67942  23.475  19.257  11.232
95518W        W67943   9.372   0.130  12.667
95519W        W67944  20.692   6.199   2.887
95520W        W67945  29.330   4.795   1.231
95521W        W67946  34.669  33.525  13.467
95522W        W67947   7.145  22.265   0.258
95523W        W67948  23.938  36.047  12.648
95524W        W67949  35.957  15.798   2.751
95525W        W67950  33.874   6.395   4.526
95526W        W67951  29.882   7.862   1.511
95527W        W67952  29.468  43.888   1.888
95528W        W67953  27.768  33.363  13.519
95529W        W67954   3.775  40.799  11.678
95530W        W67955  22.950   3.255   4.520
95531W        W67956  21.014   3.444   2.316
95532W        W67957  18.751  42.760  14.345
95533W        W67958   2.395  20.129  10.965
95534W        W67959  15.194  14.552   1.373
95535W        W67960  41.021   9.700   0.422
95536W        W67961   1.032  18.833  11.079
95537W        W67962  10.425  13.898  13.775
95538W        W67963  35.874  43.758  11.182
95539W        W67964  40.993  23.236   2.826
95540W        W67965  12.996  19.572   0.920
95541W        W67966  37.080   4.607   2.594
95542W        W67967  24.749  28.903  13.358
95543W        W67968  32.787   9.998  14.438
95544W        W67969  13.221  33.012  14.478
95545W        W67970  42.026  27.835  14.761
95546W        W67971  23.190  42.810  14.410
95547W        W67972  10.146  32.881  11.617
95548W        W67973  24.646  21.823  11.716
95549W        W67974  37.388  31.124   0.761
95550W        W67975  27.835  22.125  13.396
95551W        W67976  34.567   2.506   2.908
95552W        W67977  40.318   4.877  11.258
95553W        W67978  17.083  44.892  12.983
95554W        W67979  35.146  22.492   3.189
95555W        W67980  37.797  32.600   2.325
95556W        W67981  23.678  36.463  10.732
95557W        W67982   8.320  10.592  11.992
95558W        W67983  28.946   6.571   2.645
95559W        W67984  28.699   3.268  12.938
95560W        W67985   1.053  37.808   2.856
95561W        W67986   1.658   9.825  11.077
95562W        W67987  27.091  12.681   3.147
95563W        W67988  36.513   3.858   0.341
95564W        W67989   2.912  20.169  13.008
95565W        W67990  27.000  18.196   3.165
95566W        W67991   9.899  35.690  11.777
95567W        W67992  33.468  38.925  14.815
95568W        W67993   8.252  43.519   0.054
95569W        W67994  10.267  17.739   4.516
95570W        W67995   0.370  16.173  13.306
95571W        W67996  39.132   6.367   5.107
95572W        W67997  16.406  32.877   4.678
95573W        W67998  38.056   8.337   1.240
95574W        W67999  14.702  18.017   1.694
95575W        W68000  36.943  22.647  14.243
95576W        W68001  30.414  14.523  12.922
95577W        W68002   3.469  26.466   0.020
95578W        W68003  20.064  17.669  12.152
95579W        W68004  13.728  23.111   2.329
95580W        W68005  17.138  24.976   2.289
95581W        W68006  27.950   3.489  13.460
95582W        W68007  39.543   7.534  14.126
95583W        W68008  44.450  24.561  11.610
95584W        W68009  44.482   0.280  10.595
95585W        W68010  14.166  38.828  14.926
95586W        W68011  16.523  14.882   3.504
95587W        W68012  38.886  10.673  12.900
95588W        W68013   6.788  31.167  12.465
95589W        W68014  28.251  12.685  11.443
95590W        W68015  28.737  29.682   3.185
95591W        W68016   1.009  18.036  10.624
95592W        W68017  10.754  14.357   2.871
95593W        W68018  15.324  29.314   2.595
95594W        W68019  18.216  28.183   3.827
95595W        W68020  34.010  44.034  11.164
95596W        W68021  18.610  32.549  10.309
95597W        W68022  43.554  22.589  10.506
95598W        W68023  29.520  11.095  14.032
95599W        W68024  33.394  35.359  13.414
95600W        W68025  15.531  10.718  10.556
95601W        W68026  24.885   0.814   0.286
95602W        W68027  31.925  15.356  11.591
95603W        W68028  25.165  25.954   4.093
95604W        W68029  25.227  20.904   1.505
95605W        W68030  30.475  30.004   4.608
95606W        W68031  19.577  37.578   3.572
95607W        W68032  31.628  39.285  13.039
95608W        W68033  44.365  18.558   0.905
95609W        W68034  44.783  18.627  11.622
95610W        W68035  30.665  24.005  11.628
95611W        W68036   3.836   9.674   1.886
95612W        W68037  14.620  33.165   1.308
95613W        W68038   0.027  25.283  13.938
95614W        W68039  44.935  30.483   2.740
95615W        W68040  35.117  19.103   0.697
95616W        W68041   0.920  15.880  13.445
95617W        W68042  20.463  17.935  12.380
95618W        W68043  20.076  24.207   4.175
95619W        W68044  21.194  23.557  10.953
95620W        W68045  39.843  33.820  14.954
95621W        W68046  22.059  26.598   4.771
95622W        W68047  35.782  25.199   0.734
95623W        W68048  18.395  26.679   4.125
95624W        W68049  16.627  36.978  13.500
95625W        W68050  25.208  38.640  10.729
95626W        W68051  11.250  42.510  10.626
95627W        W68052  26.522  21.004   3.704
95628W        W68053  16.753  32.422  12.978
95629W        W68054  40.355  16.578   4.557
95630W        W68055  24.528  14.875  12.442
95631W        W68056  23.298  34.687   0.874
95632W        W68057  26.184  15.332   2.839
95633W        W68058  38.986  17.766   4.762
95634W        W68059  43.076  33.868   1.445
95635W        W68060  44.607  27.889  11.557
95636W        W68061  41.806  28.775  11.887
95637W        W68062  26.206  44.879  14.335
95638W        W68063   2.523  28.241   2.873
95639W        W68064  17.277  11.494  13.866
95640W        W68065   7.461  23.893   2.366
95641W        W68066  18.769  38.361  13.934
95642W        W68067  36.943  30.077  14.656
95643W        W68068   4.939   4.475  10.537
95644W        W68069  22.608  27.083  14.226
95645W        W68070  27.684   6.708   4.167
95646W        W68071  41.760  14.224   4.400
95647W        W68072   2.726  41.410  10.734
95648W        W68073  21.251  37.242  13.141
95649W        W68074  12.538  36.535  14.025
95650W        W68075  14.893   8.594  12.110
95651W        W68076   1.516  23.530  13.517
95652W        W68077   8.753   6.254   3.425
95653W        W68078   5.286  17.224   4.226
95654W        W68079   6.833  16.858  14.735
95655W        W68080  44.966  43.626  12.605
95656W        W68081   9.074  18.675   3.676
95657W        W68082   3.384  31.341  14.093
95658W        W68083  18.704  36.042   3.733
95659W        W68084  29.631  36.766   0.234
95660W        W68085  13.396  37.263  13.352
95661W        W68086  11.665  34.119   1.960
95662W        W68087   6.285  35.706   9.950
95663W        W68088  21.104   5.674  13.403
95664W        W68089   4.366   6.894  11.099
95665W        W68090  10.099  31.583   1.417
95666W        W68091  39.428  18.321  14.356
95667W        W68092  37.964  40.892  12.710
95668W        W68093  25.572  44.734   2.348
95669W        W68094  44.995   7.921   3.754
95670W        W68095   3.532   1.264  13.519
95671W        W68096  29.095   4.007  11.181
95672W        W68097   0.734  38.602   3.631
95673W        W68098  16.061  39.768  13.429
95674W        W68099  25.454   4.462  12.530
95675W        W68100  10.227  25.420   4.180
95676W        W68101  19.668  28.663  12.422
95677W        W68102  24.030  12.952   5.141
95678W        W68103   0.456  20.218  11.205
95679W        W68104  17.229  35.384  12.377
95680W        W68105  37.415   5.667   0.471
95681W        W68106  34.057  31.499   3.857
95682W        W68107  44.529  23.088   3.232
95683W        W68108  24.633  39.386   1.323
95684W        W68109  32.812  30.001  12.970
95685W        W68110   6.338  21.319  11.676
95686W        W68111   0.884  35.460  11.047
95687W        W68112  10.017   9.969   3.742
95688W        W68113  14.063  25.485   2.249
95689W        W68114  34.930   8.598  11.474
95690W        W68115  16.105  38.020  13.639
95691W        W68116   2.531  29.181  12.132
95692W        W68117  43.881  14.889  10.798
95693W        W68118   6.722  36.556  11.134
95694W        W68119   5.419  18.460   3.692
95695W        W68120   6.114  10.678   0.317
95696W        W68121  25.250  33.542  14.453
95697W        W68122  20.626  38.522   3.613
95698W        W68123  37.456  33.318   3.281
95699W        W68124   2.913   8.525   0.491
95700W        W68125  35.820  23.989  14.387
95701W        W68126  37.854  41.899   1.823
95702W        W68127  29.745  31.602  11.350
95703W        W68128  16.347  17.162   0.010
95704W        W68129  13.216  34.209  12.686
95705W        W68130  13.907  39.362   1.712
95706W        W68131  17.287   0.728  14.897
95707W        W68132  14.773  40.565  12.535
95708W        W68133  12.259  26.992   1.946
95709W        W68134  27.066  33.374   0.740
95710W        W68135  35.174   1.864  12.424
95711W        W68136  28.683   6.849  13.930
95712W        W68137   2.482  29.441   4.085
95713W        W68138  18.430  33.742   5.099
95714W        W68139  28.587  22.570  13.842
95715W        W68140  18.737  30.849  10.576
95716W        W68141  13.311  36.844   0.426
95717W        W68142  24.474   1.541  13.421
95718W        W68143  11.139   9.787  14.882
95719W        W68144  36.135  18.632   3.135
95720W        W68145  42.877  18.088  12.732
95721W        W68146  19.290  24.107   3.742
95722W        W68147  11.143  17.229  14.158
95723W        W68148  20.685  29.265  11.028
95724W        W68149  18.363  35.618   2.373
95725W        W68150  42.860  14.666  11.509
95726W        W68151  43.602  13.614   1.331
95727W        W68152   4.742  20.756  13.955
95728W        W68153  41.068  25.147   1.431
95729W        W68154  16.553   9.995   2.654
95730W        W68155   2.231  25.852   0.906
95731W        W68156  36.962  21.792  14.550
95732W        W68157  21.252   6.964  13.440
95733W        W68158  36.942  14.255   1.366
95734W        W68159  41.986  18.514   4.612
95735W        W68160   4.424  40.600  13.893
95736W        W68161  38.397  30.384  10.889
95737W        W68162  18.155  41.074   0.753
95738W        W68163  29.818  15.635  11.782
95739W        W68164   9.678  11.109  12.911
95740W        W68165  15.459  14.352   4.205
95741W        W68166  13.654  30.142   4.509
95742W        W68167   7.317  23.943  12.560
95743W        W68168  34.896  40.277   2.211
95744W        W68169  32.637  42.978  11.513
95745W        W68170  25.605   6.799   1.934
95746W        W68171  38.820  22.572  14.364
95747W        W68172  11.897  34.031   3.900
95748W        W68173  36.342  41.504  12.369
95749W        W68174   0.500   9.714   0.349
95750W        W68175  23.240  10.452   1.702
95751W        W68176  32.153  40.516   1.970
95752W        W68177  30.472  42.352  14.459
95753W        W68178  15.911   8.678  14.348
95754W        W68179  37.440  23.163  12.610
95755W        W68180  16.834   1.993  12.191
95756W        W68181  38.996  21.471   2.721
95757W        W68182  20.206  44.802   0.471
95758W        W68183  32.882  26.181   1.907
95759W        W68184  38.337   7.320  11.551
95760W        W68185  15.104  24.274  14.766
95761W        W68186  16.310  12.545   4.423
95762W        W68187  14.706   0.139   1.492
95763W        W68188  35.568   1.454  12.923
95764W        W68189   6.424  44.205   4.602
95765W        W68190   7.775  14.373  14.805
95766W        W68191   4.822  35.057   1.792
95767W        W68192   8.470  18.360  12.649
95768W        W68193  32.238  28.965  10.558
95769W        W68194  19.595  31.840   3.090
95770W        W68195  37.415  43.395  11.218
95771W        W68196  14.077  33.341   1.035
95772W        W68197  40.039   5.243   4.476
95773W        W68198  44.676   5.799   4.764
95774W        W68199  43.375  39.731   2.868
95775W        W68200   7.774  15.351  12.492
95776W        W68201  40.566  34.694   1.475
95777W        W68202   2.183  25.201   4.557
95778W        W68203   5.644   4.449   0.373
95779W        W68204  23.964  34.399   3.164
95780W        W68205  10.117   4.449   0.317
95781W        W68206  29.603  17.038   3.574
95782W        W68207  27.174  15.823  10.985
95783W        W68208  28.966  39.467   0.839
95784W        W68209  13.680  25.605   2.625
95785W        W68210  35.105  32.176  11.515
95786W        W68211  41.473  20.760  10.696
95787W        W68212  28.610   2.352  12.907
95788W        W68213  36.647   4.377   1.067
95789W        W68214  23.082  25.224   3.222
95790W        W68215  34.073  21.541  13.501
95791W        W68216   0.537  26.466   4.501
95792W        W68217   5.439  17.492  10.655
95793W        W68218   1.518  19.735   1.878
95794W        W68219  11.137   6.679   5.167
95795W        W68220  34.879  34.457   4.244
95796W        W68221  26.511  40.463   2.855
95797W        W68222  27.167  18.511  14.242
95798W        W68223  20.443   3.869  12.918
95799W        W68224  29.510  30.012  14.330
95800W        W68225   4.722  18.158  14.429
95801W        W68226  31.533   5.145  11.913
95802W        W68227  37.821  20.632  10.421
95803W        W68228  30.969  15.097  14.331
95804W        W68229  38.448   3.771   2.606
95805W        W68230  16.057  18.770  10.735
95806W        W68231  39.193  42.855   4.072
95807W        W68232  26.920   5.204  14.480
95808W        W68233   0.478  15.246  12.837
95809W        W68234  41.896  18.832   3.312
95810W        W68235  12.310  27.489   5.002
95811W        W68236  32.104  32.927   2.831
95812W        W68237  12.226  22.602  13.282
95813W        W68238  11.408   2.363  11.513
95814W        W68239  30.970  36.925  10.532
95815W        W68240  12.326  30.015  13.201
95816W        W68241  34.026  41.304   0.416
95817W        W68242   1.668  36.554   0.244
95818W        W68243  20.986   3.194  13.062
95819W        W68244  24.551  32.492   1.779
95820W        W68245  31.423  13.146   3.218
95821W        W68246  30.034  33.177   0.225
95822W        W68247  17.281   2.232  12.398
95823W        W68248   8.894  12.211  12.438
95824W        W68249  32.107  27.420  13.438
95825W        W68250  17.155  31.045   2.724
95826W        W68251   1.363   5.345   0.763
95827W        W68252  21.011  32.777   2.760
95828W        W68253  19.090  38.465   4.694
95829W        W68254  26.227  24.990   0.653
95830W        W68255   6.099  42.328   0.831
95831W        W68256   1.727   9.973  12.890
95832W        W68257  36.101  30.909   0.382
95833W        W68258  23.915   6.879  13.018
95834W        W68259  18.684  38.631  11.601
95835W        W68260  39.487  33.358   3.458
95836W        W68261   0.454  34.481  12.960
95837W        W68262   5.794  12.816  12.440
95838W        W68263  44.566  22.730  14.957
95839W        W68264  31.979  16.549  12.051
95840W        W68265  19.772  43.497  12.076
95841W        W68266  35.336  14.264   4.141
95842W        W68267  37.575  15.085   0.936
95843W        W68268  27.946  11.570   3.275
95844W        W68269  25.433  19.250  14.039
95845W        W68270   7.814  20.268   4.335
95846W        W68271  14.682   0.434  13.507
95847W        W68272  36.128  12.265  11.439
95848W        W68273  21.607  26.787  12.681
95849W        W68274  28.538  17.795  13.865
95850W        W68275  10.398   4.793  12.503
95851W        W68276  37.436  41.752   3.600
95852W        W68277   1.145  33.676   1.785
95853W        W68278  15.407  11.211  14.246
95854W        W68279  34.068  20.969  13.843
95855W        W68280  12.602  31.928   0.361
95856W        W68281  41.315  23.000  10.781
95857W        W68282   5.810  17.196  14.258
95858W        W68283  21.081  14.068  11.105
95859W        W68284  26.580  41.519   3.704
95860W        W68285  37.894   0.524   4.645
95861W        W68286  18.905  17.925  11.493
95862W        W68287   0.985   6.195   4.224
95863W        W68288  43.352  16.543   2.831
95864W        W68289  19.762  28.142   0.019
95865W        W68290  34.921  32.935  11.103
95866W        W68291  21.150  42.030   3.791
95867W        W68292  28.880  18.627   2.265
95868W        W68293  10.835   6.224  10.668
95869W        W68294  10.725  43.419  10.651
95870W        W68295   2.679   4.475  11.069
95871W        W68296  11.291   9.774  12.863
95872W        W68297   0.952  37.071  14.840
95873W        W68298  31.053  31.686   3.890
95874W        W68299  12.782  21.741   0.288
95875W        W68300  19.536   4.761   4.491
95876W        W68301  18.249  38.297   1.731
95877W        W68302  33.998  44.225   3.607
95878W        W68303  33.407   7.679  13.384
95879W        W68304  27.624   7.412  14.260
95880W        W68305  17.349  43.999  13.505
95881W        W68306  21.210  28.868  13.547
95882W        W68307   1.723  21.653   2.851
95883W        W68308  27.906  29.501   0.731
95884W        W68309  38.942  41.567  14.048
95885W        W68310  22.350  31.430   2.627
95886W        W68311  33.562   3.655   3.772
95887W        W68312  26.697   6.773  14.830
95888W        W68313  24.075   8.076  11.940
95889W        W68314  27.959   3.422   0.947
95890W        W68315  23.607   3.009  13.984
95891W        W68316  31.582  26.448  11.839
95892W        W68317  10.116  34.041  12.476
95893W        W68318  41.658   6.665   4.795
95894W        W68319  17.123  14.210  14.725
95895W        W68320  38.497  24.925  10.440
95896W        W68321  34.084  27.282  13.983
95897W        W68322  39.926  12.249  14.500
95898W        W68323  22.235  39.050   4.650
95899W        W68324  11.140  22.500   4.065
95900W        W68325  37.054  35.443  13.606
95901W        W68326  19.217  14.841  11.212
95902W        W68327  38.323  29.930   3.671
95903W        W68328   9.343  34.050  12.080
95904W        W68329  35.406  21.448   0.099
95905W        W68330  41.913   1.830  13.092
95906W        W68331  34.940  44.122  14.890
95907W        W68332  13.366   4.730  14.531
95908W        W68333  13.546  16.554   0.783
95909W        W68334  29.992  31.087   2.432
95910W        W68335  33.628  44.197  13.143
95911W        W68336   3.308  29.914  12.585
95912W        W68337  41.359  40.838  14.393
95913W        W68338  37.633  32.371   4.875
95914W        W68339  32.497  30.582  12.805
95915W        W68340   1.291  18.762  12.572
95916W        W68341  42.028  26.066   0.917
95917W        W68342  33.422  16.995  12.953
95918W        W68343  24.326  26.075   4.145
95919W        W68344  42.966  27.172  13.829
95920W        W68345  28.648  35.560   4.590
95921W        W68346   5.370  29.931  10.967
95922W        W68347  38.174   2.084   0.776
95923W        W68348  16.128  16.656  11.415
95924W        W68349  14.842  39.070   4.226
95925W        W68350  15.630  38.937  13.943
95926W        W68351  30.116  18.223   1.881
95927W        W68352  39.773  11.304   0.303
95928W        W68353  36.626  16.272  13.856
95929W        W68354  37.398  18.966  12.895
95930W        W68355  44.188  21.916   0.105
95931W        W68356  43.635  25.235  13.342
95932W        W68357  30.538  20.477   1.742
95933W        W68358  15.552   3.884  13.900
95934W        W68359  35.045  17.195  10.856
95935W        W68360  33.124  42.447   2.824
95936W        W68361  15.119  23.153   1.784
95937W        W68362  30.559  11.568   3.656
95938W        W68363   7.798  21.678   2.387
95939W        W68364  42.793   6.117   0.225
95940W        W68365  40.449  27.804  12.613
95941W        W68366  24.740  41.365   2.211
95942W        W68367  25.649   6.668  11.217
95943W        W68368  44.301   4.971  13.149
95944W        W68369  38.463  21.227  10.869
95945W        W68370  24.700   4.705   5.032
95946W        W68371  14.412  39.779   2.241
95947W        W68372  24.330   9.915   2.762
95948W        W68373  43.409  11.107  14.366
95949W        W68374  30.475  41.427  14.716
95950W        W68375  28.996  19.291  12.568
95951W        W68376   0.227  34.469  10.454
95952W        W68377   6.756  27.742   2.417
95953W        W68378  34.056  14.869  12.746
95954W        W68379  31.262   1.681  14.719
95955W        W68380   8.714  44.477  13.069
95956W        W68381  36.769  39.899   0.954
95957W        W68382  13.216  25.420   2.852
95958W        W68383   0.494  18.110   4.217
95959W        W68384   5.398   1.633   2.284
95960W        W68385  30.277   4.292   2.910
95961W        W68386  15.624   9.162   3.623
95962W        W68387  32.105  23.021   0.809
95963W        W68388   6.393  36.118   4.226
95964W        W68389  16.700  41.268  10.505
95965W        W68390  12.799  44.739  12.612
95966W        W68391  33.867  43.483   2.913
95967W        W68392  17.778  40.943  11.676
95968W        W68393  10.705  29.740  10.867
95969W        W68394   0.469  39.930   4.146
95970W        W68395  22.275   0.697   0.280
95971W        W68396   4.908  22.830   3.330
95972W        W68397  26.204  29.641  12.855
95973W        W68398   6.390  16.854   2.361
95974W        W68399  34.474  31.089   0.068
95975W        W68400  11.156  27.982   4.307
95976W        W68401  12.321  16.529  12.603
95977W        W68402   6.625  13.342   4.095
95978W        W68403  43.470  28.088   4.213
95979W        W68404  37.955  28.157   0.403
95980W        W68405   7.788  15.846  12.404
95981W        W68406  41.723   1.928  11.147
95982W        W68407  18.756  17.152  14.327
95983W        W68408  11.166  18.948  12.969
95984W        W68409   9.695  21.295   1.274
95985W        W68410   8.829  29.590   1.709
95986W        W68411  38.073  33.095  13.917
95987W        W68412  34.600  44.952   0.885
95988W        W68413  31.900  19.793   3.698
95989W        W68414  16.624  38.847  14.509
95990W        W68415  26.158  29.672   2.339
95991W        W68416  28.002  39.812   3.327
95992W        W68417  20.032  42.460   2.285
95993W        W68418  38.844  41.766   3.312
95994W        W68419  39.617  37.382  14.096
95995W        W68420  14.736   6.581  11.923
95996W        W68421  18.102  22.683   1.404
95997W        W68422  39.639  25.678   2.359
95998W        W68423  41.875  42.281   1.252
95999W        W68424  22.942  39.944   1.528
96000W        W68425  26.128   4.732   1.532
96001W        W68426   6.560  42.981  12.428
96002W        W68427  39.622  44.028  13.767
96003W        W68428  17.672  27.920  11.641
96004W        W68429  41.398  15.859  12.873
96005W        W68430   6.948  36.443  14.789
96006W        W68431   5.548  36.952   5.120
96007W        W68432  37.832  23.696  11.136
96008W        W68433  18.196  13.005   1.855
96009W        W68434   3.343  12.064   4.832
96010W        W68435   3.651  23.962  11.151
96011W        W68436  40.946   8.720   3.299
96012W        W68437  41.991  25.148   0.932
96013W        W68438  36.171  32.508  14.716
96014W        W68439   7.610  44.940   2.612
96015W        W68440  37.060   8.383  14.462
96016W        W68441  43.418  21.498   2.757
96017W        W68442   7.611   2.977   0.688
96018W        W68443  10.846  37.594   3.272
96019W        W68444   8.206  24.241   1.857
96020W        W68445   5.250  23.207   3.241
96021W        W68446  29.125  37.921   5.043
96022W        W68447   2.728  35.942   1.682
96023W        W68448  25.695  28.560  11.591
96024W        W68449  32.452   6.434  14.370
96025W        W68450  32.245  17.839   0.202
96026W        W68451  32.115  21.753   3.442
96027W        W68452  20.316  31.317  13.970
96028W        W68453  37.470   9.533   2.886
96029W        W68454  42.426  19.673  13.561
96030W        W68455   7.774   1.506   3.279
96031W        W68456  31.511  13.846   9.924
96032W        W68457  27.772  34.863  12.430
96033W        W68458  32.525  36.509  11.988
96034W        W68459  31.171  16.110   4.671
96035W        W68460  12.646  40.433   1.395
96036W        W68461  13.198  26.332   0.837
96037W        W68462  20.803   9.819   5.048
96038W        W68463  21.965  43.773  10.510
96039W        W68464  15.793  10.466  10.920
96040W        W68465   3.019  40.974   0.155
96041W        W68466   5.594  14.546   4.179
96042W        W68467  23.692   5.819  14.440
96043W        W68468  36.948  14.260   1.904
96044W        W68469  36.082  33.790   0.904
96045W        W68470  18.204  28.352   4.315
96046W        W68471  26.377  41.851  12.403
96047W        W68472  32.998  11.739  12.886
96048W        W68473  24.173  14.713   3.228
96049W        W68474   9.905   4.158   1.698
96050W        W68475  10.516   9.571  10.204
96051W        W68476  24.725   7.075  13.462
96052W        W68477  38.271   5.263   4.596
96053W        W68478  24.988  15.715   4.431
96054W        W68479  36.938  16.170   1.735
96055W        W68480  12.424  31.230  11.111
96056W        W68481  30.502  28.906  11.008
96057W        W68482  16.073   5.312  10.457
96058W        W68483  10.487   7.761  14.673
96059W        W68484  36.471   9.922  10.737
96060W        W68485  43.420  35.093   4.130
96061W        W68486  29.705  36.548   2.751
96062W        W68487  27.267  18.603  11.250
96063W        W68488  28.403  32.111   1.844
96064W        W68489  30.830   8.300  12.048
96065W        W68490  41.808   8.339   3.888
96066W        W68491  33.500  27.523  11.500
96067W        W68492   5.697  16.647   3.940
96068W        W68493  20.904  33.549  11.394
96069W        W68494  11.865  30.392   1.853
96070W        W68495  24.182   4.723  11.677
96071W        W68496  30.678  44.946   3.588
96072W        W68497  15.089  15.127  12.005
96073W        W68498  41.865   7.564   3.331
96074W        W68499  41.205  28.030   2.242
96075W        W68500  34.731  17.427  13.535
96076W        W68501  30.943   5.556  14.850
96077W        W68502  25.035  44.351  14.595
96078W        W68503   2.979  16.743  11.478
96079W        W68504  35.113  11.156   0.202
96080W        W68505  38.908  17.469   5.182
96081W        W68506  23.119  31.957  13.778
96082W        W68507  30.844  28.544  11.998
96083W        W68508   2.212  10.191  13.214
96084W        W68509  40.485  42.582   0.223
96085W        W68510  11.321  39.897  14.754
96086W        W68511  26.616   7.067   3.425
96087W        W68512  11.873  37.063  12.223
96088W        W68513  14.232  30.129   0.375
96089W        W68514  43.977  37.589   3.341
96090W        W68515   2.298   8.877   0.830
96091W        W68516  43.455  22.273  12.587
96092W        W68517  42.339  15.189  13.341
96093W        W68518  27.728   2.836  12.334
96094W        W68519  43.260   1.435  12.889
96095W        W68520   6.457  16.311  10.715
96096W        W68521  23.460  28.570  13.171
96097W        W68522  20.482  23.667   1.293
96098W        W68523  41.773  28.924  10.452
96099W        W68524   4.389  16.432   4.692
96100W        W68525  11.891  14.034   2.471
96101W        W68526  32.172   5.034   3.392
96102W        W68527   8.898  18.117  10.717
96103W        W68528  12.235  23.764   4.960
96104W        W68529   5.662  43.071  12.560
96105W        W68530   8.710  33.560   3.245
96106W        W68531  37.975  13.175   3.849
96107W        W68532  22.825  12.122   4.669
96108W        W68533  17.048  10.389   3.229
96109W        W68534  12.182  24.149  11.122
96110W        W68535  43.803  38.603   0.445
96111W        W68536   6.658   6.908  11.110
96112W        W68537   6.943  16.695  13.076
96113W        W68538  28.401  32.376   0.010
96114W        W68539   8.154  11.322  11.086
96115W        W68540   3.971  28.938   3.638
96116W        W68541   5.029  16.961   5.036
96117W        W68542  10.801   7.966   0.037
96118W        W68543  32.221  21.742   1.708
96119W        W68544  39.455  15.812   2.401
96120W        W68545  35.767  29.552  12.582
96121W        W68546  31.443  31.127  11.635
96122W        W68547  41.079  30.985  14.329
96123W        W68548  44.233  30.227   2.125
96124W        W68549  26.588   9.819  14.935
96125W        W68550  25.902  27.822   2.913
96126W        W68551  23.070  35.583   1.619
96127W        W68552   4.418  33.031   1.446
96128W        W68553  11.108  31.710   1.346
96129W        W68554  39.632  44.789  11.587
96130W        W68555  11.863   7.224   3.644
96131W        W68556  14.335  44.017   1.657
96132W        W68557   4.286  18.156   3.061
96133W        W68558  32.815  38.783   3.400
96134W        W68559   9.868   8.218   9.840
96135W        W68560  17.853  39.395   1.325
96136W        W68561  36.257  16.770  11.118
96137W        W68562   3.229  35.369   3.378
96138W        W68563  12.057   4.700  10.595
96139W        W68564  19.743  44.811   4.092
96140W        W68565  17.636  28.994   0.327
96141W        W68566  44.733  11.483  14.534
96142W        W68567  41.413   9.453  11.714
96143W        W68568  20.301  21.707   1.411
96144W        W68569   8.196  22.987  10.557
96145W        W68570   8.466  26.674  11.110
96146W        W68571  19.195  19.681  12.597
96147W        W68572  31.891   7.803   4.515
96148W        W68573  21.592  26.632   1.961
96149W        W68574  20.956  36.372   0.818
96150W        W68575  16.409  27.249   2.437
96151W        W68576  35.978  43.250  14.422
96152W        W68577  10.293  41.553   4.673
96153W        W68578  39.084  35.477  13.346
96154W        W68579  37.457  38.442   3.776
96155W        W68580  24.421  25.014  13.453
96156W        W68581  42.887  16.898  14.035
96157W        W68582   9.109  11.425   4.631
96158W        W68583  21.178  21.482  10.971
96159W        W68584  12.430  15.619  13.855
96160W        W68585  31.807  34.498  13.885
96161W        W68586  18.276  40.539   3.078
96162W        W68587  23.582  33.587  14.083
96163W        W68588  23.082  43.714  14.345
96164W        W68589  14.111  40.407  12.911
96165W        W68590   8.688  14.783  14.039
96166W        W68591   6.867  29.501  12.920
96167W        W68592  35.899  26.437  12.461
96168W        W68593  26.751  33.576  11.150
96169W        W68594  19.830   5.865  10.692
96170W        W68595  13.235   7.280  12.149
96171W        W68596  36.012  15.544   2.231
96172W        W68597  10.378  33.531   4.871
96173W        W68598   6.475  31.508  10.687
96174W        W68599  19.527   4.551  11.255
96175W        W68600   0.301  17.729  11.414
96176W        W68601  27.172  21.453   0.569
96177W        W68602  41.933  28.111  11.105
96178W        W68603  23.889  38.517  11.127
96179W        W68604  13.322  38.940  14.430
96180W        W68605  14.242   0.759   4.916
96181W        W68606   0.548   6.902  10.547
96182W        W68607  29.614  21.758  10.605
96183W        W68608  13.056  26.963   4.327
96184W        W68609  35.486  34.864  12.640
96185W        W68610  23.085  20.554  14.265
96186W        W68611   8.077   2.835   0.906
96187W        W68612  26.111   4.109   4.737
96188W        W68613  37.785   2.442  12.443
96189W        W68614  15.113   3.310   4.557
96190W        W68615  30.370  44.376   1.156
96191W        W68616  10.321  19.293  10.456
96192W        W68617   2.950  36.217   4.560
96193W        W68618   0.323   7.370   2.817
96194W        W68619  12.079   5.480   1.707
96195W        W68620  26.142   4.200   0.477
96196W        W68621  30.475  32.995  12.371
96197W        W68622  22.469  11.635  11.157
96198W        W68623   9.048  38.905   2.187
96199W        W68624  34.902  36.408  14.777
96200W        W68625  14.512  22.574   1.901
96201W        W68626  24.299  36.551   4.699
96202W        W68627   1.869  17.692   2.307
96203W        W68628  26.242  26.633   4.857
96204W        W68629  25.057  27.394   0.487
96205W        W68630  28.336  12.614  11.932
96206W        W68631  32.364   7.854   2.745
96207W        W68632   8.695  31.148   0.623
96208W        W68633   5.857  32.479   0.203
96209W        W68634   3.900  27.049   4.912
96210W        W68635  12.258  38.735  11.127
96211W        W68636  12.687   9.289   3.592
96212W        W68637  40.909  12.125   4.592
96213W        W68638   2.269  15.284   4.391
96214W        W68639   0.675  23.196  10.830
96215W        W68640   0.298  30.540  12.465
96216W        W68641  10.485  15.035  14.465
96217W        W68642  25.703  30.876  13.872
96218W        W68643  19.273  27.924   4.236
96219W        W68644  29.442   8.616   2.905
96220W        W68645   4.026  25.715  14.012
96221W        W68646  42.536  40.923   0.789
96222W        W68647  31.902  15.153   9.787
96223W        W68648  17.168  34.946  14.007
96224W        W68649  30.105  44.012   3.278
96225W        W68650   6.387   4.516  13.114
96226W        W68651  37.939  30.181  14.722
96227W        W68652  26.006  44.007   4.323
96228W        W68653  44.371   2.396   2.748
96229W        W68654  20.370  18.677  12.930
96230W        W68655  32.018  32.502   1.064
96231W        W68656  20.603  41.483  11.470
96232W        W68657  32.497   0.317  14.560
96233W        W68658  13.914  32.066  12.990
96234W        W68659  18.831  23.172   1.312
96235W        W68660   6.326  19.167   3.828
96236W        W68661  34.902  43.733   3.726
96237W        W68662  33.568  39.498  11.149
96238W        W68663  27.502  12.276   1.722
96239W        W68664  40.436  26.493   1.560
96240W        W68665  39.762  41.930  13.744
96241W        W68666   1.769  42.864  13.775
96242W        W68667   2.947  38.121  14.427
96243W        W68668  18.574   7.631  13.388
96244W        W68669  44.799  35.041   2.818
96245W        W68670   3.359   8.419   5.073
96246W        W68671  16.546  17.838   0.385
96247W        W68672  16.684  15.254   4.290
96248W        W68673   3.236  37.532  11.987
96249W        W68674  21.406  23.670  10.491
96250W        W68675  21.382  42.778  11.470
96251W        W68676  41.029  41.327  12.905
96252W        W68677   7.475  36.857   3.684
96253W        W68678  32.965  22.999  11.163
96254W        W68679  40.102  12.910   3.787
96255W        W68680  28.781  31.800   1.431
96256W        W68681   1.400  17.064   0.763
96257W        W68682  14.051  34.455  10.838
96258W        W68683  32.220  10.610  13.551
96259W        W68684  21.003   5.825   1.595
96260W        W68685  31.635   2.861  14.879
96261W        W68686  28.910  29.921  12.145
96262W        W68687  37.983  43.984  13.921
96263W        W68688  12.140   9.667  14.834
96264W        W68689  38.523  21.673   2.894
96265W        W68690   8.855  41.879  13.580
96266W        W68691   8.218  22.703  14.312
96267W        W68692  23.892  23.778   0.472
96268W        W68693  15.556   0.986  10.188
96269W        W68694  24.049   8.279  12.414
96270W        W68695  32.830  33.680   1.242
96271W        W68696  43.292  35.859  12.576
96272W        W68697  28.117  39.350   1.330
96273W        W68698  41.831   2.309   3.220
96274W        W68699  12.236   1.710   0.307
96275W        W68700  32.464  41.818   4.568
96276W        W68701  41.630  32.549   2.258
96277W        W68702   8.909  19.607  10.187
96278W        W68703  14.798   7.249   0.530
96279W        W68704  32.612  42.218   2.194
96280W        W68705  16.195  20.012   3.489
96281W        W68706  19.200  12.380  12.094
96282W        W68707  43.757  22.488   4.135
96283W        W68708  27.096  12.988  13.357
96284W        W68709  36.046  23.556  12.633
96285W        W68710  13.973  22.978   0.368
96286W        W68711  34.020   4.385   1.746
96287W        W68712   5.296   5.911  11.525
96288W        W68713  17.791  13.107  12.960
96289W        W68714  26.255  41.268   4.044
96290W        W68715  24.299  18.060  11.905
96291W        W68716   2.833  44.688  14.408
96292W        W68717  43.974  15.131   2.588
96293W        W68718  17.607  33.005   4.084
96294W        W68719   8.057   4.578   2.284
96295W        W68720  11.314  44.671  12.906
96296W        W68721  29.146  42.335   0.367
96297W        W68722  18.691  40.438   3.368
96298W        W68723  34.446  31.413  11.562
96299W        W68724  40.946   9.071   1.845
96300W        W68725  26.887  33.733   0.355
96301W        W68726  23.083  20.331   0.959
96302W        W68727   6.013   9.191   3.963
96303W        W68728  16.365  43.143  12.078
96304W        W68729  23.696  34.387   4.399
96305W        W68730  29.621  11.561   3.590
96306W        W68731  38.121   6.076  11.042
96307W        W68732  18.887  18.708   0.269
96308W        W68733   2.588  31.108   2.406
96309W        W68734  33.105  13.348  10.382
96310W        W68735  38.246  19.302  14.935
96311W        W68736  34.158  41.250  13.434
96312W        W68737  39.302  23.185  13.669
96313W        W68738  27.589  24.525   1.691
96314W        W68739  21.749  18.004  12.123
96315W        W68740  40.915  34.504   1.165
96316W        W68741  43.365  23.693  13.556
96317W        W68742  15.961   4.870   0.577
96318W        W68743   0.442  23.287   0.747
96319W        W68744  44.173   8.375  12.693
96320W        W68745  23.252  43.287  10.741
96321W        W68746   0.150  26.918   3.555
96322W        W68747  22.023  19.091  10.690
96323W        W68748  20.307  10.092  12.442
96324W        W68749  23.678  12.342  13.332
96325W        W68750  27.247  34.394   3.414
96326W        W68751   0.783  10.766  14.446
96327W        W68752  19.766  34.992   5.130
96328W        W68753  23.684  32.149   3.384
96329W        W68754  18.097  44.880  14.078
96330W        W68755  35.988  14.557  12.694
96331W        W68756   4.324  38.586  10.658
96332W        W68757  37.910  28.087   1.932
96333W        W68758  14.616  39.925   1.189
96334W        W68759   3.038  12.521  13.016
96335W        W68760  42.706  28.931  10.789
96336W        W68761  27.089  24.564   4.924
96337W        W68762  13.319   8.817   5.002
96338W        W68763  13.909  39.503   2.220
96339W        W68764  16.601  19.530   3.187
96340W        W68765   4.380  37.789   1.250
96341W        W68766  44.536  40.431  14.370
96342W        W68767   1.333   7.316   1.152
96343W        W68768  16.369  26.245  13.537
96344W        W68769   3.676   0.294  11.131
96345W        W68770  41.075  11.139  14.431
96346W        W68771   6.274   4.445  14.458
96347W        W68772   7.813  37.187   5.462
96348W        W68773  12.062  23.991   2.901
96349W        W68774  23.012  28.751  13.994
96350W        W68775   7.315  24.582   0.762
96351W        W68776  28.345  34.072  13.733
96352W        W68777  30.863  26.076  14.902
96353W        W68778  12.107  19.041  11.128
96354W        W68779  14.578  42.377   2.825
96355W        W68780   3.115  30.980   0.434
96356W        W68781   1.893  27.400   1.514
96357W        W68782   1.704  31.466   2.290
96358W        W68783  15.273  40.871   0.093
96359W        W68784  23.059  23.982   1.725
96360W        W68785  44.175  35.113   4.053
96361W        W68786  11.149   9.824   2.331
96362W        W68787  18.652   9.266   0.012
96363W        W68788   7.581  40.342  12.929
96364W        W68789  12.997  35.220  14.436
96365W        W68790   7.412  43.303   3.217
96366W        W68791  14.866  40.465  13.446
96367W        W68792  43.939  43.177   3.218
96368W        W68793   7.815  27.388   3.664
96369W        W68794  42.376  42.679  11.541
96370W        W68795  18.847  32.179   4.240
96371W        W68796  11.111  17.640  13.508
96372W        W68797  34.946  16.693  12.102
96373W        W68798   3.288   1.044  11.667
96374W        W68799   1.611  44.094   0.256
96375W        W68800  17.581  38.131  11.927
96376W        W68801  18.786  10.641   3.655
96377W        W68802  22.861   9.255  11.913
96378W        W68803   5.301   4.446  11.555
96379W        W68804  31.208   3.307  14.079
96380W        W68805  28.917  21.138   4.688
96381W        W68806   0.255  18.602   0.487
96382W        W68807   2.178  34.931   0.789
96383W        W68808  16.321   4.673  12.630
96384W        W68809  29.341   2.779  12.804
96385W        W68810  27.889   4.378   0.953
96386W        W68811  16.853  22.684   3.689
96387W        W68812  21.060  38.395  14.516
96388W        W68813  20.642   5.010  12.025
96389W        W68814   4.343  33.867   0.700
96390W        W68815  37.435  27.588   3.969
96391W        W68816  30.577  33.453  11.734
96392W        W68817   3.360   5.748  11.475
96393W        W68818   9.452  40.020  13.912
96394W        W68819  18.030  17.615   4.099
96395W        W68820  39.827  25.570   4.569
96396W        W68821  12.779  11.691  11.743
96397W        W68822  11.787  43.485  11.776
96398W        W68823  37.017  13.592  14.459
96399W        W68824  35.245  37.041   4.208
96400W        W68825  24.584   3.802  11.157
96401W        W68826  32.379  15.224  14.549
96402W        W68827  20.252  37.955   3.906
96403W        W68828  35.966  28.198  12.059
96404W        W68829   2.882  27.026   0.213
96405W        W68830  41.764  43.278  14.718
96406W        W68831  26.867  31.313   3.706
96407W        W68832  26.270  37.099  11.194
96408W        W68833   7.872  20.114   1.847
96409W        W68834  14.680  26.004   3.527
96410W        W68835  15.264  17.738   1.283
96411W        W68836  21.696   8.100   2.646
96412W        W68837  23.744  34.497  11.537
96413W        W68838  41.426  27.821   3.592
96414W        W68839   3.393   7.221   3.391
96415W        W68840   8.930  11.241  11.550
96416W        W68841  29.533  32.561  11.294
96417W        W68842  34.812  14.184  12.431
96418W        W68843  33.524  33.390   1.293
96419W        W68844  42.534  14.067   3.270
96420W        W68845   3.973   2.368   0.918
96421W        W68846  26.684   5.343   0.478
96422W        W68847   8.350  28.966   0.655
96423W        W68848  25.786  23.178  12.497
96424W        W68849  44.862  28.464  12.097
96425W        W68850  17.565   8.426  14.751
96426W        W68851  44.804  39.264   4.888
96427W        W68852  16.982   0.403   0.501
96428W        W68853  25.902  23.645  13.546
96429W        W68854  32.379   3.017  11.172
96430W        W68855  42.908  36.735   2.814
96431W        W68856  30.359   0.195  11.254
96432W        W68857   6.151  15.005  11.935
96433W        W68858  16.814  26.332   2.317
96434W        W68859   4.776  36.255  13.460
96435W        W68860  16.035  25.833  13.553
96436W        W68861  18.367  34.000  13.555
96437W        W68862  36.971  14.236  12.500
96438W        W68863  38.452  11.854  10.574
96439W        W68864  35.641  40.014  11.382
96440W        W68865  34.183  26.951  13.029
96441W        W68866  11.423   1.511  14.595
96442W        W68867  40.495  42.131   2.251
96443W        W68868  26.087  33.590   0.841
96444W        W68869  25.083  44.919   4.498
96445W        W68870  38.822  37.075  13.751
96446W        W68871   9.286  21.205   2.757
96447W        W68872  40.830  38.873  12.492
96448W        W68873  43.944  28.515   2.298
96449W        W68874  34.442  22.735   3.268
96450W        W68875   4.994  21.622   1.667
96451W        W68876  11.754  41.468   1.382
96452W        W68877  12.470  42.763  11.677
96453W        W68878  20.734   0.326   1.708
96454W        W68879  37.419  19.888  11.625
96455W        W68880  36.649   5.395   1.508
96456W        W68881  44.384  23.003  11.621
96457W        W68882  38.312   8.688  14.013
96458W        W68883  40.918  17.959  12.412
96459W        W68884   4.398  30.469  13.875
96460W        W68885   0.449  10.724  10.998
96461W        W68886  40.377  43.028   1.373
96462W        W68887   9.744  41.366   1.806
96463W        W68888  34.968  14.250  10.573
96464W        W68889  16.221   9.184  13.534
96465W        W68890  32.184  30.789   3.232
96466W        W68891  43.918  42.962   2.763
96467W        W68892  16.207  38.429  14.471
96468W        W68893  29.264  21.854  13.574
96469W        W68894  28.507   3.425   4.561
96470W        W68895  28.625   7.619  11.102
96471W        W68896  20.662  35.907  12.446
96472W        W68897  39.406  11.321  12.615
96473W        W68898  38.018  29.139   2.733
96474W        W68899  32.055   8.682  12.506
96475W        W68900  19.615  41.363  13.721
96476W        W68901  18.065  34.459   4.646
96477W        W68902  40.986  15.501  14.171
96478W        W68903  39.903  44.361  11.533
96479W        W68904  16.821  40.361   0.290
96480W        W68905   7.012  11.674  11.448
96481W        W68906   9.477  33.427  14.925
96482W        W68907  35.120  21.046  12.523
96483W        W68908  40.832  40.650  13.262
96484W        W68909  15.195  22.767   3.176
96485W        W68910  40.352  33.575  14.742
96486W        W68911  17.694  34.062   3.089
96487W        W68912  38.820  38.908   2.741
96488W        W68913  23.738  29.507   3.210
96489W        W68914  24.461  31.217  12.600
96490W        W68915  42.382  23.271   4.859
96491W        W68916   3.409   0.343   2.750
96492W        W68917  18.638  16.290  12.458
96493W        W68918  31.631   8.901   2.313
96494W        W68919  21.168  23.238   2.886
96495W        W68920  15.263  22.351  12.445
96496W        W68921  11.228  10.486  11.094
96497W        W68922  21.860   9.657  13.442
96498W        W68923  30.533   9.074  14.426
96499W        W68924  40.533  14.972   2.669
96500W        W68925  22.310  33.189  12.832
96501W        W68926  18.080  14.216  11.642
96502W        W68927  19.231   3.679   1.269
96503W        W68928  30.119  20.241   0.814
96504W        W68929  22.631   4.886   4.032
96505W        W68930  33.944  23.389   4.034
96506W        W68931  21.937  38.452  14.349
96507W        W68932  39.917  28.266   2.901
96508W        W68933  32.512  21.766   3.116
96509W        W68934  32.078   7.647  13.401
96510W        W68935  33.607  29.278  12.016
96511W        W68936  19.450  18.297   3.576
96512W        W68937  20.985  26.551   5.142
96513W        W68938  33.452  20.018   5.000
96514W        W68939  14.187  11.272   2.644
96515W        W68940  18.728  12.026   2.546
96516W        W68941  30.078  43.288  14.025
96517W        W68942  20.994  13.118  10.161
96518W        W68943  35.089   8.278   0.278
96519W        W68944  25.607  10.303  12.358
96520W        W68945  30.664  43.821  14.401
96521W        W68946  27.448   2.424  14.890
96522W        W68947  32.091  21.508  13.918
96523W        W68948   2.244  24.041  13.539
96524W        W68949   3.907  30.381  13.011
96525W        W68950  36.941   4.589   3.685
96526W        W68951  31.462  21.064   0.435
96527W        W68952  33.489   8.969  13.706
96528W        W68953   7.802   3.650  14.310
96529W        W68954  24.490  10.724   1.896
96530W        W68955  26.890   1.041   0.335
96531W        W68956  24.995  35.973   4.771
96532W        W68957  34.176  32.973  12.050
96533W        W68958  21.651   5.262   1.357
96534W        W68959  18.117  13.480   0.247
96535W        W68960  39.087  23.692  12.020
96536W        W68961   8.801   8.686   1.030
96537W        W68962  36.358  15.172  14.876
96538W        W68963  12.087  27.608   0.308
96539W        W68964  21.730  35.401   3.709
96540W        W68965   3.509  24.456  11.111
96541W        W68966   1.928  32.013   4.054
96542W        W68967   5.706   4.831   4.405
96543W        W68968  43.751  12.531  11.566
96544W        W68969  32.970  32.646  12.452
96545W        W68970  25.026   3.987   1.347
96546W        W68971  10.655  16.247  11.124
96547W        W68972  42.408   4.126   4.917
96548W        W68973  19.343  22.535  12.074
96549W        W68974  15.599  23.313   1.172
96550W        W68975  29.778  39.528   0.480
96551W        W68976  33.019  11.261  12.614
96552W        W68977  18.033  32.176  11.357
96553W        W68978   8.522   1.969  11.153
96554W        W68979  16.699  27.181  10.618
96555W        W68980  29.473   6.155   0.315
96556W        W68981  37.164  11.687   0.740
96557W        W68982   0.741  26.526  11.069
96558W        W68983  28.422  35.052   2.793
96559W        W68984  16.647  37.103  14.483
96560W        W68985  21.485  11.877  11.983
96561W        W68986  31.441  36.085  10.655
96562W        W68987   4.874  13.621   1.952
96563W        W68988  25.123  41.096   2.629
96564W        W68989  28.911   9.769  12.247
96565W        W68990  21.720  28.032  11.377
96566W        W68991  19.288   1.287   1.159
96567W        W68992  14.626  10.152  14.673
96568W        W68993  33.460  12.364  11.913
96569W        W68994  13.054  26.158   1.742
96570W        W68995  13.495   5.196  14.401
96571W        W68996  14.140   4.323  11.422
96572W        W68997  26.769  22.841   3.217
96573W        W68998  42.343  44.436   1.111
96574W        W68999  24.359  37.130  13.021
96575W        W69000  41.870  23.668  14.132
96576W        W69001  43.198  41.268   4.325
96577W        W69002  16.251  35.642   2.688
96578W        W69003  15.560  43.770   2.219
96579W        W69004  31.379  18.204   2.891
96580W        W69005  12.128  20.490   4.611
96581W        W69006  17.713   0.452  10.125
96582W        W69007  42.466  26.725  14.403
96583W        W69008  21.114  34.951  11.460
96584W        W69009  34.045  25.769   1.454
96585W        W69010   4.493  24.242   0.031
96586W        W69011  10.334   5.079   2.124
96587W        W69012   0.002  32.878  13.358
96588W        W69013   3.995  28.353  12.340
96589W        W69014  27.929  20.744   1.868
96590W        W69015  15.121  19.488   3.985
96591W        W69016  28.659   7.812  11.598
96592W        W69017   1.907  30.352   3.930
96593W        W69018  33.815  39.810  10.538
96594W        W69019  36.972  20.055   4.903
96595W        W69020  33.199  16.318   3.865
96596W        W69021  39.395   3.661  13.412
96597W        W69022  43.844  33.573   2.375
96598W        W69023  18.746  32.459   9.823
96599W        W69024  11.128   5.895   2.560
96600W        W69025  17.286  36.944  12.529
96601W        W69026  27.135  24.690   3.884
96602W        W69027   7.876   3.139  14.396
96603W        W69028  40.624  30.013   1.951
96604W        W69029  39.811  20.801  10.438
96605W        W69030  17.281  35.385   4.053
96606W        W69031  44.997  13.959   1.916
96607W        W69032   9.296  43.832  11.684
96608W        W69033  38.852  40.495   2.408
96609W        W69034  11.396  26.166   3.093
96610W        W69035  32.817  20.126  12.751
96611W        W69036   4.833  22.736  14.700
96612W        W69037   2.904  16.317   0.640
96613W        W69038  26.686   9.206  12.967
96614W        W69039  35.547  32.674  11.599
96615W        W69040  21.093  25.657  13.398
96616W        W69041  24.424  33.558   3.243
96617W        W69042   3.315  29.635  10.809
96618W        W69043  16.822  34.597   2.998
96619W        W69044  31.432  26.704  13.468
96620W        W69045   4.470  23.981   2.532
96621W        W69046  43.143  14.228  11.632
96622W        W69047  32.449  23.309   1.079
96623W        W69048   2.702   0.840   3.867
96624W        W69049   1.656  17.588  10.600
96625W        W69050  20.604  43.456   3.216
96626W        W69051  14.032  27.256   0.531
96627W        W69052  27.752  34.688  14.458
96628W        W69053   0.890  16.767  14.736
96629W        W69054  31.570  30.924  14.538
96630W        W69055   5.777  24.725  13.798
96631W        W69056  34.131  27.176  12.514
96632W        W69057  18.746  26.678  13.417
96633W        W69058  44.030  15.209   4.042
96634W        W69059   3.893  22.110  13.046
96635W        W69060  23.891  35.333  13.838
96636W        W69061  12.300  44.763   4.247
96637W        W69062   4.901   2.726   3.646
96638W        W69063  29.743  12.862  11.933
96639W        W69064  22.560  14.759  10.458
96640W        W69065  10.825   4.439   1.489
96641W        W69066  23.042   6.908   1.360
96642W        W69067  25.305   2.870   4.906
96643W        W69068  13.793  24.565  13.939
96644W        W69069  44.947  40.765  14.821
96645W        W69070  22.541  16.567   4.120
96646W        W69071  27.646   4.881   9.979
96647W        W69072  37.963  42.400   3.254
96648W        W69073  16.676  35.552  12.028
96649W        W69074  31.517  43.392  11.949
96650W        W69075  43.434   1.940   4.116
96651W        W69076  14.629  39.503   4.435
96652W        W69077  37.589  33.026  14.054
96653W        W69078   9.672  37.093  13.081
96654W        W69079  19.569  10.213   1.318
96655W        W69080  18.847  43.845  12.311
96656W        W69081   3.915  35.741  10.975
96657W        W69082  31.068  10.834   3.718
96658W        W69083   3.039  14.133   0.728
96659W        W69084  31.066  33.365  14.024
96660W        W69085   3.773  34.964   2.203
96661W        W69086  14.090  24.451   0.368
96662W        W69087  41.900   7.939   1.266
96663W        W69088  43.948  34.431   3.308
96664W        W69089  43.359  13.108   3.808
96665W        W69090   2.611  31.605  14.823
96666W        W69091  19.562  42.731  13.962
96667W        W69092  38.083  13.885  13.726
96668W        W69093  38.341  44.441  13.445
96669W        W69094  42.887  31.448  13.930
96670W        W69095  36.528  16.104  10.632
96671W        W69096   0.323  20.288  11.695
96672W        W69097  34.208   1.667  12.060
96673W        W69098  32.544  13.122   3.591
96674W        W69099  38.587  18.167  13.080
96675W        W69100  29.873   4.746   0.392
96676W        W69101  29.109   4.681  14.904
96677W        W69102   3.467  36.117  13.411
96678W        W69103   9.773  20.156  14.976
96679W        W69104  14.308  35.214  12.134
96680W        W69105  44.584  25.649  13.893
96681W        W69106  26.073  43.045   4.271
96682W        W69107  39.996  21.569   4.349
96683W        W69108  18.854  14.462  12.651
96684W        W69109  43.167   1.302   1.743
96685W        W69110  22.241  25.241   2.148
96686W        W69111  29.928  14.363  11.540
96687W        W69112   3.780   5.133  10.363
96688W        W69113  26.130   4.381  12.932
96689W        W69114  17.272  36.902  12.007
96690W        W69115   3.151  43.345  13.222
96691W        W69116  16.885  25.401   3.426
96692W        W69117  15.104  38.985  10.555
96693W        W69118  17.275  28.886  14.969
96694W        W69119   3.963  42.418  13.880
96695W        W69120  21.830  22.511   4.803
96696W        W69121  12.273   8.694   3.230
96697W        W69122  39.673  10.206   2.159
96698W        W69123  42.623   4.072  12.888
96699W        W69124   1.447   2.473  11.658
96700W        W69125  30.609  30.871   0.585
96701W        W69126  24.255  28.905  12.337
96702W        W69127   7.219  30.475   2.258
96703W        W69128  40.568  37.480  11.546
96704W        W69129  33.140  24.040   2.782
96705W        W69130  43.849   9.018   0.757
96706W        W69131   6.232  24.730   0.398
96707W        W69132  22.038  18.706  11.730
96708W        W69133  38.467   7.670   4.578
96709W        W69134  29.981  40.748   3.837
96710W        W69135   8.984  42.995  12.096
96711W        W69136   7.662  11.579  12.300
96712W        W69137  33.891  36.328  12.820
96713W        W69138  35.800  29.048   1.589
96714W        W69139  14.747  11.769  11.527
96715W        W69140  11.062  34.619  12.892
96716W        W69141   9.781  36.700  14.882
96717W        W69142   9.375  16.532  14.144
96718W        W69143  26.615  23.849  14.745
96719W        W69144  32.869  39.819  10.692
96720W        W69145  22.903  28.533   3.476
96721W        W69146  12.729  17.703  13.989
96722W        W69147  15.223  44.729  10.577
96723W        W69148  28.370   6.197  12.079
96724W        W69149  43.463  26.587   3.239
96725W        W69150  42.780  43.665  14.490
96726W        W69151  12.644   9.590  14.858
96727W        W69152   7.567  24.041  12.096
96728W        W69153  15.805  33.417   1.754
96729W        W69154  24.638   9.759  11.562
96730W        W69155  30.911  27.601   1.309
96731W        W69156  19.720   4.595   3.610
96732W        W69157  16.193  44.292   9.922
96733W        W69158  41.786  44.224  14.707
96734W        W69159   5.370  13.019   4.205
96735W        W69160  20.728  32.321   0.401
96736W        W69161  28.213  23.902   2.698
96737W        W69162  23.828   5.033  14.738
96738W        W69163  14.149   8.699  14.248
96739W        W69164  27.990   0.296  12.838
96740W        W69165  26.624  26.156   2.341
96741W        W69166  26.994   4.226   2.326
96742W        W69167  35.032   2.619   4.814
96743W        W69168  38.056  20.213   0.463
96744W        W69169   4.656  32.927   4.076
96745W        W69170  42.343  42.007   2.082
96746W        W69171  12.198  22.998  10.953
96747W        W69172  24.070  28.500  12.054
96748W        W69173  24.094   2.007  12.119
96749W        W69174  21.899  14.127  10.559
96750W        W69175   2.948  40.347   2.740
96751W        W69176   0.376  42.831   4.838
96752W        W69177  35.334  13.302  12.562
96753W        W69178   4.211   0.803   2.773
96754W        W69179   4.491  30.227   1.438
96755W        W69180  29.345   0.075   2.929
96756W        W69181   0.039   7.293   4.041
96757W        W69182  13.329  40.867  12.138
96758W        W69183  37.225  25.215  14.422
96759W        W69184  19.947   1.272  11.389
96760W        W69185  15.142  37.057   1.462
96761W        W69186   7.548  11.323  10.075
96762W        W69187  31.407  42.387  11.861
96763W        W69188  41.346  27.411  13.533
96764W        W69189  20.442  43.871   0.354
96765W        W69190  35.174  23.888   4.642
96766W        W69191  19.529  18.247  10.784
96767W        W69192  27.088  12.756  12.011
96768W        W69193  32.993  14.335  13.578
96769W        W69194  12.305  26.030  14.509
96770W        W69195   4.223  24.767   1.438
96771W        W69196  23.482  14.116   2.864
96772W        W69197  22.760  25.030  13.131
96773W        W69198  26.491  41.364  12.609
96774W        W69199  25.213  24.604   4.240
96775W        W69200   4.273  29.976   1.843
96776W        W69201  26.975   8.442   1.232
96777W        W69202  14.816  36.957   4.312
96778W        W69203  37.790   7.383  12.862
96779W        W69204   9.073   9.739  11.336
96780W        W69205  43.026  35.561  12.272
96781W        W69206  16.795  24.705   1.018
96782W        W69207  36.577  25.097  12.100
96783W        W69208  28.665   2.040   4.695
96784W        W69209  13.119  27.990   4.228
96785W        W69210  13.866  10.601   3.639
96786W        W69211   3.869  38.105  13.446
96787W        W69212   3.412   2.277  14.413
96788W        W69213  34.151  32.131   0.328
96789W        W69214   2.677  24.031   3.694
96790W        W69215  33.641   4.802   0.730
96791W        W69216   7.887   8.344  14.324
96792W        W69217  24.700  23.469  11.535
96793W        W69218  24.649  31.147   4.161
96794W        W69219  11.683  40.564   1.082
96795W        W69220  26.836  44.326  12.049
96796W        W69221   4.736  28.073  11.101
96797W        W69222  44.483   3.656   0.370
96798W        W69223  21.000  14.273  13.500
96799W        W69224  11.196   2.488   0.931
96800W        W69225  32.061  10.961  12.095
96801W        W69226   3.895  41.131  14.864
96802W        W69227  11.400   6.731   0.288
96803W        W69228  24.674   9.045   4.146
96804W        W69229   7.339  20.752   1.498
96805W        W69230  36.814  37.541   3.122
96806W        W69231   1.805  36.350  10.986
96807W        W69232  24.290  27.588  14.318
96808W        W69233  32.154  10.692  12.541
96809W        W69234  26.243  27.166   4.948
96810W        W69235   4.956   1.356  14.423
96811W        W69236  11.932  30.662   4.208
96812W        W69237  32.476  26.623  10.730
96813W        W69238   9.879  35.599  11.247
96814W        W69239   7.715   7.929  13.017
96815W        W69240   2.151   2.179  14.286
96816W        W69241  28.454  14.707   1.018
96817W        W69242  16.600  44.313  12.581
96818W        W69243   4.771  10.772  14.217
96819W        W69244   4.248  26.217  12.631
96820W        W69245  23.090  10.120   3.009
96821W        W69246  37.975  13.505   0.242
96822W        W69247  31.180   7.075   3.281
96823W        W69248  41.011  30.608   0.456
96824W        W69249  19.630  37.931   3.178
96825W        W69250  10.742  26.692  10.543
96826W        W69251  21.073  27.676  12.586
96827W        W69252  20.048  35.228   1.941
96828W        W69253  34.682   0.863   2.660
96829W        W69254  26.413  10.684   2.203
96830W        W69255  36.108  44.886   0.837
96831W        W69256  20.675  22.608   3.244
96832W        W69257  35.982  10.958   3.761
96833W        W69258   8.980  18.505  13.429
96834W        W69259  20.523  42.369   1.271
96835W        W69260   9.061  22.663  13.290
96836W        W69261   4.962  27.473   3.572
96837W        W69262   1.768  40.838   0.832
96838W        W69263  43.310  14.233   5.148
96839W        W69264  39.743  22.208   4.023
96840W        W69265   6.150   9.179   1.741
96841W        W69266   9.656  11.137   3.977
96842W        W69267  29.000  42.542   1.295
96843W        W69268  15.130  16.245   4.069
96844W        W69269  33.724  11.700   1.646
96845W        W69270  33.090  18.695  13.089
96846W        W69271  42.306  40.837  14.423
96847W        W69272  16.757  31.925  14.515
96848W        W69273  44.634   0.274   9.819
96849W        W69274  33.924   7.711  12.188
96850W        W69275  11.241  18.817  13.880
96851W        W69276  22.558   0.164  14.500
96852W        W69277   8.894  35.164  14.383
96853W        W69278  15.710   0.367   5.420
96854W        W69279  42.882  15.505   2.880
96855W        W69280  23.626  16.668  11.429
96856W        W69281   3.164  23.549  10.045
96857W        W69282  25.714  28.684   2.844
96858W        W69283   6.373  33.836   3.742
96859W        W69284  15.511  13.341   0.830
96860W        W69285  37.483  18.279   5.192
96861W        W69286  37.823  40.024   1.717
96862W        W69287  39.149  31.792  14.023
96863W        W69288  26.956   1.229  14.332
96864W        W69289  38.440   0.619   3.415
96865W        W69290  29.041  24.160  10.969
96866W        W69291   0.748  24.239   2.014
96867W        W69292  10.090  33.891  10.622
96868W        W69293  34.595  43.298  11.129
96869W        W69294  39.033  26.158  12.376
96870W        W69295   0.196  43.624  13.580
96871W        W69296  29.708  23.745  14.944
96872W        W69297  36.509  30.332  10.859
96873W        W69298   7.124  27.953   4.531
96874W        W69299  13.941  42.391   0.040
96875W        W69300   5.300  42.292  10.819
96876W        W69301  27.904   6.376  11.935
96877W        W69302  31.697  41.466   3.330
96878W        W69303   3.482   7.511   1.420
96879W        W69304  37.824  39.038  11.092
96880W        W69305   9.384   8.475   9.830
96881W        W69306  37.047  43.013  11.095
96882W        W69307  43.859  30.166   1.637
96883W        W69308  24.125  15.179  12.564
96884W        W69309  34.154  37.463   0.412
96885W        W69310  26.422  44.409  13.349
96886W        W69311  13.587  29.553   3.900
96887W        W69312  11.360  41.206   2.427
96888W        W69313  16.705  27.774   1.566
96889W        W69314  10.980  32.661   4.275
96890W        W69315  10.055   2.166   0.114
96891W        W69316   9.426  10.152  14.325
96892W        W69317   4.625  38.077  13.008
96893W        W69318  12.492   9.391  12.241
96894W        W69319  41.793  27.486  13.780
96895W        W69320  15.249  12.909   0.958
96896W        W69321  12.745  34.143  13.815
96897W        W69322   8.322  11.610  14.568
96898W        W69323  43.535  42.270  14.740
96899W        W69324   6.360  10.709   0.776
96900W        W69325  37.619  28.538  14.333
96901W        W69326  34.465   7.673   4.676
96902W        W69327  32.046  24.117   0.476
96903W        W69328   6.652  30.533  11.789
96904W        W69329   0.356   7.897  14.448
96905W        W69330  40.943  15.183   2.425
96906W        W69331  27.993  42.598  13.626
96907W        W69332  32.009  23.219   1.344
96908W        W69333  14.071  26.102  14.855
96909W        W69334  40.260  24.950  13.195
96910W        W69335  39.585  16.521   4.103
96911W        W69336  15.101  18.818  11.755
96912W        W69337  39.769  33.564   1.887
96913W        W69338  33.031  39.981  12.459
96914W        W69339  15.348  36.856  10.446
96915W        W69340  29.050  40.200   1.574
96916W        W69341  13.307  33.552  14.456
96917W        W69342   7.424   7.351   0.968
96918W        W69343  38.985  40.231   0.513
96919W        W69344  42.800  17.663   3.615
96920W        W69345  30.658   1.916  10.246
96921W        W69346  44.796  33.553  10.729
96922W        W69347   7.956   8.274   0.838
96923W        W69348  31.610  41.606  12.154
96924W        W69349  13.062  39.532   0.842
96925W        W69350  22.167  29.209  14.249
96926W        W69351  43.760  27.808  14.355
96927W        W69352  44.953  33.069  10.676
96928W        W69353  11.409  30.993  14.763
96929W        W69354  28.971  36.364   4.653
96930W        W69355   9.871  10.766   2.718
96931W        W69356   1.514  18.869  10.847
96932W        W69357  42.882  41.732  13.266
96933W        W69358   8.139  20.552  14.447
96934W        W69359   9.305   6.522   2.312
96935W        W69360   2.551  30.103   3.239
96936W        W69361   1.472  18.471   0.885
96937W        W69362  37.546  10.923   4.117
96938W        W69363  27.101  31.377   0.298
96939W        W69364   1.634  31.130   0.305
96940W        W69365  27.015  14.229   4.646
96941W        W69366  31.854  33.606  11.394
96942W        W69367  41.137  20.989   3.165
96943W        W69368  12.314  26.975   2.827
96944W        W69369  33.092  34.515  12.873
96945W        W69370  17.135  24.152  13.398
96946W        W69371   7.809  42.726  14.665
96947W        W69372  31.809  32.599   1.524
96948W        W69373  10.704  31.910   1.925
96949W        W69374   3.141  37.991  13.958
96950W        W69375   8.268   5.063  12.478
96951W        W69376  23.282  26.260  10.980
96952W        W69377   1.337  39.258   3.985
96953W        W69378  39.259  37.889  12.543
96954W        W69379  34.318  33.398  10.605
96955W        W69380  28.133  26.759  11.464
96956W        W69381  24.615  43.996  14.919
96957W        W69382   0.627  29.257   0.509
96958W        W69383  44.518  38.986  11.947
96959W        W69384  21.251  10.373   0.927
96960W        W69385  36.596  14.584   0.698
96961W        W69386  33.358  15.604  11.591
96962W        W69387   6.146  40.887  13.538
96963W        W69388  12.735   4.155  14.019
96964W        W69389   8.248  37.743  12.953
96965W        W69390   2.748   2.777   1.748
96966W        W69391  36.302  32.787  11.849
96967W        W69392  10.158  26.008  10.584
96968W        W69393  19.997  31.327  11.603
96969W        W69394   7.456  40.009  10.969
96970W        W69395   9.856  35.191   5.605
96971W        W69396  33.569  12.448   0.015
96972W        W69397   8.104  24.167   4.838
96973W        W69398  13.383  21.807   5.580
96974W        W69399  12.090  28.002   4.166
96975W        W69400  10.418  30.122   4.402
96976W        W69401  27.414  20.724   1.857
96977W        W69402  32.117  32.092   2.700
96978W        W69403  28.388  11.990   4.081
96979W        W69404   0.943  12.318   4.614
96980W        W69405  22.692  27.551   4.476
96981W        W69406  30.576   4.587  12.052
96982W        W69407  26.728  31.596  12.062
96983W        W69408   8.915  10.394   0.382
96984W        W69409  25.045  19.242   2.268
96985W        W69410  41.059  26.128   0.054
96986W        W69411  10.843  25.917   2.161
96987W        W69412  40.875  19.461   2.689
96988W        W69413  18.266  40.936  12.954
96989W        W69414   4.915  32.526   0.933
96990W        W69415  13.742   9.831  14.062
96991W        W69416  17.569  19.390   3.255
96992W        W69417   9.084  19.041   3.255
96993W        W69418  19.591  33.972  14.578
96994W        W69419  16.069  19.086   4.724
96995W        W69420  13.644  37.038  12.471
96996W        W69421  40.804   9.309   1.381
96997W        W69422  25.154  20.298  11.107
96998W        W69423   9.347  43.762  12.187
96999W        W69424  18.610  28.731   3.170
97000W        W69425  23.251  43.336  12.174
97001W        W69426  30.979  41.005   0.842
97002W        W69427  17.656  26.968  10.326
97003W        W69428  32.487  25.578   3.660
97004W        W69429  43.770  21.684  14.595
97005W        W69430  28.487  20.075   2.865
97006W        W69431  43.011  18.173   0.424
97007W        W69432  36.922  10.986  12.009
97008W        W69433  44.353  37.447  12.835
97009W        W69434  16.746  33.877   2.350
97010W        W69435   6.685   6.248  12.629
97011W        W69436   5.189  34.137   3.082
97012W        W69437   3.037  17.589  12.368
97013W        W69438  38.318  44.456   4.092
97014W        W69439  38.572  27.988  12.124
97015W        W69440  38.815   1.449   1.923
97016W        W69441  24.755  25.307   0.949
97017W        W69442  30.651  29.085   4.553
97018W        W69443  21.908  30.538   3.147
97019W        W69444  42.700  34.588  10.158
97020W        W69445  44.384   2.003   1.484
97021W        W69446  41.963  23.186  14.338
97022W        W69447  19.554  11.097  14.854
97023W        W69448  23.951   7.186  12.432
97024W        W69449  31.963  33.634  13.850
97025W        W69450  14.213  38.916   1.807
97026W        W69451   0.738  19.077   0.986
97027W        W69452   2.864  39.972   4.474
97028W        W69453  10.403  39.548   1.719
97029W        W69454  38.501  32.977  11.947
97030W        W69455  37.853  23.648   1.769
97031W        W69456  19.042  42.603  10.678
97032W        W69457   2.021  26.439   1.109
97033W        W69458  18.615  11.083   3.847
97034W        W69459  42.502  13.250  14.000
97035W        W69460  10.248  34.500  13.847
97036W        W69461  35.506  14.299  11.862
97037W        W69462  24.500  42.513   0.923
97038W        W69463   9.503  42.111   2.868
97039W        W69464  16.324  13.580  13.743
97040W        W69465   0.861   7.793  14.533
97041W        W69466  24.902   3.475   1.366
97042W        W69467  21.525  31.566  13.077
97043W        W69468  38.773  13.780  12.884
97044W        W69469  27.399  12.705  11.037
97045W        W69470  15.602  34.447  12.912
97046W        W69471  14.224   4.255   0.502
97047W        W69472   2.738  34.583   3.209
97048W        W69473  23.613   2.161  12.077
97049W        W69474  26.569  30.494   4.609
97050W        W69475  21.032  42.018  12.130
97051W        W69476  10.484  24.095   2.154
97052W        W69477  31.937   7.370   0.527
97053W        W69478  30.682  17.107  11.077
97054W        W69479  19.109  39.769  13.340
97055W        W69480  44.259  20.555   0.744
97056W        W69481  42.065  30.914   2.919
97057W        W69482  40.624  34.077   0.454
97058W        W69483   1.200  22.376   4.050
97059W        W69484  18.775   5.684   4.738
97060W        W69485  32.644  11.370   0.920
97061W        W69486   7.318  36.873  13.943
97062W        W69487   0.427  25.107  14.385
97063W        W69488  13.856  40.059   2.961
97064W        W69489  36.430  33.843  12.884
97065W        W69490   7.701  29.552   2.643
97066W        W69491   7.560  38.472  11.153
97067W        W69492  16.390  29.074   0.822
97068W        W69493  12.066  12.409   4.635
97069W        W69494  29.883   9.880  11.891
97070W        W69495  31.574  28.832  12.407
97071W        W69496  39.535   6.465  12.880
97072W        W69497  34.352  26.736  12.044
97073W        W69498  33.598  31.638   4.715
97074W        W69499  23.942  44.988  12.891
97075W        W69500  27.503   3.328   1.238
97076W        W69501  13.079  21.703  14.085
97077W        W69502  29.621   9.914  13.065
97078W        W69503  30.400  41.404  11.592
97079W        W69504  35.038  42.383  13.076
97080W        W69505  25.394  23.749  13.547
97081W        W69506  37.713   0.835  13.379
97082W        W69507  41.105  12.546  12.504
97083W        W69508  20.192  13.262   1.720
97084W        W69509   5.700  15.309   3.790
97085W        W69510  22.288  44.416  14.009
97086W        W69511   5.758   7.206  13.329
97087W        W69512   2.293  26.437   3.716
97088W        W69513  21.235  18.726  14.532
97089W        W69514  40.533  41.295  11.239
97090W        W69515   3.676   5.503   1.741
97091W        W69516  35.160  32.878  13.022
97092W        W69517   2.573  24.628  11.532
97093W        W69518  36.961   0.459  11.944
97094W        W69519   6.383  21.159   3.638
97095W        W69520  10.213  31.871  12.050
97096W        W69521  17.678  15.339  12.837
97097W        W69522  21.185   1.676   4.643
97098W        W69523   6.310  12.795   0.383
97099W        W69524  31.567  28.456  12.761
97100W        W69525  44.478  16.296   0.738
97101W        W69526   9.158  24.589  13.864
97102W        W69527  20.212  34.420   0.985
97103W        W69528  36.428  24.270  13.635
97104W        W69529  24.534  23.874  12.455
97105W        W69530   5.260  16.918   1.697
97106W        W69531  32.651  27.480   2.875
97107W        W69532   7.901  25.748   3.753
97108W        W69533  43.366  26.765   2.335
97109W        W69534  15.682  40.422  12.352
97110W        W69535  19.510  16.151   0.363
97111W        W69536  26.503  11.378   3.852
97112W        W69537  21.493  15.723  10.719
97113W        W69538  24.479  25.160  10.897
97114W        W69539  43.065   8.109   4.583
97115W        W69540  27.890  34.834  11.641
97116W        W69541   1.256  34.835   1.258
97117W        W69542  44.041  43.479   2.808
97118W        W69543  37.006   8.919  13.931
97119W        W69544  12.154   2.763  12.548
97120W        W69545  30.734  12.226   2.022
97121W        W69546  41.884  10.666  12.966
97122W        W69547  13.440  42.509  14.985
97123W        W69548   1.200  25.011   0.442
97124W        W69549  21.132  44.052  10.993
97125W        W69550  27.253  39.349  12.460
97126W        W69551  37.722   3.809  11.609
97127W        W69552  37.576   8.126   1.249
97128W        W69553   9.359   5.525   3.656
97129W        W69554   9.059  17.786  13.792
97130W        W69555  43.506  42.836  10.556
97131W        W69556  13.797  36.854   4.680
97132W        W69557   2.200   3.564   4.660
97133W        W69558   5.873  31.449   2.302
97134W        W69559  44.254  21.243   3.167
97135W        W69560  34.806   7.710  13.464
97136W        W69561   6.224  26.953   0.912
97137W        W69562  40.630  44.658  11.538
97138W        W69563  42.527   2.250   4.773
97139W        W69564   1.485  15.815   3.235
97140W        W69565   5.750  44.301  13.428
97141W        W69566  35.575  20.614   4.678
97142W        W69567  30.357  41.352  12.402
97143W        W69568  35.843  28.885   3.585
97144W        W69569  15.601  32.159  11.912
97145W        W69570  44.802   2.217   1.771
97146W        W69571  33.481  20.200  11.498
97147W        W69572   5.968  33.550   1.731
97148W        W69573  12.691  42.451  10.765
97149W        W69574   5.870   1.996   0.781
97150W        W69575  43.277  40.250  14.832
97151W        W69576  37.136   9.246  11.595
97152W        W69577  12.237   9.679   0.710
97153W        W69578  17.876   3.699  13.078
97154W        W69579   5.881  31.192   0.778
97155W        W69580  39.996  24.100  13.102
97156W        W69581   4.457  33.683   4.145
97157W        W69582  18.741  22.459   3.667
97158W        W69583  27.925  40.152  12.445
97159W        W69584  20.750  36.829   0.614
97160W        W69585  33.445  20.125   1.967
97161W        W69586   7.303  23.828   4.888
97162W        W69587   7.826  44.345  12.190
97163W        W69588  33.785  15.798  12.490
97164W        W69589  31.043  31.319  10.513
97165W        W69590  24.606  40.500  10.750
97166W        W69591  42.215  21.723   1.718
97167W        W69592  12.757  42.604  13.945
97168W        W69593  44.249   9.469  12.105
97169W        W69594   4.965  16.652  11.207
97170W        W69595  43.895  36.443  12.873
97171W        W69596  35.921  26.446   4.674
97172W        W69597  35.168  14.776  14.447
97173W        W69598  13.559  37.958   3.823
97174W        W69599  19.257   9.292  13.800
97175W        W69600  31.380  29.925  14.811
97176W        W69601  26.550  27.658  13.979
97177W        W69602  18.034  29.074  13.439
97178W        W69603   2.662  26.976  13.432
97179W        W69604  10.932  28.691  12.325
97180W        W69605  28.894   8.145   3.616
97181W        W69606  29.389  43.181  14.549
97182W        W69607  22.155   1.722   4.593
97183W        W69608  30.869  42.926   1.241
97184W        W69609  44.854  35.139  14.934
97185W        W69610   2.533  34.122   3.352
97186W        W69611  24.847  44.778   0.364
97187W        W69612   8.151  26.495  14.730
97188W        W69613  41.563   9.061   4.367
97189W        W69614  19.500  41.646  13.316
97190W        W69615  32.074  33.629  10.794
97191W        W69616  24.535  39.425  10.981
97192W        W69617  11.746  23.039   2.267
97193W        W69618  34.376  42.766  14.049
97194W        W69619  13.597  21.568   4.089
97195W        W69620  40.941  37.774  13.434
97196W        W69621  11.447  24.557   0.852
97197W        W69622   3.970  13.219  12.080
97198W        W69623  40.733   8.336   0.848
97199W        W69624  14.821  15.271  10.759
97200W        W69625  31.172  34.877  13.955
97201W        W69626  11.816  43.937   4.617
97202W        W69627   6.702  41.331   0.211
97203W        W69628  36.003  36.615  13.305
97204W        W69629  27.307   7.727   2.690
97205W        W69630  41.215  10.917   3.304
97206W        W69631  17.514  42.547   3.333
97207W        W69632  12.052   7.262   2.580
97208W        W69633  20.837  28.482  11.470
97209W        W69634  19.807   1.026   2.660
97210W        W69635  12.096  24.605  11.628
97211W        W69636  15.482   0.923   2.931
97212W        W69637  17.326  31.544   4.523
97213W        W69638  12.374  16.256   4.176
97214W        W69639  23.520  27.072  10.649
97215W        W69640  25.480  35.644   4.510
97216W        W69641  30.897  12.618  13.851
97217W        W69642  21.416  34.346   1.299
97218W        W69643  11.154  36.801   4.190
97219W        W69644  22.553  43.492  13.733
97220W        W69645   4.929   3.217   1.369
97221W        W69646   1.996  14.537  14.601
97222W        W69647   4.945   2.755  14.078
97223W        W69648  17.419   4.979   4.916
97224W        W69649  39.916  29.495   4.879
97225W        W69650  40.315  23.957   3.054
97226W        W69651  32.305  18.294   2.943
97227W        W69652   4.319  18.700   2.936
97228W        W69653  22.234  17.297   4.207
97229W        W69654  18.691  20.740   3.127
97230W        W69655   3.311  32.176   3.299
97231W        W69656  18.717   4.988   1.208
97232W        W69657  31.453  33.397  11.624
97233W        W69658  33.870  24.102  11.951
97234W        W69659  28.696  19.511  14.822
97235W        W69660  42.382  10.692  10.834
97236W        W69661  13.777  42.418  10.555
97237W        W69662  29.982  43.395  13.004
97238W        W69663  12.238   1.030   0.771
97239W        W69664  36.161  39.492  10.555
97240W        W69665  14.607  31.085  14.847
97241W        W69666   9.435  14.666  13.277
97242W        W69667  21.143  22.703   1.665
97243W        W69668  17.204  17.308   0.868
97244W        W69669  17.983   3.710   2.422
97245W        W69670   0.014  25.944   1.315
97246W        W69671  25.378   3.941   4.272
97247W        W69672  27.138  23.292   4.803
97248W        W69673  24.584  44.791  11.645
97249W        W69674  24.421  14.986  14.846
97250W        W69675  35.818  38.676  11.069
97251W        W69676  16.697  16.154  13.345
97252W        W69677   7.863  12.761  14.012
97253W        W69678  36.859  21.621   0.024
97254W        W69679  16.169  15.872  12.572
97255W        W69680   2.352  25.633  11.860
97256W        W69681  21.004   7.091   3.299
97257W        W69682  37.144  36.020   4.686
97258W        W69683  43.840  35.927   1.786
97259W        W69684  32.510  38.886   0.795
97260W        W69685  36.481  10.162   4.550
97261W        W69686  25.475  31.380   3.273
97262W        W69687  39.179  31.148  11.326
97263W        W69688   6.714   9.166  12.929
97264W        W69689  35.576   3.288   3.316
97265W        W69690   2.465  13.676   0.413
97266W        W69691  32.886  31.547   0.392
97267W        W69692  20.028  29.148   2.337
97268W        W69693  31.580   9.952   1.203
97269W        W69694  26.031  27.081   0.209
97270W        W69695   0.758  18.579   0.387
97271W        W69696   0.442  21.453  12.505
97272W        W69697  33.388  20.443   1.350
97273W        W69698  21.344   3.308  10.737
97274W        W69699   9.367  20.566   3.265
97275W        W69700  12.277  25.174  12.330
97276W        W69701   8.741  25.147   1.670
97277W        W69702  15.594  31.401  14.301
97278W        W69703   0.114  23.990  14.916
97279W        W69704  38.573   0.163   2.708
97280W        W69705   3.309  37.978   1.346
97281W        W69706  22.485   4.803  11.503
97282W        W69707   5.830  44.741   3.275
97283W        W69708  21.941  39.462   2.210
97284W        W69709  16.124  31.400  13.509
97285W        W69710  32.092  28.972  11.069
97286W        W69711  10.113  28.363   0.250
97287W        W69712  11.613  35.456   3.764
97288W        W69713  26.679  28.011   0.969
97289W        W69714  36.834  33.252   2.863
97290W        W69715  25.228  10.376  14.861
97291W        W69716  28.013  42.721   4.628
97292W        W69717  37.389  38.051   1.336
97293W        W69718  29.461  25.637   3.331
97294W        W69719  34.109  40.500  14.484
97295W        W69720  24.089  10.328   3.885
97296W        W69721  18.287  18.654  12.973
97297W        W69722   7.330  31.624  11.051
97298W        W69723  21.715  39.045  12.571
97299W        W69724  29.956   4.312  13.392
97300W        W69725   6.859  26.451  12.809
97301W        W69726  41.791  38.529   3.194
97302W        W69727  34.709  17.745   0.454
97303W        W69728  15.897  30.598   2.907
97304W        W69729  38.590  33.617   2.351
97305W        W69730  25.202   0.378   3.169
97306W        W69731  42.975  14.762  10.618
97307W        W69732   1.136  23.199   2.339
97308W        W69733  41.034  22.958  13.402
97309W        W69734  17.276  35.921  10.752
97310W        W69735  11.648  14.672  10.761
97311W        W69736  18.281  36.596  13.107
97312W        W69737  28.148  12.163   2.380
97313W        W69738  10.342  44.522   3.734
97314W        W69739  39.194   3.208   0.618
97315W        W69740   5.030   6.340  11.588
97316W        W69741   7.350  36.649  13.476
97317W        W69742  42.458  11.688  13.530
97318W        W69743  43.206  16.083   1.284
97319W        W69744   0.023  40.457  12.810
97320W        W69745  39.436  15.255  14.407
97321W        W69746  31.517  43.705   3.289
97322W        W69747  11.473  12.339  13.070
97323W        W69748  15.742  43.599  12.463
97324W        W69749  43.999  17.151  11.328
97325W        W69750   4.715  16.312  11.966
97326W        W69751  14.498   5.462  13.985
97327W        W69752  33.563  34.379   2.303
97328W        W69753  43.591   9.694   0.933
97329W        W69754  26.791   1.863   0.529
97330W        W69755  40.322   5.297   0.376
97331W        W69756  19.110  24.187  12.711
97332W        W69757   2.244  41.633  10.178
97333W        W69758   7.126  30.217   0.908
97334W        W69759  36.495  31.173   4.523
97335W        W69760  40.076  18.078  13.548
97336W        W69761  18.569   5.783  11.901
97337W        W69762  15.292  14.345  14.538
97338W        W69763  29.576  15.220  11.574
97339W        W69764  35.540   9.829   4.285
97340W        W69765  24.549  12.568   3.366
97341W        W69766  21.985   1.825  11.021
97342W        W69767  25.951  21.059   3.154
97343W        W69768  39.916  28.052   2.100
97344W        W69769  35.190  43.726   0.784
97345W        W69770  26.443  18.865   1.489
97346W        W69771  31.807  38.949   1.411
97347W        W69772  38.326   5.662  14.871
97348W        W69773  13.183  38.322  13.457
97349W        W69774  43.517  21.087  11.371
97350W        W69775  12.198  37.340   1.703
97351W        W69776  40.056   5.908  14.461
97352W        W69777  30.415  39.508   2.190
97353W        W69778   8.740   4.661   1.513
97354W        W69779  29.509  33.837   3.871
97355W        W69780  17.365   0.947  14.426
97356W        W69781  17.337   7.698   2.651
97357W        W69782  12.380  41.171  12.352
97358W        W69783  32.915   3.146   0.288
97359W        W69784  22.271  37.231  12.312
97360W        W69785  34.361   1.807   1.045
97361W        W69786   6.299  42.058   3.985
97362W        W69787  41.876   7.410   1.238
97363W        W69788  33.536  44.655  11.160
97364W        W69789  17.651  10.448  10.077
97365W        W69790  22.672  29.304   4.176
97366W        W69791  10.468  25.346   5.083
97367W        W69792   4.839  38.379  13.348
97368W        W69793  18.660   6.532  12.939
97369W        W69794  32.486   7.275   3.453
97370W        W69795  15.829  38.918  11.885
97371W        W69796  31.413  25.964   1.201
97372W        W69797  17.592  32.126   1.874
97373W        W69798   7.055  41.560  12.541
97374W        W69799  28.587  15.654   2.755
97375W        W69800  24.604  18.593  14.947
97376W        W69801  44.198   5.741  10.643
97377W        W69802  31.978  36.832  10.728
97378W        W69803  23.118  29.227  13.754
97379W        W69804  26.423  25.527   2.783
97380W        W69805  31.135   5.079  13.117
97381W        W69806  24.783  38.488  12.605
97382W        W69807  34.586  23.618  13.572
97383W        W69808   8.171   0.187  12.050
97384W        W69809   3.445  42.714  14.903
97385W        W69810  32.380  33.835   1.028
97386W        W69811   3.028   2.428  11.069
97387W        W69812  42.376  20.776  13.692
97388W        W69813  17.634  35.690  12.486
97389W        W69814   1.499  35.839   1.259
97390W        W69815  11.300  13.976   1.248
97391W        W69816  41.866  41.289   1.396
97392W        W69817   3.853   0.248   2.020
97393W        W69818  33.432  40.083  13.732
97394W        W69819  10.194  25.676   1.267
97395W        W69820  43.676  20.640   4.172
97396W        W69821   7.006  11.286   1.254
97397W        W69822  44.795  18.039   2.686
97398W        W69823  38.361  22.128   0.034
97399W        W69824  38.436  37.051   4.364
97400W        W69825  12.776  39.044   0.355
97401W        W69826  14.225  31.644   0.036
97402W        W69827  13.595  36.801  13.423
97403W        W69828   6.926  28.580   0.804
97404W        W69829   3.777   9.381   4.545
97405W        W69830  25.903  10.416  11.470
97406W        W69831  26.430   7.223  14.943
97407W        W69832  10.629  32.988  11.867
97408W        W69833  38.214  29.946  14.359
97409W        W69834  15.883  42.325  14.467
97410W        W69835  24.740  23.709   2.015
97411W        W69836  22.490  12.804   4.400
97412W        W69837  18.317  23.201   3.445
97413W        W69838  10.060  41.263  13.105
97414W        W69839   4.784  13.205   3.258
97415W        W69840   8.461  20.324  12.477
97416W        W69841  20.584   9.309  13.516
97417W        W69842   8.337  34.160  10.651
97418W        W69843  17.048   9.720  12.535
97419W        W69844  32.987   9.714   1.160
97420W        W69845  12.389  16.796  11.620
97421W        W69846  39.982  35.895   2.175
97422W        W69847  23.327  26.755  14.777
97423W        W69848  13.312   9.449   2.850
97424W        W69849   7.262  25.279   3.859
97425W        W69850  30.947  25.132  10.947
97426W        W69851  38.306  24.078  10.579
97427W        W69852  36.072  30.935  11.539
97428W        W69853  32.413   3.704   0.961
97429W        W69854  40.929  16.132  12.027
97430W        W69855  20.494  40.355  11.298
97431W        W69856  30.653   3.383   0.427
97432W        W69857  11.878  32.056  10.633
97433W        W69858  14.532   8.775   3.808
97434W        W69859  10.989  24.042  14.928
97435W        W69860  13.735   9.884  14.585
97436W        W69861   0.174  11.380  13.465
97437W        W69862  22.239   4.472  13.335
97438W        W69863  18.994  17.350   0.828
97439W        W69864   8.864   0.864  12.812
97440W        W69865  31.322   4.833   4.523
97441W        W69866  24.771  36.318  11.627
97442W        W69867  44.294  40.959   1.279
97443W        W69868   7.068  39.868   0.776
97444W        W69869  18.164  37.587   3.121
97445W        W69870   9.680  29.004  13.529
97446W        W69871  25.439   7.267   1.758
97447W        W69872  13.336   6.421   0.501
97448W        W69873  38.860   7.671  14.499
97449W        W69874  23.560  43.750   2.845
97450W        W69875   4.151  40.063  14.335
97451W        W69876   9.889  37.025   0.305
97452W        W69877  23.203  35.107  14.580
97453W        W69878  43.688  18.214   4.460
97454W        W69879  40.790   4.302  11.176
97455W        W69880  31.019   9.027   3.519
97456W        W69881   2.764  26.918  14.278
97457W        W69882  31.941  28.037   2.831
97458W        W69883  19.722  20.175   1.788
97459W        W69884  43.890  20.205  12.266
97460W        W69885   6.266  18.247  11.634
97461W        W69886  18.852  12.044  13.486
97462W        W69887  18.871  31.905   2.317
97463W        W69888  12.648  40.800  14.069
97464W        W69889  22.605  13.625   1.953
97465W        W69890  21.508  35.757   1.264
97466W        W69891  19.631   4.915  12.151
97467W        W69892  20.205   2.354   0.255
97468W        W69893  10.759  34.124  13.282
97469W        W69894  11.613   3.787   3.634
97470W        W69895   1.689  17.759  12.469
97471W        W69896  34.982  28.011  12.047
97472W        W69897  22.703  40.723  12.895
97473W        W69898  44.491  15.767  10.540
97474W        W69899  33.835  40.623   3.688
97475W        W69900  25.398   1.502  13.316
97476W        W69901  24.952  44.199   1.858
97477W        W69902  24.331   4.208  10.470
97478W        W69903   1.062  16.129  10.569
97479W        W69904  23.444  36.154  12.807
97480W        W69905  39.041  35.182   3.153
97481W        W69906   3.295  26.659  13.471
97482W        W69907  44.470  26.958   0.355
97483W        W69908  36.854  11.324   2.009
97484W        W69909  19.824  30.398   5.972
97485W        W69910  36.068  32.660  13.336
97486W        W69911  24.220  22.546  14.548
97487W        W69912  44.353  38.387  12.918
97488W        W69913  27.646  13.341   5.046
97489W        W69914  26.497  16.248  10.908
97490W        W69915   9.795   1.322  13.568
97491W        W69916  34.388  43.983  14.261
97492W        W69917  40.302   4.538   0.485
97493W        W69918  29.401  35.892  10.484
97494W        W69919   9.909  30.888  12.169
97495W        W69920  34.470  42.541  12.619
97496W        W69921  15.669  21.894   3.270
97497W        W69922  12.144  18.529  11.124
97498W        W69923  41.534  10.484  11.435
97499W        W69924  16.194   3.946   3.661
97500W        W69925   8.305  44.542   3.790
97501W        W69926  26.137  28.099  12.447
97502W        W69927   6.132   7.347  14.355
97503W        W69928   8.103  35.709   3.104
97504W        W69929   9.276  17.569  12.440
97505W        W69930  18.023  44.856   1.157
97506W        W69931  29.980  24.158   4.359
97507W        W69932  38.201  42.240  14.963
97508W        W69933  10.271  44.355   1.063
97509W        W69934  18.156  42.016   1.166
97510W        W69935  23.206  40.382  14.430
97511W        W69936  27.512  19.285  12.414
97512W        W69937   5.772  14.641  11.902
97513W        W69938  21.259  30.768   4.490
97514W        W69939  19.803   3.719  13.355
97515W        W69940  13.549  31.558  13.226
97516W        W69941  19.273  12.288  11.571
97517W        W69942   0.285  32.360   0.930
97518W        W69943  17.598   4.545   3.809
97519W        W69944  11.905  12.087  12.903
97520W        W69945   7.912  42.235  14.566
97521W        W69946  27.480  16.307   2.705
97522W        W69947  42.696   6.416  13.566
97523W        W69948  33.551   0.367  10.043
97524W        W69949   4.790  35.336   0.780
97525W        W69950  10.959  12.725  14.168
97526W        W69951  32.226  42.971  10.615
97527W        W69952   9.701  33.574  14.485
97528W        W69953  18.341   8.479   2.432
97529W        W69954  44.740  15.001   1.440
97530W        W69955  22.254   4.840   2.692
97531W        W69956  11.227  12.742   1.800
97532W        W69957   1.465  17.633   3.271
97533W        W69958  28.435  20.735   1.833
97534W        W69959  35.917  34.394  11.637
97535W        W69960  18.816  33.123   0.499
97536W        W69961   7.679  24.848  12.533
97537W        W69962  19.217  18.987   1.082
97538W        W69963  35.035  32.159   4.091
97539W        W69964   6.228  41.802   1.783
97540W        W69965  17.769  33.992  12.268
97541W        W69966  21.782   1.815  14.605
97542W        W69967  29.407   0.759   2.397
97543W        W69968   0.782  33.466  10.490
97544W        W69969   0.353  23.722   3.665
97545W        W69970  20.831  22.494   2.746
97546W        W69971  13.642   7.624  11.188
97547W        W69972  33.272  44.465   4.178
97548W        W69973  26.608  35.321   0.924
97549W        W69974  17.707   8.043  13.865
97550W        W69975  13.182  35.325   0.188
97551W        W69976  39.043  10.063  13.434
97552W        W69977   6.923  19.035   1.847
97553W        W69978   0.824  41.846   0.764
97554W        W69979  27.477  41.697   3.335
97555W        W69980  16.982   9.602   1.761
97556W        W69981  33.970  34.296  11.668
97557W        W69982  25.037  29.419   4.226
97558W        W69983  14.501  42.935   2.221
97559W        W69984  34.445   0.460   0.905
97560W        W69985  11.303  37.075  11.066
97561W        W69986  17.650  39.049  11.683
97562W        W69987   4.870   8.775   1.701
97563W        W69988  11.246  39.683   1.178
97564W        W69989  37.498  41.927   4.948
97565W        W69990  23.619  37.866   1.177
97566W        W69991  21.014  36.154  13.099
97567W        W69992  16.801   9.091  10.426
97568W        W69993   6.438  27.670  13.924
97569W        W69994  13.831  31.496  12.297
97570W        W69995  18.338  32.972   0.324
97571W        W69996   6.745  20.069   0.470
97572W        W69997  24.047  25.180   2.245
97573W        W69998  40.375  37.628  10.464
97574W        W69999  40.459  38.345   2.096
97575W        W70000   3.757  43.272   4.047
97576W        W70001  27.927  34.878  10.641
97577W        W70002  28.655  14.454  13.432
97578W        W70003  14.241  31.475  12.642
97579W        W70004  43.332  39.429   3.342
97580W        W70005  10.010  15.181   0.313
97581W        W70006  41.904  42.766  10.151
97582W        W70007  30.947   1.017  11.910
97583W        W70008  12.390  15.265  10.729
97584W        W70009   7.195  29.874   0.462
97585W        W70010  44.855   3.531  10.619
97586W        W70011  17.781  33.857  14.426
97587W        W70012   3.458  15.361   0.767
97588W        W70013   6.420  26.728   4.056
97589W        W70014   0.965   8.219  14.276
97590W        W70015  31.057  21.623  12.841
97591W        W70016  21.668  11.121  12.875
97592W        W70017  18.402  19.555  13.230
97593W        W70018  13.315  41.043   0.640
97594W        W70019  25.977  19.595   3.094
97595W        W70020  38.372  27.643  14.373
97596W        W70021  44.378  16.755  10.132
97597W        W70022  44.864  34.360   3.327
97598W        W70023  26.667  28.835  10.204
97599W        W70024   8.970   0.902  10.621
97600W        W70025  33.421  10.162  12.580
97601W        W70026  44.031   0.520  11.469
97602W        W70027  32.591  32.139   4.027
97603W        W70028  18.505  25.206   4.169
97604W        W70029  43.330  33.576  10.771
97605W        W70030  26.177  17.598  14.747
97606W        W70031  36.430  10.702   4.582
97607W        W70032   4.126  25.476   0.787
97608W        W70033  21.523  14.739   0.396
97609W        W70034  37.948  14.199  12.774
97610W        W70035  35.183  17.351   0.246
97611W        W70036  35.928   7.692   1.029
97612W        W70037  39.015  24.460  12.944
97613W        W70038   3.504   1.211   3.683
97614W        W70039  34.280  17.266   1.512
97615W        W70040  24.164   6.705  12.549
97616W        W70041  36.954  15.650   0.417
97617W        W70042   9.230  43.000   2.403
97618W        W70043  39.433  33.211  12.002
97619W        W70044  10.255   2.509  13.035
97620W        W70045  13.070  25.134  13.803
97621W        W70046  20.101   7.854  11.388
97622W        W70047   7.946  42.064  13.232
97623W        W70048  11.891   8.861   5.016
97624W        W70049  20.146  36.487  12.973
97625W        W70050  28.914  34.606   2.614
97626W        W70051  28.039  35.870  13.844
97627W        W70052  30.390  33.371   2.782
97628W        W70053   4.669  44.844   2.571
97629W        W70054   6.401   4.428   4.013
97630W        W70055  11.465  18.344   4.720
97631W        W70056  25.224  33.467  13.939
97632W        W70057  36.762   2.206  12.632
97633W        W70058  20.695  37.635   4.769
97634W        W70059  40.319   8.487  10.814
97635W        W70060  31.088  37.465   2.380
97636W        W70061  29.120  27.147  14.451
97637W        W70062  19.659   3.191   2.402
97638W        W70063  17.177   6.137  12.410
97639W        W70064  22.053  15.937   4.612
97640W        W70065  17.270  26.465   2.536
97641W        W70066   6.508  18.624  14.698
97642W        W70067  21.482   3.495   2.809
97643W        W70068  26.572  38.331   2.818
97644W        W70069   7.886  15.837   4.379
97645W        W70070   1.662  31.417   1.761
97646W        W70071  10.241  17.188   3.714
97647W        W70072  10.063  19.572  10.798
97648W        W70073  26.079   4.447  13.795
97649W        W70074   9.328  16.503  12.563
97650W        W70075  29.644  33.189   4.625
97651W        W70076  25.002   6.263   2.700
97652W        W70077  27.754  33.355   1.371
97653W        W70078  19.124  40.617   4.123
97654W        W70079   8.297  25.606   1.132
97655W        W70080   1.742  22.717   3.316
97656W        W70081  41.758  38.833  14.691
97657W        W70082  11.167  17.112  14.685
97658W        W70083  43.869  15.502  12.489
97659W        W70084  42.058   1.204   1.423
97660W        W70085  32.526  37.890   0.809
97661W        W70086  30.993  32.079  10.359
97662W        W70087  37.235  30.889   3.243
97663W        W70088   4.687  20.220   2.657
97664W        W70089  22.096   3.829   2.367
97665W        W70090  24.098   7.383  11.080
97666W        W70091  23.490  11.631   2.193
97667W        W70092  11.087  17.753  10.794
97668W        W70093  22.987  40.083   3.821
97669W        W70094  10.801  35.273   2.655
97670W        W70095  40.367  27.875  11.124
97671W        W70096  21.097  41.791   1.773
97672W        W70097   3.556  40.301   4.678
97673W        W70098   3.318  20.264   0.864
97674W        W70099   2.722  14.146  13.841
97675W        W70100  33.238   6.562   1.915
97676W        W70101   4.368   2.383   1.262
97677W        W70102  19.827  16.632   3.268
97678W        W70103  40.222   6.230   3.354
97679W        W70104  12.989  13.097   1.892
97680W        W70105  32.909   1.260  14.108
97681W        W70106  16.838   3.439  11.246
97682W        W70107  29.360  13.016   4.633
97683W        W70108  29.405  29.046   1.565
97684W        W70109  14.569  21.712   5.166
97685W        W70110  11.336  30.426   3.565
97686W        W70111  14.215  25.610  10.343
97687W        W70112  13.672   3.261   0.469
97688W        W70113  10.362   8.785   4.212
97689W        W70114  31.855  34.687   0.314
97690W        W70115  12.560   2.136  14.055
97691W        W70116  32.436  26.475   2.248
97692W        W70117  19.823  19.772  14.561
97693W        W70118  37.848  27.700   0.640
97694W        W70119  10.670  23.567   1.246
97695W        W70120  23.370  23.872  13.078
97696W        W70121   4.703  31.594   0.908
97697W        W70122  30.657  34.718   3.276
97698W        W70123  24.756  28.578   0.436
97699W        W70124  22.787  24.531   4.846
97700W        W70125  11.339  21.247  12.904
97701W        W70126  40.427   4.888   0.861
97702W        W70127  41.570  11.695   2.346
97703W        W70128  20.485  21.216  13.106
97704W        W70129  35.745  17.091  13.139
97705W        W70130  36.110  17.893   0.335
97706W        W70131  19.126   9.823   4.115
97707W        W70132  25.022  18.177   4.040
97708W        W70133  21.496   8.152   3.734
97709W        W70134  33.074  30.959  12.561
97710W        W70135  17.418  38.316  11.470
97711W        W70136  37.694  35.819  12.449
97712W        W70137   2.392  10.261  12.705
97713W        W70138  22.065  44.481   1.182
97714W        W70139  10.086  41.949  11.118
97715W        W70140  34.048   1.686  13.396
97716W        W70141  20.085   0.404  11.592
97717W        W70142  17.255   2.014   1.410
97718W        W70143  10.059  31.031   1.987
97719W        W70144  37.106  14.000   2.310
97720W        W70145  32.141  30.516   4.661
97721W        W70146  40.913   1.842   4.064
97722W        W70147  23.228  44.361   1.680
97723W        W70148  11.128  25.226   2.745
97724W        W70149   6.678  27.072   2.685
97725W        W70150  39.357  42.207  11.019
97726W        W70151  22.558   3.928   3.734
97727W        W70152   9.725  16.272   4.784
97728W        W70153  21.659  17.853  11.463
97729W        W70154   0.208  14.207   2.292
97730W        W70155  17.206  30.187  13.363
97731W        W70156   1.260  22.972  13.132
97732W        W70157  12.448  23.072  13.380
97733W        W70158  36.482   7.289  14.785
97734W        W70159  36.580  34.698  11.514
97735W        W70160  21.548   0.539  10.566
97736W        W70161  22.493  17.229  12.379
97737W        W70162  33.459  22.857  12.654
97738W        W70163  11.848   7.266   5.066
97739W        W70164  14.532   5.807  12.258
97740W        W70165  36.467  12.855   0.503
97741W        W70166  10.405  22.020  14.973
97742W        W70167  41.473  29.994   4.857
97743W        W70168  23.639  24.972  12.439
97744W        W70169   0.720  10.204  11.910
97745W        W70170  17.776   4.943  11.322
97746W        W70171  42.506  38.287  11.116
97747W        W70172  42.247  32.760   3.240
97748W        W70173   1.277   6.137   3.809
97749W        W70174  26.142  11.648  12.368
97750W        W70175   1.295  15.830   4.556
97751W        W70176   9.997  18.851  13.994
97752W        W70177  29.382  12.315  11.477
97753W        W70178  11.871   6.330  14.664
97754W        W70179  19.595  30.981  11.080
97755W        W70180  44.375  28.998  14.299
97756W        W70181  26.434  27.209  11.571
97757W        W70182  36.102  13.164  12.091
97758W        W70183   4.048  20.997  11.068
97759W        W70184   9.733  34.153  13.382
97760W        W70185  33.171  19.838   0.399
97761W        W70186  41.016  37.726  11.561
97762W        W70187   2.239  21.051   1.863
97763W        W70188   8.144  37.558  10.742
97764W        W70189  42.785  44.313  13.202
97765W        W70190  21.080  15.290   1.743
97766W        W70191  28.920  15.677   2.337
97767W        W70192  20.003  34.422  12.024
97768W        W70193  24.696  41.105   4.840
97769W        W70194  38.449  27.491   2.062
97770W        W70195  33.430   7.148   2.356
97771W        W70196   3.525  21.182   1.474
97772W        W70197  38.535  26.962   3.260
97773W        W70198  26.853  10.090   4.301
97774W        W70199   4.434  42.526  13.743
97775W        W70200  40.749  11.392  12.869
97776W        W70201  42.415  41.702   3.575
97777W        W70202  24.546   8.861  10.205
97778W        W70203  38.100  13.781   4.277
97779W        W70204  26.560  13.457  13.904
97780W        W70205   8.660  18.129   4.294
97781W        W70206   9.422  22.797   4.434
97782W        W70207  17.859  10.248  14.328
97783W        W70208  19.815  25.381  11.521
97784W        W70209   7.287   5.462  13.085
97785W        W70210  41.462  13.884  12.422
97786W        W70211  16.614  22.293  12.455
97787W        W70212  18.693  18.261   2.117
97788W        W70213  12.760  20.094   1.769
97789W        W70214   7.595   0.075  13.942
97790W        W70215  33.966  13.312   0.908
97791W        W70216  37.642  26.397   4.921
97792W        W70217   7.766  12.293   3.900
97793W        W70218   3.498  43.962  14.869
97794W        W70219  34.363  33.897  13.296
97795W        W70220   7.084  42.417   3.676
97796W        W70221   5.732  21.178   0.352
97797W        W70222   8.759   1.830   2.112
97798W        W70223   4.646  15.062  14.472
97799W        W70224   3.208  23.019   4.218
97800W        W70225  18.266  18.250   1.811
97801W        W70226  25.205  33.488   3.036
97802W        W70227  37.313  19.136   2.289
97803W        W70228  29.788  42.968  12.322
97804W        W70229  39.230  16.978  11.337
97805W        W70230   8.852  20.567  13.453
97806W        W70231  33.687   6.406  11.947
97807W        W70232  29.655  19.108  10.456
97808W        W70233   4.832  12.468  12.689
97809W        W70234   3.271  35.520   1.433
97810W        W70235  33.681  28.707   4.493
97811W        W70236   8.732  10.221  10.050
97812W        W70237  11.732   4.303  10.590
97813W        W70238  29.708  32.504   3.871
97814W        W70239  34.411   6.703  11.216
97815W        W70240  14.553  42.376   3.374
97816W        W70241  30.406   6.212   1.706
97817W        W70242  11.851  16.227   4.181
97818W        W70243  38.480  34.372  13.340
97819W        W70244  40.306  20.220  11.550
97820W        W70245   4.318  13.286  10.761
97821W        W70246  42.695  41.565   2.216
97822W        W70247  14.490  13.209   1.293
97823W        W70248  36.410  25.591   0.925
97824W        W70249   8.094  27.443  14.825
97825W        W70250  11.004   4.867   2.230
97826W        W70251  30.801  23.164  10.251
97827W        W70252  36.938  38.452   0.371
97828W        W70253  41.819  44.578  13.453
97829W        W70254  39.310  22.243   2.450
97830W        W70255  36.906  12.195  12.954
97831W        W70256   4.503  17.548  14.873
97832W        W70257  27.230  32.000  11.079
97833W        W70258  16.271  13.118   1.437
97834W        W70259   7.346  39.138   0.348
97835W        W70260  14.290   8.884   0.259
97836W        W70261  20.109   2.392  14.729
97837W        W70262  11.723  43.256  13.998
97838W        W70263  25.467  29.713  14.421
97839W        W70264   1.516  21.592  13.514
97840W        W70265  29.202  17.234   2.280
97841W        W70266  13.223  25.248   5.206
97842W        W70267  42.568  35.961  13.936
97843W        W70268  15.290  19.791  14.344
97844W        W70269  41.764  26.484  14.879
97845W        W70270  26.992  15.584  11.406
97846W        W70271  29.421  14.205   1.851
97847W        W70272  20.663   3.962  14.454
97848W        W70273  18.832  20.058   2.510
97849W        W70274  38.354  19.432   3.689
97850W        W70275  32.384   5.677  14.764
97851W        W70276  11.195  27.906   3.738
97852W        W70277  43.506   4.709   4.200
97853W        W70278  20.822  33.131   0.804
97854W        W70279  34.611  37.034   0.776
97855W        W70280  22.788  25.405   4.579
97856W        W70281  14.990   5.452   0.802
97857W        W70282  42.952   4.206   3.232
97858W        W70283  28.399   4.798  13.984
97859W        W70284  36.354  17.913   1.433
97860W        W70285  43.982  23.227   4.095
97861W        W70286  22.269  27.703  13.329
97862W        W70287  19.217  33.330   3.761
97863W        W70288   4.557  31.897   0.516
97864W        W70289  11.197  17.147  12.115
97865W        W70290   9.133  41.494  13.847
97866W        W70291  24.208   8.938   3.565
97867W        W70292   9.865  36.751   4.362
97868W        W70293   7.447  20.553  12.578
97869W        W70294  13.532  11.598  11.194
97870W        W70295  31.763   2.494   4.351
97871W        W70296  33.062  12.194  13.123
97872W        W70297   9.693   3.113  12.601
97873W        W70298  35.754  28.506   0.841
97874W        W70299  31.148  42.611  14.953
97875W        W70300  44.973   1.416   1.281
97876W        W70301   0.053   6.422   1.356
97877W        W70302  35.924  27.055  11.122
97878W        W70303  15.566  38.883  13.417
97879W        W70304   0.958  41.967  12.308
97880W        W70305  18.007   7.894   4.850
97881W        W70306  24.571  28.685   1.855
97882W        W70307  18.597  13.754  14.001
97883W        W70308  43.898  34.169   0.406
97884W        W70309  13.709  40.707   4.315
97885W        W70310   4.427  25.068   0.666
97886W        W70311  14.151  27.278   3.269
97887W        W70312  15.549  30.218   2.841
97888W        W70313  29.908   7.896  12.951
97889W        W70314  23.162  11.356   1.560
97890W        W70315  35.022  10.355   1.473
97891W        W70316  10.821  40.854   0.437
97892W        W70317  31.805  32.840  11.131
97893W        W70318   9.158  28.315  11.827
97894W        W70319   9.770  31.632  11.033
97895W        W70320  28.394  12.658   3.245
97896W        W70321  12.350  10.398  12.494
97897W        W70322   4.305  31.464   0.435
97898W        W70323  19.228  31.950  11.833
97899W        W70324  39.455   6.084   4.120
97900W        W70325  14.647  18.259   3.795
97901W        W70326  16.989  34.554  12.253
97902W        W70327  16.717   9.962   0.496
97903W        W70328  21.996   0.793  10.618
97904W        W70329  34.260  37.828  14.794
97905W        W70330  23.710   6.940  14.377
97906W        W70331  10.800  43.208  11.122
97907W        W70332   2.541   0.823   0.028
97908W        W70333  41.607  22.518  10.610
97909W        W70334  38.910   5.533   2.730
97910W        W70335  12.556  13.154   1.613
97911W        W70336  17.279   4.386  13.388
97912W        W70337  23.670  33.872   3.680
97913W        W70338  17.829  31.674  14.831
97914W        W70339  16.787  35.858  14.335
97915W        W70340  12.347   1.308   4.315
97916W        W70341  41.041   4.575  11.566
97917W        W70342  33.133  21.946  14.917
97918W        W70343  44.034  24.049  14.252
97919W        W70344  12.880  44.506  14.381
97920W        W70345  25.012  28.932  10.745
97921W        W70346  39.964  36.919  11.951
97922W        W70347   6.489  37.420   5.199
97923W        W70348  19.319  31.944  12.586
97924W        W70349   0.015   9.959   4.559
97925W        W70350   7.230  27.898   2.537
97926W        W70351  18.515   2.112  12.940
97927W        W70352  10.915   9.181   2.319
97928W        W70353   5.968   8.079  11.194
97929W        W70354  41.768  36.827  12.553
97930W        W70355  19.198  32.483  11.948
97931W        W70356  35.522  41.767  14.262
97932W        W70357  22.521  30.912  12.336
97933W        W70358  31.006  36.086   4.711
97934W        W70359  35.763  38.374   3.231
97935W        W70360  44.789   7.231   3.039
97936W        W70361   8.368   2.323   4.332
97937W        W70362  25.132  41.893   2.216
97938W        W70363  12.654   3.434  11.687
97939W        W70364  29.405   5.324   4.711
97940W        W70365  29.022   7.472   3.096
97941W        W70366   8.220  39.379  12.375
97942W        W70367  21.298  43.779  14.822
97943W        W70368  43.110   3.167  11.127
97944W        W70369  15.247  24.441   1.832
97945W        W70370  20.536  18.299  11.595
97946W        W70371  42.950  32.649   2.656
97947W        W70372  16.227  27.428  10.597
97948W        W70373  18.469   0.257   4.056
97949W        W70374  29.092  33.818   4.943
97950W        W70375   5.112  42.488   1.894
97951W        W70376  39.081   1.239  11.499
97952W        W70377   2.634  13.725  11.238
97953W        W70378  36.172  13.639  12.598
97954W        W70379  28.971  31.415   1.687
97955W        W70380  16.629  27.674  10.815
97956W        W70381   1.436  44.876   0.443
97957W        W70382  43.170  34.500  13.483
97958W        W70383  17.260  37.940   3.653
97959W        W70384   1.980  29.948  14.062
97960W        W70385  20.621  30.103  13.561
97961W        W70386   0.001  23.296   3.829
97962W        W70387  39.906  41.772   3.275
97963W        W70388   2.062   7.373   3.737
97964W        W70389  24.522  28.137   3.653
97965W        W70390  31.667  33.386  12.365
97966W        W70391  18.957  41.987   1.862
97967W        W70392   4.984  43.226  11.873
97968W        W70393  20.085  11.268  13.322
97969W        W70394  10.906  10.882  14.859
97970W        W70395  15.859   5.876   4.805
97971W        W70396  16.628  23.237  12.034
97972W        W70397  44.875  18.289  11.231
97973W        W70398  10.629  15.761   3.355
97974W        W70399  12.123  17.545  13.613
97975W        W70400   0.372   8.234  13.809
97976W        W70401  31.636  24.575   1.404
97977W        W70402  13.251  31.858  11.156
97978W        W70403  26.986  31.439  10.021
97979W        W70404  10.143  11.112   4.152
97980W        W70405  42.818  43.918   4.127
97981W        W70406  39.352  35.104  12.001
97982W        W70407  25.512  19.577  10.580
97983W        W70408   1.562  44.930  11.508
97984W        W70409  44.382  26.533   2.007
97985W        W70410   0.371  13.013   0.706
97986W        W70411  20.596  40.079   4.139
97987W        W70412  15.700  16.825  11.702
97988W        W70413  13.209  21.611   3.327
97989W        W70414  15.920  23.283  14.340
97990W        W70415  17.156  31.681  14.327
97991W        W70416   5.843   2.678  12.015
97992W        W70417  18.688  33.996  11.168
97993W        W70418  19.199  25.751  12.672
97994W        W70419  16.764  30.447   2.402
97995W        W70420  26.772   1.223   3.193
97996W        W70421   9.612   0.855   9.862
97997W        W70422  37.079  30.017   0.146
97998W        W70423   0.603  33.400   3.836
97999W        W70424   3.697  27.969   3.180
98000W        W70425  11.673  43.055  13.493
98001W        W70426  21.044  16.698   4.585
98002W        W70427   9.372  37.339   4.916
98003W        W70428  39.667  30.167   3.151
98004W        W70429   6.826   3.542   3.173
98005W        W70430  19.867  17.271  14.927
98006W        W70431  23.219  37.412  12.503
98007W        W70432   2.616  21.343  11.991
98008W        W70433   3.271   5.395  12.136
98009W        W70434  18.211  16.895   1.301
98010W        W70435  31.799  24.410   3.290
98011W        W70436   4.170  27.728   3.161
98012W        W70437  24.226  28.180   5.122
98013W        W70438  40.319   0.834   1.807
98014W        W70439  18.662   2.754   4.352
98015W        W70440  38.163  42.431   5.542
98016W        W70441  16.575  17.619  11.110
98017W        W70442  34.828  14.364  11.583
98018W        W70443  34.175   3.739  14.951
98019W        W70444  38.944  22.950  14.948
98020W        W70445  16.272  43.109   0.068
98021W        W70446  38.470  15.856  14.537
98022W        W70447  13.658  18.158   3.705
98023W        W70448  13.717  30.588  13.847
98024W        W70449  12.100  41.067   4.038
98025W        W70450  26.203   1.311   2.385
98026W        W70451   3.357  28.504   2.830
98027W        W70452   2.248  24.599   4.685
98028W        W70453  19.554   7.681   1.764
98029W        W70454   9.766  30.140   4.250
98030W        W70455   0.503   2.483   0.899
98031W        W70456  14.445  18.736  11.139
98032W        W70457   2.195  27.482   4.545
98033W        W70458  44.871  24.928  13.418
98034W        W70459  25.171  39.382   4.984
98035W        W70460  29.172  25.262  12.574
98036W        W70461  41.099  20.567   0.894
98037W        W70462  36.770  28.640  12.234
98038W        W70463  43.224  43.541   4.078
98039W        W70464  19.222   8.770  10.762
98040W        W70465  42.065  20.033  14.731
98041W        W70466  30.396  15.853   2.308
98042W        W70467  13.166  25.704   4.303
98043W        W70468  41.826  41.426   0.242
98044W        W70469  15.915  31.552   3.380
98045W        W70470   7.471  43.928   3.664
98046W        W70471  26.813  17.694   2.374
98047W        W70472  18.359  12.245  14.849
98048W        W70473  29.118  37.973   0.665
98049W        W70474  22.576  27.666  12.142
98050W        W70475  40.256  17.532   1.247
98051W        W70476  14.646   6.280   0.934
98052W        W70477  10.235  16.252  13.918
98053W        W70478  17.358   8.689  11.741
98054W        W70479   5.258  24.632   3.191
98055W        W70480  20.740  21.669  13.102
98056W        W70481  40.030  21.691   2.898
98057W        W70482   2.890  42.564   0.688
98058W        W70483  43.129  30.314  13.460
98059W        W70484  40.797  22.739  11.131
98060W        W70485  16.167  41.559  14.062
98061W        W70486  44.215  11.261   1.267
98062W        W70487  41.559  16.391   1.937
98063W        W70488  37.030  25.701  11.631
98064W        W70489  17.983  35.900  11.075
98065W        W70490  39.515  35.780  10.732
98066W        W70491  10.318  19.507   1.325
98067W        W70492  37.604  31.629  12.952
98068W        W70493   1.218  42.825   1.850
98069W        W70494   0.023  32.766   0.742
98070W        W70495   8.765  22.990   0.317
98071W        W70496  38.011   1.277  13.301
98072W        W70497  30.429  14.876  12.015
98073W        W70498  42.404  11.434   1.748
98074W        W70499  42.931  41.652   0.660
98075W        W70500  37.530  36.531  11.940
98076W        W70501  29.372   5.429   2.296
98077W        W70502  12.743  13.402  12.078
98078W        W70503   2.884   7.659   3.586
98079W        W70504  43.772   2.718  13.967
98080W        W70505  40.521   9.810  11.243
98081W        W70506  14.854  24.631   3.719
98082W        W70507  23.319  26.074   0.785
98083W        W70508  39.796  17.183  10.585
98084W        W70509   5.172  13.144   1.879
98085W        W70510   2.424  37.409  13.800
98086W        W70511  42.067  11.886   3.300
98087W        W70512  24.064  38.321   2.926
98088W        W70513  22.043  26.465  14.783
98089W        W70514   0.980  42.493  13.427
98090W        W70515  31.904  20.158  12.127
98091W        W70516  39.507  38.920  13.025
98092W        W70517  42.417  23.739  11.025
98093W        W70518  34.065  42.305   4.502
98094W        W70519  17.563  32.437  14.366
98095W        W70520  14.095  21.741   4.640
98096W        W70521  21.226  32.125   3.831
98097W        W70522  22.519  24.160   4.484
98098W        W70523  32.581  14.734   3.853
98099W        W70524  19.505   6.069  11.039
98100W        W70525  37.857  28.548   4.264
98101W        W70526  11.234  39.974   2.821
98102W        W70527  43.279  12.272   3.755
98103W        W70528  18.845  26.586   5.086
98104W        W70529  27.658  21.006  11.220
98105W        W70530  20.443  30.401  11.064
98106W        W70531  23.655  38.559   2.665
98107W        W70532   0.640  35.051   1.690
98108W        W70533  34.708  28.513   1.813
98109W        W70534  11.887  37.668  12.940
98110W        W70535  35.276  33.659   0.012
98111W        W70536  18.064   9.210   4.616
98112W        W70537  37.794  34.873   2.174
98113W        W70538   4.894  44.330  13.309
98114W        W70539  21.184  41.264   1.777
98115W        W70540  36.453  35.411   2.128
98116W        W70541   5.375  13.654  13.078
98117W        W70542   4.289  14.866   0.270
98118W        W70543  29.492  38.345  13.363
98119W        W70544  24.283  11.840   4.383
98120W        W70545  33.614  14.774   3.618
98121W        W70546   0.422  44.402   4.632
98122W        W70547  27.320  34.238  14.950
98123W        W70548  27.698  43.964  11.057
98124W        W70549   0.782  16.000   5.127
98125W        W70550   6.857  34.947   3.250
98126W        W70551  10.662  25.172  13.329
98127W        W70552   2.916  27.520   0.461
98128W        W70553  25.852  29.553   4.488
98129W        W70554  25.822  39.923  11.649
98130W        W70555  43.121   4.864  11.864
98131W        W70556   3.164  12.171  11.201
98132W        W70557   4.843  27.013  14.388
98133W        W70558  14.705  40.542   3.826
98134W        W70559  19.537  20.297  13.153
98135W        W70560  31.200  37.408  10.646
98136W        W70561  28.341   7.872  11.998
98137W        W70562  39.293  42.468  14.011
98138W        W70563  23.475  36.392   2.194
98139W        W70564  19.691  27.928   2.001
98140W        W70565  22.654  28.139   1.889
98141W        W70566  18.352  34.665   4.239
98142W        W70567  20.283  16.705   1.129
98143W        W70568  28.635  12.157   2.185
98144W        W70569  44.820  28.505  13.477
98145W        W70570  25.963  26.182  12.917
98146W        W70571  40.698   9.915  13.854
98147W        W70572  21.226   5.215   4.640
98148W        W70573  34.061   0.902  14.034
98149W        W70574   7.153  31.537  11.509
98150W        W70575  27.494  30.025   3.691
98151W        W70576  30.411  10.822   3.292
98152W        W70577  25.609  13.219   4.454
98153W        W70578  19.889  17.635  10.829
98154W        W70579  12.840  39.823   2.878
98155W        W70580  29.832  36.807   4.496
98156W        W70581  12.173  43.415   3.695
98157W        W70582  17.793  20.832  13.337
98158W        W70583  29.366  11.064  12.537
98159W        W70584  33.274   3.216   3.657
98160W        W70585  36.112  14.709   2.865
98161W        W70586  13.819  31.154   2.772
98162W        W70587  26.552   9.802  11.135
98163W        W70588  13.201   3.839   2.487
98164W        W70589  36.327  35.121   0.967
98165W        W70590  20.093  41.936  10.643
98166W        W70591   3.418  33.908   1.267
98167W        W70592  37.737  29.520  11.514
98168W        W70593   8.194   1.114  11.459
98169W        W70594  10.981  20.206   2.395
98170W        W70595  28.321  27.631   1.001
98171W        W70596  13.129   6.165  14.951
98172W        W70597  15.286  17.897  14.454
98173W        W70598   6.520  22.950  12.580
98174W        W70599  20.697   8.365  12.500
98175W        W70600   2.991  42.520   1.202
98176W        W70601  24.740  32.251  14.416
98177W        W70602  16.775   9.791  13.567
98178W        W70603   2.961   9.591  14.467
98179W        W70604   6.042  13.510  12.038
98180W        W70605  10.783  19.168   0.465
98181W        W70606   2.778  43.945  13.386
98182W        W70607   9.190  22.611   1.951
98183W        W70608  19.032   4.034   2.204
98184W        W70609  26.891  21.443   1.417
98185W        W70610   0.371  14.107  12.491
98186W        W70611  39.922  17.640   2.128
98187W        W70612   8.107  20.572  10.656
98188W        W70613  32.932  43.894   0.331
98189W        W70614  26.419  19.939   1.951
98190W        W70615  24.493  44.437   3.760
98191W        W70616  30.342  33.891  11.190
98192W        W70617  26.567  40.849   1.211
98193W        W70618  24.560  19.034   2.241
98194W        W70619   1.949  16.209   0.643
98195W        W70620  36.560  34.517  12.076
98196W        W70621  15.606  24.056   1.869
98197W        W70622  16.423  34.656   3.325
98198W        W70623  33.175  17.515   4.267
98199W        W70624  44.704  32.313  11.018
98200W        W70625  21.699   6.846   0.182
98201W        W70626  20.120  42.308  13.383
98202W        W70627  40.232  20.521   4.144
98203W        W70628  44.333   7.177  11.934
98204W        W70629  37.391  33.936   1.276
98205W        W70630  36.964  10.295  13.502
98206W        W70631  32.468  30.487   3.636
98207W        W70632   0.063  24.033  11.543
98208W        W70633  34.631   0.368   1.744
98209W        W70634  40.450  31.419   3.181
98210W        W70635  22.211  38.785   1.011
98211W        W70636  38.013  29.103   0.185
98212W        W70637  24.904  25.872  12.934
98213W        W70638   4.851   7.864   1.637
98214W        W70639  28.176  13.608   3.373
98215W        W70640   4.766  34.944   0.424
98216W        W70641  44.287  20.703  11.588
98217W        W70642  42.030   2.202  10.505
98218W        W70643  18.854  34.626   4.087
98219W        W70644  27.681  36.894   1.845
98220W        W70645  38.523   3.209   1.727
98221W        W70646   3.471  24.404   3.669
98222W        W70647   0.840  43.655   1.853
98223W        W70648  36.584  30.750   4.198
98224W        W70649  37.820  33.254  14.881
98225W        W70650   6.303  38.508  12.470
98226W        W70651  22.439  19.029  11.017
98227W        W70652  37.315  43.020   2.437
98228W        W70653  23.748  17.649   1.408
98229W        W70654  33.893  38.374  11.863
98230W        W70655   0.544  36.568  13.964
98231W        W70656  44.089   0.247   1.877
98232W        W70657  39.740   2.993  11.621
98233W        W70658  15.351  34.659   4.783
98234W        W70659  38.296  14.590   1.205
98235W        W70660   0.387  15.603  14.475
98236W        W70661   4.097  13.353  13.433
98237W        W70662  43.450  39.231   2.901
98238W        W70663  26.636   8.783   2.812
98239W        W70664  42.461  32.588  11.520
98240W        W70665  36.338  32.836   0.496
98241W        W70666  41.237   0.267  13.452
98242W        W70667  44.644  21.283  13.675
98243W        W70668   5.806  31.962   2.407
98244W        W70669  28.603  11.606  13.897
98245W        W70670  15.345   7.882   2.232
98246W        W70671  27.446  41.281  14.338
98247W        W70672  26.261   9.611  12.992
98248W        W70673  26.128  37.794   2.379
98249W        W70674   7.459  37.413  13.088
98250W        W70675  33.849  14.708   3.172
98251W        W70676  42.498  44.842  12.105
98252W        W70677  40.544  40.911  12.919
98253W        W70678  44.984  26.039  11.975
98254W        W70679  15.964  21.924  14.094
98255W        W70680  38.112  26.205   4.985
98256W        W70681  43.436  30.898  11.615
98257W        W70682  28.802  21.957  13.380
98258W        W70683  18.468  29.510   9.897
98259W        W70684  18.242   6.808  12.981
98260W        W70685  24.898  33.874   3.220
98261W        W70686   0.529   6.784  11.550
98262W        W70687  17.740  23.469  10.402
98263W        W70688   6.774  26.741  11.963
98264W        W70689  41.397  40.839   3.015
98265W        W70690  39.086  12.642   3.680
98266W        W70691   8.940  21.335  13.944
98267W        W70692  23.181  43.911  12.849
98268W        W70693  23.293   8.825   3.775
98269W        W70694   9.310  28.321   4.431
98270W        W70695   5.821   6.190  13.071
98271W        W70696  24.503  26.644  14.610
98272W        W70697  27.045  10.044  14.793
98273W        W70698   3.043  39.568   0.540
98274W        W70699   1.181  10.073  14.996
98275W        W70700  12.642  26.520   5.248
98276W        W70701  36.497  15.855   3.258
98277W        W70702   5.168  18.171  12.810
98278W        W70703  44.263  20.254   1.155
98279W        W70704  34.158  23.731  13.883
98280W        W70705  37.565  36.500   3.141
98281W        W70706   8.637  40.752   4.179
98282W        W70707  17.613  15.580  11.429
98283W        W70708  41.804  22.576  11.098
98284W        W70709  35.624  37.077   0.386
98285W        W70710  16.225   4.614  10.158
98286W        W70711  14.961  23.692  14.140
98287W        W70712  40.346   9.569  13.738
98288W        W70713  20.308  18.233   3.997
98289W        W70714   5.775  40.498  14.894
98290W        W70715  32.751   3.426  10.192
98291W        W70716  33.392  42.885  14.714
98292W        W70717  29.612   3.239   1.313
98293W        W70718   6.708  31.288  14.331
98294W        W70719  19.286  25.451  13.600
98295W        W70720  14.668  18.742  10.634
98296W        W70721  32.508   4.808   4.333
98297W        W70722  22.251   1.456   1.759
98298W        W70723  44.576  27.598   3.252
98299W        W70724  11.869   8.184   0.389
98300W        W70725  32.433  34.719  11.177
98301W        W70726  37.112  36.928  10.620
98302W        W70727  41.766  10.316   0.244
98303W        W70728  35.529  15.542  13.031
98304W        W70729   3.737  22.819  12.412
98305W        W70730  27.535  41.297  14.852
98306W        W70731  35.402  23.982   3.976
98307W        W70732  17.611  13.815   2.243
98308W        W70733   0.243  20.144   1.643
98309W        W70734  10.463   0.686   4.235
98310W        W70735  14.602  35.867  12.053
98311W        W70736  17.746  35.305   1.837
98312W        W70737  24.050  38.573   0.780
98313W        W70738  24.404  22.558   3.528
98314W        W70739  17.086  23.650   3.290
98315W        W70740  19.618  26.301   0.844
98316W        W70741  43.339   1.995   3.605
98317W        W70742  32.531  34.392   4.371
98318W        W70743  26.634   0.055   0.255
98319W        W70744  10.964  19.128   3.675
98320W        W70745  10.198   6.527   1.854
98321W        W70746  26.246  24.105  14.465
98322W        W70747  13.786  36.144  12.995
98323W        W70748   3.505   2.015   9.875
98324W        W70749  39.517  30.602   2.255
98325W        W70750  17.190  13.472   4.512
98326W        W70751  26.134  26.569   0.979
98327W        W70752   3.344  15.645   3.116
98328W        W70753  20.202  27.690  11.243
98329W        W70754  15.684   1.731   3.283
98330W        W70755  39.880  24.674  14.755
98331W        W70756  43.448  29.489  10.652
98332W        W70757   0.530   8.352  10.690
98333W        W70758  11.948  22.639   4.671
98334W        W70759   3.635   4.281   0.491
98335W        W70760  15.350  23.535   4.992
98336W        W70761  14.244  12.918  14.999
98337W        W70762  19.275  42.141   2.720
98338W        W70763  29.604  14.447   3.403
98339W        W70764  36.987  29.174   3.739
98340W        W70765  13.223   8.207   0.883
98341W        W70766   9.287  25.528   4.406
98342W        W70767  39.909  44.974   9.838
98343W        W70768  44.375   1.892  11.032
98344W        W70769  11.832  36.093   1.982
98345W        W70770  28.691   1.528   4.608
98346W        W70771  33.924  43.883   2.587
98347W        W70772  30.570  35.516   1.948
98348W        W70773   2.370  40.836  11.260
98349W        W70774   8.884   4.468  11.105
98350W        W70775  32.042  39.824   0.282
98351W        W70776   4.441  17.655   3.180
98352W        W70777  24.626  29.249  12.159
98353W        W70778  42.761  41.910  14.194
98354W        W70779  32.879  40.908  11.507
98355W        W70780  22.889  22.825   4.198
98356W        W70781  38.870  40.078  12.534
98357W        W70782  30.909  37.370  13.960
98358W        W70783  41.560  10.046   3.337
98359W        W70784  15.233  22.857  12.642
98360W        W70785  21.237   4.435   3.794
98361W        W70786  14.342   5.387   2.276
98362W        W70787   3.956  39.812  13.865
98363W        W70788  24.049  15.562  14.244
98364W        W70789  24.243  27.997  14.851
98365W        W70790  22.860  10.972   3.705
98366W        W70791  28.606  20.078  11.243
98367W        W70792  18.587   9.138   4.572
98368W        W70793  16.177  25.909   4.676
98369W        W70794  36.080  21.635  11.517
98370W        W70795  12.045  42.320   2.045
98371W        W70796   6.308  14.239  14.683
98372W        W70797  32.988  25.503  11.158
98373W        W70798  26.940  25.171   3.641
98374W        W70799   1.301   6.837   1.905
98375W        W70800  31.019  38.023   0.732
98376W        W70801  10.350  10.180   4.586
98377W        W70802  20.231  33.036   2.418
98378W        W70803  42.587  42.944   3.900
98379W        W70804  18.037  36.023  12.524
98380W        W70805  24.538  39.830   2.154
98381W        W70806  13.739  18.724   3.652
98382W        W70807  32.656  37.393   0.643
98383W        W70808  36.074   0.307   0.515
98384W        W70809  13.251   9.292   4.738
98385W        W70810   7.516  17.289   0.905
98386W        W70811  31.413  30.431   1.038
98387W        W70812  34.876   6.944   4.097
98388W        W70813  13.083  23.070   1.439
98389W        W70814  10.662   0.777  12.025
98390W        W70815  31.956  34.085  11.630
98391W        W70816   4.175  36.679  14.533
98392W        W70817  31.042   8.576   1.445
98393W        W70818  31.350  10.643   1.731
98394W        W70819  43.349   2.004  12.038
98395W        W70820   9.147  25.436  11.511
98396W        W70821   3.619  40.360  12.143
98397W        W70822  29.114  36.408   2.264
98398W        W70823  34.386  14.813   0.706
98399W        W70824   0.560   9.151   2.464
98400W        W70825  41.058   2.510   3.665
98401W        W70826  41.862  18.401   2.383
98402W        W70827  33.633  12.260   4.223
98403W        W70828  32.200  36.558  14.589
98404W        W70829   5.408  43.252   4.117
98405W        W70830   2.960  25.542  13.996
98406W        W70831  27.004  41.950  10.291
98407W        W70832  15.314  13.443  12.986
98408W        W70833  39.071  40.881  14.868
98409W        W70834   0.578   4.036   3.900
98410W        W70835  24.971  35.304  11.605
98411W        W70836  14.114  38.426   1.642
98412W        W70837  17.631  18.859  11.671
98413W        W70838  42.838  30.153  10.455
98414W        W70839  22.233   0.472   0.728
98415W        W70840  40.441  30.603   2.158
98416W        W70841   6.194   3.261  11.203
98417W        W70842  25.084  24.244  12.166
98418W        W70843   4.467   3.803   1.810
98419W        W70844   2.251  29.159   0.356
98420W        W70845  40.383  27.566   4.713
98421W        W70846  38.334  10.132   1.197
98422W        W70847   9.612  36.829   0.783
98423W        W70848  11.423  41.919  12.470
98424W        W70849  22.557   8.014   4.664
98425W        W70850  18.878   3.036   0.641
98426W        W70851  29.155  13.168  11.944
98427W        W70852  31.089   6.738  11.450
98428W        W70853  12.088  13.750  13.475
98429W        W70854  38.100  22.698  12.157
98430W        W70855  17.167  12.916   2.213
98431W        W70856   6.382  11.189  11.669
98432W        W70857  39.355  24.758  11.010
98433W        W70858  27.985  13.511   0.558
98434W        W70859   2.375  27.164   3.239
98435W        W70860  40.809   8.597   2.018
98436W        W70861  15.678  21.588   2.835
98437W        W70862   2.021  30.459  13.969
98438W        W70863  22.401   2.688   5.008
98439W        W70864  39.909  10.214   5.164
98440W        W70865  40.829  15.310   1.496
98441W        W70866   6.333  36.974   9.979
98442W        W70867  44.268  36.752   4.186
98443W        W70868   1.828  27.435   0.129
98444W        W70869  23.140  42.933  12.507
98445W        W70870  21.616  34.854  13.021
98446W        W70871  33.518  38.563  11.102
98447W        W70872   5.273  33.052  12.579
98448W        W70873  15.595  13.137   1.296
98449W        W70874   6.200   8.895   2.205
98450W        W70875  40.467  20.819   3.768
98451W        W70876  39.959  42.249   2.331
98452W        W70877  22.553  35.463  11.100
98453W        W70878   6.481  35.908   4.968
98454W        W70879  37.528  20.215  10.636
98455W        W70880   3.868  13.612   0.239
98456W        W70881  30.512  44.223   4.590
98457W        W70882  36.210  14.133  12.881
98458W        W70883  15.587  11.176   1.413
98459W        W70884  18.731  43.913   3.320
98460W        W70885  11.845  27.516   4.713
98461W        W70886  20.774  33.643   3.640
98462W        W70887   4.848  24.797  11.428
98463W        W70888  18.002   8.715  13.914
98464W        W70889  39.602   7.712   2.220
98465W        W70890  39.348  30.637  14.859
98466W        W70891   2.209  40.778  13.973
98467W        W70892   4.478  23.938  14.588
98468W        W70893  29.114  33.046   0.003
98469W        W70894  23.979   8.124  13.977
98470W        W70895  43.260  32.929   0.535
98471W        W70896  24.812  43.401  12.789
98472W        W70897  38.369  33.952  13.016
98473W        W70898  41.325  34.253  13.804
98474W        W70899  16.380  25.633   0.813
98475W        W70900  33.001  43.250  12.135
98476W        W70901  35.892  29.188  11.121
98477W        W70902  30.838   8.792   4.992
98478W        W70903  18.244  36.819   1.781
98479W        W70904  43.983  12.574  14.829
98480W        W70905   7.785  38.607   4.517
98481W        W70906   7.556  37.309  13.855
98482W        W70907  26.341  40.934  11.827
98483W        W70908  41.400  27.552   1.298
98484W        W70909  26.595  32.549   0.346
98485W        W70910  25.005  34.970   4.544
98486W        W70911   9.767  37.903   4.165
98487W        W70912  15.178  25.586   2.772
98488W        W70913  40.783   8.050  11.413
98489W        W70914   9.060  32.838   1.330
98490W        W70915   6.857  20.161   2.720
98491W        W70916  24.780  37.360  12.802
98492W        W70917  41.454  41.547  14.014
98493W        W70918  11.664  28.452  13.437
98494W        W70919  10.690  40.447   0.714
98495W        W70920   9.360  43.392   1.172
98496W        W70921  43.818  25.982  14.315
98497W        W70922  25.776  25.706  10.692
98498W        W70923  10.206   9.660   2.499
98499W        W70924  23.958  41.008  10.759
98500W        W70925  29.165   4.860  13.503
98501W        W70926  20.260   8.323  11.203
98502W        W70927  35.502  27.345   0.382
98503W        W70928   1.356  33.962   3.766
98504W        W70929  38.098  41.072   2.739
98505W        W70930  34.971   7.228   2.130
98506W        W70931  22.985   0.796  13.324
98507W        W70932  25.126  41.358  12.600
98508W        W70933  44.568  34.557  11.123
98509W        W70934   7.936  30.072  12.382
98510W        W70935  41.323  43.566   3.307
98511W        W70936  14.594  28.021   4.959
98512W        W70937  12.779  31.968  12.617
98513W        W70938   6.256  40.063  11.612
98514W        W70939   4.092   5.326  13.734
98515W        W70940  21.896  38.652   4.611
98516W        W70941  43.915  38.058  14.426
98517W        W70942  12.289  38.349  13.569
98518W        W70943   2.158  24.200   2.907
98519W        W70944  12.066  43.943  10.657
98520W        W70945   6.858  27.053   4.589
98521W        W70946   4.411  14.922   3.204
98522W        W70947  42.044   2.518  14.597
98523W        W70948  26.582  12.922  13.881
98524W        W70949  24.254   4.669   3.794
98525W        W70950   0.249  44.455  12.397
98526W        W70951  23.497   8.839   1.692
98527W        W70952  44.588  13.629   1.220
98528W        W70953  18.466  23.508  13.984
98529W        W70954  11.436  24.658  11.203
98530W        W70955   8.788  15.484   4.918
98531W        W70956  22.078  36.781  13.951
98532W        W70957   3.783   4.527  11.962
98533W        W70958  21.443  14.059  13.342
98534W        W70959   9.116  43.769  13.590
98535W        W70960  35.607  37.073   2.731
98536W        W70961  18.575  17.671   0.853
98537W        W70962   1.972  27.881   3.688
98538W        W70963  12.135  28.930   3.221
98539W        W70964  21.151   0.658  13.529
98540W        W70965  23.419  17.541   3.854
98541W        W70966  30.377  17.901   9.972
98542W        W70967  39.239   9.939  14.900
98543W        W70968  28.246   6.692  11.141
98544W        W70969  34.287  19.151  11.530
98545W        W70970  24.605  39.482   2.837
98546W        W70971   0.711  43.757  12.821
98547W        W70972  27.717   9.772  10.522
98548W        W70973  22.000  36.456  11.715
98549W        W70974  11.411   6.272   9.806
98550W        W70975   9.214  22.161  12.617
98551W        W70976  14.800   3.458   3.112
98552W        W70977   1.679  28.920   4.016
98553W        W70978   2.896   6.178  10.644
98554W        W70979  27.251  15.306   4.462
98555W        W70980   1.767  22.109  12.204
98556W        W70981  25.454   1.362  13.816
98557W        W70982  29.559  42.737  11.581
98558W        W70983  26.183  13.262   0.682
98559W        W70984   4.273  19.809  14.597
98560W        W70985  43.491  10.888   2.458
98561W        W70986  39.060  25.266  12.546
98562W        W70987  26.307  19.021  13.024
98563W        W70988  41.405   6.410  13.028
98564W        W70989  27.740  27.482  11.179
98565W        W70990   3.798  16.725  11.075
98566W        W70991   0.792  24.278   2.527
98567W        W70992  11.111  28.086   4.802
98568W        W70993  13.233  22.138   3.103
98569W        W70994  16.667  15.396  13.833
98570W        W70995  38.983  26.064   0.807
98571W        W70996   1.038   2.876   3.238
98572W        W70997  31.729  28.140   3.752
98573W        W70998  25.886  24.441   2.189
98574W        W70999   0.593  31.147  10.692
98575W        W71000  39.428  38.650   2.799
98576W        W71001  19.038  44.833  14.422
98577W        W71002  24.070  26.009  12.353
98578W        W71003  30.389  37.946  11.918
98579W        W71004  32.417   1.529   1.375
98580W        W71005   4.674  36.284  12.481
98581W        W71006   8.853  13.816   1.369
98582W        W71007  41.587  35.387   4.077
98583W        W71008  40.580  44.006  12.818
98584W        W71009  22.491  38.005  10.474
98585W        W71010  14.116  17.896   1.872
98586W        W71011  36.713   6.727   1.488
98587W        W71012  26.435  40.361   4.659
98588W        W71013  24.210  16.086  11.885
98589W        W71014  11.092  33.013   4.670
98590W        W71015  33.404   8.826  13.218
98591W        W71016  15.539   4.300   2.705
98592W        W71017  35.479  16.483  12.037
98593W        W71018  17.297   4.078   1.980
98594W        W71019  14.266  30.052   1.805
98595W        W71020  38.837  40.773  10.594
98596W        W71021  17.650   9.306  13.314
98597W        W71022   4.542  22.142   0.898
98598W        W71023  24.512  43.193  12.386
98599W        W71024  44.028  40.842   0.004
98600W        W71025   4.356  18.287  11.499
98601W        W71026  44.099  22.609   5.036
98602W        W71027  11.134  27.156  11.130
98603W        W71028   7.838  29.064  14.917
98604W        W71029   4.852  19.767  12.861
98605W        W71030  43.059  34.080  10.752
98606W        W71031  42.782  40.780   2.319
98607W        W71032  17.539  28.531  14.459
98608W        W71033  39.553  37.334   2.321
98609W        W71034  31.975  20.737  12.509
98610W        W71035  34.904   2.677   4.261
98611W        W71036  18.184  10.679   4.487
98612W        W71037  36.318  23.176  14.060
98613W        W71038  22.793  29.167   2.212
98614W        W71039  31.946  16.187   3.241
98615W        W71040   2.285  28.775  10.957
98616W        W71041  25.148  43.966  14.987
98617W        W71042  39.976  27.730  13.921
98618W        W71043  40.266  16.888  12.126
98619W        W71044  44.890  36.138  11.965
98620W        W71045  17.249  14.860   4.138
98621W        W71046  42.719  17.208  13.310
98622W        W71047  21.716  41.419  13.207
98623W        W71048  34.051  37.087   2.227
98624W        W71049   0.223  29.423   4.102
98625W        W71050  32.394  44.072  13.012
98626W        W71051   1.846   3.921   3.574
98627W        W71052  17.824   1.237  13.845
98628W        W71053  30.689  18.305  13.527
98629W        W71054  39.041  27.583   1.959
98630W        W71055  28.365  29.534  12.448
98631W        W71056  20.166  19.158   1.728
98632W        W71057  36.278  20.369   4.100
98633W        W71058  33.094   3.357   2.249
98634W        W71059   5.368   8.473  10.731
98635W        W71060   0.811  26.743  11.915
98636W        W71061   2.239  11.061  11.599
98637W        W71062   3.478  14.246  10.575
98638W        W71063  30.161  17.055   3.645
98639W        W71064  27.665  31.390  12.111
98640W        W71065  41.091   4.045  11.506
98641W        W71066   3.741  40.089  13.500
98642W        W71067  16.949  26.577   0.172
98643W        W71068  25.204  42.972   2.661
98644W        W71069  38.179   1.018   3.221
98645W        W71070  13.105   1.546  12.949
98646W        W71071  28.525   5.700  14.526
98647W        W71072  23.278   1.295  10.664
98648W        W71073  15.512   7.958   4.713
98649W        W71074   6.284  28.588   4.870
98650W        W71075  32.812   3.865   4.146
98651W        W71076  40.823  13.079   0.842
98652W        W71077   3.707  26.608   2.128
98653W        W71078   8.571  35.150   9.810
98654W        W71079  23.267  37.839   3.237
98655W        W71080  32.053  24.977   4.620
98656W        W71081  34.084  19.610   0.018
98657W        W71082   0.500  24.311  14.755
98658W        W71083  21.435  19.173  14.302
98659W        W71084  18.741  43.679   1.726
98660W        W71085  27.226  27.101   2.601
98661W        W71086   3.647   3.292   3.847
98662W        W71087  34.584  11.371   3.150
98663W        W71088  12.854   0.409   4.141
98664W        W71089   4.828   6.828  13.334
98665W        W71090  13.451  15.538   9.657
98666W        W71091   3.265   2.021   0.799
98667W        W71092  14.151  37.802  14.859
98668W        W71093  39.992  33.421   2.862
98669W        W71094  33.953   0.455   3.210
98670W        W71095  23.470  30.220   4.573
98671W        W71096  34.009  28.524  12.256
98672W        W71097   0.867  18.612  10.623
98673W        W71098  40.388  21.345   2.734
98674W        W71099  13.484  12.817  10.803
98675W        W71100   8.636  33.122   2.940
98676W        W71101  16.118  37.030   4.531
98677W        W71102  38.935  43.481  13.473
98678W        W71103   8.378  32.445  14.014
98679W        W71104  17.340  11.652  14.808
98680W        W71105   3.888   0.186   1.514
98681W        W71106  40.201   2.773  12.975
98682W        W71107  34.926   6.935   3.138
98683W        W71108  11.764  10.513   0.501
98684W        W71109  39.012  15.685   2.169
98685W        W71110  30.853  37.036  12.107
98686W        W71111  44.286  26.441   0.990
98687W        W71112  22.302   5.001   0.341
98688W        W71113  16.530  28.508  14.759
98689W        W71114   6.054   4.850  13.325
98690W        W71115  24.059   5.852   4.861
98691W        W71116   0.770  13.072   2.455
98692W        W71117  21.625  37.577  13.928
98693W        W71118  24.111   0.312   0.741
98694W        W71119  37.858  18.104   4.373
98695W        W71120  26.774  12.274   2.503
98696W        W71121  25.625  31.892  13.547
98697W        W71122  23.744  22.599  14.353
98698W        W71123  28.897   1.758  12.425
98699W        W71124  23.383  12.587   2.737
98700W        W71125  15.654   6.353   1.870
98701W        W71126  20.144  26.107  12.457
98702W        W71127  15.757   0.338  14.845
98703W        W71128  21.530  40.544  14.412
98704W        W71129  40.844  26.797  11.168
98705W        W71130  25.544  44.435   0.952
98706W        W71131  44.312  35.007  11.140
98707W        W71132  23.145  32.895  14.213
98708W        W71133   1.014   1.503   2.607
98709W        W71134  17.861  22.102  12.760
98710W        W71135  20.927  35.594   1.494
98711W        W71136  41.863   1.659  14.784
98712W        W71137   0.804  40.320  11.522
98713W        W71138  10.671  15.070  11.619
98714W        W71139  24.594  42.515  14.507
98715W        W71140   1.426  27.498  14.723
98716W        W71141  29.094  30.124   2.294
98717W        W71142  43.290  40.259   2.813
98718W        W71143  32.089  25.064  13.370
98719W        W71144   2.376   8.497  11.612
98720W        W71145  10.235  33.550  11.003
98721W        W71146  13.860   0.688   1.581
98722W        W71147  14.999   1.828   0.745
98723W        W71148  36.831  29.687   3.853
98724W        W71149   0.867  29.399   1.863
98725W        W71150  36.074   8.156  13.597
98726W        W71151  20.599  23.043   1.890
98727W        W71152  44.360  28.890  13.797
98728W        W71153   8.457  16.719  10.693
98729W        W71154  20.162  22.171  13.392
98730W        W71155  27.011  41.154   2.577
98731W        W71156  34.998   0.637  11.491
98732W        W71157  23.760  31.556   2.346
98733W        W71158  10.528  18.261  13.456
98734W        W71159  23.670  32.369   3.835
98735W        W71160   6.628  41.813   4.840
98736W        W71161   7.696  17.875  12.615
98737W        W71162  16.184  27.668  12.015
98738W        W71163  14.131  18.300  13.094
98739W        W71164   8.459   0.068   3.649
98740W        W71165  31.502  38.066  12.575
98741W        W71166  35.813  26.670  12.944
98742W        W71167  11.551   4.084  13.927
98743W        W71168  28.605  21.890  12.493
98744W        W71169  24.665   4.209   2.613
98745W        W71170  20.102  38.926   2.815
98746W        W71171  43.583  44.819  12.066
98747W        W71172  19.031  41.577  14.905
98748W        W71173  31.916  10.462  12.052
98749W        W71174  35.588  19.104   0.454
98750W        W71175  29.327  26.722   0.526
98751W        W71176  11.682   9.345  13.285
98752W        W71177  43.045  25.276  13.906
98753W        W71178  15.443  38.297   0.316
98754W        W71179  33.987  36.583  11.017
98755W        W71180  31.891  42.883  13.225
98756W        W71181  21.171   9.686   2.382
98757W        W71182  25.082  18.640  14.272
98758W        W71183  36.526   0.872  14.842
98759W        W71184  23.961  15.547  13.731
98760W        W71185  37.518   3.273   4.354
98761W        W71186   8.181  34.161  14.824
98762W        W71187  16.701  37.136   0.965
98763W        W71188  10.797  19.389   1.474
98764W        W71189   2.283  30.204   2.385
98765W        W71190  10.055   2.688   4.416
98766W        W71191   5.780  36.730  10.611
98767W        W71192  22.283  39.912  13.031
98768W        W71193   0.416  39.380   2.116
98769W        W71194   7.610  30.049   0.214
98770W        W71195  15.204  21.234   1.899
98771W        W71196  16.107   5.714   1.421
98772W        W71197  21.478  41.841  12.372
98773W        W71198  28.660  31.402  13.811
98774W        W71199  39.646  18.337  13.410
98775W        W71200  21.708  13.247  12.393
98776W        W71201  31.992  37.785   0.769
98777W        W71202   2.558  35.604  10.608
98778W        W71203  16.571   1.980  11.719
98779W        W71204  25.476  31.497   3.818
98780W        W71205  44.395  16.666  14.115
98781W        W71206  34.772  32.354  13.864
98782W        W71207  25.955  44.783   2.731
98783W        W71208  25.937  22.869   0.943
98784W        W71209  12.214  24.188   4.685
98785W        W71210  28.684  24.989  11.108
98786W        W71211  12.960  33.811  10.367
98787W        W71212  30.137  28.511  12.100
98788W        W71213  12.281   0.762  11.793
98789W        W71214  28.167  36.321  12.915
98790W        W71215   3.047   5.201  10.656
98791W        W71216  40.816   8.065   2.053
98792W        W71217  25.056   4.943  10.737
98793W        W71218   0.345  19.489  12.864
98794W        W71219  33.544  37.520  13.423
98795W        W71220   6.670  41.242  11.405
98796W        W71221   6.758  21.522   4.651
98797W        W71222  11.806  29.695  12.111
98798W        W71223  20.059  14.140   4.181
98799W        W71224  11.374  10.243  14.094
98800W        W71225   2.234  40.425   2.850
98801W        W71226  26.231  14.030  12.507
98802W        W71227  36.763  36.804  12.991
98803W        W71228  20.643  10.951  13.399
98804W        W71229  41.509   8.342   2.166
98805W        W71230   1.201  18.413   2.329
98806W        W71231  32.041  40.557   0.709
98807W        W71232   3.830  43.507  11.992
98808W        W71233  14.859  22.353  14.328
98809W        W71234  36.320  20.708  13.419
98810W        W71235  42.549  28.056  11.908
98811W        W71236  13.843   3.937   3.131
98812W        W71237  35.923  23.679   0.347
98813W        W71238  34.606  23.053  12.531
98814W        W71239  22.711  15.777  10.674
98815W        W71240  24.281  20.213   4.695
98816W        W71241   4.511  13.094  14.402
98817W        W71242   4.808  42.000  13.742
98818W        W71243   6.984  41.270  14.806
98819W        W71244  17.505   0.103  10.898
98820W        W71245  38.273  22.554   1.289
98821W        W71246   2.045   8.286   0.310
98822W        W71247  23.975  38.110   1.786
98823W        W71248  36.345  12.641  11.150
98824W        W71249  12.550  30.568  11.557
98825W        W71250  35.562  35.095   1.270
98826W        W71251   4.483  27.543   1.353
98827W        W71252  29.890   6.880   0.805
98828W        W71253  14.846  41.493  10.603
98829W        W71254  39.957  39.095   0.450
98830W        W71255   6.954  21.581   3.152
98831W        W71256  15.751   0.546  13.390
98832W        W71257  35.018  21.621  14.708
98833W        W71258  43.217  36.117   4.050
98834W        W71259  44.776  26.855   2.166
98835W        W71260  36.005  28.279   2.037
98836W        W71261  17.482  25.507   3.453
98837W        W71262  40.417  43.572   1.315
98838W        W71263  29.840  36.202   0.113
98839W        W71264   6.880  11.255  12.488
98840W        W71265   8.391  23.936   0.517
98841W        W71266  42.558  15.793   0.045
98842W        W71267  33.481  29.593   4.803
98843W        W71268  20.336   4.469  12.169
98844W        W71269  36.925  21.778  14.024
98845W        W71270  30.087  27.085   0.019
98846W        W71271  25.185  29.175  12.471
98847W        W71272   3.396  29.000  12.581
98848W        W71273  15.084   1.572  14.110
98849W        W71274  12.939  43.192   3.269
98850W        W71275  22.425  30.392  14.806
98851W        W71276   9.575  12.582   3.068
98852W        W71277  22.007  11.623  10.882
98853W        W71278  41.426  41.055   1.482
98854W        W71279  42.100   6.010  14.250
98855W        W71280  11.276  41.354  12.987
98856W        W71281  21.641   9.439  13.867
98857W        W71282  34.869  26.060   4.097
98858W        W71283  40.919  44.258  11.742
98859W        W71284   7.922  42.462  11.950
98860W        W71285  36.046  24.155   2.843
98861W        W71286  39.037  24.994   2.192
98862W        W71287  43.910   6.263  14.895
98863W        W71288  27.056   8.794  11.010
98864W        W71289  11.246  22.712  12.654
98865W        W71290  37.048   1.988   1.739
98866W        W71291  13.213  30.456   0.716
98867W        W71292  35.386  41.076   2.251
98868W        W71293   2.715  15.470  14.626
98869W        W71294  24.128  15.247   2.401
98870W        W71295  33.211  25.737  11.580
98871W        W71296  30.869  38.552   0.836
98872W        W71297  26.645   6.312  11.600
98873W        W71298  19.230  10.516   0.496
98874W        W71299  22.110   6.862   1.342
98875W        W71300  35.065  28.879  13.864
98876W        W71301  37.648   3.723   4.574
98877W        W71302  15.541  33.010   2.692
98878W        W71303  22.059  38.347   1.247
98879W        W71304   0.753  43.975   0.124
98880W        W71305  36.898  26.650  10.794
98881W        W71306  31.624  29.593   2.722
98882W        W71307  25.440  29.748   1.778
98883W        W71308  20.074  30.029  11.014
98884W        W71309  30.035  41.393  14.408
98885W        W71310  36.423   5.418   2.794
98886W        W71311  25.406  36.838   0.632
98887W        W71312  20.798  30.972   2.486
98888W        W71313  40.873  25.710  13.009
98889W        W71314  44.896  19.268   0.740
98890W        W71315  22.538  36.309  11.101
98891W        W71316   3.850   9.775   4.134
98892W        W71317  41.933  10.663  11.140
98893W        W71318   3.559  29.513   0.422
98894W        W71319  39.936  42.371  10.352
98895W        W71320  40.891  31.988  12.940
98896W        W71321  27.093   4.449   3.827
98897W        W71322  22.184  24.993   3.385
98898W        W71323  20.735   6.913   4.122
98899W        W71324  41.317  30.152  13.894
98900W        W71325  31.056  37.476   3.433
98901W        W71326   4.708   1.597  14.823
98902W        W71327  30.576  37.372   2.438
98903W        W71328  15.746  29.954   0.232
98904W        W71329  18.618  40.016  13.885
98905W        W71330  11.714  30.845   2.716
98906W        W71331  34.084  13.360  11.409
98907W        W71332  11.372  11.799  12.153
98908W        W71333  33.975   7.035   4.031
98909W        W71334  25.020   3.282   4.769
98910W        W71335   5.287   6.849  12.993
98911W        W71336   5.587  36.456  12.005
98912W        W71337  19.481  41.760   3.817
98913W        W71338  27.027   1.234  11.018
98914W        W71339   1.036  25.100  12.019
98915W        W71340  17.661   7.420   1.723
98916W        W71341  38.359   5.279  10.657
98917W        W71342  22.835   8.944  12.337
98918W        W71343   0.328  41.971   4.921
98919W        W71344   2.003  20.346  11.728
98920W        W71345  11.277  14.805   1.001
98921W        W71346  21.130  19.132   0.254
98922W        W71347   6.916  16.588   4.036
98923W        W71348  33.567  36.597   0.529
98924W        W71349   6.420   1.248   4.268
98925W        W71350   2.000   6.862  13.054
98926W        W71351  36.499   1.262   1.865
98927W        W71352  22.696  35.671  13.412
98928W        W71353   3.709  30.980  14.286
98929W        W71354  15.117  28.838   4.624
98930W        W71355   7.207  27.390   3.264
98931W        W71356  11.683  18.517   4.278
98932W        W71357   5.804  30.710  13.346
98933W        W71358  33.060  19.306  14.432
98934W        W71359  27.899   0.959  11.591
98935W        W71360  44.519  12.797  14.574
98936W        W71361  39.820  28.557  14.425
98937W        W71362  44.056  38.560  11.130
98938W        W71363  38.536  36.005  13.476
98939W        W71364  41.227  25.706  11.996
98940W        W71365   6.012   6.336  11.802
98941W        W71366  24.784  12.355   0.574
98942W        W71367  21.690  19.121   1.835
98943W        W71368  33.969  29.181   3.261
98944W        W71369  30.245  18.873  11.726
98945W        W71370  42.691  33.592   0.768
98946W        W71371  22.552  23.796   1.303
98947W        W71372  39.939   9.290   2.860
98948W        W71373  34.504  30.478   4.659
98949W        W71374  43.128   8.837  10.862
98950W        W71375  11.140  19.145  13.467
98951W        W71376  40.766  36.004   4.526
98952W        W71377  10.343   0.193   4.189
98953W        W71378  39.044  12.386  12.847
98954W        W71379   7.838  35.030   1.806
98955W        W71380  29.637  27.574   4.808
98956W        W71381  40.875  44.746   4.530
98957W        W71382  10.996  12.283  12.906
98958W        W71383  19.007   3.794  12.058
98959W        W71384  22.132  43.461   0.677
98960W        W71385  14.520  15.704  10.668
98961W        W71386  41.580   2.464   3.638
98962W        W71387  36.822  11.753   3.572
98963W        W71388  20.704  17.041   0.428
98964W        W71389  36.637  21.298  12.608
98965W        W71390   9.926  14.356  14.539
98966W        W71391  21.987   1.348  11.969
98967W        W71392   4.985  20.122  10.482
98968W        W71393  35.848  12.394  11.013
98969W        W71394  30.901   9.408  12.401
98970W        W71395  41.752  34.312  14.102
98971W        W71396  30.112   0.395   0.011
98972W        W71397   4.906  42.252   2.309
98973W        W71398  13.782   4.350  12.648
98974W        W71399  30.859  25.784  11.960
98975W        W71400  34.507   0.914  12.195
98976W        W71401  11.265   9.133   3.241
98977W        W71402   1.771   9.042   0.886
98978W        W71403  11.668  30.621   3.240
98979W        W71404  40.325  10.813  11.111
98980W        W71405   0.474   5.376   3.742
98981W        W71406  37.877  17.458   0.048
98982W        W71407  28.954   2.564  12.136
98983W        W71408  34.008  28.074   3.777
98984W        W71409  33.584  18.252   4.110
98985W        W71410  22.750  23.063  11.922
98986W        W71411  12.673  22.539   2.827
98987W        W71412  17.632  33.174   1.048
98988W        W71413   0.921  16.371  10.996
98989W        W71414   8.254  42.511   3.085
98990W        W71415   0.979   7.473  13.787
98991W        W71416  36.987  17.679   4.733
98992W        W71417  11.446  25.185   4.550
98993W        W71418  36.842  26.608  14.420
98994W        W71419  12.341  23.311   4.146
98995W        W71420   8.120  33.879  12.019
98996W        W71421  21.328   0.715  14.039
98997W        W71422  18.487  16.637  11.501
98998W        W71423  15.641  22.145  11.641
98999W        W71424  26.008   8.405   3.328
99000W        W71425  21.921  40.089   1.620
99001W        W71426  23.668   6.260   3.833
99002W        W71427   4.322  35.231  11.638
99003W        W71428  19.626  27.122   0.692
99004W        W71429  16.159  18.679  13.298
99005W        W71430  18.514  44.436  11.531
99006W        W71431  14.382  39.550  14.450
99007W        W71432  44.430  18.559   3.069
99008W        W71433  23.066   6.655   4.375
99009W        W71434  35.574  16.359   2.189
99010W        W71435  27.712   6.775  10.582
99011W        W71436  32.857  41.968   1.433
99012W        W71437  40.941  16.903  11.757
99013W        W71438   7.256  41.052  10.772
99014W        W71439  39.908   9.139   4.614
99015W        W71440   9.341  19.248  12.957
99016W        W71441  13.652  33.300  10.710
99017W        W71442  38.377  32.601   3.831
99018W        W71443  16.772   2.763   0.276
99019W        W71444  26.956  15.766  13.720
99020W        W71445  28.487   3.742   2.036
99021W        W71446  36.776   0.904  12.638
99022W        W71447   2.310  20.612   0.323
99023W        W71448  24.981  37.062  12.446
99024W        W71449  20.969  42.394  14.773
99025W        W71450  28.396   1.857  12.417
99026W        W71451  37.977  32.286   3.653
99027W        W71452   0.496  14.253   2.693
99028W        W71453   6.442  42.605  11.560
99029W        W71454  35.707   5.800  13.518
99030W        W71455   0.255  40.968  14.467
99031W        W71456  34.829  31.545  13.331
99032W        W71457  28.795  38.378   1.845
99033W        W71458  19.749  32.137  12.003
99034W        W71459  11.696  24.146   2.527
99035W        W71460  36.406  20.519  12.911
99036W        W71461   6.694  15.612   4.530
99037W        W71462  27.092  19.558   3.659
99038W        W71463  35.853  18.613   3.570
99039W        W71464  36.305  14.102   4.089
99040W        W71465  32.659  20.701   0.334
99041W        W71466  19.289   1.003  10.305
99042W        W71467  10.940  26.643   2.788
99043W        W71468  23.543  42.341  11.060
99044W        W71469  29.002   6.305  10.861
99045W        W71470   6.819  13.238  14.758
99046W        W71471  21.737  19.530  13.379
99047W        W71472   2.689  27.700  13.873
99048W        W71473  27.030   6.859   3.136
99049W        W71474  27.216  25.625  14.366
99050W        W71475  30.485  37.628  14.083
99051W        W71476  21.020  38.443   0.314
99052W        W71477  33.329   1.126  12.149
99053W        W71478  32.645  41.347  13.661
99054W        W71479  32.407   8.268  12.473
99055W        W71480  26.176   8.195  10.715
99056W        W71481  27.106  25.902  11.059
99057W        W71482  12.238  40.275   2.352
99058W        W71483  33.316  36.549   3.292
99059W        W71484  32.111  18.374  10.153
99060W        W71485  39.713  10.141   3.895
99061W        W71486  11.164  27.143   4.685
99062W        W71487   4.383  25.505  14.331
99063W        W71488  42.803  38.689   4.193
99064W        W71489  26.458  20.751  14.329
99065W        W71490  44.828   7.252   3.553
99066W        W71491  13.186   9.861   1.045
99067W        W71492  37.830  10.438  12.029
99068W        W71493  34.537  17.263  10.704
99069W        W71494  35.042  27.934   1.871
99070W        W71495  11.074  25.454  12.134
99071W        W71496   0.848  41.063  11.070
99072W        W71497   8.887  23.645  13.564
99073W        W71498  22.319   3.896  12.414
99074W        W71499  19.531  13.728   1.396
99075W        W71500  36.309   6.385  13.065
99076W        W71501   6.423  41.261  10.966
99077W        W71502  29.039   4.614   3.088
99078W        W71503  40.630  39.767  12.636
99079W        W71504  35.593  44.872   0.848
99080W        W71505  15.763  24.526  10.749
99081W        W71506  19.603  33.979  10.845
99082W        W71507  34.158  33.569  13.620
99083W        W71508  33.368  43.501  12.396
99084W        W71509  12.339  44.411  12.001
99085W        W71510  13.079  44.922  13.037
99086W        W71511  27.567  17.210   4.839
99087W        W71512  42.549  17.487   1.684
99088W        W71513  24.115  23.425  11.041
99089W        W71514   3.416  20.540   2.866
99090W        W71515   5.393  33.008  13.587
99091W        W71516  29.464  43.363   4.787
99092W        W71517   6.909   3.297   1.172
99093W        W71518   5.218  28.981   0.881
99094W        W71519  14.413  28.573   2.774
99095W        W71520  10.933   4.343   0.046
99096W        W71521   7.239  13.322   2.135
99097W        W71522   4.461   1.256   2.778
99098W        W71523  33.170  17.534  11.199
99099W        W71524   1.852   8.749  14.084
99100W        W71525  13.876   5.173   1.910
99101W        W71526  22.500  13.456  11.963
99102W        W71527  23.270  22.189   4.972
99103W        W71528  36.899  36.447  10.682
99104W        W71529  27.592  34.665   2.511
99105W        W71530  12.086   7.945   1.781
99106W        W71531  19.356  17.164  14.913
99107W        W71532   2.035   3.393   1.038
99108W        W71533  30.030  22.799  13.974
99109W        W71534  10.910  11.836  11.925
99110W        W71535  19.262  27.698   0.713
99111W        W71536  14.266  40.783   3.669
99112W        W71537  24.627  31.931   0.462
99113W        W71538  41.824  28.611   3.769
99114W        W71539  35.329  19.995   0.769
99115W        W71540  18.578  14.767   0.428
99116W        W71541  11.722  44.983   2.594
99117W        W71542  30.950  16.829  11.446
99118W        W71543  40.994  25.175   2.481
99119W        W71544  17.765   8.379  14.267
99120W        W71545  14.700  37.476  11.497
99121W        W71546  31.315  17.556  11.880
99122W        W71547  25.827  11.733   3.493
99123W        W71548  28.173  37.151   4.239
99124W        W71549  21.045  30.549  11.142
99125W        W71550  35.441  35.532  10.535
99126W        W71551  24.477  30.576  10.703
99127W        W71552  31.007   3.846   3.974
99128W        W71553  31.120  30.567   4.634
99129W        W71554  12.660  41.281   2.889
99130W        W71555  15.612   7.022   0.829
99131W        W71556  24.984  33.937   2.239
99132W        W71557  26.196  35.183  10.695
99133W        W71558  32.957   3.629   0.448
99134W        W71559  44.107  13.246  13.568
99135W        W71560   8.365  25.266  12.143
99136W        W71561  21.665  35.600  14.517
99137W        W71562  14.646  24.971   4.979
99138W        W71563  18.513  12.279  10.858
99139W        W71564  20.575  10.221  11.014
99140W        W71565   9.055  38.531  13.867
99141W        W71566  38.429  34.454   0.516
99142W        W71567  12.872   1.060  13.006
99143W        W71568  32.200  23.946   1.813
99144W        W71569  28.314  11.174  11.520
99145W        W71570  10.572  35.543  12.027
99146W        W71571  38.564  30.122   4.077
99147W        W71572  19.459   7.439  13.416
99148W        W71573  30.487   6.374   2.182
99149W        W71574  20.086   7.453   0.012
99150W        W71575  36.416   9.715   0.428
99151W        W71576  15.689  34.646   2.736
99152W        W71577   5.282  20.075   4.531
99153W        W71578  13.923  38.042  13.386
99154W        W71579  10.574  31.088  12.535
99155W        W71580  16.808  42.476   2.735
99156W        W71581  25.984  17.154   3.286
99157W        W71582   8.379  19.071   0.863
99158W        W71583   6.250  31.648  11.111
99159W        W71584  34.916  33.363   3.676
99160W        W71585   0.974   6.348  10.940
99161W        W71586  10.739  10.532   4.172
99162W        W71587   2.380  33.244   2.412
99163W        W71588  22.883  28.241   5.014
99164W        W71589  20.025   4.461   2.218
99165W        W71590  39.069  18.848  12.291
99166W        W71591   4.276   0.797  14.274
99167W        W71592  23.750   9.453  14.938
99168W        W71593  11.366  18.704   3.418
99169W        W71594   1.027  32.011   2.861
99170W        W71595  17.336  11.673   2.755
99171W        W71596  12.133  11.656  10.598
99172W        W71597   5.281   3.921   2.644
99173W        W71598  40.074  27.706   1.738
99174W        W71599  31.856   6.270  11.124
99175W        W71600  14.752  28.638   2.383
99176W        W71601  32.002  12.385  11.463
99177W        W71602  19.178   4.602   3.177
99178W        W71603  41.000  37.795   3.621
99179W        W71604  12.250  16.367  10.538
99180W        W71605  32.957  17.709   4.708
99181W        W71606  20.042  41.465   0.773
99182W        W71607  36.520  29.454   1.286
99183W        W71608   5.784  31.085   4.128
99184W        W71609   9.830   1.304  13.035
99185W        W71610  37.180  14.867  14.874
99186W        W71611  17.565  41.282  11.307
99187W        W71612  14.525  21.071  10.802
99188W        W71613  16.563   6.146   2.429
99189W        W71614  14.113   6.932  10.759
99190W        W71615  42.749  16.787   0.771
99191W        W71616  32.984   3.393   4.048
99192W        W71617  35.816  37.812   1.366
99193W        W71618  26.126   8.604  13.479
99194W        W71619  16.596  34.442   4.653
99195W        W71620  41.377  41.344   2.323
99196W        W71621  38.990   6.291   4.580
99197W        W71622  32.807  13.547  12.560
99198W        W71623  11.441  26.608   1.300
99199W        W71624   2.796  17.572   4.532
99200W        W71625  15.197   0.904   3.886
99201W        W71626   3.860  22.409   0.346
99202W        W71627  40.641  26.677   2.453
99203W        W71628  43.200  27.304   3.743
99204W        W71629  27.323  27.348   0.883
99205W        W71630  30.642   6.786   0.367
99206W        W71631  29.350  19.885  10.600
99207W        W71632  22.235  20.064  12.081
99208W        W71633  12.486  37.545  13.511
99209W        W71634   6.929  20.117   1.747
99210W        W71635  12.561   6.267   4.656
99211W        W71636  27.474  11.629  13.035
99212W        W71637  29.493  29.603   1.673
99213W        W71638  34.162   0.210  13.434
99214W        W71639  11.269  19.223   4.160
99215W        W71640   7.210   0.368   4.564
99216W        W71641  40.820  42.583   0.630
99217W        W71642  19.450  18.747  12.619
99218W        W71643  15.307  24.316  12.954
99219W        W71644   1.333  42.306   3.517
99220W        W71645  11.652  36.209   9.776
99221W        W71646  30.184  28.036  10.891
99222W        W71647  31.911  40.577   2.875
99223W        W71648  34.046  44.536  11.135
99224W        W71649  22.719  24.196   3.985
99225W        W71650   6.410  19.695   4.119
99226W        W71651  18.063  18.582  11.676
99227W        W71652  33.936  33.716   0.433
99228W        W71653   2.214  30.945  10.717
99229W        W71654   4.180  24.666  11.995
99230W        W71655  18.215  10.349  10.878
99231W        W71656  42.931  34.845   1.319
99232W        W71657  30.173  39.953   3.149
99233W        W71658  28.127  32.838   2.127
99234W        W71659  39.041  42.547  13.562
99235W        W71660  19.928   7.402  11.554
99236W        W71661  23.054   6.170  12.083
99237W        W71662  19.592  26.785  13.369
99238W        W71663  36.475  23.827   2.893
99239W        W71664   2.619   9.683   0.779
99240W        W71665  22.006  34.241   0.702
99241W        W71666  34.486  44.041   3.628
99242W        W71667   7.300   7.651  10.724
99243W        W71668  40.700  27.169   4.124
99244W        W71669  33.222  34.484  10.938
99245W        W71670  23.575  16.352  12.572
99246W        W71671  43.192  14.998   0.326
99247W        W71672   5.709  16.598  10.617
99248W        W71673  13.556  38.594   1.164
99249W        W71674  18.102   1.434   4.221
99250W        W71675  19.158  35.467   4.210
99251W        W71676  16.272  30.194  14.957
99252W        W71677  19.684  31.508  11.146
99253W        W71678  28.206  19.052  13.632
99254W        W71679  34.503   9.334   3.124
99255W        W71680  32.606  14.126  10.641
99256W        W71681  35.851  15.755   0.452
99257W        W71682   3.754  15.352   2.992
99258W        W71683  22.801  27.372   1.052
99259W        W71684   2.908  16.049  14.767
99260W        W71685  13.628  29.082  13.353
99261W        W71686   3.938  28.136   0.697
99262W        W71687  40.403  19.981  12.008
99263W        W71688   9.432  25.981   1.871
99264W        W71689  11.239  11.056   1.378
99265W        W71690  40.342  30.573   0.233
99266W        W71691  14.711  13.681   1.327
99267W        W71692   2.624  41.742  14.007
99268W        W71693  39.560  18.731  12.084
99269W        W71694  10.742  36.497  11.886
99270W        W71695   9.645   0.718   4.058
99271W        W71696   9.463   3.892   4.391
99272W        W71697  23.657  25.696   0.895
99273W        W71698  33.339  18.159   2.715
99274W        W71699  27.115   7.416  11.921
99275W        W71700  32.454  25.683   1.722
99276W        W71701  43.950  32.931  10.606
99277W        W71702  14.594  10.348   1.885
99278W        W71703  27.954  42.145  14.879
99279W        W71704   0.019   2.840   3.539
99280W        W71705   5.947   6.968   2.688
99281W        W71706  12.368  41.759   3.546
99282W        W71707   1.700   6.124   3.034
99283W        W71708  13.483  40.412   1.765
99284W        W71709   0.309  16.980  12.976
99285W        W71710   1.255  37.913  11.589
99286W        W71711  25.683  40.906   0.913
99287W        W71712  38.133  29.555   0.409
99288W        W71713  29.573   6.240  14.321
99289W        W71714   5.947  44.358  14.970
99290W        W71715   0.609  42.869  14.660
99291W        W71716  29.114  24.389   2.589
99292W        W71717  27.913  41.033   3.386
99293W        W71718  41.962   3.889   4.720
99294W        W71719  10.200  43.769   3.285
99295W        W71720   9.333  33.318  11.706
99296W        W71721   0.983  33.991   4.389
99297W        W71722  26.031  17.488  13.161
99298W        W71723  22.468  26.931   4.892
99299W        W71724   3.844  32.329  12.383
99300W        W71725  43.348   9.937   1.368
99301W        W71726  26.511  16.397   2.323
99302W        W71727  34.997   0.967  12.319
99303W        W71728  29.892  14.548  12.968
99304W        W71729  37.862  23.661  10.109
99305W        W71730  27.719  17.586   4.523
99306W        W71731  16.808   2.315   4.199
99307W        W71732  16.301  11.394  13.139
99308W        W71733  16.402   3.072  10.048
99309W        W71734   7.667  28.681   1.405
99310W        W71735  15.074  11.131   0.519
99311W        W71736  28.473  40.656  10.704
99312W        W71737  17.167   8.170   4.856
99313W        W71738  25.500  23.803   4.000
99314W        W71739  34.979  23.596   0.271
99315W        W71740  13.213   1.239  14.586
99316W        W71741  24.482   5.967   2.676
99317W        W71742  27.311  34.565  11.901
99318W        W71743   9.946  40.166   3.170
99319W        W71744  37.256  16.176   4.278
99320W        W71745   9.438   1.682  12.088
99321W        W71746  26.443  20.088  13.769
99322W        W71747  33.165  30.628   3.950
99323W        W71748  22.817  40.021  11.286
99324W        W71749  20.716  10.193   3.297
99325W        W71750  21.117  29.531  13.977
99326W        W71751  12.954  36.895   4.116
99327W        W71752  35.398  27.541   1.359
99328W        W71753  39.369  23.254  11.967
99329W        W71754  18.787  15.680   1.388
99330W        W71755  32.348   1.823  10.721
99331W        W71756  44.749  35.782  10.614
99332W        W71757  31.330   1.680  10.698
99333W        W71758  30.693   6.222  10.560
99334W        W71759  31.479   8.114   1.851
99335W        W71760  28.537   7.748   4.823
99336W        W71761  27.701   2.624  13.551
99337W        W71762  25.011  28.258   3.584
99338W        W71763  34.457   4.643  11.011
99339W        W71764  19.267  43.651  14.016
99340W        W71765  30.402   1.348  11.035
99341W        W71766   2.392  41.055  11.712
99342W        W71767   1.325  43.823   1.878
99343W        W71768  19.221  39.628  14.418
99344W        W71769   6.782  25.906   3.935
99345W        W71770   7.842  37.996  13.665
99346W        W71771   3.923  41.875  11.656
99347W        W71772  17.191   4.814  12.818
99348W        W71773  27.842  17.586  12.642
99349W        W71774  23.603  38.102  11.249
99350W        W71775  27.748  26.245  10.374
99351W        W71776  19.575   1.994  11.989
99352W        W71777  24.178  42.303   2.250
99353W        W71778  25.558  25.502   1.279
99354W        W71779  36.283  10.704  11.288
99355W        W71780   5.856  29.077   2.291
99356W        W71781  37.055   8.643   1.860
99357W        W71782  42.587  10.187  14.835
99358W        W71783  29.415  26.912   3.693
99359W        W71784   9.159   6.451   3.678
99360W        W71785  32.710  20.171   2.696
99361W        W71786   1.209  27.165  13.051
99362W        W71787  44.941  24.469   3.216
99363W        W71788  26.187   1.736  13.738
99364W        W71789  22.790   6.175  13.761
99365W        W71790  28.207  15.601   3.740
99366W        W71791  33.716  24.045   0.935
99367W        W71792  37.678  18.237  14.590
99368W        W71793  38.824  30.429  14.340
99369W        W71794  16.863   2.750   2.036
99370W        W71795   2.942  38.578   4.439
99371W        W71796  30.978   8.940   2.977
99372W        W71797  43.335  15.745  12.179
99373W        W71798  34.071  41.828   3.319
99374W        W71799  13.668  41.995  12.603
99375W        W71800  26.623   5.524   2.561
99376W        W71801  20.299   1.020  11.679
99377W        W71802  35.430  29.076  14.782
99378W        W71803  19.231  36.336   1.798
99379W        W71804  12.064  39.624   4.401
99380W        W71805  21.054  21.208  14.321
99381W        W71806  17.921  13.658   3.344
99382W        W71807  14.532  19.099   0.454
99383W        W71808  12.281  23.716  12.023
99384W        W71809  34.071  42.560   4.081
99385W        W71810   2.610   4.826   4.586
99386W        W71811   5.934  12.055  14.286
99387W        W71812   6.155  12.243  12.782
99388W        W71813  27.022   9.725   4.659
99389W        W71814  29.634  11.706   4.087
99390W        W71815  10.395  39.873  12.573
99391W        W71816  24.784   6.507  14.261
99392W        W71817  40.305  32.976   3.827
99393W        W71818  30.931  10.061   0.737
99394W        W71819  38.032   7.518   5.148
99395W        W71820   8.926  39.852   3.211
99396W        W71821  18.167  10.757  13.007
99397W        W71822  22.835  24.120   2.722
99398W        W71823  14.704  42.324  11.673
99399W        W71824  15.331  29.606   1.759
99400W        W71825  28.505  24.876   1.138
99401W        W71826  38.966  25.581   3.996
99402W        W71827  35.430  16.407   4.678
99403W        W71828  24.207  20.129   1.433
99404W        W71829  40.177  36.089  11.569
99405W        W71830  40.184  43.074  12.246
99406W        W71831  32.885  35.527   4.049
99407W        W71832  10.474   3.243   2.299
99408W        W71833  42.424   9.709   1.934
99409W        W71834  25.716  42.650   4.169
99410W        W71835  27.447  38.375   2.088
99411W        W71836  30.217   0.858   3.082
99412W        W71837  42.883   8.877  11.845
99413W        W71838   2.224  43.772   1.826
99414W        W71839  18.603  21.427   3.787
99415W        W71840   0.664  12.797   2.886
99416W        W71841  39.857  37.842   0.777
99417W        W71842  33.021  10.849  12.036
99418W        W71843  39.550  11.640   3.234
99419W        W71844  31.082  11.124  10.872
99420W        W71845  16.481  10.893  12.461
99421W        W71846  13.179  24.628   3.372
99422W        W71847  13.227  27.638   3.474
99423W        W71848  30.008  19.907  10.371
99424W        W71849  30.076   1.474  14.343
99425W        W71850  14.244  40.287   1.367
99426W        W71851  36.643  17.665  11.673
99427W        W71852  25.668  36.565  11.121
99428W        W71853  36.015  42.805  12.043
99429W        W71854  20.416  40.638   1.897
99430W        W71855   4.094  20.252  12.462
99431W        W71856  27.477  10.526  12.806
99432W        W71857   0.896  30.585  14.398
99433W        W71858  41.349  35.985   0.544
99434W        W71859  43.443  14.387   1.817
99435W        W71860   1.893   8.882   1.883
99436W        W71861   7.338   6.949   4.145
99437W        W71862  13.775  31.852   4.118
99438W        W71863  27.651   5.937   2.326
99439W        W71864  34.508   2.276   1.199
99440W        W71865   8.637  43.384   0.393
99441W        W71866  37.525  16.707   0.437
99442W        W71867  23.461   4.130  11.974
99443W        W71868  10.426  42.441   1.334
99444W        W71869  18.782  20.721  13.372
99445W        W71870  10.347   8.392  14.274
99446W        W71871   2.187  41.745  11.152
99447W        W71872  44.742  36.525  11.064
99448W        W71873   8.247   6.846   5.293
99449W        W71874  29.660  36.424   0.614
99450W        W71875  22.259  16.893   3.854
99451W        W71876  16.055  11.598   0.354
99452W        W71877  15.857   2.814  11.193
99453W        W71878   4.258  30.946  13.952
99454W        W71879  25.357  33.594   3.545
99455W        W71880   0.095   0.415  13.541
99456W        W71881   7.062  18.498  11.132
99457W        W71882  15.390   8.104  10.993
99458W        W71883  32.793  31.608   2.236
99459W        W71884  35.386  37.462   1.769
99460W        W71885   9.689   4.040  10.714
99461W        W71886  32.389  23.195  13.586
99462W        W71887   5.888  11.858  11.337
99463W        W71888  13.765  42.819   1.779
99464W        W71889  16.218  27.902   0.371
99465W        W71890  30.525  26.527   2.721
99466W        W71891   6.203  36.676   3.378
99467W        W71892  44.574  36.051  11.293
99468W        W71893   4.939  28.505   4.636
99469W        W71894  23.239  17.673  13.615
99470W        W71895  30.437  35.063  14.707
99471W        W71896  17.555  13.670   0.895
99472W        W71897  15.267  20.174   2.764
99473W        W71898  33.413   6.732  10.265
99474W        W71899  22.134  10.117  10.547
99475W        W71900   8.178  40.231  10.387
99476W        W71901  31.039  31.472  12.794
99477W        W71902   6.630  44.824   0.453
99478W        W71903  31.127  39.407   1.033
99479W        W71904  38.944  32.153   0.420
99480W        W71905  40.957  19.365   2.189
99481W        W71906   0.405  43.271  14.398
99482W        W71907  42.564  24.323   1.283
99483W        W71908  43.969  20.561  13.099
99484W        W71909  41.963  32.087   4.555
99485W        W71910   0.890  20.842   4.556
99486W        W71911  23.428  20.657   3.871
99487W        W71912  44.211   3.013   4.561
99488W        W71913  25.576  32.524   1.503
99489W        W71914   2.407  15.331  13.659
99490W        W71915  43.588  21.766  12.502
99491W        W71916  26.636   4.436  10.668
99492W        W71917   6.260  44.918  14.924
99493W        W71918  38.548  37.914   3.818
99494W        W71919   4.487   9.395  11.803
99495W        W71920  32.696   6.908  14.490
99496W        W71921  40.499  33.486   4.030
99497W        W71922  27.617  23.249  11.646
99498W        W71923   3.168  39.110  13.770
99499W        W71924   2.743  30.046   1.888
99500W        W71925   0.506   8.240   0.823
99501W        W71926  15.352  18.241   3.319
99502W        W71927   4.901  37.334   3.176
99503W        W71928  14.715  17.242   0.082
99504W        W71929  29.833   2.334   4.170
99505W        W71930  27.616   2.167   2.039
99506W        W71931   0.101  33.663  11.135
99507W        W71932  24.732  29.951   3.395
99508W        W71933  30.506   7.302  10.924
99509W        W71934  26.992  38.422  14.218
99510W        W71935   6.713  11.262   4.006
99511W        W71936  44.724  27.133  14.947
99512W        W71937  19.693   5.458   0.775
99513W        W71938  10.220  36.537  11.963
99514W        W71939  11.418  25.495   1.930
99515W        W71940   5.028  33.636  10.644
99516W        W71941   9.632  31.186  14.371
99517W        W71942   5.353   7.076   3.133
99518W        W71943  35.133  26.975  14.783
99519W        W71944  27.516  36.280  13.626
99520W        W71945  35.885  25.033  12.456
99521W        W71946  17.364  36.352  14.406
99522W        W71947   8.267  35.274   3.353
99523W        W71948  13.303  42.517   0.888
99524W        W71949  10.417  35.341  10.491
99525W        W71950  25.672  24.685  10.546
99526W        W71951  27.463   8.319   1.079
99527W        W71952  28.864   2.735  11.615
99528W        W71953  29.995  13.456   2.637
99529W        W71954  31.957  40.478   4.588
99530W        W71955   5.734  30.188   2.733
99531W        W71956  28.376  41.721  11.653
99532W        W71957  20.607  17.818   1.517
99533W        W71958  21.046  22.718  11.468
99534W        W71959  23.806  27.190  13.484
99535W        W71960  44.075  23.214   1.365
99536W        W71961  19.357  17.737  10.872
99537W        W71962  30.033  37.481   1.379
99538W        W71963  44.882  34.120   3.781
99539W        W71964  17.819  42.289   0.218
99540W        W71965   2.030  29.281  12.110
99541W        W71966   1.671   2.272   2.440
99542W        W71967  15.818  33.214   2.246
99543W        W71968  29.500  16.776   2.178
99544W        W71969  39.004  23.164  11.081
99545W        W71970   7.403  25.102  10.489
99546W        W71971   6.426   1.896  12.105
99547W        W71972  25.606  43.345   4.735
99548W        W71973  38.750   7.629   3.728
99549W        W71974  28.221  43.259  10.949
99550W        W71975  31.701  34.291   3.933
99551W        W71976  41.301   3.954  10.596
99552W        W71977  34.680  34.094  11.075
99553W        W71978  22.197   4.178  13.758
99554W        W71979  14.594  25.396   2.254
99555W        W71980  16.123  32.863   0.321
99556W        W71981  16.848  15.879  13.798
99557W        W71982  35.104  23.704   5.474
99558W        W71983  32.887  10.741  13.765
99559W        W71984  30.451   9.578  10.513
99560W        W71985   4.484  10.388  11.274
99561W        W71986  14.666  44.003   4.411
99562W        W71987  39.539  43.876  12.871
99563W        W71988  38.532  30.612  12.964
99564W        W71989  22.067  41.748   1.261
99565W        W71990  34.843  24.180  12.929
99566W        W71991   4.439  18.812   3.780
99567W        W71992   2.208   6.329  11.242
99568W        W71993  10.236   5.217  13.759
99569W        W71994  25.503  31.152   0.779
99570W        W71995   9.200  31.881   4.159
99571W        W71996  27.527   4.112  11.675
99572W        W71997  41.765  32.907  12.006
99573W        W71998  34.824   4.378  10.409
99574W        W71999  41.260  22.226  13.035
99575W        W72000  40.118   3.323  13.784
99576W        W72001   6.474  37.419  10.220
99577W        W72002  42.793  14.614   4.382
99578W        W72003  42.021  40.982   1.791
99579W        W72004  39.640   9.223   2.202
99580W        W72005  25.257  32.802   0.201
99581W        W72006  24.615   4.578  10.237
99582W        W72007  22.643  28.815   4.082
99583W        W72008  33.425  13.825   0.500
99584W        W72009  12.667  14.129   0.947
99585W        W72010   1.267  41.363  11.102
99586W        W72011  43.397  40.739   0.799
99587W        W72012  16.587  27.965   4.141
99588W        W72013   8.436  17.331   2.836
99589W        W72014  11.653  41.211   1.944
99590W        W72015  44.722  13.303  12.435
99591W        W72016  38.483  39.848  12.862
99592W        W72017  25.343  12.093  11.035
99593W        W72018  44.063  29.520  14.999
99594W        W72019  12.241   7.023   1.742
99595W        W72020  11.162  35.394  13.314
99596W        W72021  41.639  40.848   4.900
99597W        W72022  12.418  31.435   0.424
99598W        W72023  31.474  32.048  13.412
99599W        W72024  17.693  35.635  14.996
99600W        W72025  36.498  16.306  11.107
99601W        W72026  31.497  20.352  11.311
99602W        W72027   3.457  21.689   4.082
99603W        W72028  14.949  21.936  12.399
99604W        W72029  10.766  36.544   0.678
99605W        W72030  20.960  10.850   1.624
99606W        W72031  43.308   8.898   1.293
99607W        W72032  22.491   1.494  11.935
99608W        W72033  42.988  34.940  10.870
99609W        W72034   4.719  38.313  10.897
99610W        W72035  21.307  27.379  13.550
99611W        W72036   9.698  43.995  11.369
99612W        W72037  22.947  37.796  13.511
99613W        W72038  27.926  13.072   4.661
99614W        W72039   1.306  41.422   1.897
99615W        W72040  10.211  22.267   0.393
99616W        W72041  17.074  42.040  14.271
99617W        W72042  40.711  41.723  13.378
99618W        W72043  29.253   4.516  11.097
99619W        W72044  14.784  27.571  12.605
99620W        W72045  19.410  15.808   0.748
99621W        W72046   3.261  20.255  11.249
99622W        W72047  13.135  31.179   1.871
99623W        W72048  35.346  26.079  10.712
99624W        W72049  37.740  31.141  13.067
99625W        W72050  14.116  31.509   3.936
99626W        W72051  40.283   9.344   1.114
99627W        W72052  12.883  11.179  11.873
99628W        W72053   6.590  44.111   1.263
99629W        W72054  14.053  32.807   0.064
99630W        W72055  27.606  21.757   4.280
99631W        W72056  20.124  35.084   4.761
99632W        W72057  31.941  43.969   4.283
99633W        W72058  32.053   6.117   3.431
99634W        W72059  25.651  33.105   1.751
99635W        W72060  37.078  40.853  12.934
99636W        W72061   3.454  39.303  11.542
99637W        W72062  24.706  16.616  13.545
99638W        W72063  17.576   4.844  10.889
99639W        W72064  27.240  25.343  12.849
99640W        W72065  39.327   3.067   4.187
99641W        W72066  22.689   3.498   2.241
99642W        W72067   1.414  16.026  14.752
99643W        W72068  39.162  10.201   2.268
99644W        W72069  16.460  21.284   4.972
99645W        W72070  32.381  30.142  12.098
99646W        W72071  26.941  42.811   0.379
99647W        W72072   4.387   5.744  13.799
99648W        W72073   5.655   0.863  12.883
99649W        W72074  16.067   1.020  10.104
99650W        W72075  23.079  36.343   0.442
99651W        W72076   4.851  26.188   3.648
99652W        W72077  36.308  13.630   3.371
99653W        W72078  39.309  35.093  14.116
99654W        W72079  22.205  42.259   0.363
99655W        W72080  18.343   7.557  12.934
99656W        W72081  43.026  15.976   2.683
99657W        W72082   8.337  41.867  13.501
99658W        W72083  18.609  29.091  13.438
99659W        W72084  32.575  23.690  11.071
99660W        W72085  18.720  31.442  12.135
99661W        W72086  31.530  40.520  13.657
99662W        W72087   7.541  43.479  11.490
99663W        W72088  23.586  24.943   2.289
99664W        W72089  11.071  29.515   1.874
99665W        W72090  30.009  27.968   1.028
99666W        W72091  40.536  44.156  13.328
99667W        W72092   3.488  39.560   4.014
99668W        W72093  38.570  11.566  14.722
99669W        W72094  17.445  22.212   2.822
99670W        W72095  29.707  26.653  11.498
99671W        W72096   6.229  12.064  11.710
99672W        W72097  20.583  21.540   1.844
99673W        W72098  24.797  10.700   0.997
99674W        W72099  24.049  33.859   1.349
99675W        W72100  21.764  27.524   2.780
99676W        W72101   5.254  25.639   3.294
99677W        W72102   0.808  31.729   2.241
99678W        W72103  44.075  35.614   2.421
99679W        W72104  17.311  40.980   0.755
99680W        W72105  32.318  21.062   0.747
99681W        W72106   7.309  24.580   4.161
99682W        W72107  21.116  11.042   3.852
99683W        W72108  39.844  19.638  11.402
99684W        W72109  35.136   2.372   0.550
99685W        W72110  25.919   9.656  14.270
99686W        W72111   9.097  38.033  12.851
99687W        W72112  28.830  38.087  12.166
99688W        W72113   5.346  43.474   4.573
99689W        W72114   5.756  15.814  11.036
99690W        W72115   3.348  27.304   0.281
99691W        W72116  28.647  19.982  14.550
99692W        W72117   6.746   4.782  11.570
99693W        W72118   5.479  23.097   4.603
99694W        W72119  44.753  19.006   1.177
99695W        W72120  10.659  10.306  11.371
99696W        W72121  25.538  19.991  11.250
99697W        W72122  37.826   0.032   1.632
99698W        W72123   6.412  34.645  12.865
99699W        W72124  20.389  16.555   4.573
99700W        W72125  16.323  23.399  13.912
99701W        W72126   3.920  43.461  13.826
99702W        W72127  35.105   3.653  11.618
99703W        W72128  41.029  15.917   3.613
99704W        W72129  26.724  26.316  13.790
99705W        W72130  11.253  34.987   2.362
99706W        W72131  32.147   3.949  12.407
99707W        W72132  31.206  43.891   4.567
99708W        W72133  18.591  24.805   0.785
99709W        W72134   9.444  28.515   3.970
99710W        W72135  40.994  32.175  13.427
99711W        W72136  32.054   9.093   3.226
99712W        W72137  36.937  31.300  11.506
99713W        W72138  41.824   1.918   4.651
99714W        W72139  27.633   8.949   0.338
99715W        W72140  10.725   7.865   2.790
99716W        W72141  36.101   8.909   3.845
99717W        W72142   1.551   3.012  13.076
99718W        W72143  25.189  30.488   3.239
99719W        W72144   3.866  20.602   0.263
99720W        W72145  29.293  23.310  10.762
99721W        W72146  22.358   9.244  12.084
99722W        W72147  34.335  18.655  14.211
99723W        W72148  24.084  10.514   5.481
99724W        W72149  31.113   7.355  14.881
99725W        W72150  17.550  12.160  14.281
99726W        W72151  44.503  12.099   3.228
99727W        W72152  16.674  35.921  12.434
99728W        W72153   2.841   8.121  14.263
99729W        W72154  19.850  25.262   2.413
99730W        W72155   6.213   3.717   1.457
99731W        W72156  30.654  16.727   0.780
99732W        W72157  15.286  24.497  10.586
99733W        W72158  26.960  26.188   1.262
99734W        W72159  16.012  14.644  14.970
99735W        W72160  23.022  41.058  13.081
99736W        W72161  23.607  24.232  13.394
99737W        W72162  43.539  35.357  13.385
99738W        W72163   9.810  11.944   0.771
99739W        W72164  23.180  44.286  13.578
99740W        W72165  16.190  32.412   3.355
99741W        W72166  20.099   2.015  12.032
99742W        W72167   9.694   4.502  14.330
99743W        W72168  16.330  42.302   2.500
99744W        W72169   4.307   1.554   3.217
99745W        W72170   6.587  19.663   2.615
99746W        W72171   5.915  31.213  13.443
99747W        W72172  21.958  16.275   2.210
99748W        W72173  30.173   3.895  13.615
99749W        W72174  28.087  20.179   0.166
99750W        W72175  29.598  19.773   2.354
99751W        W72176   7.720   6.646  10.326
99752W        W72177  26.602  44.100   0.342
99753W        W72178  44.975  29.313   3.615
99754W        W72179  21.008  41.926  14.460
99755W        W72180  24.708  37.856  10.441
99756W        W72181  21.166  14.114  14.332
99757W        W72182  35.983  40.536   2.782
99758W        W72183   6.290   1.896  11.576
99759W        W72184  20.081  22.224  12.419
99760W        W72185  12.710  18.555  14.053
99761W        W72186  37.349   7.919   0.828
99762W        W72187   3.635  11.811  14.814
99763W        W72188  22.267  37.121  11.420
99764W        W72189   7.899  14.017   4.949
99765W        W72190  19.447  23.593  14.072
99766W        W72191  12.799  44.810   1.678
99767W        W72192  36.993  15.078  10.404
99768W        W72193  17.254  36.455  13.303
99769W        W72194  35.905  22.132  12.844
99770W        W72195   3.682  17.077  10.055
99771W        W72196   2.829   0.956  11.406
99772W        W72197  18.219  20.580   3.002
99773W        W72198  30.594   5.847   0.784
99774W        W72199   7.261   4.952   2.628
99775W        W72200  33.495   7.500   2.772
99776W        W72201  12.876  34.926   3.977
99777W        W72202  15.742   8.755  12.204
99778W        W72203   6.407  41.033  13.975
99779W        W72204   3.745  23.439   3.663
99780W        W72205  30.820  41.445  13.811
99781W        W72206  33.696  15.186  12.907
99782W        W72207  40.513  36.795   0.373
99783W        W72208   4.955   6.337  13.462
99784W        W72209   0.995  23.696  11.646
99785W        W72210   3.938  13.284   4.677
99786W        W72211   9.937  28.451   3.774
99787W        W72212  26.543  15.217  14.302
99788W        W72213  44.202  13.761  12.078
99789W        W72214  31.464  28.711   4.256
99790W        W72215  44.613   9.247   3.237
99791W        W72216   8.495  10.604   3.818
99792W        W72217  21.225  17.900   0.724
99793W        W72218  13.235  37.667  11.945
99794W        W72219  21.660   6.309  14.404
99795W        W72220  26.128  29.511  10.681
99796W        W72221  16.229   6.582  14.324
99797W        W72222  42.289   1.408   4.207
99798W        W72223  11.655  16.598   0.271
99799W        W72224  37.887  37.944   1.531
99800W        W72225  11.609  39.208   5.111
99801W        W72226  13.198  44.403   3.358
99802W        W72227  35.583  44.344   2.841
99803W        W72228  24.885  14.800   1.443
99804W        W72229  30.426  22.480  13.883
99805W        W72230  22.598  35.006  11.467
99806W        W72231  30.173  25.684  14.669
99807W        W72232  12.147  22.631   0.598
99808W        W72233   0.284  35.875   1.836
99809W        W72234  30.743  15.734   2.862
99810W        W72235  23.073  41.326  11.987
99811W        W72236   6.393   7.388  13.469
99812W        W72237   8.275  26.699  12.645
99813W        W72238  17.208  20.128  13.390
99814W        W72239  20.191  29.537  10.070
99815W        W72240  33.989  27.290   2.666
99816W        W72241  35.549   7.438  14.506
99817W        W72242  41.726  18.343   4.160
99818W        W72243  20.077  13.762   4.632
99819W        W72244  34.853  32.042   0.839
99820W        W72245  27.637  21.138  13.084
99821W        W72246  42.548  13.816   4.446
99822W        W72247  32.808   4.562  13.373
99823W        W72248  18.429  31.192   1.444
99824W        W72249   5.784  34.024   1.794
99825W        W72250  40.095  40.208  14.129
99826W        W72251  36.830  14.170   4.037
99827W        W72252  36.122  12.318   3.362
99828W        W72253  13.444   6.183  12.543
99829W        W72254  23.716  40.486   4.927
99830W        W72255  19.827  23.177   0.252
99831W        W72256  27.885  33.383  14.024
99832W        W72257  30.550  26.369   1.254
99833W        W72258  35.013  16.164  14.554
99834W        W72259  37.341  22.983   1.805
99835W        W72260  26.456  31.039   3.911
99836W        W72261  11.149  28.989   1.665
99837W        W72262  20.457  13.700   4.212
99838W        W72263   4.951  21.502  14.326
99839W        W72264  31.502  43.332   4.643
99840W        W72265  24.775   4.686   2.766
99841W        W72266  12.833  38.418  12.551
99842W        W72267  13.568   1.400   0.468
99843W        W72268  28.202  21.152  14.400
99844W        W72269  24.498  16.322  11.457
99845W        W72270  21.093  42.024   4.655
99846W        W72271  30.725  20.226  10.557
99847W        W72272  15.312  37.542   3.264
99848W        W72273  36.795  33.422  14.871
99849W        W72274  10.692   2.304   1.701
99850W        W72275  34.383   8.061  10.873
99851W        W72276  19.808   2.800   2.792
99852W        W72277   6.406  14.889  14.099
99853W        W72278  44.909  14.549  11.926
99854W        W72279   3.222   2.895   3.178
99855W        W72280   0.869  28.875   1.927
99856W        W72281  14.354  20.721   3.042
99857W        W72282  16.774  11.407  14.492
99858W        W72283  24.052  24.730  11.553
99859W        W72284  22.039   9.194  11.229
99860W        W72285  30.524  11.222   1.809
99861W        W72286  39.477  10.786   1.224
99862W        W72287  12.292  23.307  13.882
99863W        W72288  22.860   5.108  11.683
99864W        W72289  13.333   9.568  14.621
99865W        W72290  11.254   4.392   2.379
99866W        W72291  27.700  16.339   4.624
99867W        W72292  18.129   4.608  14.276
99868W        W72293  31.149  20.655   0.467
99869W        W72294  16.057   0.475   0.252
99870W        W72295   1.291   0.790   2.741
99871W        W72296  43.946   3.915  11.059
99872W        W72297  16.250  14.659   2.901
99873W        W72298   7.295  12.824   4.655
99874W        W72299  13.855  31.119  13.313
99875W        W72300  23.703   3.855  11.202
99876W        W72301  33.116  34.422   1.623
99877W        W72302   2.209  39.082  14.473
99878W        W72303  33.858  13.306  12.561
99879W        W72304  14.113   7.768  10.978
99880W        W72305  18.590  17.578   4.373
99881W        W72306   9.727  43.241  14.009
99882W        W72307  12.401   0.204  11.508
99883W        W72308  39.297  12.856  10.632
99884W        W72309  39.354  36.062  14.486
99885W        W72310   7.707  33.690   1.942
99886W        W72311  12.624   9.673  13.891
99887W        W72312  33.160   7.614  11.157
99888W        W72313  28.606  37.599  14.571
99889W        W72314  27.914  30.431   2.812
99890W        W72315  21.305   2.922   0.243
99891W        W72316  29.112  41.256   1.847
99892W        W72317   0.369  33.356  12.925
99893W        W72318  14.041  21.789  12.561
99894W        W72319   3.078  37.030  12.545
99895W        W72320  18.171   8.760   2.027
99896W        W72321  23.161  20.955   2.668
99897W        W72322  17.106  41.430   4.538
99898W        W72323  11.411   6.770  13.019
99899W        W72324  35.867  28.423  11.604
99900W        W72325  42.889  15.385   0.216
99901W        W72326  27.710  12.239  12.479
99902W        W72327  29.487  11.034  11.109
99903W        W72328  18.047  15.359   0.852
99904W        W72329  32.913  28.243  11.651
99905W        W72330  30.853   3.540  12.966
99906W        W72331   9.432   7.865   2.236
99907W        W72332  21.851  27.117   1.673
99908W        W72333  41.377  22.647   3.859
99909W        W72334  39.979  34.489   1.863
99910W        W72335   0.510  33.904   0.386
99911W        W72336   4.807  30.154  13.906
99912W        W72337  12.366   7.458  13.750
99913W        W72338  44.493   5.082   0.860
99914W        W72339  19.982  29.888   1.771
99915W        W72340  24.993  27.991   0.740
99916W        W72341  15.034  42.990  13.783
99917W        W72342  27.051  34.091   4.731
99918W        W72343  35.228  25.037   5.442
99919W        W72344  28.315   9.712  12.885
99920W        W72345  20.371  18.729   0.529
99921W        W72346   7.355  31.533  13.111
99922W        W72347  30.929   5.884  10.875
99923W        W72348  38.342  25.905  14.951
99924W        W72349  11.348  28.458   2.989
99925W        W72350  26.005  20.747   2.341
99926W        W72351  42.355  30.849  12.460
99927W        W72352  17.277  18.076  14.813
99928W        W72353  19.274   0.254  11.939
99929W        W72354   9.705   6.762  14.405
99930W        W72355  28.534  31.166  12.537
99931W        W72356  38.733  13.415  14.869
99932W        W72357   9.744  33.508  10.803
99933W        W72358  18.001  23.334  11.399
99934W        W72359  12.309  14.614  14.449
99935W        W72360   8.950  26.148  14.721
99936W        W72361   1.765  24.152  12.684
99937W        W72362   0.697  15.730   4.363
99938W        W72363  15.968   0.761   3.085
99939W        W72364  15.274  43.356  10.614
99940W        W72365  29.575  40.080  10.922
99941W        W72366  25.435  13.333   2.042
99942W        W72367  44.774  12.692   4.695
99943W        W72368  21.645  22.752  11.905
99944W        W72369  37.342  15.888  11.876
99945W        W72370  14.353  35.525  11.706
99946W        W72371  34.562  18.638   0.333
99947W        W72372   7.115  24.726  11.929
99948W        W72373  11.768  25.207  14.141
99949W        W72374  10.746  13.114   2.215
99950W        W72375  18.273  25.504   1.157
99951W        W72376  16.125   6.385   2.599
99952W        W72377  30.438  37.370  13.083
99953W        W72378  36.509   0.883  13.957
99954W        W72379  31.476  17.967  12.591
99955W        W72380  35.418  15.198  12.031
99956W        W72381   6.777  11.308  14.395
99957W        W72382  18.171  12.537   0.317
99958W        W72383  20.498   7.883  14.487
99959W        W72384  23.926  20.574   3.936
99960W        W72385  17.797  17.002  14.451
99961W        W72386   0.972  22.946  11.192
99962W        W72387  14.705  30.598   1.272
99963W        W72388  28.985  21.574   2.856
99964W        W72389  13.367  34.509  11.487
99965W        W72390   0.300   6.863  13.784
99966W        W72391  17.189  21.196   4.717
99967W        W72392  15.522  42.215   1.440
99968W        W72393   4.825  18.745   2.639
99969W        W72394  39.799   9.660  12.917
99970W        W72395  21.603  37.136  14.354
99971W        W72396  19.484  10.407  11.651
99972W        W72397   4.170  43.872   4.210
99973W        W72398  44.439  37.902  12.446
99974W        W72399  29.494  21.180  12.007
99975W        W72400  20.277  23.911   1.755
99976W        W72401  31.131   4.910  12.189
99977W        W72402  24.049  17.836  14.305
99978W        W72403   8.737   7.389  12.505
99979W        W72404  34.094  34.011   4.343
99980W        W72405  12.156  25.663   3.256
99981W        W72406  19.796  18.679  10.751
99982W        W72407  44.039   7.299   4.149
99983W        W72408  34.590  11.109   0.061
99984W        W72409   4.374  17.278   1.765
99985W        W72410  17.555  21.153   0.401
99986W        W72411  38.915  38.884   4.664
99987W        W72412  32.512  29.109  11.352
99988W        W72413   5.108   7.795  14.400
99989W        W72414  13.756  42.238   0.978
99990W        W72415  18.380  32.574   5.052
99991W        W72416  31.020  22.843  14.427
99992W        W72417  21.769   0.155  11.175
99993W        W72418  39.107  25.474   0.810
99994W        W72419  21.515   0.534   4.901
99995W        W72420  23.695  39.397  10.652
99996W        W72421  38.194  33.288   0.928
99997W        W72422   7.033  14.045  11.737
99998W        W72423  35.202  13.995  11.591
99999W        W72424  31.648  33.393  13.252
    0W        W72425   3.863  18.777  13.608
    1W        W72426  43.940  34.125  12.445
    2W        W72427  21.170  19.622  10.700
    3W        W72428  12.323  18.528   3.205
    4W        W72429  14.166   5.253   3.362
    5W        W72430   3.964  10.181  13.812
    6W        W72431   3.502   2.493  14.919
    7W        W72432   3.609   2.964  14.669
    8W        W72433  18.626  35.907  14.822
    9W        W72434  30.189  26.911   2.002
   10W        W72435  17.293  33.620  12.167
   11W        W72436  32.524  13.053  10.714
   12W        W72437   6.142  11.216   1.655
   13W        W72438  22.685  13.284   3.648
   14W        W72439  40.344  38.956  13.593
   15W        W72440  31.594  18.120  11.582
   16W        W72441  39.056  16.572  10.691
   17W        W72442  15.384  22.159  13.384
   18W        W72443   8.327  25.563  14.359
   19W        W72444  20.817  17.368   0.052
   20W        W72445  13.915  37.914   4.192
   21W        W72446  19.220  10.817  10.725
   22W        W72447  44.166  36.145   2.277
   23W        W72448  27.902  27.143   4.611
   24W        W72449  25.786  37.425  11.631
   25W        W72450  16.999   6.942  11.767
   26W        W72451  11.711   2.289   0.026
   27W        W72452  23.660  14.561  12.879
   28W        W72453  30.132   3.768   0.849
   29W        W72454  11.293  35.202  11.883
   30W        W72455   7.687  39.372  14.711
   31W        W72456  33.722   0.000   3.250
   32W        W72457   4.880  14.691   0.020
   33W        W72458  27.940  27.836   1.249
   34W        W72459  15.837  23.594   0.324
   35W        W72460  10.938  40.503   3.325
   36W        W72461  41.353  35.624   1.688
   37W        W72462  32.629  16.839   1.765
   38W        W72463  20.202   4.176  14.313
   39W        W72464  18.063   1.557  12.580
   40W        W72465  20.668  38.404  13.541
   41W        W72466  29.677  37.566   2.520
   42W        W72467  10.027  19.050   4.151
   43W        W72468  43.026  36.203  13.764
   44W        W72469  17.561  13.897  10.677
   45W        W72470  10.666  25.191  11.953
   46W        W72471  30.995  42.114  14.954
   47W        W72472  19.810  42.895  10.607
   48W        W72473  29.307  35.006  14.756
   49W        W72474  27.433  36.824   2.683
   50W        W72475  41.051  30.159  12.562
   51W        W72476  32.168   3.954  14.815
   52W        W72477  43.443  39.472  11.914
   53W        W72478  33.076  22.156   3.734
   54W        W72479  37.378  29.040  13.085
   55W        W72480  30.842  33.427   0.249
   56W        W72481   3.405   1.764  14.356
   57W        W72482  40.177  25.418  14.320
   58W        W72483   1.413  38.119  13.862
   59W        W72484  31.181  13.277  11.429
   60W        W72485   1.813  15.106   4.741
   61W        W72486  36.918  29.097  11.919
   62W        W72487   9.627  37.842   3.648
   63W        W72488  27.653  18.608   1.363
   64W        W72489   4.832  41.262   3.210
   65W        W72490  41.829  43.288   3.292
   66W        W72491   6.234  11.829  13.093
   67W        W72492   2.393  19.831   4.141
   68W        W72493  27.074  38.747   3.836
   69W        W72494  17.484  21.277   4.133
   70W        W72495  19.595  20.336   3.313
   71W        W72496  40.491  22.684  14.837
   72W        W72497  27.740  30.699  11.071
   73W        W72498  12.266  11.888   3.218
   74W        W72499  36.889   2.951   0.485
   75W        W72500   6.812  36.637  13.907
   76W        W72501  21.478   4.753   1.383
   77W        W72502   4.971  43.477   0.319
   78W        W72503   3.694  39.273   2.636
   79W        W72504  30.352  36.384  11.673
   80W        W72505  19.193  43.014   1.349
   81W        W72506  37.193  34.590   2.143
   82W        W72507  20.125  24.699  10.489
   83W        W72508  26.903   4.308   3.231
   84W        W72509  17.703   5.819  10.504
   85W        W72510   1.978  34.485   3.689
   86W        W72511  27.712   1.993  11.973
   87W        W72512  36.172  20.801   3.705
   88W        W72513  31.532   3.232   3.649
   89W        W72514  43.359  35.641   3.124
   90W        W72515   2.708  44.324  12.102
   91W        W72516  14.172  10.894   0.282
   92W        W72517  20.294  42.474  12.486
   93W        W72518  35.367   2.294   2.353
   94W        W72519  41.654   4.452  14.414
   95W        W72520   2.885   3.310  10.397
   96W        W72521   5.996  18.124   1.486
   97W        W72522  20.631   1.494   0.361
   98W        W72523  16.996  10.873  12.200
   99W        W72524  41.474   9.901   0.269
  100W        W72525   8.426  30.861   4.082
  101W        W72526  10.698  18.357  14.235
  102W        W72527   3.159  31.957  12.001
  103W        W72528  28.939  42.853   1.693
  104W        W72529  32.446   1.927  12.591
  105W        W72530   5.870  37.995   3.747
  106W        W72531  31.193  26.000   1.985
  107W        W72532  28.197  17.772  12.953
  108W        W72533   2.911   4.699   1.338
  109W        W72534   8.611   3.659   0.747
  110W        W72535   1.793  29.229   4.790
  111W        W72536  10.806  26.124  14.426
  112W        W72537   4.928  44.317  13.812
  113W        W72538   8.805  10.584   0.862
  114W        W72539  44.707  21.933   3.363
  115W        W72540  43.848  27.392  13.009
  116W        W72541  28.302  13.534  11.863
  117W        W72542  23.595   7.805  13.282
  118W        W72543  27.845  43.698   3.152
  119W        W72544  11.133  41.117   3.587
  120W        W72545  33.406  23.675   3.227
  121W        W72546  30.251  37.358   0.899
  122W        W72547  31.473  26.237   2.363
  123W        W72548  20.228  30.718  14.809
  124W        W72549   6.444   4.411   2.680
  125W        W72550  35.670  29.844   3.264
  126W        W72551  24.072  44.185  11.195
  127W        W72552  24.781  42.295   3.202
  128W        W72553  43.845  34.061   1.946
  129W        W72554  28.878  39.030  11.957
  130W        W72555  20.255  22.197   4.674
  131W        W72556   6.377  28.497   3.348
  132W        W72557   0.680  39.181  14.475
  133W        W72558   0.709   9.858  14.878
  134W        W72559   3.483  30.438  12.163
  135W        W72560  27.533  35.864  13.313
  136W        W72561  29.453  23.592  14.089
  137W        W72562   3.817   7.438  14.263
  138W        W72563  26.494  32.707   4.219
  139W        W72564  39.378  13.822   4.710
  140W        W72565  27.114  43.611  14.646
  141W        W72566  36.071  44.436  11.914
  142W        W72567  28.756  43.975  11.928
  143W        W72568   2.735  37.339   3.715
  144W        W72569  38.312   0.871   1.278
  145W        W72570  26.041  22.474   0.617
  146W        W72571  29.769  23.405  11.962
  147W        W72572  33.321  11.208   2.339
  148W        W72573   8.707  39.085   4.504
  149W        W72574  37.852  36.321   1.396
  150W        W72575  25.259  39.269   0.135
  151W        W72576  41.717  43.810   2.124
  152W        W72577  24.354  20.145  12.936
  153W        W72578  19.310  16.078  13.961
  154W        W72579  43.412  17.132   3.702
  155W        W72580  41.785  38.550   2.628
  156W        W72581  18.642  11.588  11.652
  157W        W72582   1.690  20.137  14.330
  158W        W72583  16.561  40.106  14.839
  159W        W72584  36.517  26.678   0.682
  160W        W72585  19.257   1.937   5.655
  161W        W72586   5.350  17.672   0.888
  162W        W72587  26.843  43.314  13.194
  163W        W72588   2.197  44.103   4.950
  164W        W72589  11.281  39.067  14.375
  165W        W72590  15.821  42.982   1.817
  166W        W72591   7.132  35.485   3.385
  167W        W72592  24.078  34.888  14.003
  168W        W72593  13.152   6.360  11.236
  169W        W72594  32.800   5.311   2.167
  170W        W72595   5.503   8.673   3.146
  171W        W72596  33.507  11.878  13.485
  172W        W72597  20.528  35.130  10.638
  173W        W72598  18.568  19.506  11.926
  174W        W72599   2.448   5.796   2.314
  175W        W72600  41.059   7.883   1.397
  176W        W72601  39.222  24.003   0.024
  177W        W72602  15.819  35.069   2.172
  178W        W72603  33.862   2.474   0.348
  179W        W72604   2.300  43.493  10.711
  180W        W72605   7.880  37.321   4.141
  181W        W72606   8.664  33.352  13.364
  182W        W72607  19.614   9.415  10.739
  183W        W72608   1.245   4.622  10.647
  184W        W72609  26.978  28.958   3.228
  185W        W72610   5.729  33.364  14.369
  186W        W72611  36.075  13.226  13.611
  187W        W72612  17.214  24.480  11.966
  188W        W72613  16.496  15.064  14.165
  189W        W72614  14.242   9.200  10.544
  190W        W72615  25.241  35.557   2.844
  191W        W72616   2.721  22.229  11.696
  192W        W72617   1.855  33.358  13.396
  193W        W72618   2.635  31.397  11.561
  194W        W72619  28.061  28.958  14.838
  195W        W72620  31.056  30.017  10.763
  196W        W72621  31.270  37.936   2.247
  197W        W72622   3.980   7.219   3.709
  198W        W72623  10.737  27.133  13.344
  199W        W72624  18.973  30.541  10.107
  200W        W72625  11.269   3.884  14.319
  201W        W72626  19.093  13.269  12.113
  202W        W72627  44.047  33.638  13.548
  203W        W72628  31.379  11.396   5.028
  204W        W72629  14.789  40.835   0.943
  205W        W72630   2.903   2.511  12.015
  206W        W72631  44.499  25.338  11.821
  207W        W72632   8.659  37.114  13.551
  208W        W72633  40.048  19.647   4.990
  209W        W72634  37.556   7.815  10.720
  210W        W72635   4.225  35.037   4.636
  211W        W72636  41.024  36.323   3.796
  212W        W72637  10.853  11.411  13.305
  213W        W72638  42.905  22.808   3.631
  214W        W72639   8.186   4.861  11.426
  215W        W72640  31.090  34.554  14.492
  216W        W72641  22.440   2.342  11.558
  217W        W72642  21.949  15.485   0.722
  218W        W72643  33.681  26.650   1.827
  219W        W72644  31.595  13.711   1.151
  220W        W72645   5.851  34.654   0.143
  221W        W72646   0.652   4.225   1.293
  222W        W72647  29.876  42.451   4.579
  223W        W72648  42.680  35.501   0.441
  224W        W72649  42.491  31.242  13.663
  225W        W72650  40.528   0.963  13.796
  226W        W72651  41.208  30.013   2.340
  227W        W72652  24.608   0.511  13.487
  228W        W72653  30.056  21.940   3.648
  229W        W72654  37.061  42.817   0.376
  230W        W72655  31.220  27.004  11.429
  231W        W72656   2.080  33.516  11.572
  232W        W72657  22.114  44.022   1.414
  233W        W72658   4.643  11.861   1.865
  234W        W72659  21.295  25.392   0.084
  235W        W72660  33.923  30.043  11.197
  236W        W72661  33.201  27.112  12.347
  237W        W72662  35.588   7.382  11.704
  238W        W72663  23.999  41.459   3.326
  239W        W72664   1.906  41.976  12.168
  240W        W72665   8.782  14.651   4.576
  241W        W72666  33.555  21.558  11.571
  242W        W72667   6.619  22.763   2.780
  243W        W72668   0.539   5.414  12.892
  244W        W72669  14.494  11.613   5.051
  245W        W72670  38.490  41.872  11.623
  246W        W72671  19.586   4.162   2.365
  247W        W72672  12.321  25.020   4.894
  248W        W72673  30.555  25.478   2.690
  249W        W72674  32.598  21.557   2.641
  250W        W72675  44.002  39.851  13.360
  251W        W72676  20.553   9.345  12.192
  252W        W72677  19.544  20.319  14.578
  253W        W72678  34.536  31.972  11.973
  254W        W72679  42.633  28.415   0.969
  255W        W72680  31.603  11.881   3.091
  256W        W72681  18.208  42.484   0.504
  257W        W72682  24.094  13.218   1.436
  258W        W72683   0.522  13.100  10.652
  259W        W72684  37.869  10.627   1.790
  260W        W72685  38.907  16.621   0.813
  261W        W72686  29.958  20.794  14.889
  262W        W72687  25.722  41.791   0.845
  263W        W72688  29.525   9.123   2.850
  264W        W72689  29.428  19.155  11.398
  265W        W72690   4.505   4.683   1.311
  266W        W72691  12.646  22.120  11.927
  267W        W72692   6.873  12.438  11.165
  268W        W72693  19.307  27.942   2.404
  269W        W72694  15.227  10.993  12.941
  270W        W72695  39.570  41.403  13.048
  271W        W72696   6.340  17.537  12.599
  272W        W72697  14.382  17.011   2.579
  273W        W72698  24.961  33.643   3.913
  274W        W72699  23.480   1.392  12.642
  275W        W72700  10.207  29.595  10.751
  276W        W72701  11.125  26.478  12.041
  277W        W72702  40.273  42.731   0.905
  278W        W72703  31.102  11.851   0.048
  279W        W72704  28.644   5.378  11.142
  280W        W72705   3.804  30.518   0.454
  281W        W72706  34.828  44.236   2.314
  282W        W72707  24.540  20.516  13.343
  283W        W72708  20.082  24.382   1.856
  284W        W72709  20.144  10.836   2.892
  285W        W72710  17.178  23.010   4.421
  286W        W72711  18.108  30.655  13.493
  287W        W72712  38.806   3.303   2.176
  288W        W72713   8.240  25.805   0.653
  289W        W72714  18.795   9.201  12.483
  290W        W72715   0.388   2.389   4.216
  291W        W72716   4.261  34.021  12.130
  292W        W72717  30.743  18.536  12.943
  293W        W72718  21.199  19.464   4.255
  294W        W72719  23.456  44.242   2.644
  295W        W72720  42.432  15.777  12.701
  296W        W72721   9.413  19.594  12.049
  297W        W72722  36.347  40.879   0.423
  298W        W72723  28.581  30.331   1.448
  299W        W72724   9.513  22.432   9.609
  300W        W72725   8.928   0.915   3.372
  301W        W72726  35.981  15.048   3.226
  302W        W72727   7.665  27.325  12.895
  303W        W72728  23.037  18.058   3.153
  304W        W72729  19.091  13.652  11.671
  305W        W72730  10.225  18.556  12.593
  306W        W72731  39.625  22.510   0.861
  307W        W72732   0.691   4.354  14.299
  308W        W72733   3.204  19.892   0.494
  309W        W72734  39.913  29.566  14.437
  310W        W72735  28.061  15.140   2.825
  311W        W72736   4.828  38.762   0.789
  312W        W72737   4.275  33.106  11.152
  313W        W72738  41.461   2.954   3.701
  314W        W72739   3.155   2.702  14.571
  315W        W72740  20.747   4.558   4.539
  316W        W72741  34.402  27.541   0.931
  317W        W72742   0.352  39.443  12.383
  318W        W72743  26.139  27.231  10.771
  319W        W72744  33.958  28.535   4.091
  320W        W72745  22.176  26.464  11.546
  321W        W72746  26.387   4.437   3.265
  322W        W72747  11.035  24.085  14.133
  323W        W72748  35.209  12.464   1.940
  324W        W72749  11.410   9.985  11.078
  325W        W72750   2.472   4.942  14.267
  326W        W72751  39.833  35.586  14.480
  327W        W72752  16.814   3.738   2.817
  328W        W72753   4.979  31.517   1.836
  329W        W72754  42.671  32.434  11.961
  330W        W72755  18.551  32.529  10.814
  331W        W72756   9.919  15.523  10.719
  332W        W72757   2.305  29.837   0.904
  333W        W72758  12.085  36.996   1.322
  334W        W72759  41.386  24.011   0.153
  335W        W72760  23.321  22.918   0.230
  336W        W72761  14.063  35.474  13.354
  337W        W72762  28.139  10.229   4.644
  338W        W72763  38.317  12.266   2.440
  339W        W72764  38.565  33.424  12.179
  340W        W72765  14.330  28.080   2.845
  341W        W72766  33.900  10.635   2.561
  342W        W72767  40.280  16.344  11.991
  343W        W72768   3.304   6.756  11.864
  344W        W72769  13.627  28.765   1.259
  345W        W72770   3.209  21.195   1.019
  346W        W72771  10.948  15.021   0.290
  347W        W72772  22.619  37.885   0.128
  348W        W72773  26.146  42.047   3.166
  349W        W72774  43.417  23.063  10.840
  350W        W72775   3.905  11.160  14.816
  351W        W72776  30.500  36.521  13.334
  352W        W72777  21.570   6.522   2.781
  353W        W72778   1.938  27.205  10.745
  354W        W72779   3.560  30.108  13.407
  355W        W72780  19.670   1.949   1.676
  356W        W72781  23.413  18.347  11.605
  357W        W72782  37.472  31.831  14.039
  358W        W72783  25.557  37.468   4.104
  359W        W72784  42.336   1.275   0.967
  360W        W72785  27.527  40.722   3.188
  361W        W72786  35.080  15.487   4.739
  362W        W72787  11.955  13.126  10.984
  363W        W72788  10.346  11.348   3.230
  364W        W72789  29.146  15.273  10.729
  365W        W72790  12.209  13.800   2.077
  366W        W72791  22.036  31.858  10.390
  367W        W72792   2.711  44.126  13.867
  368W        W72793  32.440  20.453   4.291
  369W        W72794  36.302   8.613   0.718
  370W        W72795  21.128  36.922  10.988
  371W        W72796  34.012  10.079   4.581
  372W        W72797  14.204  43.108   1.825
  373W        W72798  37.060  35.906  13.949
  374W        W72799  21.537  11.032  11.552
  375W        W72800  39.049  33.285  12.990
  376W        W72801  25.528   2.398   4.877
  377W        W72802  16.096  14.095  10.582
  378W        W72803  40.326  24.763   1.474
  379W        W72804  34.726  41.957  13.846
  380W        W72805  23.256  36.184  10.946
  381W        W72806  10.937  26.878  14.961
  382W        W72807   1.493   4.502   1.404
  383W        W72808  18.281  40.152   4.223
  384W        W72809  28.431  18.036  11.627
  385W        W72810   5.752  27.460  11.770
  386W        W72811   9.098  43.137   0.243
  387W        W72812  41.783  22.137   4.706
  388W        W72813  40.552  36.007  10.261
  389W        W72814  37.734  34.119  14.016
  390W        W72815  38.733  13.750  12.369
  391W        W72816   9.303  20.858  13.449
  392W        W72817   3.881  37.091  13.399
  393W        W72818  17.971  39.556   0.829
  394W        W72819  40.270  27.455   1.305
  395W        W72820  11.240  36.007  10.575
  396W        W72821   1.412  11.834   3.196
  397W        W72822  38.915   3.743  10.676
  398W        W72823  19.736  35.116   3.597
  399W        W72824  35.114  21.309   5.113
  400W        W72825  32.632  12.873   2.092
  401W        W72826  17.610   3.519  10.709
  402W        W72827  23.172  30.466   4.220
  403W        W72828  29.983  23.965  14.549
  404W        W72829  21.602  16.648  13.225
  405W        W72830   6.646  18.737  10.335
  406W        W72831   7.208  19.818   3.799
  407W        W72832  10.979  19.215   4.574
  408W        W72833   1.883  39.510   1.974
  409W        W72834  31.162   3.223  11.053
  410W        W72835   8.976  39.752   2.327
  411W        W72836   9.204  37.114  11.397
  412W        W72837  43.251  39.289  14.428
  413W        W72838   5.379  37.334  13.102
  414W        W72839  22.570  21.224  12.479
  415W        W72840  10.295  10.577  11.612
  416W        W72841  21.287  33.100   2.414
  417W        W72842  25.212  22.231  12.773
  418W        W72843  20.371  29.252   4.984
  419W        W72844  13.882  35.000   4.123
  420W        W72845  21.497  24.028  12.848
  421W        W72846  43.004  38.395  11.858
  422W        W72847  33.367  24.121  11.119
  423W        W72848   2.210  44.746  13.492
  424W        W72849  10.364  43.301   0.885
  425W        W72850  15.744  39.405   3.005
  426W        W72851  31.090  32.696   4.819
  427W        W72852   1.688  16.704  14.935
  428W        W72853  28.523  42.737   1.412
  429W        W72854   4.902  27.105  11.531
  430W        W72855  31.952   8.991  12.101
  431W        W72856  24.486  39.993  14.312
  432W        W72857   3.826   4.699  12.454
  433W        W72858  29.761   9.671  12.456
  434W        W72859  43.048  30.024  11.926
  435W        W72860   3.969  31.477   3.131
  436W        W72861  36.655  29.718  12.403
  437W        W72862   0.279   9.511   3.756
  438W        W72863  16.552  21.993  10.597
  439W        W72864  36.398  28.307   2.385
  440W        W72865  15.629  22.063  10.562
  441W        W72866  11.067  23.625   0.904
  442W        W72867  38.797  44.277  14.736
  443W        W72868  39.766  35.929   0.117
  444W        W72869  44.499  13.127   4.571
  445W        W72870   1.759  33.864  14.473
  446W        W72871   9.433   2.834  11.473
  447W        W72872  43.215  38.588   2.185
  448W        W72873  15.874  13.721   3.727
  449W        W72874  39.913  33.532  13.372
  450W        W72875  11.075   8.170   3.090
  451W        W72876  23.171  38.421  10.587
  452W        W72877  29.583   1.591  14.494
  453W        W72878  38.331  42.554   1.345
  454W        W72879   5.916  25.912   2.243
  455W        W72880  42.915  28.464   3.207
  456W        W72881  31.835   1.550   2.825
  457W        W72882  43.868  32.566   1.724
  458W        W72883  23.796  42.344  13.530
  459W        W72884  19.282   7.698  14.572
  460W        W72885  15.179  39.516   0.670
  461W        W72886  25.393   3.609   1.308
  462W        W72887   3.871  35.457   1.134
  463W        W72888  19.499  29.349  11.903
  464W        W72889  23.193  10.145  12.396
  465W        W72890  22.738  43.267  12.416
  466W        W72891  10.973   0.864  11.642
  467W        W72892  39.277  35.152   1.836
  468W        W72893  24.218  29.127   1.793
  469W        W72894  23.127   3.899   1.028
  470W        W72895   2.929  21.898  13.031
  471W        W72896   0.688  22.138  14.505
  472W        W72897  33.028  30.451   4.951
  473W        W72898  41.543  35.831  11.567
  474W        W72899  23.562  14.262   1.807
  475W        W72900  16.536  31.718  10.253
  476W        W72901  14.084   8.179  14.765
  477W        W72902  15.871  44.522  13.464
  478W        W72903   5.695  17.818  13.414
  479W        W72904  41.772  17.817   3.218
  480W        W72905  32.876  19.674   2.736
  481W        W72906  36.835  16.491   0.981
  482W        W72907   8.592  14.716   0.075
  483W        W72908  26.065  24.473  14.777
  484W        W72909  38.848  11.992   4.792
  485W        W72910  25.710   5.808  14.790
  486W        W72911  11.054  30.322  11.708
  487W        W72912  12.183  44.302   3.558
  488W        W72913  24.971   9.404   2.407
  489W        W72914  31.155  40.952   2.962
  490W        W72915  11.261  24.475   4.099
  491W        W72916  30.213   7.672  12.534
  492W        W72917  28.941  19.830   0.380
  493W        W72918  10.218  12.314   2.234
  494W        W72919  20.166  27.230   0.860
  495W        W72920  32.021  29.678   1.448
  496W        W72921  42.801  32.449   3.125
  497W        W72922  10.141  26.133   3.085
  498W        W72923   6.267  20.152   2.333
  499W        W72924  31.379  19.584   2.315
  500W        W72925  19.580  31.510  12.445
  501W        W72926  15.083  28.623  12.373
  502W        W72927  36.117  29.921  13.544
  503W        W72928  10.421  11.035   1.707
  504W        W72929  20.309  37.515  10.655
  505W        W72930  20.013  26.894  14.534
  506W        W72931  32.467   2.351   4.781
  507W        W72932  37.502   2.843   4.620
  508W        W72933  17.604  40.779  11.083
  509W        W72934   6.711  21.908  13.629
  510W        W72935  26.082  43.026   4.787
  511W        W72936  32.170   5.974  14.391
  512W        W72937  24.223  12.230   1.390
  513W        W72938  33.586  36.341   1.638
  514W        W72939  11.330  40.374  12.674
  515W        W72940  26.013  10.819  11.756
  516W        W72941   2.692  44.285   2.683
  517W        W72942  34.096  40.296  10.734
  518W        W72943   6.937  28.224   2.214
  519W        W72944  36.224  35.074  11.573
  520W        W72945  41.768  25.712   4.532
  521W        W72946   9.852   3.300  13.538
  522W        W72947  21.075   1.153  14.934
  523W        W72948  16.572  11.746  13.519
  524W        W72949   5.757  21.948  13.309
  525W        W72950  44.557  17.196   3.696
  526W        W72951  41.894  12.327   0.285
  527W        W72952  31.990  35.373   1.908
  528W        W72953   4.964  14.699  13.551
  529W        W72954  16.361   5.259   4.416
  530W        W72955  16.644  28.129  13.343
  531W        W72956  36.074  39.437   0.681
  532W        W72957  21.602  19.834  12.976
  533W        W72958  35.124  16.126  13.529
  534W        W72959  14.775  18.769  14.252
  535W        W72960  38.888  21.471   2.174
  536W        W72961  27.558  42.209   3.295
  537W        W72962  23.281  21.470   1.892
  538W        W72963  22.148   9.343  13.738
  539W        W72964  19.629  12.202  14.016
  540W        W72965  40.870  14.376  12.951
  541W        W72966  15.261  11.879  14.997
  542W        W72967  35.421  17.301   1.940
  543W        W72968  34.276  24.420   0.377
  544W        W72969  24.267  41.271   2.410
  545W        W72970   1.431  22.687   1.294
  546W        W72971  16.361   3.990   1.769
  547W        W72972  39.614   9.372  11.588
  548W        W72973  10.723  23.383   2.625
  549W        W72974   5.727  34.445  14.244
  550W        W72975  28.641  25.084   0.319
  551W        W72976  23.269   4.912   1.904
  552W        W72977   0.859   7.302   2.756
  553W        W72978   1.286  12.158   0.712
  554W        W72979  15.606   1.373  12.382
  555W        W72980  30.470   0.932  12.488
  556W        W72981  37.965  30.418   0.428
  557W        W72982  34.631  11.702  12.903
  558W        W72983  26.298   9.300  11.934
  559W        W72984  31.071  44.465  11.062
  560W        W72985  32.820  18.212   2.822
  561W        W72986  21.159  11.936   0.082
  562W        W72987  26.839  19.715  11.891
  563W        W72988  32.657  25.549   1.241
  564W        W72989  21.251  22.454  13.774
  565W        W72990   3.657   7.459  12.509
  566W        W72991  21.346  16.638   4.071
  567W        W72992  21.058  10.302   3.725
  568W        W72993  36.018  15.392  12.906
  569W        W72994  30.520  16.834   1.285
  570W        W72995  10.859  15.288  14.780
  571W        W72996  20.149   6.786  11.871
  572W        W72997  38.183  34.363   0.940
  573W        W72998  24.631  20.673   3.367
  574W        W72999  29.095  36.807  11.100
  575W        W73000   2.177   5.930   3.692
  576W        W73001  18.029  35.550   1.475
  577W        W73002  20.963  16.891  10.265
  578W        W73003   9.148  26.771  13.088
  579W        W73004  14.580   1.498   0.042
  580W        W73005  39.404  32.450  10.694
  581W        W73006  17.363  13.422  12.961
  582W        W73007  40.850  42.474   3.740
  583W        W73008  44.840  18.335   2.196
  584W        W73009  40.568  13.408  14.396
  585W        W73010  21.636  26.688   4.376
  586W        W73011   8.121   2.747   4.096
  587W        W73012   2.403  36.245  12.108
  588W        W73013  38.348  23.755   2.457
  589W        W73014   6.712  27.564   4.493
  590W        W73015  29.940   2.562  13.893
  591W        W73016  19.779  34.107  12.377
  592W        W73017  21.250  19.567  10.190
  593W        W73018  14.739  17.086  13.114
  594W        W73019  32.805   0.032   1.231
  595W        W73020   3.682  30.852  12.391
  596W        W73021  37.576  39.472   0.890
  597W        W73022  20.351  40.193  13.911
  598W        W73023  35.634   3.718  12.438
  599W        W73024  31.937  21.924   2.390
  600W        W73025  34.450  21.577  13.863
  601W        W73026  31.239  31.923  12.561
  602W        W73027   7.661  36.630  14.281
  603W        W73028  19.252  12.159   4.890
  604W        W73029  37.975   8.778  14.537
  605W        W73030  23.602  10.846  12.035
  606W        W73031  23.651   0.091  13.351
  607W        W73032  14.869  41.945   3.315
  608W        W73033  12.530  27.510  11.256
  609W        W73034  10.830   1.770   2.945
  610W        W73035  34.902  19.474  11.160
  611W        W73036  30.636  38.892  13.944
  612W        W73037  41.573  37.774   3.721
  613W        W73038  43.658  10.085   1.776
  614W        W73039  39.824  21.041  11.461
  615W        W73040   8.187  32.394  11.341
  616W        W73041  18.035  36.397   2.745
  617W        W73042  31.118   1.358  14.326
  618W        W73043  25.945  12.093  13.120
  619W        W73044  15.623  12.740   3.272
  620W        W73045  11.600  17.158  14.381
  621W        W73046  33.546  33.325  11.686
  622W        W73047  25.041  11.057  13.160
  623W        W73048  23.048   6.305  11.589
  624W        W73049  32.352  23.258  14.431
  625W        W73050  13.060  26.232  11.598
  626W        W73051  22.735  27.871  11.602
  627W        W73052  42.726  15.695   3.863
  628W        W73053  34.992   6.976   1.022
  629W        W73054  40.310  35.956   4.316
  630W        W73055  27.643  14.881   0.264
  631W        W73056   2.355  17.568  11.709
  632W        W73057  27.266  20.948   1.408
  633W        W73058  30.361  30.558  13.833
  634W        W73059  26.144  43.572   3.373
  635W        W73060  42.762  19.044  11.096
  636W        W73061  37.296   0.027  14.423
  637W        W73062  20.009  22.597   4.429
  638W        W73063  14.902   5.423   2.452
  639W        W73064  23.992   8.250  14.714
  640W        W73065   3.926   4.203  12.379
  641W        W73066  38.975  22.572   4.600
  642W        W73067   9.153  36.419  13.998
  643W        W73068  43.025  23.482  11.661
  644W        W73069  21.901   2.949   4.181
  645W        W73070   4.520  31.779   2.631
  646W        W73071  44.115  38.573  10.239
  647W        W73072  27.445  24.213  12.011
  648W        W73073   5.210  36.490   0.239
  649W        W73074  21.433   4.947   3.149
  650W        W73075   5.984  44.432   1.745
  651W        W73076  18.262  21.090  14.550
  652W        W73077   0.335   9.930  14.518
  653W        W73078  41.221  43.664  10.933
  654W        W73079  11.678  38.034  11.995
  655W        W73080  21.644  28.492  13.379
  656W        W73081  28.314  41.046  14.489
  657W        W73082  28.520  39.574   2.130
  658W        W73083  44.302  35.001   1.723
  659W        W73084  16.141  26.305  14.510
  660W        W73085  17.561  39.742   4.602
  661W        W73086  29.212  18.699  13.028
  662W        W73087  16.147  38.919  10.602
  663W        W73088  22.264  23.071  12.879
  664W        W73089  25.297  28.128   2.376
  665W        W73090  11.390   1.821   2.254
  666W        W73091  42.505  21.544  14.838
  667W        W73092  12.332  42.792   3.730
  668W        W73093  19.739  35.471   4.924
  669W        W73094  23.329  43.542   4.100
  670W        W73095   8.205  36.936  13.363
  671W        W73096  33.389  22.269   0.285
  672W        W73097  27.081  29.418   1.754
  673W        W73098  24.420  43.927  13.468
  674W        W73099  26.064  28.543   4.168
  675W        W73100  34.096  20.692   1.911
  676W        W73101   4.749  42.735   2.223
  677W        W73102  27.587  40.928  10.363
  678W        W73103   4.258  27.703   0.463
  679W        W73104  24.741  27.465  11.450
  680W        W73105   0.369  32.630   1.689
  681W        W73106   5.897  25.048   3.405
  682W        W73107   7.346   9.910  14.731
  683W        W73108  39.787  34.908  12.199
  684W        W73109  42.307  31.343   2.152
  685W        W73110  17.738   4.438  13.572
  686W        W73111  43.334  36.349  10.701
  687W        W73112  29.468  12.762   1.444
  688W        W73113  25.895  31.468   5.013
  689W        W73114  17.604   3.336  14.423
  690W        W73115  24.779   5.357   1.306
  691W        W73116  34.111  33.180  14.423
  692W        W73117  29.065  15.149   3.181
  693W        W73118   8.437  44.028   1.231
  694W        W73119   3.790   3.697  11.821
  695W        W73120  24.630   6.253   4.314
  696W        W73121  13.762  15.724   1.306
  697W        W73122  10.924  40.014  12.553
  698W        W73123  38.030  24.633   2.085
  699W        W73124  25.489  44.329  14.331
  700W        W73125   8.770  43.928  10.978
  701W        W73126  12.638  34.440  14.772
  702W        W73127  36.486  37.017   4.202
  703W        W73128  17.193  26.617  11.460
  704W        W73129  23.703  16.339  13.896
  705W        W73130  43.982   1.496  13.351
  706W        W73131   2.197  11.147   1.810
  707W        W73132  19.698  29.433   0.175
  708W        W73133  41.585   7.902   0.458
  709W        W73134  39.130  29.693   0.331
  710W        W73135  38.390  29.467  11.972
  711W        W73136  23.208   8.651  12.536
  712W        W73137  12.097  32.383  13.958
  713W        W73138   6.867   2.007   2.378
  714W        W73139  43.855  12.876  11.195
  715W        W73140  31.337  15.503   4.136
  716W        W73141  39.805  22.020   4.515
  717W        W73142   6.369   4.661   3.537
  718W        W73143  12.197  29.247  14.325
  719W        W73144  19.150  28.963  12.574
  720W        W73145  42.604  33.634   1.812
  721W        W73146  26.631   9.520   1.518
  722W        W73147   3.211  40.584   0.476
  723W        W73148  44.088  17.162   4.635
  724W        W73149   9.136  33.011   2.731
  725W        W73150  31.672  13.028  14.379
  726W        W73151  34.168  33.005  12.928
  727W        W73152  38.796   0.716  12.541
  728W        W73153  22.773  22.029   2.674
  729W        W73154  22.349  24.625   4.290
  730W        W73155  20.709  33.089   3.345
  731W        W73156  13.316  14.343  14.735
  732W        W73157   1.483  11.285   1.374
  733W        W73158  15.322  28.597   1.864
  734W        W73159  43.870  11.563  11.321
  735W        W73160  21.767   1.830  11.991
  736W        W73161  29.065  32.936  14.031
  737W        W73162  17.115  31.790  12.451
  738W        W73163  23.040  18.599   3.189
  739W        W73164  26.652  10.931  13.727
  740W        W73165  32.113  17.255   0.485
  741W        W73166  29.466   0.281  11.134
  742W        W73167  44.741  36.657   3.402
  743W        W73168  41.995   1.855   4.158
  744W        W73169  16.784  37.572  11.873
  745W        W73170   2.110   8.280  11.232
  746W        W73171  12.838  15.370   2.892
  747W        W73172   0.734  39.378  10.155
  748W        W73173  26.071   2.820  14.454
  749W        W73174  30.620  42.984   0.795
  750W        W73175  23.995  44.548   2.470
  751W        W73176  38.959  15.202   2.353
  752W        W73177  37.979  32.612   3.256
  753W        W73178  13.709  30.970  14.390
  754W        W73179  16.168   7.957  14.783
  755W        W73180  20.171  22.673  11.035
  756W        W73181  31.000  43.133  13.783
  757W        W73182   1.818  20.602  10.986
  758W        W73183  36.120   4.919  12.956
  759W        W73184  20.630  32.816  11.409
  760W        W73185  39.262  28.464  11.788
  761W        W73186  16.240   3.869  14.779
  762W        W73187  30.094   4.796  14.930
  763W        W73188   9.627  42.734   4.162
  764W        W73189  44.401  35.377  12.846
  765W        W73190  21.693  38.105  13.038
  766W        W73191  16.739  15.502  11.946
  767W        W73192  17.727  17.822  10.427
  768W        W73193  12.255  20.613  14.287
  769W        W73194  13.362  25.552   5.608
  770W        W73195  40.603  21.926   1.113
  771W        W73196  21.425   2.552  14.898
  772W        W73197  15.669  25.447  13.603
  773W        W73198  18.074  39.557   2.213
  774W        W73199  40.163   4.587   5.033
  775W        W73200  13.659  29.931  13.090
  776W        W73201  41.975  29.565  13.401
  777W        W73202  34.783  31.665   2.181
  778W        W73203  16.993  27.049   4.160
  779W        W73204  18.713  20.130  14.142
  780W        W73205  16.292  30.528  13.145
  781W        W73206  34.329  27.954  14.819
  782W        W73207  31.101  34.029   4.440
  783W        W73208  43.820  41.452  10.770
  784W        W73209  16.031  23.752  13.011
  785W        W73210  12.769  11.579  12.242
  786W        W73211  24.629   0.833   2.166
  787W        W73212  39.370  15.576  11.223
  788W        W73213  43.171  30.009   3.947
  789W        W73214  31.990  28.423  11.342
  790W        W73215  26.513   3.976   1.274
  791W        W73216  26.483  21.469  13.935
  792W        W73217  23.221  15.383   2.722
  793W        W73218  24.603  11.616   3.568
  794W        W73219  32.877   7.537   1.749
  795W        W73220  37.782  12.332   4.297
  796W        W73221  18.029  25.294  14.428
  797W        W73222  31.927  44.209   2.351
  798W        W73223  37.497  12.644   2.789
  799W        W73224  10.846  16.308   4.142
  800W        W73225  14.984  22.245   4.768
  801W        W73226   3.206  27.391   2.106
  802W        W73227  21.904  27.528   1.255
  803W        W73228  13.380  29.673   0.288
  804W        W73229   0.530  30.198   2.790
  805W        W73230  27.171   4.371  12.947
  806W        W73231  22.539  21.003   4.332
  807W        W73232  16.679  41.846  13.989
  808W        W73233  17.358  39.444  11.509
  809W        W73234  21.738  27.959   0.675
  810W        W73235  34.667  19.008  14.445
  811W        W73236  23.369  12.751   4.573
  812W        W73237   6.400  24.905  12.186
  813W        W73238  22.250  25.763   0.221
  814W        W73239  42.013  44.203  12.548
  815W        W73240  33.466  43.215   1.631
  816W        W73241  21.150  31.161  14.880
  817W        W73242  43.405  40.643   3.644
  818W        W73243   2.434  16.194  13.882
  819W        W73244  17.953   4.695   0.926
  820W        W73245   4.683  37.496  11.893
  821W        W73246  11.790  22.509   1.013
  822W        W73247  41.500  35.033   0.014
  823W        W73248  21.519  10.785   3.092
  824W        W73249   6.767  24.506   3.766
  825W        W73250   0.990  43.476  11.167
  826W        W73251  36.093  16.338  10.798
  827W        W73252  44.954  27.048  12.143
  828W        W73253  40.508  15.805   1.757
  829W        W73254   4.667   3.301  14.291
  830W        W73255  44.531  33.540   0.377
  831W        W73256  32.628  13.929  14.719
  832W        W73257  19.435   6.207  14.038
  833W        W73258  19.349  24.030   0.295
  834W        W73259  23.220  11.795  12.509
  835W        W73260  23.551  21.490  14.362
  836W        W73261  42.942  18.635   3.295
  837W        W73262  29.488  25.166   3.047
  838W        W73263  25.125   5.011  11.745
  839W        W73264  25.702  20.706   1.757
  840W        W73265  26.319  25.026  13.467
  841W        W73266  14.983  37.944   1.868
  842W        W73267   2.290  44.296   3.675
  843W        W73268  34.917   6.493  12.467
  844W        W73269  24.184  41.110  12.490
  845W        W73270  22.520  33.587   0.479
  846W        W73271  26.458  11.439   2.887
  847W        W73272  21.156  43.259  14.191
  848W        W73273  39.136  37.942   3.136
  849W        W73274  29.099  16.599   1.836
  850W        W73275  40.261  38.613  11.414
  851W        W73276   4.928  42.918  14.120
  852W        W73277  28.957  14.776   3.940
  853W        W73278   1.719  26.112   2.942
  854W        W73279  30.377  27.105   4.759
  855W        W73280  27.079  26.416  11.076
  856W        W73281   1.689  14.356   0.925
  857W        W73282  42.352  44.160   0.308
  858W        W73283  43.319  18.145  13.472
  859W        W73284  11.430  43.696   3.204
  860W        W73285  30.560  13.908   1.352
  861W        W73286  20.437   4.224   4.096
  862W        W73287  11.522  37.850  11.549
  863W        W73288  36.855  13.608   0.829
  864W        W73289  35.075  30.482  12.135
  865W        W73290  43.869   9.768  12.875
  866W        W73291   3.443  17.330   4.785
  867W        W73292  37.569  25.160  14.835
  868W        W73293  11.794   5.146   4.973
  869W        W73294  32.678  28.344  12.168
  870W        W73295  40.425   9.274   4.582
  871W        W73296  15.152  24.059   4.981
  872W        W73297  36.795  41.800   0.433
  873W        W73298  15.682  30.872  12.415
  874W        W73299  31.523  23.104   0.052
  875W        W73300  13.321   6.692   3.682
  876W        W73301   7.074  20.582   4.358
  877W        W73302  34.028  21.848   2.227
  878W        W73303  30.130  11.881   0.911
  879W        W73304   0.437  16.246  11.004
  880W        W73305  20.382  12.633  10.558
  881W        W73306  18.636  21.466  13.102
  882W        W73307  25.689  33.411   3.162
  883W        W73308  26.609   4.867  11.939
  884W        W73309   9.480  24.623   1.151
  885W        W73310  13.160  33.814   3.307
  886W        W73311  27.531   4.796   4.116
  887W        W73312  10.394  22.646   1.294
  888W        W73313   7.864   0.431  14.220
  889W        W73314   8.315   1.904   0.250
  890W        W73315   4.371  20.719  13.054
  891W        W73316  40.820   2.153  13.324
  892W        W73317   9.266  16.233  11.893
  893W        W73318  33.838  18.195   4.556
  894W        W73319  32.100  30.884  14.446
  895W        W73320  16.000  19.689   1.241
  896W        W73321  12.949  39.722  14.170
  897W        W73322  41.726  17.595   1.326
  898W        W73323  38.150  22.753  13.606
  899W        W73324  38.195  18.404  14.919
  900W        W73325  18.096   4.089  13.363
  901W        W73326   0.307   0.581   4.594
  902W        W73327  42.124  34.705   4.527
  903W        W73328  10.655   6.490   3.636
  904W        W73329   9.097   3.308   3.623
  905W        W73330  39.139   7.797  13.548
  906W        W73331  10.846  36.417   2.623
  907W        W73332  35.267   2.236   1.849
  908W        W73333  37.473  25.007   0.813
  909W        W73334   5.117  43.860  13.998
  910W        W73335  30.998  13.578  12.178
  911W        W73336  16.144  18.022   1.472
  912W        W73337  27.284  14.119  11.628
  913W        W73338  34.172  19.541   4.341
  914W        W73339  21.501  38.939  14.028
  915W        W73340  24.445  16.854   2.063
  916W        W73341  29.942   1.295   3.062
  917W        W73342  39.734  20.325   4.074
  918W        W73343   4.883   5.730  11.129
  919W        W73344   7.229  36.960   3.256
  920W        W73345  36.037  26.294   5.176
  921W        W73346  37.325  10.685  13.493
  922W        W73347  25.572  33.922  14.633
  923W        W73348  20.115  30.513   5.149
  924W        W73349  10.600   0.728  13.451
  925W        W73350  12.130  37.280   4.188
  926W        W73351  33.345  44.479  12.792
  927W        W73352  16.477   5.745  13.088
  928W        W73353  32.551  31.409   1.794
  929W        W73354  25.943  37.848  13.869
  930W        W73355  19.879  36.617   3.277
  931W        W73356  12.204  26.778  10.742
  932W        W73357   6.164  11.740   4.671
  933W        W73358  43.518  16.320   1.818
  934W        W73359  28.079   7.673  13.514
  935W        W73360  25.888  24.462  13.520
  936W        W73361  11.406   1.800  13.780
  937W        W73362   7.415  25.607  12.047
  938W        W73363  25.023  29.961  11.139
  939W        W73364  10.733   4.427   3.249
  940W        W73365  11.035  23.032   5.431
  941W        W73366   0.494  33.017  10.592
  942W        W73367   8.651   5.275   3.163
  943W        W73368  16.505   4.800   1.475
  944W        W73369  30.534  17.602  11.447
  945W        W73370  14.589  42.842   4.293
  946W        W73371  10.193  29.960   3.708
  947W        W73372   0.999  14.185   3.543
  948W        W73373  27.140  27.398   1.762
  949W        W73374   0.980  34.302  13.439
  950W        W73375  14.021  34.488   2.339
  951W        W73376   5.176  38.828  12.113
  952W        W73377  35.029   0.809   3.620
  953W        W73378  35.070   6.070  11.812
  954W        W73379  30.264  34.092   0.290
  955W        W73380  30.610  26.671  10.258
  956W        W73381  24.075  31.727   4.592
  957W        W73382   5.008  12.659   4.240
  958W        W73383  33.034   3.990   1.433
  959W        W73384  33.861  24.975  11.398
  960W        W73385  17.130  33.725   0.522
  961W        W73386  34.559  19.190   3.166
  962W        W73387  34.024  25.673   0.302
  963W        W73388  37.601   1.100  11.452
  964W        W73389  41.782  20.588   2.656
  965W        W73390   7.281  10.333  10.706
  966W        W73391  38.517  19.335   2.663
  967W        W73392   6.192  33.152   4.427
  968W        W73393  39.006  37.122   1.337
  969W        W73394  41.905   0.881  11.598
  970W        W73395  18.417  10.304   2.903
  971W        W73396  27.560  22.163   3.378
  972W        W73397  41.049   7.674  13.123
  973W        W73398  31.454  23.126  12.411
  974W        W73399  38.466   0.281  10.762
  975W        W73400  24.253  20.579   1.907
  976W        W73401  22.158  40.564   1.752
  977W        W73402   0.406  27.350   3.442
  978W        W73403  24.215  13.094   0.936
  979W        W73404  38.358   2.000  10.652
  980W        W73405  40.072   2.546  11.598
  981W        W73406  11.512  44.912   3.080
  982W        W73407  22.062  38.805  11.883
  983W        W73408  38.174  15.877   2.807
  984W        W73409  43.376   1.940   0.295
  985W        W73410   8.784  33.058  12.955
  986W        W73411   4.314  18.382  10.606
  987W        W73412   3.396  35.537   2.925
  988W        W73413  21.621   0.086  12.939
  989W        W73414  33.841  17.579   1.415
  990W        W73415  17.519  24.243   2.460
  991W        W73416  25.060  11.556  13.061
  992W        W73417   8.873  19.973  12.616
  993W        W73418  24.675  39.838  12.417
  994W        W73419   4.166  23.660   3.817
  995W        W73420  10.799   8.724  11.585
  996W        W73421   6.383  28.381   2.668
  997W        W73422  35.007  16.086  12.335
  998W        W73423   2.431   2.567   2.145
  999W        W73424  27.445  36.027  11.999
 1000W        W73425  30.041  29.702  10.600
 1001W        W73426   7.792  15.768  14.417
 1002W        W73427   3.699  14.047  13.783
 1003W        W73428  22.780  11.337   1.223
 1004W        W73429  26.365  20.762   2.721
 1005W        W73430   3.463  11.096   3.194
 1006W        W73431  18.249  22.248  10.539
 1007W        W73432   3.826  24.995  12.829
 1008W        W73433  11.336   5.833   4.603
 1009W        W73434  37.252   5.715  10.908
 1010W        W73435  26.241  16.519  12.565
 1011W        W73436  12.139  21.668  12.949
 1012W        W73437  21.535   4.189  12.012
 1013W        W73438  22.690   7.629  10.612
 1014W        W73439  40.451  30.394  14.284
 1015W        W73440  22.282  24.502  13.068
 1016W        W73441  32.579  31.903   4.505
 1017W        W73442   3.533   7.178   0.482
 1018W        W73443   5.690  40.065   0.208
 1019W        W73444   4.984   2.471  12.418
 1020W        W73445  10.548   0.436  11.420
 1021W        W73446  37.716  26.594   2.194
 1022W        W73447  40.068  44.522  10.688
 1023W        W73448  26.007  23.525   4.168
 1024W        W73449   3.896   2.829   2.380
 1025W        W73450   0.909  18.355  11.938
 1026W        W73451  33.598  23.018   3.931
 1027W        W73452  28.695   5.374  13.782
 1028W        W73453  36.526   7.351  12.426
 1029W        W73454  26.875  35.332  14.360
 1030W        W73455  15.287  19.624   4.971
 1031W        W73456  18.543  30.265   3.299
 1032W        W73457  17.874   6.285  11.623
 1033W        W73458  24.020  44.896  14.835
 1034W        W73459  17.650  17.878   1.223
 1035W        W73460  30.041  30.530  10.060
 1036W        W73461   1.916   0.388  14.062
 1037W        W73462  17.379   5.535   2.806
 1038W        W73463   3.697  43.835   0.703
 1039W        W73464  11.378  13.249  11.967
 1040W        W73465  30.787   8.522   4.500
 1041W        W73466   0.791  17.589  11.533
 1042W        W73467  33.007   1.298  11.457
 1043W        W73468  23.897  35.896  11.555
 1044W        W73469   7.772  37.039   3.272
 1045W        W73470   5.679  19.651  14.058
 1046W        W73471   2.308  36.168   0.770
 1047W        W73472   9.342  13.862   2.861
 1048W        W73473  33.927  30.991   4.626
 1049W        W73474   6.395  21.663   3.835
 1050W        W73475  12.476  26.151   4.328
 1051W        W73476  33.267  44.419  14.714
 1052W        W73477   2.720  25.408  13.552
 1053W        W73478  10.866  30.444   4.266
 1054W        W73479   7.596   9.289  13.854
 1055W        W73480  26.135   0.470  11.523
 1056W        W73481  10.393  34.004  12.918
 1057W        W73482  43.990   2.884  14.423
 1058W        W73483  38.235  19.744  13.830
 1059W        W73484  38.373   5.474   3.722
 1060W        W73485  16.399  20.597  13.076
 1061W        W73486  37.882  38.514  11.009
 1062W        W73487   3.254  36.522  11.999
 1063W        W73488  15.011   1.920   4.485
 1064W        W73489  33.021  38.184   0.356
 1065W        W73490  26.959  38.446   3.152
 1066W        W73491   9.883   1.797  12.372
 1067W        W73492   4.249  19.481  10.605
 1068W        W73493  18.706  20.492   1.677
 1069W        W73494  33.949  24.958  13.977
 1070W        W73495  36.321   4.942   5.114
 1071W        W73496  40.016  20.535   2.840
 1072W        W73497   2.548  30.403  13.862
 1073W        W73498  19.686   7.606  11.113
 1074W        W73499  44.236  26.624  11.125
 1075W        W73500  39.543   4.251   2.133
 1076W        W73501  13.362  15.180   0.703
 1077W        W73502  23.026   8.808  10.166
 1078W        W73503  28.366  37.011   3.721
 1079W        W73504  19.568   0.244   1.856
 1080W        W73505  13.447  14.344   4.896
 1081W        W73506  25.100  13.574   3.736
 1082W        W73507  32.480  32.482  12.310
 1083W        W73508  43.053  29.631   3.627
 1084W        W73509  11.681  36.603  13.095
 1085W        W73510   3.246  21.312  13.555
 1086W        W73511  30.412  19.454   1.857
 1087W        W73512  40.801  12.172   3.584
 1088W        W73513  17.587  30.489   0.466
 1089W        W73514  14.638  37.377   0.709
 1090W        W73515  30.928  29.023   1.836
 1091W        W73516  10.481  25.984  14.840
 1092W        W73517   8.888   5.874   2.355
 1093W        W73518  36.372  25.477  13.036
 1094W        W73519  14.682  24.141  11.421
 1095W        W73520  22.868   7.786   1.345
 1096W        W73521   9.350  21.392  14.257
 1097W        W73522  15.559  37.518   3.723
 1098W        W73523  30.656  10.337   3.287
 1099W        W73524  20.789  43.723  14.970
 1100W        W73525  40.286  34.933   4.367
 1101W        W73526  12.617  27.497  14.477
 1102W        W73527  24.287  30.847   4.770
 1103W        W73528  36.477  23.192  10.177
 1104W        W73529  22.076  31.233   2.237
 1105W        W73530   9.685  26.639  13.788
 1106W        W73531  23.037  11.786   1.276
 1107W        W73532  14.179  40.987   1.703
 1108W        W73533   9.239  43.984   2.382
 1109W        W73534  11.414  40.410  13.174
 1110W        W73535   5.104  32.478   2.284
 1111W        W73536  16.552  24.646  13.029
 1112W        W73537  37.825  30.881   4.056
 1113W        W73538  34.699  15.182   0.903
 1114W        W73539  42.572  20.114  11.982
 1115W        W73540  42.763  42.404   2.422
 1116W        W73541   9.277  30.091  12.074
 1117W        W73542   4.688  37.012   2.169
 1118W        W73543  16.780  17.350   1.353
 1119W        W73544  22.073  24.360  14.016
 1120W        W73545  21.101  33.512   0.009
 1121W        W73546  39.609  44.740  13.414
 1122W        W73547  42.243  42.633  12.030
 1123W        W73548  22.915   8.606  11.045
 1124W        W73549   4.422   0.025  11.051
 1125W        W73550  25.155  12.635   0.280
 1126W        W73551  14.164  18.514  13.949
 1127W        W73552  18.554  30.417  10.364
 1128W        W73553  25.737  28.207   0.386
 1129W        W73554  28.400  36.052  12.518
 1130W        W73555  43.415   0.347  12.846
 1131W        W73556  21.120  23.510   9.978
 1132W        W73557  28.414   1.496   0.751
 1133W        W73558  11.362  25.298  14.425
 1134W        W73559  34.770  31.157   4.180
 1135W        W73560   2.930  21.181   3.169
 1136W        W73561  43.759  41.829  13.909
 1137W        W73562  41.734  11.809   0.105
 1138W        W73563  42.903  43.875  12.472
 1139W        W73564   7.733   3.762  12.849
 1140W        W73565  39.002   6.459  12.421
 1141W        W73566  20.725  16.623  10.664
 1142W        W73567  28.540  22.174   4.118
 1143W        W73568  40.365   3.900  13.044
 1144W        W73569  19.746  28.969  12.840
 1145W        W73570  23.770   5.970  14.951
 1146W        W73571  13.074  42.914  10.399
 1147W        W73572  18.737   0.482  12.944
 1148W        W73573  25.203  26.587   4.575
 1149W        W73574  16.555  10.736   3.815
 1150W        W73575  40.741  26.377   0.747
 1151W        W73576  17.618  40.382   2.712
 1152W        W73577   2.462  35.134  12.657
 1153W        W73578  12.360  28.474  13.109
 1154W        W73579  18.000   8.773  12.491
 1155W        W73580  10.783  38.702   1.397
 1156W        W73581  41.206   3.528  11.565
 1157W        W73582  36.617  20.578   4.424
 1158W        W73583  31.017  23.006  13.839
 1159W        W73584   5.408   9.150  11.680
 1160W        W73585  38.022  43.377   1.157
 1161W        W73586   2.656  35.431  11.837
 1162W        W73587  28.547   8.747   4.807
 1163W        W73588  26.162   0.334   1.674
 1164W        W73589  34.673  37.421   0.430
 1165W        W73590  33.806   8.724   4.274
 1166W        W73591  35.075  17.226  12.068
 1167W        W73592  43.226  24.209  14.488
 1168W        W73593  35.028   2.815   0.838
 1169W        W73594  36.273  39.207  11.523
 1170W        W73595  24.368   0.981   1.735
 1171W        W73596   3.704  18.543  14.405
 1172W        W73597  32.599   9.353   3.084
 1173W        W73598  26.054  14.440  14.449
 1174W        W73599  16.038   0.172   2.176
 1175W        W73600  36.980  13.260  13.775
 1176W        W73601  28.509   7.941  13.573
 1177W        W73602  34.858  23.514   1.810
 1178W        W73603  36.362  19.860  13.962
 1179W        W73604  17.325  21.051  11.231
 1180W        W73605  11.171  11.117  14.471
 1181W        W73606  35.310  14.442  11.340
 1182W        W73607  22.699   0.071  12.123
 1183W        W73608  44.126   2.253   2.312
 1184W        W73609  31.307  15.114  12.787
 1185W        W73610   8.093  37.480   5.020
 1186W        W73611  39.448  43.850   4.874
 1187W        W73612  24.239  30.333   5.072
 1188W        W73613  20.710  39.420  12.566
 1189W        W73614  42.719  31.385  11.192
 1190W        W73615  28.454  26.435   0.489
 1191W        W73616  23.288  23.098   4.420
 1192W        W73617  34.507  14.278  13.446
 1193W        W73618  21.148   5.420  12.441
 1194W        W73619  32.815  13.602   4.522
 1195W        W73620  32.955  10.855   0.292
 1196W        W73621   8.454  43.540   3.486
 1197W        W73622   9.782  19.099   0.814
 1198W        W73623  41.069  36.691   2.654
 1199W        W73624  20.210  21.294   2.163
 1200W        W73625  28.148  13.266   5.174
 1201W        W73626  10.802  43.513  14.528
 1202W        W73627  11.753  23.861  11.065
 1203W        W73628  29.200  18.747  11.634
 1204W        W73629   0.743  38.663  14.430
 1205W        W73630  11.658  24.574   0.388
 1206W        W73631   8.945  44.042  14.764
 1207W        W73632  36.955  13.892  12.953
 1208W        W73633   6.212   3.801   2.288
 1209W        W73634  39.485  17.966   4.050
 1210W        W73635  18.595  11.066  11.667
 1211W        W73636  17.169  19.613  13.343
 1212W        W73637   8.602   1.901  12.959
 1213W        W73638  23.350  10.227  10.625
 1214W        W73639  12.646  40.929  13.155
 1215W        W73640  23.286   2.199   0.944
 1216W        W73641   8.935  29.998  12.450
 1217W        W73642   5.847  18.559  11.668
 1218W        W73643  28.621   9.677   0.037
 1219W        W73644   5.890  27.237  11.310
 1220W        W73645  21.630   0.507  12.405
 1221W        W73646  17.330   2.297  10.545
 1222W        W73647  30.078  10.813  11.590
 1223W        W73648  12.909  44.652  13.480
 1224W        W73649  27.698  31.679   2.825
 1225W        W73650  21.066  44.520   2.728
 1226W        W73651   0.496  24.829  14.821
 1227W        W73652  35.624  42.846  14.328
 1228W        W73653  28.747  34.044  12.749
 1229W        W73654  29.214  10.611  11.210
 1230W        W73655  21.171   0.652   4.516
 1231W        W73656  36.340  19.318  12.562
 1232W        W73657  30.122  33.782  14.879
 1233W        W73658  22.620  30.519   4.228
 1234W        W73659  35.106  25.193  12.901
 1235W        W73660  12.207  22.417   5.481
 1236W        W73661  29.407   4.215  14.849
 1237W        W73662   9.158  43.927   4.168
 1238W        W73663  30.804   0.410  11.101
 1239W        W73664  44.857  22.788   3.772
 1240W        W73665  19.538  31.005   2.230
 1241W        W73666  14.880   4.813   3.470
 1242W        W73667   7.962  21.204  13.404
 1243W        W73668   7.160   8.707  14.278
 1244W        W73669  44.404  22.258   1.575
 1245W        W73670   0.772  41.919  13.701
 1246W        W73671  19.068  33.011  11.967
 1247W        W73672  35.061  42.872   3.698
 1248W        W73673  28.865  23.685   2.220
 1249W        W73674  27.402  28.719   3.369
 1250W        W73675   7.341  10.386  11.743
 1251W        W73676   8.381  20.817   2.165
 1252W        W73677  38.132   2.254   1.280
 1253W        W73678  32.635  16.788  12.007
 1254W        W73679  33.351  26.825  14.457
 1255W        W73680  33.962  10.710  13.031
 1256W        W73681  11.072   1.357   2.299
 1257W        W73682  34.058  21.111   0.548
 1258W        W73683  23.251  38.940   4.541
 1259W        W73684  28.838   0.261  12.527
 1260W        W73685  38.102   1.366   1.294
 1261W        W73686  25.739  28.393   2.403
 1262W        W73687   7.851  37.517  13.499
 1263W        W73688  25.951   8.670  12.996
 1264W        W73689  41.800  25.537  11.957
 1265W        W73690   5.837   5.576  10.940
 1266W        W73691  10.734  37.939  14.035
 1267W        W73692   2.303  34.147  13.450
 1268W        W73693  36.930   9.406  11.154
 1269W        W73694  18.065  25.987   1.033
 1270W        W73695   8.149  22.768   2.801
 1271W        W73696  17.535  26.089   1.730
 1272W        W73697  41.406  25.789   3.291
 1273W        W73698   1.532  36.342   2.256
 1274W        W73699   8.397   8.331   2.305
 1275W        W73700  18.531  20.068   1.413
 1276W        W73701  27.478  34.112  14.021
 1277W        W73702  27.913   5.163   1.303
 1278W        W73703  40.797  29.220  14.878
 1279W        W73704  15.537  22.575   4.137
 1280W        W73705   6.898  12.217  12.017
 1281W        W73706   5.490  14.813  13.662
 1282W        W73707  41.016  27.511   3.671
 1283W        W73708  19.318  43.185  12.949
 1284W        W73709  10.230  43.776  12.582
 1285W        W73710   4.459  17.182   0.927
 1286W        W73711  11.159  41.088  13.427
 1287W        W73712  38.053  35.077  10.528
 1288W        W73713  20.617  19.235  12.821
 1289W        W73714  12.511  28.458   1.961
 1290W        W73715  20.849   3.354  14.845
 1291W        W73716  36.954   6.669   4.530
 1292W        W73717  10.842  30.452  13.335
 1293W        W73718   1.488  15.647  11.965
 1294W        W73719  15.012  27.874  14.099
 1295W        W73720  20.021  32.041  14.245
 1296W        W73721  25.519  13.613   3.047
 1297W        W73722   0.087  22.962   4.230
 1298W        W73723   3.480  13.794  11.594
 1299W        W73724  40.809  19.980  10.737
 1300W        W73725  12.880   5.452  11.166
 1301W        W73726  11.366  32.512  12.363
 1302W        W73727  33.866  17.084  11.455
 1303W        W73728  28.555  26.005  13.322
 1304W        W73729  43.010  43.513  12.131
 1305W        W73730  32.428  19.793  13.354
 1306W        W73731  38.568   1.884   2.555
 1307W        W73732  14.936  26.854  13.874
 1308W        W73733   6.153  32.130  14.354
 1309W        W73734  19.558  36.995   3.176
 1310W        W73735   4.947   8.238  13.043
 1311W        W73736  34.323  39.829  10.659
 1312W        W73737  28.069  38.943  13.033
 1313W        W73738  14.031   9.936  13.605
 1314W        W73739  44.726  15.889  13.897
 1315W        W73740  28.166  13.951  14.026
 1316W        W73741  15.142  21.565  12.700
 1317W        W73742  26.708  18.563  14.852
 1318W        W73743  42.169  18.732   2.114
 1319W        W73744  22.040  44.820   4.455
 1320W        W73745  34.473  14.119   2.658
 1321W        W73746  37.809  41.940  11.657
 1322W        W73747  38.455  14.738  14.697
 1323W        W73748  34.080  38.991  11.517
 1324W        W73749   1.944  27.996   5.059
 1325W        W73750   3.139   7.367  12.493
 1326W        W73751  38.079  21.595   2.608
 1327W        W73752  22.983  39.057  11.946
 1328W        W73753  14.301  44.824  12.653
 1329W        W73754  33.502  32.057  14.471
 1330W        W73755  29.582  19.198   0.332
 1331W        W73756  44.386  18.782   0.427
 1332W        W73757  29.441  23.947   1.264
 1333W        W73758  13.176  33.845  11.244
 1334W        W73759  26.772  15.107   2.863
 1335W        W73760   2.288  43.368  12.089
 1336W        W73761  43.602  15.321  12.070
 1337W        W73762  30.362  28.883  14.420
 1338W        W73763  36.870  34.088   2.801
 1339W        W73764  14.501  27.089   4.610
 1340W        W73765  17.295  44.443  13.762
 1341W        W73766  19.706  21.699  13.145
 1342W        W73767   1.946  43.718   3.070
 1343W        W73768  38.944   5.977  13.496
 1344W        W73769  38.071  15.897   1.247
 1345W        W73770  17.726  11.990  14.764
 1346W        W73771  15.357   2.895  11.167
 1347W        W73772  26.115  34.011  11.546
 1348W        W73773   5.822  44.592  11.494
 1349W        W73774  14.773  28.996  13.861
 1350W        W73775  23.466  33.089  12.471
 1351W        W73776  26.749  34.932  14.650
 1352W        W73777  41.207  14.002   2.870
 1353W        W73778  20.606  11.370   4.669
 1354W        W73779   8.927  36.065   3.090
 1355W        W73780  34.145  18.097  12.916
 1356W        W73781  15.210  28.465   0.307
 1357W        W73782  13.675  12.288   2.122
 1358W        W73783   0.239  32.720   2.170
 1359W        W73784  37.366   8.440  13.270
 1360W        W73785   0.665   1.925  14.694
 1361W        W73786   1.696  26.169  11.044
 1362W        W73787  26.765  33.475   1.804
 1363W        W73788  25.032  32.584  11.536
 1364W        W73789  17.026  29.576   2.316
 1365W        W73790  30.126  20.512   2.310
 1366W        W73791  13.409  23.231   1.087
 1367W        W73792   6.092   9.819  13.353
 1368W        W73793  25.682   6.742  14.869
 1369W        W73794   6.714   6.427  14.565
 1370W        W73795  21.519  13.389  11.023
 1371W        W73796   3.226  32.383  11.209
 1372W        W73797   7.845   2.480   3.733
 1373W        W73798  36.345  23.773   3.717
 1374W        W73799  36.604  39.078  14.856
 1375W        W73800  38.241  34.026  14.145
 1376W        W73801  36.043  31.014  10.685
 1377W        W73802  15.687   0.984   3.733
 1378W        W73803  33.903  11.013   3.758
 1379W        W73804  28.000   7.345   0.507
 1380W        W73805  38.880  35.363   2.678
 1381W        W73806  37.579  26.784   4.463
 1382W        W73807  13.886  23.671  11.486
 1383W        W73808   4.202   8.716   2.336
 1384W        W73809  17.709  34.651  13.940
 1385W        W73810  37.541  35.935  14.800
 1386W        W73811  12.598   2.924  11.101
 1387W        W73812  14.041   8.377   2.789
 1388W        W73813  24.599   4.763   0.788
 1389W        W73814  12.938  16.186   3.318
 1390W        W73815   9.952  11.845  14.410
 1391W        W73816  37.779  23.624   0.878
 1392W        W73817   1.806  10.847   0.753
 1393W        W73818  34.846  40.248   1.640
 1394W        W73819  25.161  26.474   3.232
 1395W        W73820   9.438  11.669  11.221
 1396W        W73821  24.091  21.304  11.448
 1397W        W73822  19.676  12.417  13.497
 1398W        W73823  14.344   1.828   2.470
 1399W        W73824  25.938  26.567  12.490
 1400W        W73825  41.861  12.379   2.514
 1401W        W73826  42.932  21.236  12.531
 1402W        W73827  18.461  44.928  11.268
 1403W        W73828  16.755   3.966  14.677
 1404W        W73829  20.209   1.991  10.662
 1405W        W73830   1.159  23.772   5.055
 1406W        W73831  24.380  23.815  14.464
 1407W        W73832   2.968  32.380  12.572
 1408W        W73833  41.670  17.748  10.332
 1409W        W73834  11.583  32.615  10.665
 1410W        W73835  25.162  34.960  12.904
 1411W        W73836  17.074  32.626  13.467
 1412W        W73837  16.094  23.054  14.781
 1413W        W73838  17.486   3.612   4.633
 1414W        W73839  24.163  12.800   2.402
 1415W        W73840  28.984  31.934   4.791
 1416W        W73841  18.849  32.278   5.002
 1417W        W73842  14.230  11.108   2.143
 1418W        W73843   7.134  32.176   4.555
 1419W        W73844   3.713  24.017  12.817
 1420W        W73845   8.097  40.280  12.885
 1421W        W73846  34.090  37.524   4.622
 1422W        W73847  11.976  28.848   1.898
 1423W        W73848   9.081   4.292   1.339
 1424W        W73849   7.232  19.822   4.312
 1425W        W73850  27.708  17.368   2.710
 1426W        W73851  22.726  33.674   2.883
 1427W        W73852  30.803  30.448   2.857
 1428W        W73853  16.734  13.248  10.441
 1429W        W73854  16.687  28.594  10.948
 1430W        W73855   5.684  29.622  11.663
 1431W        W73856  27.965   5.620  12.465
 1432W        W73857  33.883  21.266  14.826
 1433W        W73858  37.306  36.603   2.271
 1434W        W73859   1.230  39.470   3.513
 1435W        W73860   3.338  26.086  11.592
 1436W        W73861   8.684  37.584  14.467
 1437W        W73862  13.182  32.533  14.216
 1438W        W73863   7.730  34.647  11.650
 1439W        W73864  14.684  38.848   2.183
 1440W        W73865  12.262  31.002  10.664
 1441W        W73866  30.377  38.895  12.918
 1442W        W73867  16.662  18.703   4.597
 1443W        W73868  12.847  37.799   0.327
 1444W        W73869  17.013  19.740  11.067
 1445W        W73870  25.892  36.995  13.908
 1446W        W73871  19.676  31.509   2.244
 1447W        W73872  33.920  16.543  11.741
 1448W        W73873  20.610  22.493   4.234
 1449W        W73874   6.096  18.519  11.220
 1450W        W73875  25.274  16.162   1.919
 1451W        W73876  20.117  41.877   2.784
 1452W        W73877  13.086  40.536  14.980
 1453W        W73878  36.617  28.142  13.415
 1454W        W73879  21.026   9.555   4.611
 1455W        W73880  17.408   2.344  11.407
 1456W        W73881  17.499  35.357   3.184
 1457W        W73882  11.427  37.378   3.108
 1458W        W73883  38.384   8.300  10.641
 1459W        W73884  29.268  30.423  13.358
 1460W        W73885  44.998   1.979  14.043
 1461W        W73886  13.388  44.559   0.806
 1462W        W73887  40.977  38.313   2.695
 1463W        W73888  39.110   0.887  10.246
 1464W        W73889   4.703  43.214   4.010
 1465W        W73890  36.110  41.894  12.137
 1466W        W73891  18.820  43.448  14.962
 1467W        W73892  21.264  44.293   4.075
 1468W        W73893  37.003  34.157   0.331
 1469W        W73894  27.169  11.978  14.787
 1470W        W73895   4.415  31.430  11.577
 1471W        W73896  30.651  38.995  14.500
 1472W        W73897  11.918  40.989   4.570
 1473W        W73898  18.666  42.736   4.047
 1474W        W73899  41.334  41.569   1.389
 1475W        W73900   1.252  27.900   2.159
 1476W        W73901   2.959  29.876   1.404
 1477W        W73902  28.991  23.097   3.922
 1478W        W73903  38.535  20.551  14.333
 1479W        W73904  40.875  27.522  10.532
 1480W        W73905  22.009  21.938  11.044
 1481W        W73906  11.827  44.992   2.077
 1482W        W73907   3.401  23.685   0.776
 1483W        W73908  22.509   4.770  10.614
 1484W        W73909  15.257  11.608  10.700
 1485W        W73910  31.077   2.814   0.398
 1486W        W73911  44.687  38.022   3.031
 1487W        W73912  12.677  21.751  12.916
 1488W        W73913  25.876  18.143   2.509
 1489W        W73914  30.500  44.920   4.562
 1490W        W73915  25.974  22.707   2.712
 1491W        W73916  17.325  16.733  12.873
 1492W        W73917  18.359  14.079   2.095
 1493W        W73918  40.762  22.141   1.946
 1494W        W73919  20.332  12.580  12.774
 1495W        W73920  12.077   1.346   2.691
 1496W        W73921   4.458  29.132   3.636
 1497W        W73922   9.963  24.029   4.566
 1498W        W73923  42.348   2.198  14.922
 1499W        W73924  36.447  17.152   2.691
 1500W        W73925  33.926   5.247   2.933
 1501W        W73926   7.663  38.116   4.514
 1502W        W73927  32.872  10.384  11.034
 1503W        W73928  11.426  19.828   0.719
 1504W        W73929   2.961   9.397  11.091
 1505W        W73930  36.447  29.943   2.969
 1506W        W73931  17.822  15.762   1.299
 1507W        W73932  18.605  18.645   3.921
 1508W        W73933   1.591  44.570  11.128
 1509W        W73934  14.084  10.515   3.184
 1510W        W73935  26.937  29.338  14.004
 1511W        W73936  26.102  33.555  14.892
 1512W        W73937  21.210  27.233  14.468
 1513W        W73938  28.843   9.732   1.454
 1514W        W73939  20.653  26.541   1.529
 1515W        W73940  10.118  31.113   3.688
 1516W        W73941  23.614   3.545  14.858
 1517W        W73942   1.731  43.318   1.212
 1518W        W73943   0.266  21.036  12.230
 1519W        W73944  38.371  19.889  11.597
 1520W        W73945  39.475  27.118  10.659
 1521W        W73946  36.568  11.272   0.992
 1522W        W73947  25.116  22.236   0.907
 1523W        W73948   7.870   3.806   0.213
 1524W        W73949   0.811   8.702  14.338
 1525W        W73950   9.078  25.462   0.505
 1526W        W73951  36.567   1.819   3.690
 1527W        W73952  38.300  13.272   4.772
 1528W        W73953  23.470  40.802  10.817
 1529W        W73954  17.037  25.567  13.355
 1530W        W73955  39.124   8.703  14.528
 1531W        W73956   9.830  16.194  14.693
 1532W        W73957   8.162   0.441   0.767
 1533W        W73958  38.605   5.687  13.247
 1534W        W73959  28.620  28.927   2.224
 1535W        W73960  44.974  19.707   1.709
 1536W        W73961  33.109  39.004  14.089
 1537W        W73962  35.260  39.149  12.487
 1538W        W73963  35.634  31.410  13.840
 1539W        W73964   7.317  34.982   2.960
 1540W        W73965  10.194   6.485   3.294
 1541W        W73966   0.072  16.243   2.545
 1542W        W73967   5.741  27.522   0.448
 1543W        W73968   7.313   9.034   2.419
 1544W        W73969  25.959  37.141  14.836
 1545W        W73970  32.968  10.282   1.352
 1546W        W73971  38.040  33.626   3.642
 1547W        W73972  44.515  24.716  14.809
 1548W        W73973  24.497  12.510   3.949
 1549W        W73974  27.430   8.633   0.686
 1550W        W73975  34.437  31.887  13.464
 1551W        W73976  15.203  33.086  12.815
 1552W        W73977  12.319  32.379   4.125
 1553W        W73978   4.338  29.593   0.058
 1554W        W73979  25.159  14.779   3.394
 1555W        W73980  28.537  43.028   0.415
 1556W        W73981   7.834   3.449   0.628
 1557W        W73982  39.885   1.318   4.054
 1558W        W73983   8.219  41.085  12.415
 1559W        W73984   6.913  12.546   2.961
 1560W        W73985  23.579  20.106   0.096
 1561W        W73986   6.574  36.334   4.681
 1562W        W73987  24.113  13.641   4.065
 1563W        W73988  13.510  26.986   1.423
 1564W        W73989   3.874  33.110  10.799
 1565W        W73990  20.262  10.373   3.123
 1566W        W73991   8.743   4.379   0.219
 1567W        W73992  38.511   0.683   0.088
 1568W        W73993  17.195  35.331   0.400
 1569W        W73994  39.342  35.988  11.170
 1570W        W73995  12.854   0.991   3.642
 1571W        W73996  21.228  44.121   4.674
 1572W        W73997  26.729  27.588   3.183
 1573W        W73998  33.179  43.827   0.816
 1574W        W73999  33.616  14.176  14.895
 1575W        W74000   8.395  25.693   3.506
 1576W        W74001  26.684   5.865  13.883
 1577W        W74002  26.708  30.611  11.181
 1578W        W74003   7.364  20.787   0.501
 1579W        W74004   5.665  19.272   3.628
 1580W        W74005   2.553  11.013  13.418
 1581W        W74006  29.117   1.147   1.294
 1582W        W74007  14.513  24.714   1.334
 1583W        W74008   5.363  38.270   2.328
 1584W        W74009  27.761  31.997   1.259
 1585W        W74010  41.010  20.336  14.213
 1586W        W74011  35.160  36.971  12.991
 1587W        W74012   1.173  38.428  14.610
 1588W        W74013   8.738  34.712  12.418
 1589W        W74014  39.934  41.733   4.570
 1590W        W74015   5.735  26.571   4.765
 1591W        W74016  39.290  37.567  11.948
 1592W        W74017  12.171  35.157  14.648
 1593W        W74018  16.578  34.526  11.936
 1594W        W74019  31.617  20.060  10.649
 1595W        W74020  20.762   6.729  13.072
 1596W        W74021  35.348  43.467   4.111
 1597W        W74022  17.648  16.884   2.730
 1598W        W74023   0.422  38.832  14.821
 1599W        W74024  38.365  35.146   4.581
 1600W        W74025   2.573  27.907   9.861
 1601W        W74026   6.201   1.978   2.564
 1602W        W74027  15.711  39.401   0.905
 1603W        W74028  35.483  27.518  11.496
 1604W        W74029  15.638  20.566  11.722
 1605W        W74030  26.441  40.764   4.189
 1606W        W74031   1.590  28.265  14.449
 1607W        W74032   1.862  22.686   0.302
 1608W        W74033  43.068  15.339   4.060
 1609W        W74034  14.657  28.099  12.654
 1610W        W74035  20.312  10.434   2.592
 1611W        W74036  32.011  41.588   0.929
 1612W        W74037   2.935  37.447   2.887
 1613W        W74038  29.931  39.506   3.322
 1614W        W74039  11.328  16.118  10.757
 1615W        W74040  25.483  11.955  10.334
 1616W        W74041  11.107   0.582   3.558
 1617W        W74042   7.223  11.626  12.582
 1618W        W74043  34.005  43.206   0.384
 1619W        W74044  32.079  29.150  13.928
 1620W        W74045  42.929  38.397  12.884
 1621W        W74046  11.290  15.592   3.714
 1622W        W74047  20.795   8.840  13.303
 1623W        W74048  44.756   6.930  13.735
 1624W        W74049  43.529  19.176  13.076
 1625W        W74050  16.541  28.405   3.319
 1626W        W74051  24.467  29.108   2.600
 1627W        W74052  44.068  35.534   3.720
 1628W        W74053  44.258  33.732  12.629
 1629W        W74054  28.546  27.241  12.971
 1630W        W74055  27.583   5.700  10.672
 1631W        W74056  14.089   1.261  13.230
 1632W        W74057  39.528  28.458   1.942
 1633W        W74058  38.506  16.711   0.488
 1634W        W74059  41.117  39.795  12.857
 1635W        W74060  41.925  27.162   4.572
 1636W        W74061  15.347  35.742  10.413
 1637W        W74062  25.925  44.311   1.809
 1638W        W74063  40.502  23.148   0.076
 1639W        W74064   3.432  25.347  12.914
 1640W        W74065  21.091  44.468   0.685
 1641W        W74066  16.278  40.526   4.092
 1642W        W74067  27.707  27.049  11.549
 1643W        W74068  30.624   7.639  14.414
 1644W        W74069  29.114   3.489   1.359
 1645W        W74070  32.932  28.020  13.885
 1646W        W74071  13.444  41.216  10.281
 1647W        W74072   4.450  36.102   1.827
 1648W        W74073  29.418  36.964  14.796
 1649W        W74074   8.368   3.268   2.334
 1650W        W74075  12.634  29.244   0.347
 1651W        W74076  12.750   3.905   4.673
 1652W        W74077  44.420  33.138  10.770
 1653W        W74078  43.058  37.782  14.415
 1654W        W74079  30.646  23.698   3.903
 1655W        W74080  28.539  22.024   1.643
 1656W        W74081   7.232  32.088  11.347
 1657W        W74082  23.103  37.570  12.006
 1658W        W74083  43.416   3.395  13.464
 1659W        W74084   0.515  40.245   2.374
 1660W        W74085   6.520  44.057   2.491
 1661W        W74086  28.969  27.435   2.875
 1662W        W74087   3.537  27.870  10.595
 1663W        W74088  41.560  28.849   1.922
 1664W        W74089  11.255  18.186   2.585
 1665W        W74090  22.630  41.266   0.877
 1666W        W74091  44.489  40.060   3.552
 1667W        W74092  11.824   1.328   1.013
 1668W        W74093  30.389   7.918  13.464
 1669W        W74094  24.098  35.364  14.332
 1670W        W74095  29.689  37.164   1.636
 1671W        W74096  30.352  39.120  11.112
 1672W        W74097   6.280   0.278   0.384
 1673W        W74098  10.304  28.865  10.066
 1674W        W74099  36.809   3.919  12.832
 1675W        W74100  37.860   4.223   4.609
 1676W        W74101  39.818  32.858   4.112
 1677W        W74102  39.333  32.227  13.057
 1678W        W74103  19.464  12.865   1.248
 1679W        W74104  33.913   3.950   1.471
 1680W        W74105  28.453  31.726   2.684
 1681W        W74106  15.592  23.019   3.885
 1682W        W74107  31.180  21.554  13.870
 1683W        W74108  22.674   9.286  13.586
 1684W        W74109  37.876  34.102  10.649
 1685W        W74110  40.201  25.808   3.635
 1686W        W74111   0.958  19.261  14.855
 1687W        W74112  11.803   1.808   2.625
 1688W        W74113  15.684  13.102  12.787
 1689W        W74114  10.112  23.929   4.041
 1690W        W74115  17.371   5.297   1.551
 1691W        W74116   4.940  43.849  10.766
 1692W        W74117  44.098  17.094  14.911
 1693W        W74118  33.929  30.498   2.377
 1694W        W74119  30.579  13.930   4.116
 1695W        W74120  16.657   7.286   5.197
 1696W        W74121  25.076  30.539  12.812
 1697W        W74122  32.566  43.245  13.849
 1698W        W74123  22.490  28.919   3.226
 1699W        W74124  16.535  31.922   0.908
 1700W        W74125   4.705  21.066  14.406
 1701W        W74126   4.936  39.585   2.244
 1702W        W74127  35.971  28.913  11.547
 1703W        W74128  17.660  30.122  13.973
 1704W        W74129  36.082   8.928   2.283
 1705W        W74130  30.031  27.911  14.000
 1706W        W74131  28.571  36.091  14.395
 1707W        W74132  28.426  34.459  11.975
 1708W        W74133  31.670  11.454  10.217
 1709W        W74134  16.382  14.389   2.175
 1710W        W74135  24.506  13.725   2.317
 1711W        W74136  42.917  22.042   0.770
 1712W        W74137   8.837  10.141   2.092
 1713W        W74138  28.176  18.737  11.415
 1714W        W74139  35.922   3.713   3.176
 1715W        W74140  25.521  12.216  12.803
 1716W        W74141  41.810   5.737  13.915
 1717W        W74142  20.660  26.636  10.718
 1718W        W74143   2.903  36.342  12.344
 1719W        W74144   8.914  14.342   1.432
 1720W        W74145  43.694   7.910   0.198
 1721W        W74146  38.268  19.270  13.406
 1722W        W74147  29.579  29.953   0.222
 1723W        W74148  34.089  20.484   4.059
 1724W        W74149  20.089   9.116  13.538
 1725W        W74150  16.018  34.980  11.445
 1726W        W74151   2.726   3.285  10.883
 1727W        W74152  28.359   8.087  14.499
 1728W        W74153  33.103  33.546  13.420
 1729W        W74154  29.128   6.319  13.769
 1730W        W74155  39.629   4.596   5.034
 1731W        W74156   4.194  13.314  12.577
 1732W        W74157  42.092  11.649   2.257
 1733W        W74158  34.031  10.958  12.570
 1734W        W74159   6.913  35.361   4.213
 1735W        W74160  32.357  11.053   1.260
 1736W        W74161  42.314  33.525  14.523
 1737W        W74162   3.242  43.890  13.969
 1738W        W74163   4.959  22.766   1.988
 1739W        W74164  26.112  11.958   1.956
 1740W        W74165  27.628   5.833  13.494
 1741W        W74166  16.701  23.234  11.049
 1742W        W74167  35.613  20.645  10.705
 1743W        W74168  31.291  41.297  11.070
 1744W        W74169  25.398  30.604  11.830
 1745W        W74170   5.868  11.885   2.050
 1746W        W74171  28.480  18.753  12.428
 1747W        W74172  32.608   7.265   0.297
 1748W        W74173   1.004  18.078   0.262
 1749W        W74174  31.045  23.662   4.238
 1750W        W74175  31.613  32.631   4.832
 1751W        W74176  13.911   6.786   2.206
 1752W        W74177  24.714  30.426  13.185
 1753W        W74178  27.865  13.142  12.900
 1754W        W74179   2.711   7.774   4.126
 1755W        W74180   0.211   2.835  11.276
 1756W        W74181  40.376  37.798   0.847
 1757W        W74182  22.975   1.321   4.232
 1758W        W74183   5.749  13.792  10.667
 1759W        W74184  16.599  30.515   0.396
 1760W        W74185  35.942   3.840   2.664
 1761W        W74186  26.448  23.658  14.290
 1762W        W74187  26.701  25.208  10.731
 1763W        W74188  36.558  43.013  10.315
 1764W        W74189  29.839  36.666   1.511
 1765W        W74190  41.879   6.320   1.351
 1766W        W74191  15.826  18.103   2.414
 1767W        W74192  19.823  36.776  14.385
 1768W        W74193  36.803   6.260  10.351
 1769W        W74194  20.744  34.288   2.619
 1770W        W74195  39.750  38.502  14.194
 1771W        W74196  39.914  43.736   2.669
 1772W        W74197  13.092  21.834   0.925
 1773W        W74198  18.215  23.637  10.566
 1774W        W74199  10.703  37.372  10.098
 1775W        W74200  39.026  24.778   1.703
 1776W        W74201  19.716  39.375   2.203
 1777W        W74202  40.570  23.499   9.681
 1778W        W74203  11.840  21.284  14.963
 1779W        W74204  32.372  36.088   0.085
 1780W        W74205  21.640   2.977   4.852
 1781W        W74206  18.737  41.349   4.358
 1782W        W74207  26.120  29.124  14.833
 1783W        W74208  11.065  26.578  14.297
 1784W        W74209  27.987   4.561   4.309
 1785W        W74210  18.541  27.772  11.902
 1786W        W74211  18.433  40.875  14.712
 1787W        W74212  30.319  17.283  14.045
 1788W        W74213   8.396  42.842  11.217
 1789W        W74214   9.214  29.557  12.388
 1790W        W74215   8.145   0.634  11.168
 1791W        W74216  22.151   5.319  12.337
 1792W        W74217  36.506  12.039   0.051
 1793W        W74218  32.617   0.955  11.510
 1794W        W74219  40.448  12.792  14.129
 1795W        W74220  17.258   1.239   0.904
 1796W        W74221  17.608  29.545   0.988
 1797W        W74222  25.489  16.481  13.405
 1798W        W74223   4.194  16.999   4.163
 1799W        W74224  22.988  10.984  11.479
 1800W        W74225  34.906  16.908   0.256
 1801W        W74226  40.772  37.827  14.911
 1802W        W74227   4.860  11.133  11.153
 1803W        W74228  15.129  32.597   0.378
 1804W        W74229  13.793   7.478   2.694
 1805W        W74230  17.798   2.022  12.053
 1806W        W74231  17.751  34.989   2.250
 1807W        W74232  27.739   5.298   1.958
 1808W        W74233  25.532  10.812   3.176
 1809W        W74234  42.739  12.773   1.705
 1810W        W74235  42.974   5.124  13.469
 1811W        W74236  11.791  28.415   4.264
 1812W        W74237  22.322  17.615   2.800
 1813W        W74238  41.519   7.430  12.984
 1814W        W74239  20.124   0.910  13.002
 1815W        W74240  44.000  38.826   4.585
 1816W        W74241  13.537  44.705   3.661
 1817W        W74242  37.036  25.114   2.219
 1818W        W74243  37.794   6.393  10.723
 1819W        W74244  40.393  25.680   1.244
 1820W        W74245  43.783  23.600   2.774
 1821W        W74246   4.890  43.647  11.616
 1822W        W74247  28.089   4.937   2.804
 1823W        W74248  21.304  11.305  10.174
 1824W        W74249  41.246   8.020  11.650
 1825W        W74250  15.694  37.532  14.481
 1826W        W74251  25.108  31.100   0.440
 1827W        W74252  29.512  38.627  11.050
 1828W        W74253   8.846  44.934   0.219
 1829W        W74254  22.360   5.716  12.100
 1830W        W74255   4.905  17.246  12.368
 1831W        W74256   2.034  31.158   1.430
 1832W        W74257  30.558  21.747   3.680
 1833W        W74258   2.400  23.508  12.680
 1834W        W74259  24.115  21.749   1.232
 1835W        W74260   2.143   8.777   2.753
 1836W        W74261  32.423  28.688   3.877
 1837W        W74262   5.025  20.180  14.120
 1838W        W74263  28.215  23.482   0.475
 1839W        W74264  35.069  40.312  13.401
 1840W        W74265  43.001  27.054   0.260
 1841W        W74266  35.374  25.495   3.354
 1842W        W74267  23.123  16.787   0.829
 1843W        W74268   2.906  14.113  11.024
 1844W        W74269  15.870  22.473   2.457
 1845W        W74270  33.371  16.083  12.276
 1846W        W74271  29.533  43.668  13.137
 1847W        W74272   3.245  27.666  11.426
 1848W        W74273  23.948  44.319  10.724
 1849W        W74274  44.732  18.265  12.112
 1850W        W74275  30.633  14.416   1.386
 1851W        W74276   8.142  28.766  12.879
 1852W        W74277   8.610   1.871   1.567
 1853W        W74278  28.259   4.885   5.204
 1854W        W74279  33.998  16.402   1.989
 1855W        W74280  41.443   0.990   1.913
 1856W        W74281   1.554  37.634   1.810
 1857W        W74282   1.262  28.725   0.238
 1858W        W74283  40.300  23.545   0.771
 1859W        W74284   5.218  17.857  14.412
 1860W        W74285  25.459  20.097  10.749
 1861W        W74286  20.530  14.123   3.454
 1862W        W74287  16.076  44.946   0.034
 1863W        W74288  26.588  15.646   0.096
 1864W        W74289  19.668  39.196   2.933
 1865W        W74290  19.593  36.040   3.700
 1866W        W74291  14.228   6.774   4.823
 1867W        W74292   7.627  41.644   4.577
 1868W        W74293   0.146   3.818  12.267
 1869W        W74294  27.376  38.308   0.390
 1870W        W74295  20.581  16.490  14.380
 1871W        W74296  23.100  32.882  11.149
 1872W        W74297  25.558  10.641  11.959
 1873W        W74298  16.302  32.218   4.073
 1874W        W74299   1.375   2.233  12.612
 1875W        W74300  36.496  25.976  10.393
 1876W        W74301  18.596  21.754  14.304
 1877W        W74302  22.464   3.482  11.562
 1878W        W74303  16.394  24.177  14.325
 1879W        W74304  15.199  35.924  11.417
 1880W        W74305  31.593  33.218   0.443
 1881W        W74306   0.333  30.209   4.556
 1882W        W74307  15.592  43.870   0.293
 1883W        W74308  26.684   6.255  10.661
 1884W        W74309  44.482  38.095  13.367
 1885W        W74310  18.141  43.844   1.115
 1886W        W74311  37.259  11.087   1.817
 1887W        W74312  37.716   1.809   2.491
 1888W        W74313   4.943   1.901  11.192
 1889W        W74314  29.379  18.225  11.029
 1890W        W74315  27.390  37.894  12.636
 1891W        W74316  41.982  29.895  10.759
 1892W        W74317  12.881  24.251  14.802
 1893W        W74318   7.822  22.284  10.769
 1894W        W74319  27.185   7.921  12.565
 1895W        W74320  14.300  22.578  11.411
 1896W        W74321  38.514  32.582  14.232
 1897W        W74322  19.150  22.768  11.635
 1898W        W74323   6.274  17.769  10.668
 1899W        W74324  38.475  23.096  14.717
 1900W        W74325  29.909  26.105   2.306
 1901W        W74326  11.963  38.930  14.952
 1902W        W74327  44.848  31.156   0.381
 1903W        W74328  31.411  27.906   0.004
 1904W        W74329   7.318  41.985   0.764
 1905W        W74330   6.231  35.874   2.832
 1906W        W74331  24.108   3.332  12.544
 1907W        W74332  30.584  19.081   4.697
 1908W        W74333   0.892  40.601   1.365
 1909W        W74334  33.118  44.320   1.893
 1910W        W74335   2.793  30.133  11.899
 1911W        W74336  36.999  25.547   1.332
 1912W        W74337  32.728  12.895   0.843
 1913W        W74338  41.487  43.518  12.305
 1914W        W74339  11.423   7.826   4.117
 1915W        W74340   5.609   2.138   2.369
 1916W        W74341  38.995   8.751  12.670
 1917W        W74342   0.402  39.355  14.905
 1918W        W74343  22.519   5.079   3.064
 1919W        W74344  35.904  19.083   2.895
 1920W        W74345  36.462  15.221   1.912
 1921W        W74346  24.526   8.183   1.322
 1922W        W74347  14.485  35.497  10.778
 1923W        W74348   0.991  16.905  13.359
 1924W        W74349  44.570  28.033   1.802
 1925W        W74350  34.033  18.581   0.369
 1926W        W74351  16.755  15.684   4.602
 1927W        W74352  31.493  16.511  14.018
 1928W        W74353  14.657  10.699  14.548
 1929W        W74354  19.230  20.756   1.362
 1930W        W74355  30.527  24.056  13.833
 1931W        W74356   8.031   0.904  10.731
 1932W        W74357   7.253  14.191   1.372
 1933W        W74358  25.218  14.105  13.836
 1934W        W74359  25.641   6.754   0.912
 1935W        W74360  39.080  39.987   0.086
 1936W        W74361  41.020  13.878   1.489
 1937W        W74362  33.122  30.821   2.979
 1938W        W74363   8.354  15.821  13.030
 1939W        W74364  38.379   4.353  13.050
 1940W        W74365  24.684   2.488  11.895
 1941W        W74366  42.303  19.236  13.824
 1942W        W74367   8.240  37.800   3.299
 1943W        W74368  25.507   5.215   2.460
 1944W        W74369  41.322  10.011  11.572
 1945W        W74370  38.998  18.799   0.002
 1946W        W74371  17.601  21.477  11.308
 1947W        W74372  25.433   4.204  12.080
 1948W        W74373  30.843  40.968   3.380
 1949W        W74374  26.262  11.500   5.120
 1950W        W74375   1.834  26.533  11.975
 1951W        W74376  38.963   3.308   4.486
 1952W        W74377  39.318   7.448  11.639
 1953W        W74378  34.555  15.583  14.163
 1954W        W74379  11.746  27.106   3.776
 1955W        W74380  44.935   8.364  13.000
 1956W        W74381   8.390  18.096   1.861
 1957W        W74382  20.745   8.357  11.397
 1958W        W74383  39.080  24.868  14.366
 1959W        W74384  10.378  17.062  11.846
 1960W        W74385  26.058   8.937   2.444
 1961W        W74386  12.377  30.731   3.859
 1962W        W74387  35.653   2.736  13.942
 1963W        W74388  36.879  28.099   0.386
 1964W        W74389   2.803  40.189  12.702
 1965W        W74390   0.708  35.002   2.627
 1966W        W74391  15.926  34.894  10.124
 1967W        W74392  38.362  23.614   3.403
 1968W        W74393   4.266  23.484   4.297
 1969W        W74394  11.160  17.253  10.703
 1970W        W74395  37.346   2.991   2.238
 1971W        W74396  11.661  40.437  11.415
 1972W        W74397  25.497  41.515  11.852
 1973W        W74398  40.625  18.105  11.587
 1974W        W74399   5.927  41.916  14.438
 1975W        W74400  16.726  38.355  14.317
 1976W        W74401  20.734  43.678  12.652
 1977W        W74402  28.627  21.115   2.159
 1978W        W74403  11.600   5.904  12.588
 1979W        W74404   3.961   6.439   2.446
 1980W        W74405  23.026   4.268   0.054
 1981W        W74406  34.912  38.363  11.656
 1982W        W74407  14.631   5.824   0.675
 1983W        W74408  23.064   5.174   4.088
 1984W        W74409  23.225  27.764   2.492
 1985W        W74410  22.778  31.572   4.550
 1986W        W74411  11.658   6.233  11.771
 1987W        W74412  29.993  33.022   1.713
 1988W        W74413  10.614  25.134   2.862
 1989W        W74414  43.711   4.226  12.476
 1990W        W74415  15.186  17.724   4.210
 1991W        W74416  11.260   3.895   2.514
 1992W        W74417  16.546   9.416   3.684
 1993W        W74418  17.521  22.043  13.708
 1994W        W74419   7.299  11.327   2.847
 1995W        W74420  29.616  20.598   0.277
 1996W        W74421  44.972   8.669   4.046
 1997W        W74422  40.241  28.169   2.480
 1998W        W74423   8.760  21.293   5.136
 1999W        W74424  18.600   6.767  11.599
 2000W        W74425  20.603  41.709  10.669
 2001W        W74426  24.994  20.167  12.936
 2002W        W74427  41.503   9.399  10.787
 2003W        W74428   5.039  36.227   2.534
 2004W        W74429  30.886  38.812  12.872
 2005W        W74430  39.559  40.588  12.229
 2006W        W74431   1.349   1.131   0.333
 2007W        W74432  30.228  10.267   4.584
 2008W        W74433   1.213  28.622  11.694
 2009W        W74434   2.896  20.301   0.370
 2010W        W74435   7.692  15.147  10.658
 2011W        W74436   1.994  36.636  12.452
 2012W        W74437   1.864  15.788   1.193
 2013W        W74438  34.315  11.239   2.156
 2014W        W74439  21.001  22.011   2.704
 2015W        W74440  12.860  37.556   2.327
 2016W        W74441  37.328   2.788  11.577
 2017W        W74442  33.961  22.647   0.200
 2018W        W74443  32.676   5.083  10.090
 2019W        W74444  20.622  42.896   0.400
 2020W        W74445  33.584  27.869   4.932
 2021W        W74446  23.776  21.382   2.009
 2022W        W74447  39.976  15.730  11.180
 2023W        W74448  42.990  36.574  11.048
 2024W        W74449  20.012  43.624   1.308
 2025W        W74450  36.447   5.494  13.130
 2026W        W74451   3.925  44.282   3.205
 2027W        W74452   6.176   8.280   4.866
 2028W        W74453  27.438  19.062   3.213
 2029W        W74454  43.786   7.795  12.494
 2030W        W74455   5.663  15.375  13.128
 2031W        W74456   3.918  18.061  10.737
 2032W        W74457   2.339  42.082   2.415
 2033W        W74458  38.925   2.702  11.830
 2034W        W74459  21.805  15.521  12.663
 2035W        W74460   7.019  38.400  13.520
 2036W        W74461   7.223  40.365  13.948
 2037W        W74462  34.927  28.812   0.689
 2038W        W74463   5.345   7.894  12.176
 2039W        W74464   7.933  42.856   3.763
 2040W        W74465  37.988  41.943  14.281
 2041W        W74466  23.570  34.938  13.783
 2042W        W74467  22.882  16.577  13.039
 2043W        W74468  27.149  16.360   0.578
 2044W        W74469  18.307  32.721   9.880
 2045W        W74470  42.767  34.821  14.863
 2046W        W74471  20.626  35.374   2.380
 2047W        W74472  35.015   3.132  13.919
 2048W        W74473   7.824  41.241  10.975
 2049W        W74474  14.568  14.751  11.621
 2050W        W74475  20.562  30.091  14.997
 2051W        W74476  17.830  40.090  12.901
 2052W        W74477   8.851  39.433  13.328
 2053W        W74478   4.687  30.501   2.405
 2054W        W74479  39.736  33.058   3.117
 2055W        W74480   4.261  40.007  10.515
 2056W        W74481  17.715  26.396  10.606
 2057W        W74482  25.493  32.442  14.451
 2058W        W74483  35.834  13.737  14.870
 2059W        W74484   8.413  33.320   4.496
 2060W        W74485  27.912  33.022   3.114
 2061W        W74486  32.249  28.207   3.682
 2062W        W74487  33.822  38.032  12.942
 2063W        W74488  13.357  27.983   2.265
 2064W        W74489  14.893  20.162   2.381
 2065W        W74490  23.970  10.622  14.429
 2066W        W74491  20.097  42.000  12.000
 2067W        W74492  24.174  13.502   1.881
 2068W        W74493   6.130  23.232  13.554
 2069W        W74494  10.144  15.752   2.217
 2070W        W74495   4.903   7.145  12.120
 2071W        W74496  41.888  37.265   0.441
 2072W        W74497  19.938  18.358   2.687
 2073W        W74498  10.866   0.938   4.545
 2074W        W74499  26.408   1.968  11.051
 2075W        W74500   7.046  12.686  13.039
 2076W        W74501  31.536   7.828  14.470
 2077W        W74502  23.925  15.066  14.405
 2078W        W74503  38.081  35.328   1.356
 2079W        W74504   6.908  17.105  13.404
 2080W        W74505  21.156   5.400   1.208
 2081W        W74506  44.020  24.358  10.705
 2082W        W74507  17.439  31.060   2.263
 2083W        W74508  27.043  44.525   4.867
 2084W        W74509  21.659  40.076  10.252
 2085W        W74510   0.280  14.112  14.840
 2086W        W74511  40.576   7.964   1.192
 2087W        W74512  25.411  13.471   2.551
 2088W        W74513  30.624  37.988   4.782
 2089W        W74514  23.011  20.007  13.377
 2090W        W74515   0.861  37.041   3.614
 2091W        W74516  14.386  36.266  14.297
 2092W        W74517  38.056  30.619   1.305
 2093W        W74518   4.765  15.759  10.754
 2094W        W74519   7.191  41.999  11.660
 2095W        W74520   9.467  35.470  10.678
 2096W        W74521   2.245  20.526  11.275
 2097W        W74522   1.646   2.458   3.858
 2098W        W74523  18.878  14.666   4.519
 2099W        W74524  26.083  36.264  11.405
 2100W        W74525  32.161  18.969  13.074
 2101W        W74526  11.681   6.163   4.852
 2102W        W74527   3.424  18.576   2.399
 2103W        W74528  40.243  13.905  12.537
 2104W        W74529  15.359  42.056   0.572
 2105W        W74530  44.401  40.158   0.729
 2106W        W74531  11.115  21.150   4.329
 2107W        W74532  43.797  22.611  12.362
 2108W        W74533   7.447  36.414  13.007
 2109W        W74534  17.649   5.850  11.815
 2110W        W74535  15.106   6.301  11.658
 2111W        W74536  12.805  43.143  11.254
 2112W        W74537  29.313   1.756   2.373
 2113W        W74538  34.192  41.394   1.981
 2114W        W74539  10.929  26.637   1.420
 2115W        W74540  12.589  41.891  14.790
 2116W        W74541  43.011   8.639  14.082
 2117W        W74542  37.317  13.589  14.885
 2118W        W74543   5.771  27.995   4.359
 2119W        W74544  33.948   6.405   3.142
 2120W        W74545   4.989  19.310  12.607
 2121W        W74546  14.024  25.015  12.664
 2122W        W74547  28.773  31.995   0.013
 2123W        W74548  36.521  24.957   3.323
 2124W        W74549   1.624  22.999   2.354
 2125W        W74550  41.939  42.242  12.984
 2126W        W74551  33.008  36.026   4.158
 2127W        W74552  31.242  34.387  14.970
 2128W        W74553  31.808  24.115  11.381
 2129W        W74554  11.115  23.763  11.509
 2130W        W74555  27.644  41.946  13.063
 2131W        W74556   3.368  20.744   1.237
 2132W        W74557   7.369  10.295   3.302
 2133W        W74558  42.384  26.123  12.520
 2134W        W74559  42.520   9.167  14.701
 2135W        W74560  10.445  30.887  13.095
 2136W        W74561  39.282  44.579  13.049
 2137W        W74562  44.481  44.018   3.684
 2138W        W74563   3.780  34.026   3.803
 2139W        W74564   7.836  41.851   0.790
 2140W        W74565  11.629  35.352   2.267
 2141W        W74566  12.708  10.330   5.056
 2142W        W74567  16.122  36.343  11.622
 2143W        W74568   7.271   4.844   4.056
 2144W        W74569  44.382   1.690  12.033
 2145W        W74570  29.699   2.792  10.968
 2146W        W74571  39.015   7.826   4.670
 2147W        W74572   2.921  30.153   0.967
 2148W        W74573  31.091  42.484   4.600
 2149W        W74574  10.683  44.275   0.316
 2150W        W74575   0.786  18.537   4.204
 2151W        W74576   2.788   3.800  12.622
 2152W        W74577  29.146  25.415   4.678
 2153W        W74578  44.219  14.287  11.394
 2154W        W74579  38.932  38.468  10.701
 2155W        W74580  19.718  37.986  11.134
 2156W        W74581   9.886  23.363  12.877
 2157W        W74582  28.539   8.141  11.229
 2158W        W74583  17.924  27.213  10.699
 2159W        W74584  13.801  20.430  12.530
 2160W        W74585  42.934  24.740   4.206
 2161W        W74586   9.183  41.846  10.976
 2162W        W74587  42.143  24.747  13.134
 2163W        W74588   3.665   9.337  12.469
 2164W        W74589  26.228  35.075   4.745
 2165W        W74590  44.009   8.118   0.540
 2166W        W74591  42.447  30.058   0.516
 2167W        W74592  23.380   9.357  11.045
 2168W        W74593  34.969   2.003  10.946
 2169W        W74594  43.027  34.962  10.374
 2170W        W74595  30.467  12.763  10.737
 2171W        W74596   3.226   9.144  11.434
 2172W        W74597  29.723  35.495   3.202
 2173W        W74598  18.215   1.739   0.968
 2174W        W74599   5.703  43.595  12.493
 2175W        W74600  15.114   5.318  14.788
 2176W        W74601  13.239   9.712  13.975
 2177W        W74602  21.975  22.413  13.307
 2178W        W74603  40.321   7.934   3.529
 2179W        W74604  28.169   2.655  13.755
 2180W        W74605   4.004  42.413  13.342
 2181W        W74606   3.399   8.358   4.098
 2182W        W74607  15.771   6.943   4.785
 2183W        W74608  35.758  34.427   4.500
 2184W        W74609  18.433  23.534  11.612
 2185W        W74610  32.143   2.914  13.450
 2186W        W74611  26.093  11.296   2.151
 2187W        W74612   3.516  39.582   0.377
 2188W        W74613  42.902  34.509  13.016
 2189W        W74614   5.309  12.773  10.453
 2190W        W74615  23.492  39.376   4.166
 2191W        W74616   7.299  31.757   0.901
 2192W        W74617  13.236   1.989   2.276
 2193W        W74618  43.917  11.808  12.838
 2194W        W74619   6.831  19.781  13.494
 2195W        W74620  26.970  23.424   0.426
 2196W        W74621  17.189   8.280  12.526
 2197W        W74622  12.250  11.359  11.060
 2198W        W74623   5.994  44.920  14.459
 2199W        W74624   4.515  39.406   0.369
 2200W        W74625  22.208  29.202  11.875
 2201W        W74626  44.991  35.179   3.698
 2202W        W74627   6.754  10.079  13.945
 2203W        W74628  15.845   5.803  11.627
 2204W        W74629  32.069  18.485  14.026
 2205W        W74630  43.398  18.052  10.614
 2206W        W74631   2.076  33.393   1.462
 2207W        W74632  33.060  43.330  10.709
 2208W        W74633  42.074  23.075   4.471
 2209W        W74634  38.093   3.652   3.724
 2210W        W74635  21.569  10.284   3.831
 2211W        W74636  43.849   3.687  13.510
 2212W        W74637  40.856  14.279  10.735
 2213W        W74638   1.556   8.147  11.563
 2214W        W74639   1.794  33.034  11.907
 2215W        W74640  30.978   0.112   0.336
 2216W        W74641   5.854  26.503  14.279
 2217W        W74642  24.220  20.057   2.771
 2218W        W74643  17.147   9.174  11.671
 2219W        W74644  38.039   6.668   4.582
 2220W        W74645  12.059  11.788   4.643
 2221W        W74646   5.413  13.671  11.556
 2222W        W74647  18.673   1.949  12.128
 2223W        W74648  36.908  36.607   0.928
 2224W        W74649   0.267  44.379  13.508
 2225W        W74650  15.307  31.148   3.867
 2226W        W74651  14.227  30.109  13.804
 2227W        W74652   0.225  21.620  11.479
 2228W        W74653  31.677  39.978   4.510
 2229W        W74654  27.487   7.751   3.211
 2230W        W74655  28.573  13.890   3.185
 2231W        W74656  16.306  40.737  11.669
 2232W        W74657  35.088  18.422  13.797
 2233W        W74658   4.960  41.462   2.715
 2234W        W74659  11.381   7.149   5.318
 2235W        W74660   8.140  17.786   3.645
 2236W        W74661   9.841  44.351   3.757
 2237W        W74662  30.256  28.476   1.639
 2238W        W74663  20.313  34.413   1.959
 2239W        W74664   0.431   8.212   4.617
 2240W        W74665  39.298  12.294  12.039
 2241W        W74666   8.150  10.103   1.716
 2242W        W74667  39.047   4.536   5.058
 2243W        W74668  38.797   7.233   0.679
 2244W        W74669  18.823  42.928   0.978
 2245W        W74670   9.068  31.448  11.723
 2246W        W74671  31.395  26.715   1.536
 2247W        W74672   4.676  10.078   1.445
 2248W        W74673   8.455   9.689   4.923
 2249W        W74674  20.846  24.550   4.274
 2250W        W74675  40.325  28.992   0.008
 2251W        W74676  22.257  19.477   0.775
 2252W        W74677   2.180  35.838   4.753
 2253W        W74678  26.537   9.119   2.420
 2254W        W74679  11.181  13.854   0.755
 2255W        W74680  15.115   9.465  11.637
 2256W        W74681  20.462  21.545   0.917
 2257W        W74682   2.849  24.794   1.316
 2258W        W74683  34.481  26.201  13.429
 2259W        W74684   2.035  43.507   4.573
 2260W        W74685  44.644  12.289  14.425
 2261W        W74686  22.615  13.633   2.467
 2262W        W74687  28.522  40.450  12.153
 2263W        W74688  31.593  14.582   3.829
 2264W        W74689  42.516  34.026  11.568
 2265W        W74690   4.615  21.643  13.080
 2266W        W74691  41.293  41.439  12.449
 2267W        W74692  15.743  36.374   5.063
 2268W        W74693  26.689  31.636   3.319
 2269W        W74694  22.818  12.737  14.060
 2270W        W74695  23.600  34.591  13.386
 2271W        W74696  10.983  22.922   2.668
 2272W        W74697  29.087  30.514   3.155
 2273W        W74698   5.946  13.329  14.987
 2274W        W74699  30.115  10.788   2.275
 2275W        W74700   0.568  16.275   2.430
 2276W        W74701  34.971  19.317   2.409
 2277W        W74702   4.989  35.882  14.642
 2278W        W74703  13.137   4.328   1.301
 2279W        W74704  29.212  33.449  12.431
 2280W        W74705  28.968   0.660   2.130
 2281W        W74706  22.270  21.478   3.235
 2282W        W74707   7.253  17.169  11.054
 2283W        W74708   5.632  26.049  14.382
 2284W        W74709  25.193   7.954   0.973
 2285W        W74710  12.537  22.749  14.762
 2286W        W74711  39.123  14.272  14.016
 2287W        W74712  27.000  19.159   1.011
 2288W        W74713  26.473   5.187  13.301
 2289W        W74714  19.687   9.920  10.777
 2290W        W74715  38.261  35.319  12.885
 2291W        W74716  44.792  32.904   1.204
 2292W        W74717   7.766  33.128  11.992
 2293W        W74718  20.200  30.931   1.755
 2294W        W74719  27.213  29.644  14.330
 2295W        W74720  34.918  11.082  11.992
 2296W        W74721   8.099  42.873  14.264
 2297W        W74722  39.856  39.055   1.343
 2298W        W74723  19.059  40.745   0.489
 2299W        W74724  38.822  42.971  12.613
 2300W        W74725  43.382   6.141  14.383
 2301W        W74726   4.828  22.955   2.850
 2302W        W74727   5.314  17.575   2.500
 2303W        W74728  30.928   6.130  14.603
 2304W        W74729  20.231   3.661  14.339
 2305W        W74730  33.470  31.547  14.447
 2306W        W74731   7.798  28.622  13.465
 2307W        W74732  32.240  29.988   1.069
 2308W        W74733  22.606  16.115   0.244
 2309W        W74734  26.870   8.703   4.101
 2310W        W74735  22.720  37.522  10.655
 2311W        W74736  33.391  19.329  10.581
 2312W        W74737   3.049   7.381   4.796
 2313W        W74738  37.116  25.215  10.140
 2314W        W74739  19.654  10.162  14.775
 2315W        W74740   9.157  18.152   4.513
 2316W        W74741  12.375  22.331   0.967
 2317W        W74742  40.342  15.708   4.019
 2318W        W74743   1.563  13.000  11.621
 2319W        W74744  30.926  29.193  11.072
 2320W        W74745  12.558  44.288  12.464
 2321W        W74746  12.788  36.422   2.345
 2322W        W74747  19.099  12.957   0.494
 2323W        W74748  25.745  29.366  10.340
 2324W        W74749  26.184   3.476  12.042
 2325W        W74750   9.035   4.945  11.218
 2326W        W74751  14.058  40.762  12.176
 2327W        W74752  31.290  17.601  10.955
 2328W        W74753  34.634   7.112  13.795
 2329W        W74754  25.119  44.756  12.379
 2330W        W74755  13.036   7.943   3.329
 2331W        W74756  36.331   0.528   3.277
 2332W        W74757  26.872   2.384   3.605
 2333W        W74758  31.610   0.310  11.541
 2334W        W74759  44.232  30.199  11.636
 2335W        W74760  32.683  27.885   4.559
 2336W        W74761   8.257  18.642  11.719
 2337W        W74762  39.791  38.027   1.694
 2338W        W74763   6.932  20.546   0.601
 2339W        W74764  37.042  20.459   3.593
 2340W        W74765  26.025  35.077   2.612
 2341W        W74766  31.381   7.812  13.165
 2342W        W74767  23.482  37.928   2.195
 2343W        W74768  31.885   7.919  12.998
 2344W        W74769  20.084  18.875   2.818
 2345W        W74770  23.249  34.564   1.874
 2346W        W74771   4.721  27.908  12.018
 2347W        W74772   8.267   5.880   1.948
 2348W        W74773  21.136  29.236  14.491
 2349W        W74774  35.311  42.368  12.044
 2350W        W74775  24.863   8.441  10.056
 2351W        W74776  38.476  12.346   4.708
 2352W        W74777   6.968  32.014   0.617
 2353W        W74778  39.317  44.317  10.091
 2354W        W74779   1.176   6.171  14.356
 2355W        W74780   9.037  23.613   2.941
 2356W        W74781  44.402  13.739  14.961
 2357W        W74782  16.676  21.626  11.143
 2358W        W74783  32.321  16.567  11.680
 2359W        W74784  28.912  12.255  11.277
 2360W        W74785  17.152  31.519   2.414
 2361W        W74786  37.020   3.416  10.806
 2362W        W74787  44.785  15.029  14.846
 2363W        W74788   3.689  28.871  10.910
 2364W        W74789  27.628  43.286   0.060
 2365W        W74790  37.400  22.114   4.155
 2366W        W74791  17.232  26.436   1.223
 2367W        W74792  18.487   3.971   3.667
 2368W        W74793   4.407  16.566  13.941
 2369W        W74794  11.802  16.100  14.365
 2370W        W74795  25.909  34.618   1.848
 2371W        W74796  25.520  35.330  12.915
 2372W        W74797   1.324  34.068  12.579
 2373W        W74798  27.420  23.710  13.467
 2374W        W74799  10.291   2.862   1.981
 2375W        W74800  12.729  24.722  10.565
 2376W        W74801  37.560  39.502   2.916
 2377W        W74802  23.548  20.471   4.338
 2378W        W74803  30.456   9.601   2.879
 2379W        W74804  10.882  18.581   3.261
 2380W        W74805   3.167  18.552  11.037
 2381W        W74806   6.815  41.862   0.955
 2382W        W74807  14.734  20.265   1.425
 2383W        W74808  29.569  15.699   3.138
 2384W        W74809  41.275  16.120   1.242
 2385W        W74810  44.429   3.531   3.717
 2386W        W74811  13.699   0.015  14.013
 2387W        W74812  24.383  43.671  12.591
 2388W        W74813  40.238   8.177   0.831
 2389W        W74814   6.451  40.844   3.191
 2390W        W74815  39.427  10.314  10.677
 2391W        W74816   6.725  20.253  13.317
 2392W        W74817  29.561  32.630   0.987
 2393W        W74818  33.566  41.852   1.474
 2394W        W74819  25.561  14.739  14.342
 2395W        W74820  21.426  43.780   2.836
 2396W        W74821  18.576  25.641   4.595
 2397W        W74822   5.849  37.799   4.521
 2398W        W74823  39.454  11.384  13.536
 2399W        W74824  29.136   6.750   2.184
 2400W        W74825  38.396  37.866  12.105
 2401W        W74826  19.277  43.925  12.587
 2402W        W74827   3.238  10.973  14.353
 2403W        W74828   9.760   0.131  14.769
 2404W        W74829  27.158   1.774   4.703
 2405W        W74830  42.972  26.602  14.295
 2406W        W74831  11.108   6.127  12.623
 2407W        W74832  32.429  28.126   1.857
 2408W        W74833  40.975  16.709   2.707
 2409W        W74834  42.044  42.530   9.682
 2410W        W74835  26.409  30.559   5.101
 2411W        W74836  43.933  36.381   0.231
 2412W        W74837  28.017   1.733  13.744
 2413W        W74838  17.775  33.979  11.499
 2414W        W74839  31.585  41.380   2.180
 2415W        W74840  12.843  29.434  14.839
 2416W        W74841   5.079  26.210   0.776
 2417W        W74842  27.419   9.657  12.677
 2418W        W74843  13.546  44.063  14.064
 2419W        W74844  23.042  38.396  12.670
 2420W        W74845  31.606   6.276   1.347
 2421W        W74846  42.917   2.525  12.416
 2422W        W74847   2.833  10.691   0.670
 2423W        W74848  21.513  25.093  13.288
 2424W        W74849  24.467  10.193   3.172
 2425W        W74850   3.546  24.942   3.693
 2426W        W74851  15.481  33.023   0.050
 2427W        W74852   7.690  30.680  11.677
 2428W        W74853  20.836  24.459   2.791
 2429W        W74854   9.470   6.727  11.702
 2430W        W74855  21.060  27.441  14.920
 2431W        W74856  15.151  22.611  11.160
 2432W        W74857  31.607  20.560  12.176
 2433W        W74858  37.992  19.334   0.433
 2434W        W74859  27.786  16.773  10.402
 2435W        W74860   6.976   6.222   2.249
 2436W        W74861  19.714   7.412   1.323
 2437W        W74862  23.725  28.033  14.948
 2438W        W74863   6.429   9.371   3.724
 2439W        W74864   5.799  40.311   2.795
 2440W        W74865  38.563  44.102   4.748
 2441W        W74866  38.319   5.376   0.501
 2442W        W74867   4.480  22.481  13.538
 2443W        W74868   9.170  26.732  14.555
 2444W        W74869  24.715  42.088  13.101
 2445W        W74870   4.693   2.899   3.207
 2446W        W74871   2.991  26.057  12.936
 2447W        W74872  42.861  27.100  12.537
 2448W        W74873  34.242   9.647  11.422
 2449W        W74874  41.606  12.361   4.703
 2450W        W74875   0.192  29.495  13.994
 2451W        W74876  40.696  34.408  10.687
 2452W        W74877   8.252  29.268   3.706
 2453W        W74878  10.894  33.398  10.573
 2454W        W74879  28.721  44.074   4.572
 2455W        W74880  39.411   7.116   3.102
 2456W        W74881  41.859   6.051   0.863
 2457W        W74882  19.665  33.090   1.544
 2458W        W74883   0.299  26.802  11.825
 2459W        W74884  25.828   3.911  11.201
 2460W        W74885   6.254   7.149  13.017
 2461W        W74886   8.883  41.324   2.285
 2462W        W74887  29.178  27.236  13.445
 2463W        W74888  18.251  43.913   3.093
 2464W        W74889  20.572  37.199   4.530
 2465W        W74890  21.875  25.045  11.435
 2466W        W74891  20.643  29.885   1.075
 2467W        W74892  34.321  24.220   3.169
 2468W        W74893   8.692  27.124   4.156
 2469W        W74894  11.954   5.016   4.119
 2470W        W74895   8.322  29.070   0.158
 2471W        W74896  41.839  34.171   1.424
 2472W        W74897   5.302  14.567  11.576
 2473W        W74898  44.092  35.985   1.324
 2474W        W74899   5.873  17.078  13.338
 2475W        W74900  35.408  39.227  13.811
 2476W        W74901  13.139  22.681  11.142
 2477W        W74902  18.795  31.820  11.015
 2478W        W74903  37.090   2.393  11.783
 2479W        W74904  30.159   2.950  11.147
 2480W        W74905  29.733  10.438  10.294
 2481W        W74906  17.266   4.444  10.990
 2482W        W74907  28.725   1.236  14.286
 2483W        W74908  32.371  31.291   2.256
 2484W        W74909   2.363  25.757   1.793
 2485W        W74910  38.108  26.857  14.726
 2486W        W74911  33.107   0.114   1.644
 2487W        W74912  28.437  41.651   2.428
 2488W        W74913  35.157  22.130  13.392
 2489W        W74914  20.853   3.018  11.425
 2490W        W74915   6.847  27.162  13.503
 2491W        W74916  29.132  37.324  11.055
 2492W        W74917  24.154  43.348  11.021
 2493W        W74918  15.833  10.313  10.429
 2494W        W74919  31.408   1.125   1.364
 2495W        W74920   6.532   4.927  11.127
 2496W        W74921  32.638   8.378  13.937
 2497W        W74922   8.316  24.444   0.491
 2498W        W74923  21.695  38.531  13.309
 2499W        W74924  21.309  28.821   0.314
 2500W        W74925  10.920  33.379  12.619
 2501W        W74926   4.304  15.501   2.412
 2502W        W74927  11.430   2.824  14.328
 2503W        W74928  35.627  10.170   0.719
 2504W        W74929   2.721   1.520  11.537
 2505W        W74930   2.699  32.827  13.620
 2506W        W74931  12.739  36.062  12.402
 2507W        W74932  40.673   0.775   1.392
 2508W        W74933  16.983  33.028  11.454
 2509W        W74934  34.128  21.991  13.757
 2510W        W74935  31.755  16.693   3.034
 2511W        W74936   3.946  15.060   1.638
 2512W        W74937  44.299  37.871  11.917
 2513W        W74938  20.475   7.558   0.861
 2514W        W74939  26.397  18.065   2.299
 2515W        W74940  19.183  43.350   1.950
 2516W        W74941  31.229  16.318   5.129
 2517W        W74942   5.347  23.645  13.301
 2518W        W74943  19.671   2.778  12.562
 2519W        W74944  33.160  33.433   5.000
 2520W        W74945   4.154  40.550   3.995
 2521W        W74946  20.927  17.299   2.858
 2522W        W74947  30.611   8.397   1.195
 2523W        W74948  31.951   7.292   1.026
 2524W        W74949  20.188  19.985   0.639
 2525W        W74950  14.311  20.404   1.712
 2526W        W74951  24.930  12.284  14.030
 2527W        W74952  15.573  16.757   1.264
 2528W        W74953  30.820  11.719  12.880
 2529W        W74954   3.244  37.814   4.086
 2530W        W74955  25.076  35.964  14.740
 2531W        W74956   0.686  37.060  14.371
 2532W        W74957  17.120  19.017  12.523
 2533W        W74958  32.122  15.804  11.025
 2534W        W74959  26.189  28.590   1.005
 2535W        W74960   0.350  13.604  14.811
 2536W        W74961   2.230   1.632   2.362
 2537W        W74962  35.492   7.621   2.747
 2538W        W74963  28.640  14.747  14.264
 2539W        W74964   8.255  17.065   2.395
 2540W        W74965  28.100   4.897  14.412
 2541W        W74966  17.144   0.688  12.341
 2542W        W74967  22.655  24.393   2.319
 2543W        W74968  37.275  23.179   4.065
 2544W        W74969  32.489  16.492  13.853
 2545W        W74970   4.814  39.230  10.823
 2546W        W74971  23.068  38.788  11.504
 2547W        W74972  41.571  32.215  14.096
 2548W        W74973  27.307  42.844  11.562
 2549W        W74974  31.381  32.430  10.475
 2550W        W74975  44.357  28.569   3.301
 2551W        W74976  22.172  40.343   2.788
 2552W        W74977  27.615   0.387   3.134
 2553W        W74978  21.998  41.841  12.514
 2554W        W74979  28.581  20.662   1.338
 2555W        W74980  20.725  16.011  14.516
 2556W        W74981  26.307  38.959   1.339
 2557W        W74982   3.679  31.688  12.963
 2558W        W74983  27.680  27.457  13.038
 2559W        W74984  35.475  28.967  11.283
 2560W        W74985  40.862   2.298   0.891
 2561W        W74986  20.770  30.537  14.197
 2562W        W74987  25.941   9.675  10.661
 2563W        W74988  41.915  23.419  13.150
 2564W        W74989  22.684  14.338  14.310
 2565W        W74990   0.321  20.822   2.832
 2566W        W74991  26.370  33.557   1.404
 2567W        W74992   8.192  29.495  14.897
 2568W        W74993  24.841  23.378   1.618
 2569W        W74994  38.371  44.112  12.063
 2570W        W74995   7.827   3.247  13.457
 2571W        W74996  10.173   1.454   2.425
 2572W        W74997  33.673   3.469   0.828
 2573W        W74998  22.627  42.974  13.805
 2574W        W74999  25.632  35.989  12.068
 2575W        W75000  42.536  30.348  11.236
 2576W        W75001  31.507   9.273   3.545
 2577W        W75002  12.618  29.456   1.691
 2578W        W75003  24.166   5.724   3.676
 2579W        W75004  31.303  33.770  14.242
 2580W        W75005  19.428   7.297  11.633
 2581W        W75006   4.276  28.308  11.182
 2582W        W75007  43.862   1.780  10.785
 2583W        W75008  10.560  23.693   3.858
 2584W        W75009  24.499   5.375   0.837
 2585W        W75010   8.756   4.330  14.328
 2586W        W75011   5.672  22.691  12.479
 2587W        W75012  24.580  15.927   4.682
 2588W        W75013   0.510  16.505   3.657
 2589W        W75014  26.743  37.382  13.917
 2590W        W75015  34.121  16.774  13.245
 2591W        W75016   4.468  26.627   2.785
 2592W        W75017  43.008  43.751  11.646
 2593W        W75018  36.288  26.119  13.862
 2594W        W75019  14.198   1.266  14.777
 2595W        W75020   1.525  42.756  12.523
 2596W        W75021  13.792  22.548  12.339
 2597W        W75022  18.641  33.397   2.364
 2598W        W75023   0.632  18.164   1.742
 2599W        W75024  12.020  14.306   3.710
 2600W        W75025  29.165  35.903  12.126
 2601W        W75026  20.547  42.057  11.527
 2602W        W75027   2.746  36.482  13.969
 2603W        W75028   4.028  43.325  12.877
 2604W        W75029  17.284  36.467  13.882
 2605W        W75030  41.804  15.666  12.051
 2606W        W75031  34.922  29.280   5.284
 2607W        W75032  16.088  34.406  12.153
 2608W        W75033   9.263  32.408  14.990
 2609W        W75034   3.221  30.484   4.229
 2610W        W75035  13.253  42.627   2.622
 2611W        W75036  39.604  25.951   0.251
 2612W        W75037  19.157  18.915  11.441
 2613W        W75038  36.076  25.542  11.429
 2614W        W75039  42.507  11.523  14.519
 2615W        W75040  32.513  34.021   1.483
 2616W        W75041  32.494  26.263   4.371
 2617W        W75042   5.193  24.116   3.146
 2618W        W75043  39.140   7.345   3.519
 2619W        W75044  35.841  13.778   0.928
 2620W        W75045  24.628  42.760  14.047
 2621W        W75046  40.798  37.556   3.081
 2622W        W75047   1.885  41.861  10.741
 2623W        W75048  10.658  23.716  14.696
 2624W        W75049   9.333  43.867   3.176
 2625W        W75050   0.040  27.084  12.685
 2626W        W75051  13.256  42.471  10.608
 2627W        W75052  29.604  14.660  13.378
 2628W        W75053  26.597  39.487   3.737
 2629W        W75054   5.886  37.223  10.701
 2630W        W75055  19.456  11.832   0.411
 2631W        W75056   7.484  18.551  13.530
 2632W        W75057  43.830  10.215   9.971
 2633W        W75058  41.328  36.761  13.994
 2634W        W75059  15.569  27.251   1.506
 2635W        W75060  41.496  21.285  10.659
 2636W        W75061  33.653  10.279   0.200
 2637W        W75062  17.058  23.752  13.053
 2638W        W75063  28.963  33.019  10.522
 2639W        W75064   4.691  25.687  14.912
 2640W        W75065  33.391   3.340   0.429
 2641W        W75066  38.900   0.946  13.933
 2642W        W75067  12.523  24.507  10.118
 2643W        W75068  20.101  11.565   4.612
 2644W        W75069  10.145   2.828  13.467
 2645W        W75070   8.372  29.850   4.542
 2646W        W75071  42.498  16.332   2.679
 2647W        W75072  39.334  35.478  11.123
 2648W        W75073   8.101  34.397   5.200
 2649W        W75074  14.289  23.129   4.279
 2650W        W75075  40.950  15.921  14.468
 2651W        W75076  37.606  27.055  11.084
 2652W        W75077   0.140  10.379  10.656
 2653W        W75078   9.068   0.848   1.124
 2654W        W75079  30.034  28.923   0.919
 2655W        W75080  22.454  24.109  13.355
 2656W        W75081   2.806  42.711   5.084
 2657W        W75082  28.086  19.941   5.128
 2658W        W75083  44.067  12.781   3.866
 2659W        W75084  24.193  25.956  11.017
 2660W        W75085   2.885  42.723   4.187
 2661W        W75086   4.948  23.117   4.558
 2662W        W75087  31.253  29.824  11.687
 2663W        W75088  39.032  28.427   0.665
 2664W        W75089  15.380  31.284  10.360
 2665W        W75090  14.595  23.267   3.884
 2666W        W75091  15.638  20.682  14.967
 2667W        W75092   2.283  18.491   3.670
 2668W        W75093  14.615  13.358   4.593
 2669W        W75094  15.230   3.407   0.379
 2670W        W75095   5.587  32.857   0.429
 2671W        W75096   0.811   0.142   3.256
 2672W        W75097  17.233  15.342  11.159
 2673W        W75098  20.480  38.602  11.033
 2674W        W75099  17.823  34.426   1.836
 2675W        W75100  22.565  19.097  13.413
 2676W        W75101  26.114  40.338  11.563
 2677W        W75102  44.967  39.463  11.530
 2678W        W75103   7.238  33.111  13.816
 2679W        W75104  39.357  26.722   0.318
 2680W        W75105   9.807  40.530   1.012
 2681W        W75106  39.408  39.480  14.384
 2682W        W75107  14.678  34.024   2.799
 2683W        W75108  27.041  27.113  12.829
 2684W        W75109  17.500  33.490   4.772
 2685W        W75110  40.357  33.060  14.503
 2686W        W75111  14.659  16.042   4.210
 2687W        W75112  22.993   7.825  13.989
 2688W        W75113  43.914   0.805  12.088
 2689W        W75114  31.370  29.495   3.835
 2690W        W75115  27.177  25.010  10.961
 2691W        W75116  11.427  24.530  12.578
 2692W        W75117  35.490  44.832  11.082
 2693W        W75118  28.230  26.677  14.092
 2694W        W75119  27.158   3.753  11.582
 2695W        W75120  15.652  17.562   4.063
 2696W        W75121  37.435  25.224  12.490
 2697W        W75122   4.337  41.275  10.659
 2698W        W75123  14.377   2.278   0.271
 2699W        W75124  10.673  26.366  13.978
 2700W        W75125  36.130  11.188   4.224
 2701W        W75126   6.397  43.650  10.466
 2702W        W75127  41.606  12.302  10.906
 2703W        W75128  13.358  32.374  11.107
 2704W        W75129   9.811   4.925  14.631
 2705W        W75130  39.409  41.989  11.496
 2706W        W75131  17.366  42.507  14.975
 2707W        W75132  19.498  13.434   2.818
 2708W        W75133  42.524  39.665  12.233
 2709W        W75134  35.082  31.367   1.300
 2710W        W75135  25.141   9.134   2.870
 2711W        W75136  17.947   9.747   1.868
 2712W        W75137  16.209   1.865  11.174
 2713W        W75138   7.423  27.856  14.537
 2714W        W75139   7.153  17.260   0.528
 2715W        W75140  11.387   4.212   0.272
 2716W        W75141  17.845  17.208   1.873
 2717W        W75142   4.422  13.612   2.373
 2718W        W75143  14.180  15.529   3.237
 2719W        W75144  40.580  29.469   3.801
 2720W        W75145   0.818  13.077   0.411
 2721W        W75146  41.853   2.460  12.444
 2722W        W75147  42.728  29.647   0.684
 2723W        W75148  12.078  12.601   0.265
 2724W        W75149  29.377  25.276  13.440
 2725W        W75150   7.101  12.267   2.528
 2726W        W75151   3.146  10.561  11.559
 2727W        W75152  39.368  11.792   3.709
 2728W        W75153   1.798  20.744  11.459
 2729W        W75154  38.060  25.916  13.921
 2730W        W75155  14.250  28.672   0.588
 2731W        W75156  13.674  24.673   3.609
 2732W        W75157  44.462   7.611   1.738
 2733W        W75158   2.755  37.060   1.020
 2734W        W75159  16.082  17.700  11.985
 2735W        W75160  29.702  16.123  12.457
 2736W        W75161  25.242  43.418  11.886
 2737W        W75162  35.964   6.640   1.488
 2738W        W75163  39.442  22.248  10.979
 2739W        W75164  16.390  28.053  12.902
 2740W        W75165  32.879  18.578   2.232
 2741W        W75166  20.054  43.176  13.153
 2742W        W75167  22.559  18.764   4.995
 2743W        W75168  42.225  32.892   1.446
 2744W        W75169   7.425  20.395   0.863
 2745W        W75170  42.454  26.814  12.933
 2746W        W75171  31.196  10.698  13.344
 2747W        W75172   4.688   8.634   4.704
 2748W        W75173  27.876  39.793   0.075
 2749W        W75174   8.945   6.769  10.661
 2750W        W75175  32.132  18.469   4.119
 2751W        W75176  12.159  24.469  13.081
 2752W        W75177  31.311  18.811  11.075
 2753W        W75178   3.189   6.410  13.784
 2754W        W75179  19.614  15.243  13.839
 2755W        W75180   6.840  31.795  11.180
 2756W        W75181  17.968  10.935   4.032
 2757W        W75182  17.325  38.988   0.876
 2758W        W75183  15.856  28.107   0.714
 2759W        W75184  11.685  35.721  10.702
 2760W        W75185  24.661  27.215  11.890
 2761W        W75186   7.728  34.664  14.541
 2762W        W75187  31.989  31.262  10.865
 2763W        W75188  26.032  43.788   2.898
 2764W        W75189  19.705   8.464   3.179
 2765W        W75190  12.728  40.396   2.263
 2766W        W75191  34.855  14.591   0.733
 2767W        W75192  43.507  36.485   0.999
 2768W        W75193  35.560   6.299  11.832
 2769W        W75194  24.519  39.408   4.211
 2770W        W75195   4.725   9.159  10.602
 2771W        W75196  24.926   6.729   2.931
 2772W        W75197  24.174  28.364  13.007
 2773W        W75198  12.126  37.430  14.469
 2774W        W75199  26.258  35.344  11.827
 2775W        W75200  30.623  11.627   0.890
 2776W        W75201   8.809  43.700   3.827
 2777W        W75202  11.742   0.034  14.023
 2778W        W75203  16.664  35.932   2.625
 2779W        W75204  20.002   9.312  13.060
 2780W        W75205  20.962   3.012  12.582
 2781W        W75206  42.011  42.311   4.228
 2782W        W75207  38.297  25.970   3.333
 2783W        W75208  30.889   1.366  14.985
 2784W        W75209  25.022   3.255  12.695
 2785W        W75210  10.287   4.976   0.393
 2786W        W75211  28.156  38.993   3.711
 2787W        W75212   5.775  36.924  13.046
 2788W        W75213  16.641  32.698   3.337
 2789W        W75214  27.676   3.299  14.712
 2790W        W75215  27.477  19.430   0.206
 2791W        W75216   0.796  31.619   4.178
 2792W        W75217   5.432  41.970  13.533
 2793W        W75218  36.977  39.274  12.117
 2794W        W75219  14.786  15.105  13.460
 2795W        W75220  10.754   8.841   3.292
 2796W        W75221  17.489   2.350   2.801
 2797W        W75222  22.179  23.476   0.263
 2798W        W75223  11.835  40.951   0.250
 2799W        W75224  44.230  15.402   1.765
 2800W        W75225   3.329  34.391   0.857
 2801W        W75226  39.307  20.657   4.156
 2802W        W75227  32.009  11.654  14.109
 2803W        W75228  24.756   1.512  11.692
 2804W        W75229  30.941  43.502   0.433
 2805W        W75230  16.054  17.348   1.732
 2806W        W75231  26.679  10.358  11.008
 2807W        W75232  11.710   4.307  12.491
 2808W        W75233  40.461   7.373  10.279
 2809W        W75234  10.792  18.205   2.883
 2810W        W75235  32.054  42.570   4.600
 2811W        W75236   1.797   9.468  13.059
 2812W        W75237  36.826  15.542  13.432
 2813W        W75238   0.732   0.813  14.138
 2814W        W75239  36.339  32.101   9.850
 2815W        W75240  10.195  21.273  10.675
 2816W        W75241  19.111  24.566  14.543
 2817W        W75242  21.509  23.044  13.844
 2818W        W75243  33.245  32.037   3.851
 2819W        W75244  30.084  41.482   3.210
 2820W        W75245   2.986   1.340  11.979
 2821W        W75246  33.566  20.322  10.502
 2822W        W75247  38.078   9.151  11.477
 2823W        W75248  33.492  25.283  14.961
 2824W        W75249  15.538  16.032  11.934
 2825W        W75250  41.490  12.630  12.812
 2826W        W75251  38.058  16.541  12.896
 2827W        W75252  25.228   9.596   4.488
 2828W        W75253   6.389  42.557   2.516
 2829W        W75254  43.000  15.174  11.127
 2830W        W75255  18.290  41.586  12.461
 2831W        W75256  12.152   5.851   0.255
 2832W        W75257   8.831  23.679  14.074
 2833W        W75258  14.649  18.152  13.169
 2834W        W75259  36.334  29.340  14.390
 2835W        W75260  16.959   0.521   4.164
 2836W        W75261   5.740  14.698  10.863
 2837W        W75262  39.836  16.665   4.536
 2838W        W75263  12.186  41.263   3.573
 2839W        W75264  16.637  35.457   3.437
 2840W        W75265  16.274   3.692  14.294
 2841W        W75266  17.035  34.984   3.809
 2842W        W75267  38.088   2.987   1.969
 2843W        W75268  43.942  18.481   1.212
 2844W        W75269  31.396  23.514   0.841
 2845W        W75270  29.215  35.089   4.229
 2846W        W75271  19.577  38.974  13.183
 2847W        W75272  21.510  22.528   1.983
 2848W        W75273   0.650   6.409  14.401
 2849W        W75274  27.319  24.120   2.271
 2850W        W75275  38.492  22.468   2.937
 2851W        W75276  30.438  15.161   0.779
 2852W        W75277  41.948  20.552  13.890
 2853W        W75278  26.166  23.398  13.930
 2854W        W75279  23.147   5.067  10.217
 2855W        W75280  23.678  20.106  14.597
 2856W        W75281  41.355  40.776  10.876
 2857W        W75282  28.495  18.503   3.770
 2858W        W75283  44.748  22.468   3.363
 2859W        W75284   6.962  39.790  12.322
 2860W        W75285  20.262  23.721  14.477
 2861W        W75286  14.201  14.575   3.074
 2862W        W75287  41.052  26.530   0.356
 2863W        W75288   1.855  37.105  12.077
 2864W        W75289   2.220  40.943   4.766
 2865W        W75290  44.208   1.816  12.973
 2866W        W75291  40.299  36.311  12.137
 2867W        W75292  17.008   2.466  13.121
 2868W        W75293  24.102  38.200  10.723
 2869W        W75294   1.372  24.476  12.843
 2870W        W75295   5.978   7.183  12.020
 2871W        W75296  42.109   0.638  12.519
 2872W        W75297  12.817  21.150   4.290
 2873W        W75298  21.695  19.012   3.398
 2874W        W75299   2.312   6.896   3.700
 2875W        W75300  36.534   4.829  13.904
 2876W        W75301   0.018  22.485  14.959
 2877W        W75302  27.691  26.083  12.288
 2878W        W75303   9.767  23.688  10.950
 2879W        W75304  36.394  27.695   3.717
 2880W        W75305  18.558  18.731  11.712
 2881W        W75306  17.360  12.081   0.149
 2882W        W75307  40.463  10.584   3.883
 2883W        W75308  34.424  42.248   3.278
 2884W        W75309  14.305  39.924  11.946
 2885W        W75310  26.007  44.013  11.840
 2886W        W75311  14.542   9.121   2.869
 2887W        W75312  21.206   9.980   1.948
 2888W        W75313  29.499  17.658  11.870
 2889W        W75314  14.669  19.572   3.326
 2890W        W75315  20.029   8.365   0.351
 2891W        W75316  44.729   3.888   1.289
 2892W        W75317  12.219   1.287   1.700
 2893W        W75318  31.386  16.028   4.186
 2894W        W75319   5.474  44.071  13.061
 2895W        W75320  41.553  14.702   0.049
 2896W        W75321  11.907  25.120   2.230
 2897W        W75322  40.141  17.043   4.707
 2898W        W75323  27.593  44.815  13.827
 2899W        W75324  13.775   6.504  14.191
 2900W        W75325  36.204   4.788   4.151
 2901W        W75326   4.821  39.444   1.313
 2902W        W75327  26.539  19.869   3.432
 2903W        W75328  36.951  37.237   1.730
 2904W        W75329  43.105  43.629   2.569
 2905W        W75330   7.822  17.140  13.794
 2906W        W75331  33.050  27.205   3.090
 2907W        W75332  44.398   7.124   4.528
 2908W        W75333  30.174   2.831  12.216
 2909W        W75334  18.934  36.441   2.786
 2910W        W75335  35.839  34.399  14.426
 2911W        W75336  41.370  12.004  11.260
 2912W        W75337  41.410  10.298  14.212
 2913W        W75338  42.773  11.425   1.362
 2914W        W75339  15.867   7.802   2.225
 2915W        W75340  19.761  20.651  14.955
 2916W        W75341   4.394  10.425  14.039
 2917W        W75342   6.751  37.597   2.436
 2918W        W75343  41.518  33.003  11.514
 2919W        W75344  12.812  21.053  10.672
 2920W        W75345   1.965  25.711  10.639
 2921W        W75346  40.169  16.748  13.941
 2922W        W75347  27.032  40.470  12.920
 2923W        W75348  16.708  11.825   1.662
 2924W        W75349  20.609  37.380  11.374
 2925W        W75350  30.537  33.017   0.362
 2926W        W75351   4.844  32.863   3.236
 2927W        W75352  19.601  26.886  12.097
 2928W        W75353  37.567  34.569  13.114
 2929W        W75354  35.899  21.080  10.724
 2930W        W75355   6.792  43.969  11.572
 2931W        W75356  37.468   8.121  12.008
 2932W        W75357  17.920   6.840   2.644
 2933W        W75358  40.600  43.258  13.420
 2934W        W75359  34.627  15.561  13.009
 2935W        W75360   3.473  13.915   0.426
 2936W        W75361  21.260  40.555  12.301
 2937W        W75362  32.054   6.755  10.463
 2938W        W75363  24.385  27.743   2.887
 2939W        W75364  32.909  29.566   0.917
 2940W        W75365  36.445  16.601   2.712
 2941W        W75366   6.485  44.468   0.061
 2942W        W75367   6.165   2.200  14.456
 2943W        W75368  19.160  33.348  10.631
 2944W        W75369   4.875   4.580  13.195
 2945W        W75370   8.796  36.176   1.834
 2946W        W75371  37.922   8.124  11.452
 2947W        W75372  43.806  29.112   1.403
 2948W        W75373   1.862  31.977   5.001
 2949W        W75374  11.917   5.471  13.433
 2950W        W75375  32.856  38.455  14.390
 2951W        W75376  15.688   3.297  11.015
 2952W        W75377  41.471  33.415  12.622
 2953W        W75378   8.549   1.022  11.974
 2954W        W75379  20.548  40.049   0.428
 2955W        W75380  24.459  18.664  13.423
 2956W        W75381  10.962   9.301   4.591
 2957W        W75382  23.239  39.650  13.973
 2958W        W75383  18.719  41.913   4.544
 2959W        W75384  25.008  44.708   1.760
 2960W        W75385   4.854  31.170  11.508
 2961W        W75386   1.130  33.474  14.699
 2962W        W75387   2.217  22.904   3.292
 2963W        W75388  40.571  44.211   0.988
 2964W        W75389  20.252  13.707  14.225
 2965W        W75390  17.672  17.837  11.452
 2966W        W75391  20.008  33.042   1.936
 2967W        W75392  27.368  29.837  12.347
 2968W        W75393  23.072  21.942   1.784
 2969W        W75394   6.254  32.625   1.553
 2970W        W75395  11.902  34.073  12.054
 2971W        W75396   7.476  29.629  13.754
 2972W        W75397  23.659   1.467  10.997
 2973W        W75398   5.251   7.244  11.400
 2974W        W75399  11.085  20.819  10.742
 2975W        W75400  29.613  18.694   4.011
 2976W        W75401  40.894  23.682   3.122
 2977W        W75402  26.370  28.317  13.379
 2978W        W75403  21.533  23.509  11.917
 2979W        W75404  41.875  39.592  10.865
 2980W        W75405  15.257  19.055  13.795
 2981W        W75406   1.881   0.770  12.964
 2982W        W75407  32.562  18.781  11.129
 2983W        W75408  20.555  38.001  12.795
 2984W        W75409  28.243  14.787   3.179
 2985W        W75410  24.366  38.353  11.168
 2986W        W75411  37.877   3.270  12.829
 2987W        W75412  21.815  38.155   0.049
 2988W        W75413  15.482   9.645  14.907
 2989W        W75414  19.423  14.146   0.111
 2990W        W75415  24.548  20.170   3.208
 2991W        W75416  30.339  35.157  13.945
 2992W        W75417   9.909  10.469   0.441
 2993W        W75418  28.135  15.750  11.189
 2994W        W75419  37.873   9.815   0.496
 2995W        W75420   5.716  17.177   1.777
 2996W        W75421  26.549  28.520   4.412
 2997W        W75422  38.579  20.122   1.383
 2998W        W75423  24.329   1.508   1.642
 2999W        W75424   2.924  18.170  12.928
 3000W        W75425  24.124   9.086  14.909
 3001W        W75426   6.440   8.665  12.868
 3002W        W75427  38.592  28.399   0.404
 3003W        W75428  31.611  22.486   1.488
 3004W        W75429  20.977   6.369  11.097
 3005W        W75430  22.784  41.585  10.794
 3006W        W75431  28.726   0.885  14.635
 3007W        W75432  14.586  18.269   1.269
 3008W        W75433   6.000  19.562   1.714
 3009W        W75434  25.612  37.800   0.985
 3010W        W75435   9.420   0.985  12.913
 3011W        W75436  43.446  11.825   3.023
 3012W        W75437  25.462  42.544  13.944
 3013W        W75438  11.546  38.824  11.584
 3014W        W75439  40.266  43.350   4.692
 3015W        W75440  15.029   0.986  11.594
 3016W        W75441  23.260  20.617   1.829
 3017W        W75442  26.468  38.614   2.371
 3018W        W75443  16.052   4.204   4.534
 3019W        W75444   7.878  43.989   1.259
 3020W        W75445   6.783  39.093  13.820
 3021W        W75446  21.555   5.996  10.454
 3022W        W75447  39.388  34.841  10.428
 3023W        W75448   6.144   2.890  13.086
 3024W        W75449  15.156  18.226   0.405
 3025W        W75450  37.983  24.188   1.706
 3026W        W75451   6.810  25.001   4.410
 3027W        W75452  23.015  42.861  10.893
 3028W        W75453  20.961  36.536  14.828
 3029W        W75454  28.493  12.895  14.391
 3030W        W75455   8.820   4.889  13.534
 3031W        W75456  18.980  26.198   2.793
 3032W        W75457  43.627  12.605  14.346
 3033W        W75458  33.729  38.265  14.312
 3034W        W75459  21.484   9.201  12.584
 3035W        W75460  17.036   3.859   4.598
 3036W        W75461  32.659  43.853  11.585
 3037W        W75462   1.059   8.220  11.392
 3038W        W75463   5.442  15.120   0.781
 3039W        W75464  30.889   9.221   0.782
 3040W        W75465  36.570  32.084  12.501
 3041W        W75466  20.528  35.305  13.897
 3042W        W75467  24.623  25.363  14.371
 3043W        W75468  38.447  17.830  14.067
 3044W        W75469   4.525   8.141   4.529
 3045W        W75470  14.457  33.747  11.229
 3046W        W75471   2.080  43.432  14.998
 3047W        W75472  27.205  18.252   1.776
 3048W        W75473  33.004  15.531  12.424
 3049W        W75474  37.476  18.138  12.078
 3050W        W75475  13.303  40.891   1.665
 3051W        W75476  22.239  19.055   1.576
 3052W        W75477  14.975  32.519  12.814
 3053W        W75478   6.908  26.662   4.211
 3054W        W75479  37.969   6.646   1.873
 3055W        W75480  38.424  17.748   2.332
 3056W        W75481   8.675  37.951  13.127
 3057W        W75482  19.363   8.502  11.188
 3058W        W75483  21.179  30.983   0.365
 3059W        W75484  11.328  16.562   1.405
 3060W        W75485  19.246   0.513  12.897
 3061W        W75486  21.918  35.927  10.727
 3062W        W75487  34.337  23.451   1.830
 3063W        W75488  44.848  27.534  10.499
 3064W        W75489   1.382  44.277  13.819
 3065W        W75490   8.440   8.744   5.082
 3066W        W75491  23.485  12.205  10.777
 3067W        W75492  22.962  33.952  13.038
 3068W        W75493  29.514  31.304   2.329
 3069W        W75494   3.383   6.713  12.836
 3070W        W75495   7.353  35.847   4.408
 3071W        W75496   2.020  14.955  12.955
 3072W        W75497  24.146   2.466   3.180
 3073W        W75498   9.709  30.771   2.369
 3074W        W75499  25.149  28.343   1.680
 3075W        W75500  44.813  34.098  11.141
 3076W        W75501  22.790  26.104   0.756
 3077W        W75502  13.134  24.481  14.359
 3078W        W75503  22.402   1.455  11.113
 3079W        W75504  12.915  10.874  11.455
 3080W        W75505  28.806  27.597   1.858
 3081W        W75506  43.857  18.310  10.626
 3082W        W75507   4.963  27.963  11.545
 3083W        W75508   2.743  12.393   4.545
 3084W        W75509  41.541  24.718   4.829
 3085W        W75510  12.587  38.324  14.497
 3086W        W75511   4.262  37.460  12.198
 3087W        W75512  28.500  30.467  12.562
 3088W        W75513  38.310   8.374   0.666
 3089W        W75514  36.099  20.218   0.299
 3090W        W75515  10.360  42.825  11.798
 3091W        W75516   7.844  23.905   1.229
 3092W        W75517  28.570   9.719   0.995
 3093W        W75518  36.560  25.721   0.308
 3094W        W75519   1.243  15.240   2.298
 3095W        W75520  18.705  22.247   0.030
 3096W        W75521  41.774  13.262   1.153
 3097W        W75522   1.473  41.908   1.783
 3098W        W75523  35.334   0.322   0.911
 3099W        W75524   9.268  30.121  14.839
 3100W        W75525  22.185  16.695   2.935
 3101W        W75526  23.625  34.135   1.425
 3102W        W75527  13.686  36.627   4.202
 3103W        W75528  29.472  41.074  13.737
 3104W        W75529  30.499  30.522   4.785
 3105W        W75530  39.386  37.384   3.743
 3106W        W75531  21.881  38.415   4.115
 3107W        W75532   1.600  32.226  11.569
 3108W        W75533  24.035  27.701   4.171
 3109W        W75534  31.122  44.708   2.371
 3110W        W75535  15.662  21.729   4.615
 3111W        W75536  30.128  32.897  14.344
 3112W        W75537  25.978  19.072  11.203
 3113W        W75538  30.370  14.545   3.337
 3114W        W75539  15.229  22.628  13.978
 3115W        W75540   6.131  28.542  14.882
 3116W        W75541  28.447  33.920   3.333
 3117W        W75542  34.527   4.785  13.352
 3118W        W75543   0.041   2.403  11.539
 3119W        W75544   5.537   6.285  13.525
 3120W        W75545  23.083   9.132   2.184
 3121W        W75546  28.880  33.055   3.367
 3122W        W75547  14.090   4.213  11.918
 3123W        W75548   3.909   6.938   2.357
 3124W        W75549  34.620  10.425  12.480
 3125W        W75550  12.526  11.845   4.049
 3126W        W75551  29.568   9.407  11.154
 3127W        W75552  41.029  39.045   1.298
 3128W        W75553  41.497  24.510   4.345
 3129W        W75554  22.700  10.835   9.816
 3130W        W75555   4.509  43.500   0.687
 3131W        W75556  21.553  33.033  10.383
 3132W        W75557  21.495  35.587  12.597
 3133W        W75558  34.988   3.236  10.395
 3134W        W75559  41.123  19.486   3.280
 3135W        W75560   2.363  23.760   1.335
 3136W        W75561  10.151  10.155   2.255
 3137W        W75562  38.070  37.101  11.631
 3138W        W75563  11.669  22.818   0.033
 3139W        W75564  34.651  36.818  12.936
 3140W        W75565  19.813  34.971   3.116
 3141W        W75566  33.100  29.572  14.954
 3142W        W75567  27.275  43.008  11.080
 3143W        W75568  14.567  22.115   2.181
 3144W        W75569  21.802  33.043   2.503
 3145W        W75570   1.728  38.478  12.582
 3146W        W75571  34.754  13.063   1.405
 3147W        W75572  32.136  38.700  13.339
 3148W        W75573  42.502   0.034   3.606
 3149W        W75574  18.541   0.007   1.145
 3150W        W75575  44.714  44.515  13.534
 3151W        W75576  30.633  32.370  10.616
 3152W        W75577  42.499  17.836  13.940
 3153W        W75578  18.656  27.468   4.540
 3154W        W75579  18.242  25.084  10.234
 3155W        W75580  15.548  42.079  13.632
 3156W        W75581  13.077  24.073  12.937
 3157W        W75582  22.492   9.021   4.301
 3158W        W75583  17.951   7.203  12.908
 3159W        W75584  24.046  15.397  14.769
 3160W        W75585  25.624  21.503   0.838
 3161W        W75586  11.220   3.213  13.899
 3162W        W75587  14.904  33.603   1.137
 3163W        W75588   2.239  30.225   1.853
 3164W        W75589  36.085  25.542  10.065
 3165W        W75590  40.961   8.141  12.909
 3166W        W75591  28.207  20.253   1.888
 3167W        W75592  23.306  32.662  10.728
 3168W        W75593   0.037  25.537  12.061
 3169W        W75594  21.137  30.631  14.981
 3170W        W75595  33.092  18.243  13.868
 3171W        W75596  10.481  28.181  11.541
 3172W        W75597  18.152  25.185   2.369
 3173W        W75598  29.015  41.354   0.963
 3174W        W75599   3.407  34.207   0.321
 3175W        W75600  10.806  15.497  10.705
 3176W        W75601  16.538  37.385  12.575
 3177W        W75602  43.466  29.643  13.927
 3178W        W75603   1.300  14.331  12.523
 3179W        W75604  26.556  11.805  10.567
 3180W        W75605  25.224  40.287   0.294
 3181W        W75606  11.231  24.530  10.735
 3182W        W75607  29.770   6.277  10.208
 3183W        W75608  34.896  24.006  10.142
 3184W        W75609  16.176   3.672   3.189
 3185W        W75610  36.954  43.540  11.079
 3186W        W75611  11.793  27.184   0.768
 3187W        W75612  40.044   9.771   0.302
 3188W        W75613  34.543  26.090   2.669
 3189W        W75614  32.906  29.031   1.780
 3190W        W75615  42.928  24.278  14.021
 3191W        W75616  15.231  14.853  14.516
 3192W        W75617  22.104   0.452   2.631
 3193W        W75618  39.864  42.844   3.227
 3194W        W75619  19.187  11.082  12.235
 3195W        W75620  44.928  33.132   1.659
 3196W        W75621  37.381  15.084   2.905
 3197W        W75622  15.858  10.209   4.549
 3198W        W75623   4.661   7.450  14.410
 3199W        W75624   6.616  11.677  10.642
 3200W        W75625  26.635   3.082  13.782
 3201W        W75626  17.746  25.541   1.214
 3202W        W75627  28.736  30.389  13.391
 3203W        W75628   4.868  31.695  11.591
 3204W        W75629  41.425   9.297   1.916
 3205W        W75630  19.350  10.622   2.888
 3206W        W75631  38.976  25.501   3.023
 3207W        W75632  29.798  13.626   3.730
 3208W        W75633  16.618   3.109   3.633
 3209W        W75634   9.720  27.493  13.356
 3210W        W75635  20.067  26.988   0.416
 3211W        W75636  33.128  15.450  14.965
 3212W        W75637   2.853  19.364  11.975
 3213W        W75638  19.801  21.583  14.780
 3214W        W75639  40.490  29.693  12.590
 3215W        W75640  37.046  18.309  10.742
 3216W        W75641  24.616  38.802  11.336
 3217W        W75642  11.422   5.420  11.052
 3218W        W75643  35.878   4.446  13.105
 3219W        W75644  16.990  39.516   1.868
 3220W        W75645  10.424  37.186  12.425
 3221W        W75646   6.894  18.535  12.458
 3222W        W75647  37.861  21.277  12.561
 3223W        W75648  41.530  22.675   2.906
 3224W        W75649  31.425  16.807  14.448
 3225W        W75650  44.908   3.416  12.015
 3226W        W75651  32.376  30.947   3.844
 3227W        W75652   6.137  10.755  10.609
 3228W        W75653  23.722   1.158   1.021
 3229W        W75654  28.207  15.345  13.239
 3230W        W75655  23.656  34.942  14.787
 3231W        W75656   7.817  39.110   4.510
 3232W        W75657   9.190  33.634  14.399
 3233W        W75658   7.514  18.430  14.036
 3234W        W75659  30.409  25.089  11.797
 3235W        W75660  14.282   6.358   5.139
 3236W        W75661   3.369  39.981   2.745
 3237W        W75662  16.529  43.493   1.468
 3238W        W75663  37.856  44.532   0.917
 3239W        W75664   7.842   9.269  14.331
 3240W        W75665  37.260  17.681  12.212
 3241W        W75666  24.984   1.164  13.490
 3242W        W75667  20.137  34.930   3.863
 3243W        W75668  30.793   1.494   0.517
 3244W        W75669  37.633  20.169  12.034
 3245W        W75670  18.831   8.926  12.911
 3246W        W75671  24.631  20.476   0.953
 3247W        W75672  40.568  44.528  12.516
 3248W        W75673  25.204   6.579   2.168
 3249W        W75674  40.619   7.554   0.331
 3250W        W75675  32.635  30.066   3.895
 3251W        W75676  19.239  40.472  10.626
 3252W        W75677  38.753  38.699  11.127
 3253W        W75678  26.632  21.254   2.731
 3254W        W75679  12.291  36.522  14.486
 3255W        W75680  33.714  37.825   4.844
 3256W        W75681   9.338   9.439   9.642
 3257W        W75682  19.690   2.267   0.310
 3258W        W75683  11.715  38.487   1.333
 3259W        W75684  27.101  33.293  12.000
 3260W        W75685  36.063  29.592   4.294
 3261W        W75686   8.931  21.508   4.664
 3262W        W75687  18.756  15.926   4.179
 3263W        W75688  20.911  13.714   5.131
 3264W        W75689  43.899  10.555   2.587
 3265W        W75690   4.600  12.758   2.401
 3266W        W75691  18.808  34.081   3.721
 3267W        W75692  44.904  29.244  14.993
 3268W        W75693  31.951  37.472  13.037
 3269W        W75694  16.306   3.950   2.767
 3270W        W75695  39.136  10.690   0.382
 3271W        W75696  27.431  16.152  14.374
 3272W        W75697  14.159  17.679   0.533
 3273W        W75698  22.657  26.163  13.852
 3274W        W75699  28.311   0.196  12.433
 3275W        W75700  20.190  31.939  12.865
 3276W        W75701  38.487  14.613  12.543
 3277W        W75702  26.693  32.959   0.703
 3278W        W75703  44.285  24.176   4.071
 3279W        W75704  39.579  21.513  13.437
 3280W        W75705   8.751  34.661   3.169
 3281W        W75706  21.551  25.086   3.681
 3282W        W75707  27.733  39.436  14.577
 3283W        W75708  35.874  42.700  12.975
 3284W        W75709  39.590  12.316   0.551
 3285W        W75710  13.551  14.500   4.256
 3286W        W75711  31.079  25.021   1.861
 3287W        W75712  23.129   3.183  10.430
 3288W        W75713  29.535  41.452   0.832
 3289W        W75714  32.513  40.281   0.618
 3290W        W75715  19.982  19.085   1.242
 3291W        W75716  29.073  43.499  14.258
 3292W        W75717  15.679  14.125   4.620
 3293W        W75718  38.989  21.458  14.874
 3294W        W75719  32.428  20.235   0.346
 3295W        W75720  21.085   8.419   1.750
 3296W        W75721   9.904  39.953   4.046
 3297W        W75722  41.267   3.482  13.361
 3298W        W75723  19.799  22.285  14.464
 3299W        W75724   3.145  19.976  12.155
 3300W        W75725  21.909   8.225  12.045
 3301W        W75726  16.057  23.640   3.554
 3302W        W75727  27.117  43.904  11.375
 3303W        W75728  21.979  16.756  12.848
 3304W        W75729  19.941  25.614  11.952
 3305W        W75730  18.071   3.377  11.552
 3306W        W75731  18.721  37.052  11.988
 3307W        W75732   0.891  34.114   4.862
 3308W        W75733  35.896  10.786  14.902
 3309W        W75734  22.797  21.688  11.215
 3310W        W75735  14.614  26.636  14.370
 3311W        W75736  42.375  27.084  12.457
 3312W        W75737  35.348  13.153   2.291
 3313W        W75738  24.762  19.627  14.381
 3314W        W75739  38.205  29.125  14.700
 3315W        W75740  32.662  13.083  13.436
 3316W        W75741  20.073  43.491   4.286
 3317W        W75742  41.290  43.801  13.544
 3318W        W75743  33.893  22.270   4.878
 3319W        W75744  18.130  31.544   1.204
 3320W        W75745  39.445   7.763   3.630
 3321W        W75746  40.614  17.631  14.103
 3322W        W75747  12.555  33.090  11.224
 3323W        W75748   9.615   1.358  14.940
 3324W        W75749  33.523  21.997   0.964
 3325W        W75750  16.632  11.639  11.032
 3326W        W75751  42.956  29.093  11.206
 3327W        W75752  28.219  36.138  11.283
 3328W        W75753  29.304  33.096   5.445
 3329W        W75754  39.302  36.406   3.851
 3330W        W75755  10.457  16.578  11.642
 3331W        W75756  21.261  19.730  12.601
 3332W        W75757  39.712  27.201  11.106
 3333W        W75758  11.615  14.735   4.662
 3334W        W75759  30.897  30.067  14.968
 3335W        W75760  18.772  21.852  12.025
 3336W        W75761   5.324  43.506  12.146
 3337W        W75762   3.007   1.238   3.785
 3338W        W75763  33.846  20.877  12.131
 3339W        W75764  33.290  30.098  14.935
 3340W        W75765   2.290  34.332   1.514
 3341W        W75766  27.573  41.414  12.624
 3342W        W75767  18.995  42.782  12.073
 3343W        W75768   2.708  36.837   3.646
 3344W        W75769   1.477  15.744  13.477
 3345W        W75770  40.838  35.856   0.642
 3346W        W75771   6.758  14.307   4.995
 3347W        W75772  17.879  12.734  11.657
 3348W        W75773   1.484  12.202  12.016
 3349W        W75774  10.195  42.356   1.788
 3350W        W75775  18.681  27.153  12.431
 3351W        W75776  35.529  18.993  12.032
 3352W        W75777  36.930  16.195  11.913
 3353W        W75778   1.220  44.116  12.021
 3354W        W75779   0.970  25.588   4.616
 3355W        W75780  21.972  20.724   2.194
 3356W        W75781  29.607  12.621   0.949
 3357W        W75782  11.759  40.388   2.188
 3358W        W75783   9.892  38.452  13.357
 3359W        W75784  18.843  39.804   2.092
 3360W        W75785  15.802  21.242   3.809
 3361W        W75786  34.348   2.563   3.851
 3362W        W75787  40.934  16.215  11.146
 3363W        W75788  30.499  25.162   0.315
 3364W        W75789  25.432  31.154  12.474
 3365W        W75790   4.779  19.515   1.464
 3366W        W75791  16.254   4.167  12.497
 3367W        W75792  32.202  33.414   3.379
 3368W        W75793   4.282  15.501  11.866
 3369W        W75794  32.940  12.815   3.789
 3370W        W75795   1.486  43.724  13.259
 3371W        W75796   6.146  37.304  14.473
 3372W        W75797  40.871  39.558  14.069
 3373W        W75798  23.621  43.732  12.640
 3374W        W75799  36.252  38.397   3.384
 3375W        W75800  17.172   3.501   0.484
 3376W        W75801  40.993  39.845   0.917
 3377W        W75802   6.517  14.938   2.244
 3378W        W75803  16.970   9.731   3.598
 3379W        W75804   9.645  23.159   4.109
 3380W        W75805  29.983   9.785   3.128
 3381W        W75806  38.350   0.387   4.944
 3382W        W75807  31.034   3.385  14.572
 3383W        W75808   4.843  37.839   1.474
 3384W        W75809   1.801  26.887  13.651
 3385W        W75810  29.623  11.082   3.726
 3386W        W75811  31.164   3.941  12.183
 3387W        W75812  44.222  11.191  12.096
 3388W        W75813  33.547  34.485  10.414
 3389W        W75814  21.139   5.426   2.463
 3390W        W75815  16.735  16.793   0.061
 3391W        W75816  31.695  22.763  11.211
 3392W        W75817  14.454  33.875   0.966
 3393W        W75818  37.497  12.894  11.227
 3394W        W75819  31.021  41.568   1.753
 3395W        W75820   1.857  11.917  14.908
 3396W        W75821  25.804  30.251  10.765
 3397W        W75822  44.554  19.867   0.264
 3398W        W75823  18.501  29.951   9.613
 3399W        W75824   3.374  26.722   3.414
 3400W        W75825  11.730  41.671  14.465
 3401W        W75826  21.277  41.492  14.429
 3402W        W75827  22.434  42.726   1.976
 3403W        W75828  33.094   7.622  14.919
 3404W        W75829  24.164  40.667  10.403
 3405W        W75830  21.721   0.538   1.806
 3406W        W75831  13.656  23.250   3.314
 3407W        W75832  36.447  31.206  14.854
 3408W        W75833  23.581  21.708   2.395
 3409W        W75834  36.195  20.650  10.651
 3410W        W75835  31.460  15.644  14.418
 3411W        W75836  12.128   3.459  14.633
 3412W        W75837  31.662  44.802  13.293
 3413W        W75838  17.111  11.226  12.569
 3414W        W75839  27.865  14.196   9.905
 3415W        W75840  39.367  36.556  11.990
 3416W        W75841  39.615  26.502   3.560
 3417W        W75842  39.962  30.350   1.064
 3418W        W75843   7.876  37.441  14.803
 3419W        W75844  13.155   5.684  13.783
 3420W        W75845  41.063  44.444   2.426
 3421W        W75846   8.577  10.863  11.600
 3422W        W75847  27.965  27.641  13.561
 3423W        W75848   1.337  19.674   4.620
 3424W        W75849   6.235   7.307   4.679
 3425W        W75850  21.770   6.377  10.705
 3426W        W75851  40.769  11.072   4.551
 3427W        W75852   3.803   0.986  10.451
 3428W        W75853   2.706  40.473   0.445
 3429W        W75854  22.101   7.675   0.899
 3430W        W75855  41.823  19.234  14.007
 3431W        W75856  33.907  33.499   2.277
 3432W        W75857  34.793  25.565   4.192
 3433W        W75858   5.217  31.133  10.556
 3434W        W75859  31.866  10.900  12.907
 3435W        W75860  36.876  27.970  13.861
 3436W        W75861  13.265   1.104  10.766
 3437W        W75862  30.238  42.732   3.779
 3438W        W75863  24.120  43.137   2.659
 3439W        W75864  36.830  37.944  13.937
 3440W        W75865  31.056  36.998  13.056
 3441W        W75866  30.645  42.077   4.470
 3442W        W75867   7.332  28.433   1.777
 3443W        W75868   4.041  36.599  11.372
 3444W        W75869  20.523   2.279   2.622
 3445W        W75870  13.155  10.926  12.412
 3446W        W75871  42.609   3.933  11.577
 3447W        W75872  20.166  28.757  14.560
 3448W        W75873  15.807  19.088  13.278
 3449W        W75874  42.151  18.622   0.359
 3450W        W75875  44.441   9.770   1.071
 3451W        W75876  40.609   1.223   1.652
 3452W        W75877  30.492  34.245   3.430
 3453W        W75878  36.473  27.908  10.347
 3454W        W75879   1.707   7.780   2.370
 3455W        W75880   7.303  18.337   0.861
 3456W        W75881  14.776  34.371   4.372
 3457W        W75882   1.862  10.107   4.701
 3458W        W75883  24.958  20.421   1.452
 3459W        W75884  28.266   1.878   2.359
 3460W        W75885   2.704   8.708   3.640
 3461W        W75886  26.201  33.591   2.270
 3462W        W75887   6.696   2.333  12.034
 3463W        W75888   2.466  38.745  14.789
 3464W        W75889  24.887   3.414  11.748
 3465W        W75890  43.713  17.193  13.637
 3466W        W75891  25.268  29.554   3.371
 3467W        W75892  33.265  40.337   2.989
 3468W        W75893  32.959   4.254   0.711
 3469W        W75894  18.077  23.813  11.958
 3470W        W75895  28.425  16.793   3.975
 3471W        W75896  11.695   7.595   4.495
 3472W        W75897  31.626  39.286   0.840
 3473W        W75898   5.707  18.932   2.353
 3474W        W75899  12.939  25.136   3.374
 3475W        W75900   6.160  27.730   2.152
 3476W        W75901  44.235  15.934   4.554
 3477W        W75902   6.731   3.242  14.701
 3478W        W75903   3.234   2.940   0.017
 3479W        W75904  41.781  30.492   2.652
 3480W        W75905  19.111  26.809   1.338
 3481W        W75906  14.337  17.800  14.564
 3482W        W75907   4.452  17.330   3.886
 3483W        W75908   4.076  32.661   0.086
 3484W        W75909  26.184  18.156  14.908
 3485W        W75910  43.551  16.221  10.985
 3486W        W75911   4.736  22.969   4.074
 3487W        W75912  31.760  37.003  11.150
 3488W        W75913  19.670  19.071   0.798
 3489W        W75914  37.302  24.982  11.448
 3490W        W75915  41.815   8.115  10.655
 3491W        W75916  22.611  37.843   1.682
 3492W        W75917  22.605  13.074  11.104
 3493W        W75918  26.379  31.563  13.943
 3494W        W75919   2.340  33.821   1.699
 3495W        W75920  41.227  39.335   3.097
 3496W        W75921  42.797  38.533  10.774
 3497W        W75922  19.721  30.179  10.671
 3498W        W75923   5.645   6.522   2.874
 3499W        W75924  19.635  35.492  10.337
 3500W        W75925  32.492  13.795   1.948
 3501W        W75926  22.022  34.281   2.127
 3502W        W75927  19.359  31.681  10.187
 3503W        W75928  28.302   3.171  10.319
 3504W        W75929  34.580  24.571  14.750
 3505W        W75930  18.507  40.775  12.097
 3506W        W75931  43.795  18.787  14.302
 3507W        W75932  32.977   5.868  13.324
 3508W        W75933  19.115   3.368   0.304
 3509W        W75934  27.418  44.232  13.431
 3510W        W75935  21.370  38.123  12.023
 3511W        W75936  19.589   4.845   1.926
 3512W        W75937   6.893  31.663   0.255
 3513W        W75938  30.037   3.523  14.361
 3514W        W75939   2.432  43.112  12.510
 3515W        W75940  19.981   7.295   3.251
 3516W        W75941  32.915  34.129   4.617
 3517W        W75942  20.923  23.706  12.813
 3518W        W75943  26.153  19.309  12.220
 3519W        W75944  13.602  19.464  12.646
 3520W        W75945  20.002  24.603   0.481
 3521W        W75946  12.847  12.047  13.167
 3522W        W75947  32.620  26.735   3.690
 3523W        W75948   0.329  28.203   0.442
 3524W        W75949   4.852  15.763   1.468
 3525W        W75950   8.462   0.456   2.810
 3526W        W75951   2.807   7.812   4.626
 3527W        W75952  43.377  27.235   4.550
 3528W        W75953  40.664  33.608  13.787
 3529W        W75954  27.917   6.643   0.698
 3530W        W75955  44.392   4.300  13.737
 3531W        W75956  44.834  21.544  14.080
 3532W        W75957  19.679  42.710  11.612
 3533W        W75958  20.528  32.634   2.264
 3534W        W75959  30.950  30.543   0.806
 3535W        W75960  16.678  26.679   1.901
 3536W        W75961  40.301  44.001  13.791
 3537W        W75962  20.423  13.870   0.210
 3538W        W75963  42.006  22.947   4.993
 3539W        W75964  18.705  37.082   0.286
 3540W        W75965   1.791  39.753   1.531
 3541W        W75966   8.166  14.805   0.516
 3542W        W75967  20.469  10.828   3.283
 3543W        W75968  21.446  12.220  13.586
 3544W        W75969  44.069  20.598   2.258
 3545W        W75970  37.969  23.048  14.478
 3546W        W75971   8.269  33.402  12.231
 3547W        W75972  37.192  31.387   2.409
 3548W        W75973  14.250   0.911  10.774
 3549W        W75974   7.893  12.096   4.370
 3550W        W75975  12.187  44.807  10.657
 3551W        W75976  13.299   2.859   3.081
 3552W        W75977   4.467   4.809   3.412
 3553W        W75978   2.764  30.590   1.189
 3554W        W75979  20.522   9.145   3.156
 3555W        W75980  40.377  11.356   3.127
 3556W        W75981  19.267  37.625   2.411
 3557W        W75982  23.969  36.318  13.100
 3558W        W75983   2.933  10.841  13.095
 3559W        W75984  38.836  44.192   2.671
 3560W        W75985  14.067  21.669   3.205
 3561W        W75986   5.702   4.880  11.454
 3562W        W75987  37.096  17.852   2.611
 3563W        W75988   3.476   8.946  14.299
 3564W        W75989  28.541   3.187  11.569
 3565W        W75990   0.780  19.268  11.110
 3566W        W75991   5.381  36.105   4.263
 3567W        W75992  39.550   5.908  14.456
 3568W        W75993   4.907  22.270  14.986
 3569W        W75994   5.643  29.454  10.779
 3570W        W75995  18.510  16.194  10.359
 3571W        W75996  23.711  37.425  12.354
 3572W        W75997  18.158   8.048  13.011
 3573W        W75998  27.956   9.878  11.540
 3574W        W75999   6.849  25.784   2.664
 3575W        W76000  25.648  29.896  14.892
 3576W        W76001  29.126  37.999   2.040
 3577W        W76002  15.381   5.877  10.934
 3578W        W76003  21.604  19.170   2.916
 3579W        W76004  32.512  44.328  12.109
 3580W        W76005   6.825  12.704   0.421
 3581W        W76006  39.385  15.215   1.377
 3582W        W76007  22.217   9.974   5.054
 3583W        W76008  10.349  21.185  13.077
 3584W        W76009  26.717  22.823  14.540
 3585W        W76010  15.328  16.720  13.078
 3586W        W76011  37.446  22.232  13.785
 3587W        W76012  38.829  14.572   0.022
 3588W        W76013  43.928   3.677   3.203
 3589W        W76014   3.449  12.413   0.094
 3590W        W76015  15.815   5.311   0.331
 3591W        W76016  29.653   6.268  12.086
 3592W        W76017  38.850   0.746   4.229
 3593W        W76018  31.886   8.540  13.389
 3594W        W76019   2.214  18.521   4.636
 3595W        W76020  27.315  36.071   3.629
 3596W        W76021  27.879   4.862  11.250
 3597W        W76022  12.928   8.405   3.672
 3598W        W76023  29.582  30.513  14.467
 3599W        W76024   4.501  24.403  12.305
 3600W        W76025  31.624   0.875  11.282
 3601W        W76026   2.501  20.857   4.214
 3602W        W76027  34.682  34.688   1.277
 3603W        W76028  15.556  10.343   5.047
 3604W        W76029  36.062  23.610  12.110
 3605W        W76030  29.172  23.921   0.820
 3606W        W76031  11.142  29.658   0.799
 3607W        W76032  36.209  10.357  13.990
 3608W        W76033   6.569   1.975  12.999
 3609W        W76034  11.857  19.164  12.576
 3610W        W76035  34.905  25.107  13.975
 3611W        W76036  27.311  42.698   5.448
 3612W        W76037  19.715  44.872   0.288
 3613W        W76038  34.070  40.998  11.849
 3614W        W76039  18.972   1.239   2.274
 3615W        W76040  20.054   4.994   2.182
 3616W        W76041  12.897   6.676  13.956
 3617W        W76042  11.090  31.691   2.285
 3618W        W76043  42.573  33.854   2.618
 3619W        W76044  34.466  13.574  10.955
 3620W        W76045  34.116  20.116   2.631
 3621W        W76046  33.588   7.190   0.034
 3622W        W76047  22.638  26.958   2.197
 3623W        W76048  10.825   6.910  13.939
 3624W        W76049  16.014  40.230   3.734
 3625W        W76050  21.583  12.276   3.651
 3626W        W76051   6.332  39.177   1.719
 3627W        W76052  13.897  35.015  11.182
 3628W        W76053  42.335   9.415   1.250
 3629W        W76054  20.493   9.664   2.239
 3630W        W76055  40.966   8.804   4.205
 3631W        W76056  35.837  16.647   0.272
 3632W        W76057   8.806  44.424   4.714
 3633W        W76058  35.096   8.269  13.048
 3634W        W76059  15.388  13.827   0.713
 3635W        W76060  29.945  40.470   1.959
 3636W        W76061  18.825   9.274   2.431
 3637W        W76062  36.593   2.312  11.794
 3638W        W76063   2.206  32.353  12.920
 3639W        W76064  14.583  31.448  12.016
 3640W        W76065  44.463  32.873  12.949
 3641W        W76066  27.087   7.405  14.343
 3642W        W76067  44.525  42.308  14.300
 3643W        W76068   3.499  14.817   1.526
 3644W        W76069  44.088  42.069   1.623
 3645W        W76070  35.161  17.147  13.419
 3646W        W76071  26.398  32.490   2.421
 3647W        W76072  15.499  20.269   0.253
 3648W        W76073   1.877  27.486  11.439
 3649W        W76074   3.185   4.828  14.983
 3650W        W76075  22.898  44.210  14.339
 3651W        W76076  24.632  41.515  11.863
 3652W        W76077   6.376   3.011  14.413
 3653W        W76078  28.294  17.359  11.016
 3654W        W76079  11.889  10.324   1.421
 3655W        W76080   0.334  11.995   0.837
 3656W        W76081  19.700  21.310   2.363
 3657W        W76082  23.109  43.952   2.957
 3658W        W76083   2.542   2.147  12.131
 3659W        W76084  16.302   5.916   3.473
 3660W        W76085  39.475   8.902   3.660
 3661W        W76086  42.442   2.303  14.314
 3662W        W76087  30.126   8.130   2.328
 3663W        W76088  19.064   6.856   3.737
 3664W        W76089  14.766  16.891   2.926
 3665W        W76090   9.418  39.330   1.708
 3666W        W76091  44.108  39.427   1.673
 3667W        W76092  27.209  32.006  14.980
 3668W        W76093  30.672   5.964   3.641
 3669W        W76094  28.617  13.832   2.637
 3670W        W76095  27.163  44.348  11.656
 3671W        W76096  14.562  43.404   2.787
 3672W        W76097   1.441  17.143   0.247
 3673W        W76098   0.772   0.394   0.313
 3674W        W76099  16.768  28.487   0.627
 3675W        W76100  21.570  20.832  10.489
 3676W        W76101  38.893  24.927   5.001
 3677W        W76102   6.997   8.735  12.044
 3678W        W76103   1.888   8.430  14.519
 3679W        W76104   8.945  38.483   1.808
 3680W        W76105  40.372  37.978  12.208
 3681W        W76106   2.428  20.362   4.111
 3682W        W76107   3.838   1.208  11.118
 3683W        W76108  29.640  10.085  13.697
 3684W        W76109   2.712  23.140   1.194
 3685W        W76110  34.841  21.774   1.263
 3686W        W76111  39.288  40.456  14.012
 3687W        W76112  14.344   6.678  12.493
 3688W        W76113   6.659  34.842  12.440
 3689W        W76114   9.679   8.840   2.117
 3690W        W76115   2.543  20.476   2.769
 3691W        W76116  23.795  38.348   2.218
 3692W        W76117  32.852   1.961  13.491
 3693W        W76118  33.461  43.197  13.392
 3694W        W76119  25.921  22.515  10.343
 3695W        W76120  15.638  36.403   0.944
 3696W        W76121  32.186  17.318   2.428
 3697W        W76122  37.907  31.572  14.297
 3698W        W76123   1.861   5.973   1.783
 3699W        W76124  26.622  33.627  14.919
 3700W        W76125  19.555  27.951  13.447
 3701W        W76126  24.654  35.149  12.950
 3702W        W76127  32.605   3.215  12.969
 3703W        W76128   0.297   2.790   1.546
 3704W        W76129   4.528  12.795  11.372
 3705W        W76130  35.860  38.039  13.517
 3706W        W76131  23.658  15.825   4.898
 3707W        W76132  36.367  43.310  13.787
 3708W        W76133   7.945  38.221   5.440
 3709W        W76134  30.407  27.624   0.874
 3710W        W76135  35.789  41.704   1.801
 3711W        W76136  14.134   1.103  12.225
 3712W        W76137  22.735  38.757  14.727
 3713W        W76138  16.141  20.612  13.582
 3714W        W76139   4.837  37.941   2.978
 3715W        W76140   3.277  41.804  14.794
 3716W        W76141  12.853   8.289   1.904
 3717W        W76142  30.001   7.924  11.286
 3718W        W76143  40.416  38.468  10.404
 3719W        W76144  10.197  20.013  11.457
 3720W        W76145  34.658  37.589   3.779
 3721W        W76146  28.402  25.927  11.064
 3722W        W76147   3.595  20.191  12.514
 3723W        W76148  43.358  13.186  11.127
 3724W        W76149   6.717  38.354   1.794
 3725W        W76150   1.476  18.046   0.587
 3726W        W76151  32.095  24.678   5.054
 3727W        W76152  14.312  15.190   4.671
 3728W        W76153   5.381  26.524  14.544
 3729W        W76154  36.982  32.140  13.302
 3730W        W76155  25.061  14.181   4.593
 3731W        W76156  29.539   5.705   3.725
 3732W        W76157   6.935  12.133   4.352
 3733W        W76158   2.451  23.897   3.247
 3734W        W76159  15.655   4.994   0.969
 3735W        W76160   8.109  27.602   4.762
 3736W        W76161  16.032  18.767   2.277
 3737W        W76162  33.324  28.532  11.550
 3738W        W76163  11.706  17.124   3.093
 3739W        W76164  42.409  43.933   1.326
 3740W        W76165  37.023  35.837   1.988
 3741W        W76166   8.418  40.850  14.333
 3742W        W76167  38.817  24.204  13.366
 3743W        W76168  18.062  13.624  12.043
 3744W        W76169  33.952  10.613   0.463
 3745W        W76170  44.445  34.840  14.694
 3746W        W76171  17.054   4.252   3.355
 3747W        W76172  38.505   0.630   2.899
 3748W        W76173  17.715  16.659  13.212
 3749W        W76174   2.687  17.961  12.525
 3750W        W76175  10.393  39.071   3.653
 3751W        W76176   2.198  17.802  12.512
 3752W        W76177   8.495  33.395  14.898
 3753W        W76178  37.501  16.578  14.933
 3754W        W76179  32.287  29.401  14.360
 3755W        W76180  13.817  16.250   2.458
 3756W        W76181  32.044  39.346  14.421
 3757W        W76182  25.449   7.197   0.711
 3758W        W76183   6.169  14.895  12.863
 3759W        W76184   7.955  28.116   4.097
 3760W        W76185  16.371  26.439  10.865
 3761W        W76186   4.891  10.142  10.233
 3762W        W76187   1.176  18.311   3.239
 3763W        W76188  25.054  42.830  13.011
 3764W        W76189  20.128  36.492   3.725
 3765W        W76190  17.853  20.246  12.088
 3766W        W76191  15.189  41.965  13.976
 3767W        W76192  18.073  37.885  11.865
 3768W        W76193  31.693  19.230   9.746
 3769W        W76194  34.485  28.832  13.035
 3770W        W76195  14.777  39.432   2.428
 3771W        W76196  29.046  32.082  11.522
 3772W        W76197  19.425  17.822   2.895
 3773W        W76198  14.744  10.850  12.804
 3774W        W76199   0.790  28.134   1.234
 3775W        W76200  43.477  12.454  13.390
 3776W        W76201  29.382  38.966  12.004
 3777W        W76202  39.733   4.789  13.399
 3778W        W76203  43.649  31.799  13.360
 3779W        W76204  35.884  42.111  12.544
 3780W        W76205   5.227   8.775   1.314
 3781W        W76206  37.995   4.210  12.393
 3782W        W76207  32.902  36.362   1.718
 3783W        W76208   1.958  24.514  11.909
 3784W        W76209  38.538   4.386  11.121
 3785W        W76210   2.953  17.151   1.752
 3786W        W76211  22.285  19.998   0.224
 3787W        W76212  13.087   5.406  12.807
 3788W        W76213  14.422  14.127   3.260
 3789W        W76214  11.065  12.186  11.559
 3790W        W76215  40.890   4.269  11.980
 3791W        W76216  22.896   6.992  13.162
 3792W        W76217   6.310  26.534   0.018
 3793W        W76218  37.873   2.643   3.787
 3794W        W76219  22.023  27.600   2.347
 3795W        W76220   3.837  13.885  10.713
 3796W        W76221  27.479  37.607  10.683
 3797W        W76222  23.566  36.023   4.512
 3798W        W76223  12.262  31.854   4.123
 3799W        W76224   4.391  37.085  13.170
 3800W        W76225  28.370   5.289   4.482
 3801W        W76226  32.096  32.660   0.023
 3802W        W76227  38.171  43.882  11.591
 3803W        W76228  41.805   4.945  10.302
 3804W        W76229  33.865  35.013  14.699
 3805W        W76230  40.338  41.991  14.405
 3806W        W76231   1.668  38.831   0.315
 3807W        W76232  41.342  36.036  12.503
 3808W        W76233  41.420  17.148   5.014
 3809W        W76234  41.275  25.579  13.358
 3810W        W76235  24.188  26.243  14.447
 3811W        W76236  20.757  20.677  11.078
 3812W        W76237  40.042  32.147  11.213
 3813W        W76238  44.392   8.761  14.394
 3814W        W76239  11.632  27.371  14.416
 3815W        W76240   4.921   9.319  12.517
 3816W        W76241  23.241  26.131  12.934
 3817W        W76242  39.796   0.740   1.297
 3818W        W76243  19.148  12.460  14.026
 3819W        W76244  42.340   8.321   0.017
 3820W        W76245   9.803  34.465   2.286
 3821W        W76246   4.368  37.916  13.431
 3822W        W76247  17.783  35.003   1.402
 3823W        W76248   9.192   7.162  11.605
 3824W        W76249   9.389  11.966   2.964
 3825W        W76250  13.986  36.518  11.886
 3826W        W76251  32.187   7.077   0.009
 3827W        W76252  21.382  16.495   0.094
 3828W        W76253  33.186  18.292   3.207
 3829W        W76254  36.924  25.976  11.167
 3830W        W76255  33.235  40.818   2.763
 3831W        W76256  17.516   8.781  13.363
 3832W        W76257  11.616  35.075  11.513
 3833W        W76258  25.895   9.307  13.898
 3834W        W76259  16.708  16.050  14.341
 3835W        W76260  25.816  12.533   2.688
 3836W        W76261  15.612  24.464  13.359
 3837W        W76262   5.241  21.047   4.925
 3838W        W76263   4.337   8.407  11.705
 3839W        W76264   5.769   1.848  11.531
 3840W        W76265  22.244   6.195   4.490
 3841W        W76266  14.290   3.835  11.617
 3842W        W76267  39.606  25.982   4.292
 3843W        W76268  18.514   9.391  12.909
 3844W        W76269   5.805  39.462   3.420
 3845W        W76270  19.786  41.869   1.462
 3846W        W76271  15.714  26.125  14.739
 3847W        W76272  44.514  31.473  13.064
 3848W        W76273  18.549   8.933  13.337
 3849W        W76274  23.587   3.920   0.330
 3850W        W76275  19.065   6.710  13.172
 3851W        W76276  19.015  38.381   2.886
 3852W        W76277  20.511   6.389   3.828
 3853W        W76278  18.403  10.659   4.031
 3854W        W76279  26.768  27.963   1.481
 3855W        W76280  24.102  17.210   3.400
 3856W        W76281  23.375  27.642  10.454
 3857W        W76282  17.586  11.999  11.156
 3858W        W76283  42.599  20.997  11.908
 3859W        W76284  35.280  17.291   4.295
 3860W        W76285  37.495  35.312  11.609
 3861W        W76286  17.940  32.892  11.571
 3862W        W76287  16.766   1.704  14.476
 3863W        W76288  39.213  32.164   4.878
 3864W        W76289  12.801   3.177   3.133
 3865W        W76290  34.055  25.611  12.480
 3866W        W76291  27.411   1.088   0.391
 3867W        W76292  40.578   7.647  11.137
 3868W        W76293  38.292   1.201   1.959
 3869W        W76294  34.037   7.895   4.326
 3870W        W76295  44.017  28.240  14.525
 3871W        W76296   7.945  44.362   2.788
 3872W        W76297   2.247  28.447  10.571
 3873W        W76298  29.414  11.560   2.678
 3874W        W76299  44.390  39.890   1.239
 3875W        W76300  25.543   9.313   0.874
 3876W        W76301  23.420  43.464  11.498
 3877W        W76302  27.030  20.155  12.569
 3878W        W76303  43.509   9.732   3.127
 3879W        W76304  40.888  18.085   2.268
 3880W        W76305  26.125  22.037   0.938
 3881W        W76306  27.030  30.593   1.894
 3882W        W76307   3.794  33.483   0.763
 3883W        W76308  18.635  39.064  13.520
 3884W        W76309  41.366  38.093  11.587
 3885W        W76310  42.965  14.491  11.047
 3886W        W76311  15.748  14.458  10.395
 3887W        W76312  37.600   8.951   5.107
 3888W        W76313  42.466  31.529  10.738
 3889W        W76314  18.973  19.276   5.026
 3890W        W76315  37.020  37.686  12.980
 3891W        W76316   4.379   3.906   2.755
 3892W        W76317   4.618  15.571  14.604
 3893W        W76318  25.678  26.086  12.476
 3894W        W76319  41.024   5.215   4.529
 3895W        W76320  31.662  12.325   2.846
 3896W        W76321  36.801  30.452   0.319
 3897W        W76322  16.885  30.723   3.706
 3898W        W76323  21.584  20.303  10.626
 3899W        W76324  36.804  19.208   2.219
 3900W        W76325  25.716  43.758  13.539
 3901W        W76326  23.943  12.109  14.948
 3902W        W76327  18.662  12.771   4.492
 3903W        W76328  31.477  41.880   3.094
 3904W        W76329  10.952  18.308   4.655
 3905W        W76330   5.257   8.104  11.695
 3906W        W76331  31.666  32.656  14.686
 3907W        W76332   0.272  16.645  10.678
 3908W        W76333  30.585  37.604   3.788
 3909W        W76334   1.496  25.954  10.608
 3910W        W76335  16.068   2.303  10.037
 3911W        W76336  10.584  33.444   1.826
 3912W        W76337  24.071  24.697   2.404
 3913W        W76338   2.361   3.678   3.611
 3914W        W76339  12.740  31.220   0.763
 3915W        W76340  32.110  37.864   1.847
 3916W        W76341  43.190   3.723   4.344
 3917W        W76342  29.535  35.309  11.621
 3918W        W76343  26.237  17.232   2.819
 3919W        W76344  24.267   1.615  12.486
 3920W        W76345  34.059  28.015   4.765
 3921W        W76346  38.522   7.859  12.273
 3922W        W76347  11.216   0.016  12.526
 3923W        W76348   4.824   2.823   4.161
 3924W        W76349  42.000  33.702   0.265
 3925W        W76350  19.309  10.429  10.369
 3926W        W76351   9.110  43.993   4.666
 3927W        W76352   0.759  28.451   0.259
 3928W        W76353   6.460  21.071   4.556
 3929W        W76354  27.439   1.747  11.613
 3930W        W76355  30.250  40.117  13.565
 3931W        W76356  38.882  30.161   4.657
 3932W        W76357  27.992  42.081  11.667
 3933W        W76358  17.651  25.824  12.519
 3934W        W76359  20.630  28.204  11.857
 3935W        W76360  19.048  18.171  10.675
 3936W        W76361  28.842  14.495  12.955
 3937W        W76362   4.890  43.156   0.854
 3938W        W76363  17.227  35.447  13.847
 3939W        W76364  17.798   0.208   1.960
 3940W        W76365   9.462  21.471   0.830
 3941W        W76366  27.151   7.675   1.560
 3942W        W76367  11.133  21.831   0.242
 3943W        W76368   8.917  29.711  14.366
 3944W        W76369  19.716  22.984   4.607
 3945W        W76370  26.452  13.731  13.452
 3946W        W76371   0.349  31.393   0.953
 3947W        W76372  24.046   6.694   4.800
 3948W        W76373  28.533  29.212   1.776
 3949W        W76374  28.523  25.413   2.442
 3950W        W76375  39.565  40.155  11.938
 3951W        W76376  32.005   7.715   1.327
 3952W        W76377   9.365  33.561   4.778
 3953W        W76378  37.527  20.944  10.707
 3954W        W76379  21.841   7.944   3.438
 3955W        W76380  24.686  41.323   4.086
 3956W        W76381  44.869  37.863   0.795
 3957W        W76382  19.213  38.342   0.736
 3958W        W76383  16.376  39.412  10.781
 3959W        W76384  13.817   3.812  14.680
 3960W        W76385   2.016  39.916   4.082
 3961W        W76386  31.298  29.558  11.093
 3962W        W76387  17.260   8.674   4.681
 3963W        W76388   6.996  25.135   0.829
 3964W        W76389   6.222  13.190   1.879
 3965W        W76390  23.400  15.308   3.551
 3966W        W76391  30.944  22.561  11.489
 3967W        W76392  29.420  30.691  12.500
 3968W        W76393  27.717  11.672   3.731
 3969W        W76394  36.726  13.958   3.156
 3970W        W76395  40.087  12.831  12.796
 3971W        W76396  13.372  12.099   0.460
 3972W        W76397  40.595  23.502  10.497
 3973W        W76398  44.962  27.226   3.126
 3974W        W76399  21.388  12.863  12.555
 3975W        W76400   5.743  19.834   4.587
 3976W        W76401   9.562   8.459   3.835
 3977W        W76402   3.047  31.941   4.238
 3978W        W76403  43.734   4.275   4.665
 3979W        W76404  42.962  44.771   0.158
 3980W        W76405  19.817   0.853  11.673
 3981W        W76406   4.317   2.526   3.202
 3982W        W76407  41.537  21.230   4.277
 3983W        W76408  14.796  17.782   3.778
 3984W        W76409  36.637  26.434  11.231
 3985W        W76410  19.850  13.033   2.547
 3986W        W76411   9.428  10.417   0.297
 3987W        W76412  27.184  13.673  12.858
 3988W        W76413  41.016   6.959   4.871
 3989W        W76414  19.159  21.601   0.415
 3990W        W76415  10.207  13.823  11.119
 3991W        W76416  42.819  31.458   2.114
 3992W        W76417  12.390  26.056  13.973
 3993W        W76418  33.142  32.498  13.810
 3994W        W76419  11.369  13.213  13.153
 3995W        W76420  39.369   3.335   3.727
 3996W        W76421   6.293  24.625  14.687
 3997W        W76422  23.510  29.905   2.924
 3998W        W76423   2.584  16.638   0.359
 3999W        W76424  14.834  16.720   1.745
 4000W        W76425  21.042  21.768   4.093
 4001W        W76426  24.189  33.650   4.610
 4002W        W76427   7.247  24.993   3.144
 4003W        W76428  42.050   4.786  13.138
 4004W        W76429  30.949   5.221  13.576
 4005W        W76430   0.479  20.142   3.590
 4006W        W76431   1.923  28.367  12.092
 4007W        W76432  20.780  20.207  12.913
 4008W        W76433  42.534  43.044  13.260
 4009W        W76434   3.634  15.475   3.515
 4010W        W76435  21.266  39.840  14.975
 4011W        W76436  39.843  20.067  10.641
 4012W        W76437  17.234  33.884  10.341
 4013W        W76438  23.193   6.179   4.597
 4014W        W76439  10.894   1.865  11.207
 4015W        W76440  26.946  31.890  13.050
 4016W        W76441  37.287   6.481   2.853
 4017W        W76442  31.563  31.689   3.127
 4018W        W76443  35.228  33.536   1.908
 4019W        W76444   3.287  34.839  13.846
 4020W        W76445  39.599  27.382  14.008
 4021W        W76446  10.907  44.313   4.513
 4022W        W76447  39.789  15.202  12.504
 4023W        W76448   7.522   7.371  10.227
 4024W        W76449  40.191  34.313   2.305
 4025W        W76450   5.755   0.018  12.784
 4026W        W76451  14.189   9.221  14.823
 4027W        W76452   5.355  22.631  10.214
 4028W        W76453  29.094  10.789   2.530
 4029W        W76454  44.304  29.634   0.853
 4030W        W76455  43.813  32.562   4.453
 4031W        W76456  10.669  39.282   0.410
 4032W        W76457  43.712  23.115   3.656
 4033W        W76458  22.212   8.860   2.753
 4034W        W76459  19.461   2.395   1.851
 4035W        W76460   3.515  22.067   0.147
 4036W        W76461  31.727  26.026   4.334
 4037W        W76462   1.266  29.675   3.582
 4038W        W76463  26.702  11.800  14.955
 4039W        W76464  13.688   7.580  12.056
 4040W        W76465  15.779   7.281   2.211
 4041W        W76466  20.523  39.898  11.061
 4042W        W76467  43.586   0.307  13.964
 4043W        W76468  11.530  33.959   4.268
 4044W        W76469  21.163  33.858   1.759
 4045W        W76470   4.201  28.094  12.908
 4046W        W76471  37.035  23.140  12.938
 4047W        W76472  27.180   3.384  11.936
 4048W        W76473  18.247  30.463  14.341
 4049W        W76474  33.809  39.039  12.067
 4050W        W76475   8.558  20.031  13.506
 4051W        W76476   0.286   9.632  11.012
 4052W        W76477  19.433  18.670   1.887
 4053W        W76478  10.029  19.813  13.150
 4054W        W76479  13.656   5.556   4.199
 4055W        W76480  35.491   0.949  13.107
 4056W        W76481  39.900  39.554  13.164
 4057W        W76482  33.776  17.079   1.495
 4058W        W76483  31.346  35.046  12.976
 4059W        W76484  12.771  16.746  14.770
 4060W        W76485   6.348  16.077   1.870
 4061W        W76486  24.695  43.621  10.654
 4062W        W76487  33.910  35.972   1.398
 4063W        W76488  38.433  12.281   3.492
 4064W        W76489  29.663  14.196   0.495
 4065W        W76490  21.925   4.424   1.861
 4066W        W76491  27.150  20.627   2.312
 4067W        W76492   6.652  12.114  13.985
 4068W        W76493  22.104  42.866   3.360
 4069W        W76494   9.339  13.342   1.850
 4070W        W76495  24.528   3.827   1.400
 4071W        W76496  34.088  37.473   2.851
 4072W        W76497  40.042  16.337   2.758
 4073W        W76498  15.574   0.582   1.339
 4074W        W76499   7.192  35.626   0.222
 4075W        W76500  21.009   1.256  11.616
 4076W        W76501  38.985  36.507   2.326
 4077W        W76502  25.488   3.828   3.143
 4078W        W76503  34.860   2.236  12.589
 4079W        W76504  28.565   4.755   2.916
 4080W        W76505  25.695  29.842   2.215
 4081W        W76506  30.608  27.598  12.944
 4082W        W76507  24.599  19.739   4.921
 4083W        W76508  29.986  24.002  11.108
 4084W        W76509  25.563  44.237  14.830
 4085W        W76510  23.066  37.614   2.289
 4086W        W76511   5.932   3.504   1.831
 4087W        W76512  31.081  35.868   2.797
 4088W        W76513   5.765  33.021  11.532
 4089W        W76514  17.512   8.365   3.143
 4090W        W76515  29.057   5.201   2.671
 4091W        W76516  38.293  17.398  14.354
 4092W        W76517  32.454  22.984   2.947
 4093W        W76518  39.297  21.120  11.503
 4094W        W76519  40.807  14.322   2.980
 4095W        W76520  23.729  28.785   1.446
 4096W        W76521   8.174  14.131  13.395
 4097W        W76522  38.072   6.760   1.372
 4098W        W76523  37.285  35.659  12.987
 4099W        W76524  32.863  34.957   2.887
 4100W        W76525  19.152  19.917  11.228
 4101W        W76526  43.031  14.526   0.459
 4102W        W76527  10.226  27.898  14.298
 4103W        W76528  43.196  10.168  13.921
 4104W        W76529   7.738   8.363  10.991
 4105W        W76530  16.058  19.748   4.132
 4106W        W76531   5.253   9.719  12.990
 4107W        W76532   1.029  19.964   4.085
 4108W        W76533   0.005  13.168   4.700
 4109W        W76534   6.303  31.477   0.717
 4110W        W76535  17.635   4.322  12.620
 4111W        W76536  21.021  33.973   0.797
 4112W        W76537  33.367  19.117  14.832
 4113W        W76538   8.922  27.407   3.739
 4114W        W76539  29.931  14.076   1.802
 4115W        W76540   9.329   2.884   0.304
 4116W        W76541  25.238  37.266   2.369
 4117W        W76542  24.232  34.587  11.963
 4118W        W76543  42.232  32.696  11.961
 4119W        W76544   3.634  39.138   1.306
 4120W        W76545  23.666  24.910   4.648
 4121W        W76546  10.121  18.596   2.579
 4122W        W76547  35.017   9.405  13.615
 4123W        W76548  16.155  23.692   5.290
 4124W        W76549  18.188  36.464  11.317
 4125W        W76550  12.729  27.281   0.377
 4126W        W76551  25.260   2.181  14.279
 4127W        W76552  20.948  20.856   0.321
 4128W        W76553  22.558   7.831  13.381
 4129W        W76554  22.565  15.583   4.607
 4130W        W76555   3.190  28.092  12.637
 4131W        W76556  25.257  40.162   2.795
 4132W        W76557  43.893  24.319   1.862
 4133W        W76558  26.921   0.923   3.781
 4134W        W76559  44.392  16.690  13.611
 4135W        W76560   7.594  36.800   1.890
 4136W        W76561  16.587  33.162  11.089
 4137W        W76562  23.691  16.322  11.804
 4138W        W76563   0.011   8.007  11.991
 4139W        W76564  12.276  18.047  12.919
 4140W        W76565  18.854  15.178   4.975
 4141W        W76566   3.507  14.413   1.862
 4142W        W76567  16.194   4.594  13.491
 4143W        W76568  32.577  20.525  14.845
 4144W        W76569  18.976  28.457   1.370
 4145W        W76570  31.103  17.636  14.373
 4146W        W76571  35.161  34.703   3.645
 4147W        W76572   0.217  17.018   3.121
 4148W        W76573  29.711  28.404  12.391
 4149W        W76574  41.463   3.973   3.706
 4150W        W76575  35.646   0.340  10.399
 4151W        W76576  32.106  22.221   4.344
 4152W        W76577   0.793  15.682   0.428
 4153W        W76578   5.693  17.541   4.057
 4154W        W76579   5.922  29.465  12.948
 4155W        W76580  30.421   5.217  10.671
 4156W        W76581  40.919  35.083   2.442
 4157W        W76582  12.211  25.875   4.673
 4158W        W76583  15.911  19.126  12.761
 4159W        W76584  33.422   8.524  14.869
 4160W        W76585  41.848  28.139   3.600
 4161W        W76586   1.745  17.131  11.317
 4162W        W76587  38.640  38.011  10.769
 4163W        W76588   1.341  42.586  10.484
 4164W        W76589  36.681  35.915  10.044
 4165W        W76590   5.370  38.448  13.982
 4166W        W76591  19.063  15.769   0.355
 4167W        W76592  34.985  28.887   2.110
 4168W        W76593  23.383   4.886  13.827
 4169W        W76594  36.100   9.759  14.682
 4170W        W76595  19.175  31.762   4.233
 4171W        W76596  25.223   6.462  11.743
 4172W        W76597  12.592  20.554   0.870
 4173W        W76598  19.359  28.178  13.899
 4174W        W76599  29.452  12.574  14.406
 4175W        W76600  18.208   5.874   0.273
 4176W        W76601   7.438  11.910  14.285
 4177W        W76602  18.653  22.218  12.424
 4178W        W76603  39.334   7.831   4.117
 4179W        W76604   7.679  38.301  12.935
 4180W        W76605  26.938  24.255   3.675
 4181W        W76606  36.887   9.890   0.295
 4182W        W76607  17.237  39.117   5.084
 4183W        W76608   3.361  41.851   2.221
 4184W        W76609   7.502  39.635   0.362
 4185W        W76610   6.876  30.633   0.676
 4186W        W76611  27.010   1.301  11.932
 4187W        W76612  25.159  22.924   4.478
 4188W        W76613   1.697  16.701   1.413
 4189W        W76614   6.675  11.404  11.091
 4190W        W76615  38.262  23.014  10.586
 4191W        W76616  16.178  13.201   0.136
 4192W        W76617   6.161   3.538  10.780
 4193W        W76618  31.955  12.735   2.814
 4194W        W76619   7.334  19.737   0.250
 4195W        W76620  24.566  16.112  12.766
 4196W        W76621   6.030  40.047   4.667
 4197W        W76622  27.350  15.589   3.338
 4198W        W76623  16.845  10.779  13.403
 4199W        W76624  26.099  18.543   2.264
 4200W        W76625   3.920  34.404   9.956
 4201W        W76626   0.242  21.903  14.088
 4202W        W76627  36.170   3.474  12.074
 4203W        W76628  19.271  17.512   2.080
 4204W        W76629  36.172  34.564   1.891
 4205W        W76630  32.591   4.917   2.882
 4206W        W76631  20.663  39.492   3.962
 4207W        W76632  28.737  36.530   0.820
 4208W        W76633  28.454  19.328  12.418
 4209W        W76634  29.653   1.694   4.655
 4210W        W76635  25.403  43.914   1.807
 4211W        W76636  33.209  22.252   3.226
 4212W        W76637   2.885   0.984   2.318
 4213W        W76638  23.834  29.196  11.563
 4214W        W76639  40.730  35.938  12.671
 4215W        W76640  13.171  41.342   1.451
 4216W        W76641  13.302  32.435  12.020
 4217W        W76642  10.058  38.122   3.723
 4218W        W76643   9.144   8.131   3.213
 4219W        W76644  38.886  32.484   1.927
 4220W        W76645  12.897  24.143  10.156
 4221W        W76646  29.332   4.691   4.632
 4222W        W76647  21.294  20.224  12.867
 4223W        W76648  38.855  12.871  12.812
 4224W        W76649  19.577   2.426   3.696
 4225W        W76650  31.103  18.155  11.800
 4226W        W76651  15.094   4.032   2.313
 4227W        W76652  41.371  21.510  14.295
 4228W        W76653   6.185   9.957   0.089
 4229W        W76654  28.592  11.741  12.440
 4230W        W76655  13.212  39.007  12.860
 4231W        W76656  32.795  11.212   2.323
 4232W        W76657   6.927  33.636   2.871
 4233W        W76658  34.013  11.843  13.421
 4234W        W76659  40.529   1.485  12.278
 4235W        W76660  18.058  13.675   4.655
 4236W        W76661  11.644  37.841   4.729
 4237W        W76662  23.638  24.197   3.655
 4238W        W76663  14.366  44.825   2.200
 4239W        W76664  17.140   6.812   4.489
 4240W        W76665  33.105  20.541  10.563
 4241W        W76666  25.398   9.679  14.254
 4242W        W76667  15.234  24.118  12.115
 4243W        W76668  31.436  35.008   3.725
 4244W        W76669  13.620   6.857  12.644
 4245W        W76670  33.978  25.534   1.926
 4246W        W76671  22.033  21.776   4.792
 4247W        W76672  36.537  28.525   2.927
 4248W        W76673  38.970   7.851   3.306
 4249W        W76674  16.975  13.107   3.120
 4250W        W76675  40.274  31.952   5.031
 4251W        W76676  16.276   5.736  11.350
 4252W        W76677   6.757  35.081   0.748
 4253W        W76678   7.465  33.946  12.953
 4254W        W76679  13.781   2.386  10.665
 4255W        W76680  33.979  42.875   2.242
 4256W        W76681  34.765   5.712  12.031
 4257W        W76682  30.473  11.350  13.506
 4258W        W76683  35.143  25.483  14.679
 4259W        W76684  28.704  23.087  13.966
 4260W        W76685  10.767  26.255   0.688
 4261W        W76686  19.985  41.288  14.785
 4262W        W76687  18.364  13.213   4.611
 4263W        W76688   6.766  33.847   4.093
 4264W        W76689  34.058  32.079  12.140
 4265W        W76690  28.382  31.487   3.611
 4266W        W76691   0.841  32.201   2.417
 4267W        W76692  14.803   2.292  13.517
 4268W        W76693  40.403  10.372   0.333
 4269W        W76694  11.126   7.692   3.740
 4270W        W76695  42.397   7.235  13.576
 4271W        W76696  23.812  41.363   3.799
 4272W        W76697   1.871  29.727   4.677
 4273W        W76698  19.233  31.476  12.074
 4274W        W76699  15.403  22.521   2.244
 4275W        W76700  42.163   0.039   3.995
 4276W        W76701  36.993  36.218   0.514
 4277W        W76702   6.284  12.609  13.468
 4278W        W76703  13.526  32.132   3.737
 4279W        W76704  23.585  19.677   0.945
 4280W        W76705  28.963  19.134   1.440
 4281W        W76706  33.565  29.966  14.283
 4282W        W76707  11.610  19.959  14.481
 4283W        W76708   2.309   2.699  11.448
 4284W        W76709  17.260  32.600  12.998
 4285W        W76710  35.855  12.839  14.765
 4286W        W76711  13.844  11.829   2.837
 4287W        W76712  16.545  41.787   2.281
 4288W        W76713   6.161  13.220   3.889
 4289W        W76714   1.626  17.213   1.497
 4290W        W76715  33.884  12.731  13.283
 4291W        W76716  30.660  14.643   0.916
 4292W        W76717  10.794  22.697  12.332
 4293W        W76718  30.369  22.063   1.932
 4294W        W76719   7.261   0.026   4.147
 4295W        W76720  11.097  31.719  13.523
 4296W        W76721  32.113   4.119   4.600
 4297W        W76722  14.568  21.198   2.160
 4298W        W76723   1.348  41.406  12.068
 4299W        W76724  43.486   5.989  14.858
 4300W        W76725  39.231   3.881   1.848
 4301W        W76726   4.411  22.314  11.252
 4302W        W76727  19.411  41.527   2.656
 4303W        W76728  25.182  10.955  14.944
 4304W        W76729  16.546   7.371  14.845
 4305W        W76730  12.371  40.303   4.362
 4306W        W76731  31.448   2.471  12.610
 4307W        W76732  30.381  15.092  14.741
 4308W        W76733  23.910   2.321  12.476
 4309W        W76734  23.673  31.648   1.425
 4310W        W76735   6.801  36.822   1.466
 4311W        W76736  27.748   2.849  14.031
 4312W        W76737  10.587   5.743  10.745
 4313W        W76738  36.599  24.077  14.074
 4314W        W76739  15.821  29.482  13.400
 4315W        W76740  27.924  10.610  12.559
 4316W        W76741  40.343   9.861   4.517
 4317W        W76742  43.574  17.029  11.649
 4318W        W76743   7.454  40.404   4.270
 4319W        W76744  29.026  17.635  13.802
 4320W        W76745  10.152  17.939  11.728
 4321W        W76746   2.165  15.701  11.133
 4322W        W76747   4.090  12.563   3.387
 4323W        W76748  15.063  21.981  13.795
 4324W        W76749   9.255  37.315   1.646
 4325W        W76750   9.074   3.940   4.730
 4326W        W76751  14.088  34.076  11.628
 4327W        W76752   9.534  17.631  13.894
 4328W        W76753  33.388   7.225  11.528
 4329W        W76754  39.623  21.004   1.882
 4330W        W76755   9.783  24.570   2.351
 4331W        W76756  23.551  20.657   2.475
 4332W        W76757  30.365   8.972   5.239
 4333W        W76758  39.332  14.613   4.241
 4334W        W76759  37.522  19.219   4.589
 4335W        W76760   7.768  19.955   0.080
 4336W        W76761  13.203   7.330  13.979
 4337W        W76762  41.150  10.771  14.067
 4338W        W76763  40.163  23.154  12.918
 4339W        W76764  44.407  33.391  14.472
 4340W        W76765   9.182  24.069   0.031
 4341W        W76766  14.184  37.630   4.531
 4342W        W76767  27.370   7.849  14.314
 4343W        W76768  30.222  14.362   4.620
 4344W        W76769  43.008  28.490  13.139
 4345W        W76770  15.112  42.887   3.620
 4346W        W76771  18.884  10.932  11.091
 4347W        W76772  18.969  29.620   9.995
 4348W        W76773  38.756  24.688   4.539
 4349W        W76774  29.183  23.522   2.605
 4350W        W76775  32.970  14.769   0.546
 4351W        W76776  23.071  37.426   0.004
 4352W        W76777   0.930  20.215  14.645
 4353W        W76778  33.983   3.500   1.234
 4354W        W76779  13.612  33.078  13.021
 4355W        W76780  11.156  27.678  11.207
 4356W        W76781  38.957  33.423  11.853
 4357W        W76782  25.208  38.604  11.977
 4358W        W76783  40.082  39.516   3.769
 4359W        W76784  21.989  29.005  14.997
 4360W        W76785   6.629  27.644   0.950
 4361W        W76786  20.193  32.533  11.936
 4362W        W76787  22.880  38.897  13.471
 4363W        W76788  37.424  40.267   4.907
 4364W        W76789  43.575  10.757   2.967
 4365W        W76790  29.958   6.649  11.656
 4366W        W76791  13.778  29.512  11.247
 4367W        W76792  17.567  42.365  11.631
 4368W        W76793   6.821   5.840  13.918
 4369W        W76794  14.528  19.127  14.936
 4370W        W76795  30.563  19.709   2.282
 4371W        W76796  32.824  33.487   2.826
 4372W        W76797  17.856  29.967   1.913
 4373W        W76798  44.251  17.763   0.422
 4374W        W76799  11.425   5.366  13.445
 4375W        W76800   4.479  43.967  11.718
 4376W        W76801  35.003  31.920   4.586
 4377W        W76802   2.255   1.348  12.799
 4378W        W76803  30.364  24.325   1.427
 4379W        W76804  35.180  10.338  13.874
 4380W        W76805  12.409  20.710   0.396
 4381W        W76806  38.468  36.102   0.610
 4382W        W76807   7.659  11.121  11.095
 4383W        W76808  25.932   8.398  13.929
 4384W        W76809  38.878  42.986   0.792
 4385W        W76810   9.144  18.787   2.770
 4386W        W76811  14.600  34.069  11.610
 4387W        W76812  43.480  41.245   0.878
 4388W        W76813   8.938  15.712   4.461
 4389W        W76814  25.661  24.955  12.295
 4390W        W76815  44.764  16.316   0.267
 4391W        W76816  36.500  35.813   1.805
 4392W        W76817  19.717  11.663  13.066
 4393W        W76818  11.797  44.083  14.463
 4394W        W76819  25.260  27.946  14.789
 4395W        W76820  16.841   5.410   4.185
 4396W        W76821  19.805  23.730   4.126
 4397W        W76822  21.713  12.284   4.296
 4398W        W76823  26.450  25.459  11.171
 4399W        W76824  27.041  26.097  10.605
 4400W        W76825  35.005  31.853   3.655
 4401W        W76826   9.969  10.687  12.922
 4402W        W76827  11.775   9.320  12.273
 4403W        W76828  12.547  26.588  13.004
 4404W        W76829  15.289  16.738  12.084
 4405W        W76830  16.186   7.425   1.296
 4406W        W76831  13.107  31.609   0.774
 4407W        W76832  32.302  30.124  13.044
 4408W        W76833  13.732  26.612  11.980
 4409W        W76834  10.619  10.060  10.108
 4410W        W76835  31.921  17.130   3.278
 4411W        W76836   9.660  14.654   0.841
 4412W        W76837  26.174  31.986   2.266
 4413W        W76838  38.400  31.710   1.823
 4414W        W76839   4.316  30.531   3.255
 4415W        W76840  15.098   8.652  12.584
 4416W        W76841  21.522  44.295   2.840
 4417W        W76842  11.698  35.300   2.799
 4418W        W76843   4.428   7.239   1.449
 4419W        W76844  33.627  37.816   2.143
 4420W        W76845  28.056  38.481   3.701
 4421W        W76846   9.104  31.152   2.094
 4422W        W76847  43.835  25.517  12.562
 4423W        W76848  39.541  27.044  13.544
 4424W        W76849  12.419  23.349   1.695
 4425W        W76850  18.290  35.998  12.061
 4426W        W76851  13.792  14.120   4.573
 4427W        W76852   9.649  40.902   0.212
 4428W        W76853  42.696  29.649  12.128
 4429W        W76854  20.267  28.387   1.750
 4430W        W76855  30.335  26.102  14.974
 4431W        W76856  36.552   3.413   3.197
 4432W        W76857  33.309  34.571  13.981
 4433W        W76858  40.003  16.244  11.032
 4434W        W76859  43.424  11.095  11.654
 4435W        W76860   6.557   3.893   4.834
 4436W        W76861  29.208  39.575  13.142
 4437W        W76862   9.644   7.219   3.101
 4438W        W76863  15.536  33.454  12.644
 4439W        W76864  12.864  30.318  12.860
 4440W        W76865  24.959  14.553  10.721
 4441W        W76866  22.751  23.931   3.471
 4442W        W76867  32.535  19.329  12.972
 4443W        W76868  39.353   0.865   3.465
 4444W        W76869  39.942  40.390   4.433
 4445W        W76870  17.179  41.353  11.659
 4446W        W76871  10.219  40.082   3.638
 4447W        W76872  16.735  23.797   0.906
 4448W        W76873  26.951   3.206   4.573
 4449W        W76874   3.992  24.534  10.923
 4450W        W76875  28.127   5.304  11.085
 4451W        W76876  23.968  31.893  12.405
 4452W        W76877   5.009   2.174   1.478
 4453W        W76878  15.225  42.848  14.250
 4454W        W76879  21.790  40.458  12.399
 4455W        W76880  31.401  43.239   0.540
 4456W        W76881  10.852  32.942  13.037
 4457W        W76882  14.016  31.954   0.936
 4458W        W76883  43.285  27.591  13.800
 4459W        W76884  15.601  14.243   1.775
 4460W        W76885  26.931  20.633  14.483
 4461W        W76886  42.437  10.652   3.917
 4462W        W76887  10.849   1.289  12.010
 4463W        W76888   0.972  43.747  14.168
 4464W        W76889  36.141  40.705  10.842
 4465W        W76890  16.773  29.172   1.883
 4466W        W76891  17.921  21.229  13.653
 4467W        W76892  34.832   6.686   2.333
 4468W        W76893  42.041   2.775   0.627
 4469W        W76894  38.466  26.771   4.633
 4470W        W76895  15.065   5.526   3.373
 4471W        W76896  15.066   1.646  14.935
 4472W        W76897  15.093  23.120   3.866
 4473W        W76898  16.278   9.691  13.535
 4474W        W76899  21.152  15.077   0.230
 4475W        W76900  13.319  44.333  13.423
 4476W        W76901  18.231  18.706  13.863
 4477W        W76902  10.438  12.261  13.382
 4478W        W76903  15.224   2.631   3.312
 4479W        W76904  23.021  37.753   0.424
 4480W        W76905  16.662  16.207   4.774
 4481W        W76906  15.706  40.777   1.220
 4482W        W76907   4.470   8.143  13.944
 4483W        W76908  34.376  29.666  10.694
 4484W        W76909  10.938  16.929  12.570
 4485W        W76910   0.881  27.259  12.521
 4486W        W76911   5.291   6.783  11.604
 4487W        W76912  27.705  33.478   3.252
 4488W        W76913   9.962   8.730   9.820
 4489W        W76914  32.495  35.774  11.304
 4490W        W76915  11.844  25.541   0.410
 4491W        W76916  26.746  32.070   0.859
 4492W        W76917   1.515   9.861   0.347
 4493W        W76918  43.211  17.304   3.255
 4494W        W76919   3.668  28.456   3.368
 4495W        W76920  21.361  33.062  14.896
 4496W        W76921  26.449  35.933   4.663
 4497W        W76922  31.595   4.688   2.750
 4498W        W76923  13.106  29.047  13.258
 4499W        W76924  37.632  12.223  14.425
 4500W        W76925  11.810   6.439  13.172
 4501W        W76926   4.206  15.308  14.262
 4502W        W76927  13.167  10.751   2.179
 4503W        W76928   5.312  31.219   3.977
 4504W        W76929  37.047  24.615  10.590
 4505W        W76930   8.897  10.872   2.279
 4506W        W76931  15.407   8.391   0.991
 4507W        W76932  38.225  13.604  12.482
 4508W        W76933  30.727  37.429  14.494
 4509W        W76934   5.273  21.862   1.230
 4510W        W76935  11.158  16.643  11.968
 4511W        W76936  29.374   5.631   0.269
 4512W        W76937  18.288  18.108   0.690
 4513W        W76938  41.992  24.673   4.556
 4514W        W76939  40.857  15.936   4.115
 4515W        W76940   8.895  31.500  13.099
 4516W        W76941  43.999   3.653   0.868
 4517W        W76942   8.811  21.065  11.962
 4518W        W76943  33.913  17.517  10.691
 4519W        W76944  18.416  40.461  13.131
 4520W        W76945   6.631  38.590  13.884
 4521W        W76946  11.750  11.451   1.837
 4522W        W76947  23.492   5.316   4.878
 4523W        W76948  23.310  33.643  11.618
 4524W        W76949  36.951  33.093   2.382
 4525W        W76950  18.675   7.923   4.079
 4526W        W76951  40.917  28.692  12.604
 4527W        W76952  24.503  34.889  10.348
 4528W        W76953  40.341  36.368   4.618
 4529W        W76954  32.881   6.801   4.777
 4530W        W76955   8.767  41.007  13.478
 4531W        W76956  43.914  22.018   2.916
 4532W        W76957   3.774   3.851  12.852
 4533W        W76958  14.463  35.669   2.685
 4534W        W76959  22.893  23.363   5.021
 4535W        W76960   1.460  34.671   1.995
 4536W        W76961  36.155  25.214   1.199
 4537W        W76962   0.516  30.455  13.001
 4538W        W76963  32.396  20.027   4.582
 4539W        W76964   4.805  33.090  10.957
 4540W        W76965  40.033   7.423   2.241
 4541W        W76966  24.913  12.898   1.300
 4542W        W76967  37.617  18.967  13.806
 4543W        W76968  40.488  25.892   2.214
 4544W        W76969  18.562  10.730   1.247
 4545W        W76970  29.304  15.692  11.656
 4546W        W76971   1.847  33.886  13.350
 4547W        W76972  13.651   5.465   0.368
 4548W        W76973  23.284  17.885  12.500
 4549W        W76974  31.435   2.199  11.631
 4550W        W76975  19.808   6.981  14.309
 4551W        W76976  32.687   0.251   0.033
 4552W        W76977  39.968  20.713  14.431
 4553W        W76978   7.622   1.286   3.720
 4554W        W76979  22.845  12.247  12.447
 4555W        W76980   9.803  26.296  10.888
 4556W        W76981  16.323  18.359  10.557
 4557W        W76982   0.363  16.113  12.785
 4558W        W76983   3.996  38.324  10.354
 4559W        W76984  26.639  34.128   2.762
 4560W        W76985  22.734  32.922   0.936
 4561W        W76986  39.768  25.559  14.059
 4562W        W76987  15.347  38.585   2.233
 4563W        W76988   2.775  10.249  10.573
 4564W        W76989  15.880   3.405   1.712
 4565W        W76990   5.601  19.539   3.193
 4566W        W76991  40.080  21.683   1.347
 4567W        W76992  43.801  39.205   1.249
 4568W        W76993  13.932   7.378  13.479
 4569W        W76994  33.963  20.212   4.941
 4570W        W76995  31.989  25.962  11.156
 4571W        W76996   4.433  34.109   3.649
 4572W        W76997  19.602  19.041   0.261
 4573W        W76998  10.768  15.665   4.435
 4574W        W76999  13.340  43.460  13.663
 4575W        W77000   3.827  44.563   4.558
 4576W        W77001  12.831   7.615  12.933
 4577W        W77002  18.857   3.578   3.355
 4578W        W77003  43.394  23.938  11.177
 4579W        W77004  36.398  12.175   1.142
 4580W        W77005  15.085  14.302   1.839
 4581W        W77006  16.487   1.741  14.018
 4582W        W77007  39.270  41.899   1.245
 4583W        W77008  41.968  18.181  10.470
 4584W        W77009  14.830  12.606   4.716
 4585W        W77010  40.559  44.433   2.354
 4586W        W77011  44.313  32.806   2.680
 4587W        W77012  36.416  23.320  11.587
 4588W        W77013  13.368   3.488   1.377
 4589W        W77014   3.961  38.002  11.190
 4590W        W77015  44.849  33.713  14.433
 4591W        W77016  28.765   2.869   3.635
 4592W        W77017  17.277  19.951  14.765
 4593W        W77018  34.633   0.857  14.027
 4594W        W77019  34.462   5.166  12.626
 4595W        W77020  38.402  43.972   0.237
 4596W        W77021  23.724  24.514   0.227
 4597W        W77022  32.019  13.092   1.877
 4598W        W77023  19.720   8.476  14.280
 4599W        W77024  33.435  27.195   3.847
 4600W        W77025  43.463   5.011  13.627
 4601W        W77026  28.986  22.591   3.698
 4602W        W77027  27.189  31.483  12.241
 4603W        W77028  44.209  30.625  14.797
 4604W        W77029   8.973  23.685   1.755
 4605W        W77030  25.610   6.187   3.239
 4606W        W77031  38.913  35.709   3.096
 4607W        W77032  11.591  21.975   0.484
 4608W        W77033  21.724  24.663  14.824
 4609W        W77034  28.496  23.539  13.826
 4610W        W77035  35.800   5.377  14.643
 4611W        W77036  14.814  34.499   1.229
 4612W        W77037  35.350  16.692  12.497
 4613W        W77038  24.105   9.837  13.174
 4614W        W77039   1.585  39.517  13.757
 4615W        W77040  27.476  25.962   1.274
 4616W        W77041  37.267  44.373  12.713
 4617W        W77042   2.756   1.737   4.648
 4618W        W77043   7.392  16.641   4.776
 4619W        W77044  36.915  14.583   4.759
 4620W        W77045  38.728   4.333   4.686
 4621W        W77046   8.617  39.045  13.565
 4622W        W77047   5.129  10.685   1.275
 4623W        W77048  20.173  36.979  10.553
 4624W        W77049  42.334  17.724   3.347
 4625W        W77050  43.834  28.918   4.478
 4626W        W77051  24.623  12.657  13.804
 4627W        W77052  24.863  42.597   2.784
 4628W        W77053  26.670   8.052  11.604
 4629W        W77054  27.711   0.535  11.867
 4630W        W77055  38.338  36.120  12.557
 4631W        W77056   7.469  26.565  12.018
 4632W        W77057  32.374  30.057   1.556
 4633W        W77058  33.469  13.818  10.750
 4634W        W77059   5.191  14.109   3.690
 4635W        W77060  41.533  44.352   2.669
 4636W        W77061   6.091  34.091   0.781
 4637W        W77062  42.579  16.291   3.934
 4638W        W77063  17.227  37.764   3.180
 4639W        W77064   6.392  25.050   1.688
 4640W        W77065   6.431  23.738  10.769
 4641W        W77066  18.970  10.660  14.321
 4642W        W77067   5.881   8.586  13.860
 4643W        W77068  31.409   4.106  11.077
 4644W        W77069   7.276  43.907  10.698
 4645W        W77070   3.193   6.364   3.293
 4646W        W77071  42.942  43.058   1.881
 4647W        W77072  31.944   4.227  13.264
 4648W        W77073  18.743  18.767  11.203
 4649W        W77074  12.577   2.428  12.871
 4650W        W77075  42.316  39.897  14.431
 4651W        W77076  36.435  13.511   2.911
 4652W        W77077  41.111   5.826   4.348
 4653W        W77078  43.431  19.099   4.720
 4654W        W77079  40.768  20.281   0.600
 4655W        W77080  36.961  23.742  10.557
 4656W        W77081  33.303  19.294  11.549
 4657W        W77082  12.642   9.503  13.392
 4658W        W77083  41.804  37.354  13.250
 4659W        W77084  27.673  24.132   4.380
 4660W        W77085  25.277  11.347  12.252
 4661W        W77086  39.561   8.356  13.016
 4662W        W77087  27.507   7.732  10.749
 4663W        W77088   5.206  24.523  14.528
 4664W        W77089  37.520  38.332  10.677
 4665W        W77090  21.311  19.596   2.273
 4666W        W77091  18.419   2.812   2.277
 4667W        W77092   7.169  19.634   2.232
 4668W        W77093  39.797  26.120  10.612
 4669W        W77094  35.656  24.126   1.288
 4670W        W77095   7.936  43.427   2.337
 4671W        W77096  15.314  15.775  13.562
 4672W        W77097  38.930  17.912   1.733
 4673W        W77098   3.666   5.366  14.000
 4674W        W77099  16.883   4.810   1.116
 4675W        W77100  15.994  10.366  14.895
 4676W        W77101  19.050  11.562   0.771
 4677W        W77102   6.749  19.360   3.594
 4678W        W77103  12.305  10.728  10.762
 4679W        W77104   8.761  26.325   2.881
 4680W        W77105   2.084   4.938   4.519
 4681W        W77106  18.003  31.355   1.679
 4682W        W77107  31.055  37.466   3.942
 4683W        W77108  16.553  36.847   2.986
 4684W        W77109   7.520   1.392   4.440
 4685W        W77110  10.356  35.569  11.533
 4686W        W77111  43.561  34.862   2.410
 4687W        W77112  31.721  37.955  13.044
 4688W        W77113   5.338   1.750  14.812
 4689W        W77114  39.559  17.832   0.696
 4690W        W77115  35.855  32.928   3.714
 4691W        W77116  20.751   1.381   3.611
 4692W        W77117  29.725  30.500  11.144
 4693W        W77118  44.315   9.585  13.074
 4694W        W77119   8.110  22.972   1.445
 4695W        W77120  21.238  25.478  12.455
 4696W        W77121  16.702   2.059  11.215
 4697W        W77122   1.054  26.062  11.809
 4698W        W77123  10.737   6.586   5.866
 4699W        W77124   8.973  30.846  12.999
 4700W        W77125  31.391  30.123  12.969
 4701W        W77126  35.651  17.443  11.011
 4702W        W77127  23.952   1.744   3.389
 4703W        W77128   7.991   7.269   4.971
 4704W        W77129  31.432  35.150  10.649
 4705W        W77130  38.073  14.776   4.591
 4706W        W77131  10.144  32.845  12.127
 4707W        W77132  10.062  41.483  10.157
 4708W        W77133   3.894  28.030  10.935
 4709W        W77134  20.280  12.988  13.141
 4710W        W77135   0.291  10.604   1.247
 4711W        W77136  32.616   2.705   4.232
 4712W        W77137  42.090  33.062  11.612
 4713W        W77138  12.160  21.892   1.683
 4714W        W77139  39.572  12.809   1.387
 4715W        W77140  41.352  42.863  12.171
 4716W        W77141  36.616  31.701   0.667
 4717W        W77142  36.545  24.523  14.751
 4718W        W77143  22.252  25.920  13.066
 4719W        W77144  36.248  19.771   4.953
 4720W        W77145  43.599  36.833  12.710
 4721W        W77146  37.953  28.425  12.485
 4722W        W77147  42.539  15.869   2.868
 4723W        W77148  20.643  13.340  10.557
 4724W        W77149  16.332   0.958  14.442
 4725W        W77150  11.371  24.447  13.977
 4726W        W77151  18.739   0.921   5.239
 4727W        W77152   1.491  25.604   1.936
 4728W        W77153  43.400  20.576  14.436
 4729W        W77154  23.425  16.815   2.003
 4730W        W77155  17.569  39.225   4.676
 4731W        W77156  29.472  33.959  10.523
 4732W        W77157  40.332  26.176   5.065
 4733W        W77158   5.865   4.409   0.857
 4734W        W77159  28.048  37.139  11.600
 4735W        W77160   2.073   9.132   2.353
 4736W        W77161  43.295  28.395  13.568
 4737W        W77162   0.172  15.601  14.004
 4738W        W77163  10.357  42.665  12.761
 4739W        W77164  23.533  17.122   4.628
 4740W        W77165   1.674  36.753  12.897
 4741W        W77166  30.696  17.752   3.330
 4742W        W77167  34.351  21.047  11.638
 4743W        W77168  35.848  25.541   4.193
 4744W        W77169  42.292  22.682  12.549
 4745W        W77170  21.524  11.177   4.593
 4746W        W77171  15.127  25.131   3.592
 4747W        W77172  40.895  15.117   0.987
 4748W        W77173   1.417   1.774  10.648
 4749W        W77174   0.613  33.646   1.943
 4750W        W77175   7.893  34.558  10.702
 4751W        W77176  16.185  37.873  10.640
 4752W        W77177  39.103  38.660   1.453
 4753W        W77178  17.598  21.579   1.727
 4754W        W77179  33.665  28.459  13.485
 4755W        W77180  28.466  32.988  12.924
 4756W        W77181  35.944  37.965  14.014
 4757W        W77182   1.723  21.069   1.805
 4758W        W77183  31.906  29.004   0.004
 4759W        W77184  23.182   1.133  11.653
 4760W        W77185   3.408  42.760   3.689
 4761W        W77186  38.416   5.173   0.028
 4762W        W77187  43.933  39.458  13.019
 4763W        W77188  24.903   4.533  14.858
 4764W        W77189  37.780  40.336  13.348
 4765W        W77190  36.334  16.819  14.395
 4766W        W77191   8.964   1.958  12.083
 4767W        W77192   7.277  30.373   0.453
 4768W        W77193   9.835  37.627  14.887
 4769W        W77194   7.939  34.896   0.479
 4770W        W77195  39.309   2.438   3.243
 4771W        W77196  24.994   4.925   0.463
 4772W        W77197  15.165   6.317  12.153
 4773W        W77198   8.430  43.013  12.114
 4774W        W77199  16.296  39.851  12.967
 4775W        W77200  27.045  12.087   0.280
 4776W        W77201   3.354  37.518  12.553
 4777W        W77202  41.977  26.808  14.517
 4778W        W77203  35.549  37.985   0.792
 4779W        W77204   1.006   4.816   4.088
 4780W        W77205  39.182   1.366  14.831
 4781W        W77206   4.741   6.690  11.861
 4782W        W77207  11.099  23.648   3.843
 4783W        W77208  42.386  21.072   0.245
 4784W        W77209  32.562  34.330   3.300
 4785W        W77210  39.041   5.419  13.431
 4786W        W77211  31.919   5.214  10.729
 4787W        W77212  42.436  35.507   2.873
 4788W        W77213  30.244  14.761  11.179
 4789W        W77214  19.343  43.765   4.856
 4790W        W77215  44.008   9.357  10.591
 4791W        W77216   9.813  10.263  11.839
 4792W        W77217  32.239  32.764  14.042
 4793W        W77218  19.235  20.477   4.347
 4794W        W77219  40.944  33.602   1.198
 4795W        W77220  42.457  37.035   2.823
 4796W        W77221  34.289  31.488   2.350
 4797W        W77222  25.499  36.502  12.040
 4798W        W77223  27.881  20.823   2.766
 4799W        W77224  15.432   5.094   3.271
 4800W        W77225   9.934  40.127   1.323
 4801W        W77226  38.257  15.810  11.937
 4802W        W77227  12.156  24.170  12.215
 4803W        W77228  38.423  44.289   3.619
 4804W        W77229  36.466  15.799   2.317
 4805W        W77230  37.795  37.311  13.469
 4806W        W77231  21.632  35.878  10.291
 4807W        W77232   8.372   2.838  10.754
 4808W        W77233   6.454  18.489   0.858
 4809W        W77234   3.831  39.215   4.583
 4810W        W77235  17.143  20.974   0.162
 4811W        W77236   5.558  20.314   4.145
 4812W        W77237  33.409  28.683   0.539
 4813W        W77238  12.316  16.645  12.096
 4814W        W77239  36.453  16.334   2.266
 4815W        W77240  32.578  20.682   2.462
 4816W        W77241  25.726  29.902  12.864
 4817W        W77242  27.440  31.934  13.995
 4818W        W77243   5.910  29.631  11.187
 4819W        W77244  33.502   7.656  12.481
 4820W        W77245  33.160   8.793  11.151
 4821W        W77246   3.237  34.906   0.819
 4822W        W77247  27.942  27.676   0.637
 4823W        W77248  16.567  43.812  13.965
 4824W        W77249  19.765  20.139   0.893
 4825W        W77250  23.795  40.446   3.835
 4826W        W77251  36.909  31.879   2.981
 4827W        W77252   0.928  40.467  14.041
 4828W        W77253   5.597  42.306   0.742
 4829W        W77254  27.104  26.905   0.758
 4830W        W77255  21.541  32.088   4.811
 4831W        W77256  40.156  20.029   2.872
 4832W        W77257  39.629  32.111  13.470
 4833W        W77258  20.142  27.152   4.025
 4834W        W77259   1.516   3.490   0.192
 4835W        W77260   1.770   1.878   0.793
 4836W        W77261  14.732  21.232   1.622
 4837W        W77262  37.110  25.974   0.385
 4838W        W77263  41.067  19.287  14.389
 4839W        W77264  30.920   7.328   3.714
 4840W        W77265  39.856  24.427   2.185
 4841W        W77266  10.845  14.995  10.768
 4842W        W77267  44.125  10.878  13.354
 4843W        W77268   9.311   3.987  12.437
 4844W        W77269  37.978  42.490  12.540
 4845W        W77270  23.959  40.891  13.759
 4846W        W77271  16.282  11.716  11.382
 4847W        W77272  27.914  38.763   3.291
 4848W        W77273  10.013   0.916   4.336
 4849W        W77274   6.130  23.799  13.897
 4850W        W77275   6.188  10.363   1.390
 4851W        W77276  27.915  20.128   3.654
 4852W        W77277   6.038  39.655   3.893
 4853W        W77278  11.365   3.417   3.312
 4854W        W77279  16.127  33.097  13.363
 4855W        W77280   8.736  27.585  10.781
 4856W        W77281   7.426  41.999   2.696
 4857W        W77282  34.455  28.904   2.006
 4858W        W77283  18.991  21.975  11.086
 4859W        W77284  22.735  30.584   0.644
 4860W        W77285  33.284   7.986   2.658
 4861W        W77286   6.844  24.675   1.046
 4862W        W77287  24.975   4.220  11.841
 4863W        W77288  40.406  30.159  13.836
 4864W        W77289  27.024  16.698  13.771
 4865W        W77290  24.719   4.882  12.042
 4866W        W77291  30.457  15.229  12.830
 4867W        W77292  43.233   0.716  11.555
 4868W        W77293  37.981  31.209  14.944
 4869W        W77294  25.769  40.525   9.896
 4870W        W77295  15.643  10.999  11.852
 4871W        W77296  28.676  42.617   2.756
 4872W        W77297  30.075  43.480  10.476
 4873W        W77298  29.425  41.972   4.136
 4874W        W77299  13.583   6.896  10.714
 4875W        W77300  25.808  35.964   1.911
 4876W        W77301  17.980  23.665  11.009
 4877W        W77302  31.051  41.925   1.340
 4878W        W77303  30.433   0.145  14.171
 4879W        W77304   7.579  27.436  14.842
 4880W        W77305  24.292  33.913  14.441
 4881W        W77306  19.702  34.742   0.378
 4882W        W77307  21.702  35.010   1.851
 4883W        W77308  42.739  31.633   2.654
 4884W        W77309  16.345  25.492  14.459
 4885W        W77310  22.081  26.704   3.222
 4886W        W77311  22.119   8.371  12.486
 4887W        W77312  29.593  15.637  14.561
 4888W        W77313  22.270  26.204  14.331
 4889W        W77314  14.383  24.570   5.157
 4890W        W77315  28.573  17.165  13.235
 4891W        W77316  23.740  19.087   2.841
 4892W        W77317  16.475  44.178   3.045
 4893W        W77318  32.570  35.832   4.361
 4894W        W77319   6.771  26.710  14.288
 4895W        W77320  22.095  23.244   0.867
 4896W        W77321  37.983  10.333   0.442
 4897W        W77322  33.219  32.619   3.199
 4898W        W77323   8.188  40.476  11.579
 4899W        W77324   6.302  26.434  12.011
 4900W        W77325  36.465  36.466  12.067
 4901W        W77326   4.927   4.257  12.781
 4902W        W77327  15.206   8.331   3.576
 4903W        W77328  33.978  17.524   0.899
 4904W        W77329  36.762  25.935   3.127
 4905W        W77330  13.302  30.227  13.917
 4906W        W77331  13.351  29.636   1.787
 4907W        W77332  41.906  16.658  13.538
 4908W        W77333  25.190  28.509   4.590
 4909W        W77334   3.058  37.342  12.957
 4910W        W77335  10.662  43.382   0.018
 4911W        W77336  43.379  36.790   1.408
 4912W        W77337  37.473  26.515   3.239
 4913W        W77338  12.743  22.681   1.453
 4914W        W77339  32.370   2.882   0.911
 4915W        W77340  11.782  12.066  10.551
 4916W        W77341  44.365  11.090  12.934
 4917W        W77342  34.010  29.631  12.025
 4918W        W77343  19.233  14.058   3.738
 4919W        W77344  36.374   2.367   1.992
 4920W        W77345  18.832  23.006  13.935
 4921W        W77346   6.874  35.133   2.718
 4922W        W77347   8.688  37.266  11.505
 4923W        W77348  16.293   1.318  10.484
 4924W        W77349  34.346  20.633   1.408
 4925W        W77350  30.435   5.438  14.918
 4926W        W77351  12.823  22.736  12.579
 4927W        W77352   4.662  14.549   4.435
 4928W        W77353  36.944  15.529   2.288
 4929W        W77354  23.710   9.624  14.171
 4930W        W77355  23.207  22.640   2.257
 4931W        W77356  15.161  44.455   1.431
 4932W        W77357  18.658  10.893   4.605
 4933W        W77358  12.384  19.268  12.933
 4934W        W77359  10.346  19.507   5.236
 4935W        W77360   8.381  18.027  11.000
 4936W        W77361  32.333  42.890  14.156
 4937W        W77362   4.768  11.589   4.636
 4938W        W77363   7.813  40.803   3.576
 4939W        W77364  35.577   9.853   1.377
 4940W        W77365  44.228  35.171  14.290
 4941W        W77366   9.928  29.223   3.666
 4942W        W77367   8.485   9.130   1.756
 4943W        W77368  12.077  31.928   1.059
 4944W        W77369  13.050  29.846  11.123
 4945W        W77370  25.878  40.267  13.474
 4946W        W77371  17.678   0.429   0.921
 4947W        W77372  18.295  30.978   1.911
 4948W        W77373   2.712   2.847  11.114
 4949W        W77374   4.031   4.496   4.829
 4950W        W77375  43.801   2.768   4.814
 4951W        W77376  20.293  31.991  11.056
 4952W        W77377  13.766  12.447  12.783
 4953W        W77378  10.710  38.445   0.893
 4954W        W77379  36.338  10.213  12.077
 4955W        W77380  35.903  19.715  11.062
 4956W        W77381   5.302  21.163   0.669
 4957W        W77382  26.464   5.160  12.442
 4958W        W77383  38.369  23.551  10.635
 4959W        W77384   8.999   0.354  12.938
 4960W        W77385  44.864   3.172  13.009
 4961W        W77386  22.413  20.852  10.835
 4962W        W77387  42.500   1.959   1.523
 4963W        W77388   1.184  15.686  13.905
 4964W        W77389  37.939  35.405   4.386
 4965W        W77390  41.454   1.610  11.451
 4966W        W77391  15.606   1.449  13.326
 4967W        W77392  26.691  10.002  13.097
 4968W        W77393  13.739  25.238  10.815
 4969W        W77394  29.124  36.315  11.213
 4970W        W77395  16.657  25.644   2.582
 4971W        W77396  41.986  30.106   4.822
 4972W        W77397  21.553  36.067  12.412
 4973W        W77398  19.087  14.177  10.904
 4974W        W77399   0.298   4.244  12.001
 4975W        W77400  12.252  15.822  14.307
 4976W        W77401  15.691  34.400   9.820
 4977W        W77402   2.657  20.763   2.314
 4978W        W77403  39.123  29.906  13.306
 4979W        W77404   9.264  32.698  13.612
 4980W        W77405  16.390   1.465  12.889
 4981W        W77406  37.377  35.284   5.097
 4982W        W77407  19.642  26.671   1.306
 4983W        W77408  32.270  30.016  10.735
 4984W        W77409  10.871  22.276  14.866
 4985W        W77410  42.142   7.928  13.790
 4986W        W77411  38.667  17.189   4.667
 4987W        W77412  31.025  36.863   1.860
 4988W        W77413  27.408  21.198  12.621
 4989W        W77414  17.629  15.771  10.687
 4990W        W77415   7.173  28.109  10.735
 4991W        W77416   7.201  39.307   2.244
 4992W        W77417  18.542  31.577  12.632
 4993W        W77418  11.823  10.781  11.011
 4994W        W77419  30.505  24.949  10.774
 4995W        W77420  21.176  24.449   1.449
 4996W        W77421  32.741   0.312   1.957
 4997W        W77422  33.544  39.121  13.458
 4998W        W77423  33.850  14.820  13.239
 4999W        W77424   6.641  37.326  14.301
 5000W        W77425   8.227  30.986   0.475
 5001W        W77426  21.195  13.243  10.639
 5002W        W77427  32.653  41.353  14.408
 5003W        W77428  23.442  14.636  13.794
 5004W        W77429   9.405  23.977   2.876
 5005W        W77430  12.218   5.166  12.473
 5006W        W77431  21.214  17.086   4.242
 5007W        W77432  36.487  25.062  12.621
 5008W        W77433  32.462  44.427  12.625
 5009W        W77434  24.222   5.177   3.701
 5010W        W77435  43.469  32.866   4.737
 5011W        W77436  19.914   7.293   3.765
 5012W        W77437   8.612  44.948   2.824
 5013W        W77438   0.243  32.888   2.657
 5014W        W77439  34.392   3.471  12.166
 5015W        W77440  43.365  31.913   0.001
 5016W        W77441   2.281   5.319   2.248
 5017W        W77442  37.956  18.126   1.343
 5018W        W77443  22.843  29.719  12.943
 5019W        W77444  21.063  26.550   0.359
 5020W        W77445  37.929  31.861   2.744
 5021W        W77446  38.539   1.423   2.344
 5022W        W77447   4.654   2.403   2.309
 5023W        W77448  12.863  21.099   2.677
 5024W        W77449  16.220   7.638  13.564
 5025W        W77450  12.185  11.388  12.400
 5026W        W77451  24.490   5.218   2.170
 5027W        W77452  38.441  36.331   3.159
 5028W        W77453  18.531  38.286   2.788
 5029W        W77454   3.438   2.736  11.448
 5030W        W77455  43.510  23.674  11.684
 5031W        W77456  22.613  20.579   1.001
 5032W        W77457  18.178   5.477   3.187
 5033W        W77458  10.784   6.002   3.763
 5034W        W77459   8.330  40.490  14.977
 5035W        W77460  41.297   5.254   1.187
 5036W        W77461  32.872  24.533  10.691
 5037W        W77462  18.742  20.946   3.618
 5038W        W77463   6.610  28.662   2.260
 5039W        W77464  15.715  20.094  14.382
 5040W        W77465  35.686  18.249  12.906
 5041W        W77466  30.893  32.037   3.133
 5042W        W77467   6.478  31.654   1.188
 5043W        W77468  25.774  23.908   0.371
 5044W        W77469  30.972   6.366   0.415
 5045W        W77470  25.467   1.981  11.162
 5046W        W77471   9.759  16.669   4.338
 5047W        W77472   4.007  37.669   3.239
 5048W        W77473   5.445  12.732   0.219
 5049W        W77474  13.199  20.682   4.333
 5050W        W77475  21.753  37.925   0.505
 5051W        W77476  22.568   3.201   4.972
 5052W        W77477   3.043  18.183  10.684
 5053W        W77478  11.335  13.750   1.948
 5054W        W77479   9.861  31.316   4.549
 5055W        W77480  20.652  15.886  12.574
 5056W        W77481  19.534  14.496   3.724
 5057W        W77482  31.439  26.970  13.906
 5058W        W77483  37.871  30.033  11.600
 5059W        W77484   8.144  21.478   4.060
 5060W        W77485  21.963  39.514  11.903
 5061W        W77486  18.681  28.829   5.130
 5062W        W77487  37.968   5.149   3.592
 5063W        W77488  22.556  37.092   3.374
 5064W        W77489  33.455   9.976   4.300
 5065W        W77490  43.023  22.725  12.889
 5066W        W77491  17.284  19.064   1.192
 5067W        W77492  44.542  24.078  14.274
 5068W        W77493  23.201  24.565   1.463
 5069W        W77494  38.001  22.637   0.855
 5070W        W77495  25.233  27.047  11.127
 5071W        W77496  40.131  35.094   4.885
 5072W        W77497  41.125  39.212   2.622
 5073W        W77498  40.286  27.517   4.192
 5074W        W77499  22.089  21.742  13.894
 5075W        W77500  14.810   1.757   2.718
 5076W        W77501  17.954  23.560   3.620
 5077W        W77502  37.773  41.125  12.004
 5078W        W77503  36.989  18.046   0.327
 5079W        W77504  42.579  28.949  14.932
 5080W        W77505  11.866   9.056   4.134
 5081W        W77506  26.118  44.960  11.570
 5082W        W77507  25.558  33.147   2.724
 5083W        W77508  35.608  30.022  13.531
 5084W        W77509  35.597  27.428  12.524
 5085W        W77510  38.237   0.727   0.527
 5086W        W77511  23.702   1.378   3.695
 5087W        W77512  12.665  43.824   4.257
 5088W        W77513   2.478  34.981  10.760
 5089W        W77514  21.284  14.311   1.903
 5090W        W77515  32.903   9.786  11.642
 5091W        W77516   5.806  37.382  13.381
 5092W        W77517  18.143   2.955  12.519
 5093W        W77518  43.448  33.139   3.247
 5094W        W77519  18.338   4.730   3.621
 5095W        W77520  27.814  14.318  13.894
 5096W        W77521  37.571  41.417   1.764
 5097W        W77522  25.369  26.550  14.780
 5098W        W77523  41.072   5.840  14.426
 5099W        W77524  20.045   8.376  10.731
 5100W        W77525  30.128   2.051  13.914
 5101W        W77526   2.188  28.891   4.021
 5102W        W77527  18.565  43.428   3.238
 5103W        W77528  42.767  34.315   4.106
 5104W        W77529  14.511  28.395  11.619
 5105W        W77530  39.835  14.890  13.991
 5106W        W77531  10.857  13.691   1.143
 5107W        W77532   0.399  22.590  13.379
 5108W        W77533  33.537  14.053   2.695
 5109W        W77534  34.047  39.433  10.870
 5110W        W77535   0.111  17.711  14.566
 5111W        W77536  15.723  25.606  13.128
 5112W        W77537   6.143  27.175   4.118
 5113W        W77538  42.504  36.076   3.576
 5114W        W77539  39.851  21.116   4.545
 5115W        W77540  25.462  17.317  12.044
 5116W        W77541   8.986  41.045  14.445
 5117W        W77542  40.242   6.865  11.453
 5118W        W77543  27.474   6.919   1.791
 5119W        W77544  26.115  33.613  13.367
 5120W        W77545  39.064  25.872   2.689
 5121W        W77546  14.959  13.318   1.030
 5122W        W77547  14.086  31.070  14.788
 5123W        W77548  21.570   9.102  12.064
 5124W        W77549  38.450   4.981  14.025
 5125W        W77550   9.360   7.153  14.421
 5126W        W77551   0.544  20.552   3.214
 5127W        W77552  32.889  20.161   4.619
 5128W        W77553   8.309  12.221   1.447
 5129W        W77554  21.347  11.395  13.824
 5130W        W77555  19.715  43.709   2.253
 5131W        W77556  43.929   5.385  11.102
 5132W        W77557  29.213  31.538   1.248
 5133W        W77558  25.232  15.576  13.544
 5134W        W77559  31.021  43.249   3.896
 5135W        W77560  17.780  33.098   2.582
 5136W        W77561   7.882  16.760   2.586
 5137W        W77562   4.151  17.815  13.632
 5138W        W77563  43.072   8.708  12.662
 5139W        W77564   6.175  34.556  14.463
 5140W        W77565  28.232   2.606  14.765
 5141W        W77566  23.050  16.037   2.024
 5142W        W77567  19.613  43.954   1.229
 5143W        W77568  41.064   7.823  11.031
 5144W        W77569  23.706   6.464  12.045
 5145W        W77570  20.687   6.750  10.655
 5146W        W77571  35.887   1.966   2.188
 5147W        W77572  41.499  22.077  11.793
 5148W        W77573  28.404  44.417   4.162
 5149W        W77574  30.255  33.063  10.994
 5150W        W77575  30.504  17.117  13.024
 5151W        W77576  30.455  19.267  11.477
 5152W        W77577  22.328  32.844   0.096
 5153W        W77578   2.962  28.808  11.440
 5154W        W77579   0.206  14.108   0.698
 5155W        W77580   2.043   1.836   4.115
 5156W        W77581  27.219  17.634   4.394
 5157W        W77582  38.443   1.507  14.289
 5158W        W77583  18.728  16.049  11.989
 5159W        W77584   1.324   2.236   2.845
 5160W        W77585  40.752  33.473  11.516
 5161W        W77586  35.678  40.479  14.847
 5162W        W77587   6.657  42.320  10.988
 5163W        W77588  13.666  37.984  12.323
 5164W        W77589  44.348   9.368  12.601
 5165W        W77590  38.501  25.125   9.977
 5166W        W77591  43.803  34.620   0.722
 5167W        W77592  19.739  37.043  13.967
 5168W        W77593  44.332  23.241  11.167
 5169W        W77594  36.317  27.400   1.302
 5170W        W77595   2.339  32.068   3.139
 5171W        W77596   6.554  13.109  11.643
 5172W        W77597  41.334  14.063   3.415
 5173W        W77598  23.173   1.795  13.358
 5174W        W77599   0.898  13.656   4.237
 5175W        W77600   0.689  24.200   0.415
 5176W        W77601  33.190  36.490   1.308
 5177W        W77602   3.153   1.011  13.906
 5178W        W77603  26.141  18.016  10.938
 5179W        W77604  21.426  19.766   3.140
 5180W        W77605  44.205   2.461   1.285
 5181W        W77606  37.409  20.661  14.459
 5182W        W77607   8.162  36.478  14.237
 5183W        W77608  38.459  11.169  14.095
 5184W        W77609  16.957  14.037   9.949
 5185W        W77610   9.280  33.164  12.194
 5186W        W77611  30.478  22.750  13.436
 5187W        W77612  29.605  22.003   4.258
 5188W        W77613  43.714  18.212   4.990
 5189W        W77614  18.823  37.390   4.182
 5190W        W77615  16.150  44.100  13.925
 5191W        W77616  12.742  10.398  11.544
 5192W        W77617  10.090   5.417   4.212
 5193W        W77618  18.216  43.509   3.901
 5194W        W77619   1.727  25.497  14.658
 5195W        W77620  25.579  33.084  14.917
 5196W        W77621  10.230   3.491  12.846
 5197W        W77622  13.794  29.109  10.946
 5198W        W77623   4.328  41.615   0.623
 5199W        W77624  17.811  16.312  11.846
 5200W        W77625  25.195  21.185   3.805
 5201W        W77626  44.506  43.291  14.814
 5202W        W77627  30.073  17.986   5.418
 5203W        W77628  27.949  44.449   1.347
 5204W        W77629  29.725  33.611   3.091
 5205W        W77630  27.430  18.794  13.724
 5206W        W77631  31.649   6.700   2.119
 5207W        W77632   0.442  24.461  13.028
 5208W        W77633   4.501  40.485   4.395
 5209W        W77634  44.342  28.373   0.263
 5210W        W77635   2.382   0.842  12.589
 5211W        W77636   7.792  28.729   3.309
 5212W        W77637  21.545  36.628  14.140
 5213W        W77638   9.152  13.812  10.738
 5214W        W77639   1.722  13.071  13.366
 5215W        W77640   0.826   3.203  13.972
 5216W        W77641  25.482  42.515   1.400
 5217W        W77642  29.461  31.639   3.598
 5218W        W77643  13.183   6.640  12.424
 5219W        W77644  32.824  28.641   4.205
 5220W        W77645  38.981   2.018   0.536
 5221W        W77646   8.248  31.496   4.623
 5222W        W77647  27.148  41.952  11.692
 5223W        W77648  18.048  20.445  10.448
 5224W        W77649   1.348   9.908  11.888
 5225W        W77650  24.723   3.857  14.538
 5226W        W77651  30.119  37.481  12.051
 5227W        W77652  33.952   7.732  11.668
 5228W        W77653  24.946  16.926   0.333
 5229W        W77654   4.198  35.203   2.398
 5230W        W77655  26.903  18.126   1.292
 5231W        W77656   6.354  28.426   1.755
 5232W        W77657   2.935  27.697   0.977
 5233W        W77658   1.427   5.633  10.710
 5234W        W77659  10.139  29.189  12.872
 5235W        W77660  38.206   4.157   3.815
 5236W        W77661  41.818  25.503   1.799
 5237W        W77662  30.417   6.674   3.119
 5238W        W77663  26.123  35.035   4.247
 5239W        W77664  11.362  39.572  11.040
 5240W        W77665   8.873   9.543   0.877
 5241W        W77666   6.271  35.241  13.175
 5242W        W77667  39.918  35.732  13.289
 5243W        W77668  36.573  19.743  10.395
 5244W        W77669   8.941  18.138   3.016
 5245W        W77670  31.028  32.709  10.751
 5246W        W77671  30.340  40.134  11.161
 5247W        W77672  44.534  29.662  14.871
 5248W        W77673   3.846  20.496   4.219
 5249W        W77674   5.677  22.678  11.524
 5250W        W77675  16.756  34.392   2.523
 5251W        W77676  34.000  37.622  11.026
 5252W        W77677  20.108  25.485   4.720
 5253W        W77678  31.397   3.404   0.001
 5254W        W77679  30.956  41.806   0.383
 5255W        W77680  41.947   3.615   0.286
 5256W        W77681  42.930  29.876  13.297
 5257W        W77682  38.325  24.378   4.085
 5258W        W77683  34.907  19.462   1.492
 5259W        W77684  43.614  38.257   1.364
 5260W        W77685  28.792   1.821   2.408
 5261W        W77686  11.304  27.714  13.816
 5262W        W77687   9.332  31.026   4.610
 5263W        W77688  38.102  33.909   4.081
 5264W        W77689  29.505  16.510   0.373
 5265W        W77690  32.560   0.841  14.504
 5266W        W77691  20.583   1.840   3.301
 5267W        W77692   0.305  34.788   0.433
 5268W        W77693  28.944  30.633   5.445
 5269W        W77694  35.576  17.737   1.689
 5270W        W77695  19.936  38.944   1.993
 5271W        W77696  33.274  28.427   3.635
 5272W        W77697  41.541   8.616   2.619
 5273W        W77698  15.622  10.326  12.986
 5274W        W77699  27.106   7.784   3.587
 5275W        W77700   2.262  36.394  13.869
 5276W        W77701  39.846   5.702   4.835
 5277W        W77702  28.452  22.484  11.584
 5278W        W77703   8.757   9.823  12.609
 5279W        W77704  36.992  39.067   3.559
 5280W        W77705  11.084  13.254   1.857
 5281W        W77706  32.900  30.010  14.066
 5282W        W77707  21.047   9.789  13.038
 5283W        W77708  37.748  42.747   2.370
 5284W        W77709  11.194  39.392  14.777
 5285W        W77710  34.102  17.433   4.218
 5286W        W77711  23.675  11.882   4.124
 5287W        W77712   7.201  21.842   4.853
 5288W        W77713  17.912   1.542   0.278
 5289W        W77714  42.387  38.875   0.963
 5290W        W77715  43.268  30.946   2.476
 5291W        W77716  20.199  12.789   1.503
 5292W        W77717  38.992  22.649  11.105
 5293W        W77718  38.288  20.521   1.155
 5294W        W77719  23.854  15.575  10.638
 5295W        W77720  37.128  11.976  11.392
 5296W        W77721  40.355   7.206  13.340
 5297W        W77722  18.366   1.745  10.047
 5298W        W77723  25.772  22.554   1.306
 5299W        W77724  13.059  29.165   2.772
 5300W        W77725  37.101  11.321   4.264
 5301W        W77726  41.482  34.880  12.969
 5302W        W77727   0.503  29.929  14.926
 5303W        W77728  34.764  29.463   3.932
 5304W        W77729  11.716   5.924  14.987
 5305W        W77730  18.174  40.449  11.736
 5306W        W77731  13.821   5.134  13.389
 5307W        W77732   9.821  39.361   4.831
 5308W        W77733  35.453  26.214   4.555
 5309W        W77734  16.296   5.246   1.265
 5310W        W77735   3.756  35.052   0.799
 5311W        W77736  24.535  29.220  14.550
 5312W        W77737   2.857  16.159   3.661
 5313W        W77738  31.242  40.518   0.740
 5314W        W77739  25.123  16.717   4.249
 5315W        W77740  41.421  10.273   1.731
 5316W        W77741  32.902  11.272  13.900
 5317W        W77742  40.769   9.355  11.149
 5318W        W77743  17.184  19.112  11.646
 5319W        W77744  31.309  27.095   2.851
 5320W        W77745  12.813   2.682   2.939
 5321W        W77746  16.767  16.089  11.121
 5322W        W77747  35.002   8.209   1.710
 5323W        W77748  18.259  29.586   5.020
 5324W        W77749  26.164   8.217   4.746
 5325W        W77750  10.219  26.010  12.106
 5326W        W77751   5.942  30.065   2.204
 5327W        W77752  26.897  29.008  12.801
 5328W        W77753  33.990  28.647  13.108
 5329W        W77754  41.543  41.244  11.028
 5330W        W77755  16.635  28.916  14.361
 5331W        W77756  32.529  21.811  11.192
 5332W        W77757  20.072  43.603  13.416
 5333W        W77758  37.444  35.538   4.238
 5334W        W77759  39.788   8.734   2.340
 5335W        W77760  34.947  27.924  12.961
 5336W        W77761  22.644  32.043  13.545
 5337W        W77762  33.725  44.298  11.517
 5338W        W77763  10.573  33.593  14.031
 5339W        W77764  43.429  34.946   0.536
 5340W        W77765  42.291  17.237  10.677
 5341W        W77766  21.279  31.264   3.785
 5342W        W77767   1.626  22.432   3.732
 5343W        W77768  21.588  24.505   1.749
 5344W        W77769  32.480   5.884  10.530
 5345W        W77770  28.965   4.414  13.376
 5346W        W77771  20.757  38.506  14.036
 5347W        W77772  16.175  30.692   1.716
 5348W        W77773   3.827  26.448  12.091
 5349W        W77774  40.466  26.377   2.072
 5350W        W77775  30.882  32.828   1.333
 5351W        W77776  23.761  18.424   0.366
 5352W        W77777  14.984  31.019   4.851
 5353W        W77778  13.277  22.675   3.165
 5354W        W77779  30.708  14.147   4.574
 5355W        W77780  33.266  32.943   4.002
 5356W        W77781  32.969  16.277  11.989
 5357W        W77782   4.802   1.362   4.082
 5358W        W77783   7.241  14.368   2.928
 5359W        W77784   7.399  30.717   2.687
 5360W        W77785  29.009  36.086   0.103
 5361W        W77786   2.673  37.301  14.254
 5362W        W77787  20.861  28.373   0.051
 5363W        W77788   1.855  33.609   1.878
 5364W        W77789  25.767  27.958  14.767
 5365W        W77790  19.697   7.552  12.014
 5366W        W77791   5.012  37.380   1.329
 5367W        W77792  41.843  19.794  11.461
 5368W        W77793  37.614  22.320  11.000
 5369W        W77794  32.175  44.842  13.323
 5370W        W77795  44.810  20.631  11.595
 5371W        W77796   7.634  21.539   0.514
 5372W        W77797  22.154  16.789   0.832
 5373W        W77798  38.321  23.547   1.981
 5374W        W77799  42.328  21.459  11.795
 5375W        W77800  33.850  38.965  13.061
 5376W        W77801   5.919  32.183  13.444
 5377W        W77802   5.382  26.394  13.521
 5378W        W77803   3.914   7.265  14.727
 5379W        W77804   1.899  23.135  14.435
 5380W        W77805  10.340  28.923   3.661
 5381W        W77806  12.734  23.109  14.435
 5382W        W77807  26.352  40.140  13.405
 5383W        W77808  37.723  36.515   1.860
 5384W        W77809  16.723  26.599   4.589
 5385W        W77810   1.452  27.079   0.032
 5386W        W77811   3.207  38.845  10.783
 5387W        W77812   5.978  18.422  12.340
 5388W        W77813   1.886  37.086  14.899
 5389W        W77814  20.554  11.867   4.544
 5390W        W77815  42.204  19.316  11.934
 5391W        W77816  24.785  32.360  11.139
 5392W        W77817  10.866   4.211  13.845
 5393W        W77818   7.981  36.386   4.194
 5394W        W77819   7.384  25.171   2.096
 5395W        W77820  43.895  10.705   4.609
 5396W        W77821   3.942  16.546   0.465
 5397W        W77822  15.777   8.678   2.178
 5398W        W77823   3.221   6.791   4.153
 5399W        W77824  38.573   8.441  12.685
 5400W        W77825  30.749  11.261   3.224
 5401W        W77826  17.908  41.094  13.828
 5402W        W77827  38.791  23.583   0.865
 5403W        W77828  12.618  41.612  11.190
 5404W        W77829  23.649  44.987   4.284
 5405W        W77830  22.689  16.708  12.180
 5406W        W77831  10.192  24.124   1.739
 5407W        W77832   0.175   2.439  13.842
 5408W        W77833  44.845  17.601   0.001
 5409W        W77834  33.413  25.163  11.174
 5410W        W77835  16.490  28.085   1.915
 5411W        W77836   7.800  29.035  11.276
 5412W        W77837  22.199  14.495  14.380
 5413W        W77838   5.529  15.819  12.455
 5414W        W77839   7.226  19.756   4.838
 5415W        W77840  25.047  34.908   1.496
 5416W        W77841  13.330   5.260  11.853
 5417W        W77842  28.511  23.215  12.304
 5418W        W77843  20.177  24.697  12.481
 5419W        W77844  10.188  39.596   4.537
 5420W        W77845  13.853   7.142   0.824
 5421W        W77846  24.776   2.895  11.013
 5422W        W77847  16.264  11.471   4.486
 5423W        W77848  23.262  42.313   3.840
 5424W        W77849   6.632   0.738   2.574
 5425W        W77850  28.212  36.987  14.422
 5426W        W77851  11.378  28.427   1.132
 5427W        W77852  24.291  40.878   0.963
 5428W        W77853   8.695  40.983   2.794
 5429W        W77854  12.532  13.315   4.564
 5430W        W77855  15.210  37.888  13.240
 5431W        W77856  40.108   2.229  12.003
 5432W        W77857  22.785  16.234   2.641
 5433W        W77858   5.993  21.414  11.277
 5434W        W77859  35.519  14.713   4.964
 5435W        W77860  21.108  17.279  12.025
 5436W        W77861  19.302  30.906  14.810
 5437W        W77862  25.138  18.995   3.218
 5438W        W77863  18.436  17.611  13.509
 5439W        W77864   0.955   5.114  12.756
 5440W        W77865  44.295  13.269  14.765
 5441W        W77866  42.511  10.319   0.723
 5442W        W77867  16.825  27.084   2.203
 5443W        W77868  13.911  39.980  12.690
 5444W        W77869  41.885  35.076   1.251
 5445W        W77870   0.789  25.015   0.793
 5446W        W77871  16.857  38.800   4.322
 5447W        W77872  42.052  20.567  12.547
 5448W        W77873   9.891  41.835   2.715
 5449W        W77874   3.917  29.160  11.948
 5450W        W77875  15.319   4.198  10.724
 5451W        W77876   6.845  14.359  13.391
 5452W        W77877  38.870  30.950   2.396
 5453W        W77878  17.671  25.443  14.863
 5454W        W77879   2.204  29.732   3.158
 5455W        W77880  12.110  15.303   0.646
 5456W        W77881   9.073  40.864  12.056
 5457W        W77882  44.975  44.749   3.761
 5458W        W77883  36.144  30.670  11.101
 5459W        W77884  16.310  40.759   4.648
 5460W        W77885   4.805  24.943   0.346
 5461W        W77886  34.537  42.378   4.801
 5462W        W77887  26.434   6.859   1.868
 5463W        W77888  15.801  15.076  13.365
 5464W        W77889  18.637  42.471   0.814
 5465W        W77890   4.909  22.250  11.466
 5466W        W77891  11.387  29.175  11.017
 5467W        W77892  17.735  12.828   0.908
 5468W        W77893  24.985   9.692   9.860
 5469W        W77894  18.895  17.811   2.861
 5470W        W77895  44.824   5.925   1.476
 5471W        W77896  24.640  31.040   3.636
 5472W        W77897  36.092  20.677   0.954
 5473W        W77898   6.014  16.452  13.827
 5474W        W77899  14.192   5.604  12.633
 5475W        W77900   7.743  33.857   2.424
 5476W        W77901   7.991  27.145   1.477
 5477W        W77902  30.987   0.989   2.662
 5478W        W77903   2.005  30.022  11.458
 5479W        W77904  43.856  15.138  14.911
 5480W        W77905   4.214  19.184   2.215
 5481W        W77906  43.741  14.916  11.298
 5482W        W77907  16.169  41.197   3.887
 5483W        W77908  32.639  19.118  12.014
 5484W        W77909  15.337  19.397   1.848
 5485W        W77910   6.803  17.013   0.217
 5486W        W77911  32.104  17.573  14.376
 5487W        W77912  39.366  12.823  12.067
 5488W        W77913   5.254  34.661  14.377
 5489W        W77914   4.993  18.049   0.792
 5490W        W77915  16.644  22.707  12.098
 5491W        W77916  24.164  28.999   4.554
 5492W        W77917  26.691   5.298   1.805
 5493W        W77918   9.830  22.574  11.940
 5494W        W77919  18.283  20.497  13.410
 5495W        W77920  14.012  13.563  12.143
 5496W        W77921  43.933   3.639   2.633
 5497W        W77922  22.799  44.490   4.151
 5498W        W77923  27.487  21.145   3.176
 5499W        W77924  27.170  34.062   1.626
 5500W        W77925  35.937  20.311   2.322
 5501W        W77926  34.957  31.345   3.718
 5502W        W77927  21.508   1.917   1.376
 5503W        W77928   4.897  31.037  14.955
 5504W        W77929  41.653  14.976  13.784
 5505W        W77930  41.697  30.646   0.662
 5506W        W77931   4.743  23.830   3.082
 5507W        W77932  37.306   6.144  10.627
 5508W        W77933  15.887  37.571  13.511
 5509W        W77934   7.644  37.311   1.814
 5510W        W77935  37.134  44.144   4.895
 5511W        W77936  40.853  39.260  10.661
 5512W        W77937  20.560  36.325  13.950
 5513W        W77938   8.331  18.746  14.601
 5514W        W77939  39.149  33.896  11.706
 5515W        W77940   8.948  28.469  12.538
 5516W        W77941  32.973  28.914   0.392
 5517W        W77942  28.009   1.229   2.882
 5518W        W77943  14.559  16.843  12.694
 5519W        W77944  15.637   6.812   1.642
 5520W        W77945  24.032   4.173   3.810
 5521W        W77946  26.157  42.533   3.343
 5522W        W77947  20.266   5.391  14.894
 5523W        W77948  37.878  20.264   0.970
 5524W        W77949   0.751  37.032   9.956
 5525W        W77950  12.624   9.827   4.148
 5526W        W77951  13.164  18.219  11.649
 5527W        W77952  39.763  24.478   3.607
 5528W        W77953  10.330  31.105   4.842
 5529W        W77954  39.871  39.612  11.448
 5530W        W77955  25.600  24.905   2.296
 5531W        W77956  25.104  16.907  12.930
 5532W        W77957  44.849   6.009   0.493
 5533W        W77958   4.213  27.218   3.110
 5534W        W77959   4.865  18.612   4.989
 5535W        W77960  39.784  27.679   4.147
 5536W        W77961   3.903  25.556  13.100
 5537W        W77962  35.843  44.929   2.189
 5538W        W77963   2.188   5.543  13.699
 5539W        W77964   7.271  12.535   4.225
 5540W        W77965  25.603  31.878   3.434
 5541W        W77966  34.454  10.613   5.098
 5542W        W77967  31.529  27.429   1.295
 5543W        W77968  42.061  10.905  11.603
 5544W        W77969  44.787  18.672  12.482
 5545W        W77970  33.961   2.736   3.562
 5546W        W77971  43.046  33.107   4.555
 5547W        W77972  21.465  21.635   3.609
 5548W        W77973  28.597  43.531   0.473
 5549W        W77974  15.409   3.512  12.626
 5550W        W77975  27.502  35.416  10.739
 5551W        W77976  39.633   2.412   1.136
 5552W        W77977  12.743   8.117  12.927
 5553W        W77978   8.691   5.278  12.847
 5554W        W77979   5.893  18.100  10.491
 5555W        W77980  27.051  44.991   2.304
 5556W        W77981  13.312  24.663  13.803
 5557W        W77982  21.760  37.485  12.966
 5558W        W77983   0.965  29.651   0.694
 5559W        W77984  31.401  44.287   0.340
 5560W        W77985  22.449  24.668   1.904
 5561W        W77986  10.599   6.714  13.326
 5562W        W77987   1.143   3.803   2.251
 5563W        W77988   2.883  18.506  11.542
 5564W        W77989   8.222  12.259   3.648
 5565W        W77990  18.036   2.703  10.189
 5566W        W77991  14.887  36.398   2.554
 5567W        W77992  20.040  17.829   0.355
 5568W        W77993  38.335  30.343   0.033
 5569W        W77994  29.197  42.776   0.882
 5570W        W77995  41.851   8.007   3.060
 5571W        W77996  19.020  44.496  11.684
 5572W        W77997   6.131   5.953   3.316
 5573W        W77998  42.621  16.518  14.794
 5574W        W77999  31.059  22.680   0.410
 5575W        W78000  30.632   4.080  13.799
 5576W        W78001  13.160  41.904  13.089
 5577W        W78002  40.524  12.390  14.459
 5578W        W78003  16.096  31.153   0.785
 5579W        W78004   0.258  18.298   3.250
 5580W        W78005  20.665  14.881  11.014
 5581W        W78006  30.966   9.916   3.316
 5582W        W78007  20.867  11.297  10.477
 5583W        W78008  31.657  21.736  10.720
 5584W        W78009   2.083  13.360   1.972
 5585W        W78010  28.574  24.077  10.801
 5586W        W78011  29.561   4.636   1.668
 5587W        W78012  10.866  16.198   3.192
 5588W        W78013   8.149   7.390   0.484
 5589W        W78014  13.672  40.364  13.880
 5590W        W78015  12.088  44.764   3.758
 5591W        W78016   1.982  10.668   3.135
 5592W        W78017  19.152  37.345   1.844
 5593W        W78018  23.613  37.054  13.410
 5594W        W78019   0.903  22.627   0.177
 5595W        W78020  38.397  22.074  10.596
 5596W        W78021  36.430  29.958   1.443
 5597W        W78022  19.276   1.491   1.928
 5598W        W78023   7.774  28.700   1.918
 5599W        W78024  39.638  40.854   4.890
 5600W        W78025   9.763  36.911   5.570
 5601W        W78026  28.529  35.905   4.232
 5602W        W78027  16.049  16.218  11.176
 5603W        W78028  27.193  24.583  11.722
 5604W        W78029  21.482  10.766   1.685
 5605W        W78030  39.186   1.880  12.231
 5606W        W78031  19.548  19.413   1.181
 5607W        W78032   5.169  29.032  11.255
 5608W        W78033  22.709   2.202   1.703
 5609W        W78034  36.960  22.464   3.786
 5610W        W78035  41.886  34.776  12.093
 5611W        W78036  33.605  34.467  13.571
 5612W        W78037   0.088  25.786  13.991
 5613W        W78038  32.972  27.619  14.777
 5614W        W78039  19.063  40.469  14.950
 5615W        W78040  13.348  42.974   3.045
 5616W        W78041  31.513  18.026  12.086
 5617W        W78042  25.054  31.153   1.410
 5618W        W78043  27.930  19.714   3.312
 5619W        W78044  32.377  34.984   2.722
 5620W        W78045  34.567  20.566  14.857
 5621W        W78046  24.297  33.592  10.628
 5622W        W78047  25.503  15.590  13.098
 5623W        W78048  37.085   1.360  11.559
 5624W        W78049   9.106   8.084  10.793
 5625W        W78050   1.878  41.832   2.335
 5626W        W78051  23.879  22.735  10.625
 5627W        W78052   3.212   2.928  11.940
 5628W        W78053  44.730  44.361   4.152
 5629W        W78054  21.967  42.939  14.341
 5630W        W78055  16.554  13.802   1.073
 5631W        W78056  29.812  17.637   5.102
 5632W        W78057  40.519  34.117   4.813
 5633W        W78058  10.173   8.848   2.412
 5634W        W78059  35.751  28.650   4.588
 5635W        W78060  13.654  34.340   1.017
 5636W        W78061  22.975  37.009   4.532
 5637W        W78062  34.275  29.625   0.888
 5638W        W78063  33.059  37.485   0.262
 5639W        W78064   4.903   1.284   2.109
 5640W        W78065  37.371  29.831  13.758
 5641W        W78066  11.117  25.772   3.294
 5642W        W78067  36.812   1.456   2.238
 5643W        W78068  23.092  35.171   2.769
 5644W        W78069  19.015  20.490   2.274
 5645W        W78070  15.264  17.455   2.243
 5646W        W78071  22.298  19.526  10.458
 5647W        W78072  35.429   6.723   1.484
 5648W        W78073  23.655  20.684  12.822
 5649W        W78074  43.092  27.555  12.445
 5650W        W78075  21.672   7.879  11.079
 5651W        W78076   6.350   6.840  14.421
 5652W        W78077   3.832  11.974   2.282
 5653W        W78078  35.481  33.611  11.947
 5654W        W78079  34.618  30.931  11.599
 5655W        W78080  32.606   7.031   2.621
 5656W        W78081  30.848  43.448   1.410
 5657W        W78082  18.141  17.565  14.947
 5658W        W78083   1.168  25.107   4.680
 5659W        W78084  16.749  40.064   0.735
 5660W        W78085  18.496  19.668   2.359
 5661W        W78086  36.080  40.257  14.498
 5662W        W78087  30.144  32.120   4.168
 5663W        W78088   2.473  27.982   3.709
 5664W        W78089  17.175  35.394  11.864
 5665W        W78090  36.565  20.753   2.899
 5666W        W78091  30.816   2.542   1.111
 5667W        W78092  22.780  32.763  10.737
 5668W        W78093  30.657  20.750  13.966
 5669W        W78094  16.008   6.865  10.801
 5670W        W78095  28.691  23.667   2.872
 5671W        W78096   6.457  14.458   2.417
 5672W        W78097   7.104  31.112  12.965
 5673W        W78098  43.221  30.133   3.396
 5674W        W78099  41.356  21.572   1.520
 5675W        W78100  12.334  21.473  14.821
 5676W        W78101  20.490  40.848  11.182
 5677W        W78102  39.014  30.990  10.855
 5678W        W78103  10.264  12.105  12.018
 5679W        W78104   3.509  31.570   3.373
 5680W        W78105  32.928   3.770   0.966
 5681W        W78106  38.904  32.594  11.437
 5682W        W78107  36.962  32.336  12.817
 5683W        W78108  25.064   9.468   1.004
 5684W        W78109  16.556  16.566  11.122
 5685W        W78110  28.572   6.178  10.547
 5686W        W78111  31.914  33.379   2.625
 5687W        W78112  26.431   0.776   2.478
 5688W        W78113  24.724  44.334   1.382
 5689W        W78114  15.138  27.969   1.894
 5690W        W78115   3.444  27.651   1.123
 5691W        W78116  43.506  38.484  12.035
 5692W        W78117  15.276   5.104  12.003
 5693W        W78118  12.304  44.366   2.581
 5694W        W78119  41.981  31.994   1.717
 5695W        W78120  35.118  14.797   3.573
 5696W        W78121  24.435  29.894   4.313
 5697W        W78122  34.869  25.052  14.484
 5698W        W78123  11.195  30.996   2.751
 5699W        W78124   5.224   4.405   3.273
 5700W        W78125  23.464  39.488  11.106
 5701W        W78126  26.707   5.936  14.952
 5702W        W78127  43.489   1.477   4.404
 5703W        W78128   6.853  18.410   1.185
 5704W        W78129  21.996   2.342   4.945
 5705W        W78130  28.114  35.354  14.815
 5706W        W78131  26.373  11.688   4.652
 5707W        W78132   4.801   3.721   3.700
 5708W        W78133   1.927   6.701  14.450
 5709W        W78134  33.104  16.706   4.764
 5710W        W78135  12.731   0.427   2.281
 5711W        W78136  28.233   4.443   4.744
 5712W        W78137  20.250   6.310  12.467
 5713W        W78138  22.390  16.443  12.948
 5714W        W78139  38.306  30.755  12.503
 5715W        W78140  11.964  31.056  11.955
 5716W        W78141  26.117  40.498   2.218
 5717W        W78142   3.823  27.558   4.704
 5718W        W78143  33.994  26.073   4.454
 5719W        W78144  17.286  41.548  14.309
 5720W        W78145   9.774   3.149   0.317
 5721W        W78146  42.264   5.415   3.419
 5722W        W78147  35.332  34.542   2.208
 5723W        W78148   9.252  32.346   3.946
 5724W        W78149  19.102  31.908   0.890
 5725W        W78150   2.942  14.173  11.933
 5726W        W78151   4.483  26.559  13.046
 5727W        W78152   7.220   6.458   0.808
 5728W        W78153  36.025  43.449  10.588
 5729W        W78154  39.983  36.070   1.675
 5730W        W78155  21.096  15.049  10.734
 5731W        W78156  22.768  12.267   2.204
 5732W        W78157  16.292  39.357  11.624
 5733W        W78158  15.812  40.240  14.313
 5734W        W78159  19.570  39.515  13.373
 5735W        W78160  44.981  17.166  10.398
 5736W        W78161  22.287  26.143   1.946
 5737W        W78162   5.341  19.682   2.374
 5738W        W78163  29.529  44.322  14.080
 5739W        W78164  43.623  25.900  11.943
 5740W        W78165  16.153  11.061   4.822
 5741W        W78166  17.306  43.362   0.245
 5742W        W78167   3.894  25.725   1.646
 5743W        W78168  15.823  15.203  11.079
 5744W        W78169  19.035  18.007   3.709
 5745W        W78170  36.063  29.654  13.071
 5746W        W78171  24.586  17.215   3.563
 5747W        W78172  38.103  20.846  14.290
 5748W        W78173  31.994  20.314   1.008
 5749W        W78174  39.456  34.671  14.369
 5750W        W78175  41.472  43.568   5.125
 5751W        W78176  22.127  39.384  14.251
 5752W        W78177  25.313  13.273   0.704
 5753W        W78178   8.440   8.155   0.749
 5754W        W78179  43.264  25.615  13.369
 5755W        W78180   1.503   3.704  14.094
 5756W        W78181   5.731  41.526  10.487
 5757W        W78182   5.667  16.594  13.416
 5758W        W78183  35.006   3.993   1.283
 5759W        W78184  38.005  30.888   1.793
 5760W        W78185  17.807   0.978   2.690
 5761W        W78186  30.649  33.250   2.303
 5762W        W78187  22.316   6.696   4.567
 5763W        W78188   8.845  40.331  12.188
 5764W        W78189  16.852  35.136  13.537
 5765W        W78190  39.325  33.889  14.951
 5766W        W78191  27.702  40.234   3.224
 5767W        W78192  20.040  40.265  11.578
 5768W        W78193   5.840  10.768  12.909
 5769W        W78194  28.583   2.382  13.946
 5770W        W78195  22.098  27.219  14.262
 5771W        W78196  23.559  19.182  14.589
 5772W        W78197  11.359  21.515  14.922
 5773W        W78198  11.788   3.897   2.413
 5774W        W78199  28.087  44.446   3.760
 5775W        W78200  18.287  31.590   0.723
 5776W        W78201  18.480   2.864   4.841
 5777W        W78202  20.115  33.441  13.967
 5778W        W78203  25.050  24.495  14.771
 5779W        W78204  36.455  14.400  12.462
 5780W        W78205  38.002  23.932   2.814
 5781W        W78206  28.839  18.823   3.262
 5782W        W78207  40.982  13.719   4.582
 5783W        W78208  42.505   0.923   1.319
 5784W        W78209  44.308  25.714  12.605
 5785W        W78210   3.899  21.273   2.939
 5786W        W78211  37.969  43.212   2.184
 5787W        W78212  22.767  40.602  14.170
 5788W        W78213  11.977   6.236   2.667
 5789W        W78214  24.558   1.566   0.909
 5790W        W78215  38.365  16.754  14.406
 5791W        W78216  42.775  13.731  14.117
 5792W        W78217  42.780  22.594  12.432
 5793W        W78218  18.325   2.141  11.381
 5794W        W78219  23.484  10.020  12.800
 5795W        W78220  19.159  44.573  12.580
 5796W        W78221  29.291  41.315  13.307
 5797W        W78222  25.112  19.515   3.173
 5798W        W78223   8.855  13.116  12.296
 5799W        W78224  25.189  26.901  12.077
 5800W        W78225  24.307  21.421  13.079
 5801W        W78226  26.458  19.586   4.967
 5802W        W78227   1.806  30.759   4.663
 5803W        W78228   3.922  32.827   4.218
 5804W        W78229  23.179  17.967  14.501
 5805W        W78230  38.074  37.123  10.714
 5806W        W78231  13.910  42.023   4.664
 5807W        W78232  13.342  25.956  10.718
 5808W        W78233  41.547  15.381  12.904
 5809W        W78234  41.088  35.714  11.376
 5810W        W78235  24.401  43.540  14.297
 5811W        W78236  35.547  31.847   3.290
 5812W        W78237   2.023  21.899  13.959
 5813W        W78238  37.943  18.013  11.597
 5814W        W78239  28.423   9.753   2.792
 5815W        W78240  18.336  23.810  14.415
 5816W        W78241  38.298   0.748  12.677
 5817W        W78242  21.732  39.559  12.377
 5818W        W78243  31.446   4.403  12.381
 5819W        W78244  32.088  44.719  11.064
 5820W        W78245  25.895  33.595   3.610
 5821W        W78246  37.118  30.860   0.286
 5822W        W78247  20.785   4.509  11.948
 5823W        W78248  33.382  31.960   3.296
 5824W        W78249  44.489   7.255   0.899
 5825W        W78250  14.336  38.142  11.191
 5826W        W78251  38.934  36.355  14.455
 5827W        W78252  29.478  12.372   0.406
 5828W        W78253  44.346  31.899   0.331
 5829W        W78254  20.573  28.425  14.585
 5830W        W78255  11.442   2.217   2.737
 5831W        W78256   1.745   4.019   0.169
 5832W        W78257  38.711   2.794  11.390
 5833W        W78258  29.531  16.903  14.034
 5834W        W78259  25.737   1.185  11.573
 5835W        W78260  43.936  29.511   3.425
 5836W        W78261  12.675  35.554   0.901
 5837W        W78262   7.307  37.856  14.882
 5838W        W78263  32.388  13.479  14.936
 5839W        W78264   3.485  16.119  12.561
 5840W        W78265  22.284  36.768  11.054
 5841W        W78266  10.295  12.512  12.928
 5842W        W78267  15.982  28.842  11.482
 5843W        W78268  36.214  17.175  12.935
 5844W        W78269   7.374  22.185  10.477
 5845W        W78270  34.431  27.395   2.963
 5846W        W78271  29.490  26.634   5.097
 5847W        W78272  17.470   6.771  13.505
 5848W        W78273  18.340   7.750  11.158
 5849W        W78274  18.737   9.399  13.426
 5850W        W78275   8.357  43.717  12.489
 5851W        W78276  36.384   3.559  11.606
 5852W        W78277  30.827  20.956   0.795
 5853W        W78278  17.329  29.189   2.434
 5854W        W78279   9.699  17.768   1.447
 5855W        W78280  40.963  35.794  12.232
 5856W        W78281  11.324  28.936  10.571
 5857W        W78282   7.396  25.280   1.597
 5858W        W78283  15.247  28.090  13.334
 5859W        W78284   3.598  20.199   0.405
 5860W        W78285  26.870  40.073   2.834
 5861W        W78286  22.316  32.873  11.969
 5862W        W78287  32.082  35.112   3.282
 5863W        W78288  44.371  44.618  14.390
 5864W        W78289  33.064   2.393  12.179
 5865W        W78290  23.229   6.542  13.556
 5866W        W78291  35.636  30.651   1.236
 5867W        W78292  43.755   3.039   4.330
 5868W        W78293  15.713  30.507   0.065
 5869W        W78294  34.319  41.950  14.789
 5870W        W78295   3.797   1.248  13.994
 5871W        W78296  28.107  23.153   1.286
 5872W        W78297   9.570  13.753   0.742
 5873W        W78298   4.955  22.480  13.392
 5874W        W78299  41.306  33.102  12.138
 5875W        W78300   1.894   5.050  13.402
 5876W        W78301   9.555  15.161  13.050
 5877W        W78302  17.684  14.296  13.934
 5878W        W78303   0.857  25.765   3.685
 5879W        W78304  43.428  25.025   1.936
 5880W        W78305   8.118  35.385   0.325
 5881W        W78306   0.299  38.594  10.718
 5882W        W78307  28.879  25.685  10.843
 5883W        W78308  29.859   6.887   2.646
 5884W        W78309  23.217   8.740   9.703
 5885W        W78310  44.405  31.441   3.882
 5886W        W78311  15.639  36.391   4.575
 5887W        W78312   9.323  22.165   1.710
 5888W        W78313  11.641  14.597   3.313
 5889W        W78314   3.474   4.138  13.140
 5890W        W78315   7.847  33.350   3.738
 5891W        W78316   9.625  43.390   4.204
 5892W        W78317  15.238  27.562   2.830
 5893W        W78318  44.221   6.622   1.696
 5894W        W78319  28.586  22.570   1.722
 5895W        W78320  25.572  27.375  12.937
 5896W        W78321  11.061  35.549   3.728
 5897W        W78322  16.849  30.160  11.579
 5898W        W78323  19.982   7.711   0.936
 5899W        W78324  27.173  34.456   0.823
 5900W        W78325  16.489  18.130  14.025
 5901W        W78326   8.590  17.589   4.138
 5902W        W78327   7.912  12.218   2.737
 5903W        W78328  23.858  15.848   0.013
 5904W        W78329  13.104  35.115   1.621
 5905W        W78330  21.149   7.943  13.687
 5906W        W78331  39.131   4.753  10.697
 5907W        W78332  32.259  23.479   3.634
 5908W        W78333  14.755  37.606  13.395
 5909W        W78334  31.606   9.689   3.832
 5910W        W78335  44.272  32.429   4.057
 5911W        W78336  31.395  30.243  13.816
 5912W        W78337  42.014  25.997  14.857
 5913W        W78338  31.170  10.760   1.275
 5914W        W78339  33.592  34.910   0.131
 5915W        W78340  42.144  37.630   0.984
 5916W        W78341  25.803   5.598   2.789
 5917W        W78342  40.330  18.306   3.133
 5918W        W78343  33.152   8.904   2.181
 5919W        W78344  35.942   2.206   0.861
 5920W        W78345  20.316  14.546   1.720
 5921W        W78346  37.115  11.229  11.111
 5922W        W78347  27.653   9.955   2.136
 5923W        W78348   2.851  32.432   2.382
 5924W        W78349  39.731  36.442  10.737
 5925W        W78350  44.580   0.549  14.757
 5926W        W78351   1.544  17.248   4.259
 5927W        W78352   8.709   9.922  11.629
 5928W        W78353  38.459  42.831   4.583
 5929W        W78354  26.333  40.894  12.369
 5930W        W78355   3.371   4.017   3.616
 5931W        W78356  26.062  32.631  12.313
 5932W        W78357  24.202  39.039  11.176
 5933W        W78358  37.074  36.596  11.599
 5934W        W78359  16.612  14.634  12.139
 5935W        W78360  34.192  42.998   0.858
 5936W        W78361  33.473  17.151   1.911
 5937W        W78362  41.104   3.981   0.221
 5938W        W78363  40.408  20.128  13.381
 5939W        W78364   1.549  38.704   3.197
 5940W        W78365   1.914  10.719  10.827
 5941W        W78366   9.747   7.392   3.571
 5942W        W78367  17.188  44.722  11.049
 5943W        W78368   9.119   9.255   5.039
 5944W        W78369   9.838  20.822   2.226
 5945W        W78370   3.288  21.583   0.306
 5946W        W78371  16.347  13.655  14.905
 5947W        W78372  42.871   4.766  12.839
 5948W        W78373  25.469   2.921   1.710
 5949W        W78374  11.242  30.168   0.913
 5950W        W78375   7.799  17.394  12.460
 5951W        W78376  28.785  21.740   1.268
 5952W        W78377  34.586  35.500   2.713
 5953W        W78378   5.783   5.812   3.702
 5954W        W78379  26.470  44.274  14.869
 5955W        W78380  40.271  24.434   1.067
 5956W        W78381  31.561  37.476   4.120
 5957W        W78382  25.033   5.391  14.314
 5958W        W78383  22.732  10.972   2.281
 5959W        W78384  12.327  15.148   3.150
 5960W        W78385  13.109   7.100  12.650
 5961W        W78386  26.783   5.619  13.426
 5962W        W78387  23.673  44.706   2.855
 5963W        W78388  22.496   8.404  13.425
 5964W        W78389  44.932  16.159  12.492
 5965W        W78390  16.757  24.384   1.970
 5966W        W78391  42.761  24.252   4.221
 5967W        W78392   5.669  29.642  12.535
 5968W        W78393   5.463  29.621  13.862
 5969W        W78394  34.018   2.665  13.535
 5970W        W78395  17.028  36.000  10.308
 5971W        W78396  13.791  31.790  10.492
 5972W        W78397   5.650  11.561   0.517
 5973W        W78398  43.885  10.776  12.391
 5974W        W78399  30.134   8.390   0.250
 5975W        W78400  39.873  36.113   0.589
 5976W        W78401  12.022  38.202  12.868
 5977W        W78402   8.768  24.061  13.289
 5978W        W78403  17.981  14.252  14.835
 5979W        W78404  11.898  27.770  12.837
 5980W        W78405  31.186  21.672   1.759
 5981W        W78406  42.806  22.701   0.347
 5982W        W78407  35.008   2.521  14.881
 5983W        W78408  43.148   5.552  11.135
 5984W        W78409  19.891  17.583  11.596
 5985W        W78410  43.518   1.077   4.051
 5986W        W78411   8.788  25.850   3.801
 5987W        W78412   2.870  13.621  10.788
 5988W        W78413  39.288  11.985   2.795
 5989W        W78414  13.126   5.189   3.245
 5990W        W78415  10.699  11.228  14.254
 5991W        W78416  27.522  43.516   2.743
 5992W        W78417  36.443  36.608   1.536
 5993W        W78418  15.308   1.838   2.927
 5994W        W78419  32.065  25.559  13.941
 5995W        W78420  40.518  21.852   3.790
 5996W        W78421  10.467  35.527   4.635
 5997W        W78422  12.074  42.890  10.749
 5998W        W78423   6.694  23.755   0.520
 5999W        W78424   3.529  43.459   1.848
 6000W        W78425  37.267  38.569   3.307
 6001W        W78426  20.288   4.406  12.978
 6002W        W78427  18.087  29.066   3.608
 6003W        W78428   7.149  13.967   3.789
 6004W        W78429  29.805  27.911   3.541
 6005W        W78430  43.561  21.203  11.851
 6006W        W78431  20.860  32.207   2.187
 6007W        W78432   2.835  25.928  11.426
 6008W        W78433  29.979  24.656   1.283
 6009W        W78434  22.565  30.041  13.309
 6010W        W78435  15.749  14.594  14.502
 6011W        W78436  40.931  27.717  12.329
 6012W        W78437   7.986  10.725   2.586
 6013W        W78438  21.516   6.912   3.162
 6014W        W78439  32.050  31.569   1.861
 6015W        W78440  37.560   2.883  12.624
 6016W        W78441  40.620  32.199  12.492
 6017W        W78442   8.735  40.229   2.190
 6018W        W78443   9.482   5.333   2.666
 6019W        W78444  10.410  39.838   4.115
 6020W        W78445  41.490   5.276  13.332
 6021W        W78446  28.143  29.539  12.963
 6022W        W78447  12.916  18.336   0.381
 6023W        W78448  15.252  34.571   4.263
 6024W        W78449   3.174   3.694   2.231
 6025W        W78450  22.174   1.201   1.310
 6026W        W78451  13.761   6.441   1.312
 6027W        W78452  21.029  39.674   2.129
 6028W        W78453   5.947  30.710   0.590
 6029W        W78454  32.013  12.882  12.865
 6030W        W78455  39.541  25.124  14.542
 6031W        W78456  23.664  12.169  12.841
 6032W        W78457  24.165  20.557  11.962
 6033W        W78458  36.614   2.843   4.291
 6034W        W78459  22.726   8.390  10.073
 6035W        W78460  27.287  26.095   2.706
 6036W        W78461   3.701   3.197   1.440
 6037W        W78462  36.406  25.272   3.716
 6038W        W78463  42.956  25.655   2.730
 6039W        W78464  29.943  23.006   1.743
 6040W        W78465  36.623   8.118  14.394
 6041W        W78466  32.055   0.509   3.263
 6042W        W78467   3.085  38.372  12.375
 6043W        W78468  19.689   8.125   0.831
 6044W        W78469  13.209  26.188  14.498
 6045W        W78470  19.669  40.553   5.081
 6046W        W78471   4.294  36.797   1.328
 6047W        W78472   2.117   4.503  11.022
 6048W        W78473   8.925  33.576  12.939
 6049W        W78474  23.152   2.429  12.117
 6050W        W78475  33.299   0.526  13.510
 6051W        W78476   5.507  37.539  10.512
 6052W        W78477   3.744   9.243  12.972
 6053W        W78478  32.796  40.659  11.039
 6054W        W78479  40.086  28.950  11.552
 6055W        W78480  28.251  15.504  12.675
 6056W        W78481   3.270  30.947  10.562
 6057W        W78482  24.019  11.339   0.475
 6058W        W78483  28.370  44.012  13.763
 6059W        W78484  32.559   7.772  14.493
 6060W        W78485  16.491  42.217   3.029
 6061W        W78486  25.078  18.735   3.786
 6062W        W78487  26.747  13.241   1.312
 6063W        W78488  35.650  12.905   2.641
 6064W        W78489   2.874  20.288   3.843
 6065W        W78490  37.614  38.059  13.108
 6066W        W78491  24.987  22.752  11.931
 6067W        W78492  34.852  28.967  14.337
 6068W        W78493  31.680   1.899   1.828
 6069W        W78494  31.092   9.148  11.988
 6070W        W78495   3.798  18.312   1.308
 6071W        W78496  33.496  42.867   1.277
 6072W        W78497  24.301  27.464   4.547
 6073W        W78498  44.309   4.382   2.903
 6074W        W78499  44.040  32.364   3.577
 6075W        W78500   8.938  40.356   4.061
 6076W        W78501  39.293  20.732   2.200
 6077W        W78502   3.945  42.592  14.850
 6078W        W78503  41.868  42.484  10.580
 6079W        W78504  39.555  22.016  13.445
 6080W        W78505  41.916  10.318  14.348
 6081W        W78506   0.995   6.861  10.805
 6082W        W78507  44.450   9.769  14.559
 6083W        W78508  22.211  18.617   4.649
 6084W        W78509  14.757  11.727  14.487
 6085W        W78510  43.793   9.640   2.698
 6086W        W78511  32.609   4.259   4.486
 6087W        W78512  14.425  26.943  13.118
 6088W        W78513   9.260   7.924  13.879
 6089W        W78514  19.707  20.814  14.455
 6090W        W78515  24.464  29.904   4.851
 6091W        W78516  38.611  19.737   3.342
 6092W        W78517  23.021   4.600  11.483
 6093W        W78518  22.115  12.460  13.906
 6094W        W78519  25.230  15.631  11.658
 6095W        W78520   6.260  17.614  14.899
 6096W        W78521  36.856  12.669   4.272
 6097W        W78522  40.298  21.562   1.927
 6098W        W78523  24.967   1.425  13.976
 6099W        W78524  14.036   5.489  13.766
 6100W        W78525   7.176  41.220   2.282
 6101W        W78526  15.921   1.422   1.864
 6102W        W78527  42.833  29.404  13.544
 6103W        W78528   9.113   3.702  14.190
 6104W        W78529  22.819  42.340  14.484
 6105W        W78530  41.647  35.335  14.104
 6106W        W78531   1.801  12.734   2.426
 6107W        W78532   1.964  34.614   1.822
 6108W        W78533  43.116  10.082  14.903
 6109W        W78534  41.459   9.425   0.506
 6110W        W78535  14.854   8.549   1.799
 6111W        W78536  32.678   5.388   0.436
 6112W        W78537   0.462  15.688  10.226
 6113W        W78538  20.593  21.284   1.354
 6114W        W78539  33.115  41.306  14.682
 6115W        W78540  19.088  34.964  12.851
 6116W        W78541   9.873  28.132  11.161
 6117W        W78542  43.767   1.872   2.371
 6118W        W78543   9.996  17.019  13.434
 6119W        W78544  22.569   9.682  11.936
 6120W        W78545  33.599  36.895  11.569
 6121W        W78546   3.889  31.530  10.730
 6122W        W78547   9.242  11.361   0.842
 6123W        W78548   0.685   9.337  14.958
 6124W        W78549  41.442  30.334  14.374
 6125W        W78550  15.660  11.235  11.407
 6126W        W78551  21.457  33.998  11.142
 6127W        W78552   8.817  11.675   0.755
 6128W        W78553  16.048   1.260  14.840
 6129W        W78554  31.883   8.278  10.573
 6130W        W78555   7.810  44.641   4.043
 6131W        W78556  13.708   4.131   4.147
 6132W        W78557   2.694  37.781  14.072
 6133W        W78558  32.487  17.067  11.600
 6134W        W78559  12.211  15.737  10.580
 6135W        W78560  22.834  38.346   4.016
 6136W        W78561  26.141  20.620  11.176
 6137W        W78562  35.094  37.925   1.569
 6138W        W78563  37.626  31.012  11.355
 6139W        W78564  37.465  27.448   1.216
 6140W        W78565  36.838  44.920   0.295
 6141W        W78566  25.256  36.156   3.149
 6142W        W78567  44.859   4.012  11.433
 6143W        W78568   1.971  28.720  12.482
 6144W        W78569   3.859  11.084  12.012
 6145W        W78570   6.349  34.817  10.293
 6146W        W78571   2.429  43.798   1.316
 6147W        W78572  40.744  26.508  14.881
 6148W        W78573  21.669  11.867  11.224
 6149W        W78574  14.661  40.943   2.441
 6150W        W78575  27.146  18.535  12.796
 6151W        W78576   6.835  23.554   3.159
 6152W        W78577  41.999  10.392  11.607
 6153W        W78578   1.964   0.443  10.657
 6154W        W78579  14.133  21.996   5.088
 6155W        W78580  41.583  15.265  14.813
 6156W        W78581   4.948  43.934  14.490
 6157W        W78582   9.447   1.914   0.711
 6158W        W78583  43.087  37.310  12.483
 6159W        W78584  30.278  33.987  11.963
 6160W        W78585  24.160  15.844   3.751
 6161W        W78586  24.078  32.070  13.900
 6162W        W78587   2.495   8.159  13.892
 6163W        W78588  28.718  25.577  13.066
 6164W        W78589  29.205   5.862   2.026
 6165W        W78590   4.775  32.174  11.195
 6166W        W78591  37.811  30.136   2.675
 6167W        W78592  34.718  42.842   2.686
 6168W        W78593  33.610  31.467   3.333
 6169W        W78594  13.717  36.886   0.748
 6170W        W78595  12.155  13.273  10.532
 6171W        W78596  44.926   4.464   0.521
 6172W        W78597  34.175   5.813  14.004
 6173W        W78598  41.256  13.384  13.289
 6174W        W78599  12.813  34.024   0.948
 6175W        W78600  22.178   3.386  12.337
 6176W        W78601  32.849  31.772  11.078
 6177W        W78602  16.705   6.371  12.418
 6178W        W78603  28.947  33.429  12.913
 6179W        W78604  17.758  21.629  12.939
 6180W        W78605  37.929  12.833  13.858
 6181W        W78606  27.830  18.271   3.418
 6182W        W78607  33.649  40.883  12.963
 6183W        W78608  31.881  20.733  11.224
 6184W        W78609  20.579  10.064   0.267
 6185W        W78610  43.225  36.246   1.363
 6186W        W78611  37.790  21.216  13.340
 6187W        W78612  24.149  44.478  12.955
 6188W        W78613   6.385  17.133  13.484
 6189W        W78614   6.673  27.779  14.967
 6190W        W78615  30.398  16.658   2.617
 6191W        W78616  28.197  36.208  12.038
 6192W        W78617  34.549  43.231  12.040
 6193W        W78618  40.563  44.195  12.111
 6194W        W78619  21.102   4.987  12.813
 6195W        W78620   1.163   2.734   2.723
 6196W        W78621  21.893  29.567   2.961
 6197W        W78622  36.387  35.952  12.061
 6198W        W78623  38.004  26.531   4.571
 6199W        W78624   7.651  24.084   4.607
 6200W        W78625  17.656  11.752   3.349
 6201W        W78626  17.390   9.929  11.181
 6202W        W78627  41.962  25.802   0.351
 6203W        W78628  13.793  25.702  10.612
 6204W        W78629   1.861  37.501  13.581
 6205W        W78630  12.763  29.006   3.652
 6206W        W78631  23.134  22.998  12.690
 6207W        W78632  38.332  43.430  10.993
 6208W        W78633  19.586  40.757   0.568
 6209W        W78634  34.126  22.326  11.754
 6210W        W78635   2.830  29.899  12.388
 6211W        W78636  42.795   6.230  12.196
 6212W        W78637  23.022  28.969   3.156
 6213W        W78638  43.516  22.946  11.398
 6214W        W78639  25.510  25.734   2.829
 6215W        W78640  15.594  44.850  14.809
 6216W        W78641  11.690  18.379   1.307
 6217W        W78642  18.436  22.523  11.210
 6218W        W78643  28.577   9.361   3.143
 6219W        W78644  34.555  38.165  13.925
 6220W        W78645  20.279  30.377   9.714
 6221W        W78646  36.483  22.469   1.963
 6222W        W78647  35.415  11.559   0.333
 6223W        W78648  36.121  44.007  12.245
 6224W        W78649   1.777   4.669  10.662
 6225W        W78650  34.573  34.214  12.381
 6226W        W78651  31.035   0.435  13.283
 6227W        W78652  14.130   5.101   4.942
 6228W        W78653  43.327   7.049  14.783
 6229W        W78654  35.053   5.478  12.476
 6230W        W78655  34.820  17.442  11.666
 6231W        W78656  41.781   3.930   2.735
 6232W        W78657   8.178  38.367   4.219
 6233W        W78658  31.528  32.901  11.576
 6234W        W78659   6.709  18.781  12.972
 6235W        W78660   7.687  32.166  13.096
 6236W        W78661  25.128  12.769  13.877
 6237W        W78662  12.121  17.529   0.401
 6238W        W78663  25.718  19.332   3.712
 6239W        W78664  22.783  29.089  10.369
 6240W        W78665  19.727  32.381   2.630
 6241W        W78666  41.057  11.793  12.374
 6242W        W78667   4.522  40.183   9.892
 6243W        W78668  34.464  10.412   3.341
 6244W        W78669   4.711   0.175  11.568
 6245W        W78670  41.905  44.833   2.282
 6246W        W78671  37.428  28.957   2.748
 6247W        W78672  27.164   7.156   1.452
 6248W        W78673  24.622  30.915   0.889
 6249W        W78674   3.822  30.221   2.049
 6250W        W78675  40.742  35.532  14.112
 6251W        W78676  14.843  43.995  13.353
 6252W        W78677   3.809  19.706  11.626
 6253W        W78678  11.179  44.161   0.409
 6254W        W78679  26.969  32.501   0.687
 6255W        W78680  27.096  43.411  13.640
 6256W        W78681   5.943  25.079   2.389
 6257W        W78682   5.897   9.888  12.380
 6258W        W78683  27.321  23.895   3.688
 6259W        W78684  25.336  41.414  10.586
 6260W        W78685  26.713  12.779  13.006
 6261W        W78686  38.924  11.871  13.020
 6262W        W78687  20.611   1.061  14.288
 6263W        W78688  23.139  31.656   3.720
 6264W        W78689  17.375  14.224   2.461
 6265W        W78690  24.423   2.966   3.222
 6266W        W78691  19.064   3.846  12.999
 6267W        W78692  20.017  18.122  10.736
 6268W        W78693  19.024  44.046   2.659
 6269W        W78694  36.410  24.874   9.779
 6270W        W78695  10.401  28.458   3.439
 6271W        W78696  19.343  19.065   4.075
 6272W        W78697  16.997   7.818  12.434
 6273W        W78698  16.142  26.603   3.548
 6274W        W78699   0.305   0.202   1.200
 6275W        W78700   7.901  43.898   3.302
 6276W        W78701  19.674   8.951   4.089
 6277W        W78702  16.644  20.531   0.797
 6278W        W78703  37.976  10.412  12.538
 6279W        W78704  11.093  12.071   0.486
 6280W        W78705  29.813   9.125   4.273
 6281W        W78706  42.984  42.931   3.312
 6282W        W78707  26.035  40.582   4.474
 6283W        W78708  16.996  13.177  13.294
 6284W        W78709  16.303  20.182  13.344
 6285W        W78710   8.313  44.818   3.230
 6286W        W78711  24.072  32.651   2.550
 6287W        W78712  11.638  29.463  13.546
 6288W        W78713  30.989  14.623   2.323
 6289W        W78714  27.227  22.551   3.271
 6290W        W78715   4.618   5.531   0.867
 6291W        W78716   6.694  25.610   3.129
 6292W        W78717  11.344  43.446   1.868
 6293W        W78718   7.296  19.760  11.418
 6294W        W78719  40.423  23.931   2.547
 6295W        W78720   9.289  30.979   4.096
 6296W        W78721   6.048   2.307  11.416
 6297W        W78722  10.254  26.464   4.315
 6298W        W78723   9.157   7.961  14.734
 6299W        W78724  31.118  21.970   0.944
 6300W        W78725  16.047  32.928  14.327
 6301W        W78726  32.510  14.154  11.575
 6302W        W78727  11.329   6.802   4.185
 6303W        W78728  42.339  15.093   1.507
 6304W        W78729  34.320  29.344   1.768
 6305W        W78730   3.243  44.020   0.402
 6306W        W78731  10.320  24.467  14.069
 6307W        W78732   3.243  27.135  12.578
 6308W        W78733  16.786  11.286  13.295
 6309W        W78734  35.288  17.618  11.748
 6310W        W78735   5.699   4.100   3.744
 6311W        W78736  13.212   2.887   4.468
 6312W        W78737  18.665  32.901  12.992
 6313W        W78738  20.165   2.868  14.950
 6314W        W78739  32.120  13.911   2.285
 6315W        W78740   1.864  44.027   3.730
 6316W        W78741  38.798   4.890   0.296
 6317W        W78742   4.172   5.734  14.285
 6318W        W78743  23.690  10.361  11.895
 6319W        W78744  16.327  31.911   3.400
 6320W        W78745  37.911  19.108  11.564
 6321W        W78746   1.444  15.655  14.355
 6322W        W78747  38.570  11.354   3.279
 6323W        W78748  14.260  40.422   4.047
 6324W        W78749  30.046   7.437   1.778
 6325W        W78750   3.533   0.544   1.391
 6326W        W78751  39.296  22.131   1.010
 6327W        W78752   9.294  44.891   4.144
 6328W        W78753  24.217  17.493  12.058
 6329W        W78754   0.712  38.172  13.185
 6330W        W78755  28.863  38.052  13.808
 6331W        W78756  14.303  32.377   1.909
 6332W        W78757  31.308  40.328  11.117
 6333W        W78758  42.292  37.556  12.925
 6334W        W78759   0.373  28.327   3.387
 6335W        W78760  27.126  12.153   4.540
 6336W        W78761  31.593   1.236   3.315
 6337W        W78762   2.137   3.831   3.137
 6338W        W78763  43.922   4.959  13.860
 6339W        W78764  34.863  33.580   4.121
 6340W        W78765  23.830  43.869   3.276
 6341W        W78766   9.790  24.077  11.672
 6342W        W78767   4.648  29.450  14.367
 6343W        W78768  43.982   4.456  13.991
 6344W        W78769  16.557   7.414  13.986
 6345W        W78770  22.770  30.226  12.871
 6346W        W78771   4.425  28.633   3.469
 6347W        W78772  25.591  18.589   2.492
 6348W        W78773  28.673  33.633  11.145
 6349W        W78774  23.901   0.795   4.540
 6350W        W78775  11.289   5.802   9.633
 6351W        W78776  28.168  19.378  14.033
 6352W        W78777  37.025  29.372   4.204
 6353W        W78778  17.515  10.939  11.101
 6354W        W78779  24.767  23.099  14.789
 6355W        W78780  29.045   9.583  13.635
 6356W        W78781  15.186  29.051  13.542
 6357W        W78782  43.908   2.458  14.709
 6358W        W78783  18.576   5.854   4.281
 6359W        W78784  43.706   8.271   1.478
 6360W        W78785  31.960   8.776  10.673
 6361W        W78786  14.522  37.886  10.578
 6362W        W78787   7.377   1.499   0.276
 6363W        W78788   2.857  21.556   2.193
 6364W        W78789   2.446  39.737  14.796
 6365W        W78790  15.263  33.665  11.544
 6366W        W78791  20.655  33.547  14.127
 6367W        W78792  20.309   7.264  13.567
 6368W        W78793  18.375   9.763  13.634
 6369W        W78794  38.366   3.564  14.323
 6370W        W78795  27.026  28.598   0.837
 6371W        W78796  25.703   3.337   3.093
 6372W        W78797  35.664  18.767   1.828
 6373W        W78798  24.280  15.735   2.276
 6374W        W78799  24.696  33.869   0.856
 6375W        W78800  42.330  34.655  11.883
 6376W        W78801  17.220  19.236   0.708
 6377W        W78802  22.109  16.621  13.343
 6378W        W78803  17.281  15.585   3.594
 6379W        W78804  17.877  32.057   2.334
 6380W        W78805  11.116  34.320  14.272
 6381W        W78806  18.001  33.833   3.432
 6382W        W78807  22.194  10.830   1.002
 6383W        W78808  41.271  36.532   3.390
 6384W        W78809  28.448   4.453  13.374
 6385W        W78810  29.611   6.775  14.285
 6386W        W78811  35.300  13.313   0.548
 6387W        W78812  33.521  42.070   0.636
 6388W        W78813  17.848  21.359   3.225
 6389W        W78814   4.901   7.813   3.353
 6390W        W78815  12.033  30.532  14.424
 6391W        W78816   1.217  43.801  13.704
 6392W        W78817  28.451  36.816  11.570
 6393W        W78818  13.331  10.801   0.711
 6394W        W78819  33.200  32.018  14.901
 6395W        W78820   0.529  38.819  11.854
 6396W        W78821   9.761  39.493   1.047
 6397W        W78822   3.592  17.747   0.818
 6398W        W78823  28.290  34.380   3.204
 6399W        W78824  40.346  13.777  12.003
 6400W        W78825  21.525   6.324   2.249
 6401W        W78826  32.904  19.377   0.467
 6402W        W78827   0.276   5.310   4.595
 6403W        W78828  38.402   4.383  10.621
 6404W        W78829  39.066  44.104   4.614
 6405W        W78830  42.504  30.528   0.263
 6406W        W78831  21.016   2.841  14.805
 6407W        W78832  41.320   9.335   1.416
 6408W        W78833  15.606  12.378  13.942
 6409W        W78834  35.446  23.587   0.502
 6410W        W78835  40.575   6.489   1.343
 6411W        W78836  42.444  12.097  12.130
 6412W        W78837  25.923  21.451  13.347
 6413W        W78838  40.634  37.332   0.918
 6414W        W78839   2.843  42.836  14.233
 6415W        W78840  30.572  44.491  13.846
 6416W        W78841  38.501  18.820  14.835
 6417W        W78842  41.962   3.285   4.059
 6418W        W78843   5.673  35.923   0.692
 6419W        W78844  18.057  27.084  14.366
 6420W        W78845  40.464  14.478   2.631
 6421W        W78846  17.310   4.701   3.411
 6422W        W78847  31.843  12.880   0.269
 6423W        W78848   6.635  12.413   1.892
 6424W        W78849  44.491  24.739   2.537
 6425W        W78850   1.690  41.979   3.670
 6426W        W78851   5.797   7.246   4.395
 6427W        W78852   7.605  34.605   2.302
 6428W        W78853  38.507  28.660   4.965
 6429W        W78854  44.452  15.706   0.348
 6430W        W78855   5.585  22.043   3.367
 6431W        W78856  12.574  18.305   4.466
 6432W        W78857  39.772  43.521   0.849
 6433W        W78858  34.914  10.734  14.956
 6434W        W78859  37.549  23.805   3.390
 6435W        W78860  31.550   8.766  14.605
 6436W        W78861  32.795  40.532   1.258
 6437W        W78862  27.348  18.664  10.749
 6438W        W78863  13.775   4.203   0.943
 6439W        W78864  33.901   8.313  14.830
 6440W        W78865  21.145  27.909   1.551
 6441W        W78866  17.227  15.522   2.283
 6442W        W78867  29.415  30.567  10.729
 6443W        W78868  30.083  26.952   4.138
 6444W        W78869  38.771  21.491  12.959
 6445W        W78870  42.421  16.477   3.214
 6446W        W78871  36.173  18.206   3.436
 6447W        W78872  22.607  44.375   2.406
 6448W        W78873  40.591  16.204   3.762
 6449W        W78874  31.155  27.900  13.833
 6450W        W78875  24.416  40.210   1.832
 6451W        W78876   1.739  40.490   1.816
 6452W        W78877   5.272  44.667  14.935
 6453W        W78878  30.959  30.291  11.649
 6454W        W78879  43.512   8.418   3.884
 6455W        W78880  10.768   0.345   2.784
 6456W        W78881  33.278  35.779  14.905
 6457W        W78882   8.242  28.069  10.308
 6458W        W78883   2.833  18.503   3.070
 6459W        W78884  29.956  16.357   0.175
 6460W        W78885  11.623   3.230   2.879
 6461W        W78886  35.049  38.987  10.093
 6462W        W78887  21.030   0.948   3.700
 6463W        W78888  14.154  15.811  11.700
 6464W        W78889   1.991   5.393  14.792
 6465W        W78890   3.335  41.039  10.901
 6466W        W78891   2.323  42.147  12.431
 6467W        W78892  29.284  24.954  12.967
 6468W        W78893  18.753  27.249  14.803
 6469W        W78894  16.580  17.550  11.941
 6470W        W78895  30.954  13.751   4.848
 6471W        W78896   7.727  28.968  13.105
 6472W        W78897  13.165  11.648   0.319
 6473W        W78898   0.924  38.847  11.523
 6474W        W78899  28.140  37.910  10.912
 6475W        W78900  33.458  22.689  14.330
 6476W        W78901  36.551   8.736   3.665
 6477W        W78902   8.876  44.820  12.565
 6478W        W78903  37.435   1.661   1.800
 6479W        W78904  22.733  13.628  14.977
 6480W        W78905  24.468  12.301  12.399
 6481W        W78906   0.016  34.022  10.681
 6482W        W78907  22.596  24.137   0.903
 6483W        W78908  34.474  10.344  11.609
 6484W        W78909  36.866   6.364  13.002
 6485W        W78910   0.364  15.728   2.617
 6486W        W78911  20.908   7.132   0.787
 6487W        W78912   9.196  31.457  14.359
 6488W        W78913   1.348  32.136   4.882
 6489W        W78914   6.374  41.042   4.145
 6490W        W78915  40.607  12.223  11.879
 6491W        W78916  17.610   7.357  11.162
 6492W        W78917  37.021  20.198   1.233
 6493W        W78918  18.761  18.462  12.087
 6494W        W78919  24.274  25.393  10.375
 6495W        W78920  44.391  42.872  12.998
 6496W        W78921  35.547  35.473   4.625
 6497W        W78922  24.748  13.387   2.664
 6498W        W78923  24.270  29.476   2.288
 6499W        W78924  39.881  32.969  12.108
 6500W        W78925   9.052  39.997  13.085
 6501W        W78926  44.543   7.932   2.614
 6502W        W78927  43.448  36.634  14.561
 6503W        W78928   4.704   0.351  10.201
 6504W        W78929  37.778   3.678  14.701
 6505W        W78930  10.920   4.987   4.152
 6506W        W78931  31.610  32.652   2.236
 6507W        W78932  18.651  27.273  11.927
 6508W        W78933  21.847  28.156  13.868
 6509W        W78934   1.060  36.648   4.914
 6510W        W78935   6.879  34.535   4.604
 6511W        W78936  36.907  34.507   1.126
 6512W        W78937   9.922  42.306   4.347
 6513W        W78938  10.658  36.814   2.940
 6514W        W78939  33.193   4.937  10.614
 6515W        W78940  30.647   1.973  13.954
 6516W        W78941  18.338  31.551  14.877
 6517W        W78942  14.137   8.418  13.826
 6518W        W78943  17.754  36.127  10.644
 6519W        W78944  33.456  32.883   1.238
 6520W        W78945  40.960  44.227  13.590
 6521W        W78946  37.032  33.133  10.773
 6522W        W78947  19.409  39.991   3.395
 6523W        W78948   9.376  38.343  12.033
 6524W        W78949  17.107  12.609   3.170
 6525W        W78950   3.084  24.024  14.644
 6526W        W78951  13.210  15.288  14.647
 6527W        W78952   9.490   5.463   9.864
 6528W        W78953  30.999  36.496   0.230
 6529W        W78954  10.841   7.706   0.491
 6530W        W78955  10.668   3.924  11.080
 6531W        W78956  40.097  15.557   4.993
 6532W        W78957   8.380  38.069  12.022
 6533W        W78958  34.218   6.781  13.041
 6534W        W78959   9.834  34.913  12.124
 6535W        W78960  19.766  30.125   0.924
 6536W        W78961  29.090  10.621  11.708
 6537W        W78962  12.697   5.954  11.915
 6538W        W78963  43.699  25.111   0.298
 6539W        W78964  14.418  38.028  14.448
 6540W        W78965  21.864   2.637   0.821
 6541W        W78966  19.817  14.466   2.379
 6542W        W78967  10.725  29.894   0.245
 6543W        W78968  35.475   3.618   2.932
 6544W        W78969  20.189   8.373  13.996
 6545W        W78970  12.703   3.792  13.103
 6546W        W78971  19.014  14.449  13.699
 6547W        W78972  40.905  32.097   3.815
 6548W        W78973  11.578  40.134   3.211
 6549W        W78974  36.072  18.989  11.488
 6550W        W78975  33.042  15.278   0.415
 6551W        W78976  41.392  36.517  12.820
 6552W        W78977  44.788  13.118  14.924
 6553W        W78978  27.660  31.148   0.291
 6554W        W78979  35.358   7.290   4.781
 6555W        W78980  26.453  33.892  11.908
 6556W        W78981  24.284  14.199   5.136
 6557W        W78982  33.138  43.420   0.264
 6558W        W78983  30.680  21.185   4.043
 6559W        W78984  35.651  11.261   4.018
 6560W        W78985  31.746  12.279  14.400
 6561W        W78986  36.869  17.735  14.904
 6562W        W78987  10.711  24.010  13.302
 6563W        W78988  14.735   5.798   1.750
 6564W        W78989  10.714   8.975   1.879
 6565W        W78990  41.022  17.344  11.985
 6566W        W78991   7.932  28.625   4.166
 6567W        W78992  30.964  15.809  10.544
 6568W        W78993  42.530  26.672  11.987
 6569W        W78994   3.167  25.055   2.784
 6570W        W78995  44.951  39.104  11.113
 6571W        W78996  29.922  16.237   4.339
 6572W        W78997  27.441  40.472  11.149
 6573W        W78998  37.422  14.718   0.622
 6574W        W78999  13.798  40.866  11.506
 6575W        W79000   5.523  19.605  11.635
 6576W        W79001  33.083  23.579   4.104
 6577W        W79002  10.875   7.663  14.320
 6578W        W79003   5.559   4.017   1.014
 6579W        W79004  13.250   9.264  14.215
 6580W        W79005   7.268   4.466   4.437
 6581W        W79006  18.322  37.883  14.851
 6582W        W79007  40.855  34.077  13.633
 6583W        W79008  32.648   9.925  12.083
 6584W        W79009  44.789  28.607   4.140
 6585W        W79010  39.851  39.402   0.012
 6586W        W79011   5.215  37.921  13.916
 6587W        W79012  33.388   9.786   1.956
 6588W        W79013  25.070  17.335   3.792
 6589W        W79014  28.577  41.403   4.243
 6590W        W79015  24.107  32.637   0.602
 6591W        W79016  33.978  37.142   1.295
 6592W        W79017  32.138  13.735  11.936
 6593W        W79018   9.432  23.312   0.454
 6594W        W79019  35.096   7.759   0.353
 6595W        W79020  42.261  38.333  10.648
 6596W        W79021   7.138  33.584   3.337
 6597W        W79022  27.249  26.405   4.600
 6598W        W79023   9.800   3.677   4.726
 6599W        W79024   6.166  24.497   2.834
 6600W        W79025  19.742  29.192  14.281
 6601W        W79026   9.031   3.581  10.206
 6602W        W79027  27.931  19.562   4.172
 6603W        W79028   5.286  39.093  11.657
 6604W        W79029  23.543  35.352  12.458
 6605W        W79030   3.323  25.662   3.386
 6606W        W79031   6.686   9.742  11.136
 6607W        W79032  42.924   9.165   0.004
 6608W        W79033  41.966  38.476   1.586
 6609W        W79034  15.093   9.187   3.186
 6610W        W79035  31.861  10.232  13.535
 6611W        W79036  22.552  30.463  10.269
 6612W        W79037  34.427  31.154   2.782
 6613W        W79038   1.314   1.228   1.204
 6614W        W79039  44.984  16.032  14.860
 6615W        W79040  15.196   4.432  11.162
 6616W        W79041  44.059  39.856   3.765
 6617W        W79042   5.495  17.469  11.614
 6618W        W79043   1.998   3.743  11.990
 6619W        W79044  37.412  13.763   4.685
 6620W        W79045  14.084   6.311   4.541
 6621W        W79046   2.387  19.571  14.021
 6622W        W79047  35.054  26.250   2.770
 6623W        W79048  38.033  33.626  13.331
 6624W        W79049  22.653  35.777   2.241
 6625W        W79050  22.019   2.554   2.764
 6626W        W79051  31.958   2.956   4.149
 6627W        W79052  32.877  27.075   4.025
 6628W        W79053  22.137  31.040  11.384
 6629W        W79054  40.001   1.476  11.539
 6630W        W79055  17.617  35.474  14.476
 6631W        W79056  29.003  11.793  11.059
 6632W        W79057  25.253  18.596   4.255
 6633W        W79058  37.472  29.889  11.252
 6634W        W79059   0.796   4.235   2.216
 6635W        W79060  42.714  11.863   1.703
 6636W        W79061  10.312   2.477  11.104
 6637W        W79062  14.495  23.197  14.708
 6638W        W79063  25.565  18.110   1.683
 6639W        W79064   0.917  17.841  11.967
 6640W        W79065  38.279   6.143  14.641
 6641W        W79066  13.104  38.810   1.331
 6642W        W79067   8.094   4.449   5.043
 6643W        W79068   1.136  16.775   2.999
 6644W        W79069  43.050  42.163   0.764
 6645W        W79070  24.222   5.797   2.240
 6646W        W79071  29.557  11.166   0.428
 6647W        W79072  44.657  24.056   0.654
 6648W        W79073  35.795  32.399  13.796
 6649W        W79074  23.986   3.962  13.978
 6650W        W79075   3.754  43.520   3.587
 6651W        W79076  10.740  34.162   1.430
 6652W        W79077   3.762  42.472   4.513
 6653W        W79078  10.155  29.759  14.079
 6654W        W79079  14.362   7.143   0.821
 6655W        W79080  33.900  34.049  13.514
 6656W        W79081  27.017  35.672   2.175
 6657W        W79082  44.265  27.713   4.224
 6658W        W79083   1.047  33.553  11.745
 6659W        W79084  26.028  27.647  13.960
 6660W        W79085  28.133  19.826  12.025
 6661W        W79086  34.512  11.267  11.689
 6662W        W79087  33.380  38.946   3.462
 6663W        W79088   0.901   4.006   4.732
 6664W        W79089  26.353  18.426   1.827
 6665W        W79090  16.228   6.799   5.008
 6666W        W79091  18.011  20.176   0.383
 6667W        W79092  38.810   1.684   1.463
 6668W        W79093  33.189  18.116   3.773
 6669W        W79094  10.623   5.870   1.705
 6670W        W79095   1.865  27.200   0.814
 6671W        W79096  21.404  12.950   9.843
 6672W        W79097  37.882  16.129   4.574
 6673W        W79098  25.082  28.252  12.497
 6674W        W79099  40.226  26.533   4.557
 6675W        W79100   8.087  19.133  14.318
 6676W        W79101  18.166  14.037  12.985
 6677W        W79102  23.488  15.143  14.762
 6678W        W79103  18.776  42.956   3.158
 6679W        W79104  24.989  42.934   2.184
 6680W        W79105  39.832  35.166   4.429
 6681W        W79106  37.342  19.737   0.594
 6682W        W79107  24.943   9.408  14.074
 6683W        W79108  29.703  44.270  10.172
 6684W        W79109   1.497   6.762  11.625
 6685W        W79110  23.049   1.660  11.020
 6686W        W79111  29.713  31.473   4.026
 6687W        W79112   9.313  14.416  10.631
 6688W        W79113  33.818  35.237   1.357
 6689W        W79114   9.856   4.637   1.512
 6690W        W79115  35.229  28.220  12.491
 6691W        W79116  42.597  23.724   3.180
 6692W        W79117   2.077  39.369   4.502
 6693W        W79118  36.507  29.448  12.858
 6694W        W79119   3.276  33.561  12.124
 6695W        W79120  19.624  34.444   1.362
 6696W        W79121  15.913  33.872  11.193
 6697W        W79122  28.487  19.641   4.992
 6698W        W79123   7.626   5.473  14.825
 6699W        W79124  41.402  25.537  13.889
 6700W        W79125   4.921  38.504   4.324
 6701W        W79126  10.645  38.972   4.096
 6702W        W79127  31.853  36.580  13.099
 6703W        W79128   2.171  18.616   1.850
 6704W        W79129  40.570  30.959   3.672
 6705W        W79130  11.336  32.535   1.884
 6706W        W79131  32.620  33.603  13.259
 6707W        W79132  33.876  10.877   4.255
 6708W        W79133  32.987   8.431  10.836
 6709W        W79134  42.744  36.948   3.318
 6710W        W79135  12.877  13.591  10.978
 6711W        W79136  27.415  23.678   4.532
 6712W        W79137  29.461  19.737   1.841
 6713W        W79138  15.985  31.963   3.750
 6714W        W79139  25.195  30.616   3.745
 6715W        W79140  40.610  31.842   1.670
 6716W        W79141  12.614   3.186  12.144
 6717W        W79142  22.271  34.433  13.781
 6718W        W79143  20.635  16.879  14.927
 6719W        W79144  24.289  35.825   3.182
 6720W        W79145  30.925  21.040  14.955
 6721W        W79146  37.208  33.371   3.792
 6722W        W79147   2.436  24.668  12.040
 6723W        W79148  33.360   4.484  12.060
 6724W        W79149  36.174  27.157   3.716
 6725W        W79150   5.983  26.551  10.712
 6726W        W79151  44.996  14.914   4.153
 6727W        W79152  15.946  40.871   4.240
 6728W        W79153  23.065  34.105   2.797
 6729W        W79154  13.381  31.366  12.041
 6730W        W79155  32.225  11.292   3.187
 6731W        W79156  11.014  34.597  11.068
 6732W        W79157  33.987   9.779  10.982
 6733W        W79158  43.199  11.340  11.256
 6734W        W79159   1.494  36.038  11.233
 6735W        W79160  15.769  36.071  12.103
 6736W        W79161  19.009  18.899  13.390
 6737W        W79162  18.861  32.670  11.176
 6738W        W79163   1.051  17.942  13.308
 6739W        W79164  25.728  41.210   2.311
 6740W        W79165   0.329  18.364   1.360
 6741W        W79166  18.087  16.690   2.902
 6742W        W79167  28.431   1.449  13.387
 6743W        W79168   6.974   2.805  13.441
 6744W        W79169   3.269  19.495  12.263
 6745W        W79170  40.937   2.449  11.509
 6746W        W79171   4.719  30.943   3.254
 6747W        W79172  28.840  20.255   0.671
 6748W        W79173  33.082  29.865  11.661
 6749W        W79174  19.592   7.964  13.357
 6750W        W79175  42.413   1.918   2.523
 6751W        W79176  16.102  30.848  13.590
 6752W        W79177  42.241  34.468   2.380
 6753W        W79178   7.854  35.826  13.795
 6754W        W79179  42.585  14.869  11.127
 6755W        W79180  12.719  32.811  12.597
 6756W        W79181  36.596  14.707  10.408
 6757W        W79182   8.206   4.906  14.600
 6758W        W79183  26.102  18.353   4.617
 6759W        W79184  27.605   5.560  14.097
 6760W        W79185  30.768  37.168   0.924
 6761W        W79186  38.449  14.172  12.953
 6762W        W79187   0.741   7.803   0.981
 6763W        W79188  23.318  30.432   2.871
 6764W        W79189  10.618  19.199  13.492
 6765W        W79190  10.726  10.619   2.853
 6766W        W79191  20.498  25.512   0.489
 6767W        W79192  39.801  37.943  13.456
 6768W        W79193  19.310  38.086  14.797
 6769W        W79194  18.186  41.077   0.216
 6770W        W79195  20.215  25.239   3.648
 6771W        W79196  42.990  34.021   0.893
 6772W        W79197  12.597  32.631   3.256
 6773W        W79198  34.399  21.568   4.644
 6774W        W79199  40.828  30.532  13.491
 6775W        W79200  13.095  29.598  14.423
 6776W        W79201  29.034  17.624  10.251
 6777W        W79202  39.663  11.208  14.384
 6778W        W79203  42.227  41.011  13.898
 6779W        W79204  13.718   0.178   3.783
 6780W        W79205  31.098  28.406   3.240
 6781W        W79206  31.372  39.307  12.004
 6782W        W79207  25.378  19.586  11.515
 6783W        W79208  42.518  10.774  12.302
 6784W        W79209   2.754   4.020   2.226
 6785W        W79210  29.189  21.564  14.425
 6786W        W79211  32.958  16.775   3.825
 6787W        W79212  20.872  28.519   4.015
 6788W        W79213  18.299  18.130   2.675
 6789W        W79214  21.799  33.559   3.765
 6790W        W79215  28.184  31.642  13.844
 6791W        W79216   9.290  21.085  14.720
 6792W        W79217  25.735  13.270   1.480
 6793W        W79218  18.371  20.110   3.285
 6794W        W79219  37.333  22.797   0.444
 6795W        W79220  36.956   8.224  13.508
 6796W        W79221  30.478  24.221   4.543
 6797W        W79222  25.062  15.866  13.108
 6798W        W79223   9.668  40.328  14.487
 6799W        W79224  38.059   9.931  10.172
 6800W        W79225  27.181  14.215   3.772
 6801W        W79226   3.830  14.126   0.105
 6802W        W79227  39.195   0.212   0.512
 6803W        W79228  41.441  26.677   3.092
 6804W        W79229  10.835  13.542  10.331
 6805W        W79230   7.223  16.844   3.111
 6806W        W79231  36.011  13.857  14.392
 6807W        W79232  26.533  35.130   2.962
 6808W        W79233  26.431  33.886  12.851
 6809W        W79234  29.763  14.144   3.768
 6810W        W79235   2.327  34.573   4.163
 6811W        W79236  32.190  27.188  11.727
 6812W        W79237  12.173  33.466  14.887
 6813W        W79238   0.844  31.193  11.587
 6814W        W79239   3.412  30.683   0.769
 6815W        W79240  22.307  33.554   4.673
 6816W        W79241  28.904  18.230   2.660
 6817W        W79242  11.788  17.630  11.512
 6818W        W79243  17.636  32.147  14.896
 6819W        W79244  20.240  15.286   1.350
 6820W        W79245  31.099  42.383   2.411
 6821W        W79246  20.572  16.140   0.382
 6822W        W79247  22.423  43.354  14.775
 6823W        W79248   6.751   3.040  12.467
 6824W        W79249   9.883  26.630   1.267
 6825W        W79250  14.332  12.864   2.707
 6826W        W79251  18.197  34.064  14.059
 6827W        W79252  22.043  41.868  13.569
 6828W        W79253   4.845   6.746   4.700
 6829W        W79254  26.145  30.305   3.746
 6830W        W79255  38.909   3.268   3.488
 6831W        W79256  19.223   5.712  12.955
 6832W        W79257  44.873  35.406  13.126
 6833W        W79258  17.211  12.109   0.657
 6834W        W79259  16.574  10.808  10.629
 6835W        W79260  30.824  38.541  14.294
 6836W        W79261  10.709   8.482   0.022
 6837W        W79262   1.788  12.316  14.464
 6838W        W79263  28.543  21.782  10.596
 6839W        W79264  14.495  41.495  12.818
 6840W        W79265  19.528  38.060   4.210
 6841W        W79266  30.399  22.312   2.823
 6842W        W79267  16.742  44.287   4.054
 6843W        W79268   4.895  38.058   2.483
 6844W        W79269  12.408   3.450   4.026
 6845W        W79270  19.740  15.755  13.961
 6846W        W79271  33.197  20.692  14.283
 6847W        W79272  31.242  14.259   3.614
 6848W        W79273  44.271   8.894   2.831
 6849W        W79274  16.753  18.878   4.072
 6850W        W79275  42.412  44.670   0.275
 6851W        W79276  15.745  31.176  12.842
 6852W        W79277   5.940  16.053  11.535
 6853W        W79278  19.270  32.124   2.772
 6854W        W79279  33.315  25.013   2.820
 6855W        W79280  17.559  26.679  12.947
 6856W        W79281  41.217  38.509  11.320
 6857W        W79282  27.708  10.219  10.177
 6858W        W79283  13.698  22.142   5.327
 6859W        W79284   8.882   2.409   4.368
 6860W        W79285  42.452  22.368  11.981
 6861W        W79286  32.339  43.151   2.267
 6862W        W79287  15.079  34.672   1.661
 6863W        W79288  10.198  29.486   1.838
 6864W        W79289  30.601   1.533   1.054
 6865W        W79290  42.259  42.282   3.313
 6866W        W79291  15.323  17.185  11.847
 6867W        W79292   7.858  26.145   0.640
 6868W        W79293   8.449  30.664  12.945
 6869W        W79294  10.669  37.944  14.968
 6870W        W79295  10.432   9.068  11.479
 6871W        W79296  12.578   4.730  10.720
 6872W        W79297  37.710  22.150  14.242
 6873W        W79298  25.899  44.480  13.416
 6874W        W79299  11.155   3.044  10.761
 6875W        W79300  21.058  23.175  11.709
 6876W        W79301  39.229  37.350  12.422
 6877W        W79302  43.821  10.964   0.688
 6878W        W79303  35.650  24.704  11.914
 6879W        W79304  24.699  31.629   1.388
 6880W        W79305   5.132  30.913   0.392
 6881W        W79306  18.234  39.243  13.779
 6882W        W79307   6.808  18.347  11.703
 6883W        W79308  27.481  26.490   5.081
 6884W        W79309  19.533  15.986  10.585
 6885W        W79310  28.742   3.476   2.406
 6886W        W79311  40.569  11.814  13.930
 6887W        W79312   2.487  29.541  14.501
 6888W        W79313   7.463  19.260  12.945
 6889W        W79314  12.383  27.468  12.063
 6890W        W79315  31.181  34.695   4.769
 6891W        W79316   0.760   8.588   4.133
 6892W        W79317   4.767  23.691  14.952
 6893W        W79318   2.508  20.066  13.951
 6894W        W79319  14.778  21.442   9.852
 6895W        W79320  36.798  40.087   4.603
 6896W        W79321   7.410  24.484   3.254
 6897W        W79322   0.455  32.431   0.025
 6898W        W79323  26.449  31.155   3.419
 6899W        W79324   4.855  41.474  14.954
 6900W        W79325   4.276  10.793   4.616
 6901W        W79326  18.275  35.821   1.908
 6902W        W79327  44.439  25.974   3.690
 6903W        W79328  37.771   0.419   2.294
 6904W        W79329  13.759  34.275  14.772
 6905W        W79330   0.472  13.111   3.253
 6906W        W79331  42.672  43.771   2.245
 6907W        W79332  22.399   6.309  13.439
 6908W        W79333  36.564  40.516   4.388
 6909W        W79334   4.278   1.942  12.499
 6910W        W79335  42.509  44.261   4.858
 6911W        W79336  28.785  15.218  14.114
 6912W        W79337   6.286  35.830  11.599
 6913W        W79338  14.238   8.412  11.585
 6914W        W79339  22.525  11.775   4.882
 6915W        W79340  13.136  19.252   0.272
 6916W        W79341  12.616  12.725  11.366
 6917W        W79342  30.098  20.120  14.337
 6918W        W79343  19.223  24.593   3.224
 6919W        W79344   8.866  31.515   3.864
 6920W        W79345  14.641  24.891  10.383
 6921W        W79346  32.489  39.144   1.292
 6922W        W79347   7.906   6.149   3.214
 6923W        W79348  21.805  15.323  14.519
 6924W        W79349  31.541  10.288   3.138
 6925W        W79350  40.246  11.221   0.478
 6926W        W79351  24.060  19.250   4.463
 6927W        W79352  44.780  38.327   0.224
 6928W        W79353   1.371  21.306   0.801
 6929W        W79354  35.905  44.273  14.596
 6930W        W79355  11.808   7.894   1.349
 6931W        W79356  36.907  41.219   4.332
 6932W        W79357   1.351  27.052  12.558
 6933W        W79358  34.035  21.687  12.433
 6934W        W79359   9.641  30.653   1.380
 6935W        W79360  36.501   1.761  14.308
 6936W        W79361   3.319  30.680  11.295
 6937W        W79362  29.470   2.432   1.914
 6938W        W79363   2.388  41.824   4.505
 6939W        W79364  34.431  31.169   1.881
 6940W        W79365  13.131  32.088  14.495
 6941W        W79366  34.662  37.785  11.982
 6942W        W79367  42.376  11.889   0.795
 6943W        W79368   8.030  43.878  12.045
 6944W        W79369  24.240   4.469   2.833
 6945W        W79370  23.185   2.433   0.134
 6946W        W79371   5.255  44.894   1.284
 6947W        W79372   9.857  25.873   4.976
 6948W        W79373  24.091  40.497  10.893
 6949W        W79374  32.828  14.958  11.895
 6950W        W79375   7.602  12.323   2.301
 6951W        W79376  11.382   0.675  13.056
 6952W        W79377   8.895  16.020   0.091
 6953W        W79378  31.909  36.098  13.624
 6954W        W79379  26.229  29.202  13.304
 6955W        W79380  40.113  26.012   0.345
 6956W        W79381  23.298  44.989  14.328
 6957W        W79382  44.844  35.033   0.504
 6958W        W79383  27.484  33.362  14.774
 6959W        W79384   3.333  23.567   3.400
 6960W        W79385  24.451  37.482  10.183
 6961W        W79386  13.841  13.144  14.766
 6962W        W79387  40.410  40.837  13.498
 6963W        W79388  17.015  40.067  10.876
 6964W        W79389  20.560  25.204  12.959
 6965W        W79390   1.181  17.567  10.783
 6966W        W79391  40.145  14.722  10.497
 6967W        W79392  33.139   9.830   0.262
 6968W        W79393  21.797  37.345  12.484
 6969W        W79394  17.283   5.744  14.679
 6970W        W79395   2.063  20.717   3.283
 6971W        W79396  34.984   4.453   1.580
 6972W        W79397  38.309  17.688  13.006
 6973W        W79398  40.229  17.994  11.290
 6974W        W79399  24.678   6.934   1.968
 6975W        W79400  24.172   6.196   4.020
 6976W        W79401  18.276   8.110  11.559
 6977W        W79402   0.332  19.694   4.677
 6978W        W79403  10.994  25.034  12.931
 6979W        W79404  42.828  42.715   4.313
 6980W        W79405  35.961   2.364   3.289
 6981W        W79406   8.673  14.169   1.954
 6982W        W79407  15.959  37.591  14.962
 6983W        W79408   3.238   5.293   0.275
 6984W        W79409  34.063  11.143  14.930
 6985W        W79410   3.963  11.804   0.700
 6986W        W79411  41.259  23.609  12.586
 6987W        W79412  36.373  28.002   0.430
 6988W        W79413   8.871   9.452  11.712
 6989W        W79414  41.602  39.117   3.734
 6990W        W79415  34.527   7.271  14.445
 6991W        W79416   9.382  17.553   0.862
 6992W        W79417   3.501  33.058   3.760
 6993W        W79418  12.093   2.971  14.814
 6994W        W79419  40.366   6.459  11.187
 6995W        W79420  20.003  25.714   3.312
 6996W        W79421  23.911  38.868  10.400
 6997W        W79422  26.519  35.502  11.410
 6998W        W79423   6.564  15.674   1.262
 6999W        W79424  31.075   7.145   1.085
 7000W        W79425  29.435  27.624   1.039
 7001W        W79426  28.964  18.231   0.281
 7002W        W79427  37.593  30.762   0.434
 7003W        W79428  24.246  35.906  11.186
 7004W        W79429  31.528  39.400   1.368
 7005W        W79430  39.370   2.807  14.818
 7006W        W79431   2.989  33.391  11.720
 7007W        W79432  21.242  27.544  12.103
 7008W        W79433  22.707  21.034   3.853
 7009W        W79434  43.342   4.635   4.682
 7010W        W79435  12.722  22.730   0.936
 7011W        W79436  44.648   7.001   2.588
 7012W        W79437   5.157  33.745   1.280
 7013W        W79438  13.224   2.219  11.456
 7014W        W79439   4.279   1.898  13.463
 7015W        W79440  30.495  20.199  12.633
 7016W        W79441  27.986  35.046  13.325
 7017W        W79442  13.227  20.320  13.790
 7018W        W79443   3.277   0.287  11.897
 7019W        W79444  11.111   6.763  11.482
 7020W        W79445  18.280  40.373   0.369
 7021W        W79446  39.756  10.566  13.036
 7022W        W79447  43.327  22.129  14.931
 7023W        W79448  14.719  11.916  10.725
 7024W        W79449   3.313   2.273  12.968
 7025W        W79450  17.746  32.536  11.899
 7026W        W79451  30.874  38.298   2.341
 7027W        W79452   3.628  29.740   2.158
 7028W        W79453  16.827  23.526   4.885
 7029W        W79454  37.483  10.430   0.827
 7030W        W79455  43.815  27.683   3.916
 7031W        W79456  15.268  16.137  14.737
 7032W        W79457   5.466  30.837  14.496
 7033W        W79458  14.586  18.757   2.290
 7034W        W79459  32.053  26.124  10.153
 7035W        W79460  22.280  31.549  14.746
 7036W        W79461  28.148   2.499  12.642
 7037W        W79462  29.729  44.453   0.894
 7038W        W79463  25.470  18.317  11.526
 7039W        W79464  44.851  23.795   3.740
 7040W        W79465   1.505  33.078  10.903
 7041W        W79466  23.447  20.644   1.342
 7042W        W79467   7.806  25.562  14.483
 7043W        W79468  38.419   3.866   3.123
 7044W        W79469  36.638  10.778   0.345
 7045W        W79470  42.411  44.767   2.365
 7046W        W79471  19.280  14.040  11.364
 7047W        W79472  37.813  36.307  12.515
 7048W        W79473  43.199  15.672  11.283
 7049W        W79474  10.098  40.936  14.986
 7050W        W79475   4.327  15.013   2.146
 7051W        W79476  37.811   9.983  12.306
 7052W        W79477  40.500  13.387   2.223
 7053W        W79478  16.844  18.342  14.833
 7054W        W79479  19.542  44.737   1.731
 7055W        W79480   9.233  40.611  14.575
 7056W        W79481   3.231   5.354   0.789
 7057W        W79482  11.982  15.619  12.408
 7058W        W79483   8.687  22.818  14.138
 7059W        W79484  17.091  16.306   0.935
 7060W        W79485  19.756  16.220   0.803
 7061W        W79486  31.644  27.717  14.321
 7062W        W79487  23.524  32.585  12.514
 7063W        W79488  22.618  14.170   5.175
 7064W        W79489   3.317  26.962  10.752
 7065W        W79490  39.733  44.783   2.781
 7066W        W79491  40.281  31.639   4.457
 7067W        W79492  12.148  12.627   2.059
 7068W        W79493  16.733  38.352  13.765
 7069W        W79494  26.955  13.766   3.626
 7070W        W79495  33.413  14.754  10.909
 7071W        W79496  34.841  17.986   1.349
 7072W        W79497  10.830  20.598   3.327
 7073W        W79498  27.307   8.534   2.002
 7074W        W79499  24.565  38.916   4.422
 7075W        W79500   3.247  23.548   4.425
 7076W        W79501  25.381  36.468   2.735
 7077W        W79502   4.331  27.530  13.002
 7078W        W79503  21.412  31.353  14.485
 7079W        W79504   1.512  35.063  13.622
 7080W        W79505  29.533  22.241  10.426
 7081W        W79506  15.263  23.782  11.137
 7082W        W79507  38.486   8.738  10.335
 7083W        W79508  32.144  42.390   1.931
 7084W        W79509  42.951  36.898  11.490
 7085W        W79510  34.493   3.729  11.025
 7086W        W79511  18.067   3.940   3.292
 7087W        W79512  14.227  12.549  12.995
 7088W        W79513  14.010   7.340   3.763
 7089W        W79514  17.143  37.348   1.429
 7090W        W79515  43.945  29.888  12.317
 7091W        W79516   5.472  23.461   1.813
 7092W        W79517  44.559  35.911   3.857
 7093W        W79518  32.068   5.653  13.391
 7094W        W79519  43.150  39.431  13.464
 7095W        W79520  31.882  18.141  12.874
 7096W        W79521   4.407   0.201   4.184
 7097W        W79522  39.475  36.489   4.334
 7098W        W79523  29.662   5.574   1.792
 7099W        W79524   5.245   5.335   3.263
 7100W        W79525  20.699  30.203  13.081
 7101W        W79526  12.896  23.782  13.961
 7102W        W79527  27.962  14.699   4.119
 7103W        W79528  17.874  16.613  14.137
 7104W        W79529  19.788  25.531   3.744
 7105W        W79530  14.256  29.119  10.136
 7106W        W79531  43.585  11.809   2.061
 7107W        W79532   3.833   9.797   1.389
 7108W        W79533  17.161  13.743   2.484
 7109W        W79534   8.907  11.929   3.199
 7110W        W79535  21.475  42.443  11.090
 7111W        W79536  41.388   5.419  14.397
 7112W        W79537  23.796  36.023   4.036
 7113W        W79538  40.977  25.381   5.074
 7114W        W79539  26.705  22.032   0.947
 7115W        W79540  10.430  15.641   2.631
 7116W        W79541  38.267  21.552   0.287
 7117W        W79542  29.653  22.538   0.858
 7118W        W79543  25.194  41.005   3.129
 7119W        W79544  14.375  36.503   1.806
 7120W        W79545  15.507  38.597   4.596
 7121W        W79546  26.092  27.565  14.990
 7122W        W79547   1.953  10.638  11.705
 7123W        W79548   5.326  40.325   3.690
 7124W        W79549  22.608   3.329  12.042
 7125W        W79550  34.565  21.075   4.630
 7126W        W79551  34.926  35.676  11.108
 7127W        W79552  17.311  32.168   4.196
 7128W        W79553   5.968  41.260  13.184
 7129W        W79554  10.050  38.456   2.915
 7130W        W79555  10.558  13.134   4.347
 7131W        W79556  12.892  14.169  11.575
 7132W        W79557  42.740  17.372  13.850
 7133W        W79558  21.708  33.560  12.054
 7134W        W79559  22.479  36.074   3.612
 7135W        W79560   5.761  44.737   2.375
 7136W        W79561  26.929  23.104  13.638
 7137W        W79562   9.342  12.139  11.003
 7138W        W79563  27.427  20.213  13.893
 7139W        W79564  17.998   1.190  11.751
 7140W        W79565  40.642  35.059   4.714
 7141W        W79566  11.159  15.278  12.096
 7142W        W79567   4.818  20.983   3.604
 7143W        W79568   3.341   7.333   1.861
 7144W        W79569  39.401  24.775   4.967
 7145W        W79570  16.265  22.034  13.381
 7146W        W79571  10.459  27.522   1.193
 7147W        W79572  27.507  24.680   0.285
 7148W        W79573  29.462  16.839  12.121
 7149W        W79574  44.490   3.414   1.259
 7150W        W79575  33.829  31.117  13.844
 7151W        W79576  17.946   6.212  10.240
 7152W        W79577   9.508   3.882   0.793
 7153W        W79578   7.410   8.298  12.062
 7154W        W79579  17.210  27.901  11.897
 7155W        W79580  16.050  17.304   3.233
 7156W        W79581  12.355  20.875   1.731
 7157W        W79582  10.396  42.886  12.295
 7158W        W79583  37.659  18.039  14.114
 7159W        W79584  21.253  18.250   2.070
 7160W        W79585  24.349  40.242  12.535
 7161W        W79586  14.876  11.359   4.215
 7162W        W79587  23.621   4.838  10.213
 7163W        W79588   7.923  23.083   3.625
 7164W        W79589   4.994   1.760   1.163
 7165W        W79590  15.912   3.129   9.874
 7166W        W79591  33.193  36.045   0.750
 7167W        W79592  41.894  29.147   2.450
 7168W        W79593   4.411   1.824   5.084
 7169W        W79594  39.101  12.963   4.532
 7170W        W79595  36.299  32.047   5.047
 7171W        W79596  38.447  33.839  11.243
 7172W        W79597   0.634  28.088   3.832
 7173W        W79598  32.517   6.620  11.711
 7174W        W79599  28.861  10.661  12.161
 7175W        W79600  16.156  37.294  14.356
 7176W        W79601   5.795   6.337   0.303
 7177W        W79602  15.235  32.808  12.375
 7178W        W79603  14.974  25.148  12.473
 7179W        W79604   7.906  24.563  11.232
 7180W        W79605  26.714  14.407  10.298
 7181W        W79606  22.519   6.268   2.421
 7182W        W79607  34.830  42.844   4.929
 7183W        W79608  37.527  28.350   4.607
 7184W        W79609  38.368  38.927   4.645
 7185W        W79610  34.552  36.762   3.251
 7186W        W79611   9.638   5.460   5.026
 7187W        W79612  20.274  42.598   1.721
 7188W        W79613   8.247  13.556   3.234
 7189W        W79614   9.129  34.655  14.433
 7190W        W79615  29.334  31.565   2.730
 7191W        W79616  28.472  27.643  10.627
 7192W        W79617  30.560  15.263   0.206
 7193W        W79618  33.695  15.351   4.722
 7194W        W79619  42.863  41.863   3.381
 7195W        W79620  20.884  29.331  13.540
 7196W        W79621  21.047   7.467   3.684
 7197W        W79622   8.646  34.176   4.217
 7198W        W79623  14.463  21.031  13.179
 7199W        W79624  36.875  18.194   2.918
 7200W        W79625  31.365   5.863  14.725
 7201W        W79626  38.424  42.291   0.912
 7202W        W79627  35.396   6.652  14.983
 7203W        W79628  22.166  38.553  10.576
 7204W        W79629  26.662  40.479  12.431
 7205W        W79630   6.230  32.239  13.849
 7206W        W79631  28.917  15.632   1.417
 7207W        W79632   0.329  11.091   4.982
 7208W        W79633  18.065  20.722  10.957
 7209W        W79634   7.665  26.607  13.303
 7210W        W79635  13.668  43.786   4.183
 7211W        W79636  18.009  23.166   1.733
 7212W        W79637  32.054  34.061  12.610
 7213W        W79638   4.444  33.642   2.264
 7214W        W79639  22.013  31.450  10.751
 7215W        W79640  16.039   7.137  12.896
 7216W        W79641  40.571  40.681  14.907
 7217W        W79642   5.354  22.538   2.808
 7218W        W79643  13.691   7.192  14.020
 7219W        W79644  18.868  10.717   2.758
 7220W        W79645  30.614  13.100   1.891
 7221W        W79646  38.609  34.234   0.103
 7222W        W79647  40.322   5.341   2.834
 7223W        W79648  11.739  28.417   2.633
 7224W        W79649  31.535  36.094   2.201
 7225W        W79650  12.197  27.757   2.439
 7226W        W79651  38.848   2.677   3.281
 7227W        W79652  44.241   7.429  10.548
 7228W        W79653  40.741  22.949  11.601
 7229W        W79654  38.403  30.445  13.463
 7230W        W79655  43.272  16.791   1.928
 7231W        W79656  27.974   9.865  13.237
 7232W        W79657  10.377  18.265   0.716
 7233W        W79658  42.789  43.859   0.344
 7234W        W79659  43.274  26.811  12.461
 7235W        W79660  17.244  12.331   4.739
 7236W        W79661  18.048  10.800  10.690
 7237W        W79662  28.833  16.678   0.956
 7238W        W79663  18.355  23.249   2.200
 7239W        W79664  42.251  34.077   4.578
 7240W        W79665  37.504   6.020   0.104
 7241W        W79666  23.196  33.147   3.669
 7242W        W79667   6.745   8.844   2.746
 7243W        W79668   7.240  17.373   3.134
 7244W        W79669  14.327  12.863   1.751
 7245W        W79670  14.699  31.423   4.047
 7246W        W79671   1.220  43.955  14.932
 7247W        W79672  23.487  34.864   2.684
 7248W        W79673  32.857  21.402  10.515
 7249W        W79674  29.665   0.493   4.785
 7250W        W79675  39.660   1.980  11.989
 7251W        W79676  25.947  40.068   0.277
 7252W        W79677   0.467  37.861  10.575
 7253W        W79678   1.926  10.440  12.844
 7254W        W79679  37.819   3.356  11.343
 7255W        W79680  25.545   4.621   3.113
 7256W        W79681  42.704  18.044  11.161
 7257W        W79682   7.281  25.622   0.182
 7258W        W79683  44.628  13.755   3.657
 7259W        W79684  20.721  23.517   3.232
 7260W        W79685  19.029  14.898  13.477
 7261W        W79686   3.509  17.577  12.136
 7262W        W79687  28.596  15.164  12.480
 7263W        W79688  40.964  16.835   1.293
 7264W        W79689   1.889  40.713   1.336
 7265W        W79690   6.683  28.128  13.864
 7266W        W79691   2.841  32.047  11.199
 7267W        W79692   2.335  10.783   0.804
 7268W        W79693  39.407   8.949  10.442
 7269W        W79694  12.733  27.390   4.189
 7270W        W79695  41.434   4.666   2.206
 7271W        W79696  38.806  26.692   1.146
 7272W        W79697  11.840  31.882  13.830
 7273W        W79698  37.387  35.364  14.965
 7274W        W79699  10.711  10.153   0.836
 7275W        W79700  22.811  10.583  13.107
 7276W        W79701  10.215   9.287  14.715
 7277W        W79702  43.023  13.214   2.841
 7278W        W79703  28.388  42.199   0.735
 7279W        W79704   0.975  42.960   2.811
 7280W        W79705  16.662  30.460   0.922
 7281W        W79706  44.530   1.403  11.626
 7282W        W79707  28.902   2.821  13.130
 7283W        W79708  11.742  34.147  14.008
 7284W        W79709  27.958  38.247  11.882
 7285W        W79710  36.455  41.629   5.184
 7286W        W79711   7.666  43.283   3.690
 7287W        W79712  30.441  22.829   2.841
 7288W        W79713  19.679  24.608  13.169
 7289W        W79714  34.980  25.682  12.691
 7290W        W79715  13.110  34.109  11.689
 7291W        W79716   6.728  37.572  11.839
 7292W        W79717  10.576   7.751  12.650
 7293W        W79718   1.282   3.527  14.524
 7294W        W79719  26.037  10.611   3.995
 7295W        W79720  13.310  42.556   1.829
 7296W        W79721   9.145  15.819   1.388
 7297W        W79722   2.446  28.485   4.859
 7298W        W79723  30.658  16.901   3.760
 7299W        W79724  32.946  36.395  13.887
 7300W        W79725  27.470  17.678  11.896
 7301W        W79726  42.307   3.275  14.806
 7302W        W79727  29.024  15.429  12.597
 7303W        W79728  33.347  44.442   1.074
 7304W        W79729  24.020   8.529   9.752
 7305W        W79730  32.793  41.802   1.961
 7306W        W79731  26.138   8.353   4.251
 7307W        W79732   4.276  30.780   2.618
 7308W        W79733  43.974  19.532   4.656
 7309W        W79734  13.635  43.421  10.909
 7310W        W79735  28.063  44.765  14.982
 7311W        W79736   7.097  41.687   4.513
 7312W        W79737  44.823   5.837  11.844
 7313W        W79738  28.631   2.626  14.415
 7314W        W79739   8.853  27.171  13.282
 7315W        W79740  36.877  18.480  13.521
 7316W        W79741  18.750  33.464  14.330
 7317W        W79742  31.687  33.997   1.994
 7318W        W79743   4.711  38.915   4.089
 7319W        W79744   6.503  29.302   0.967
 7320W        W79745  30.613   3.250  11.628
 7321W        W79746  39.088  16.093   0.788
 7322W        W79747   0.996  39.826  11.656
 7323W        W79748   0.810  29.448   3.654
 7324W        W79749  33.353  13.242  13.860
 7325W        W79750  40.790   1.473   2.450
 7326W        W79751   7.723   0.505   3.284
 7327W        W79752  13.213   0.649   3.513
 7328W        W79753  28.421  13.862  10.413
 7329W        W79754  39.854  39.777   1.857
 7330W        W79755   2.233   9.099  14.892
 7331W        W79756  21.624  40.867   4.572
 7332W        W79757  12.707  32.606   2.376
 7333W        W79758  25.279   2.450   2.758
 7334W        W79759  17.721  21.863   1.186
 7335W        W79760   1.388  41.140  14.442
 7336W        W79761  18.755  35.287   2.333
 7337W        W79762  38.248  23.209   9.705
 7338W        W79763   1.056  13.271  12.834
 7339W        W79764   7.261   8.179  10.675
 7340W        W79765  28.618  39.323   2.744
 7341W        W79766  16.902   0.395   1.417
 7342W        W79767  19.180  38.464  11.575
 7343W        W79768  23.672  23.098  11.986
 7344W        W79769  17.013   8.401  11.976
 7345W        W79770  25.637   3.430   1.756
 7346W        W79771  22.557  38.153   3.130
 7347W        W79772  35.194  38.538  13.507
 7348W        W79773  10.168  15.807   3.611
 7349W        W79774   3.826  20.725   3.764
 7350W        W79775  28.089  44.443  11.736
 7351W        W79776  39.833   2.906  13.564
 7352W        W79777  14.614  26.714   2.261
 7353W        W79778   8.427   0.014   0.953
 7354W        W79779  41.339  16.305   3.790
 7355W        W79780   9.123  41.351   0.820
 7356W        W79781  32.172   8.808   2.354
 7357W        W79782  33.875  41.013   1.831
 7358W        W79783   7.357  31.544  13.633
 7359W        W79784  11.833  44.352  13.362
 7360W        W79785  34.629  25.624   2.845
 7361W        W79786  13.578  12.748  13.504
 7362W        W79787  29.924   7.299  14.053
 7363W        W79788  17.642  28.170  12.084
 7364W        W79789  17.807  18.230   2.542
 7365W        W79790  28.678  30.626   9.797
 7366W        W79791  18.372  14.565  11.894
 7367W        W79792  33.426  13.696   1.323
 7368W        W79793  42.769  36.015   0.571
 7369W        W79794   9.133  38.053   2.075
 7370W        W79795   5.185  38.616  14.432
 7371W        W79796  38.338  39.837   4.809
 7372W        W79797  34.891   0.263  12.876
 7373W        W79798  42.862  15.067   3.621
 7374W        W79799  12.863  10.078   4.534
 7375W        W79800   2.862   0.889   4.358
 7376W        W79801   6.629  17.910  14.737
 7377W        W79802  37.424  13.293  13.486
 7378W        W79803   5.702  19.069   1.184
 7379W        W79804  42.726  12.741  13.189
 7380W        W79805  18.784  43.002  12.509
 7381W        W79806  29.305  29.050  13.536
 7382W        W79807   6.995  42.077   3.288
 7383W        W79808  10.077   1.831   1.126
 7384W        W79809  35.616  19.983   1.476
 7385W        W79810  25.989  35.931   0.912
 7386W        W79811  29.881  35.878   1.151
 7387W        W79812  25.462  33.803   4.013
 7388W        W79813  41.666  29.087  14.634
 7389W        W79814   1.903  14.430   1.399
 7390W        W79815  21.661  44.018   4.239
 7391W        W79816  21.809  28.735   0.402
 7392W        W79817  14.670  37.081   2.699
 7393W        W79818  34.821   0.004   4.112
 7394W        W79819   0.288   2.591   2.849
 7395W        W79820   1.669  19.665   5.012
 7396W        W79821  11.726   9.872  10.614
 7397W        W79822   9.207  10.425   9.980
 7398W        W79823  30.668  42.304   3.679
 7399W        W79824  41.956  30.590   3.694
 7400W        W79825  14.726  33.405   4.556
 7401W        W79826  38.578  35.185   4.102
 7402W        W79827  11.069  12.379   4.821
 7403W        W79828  19.297  12.538  11.089
 7404W        W79829  19.181  15.579  10.327
 7405W        W79830  19.189  43.023  14.299
 7406W        W79831   4.163   3.830   1.374
 7407W        W79832  15.206   5.566   4.565
 7408W        W79833  44.727  25.521   1.230
 7409W        W79834   9.414  10.641  12.809
 7410W        W79835  12.771   4.189   0.511
 7411W        W79836   2.029  44.885   1.876
 7412W        W79837   9.728   9.485  14.841
 7413W        W79838  31.995   9.680   2.605
 7414W        W79839  29.400  36.749  11.517
 7415W        W79840  28.292  40.237   0.036
 7416W        W79841  39.522   2.354   2.775
 7417W        W79842  39.448   4.852   1.295
 7418W        W79843   5.877  27.117  10.815
 7419W        W79844  25.058   1.533   0.776
 7420W        W79845  43.300   0.912  12.862
 7421W        W79846  16.304   6.396   1.212
 7422W        W79847  21.764  36.399   4.793
 7423W        W79848  35.390  34.030  13.263
 7424W        W79849  38.717  40.767   4.474
 7425W        W79850  33.680  18.355   5.005
 7426W        W79851  25.259  21.098  13.370
 7427W        W79852  14.482  20.103   3.452
 7428W        W79853  29.799  32.153  14.009
 7429W        W79854   4.467  11.351  13.596
 7430W        W79855  13.099  17.290  12.006
 7431W        W79856  38.941  30.029   1.262
 7432W        W79857  10.288   1.334  13.389
 7433W        W79858   1.906  25.578   1.628
 7434W        W79859   9.366  34.891   1.860
 7435W        W79860   8.816  21.725   2.115
 7436W        W79861  43.829  31.365  12.068
 7437W        W79862   0.773  36.102  12.125
 7438W        W79863  13.173  43.583   1.726
 7439W        W79864   0.237  17.654   4.191
 7440W        W79865  23.548  37.975  10.746
 7441W        W79866   7.100  21.303   2.260
 7442W        W79867  16.835  42.008   0.957
 7443W        W79868  10.722  24.120  12.795
 7444W        W79869  23.111  40.332   4.857
 7445W        W79870   0.039   7.986   2.766
 7446W        W79871  44.914  34.300  11.623
 7447W        W79872  26.688  43.558   2.680
 7448W        W79873  15.245  40.514   1.292
 7449W        W79874  31.738  15.669   9.799
 7450W        W79875   8.766  34.466  11.533
 7451W        W79876  35.009  15.523  13.899
 7452W        W79877  11.756  26.574   4.645
 7453W        W79878   0.495  44.546  13.938
 7454W        W79879  37.788  14.805  13.907
 7455W        W79880  34.987   1.391   1.364
 7456W        W79881  18.148   5.985   3.138
 7457W        W79882  18.484  43.832   0.736
 7458W        W79883  18.640  34.176   4.213
 7459W        W79884  11.276  30.880  11.579
 7460W        W79885  35.377  37.274  13.577
 7461W        W79886  30.652  43.867  13.523
 7462W        W79887  22.618  30.173   4.630
 7463W        W79888   4.888   4.991   1.454
 7464W        W79889   5.823  26.225   1.305
 7465W        W79890  21.283  10.796   1.211
 7466W        W79891  27.606  33.218  12.147
 7467W        W79892  39.048   0.034   4.625
 7468W        W79893  33.084  38.760  11.572
 7469W        W79894   7.949  16.064   5.034
 7470W        W79895  23.687  31.831  13.029
 7471W        W79896  37.940  14.033   0.250
 7472W        W79897  11.701   3.508  11.206
 7473W        W79898  38.852  33.565   0.352
 7474W        W79899   1.047  13.044  11.711
 7475W        W79900  41.239  13.159   3.882
 7476W        W79901  23.439  11.687  12.056
 7477W        W79902   8.502   6.182  10.180
 7478W        W79903   8.336  35.524   0.789
 7479W        W79904  31.854   9.173  12.599
 7480W        W79905   7.210  19.614  10.916
 7481W        W79906  16.339   1.926   4.163
 7482W        W79907  37.400  19.125   3.731
 7483W        W79908   1.259  32.593  11.711
 7484W        W79909   8.478  19.222  11.329
 7485W        W79910  44.441  19.120  11.758
 7486W        W79911  18.342  43.069  11.080
 7487W        W79912  33.672  13.839  12.952
 7488W        W79913  37.262  27.938   4.983
 7489W        W79914  15.798  31.585   2.881
 7490W        W79915  29.268  14.705   1.713
 7491W        W79916  28.461   3.952   1.026
 7492W        W79917  37.862  40.345  12.827
 7493W        W79918   2.476  35.932   3.878
 7494W        W79919  38.357   7.637  14.308
 7495W        W79920  24.025  21.221   3.222
 7496W        W79921  27.048  22.319   4.547
 7497W        W79922  35.436   0.566   3.256
 7498W        W79923  18.069  33.421  10.670
 7499W        W79924  30.065  19.120  14.103
 7500W        W79925  27.664  42.509  11.934
 7501W        W79926  14.593  40.772  12.081
 7502W        W79927  32.329  14.261   0.818
 7503W        W79928   9.913  23.929   5.189
 7504W        W79929   8.150   9.833   0.178
 7505W        W79930  16.557  18.730   3.604
 7506W        W79931  32.612  13.826   0.898
 7507W        W79932   8.485  19.691   3.389
 7508W        W79933  36.039  32.425  10.694
 7509W        W79934  32.825  37.023   0.285
 7510W        W79935  23.302  29.936   1.215
 7511W        W79936   7.273  14.911   0.939
 7512W        W79937   8.060  38.422  13.862
 7513W        W79938  12.678  14.722  10.434
 7514W        W79939  13.750   5.368  12.476
 7515W        W79940  17.576  20.489  13.999
 7516W        W79941  24.269   8.779  11.551
 7517W        W79942  35.661  36.995  10.692
 7518W        W79943  11.681  32.076   0.751
 7519W        W79944  13.255  12.501  13.811
 7520W        W79945  43.466  24.945  11.981
 7521W        W79946  35.899  34.668  13.961
 7522W        W79947  39.504  34.624   0.874
 7523W        W79948  37.398  25.568   2.578
 7524W        W79949  42.976   4.105  13.516
 7525W        W79950   7.749  24.957   1.363
 7526W        W79951   5.154  34.940  11.572
 7527W        W79952   9.683  34.835   0.952
 7528W        W79953   8.422  19.696   2.875
 7529W        W79954   5.951  39.975  14.759
 7530W        W79955  11.692  41.327   4.237
 7531W        W79956   4.788   6.754  10.849
 7532W        W79957  23.224  22.117   2.274
 7533W        W79958  18.344  41.564  11.094
 7534W        W79959   7.165   6.245   2.725
 7535W        W79960  10.009  36.681  12.948
 7536W        W79961   5.256   9.393  12.094
 7537W        W79962  40.811  20.629   3.412
 7538W        W79963   0.471   1.286  12.554
 7539W        W79964  30.690   1.438  13.436
 7540W        W79965  33.480   8.795   1.245
 7541W        W79966  29.462  15.260   2.875
 7542W        W79967   7.485  30.942  14.366
 7543W        W79968  31.868  28.889   1.815
 7544W        W79969   3.663  29.339  11.102
 7545W        W79970  14.846  12.250   3.924
 7546W        W79971  34.398  24.451  12.902
 7547W        W79972  40.586  21.791   2.927
 7548W        W79973   7.127   1.956  13.838
 7549W        W79974   1.271   3.794  13.652
 7550W        W79975  13.195  36.045  10.669
 7551W        W79976  43.462  43.382   1.680
 7552W        W79977  28.223   8.137  10.141
 7553W        W79978  44.807  41.806  11.392
 7554W        W79979   5.741  44.102  12.630
 7555W        W79980   1.263  20.186   4.498
 7556W        W79981   2.405   8.298   2.662
 7557W        W79982  19.242  40.526  12.876
 7558W        W79983  18.020  21.015   2.815
 7559W        W79984   0.456  25.093   2.250
 7560W        W79985  39.570   5.291  13.384
 7561W        W79986  43.906  31.861  10.545
 7562W        W79987  16.329  23.909   4.335
 7563W        W79988  33.497  29.772  12.208
 7564W        W79989  15.312  18.593   1.752
 7565W        W79990   6.630  28.984  12.422
 7566W        W79991  34.463  22.775  13.006
 7567W        W79992   0.028  17.604   1.745
 7568W        W79993   7.656   1.331   4.948
 7569W        W79994  36.225  23.797  13.841
 7570W        W79995  10.398   7.808  11.297
 7571W        W79996   9.371  32.455   1.835
 7572W        W79997  24.670  14.526  11.143
 7573W        W79998  36.216  16.278   4.247
 7574W        W79999   2.903  16.375  14.359
 7575W        W80000  44.798  33.522   4.395
 7576W        W80001   6.779  17.642   0.635
 7577W        W80002   6.249   9.687   1.836
 7578W        W80003  18.156  41.694   1.550
 7579W        W80004  15.555  27.960  11.009
 7580W        W80005  13.112   8.820  12.594
 7581W        W80006  27.856   0.949  10.646
 7582W        W80007   5.279  16.831   0.300
 7583W        W80008  27.951  10.689  13.927
 7584W        W80009  26.919  23.080   2.730
 7585W        W80010  40.924  31.889   2.360
 7586W        W80011  33.458  21.802   3.136
 7587W        W80012  13.268  32.540  14.715
 7588W        W80013  12.633  39.978  12.884
 7589W        W80014  40.126   8.589  11.983
 7590W        W80015  34.647  24.656  14.232
 7591W        W80016  20.442  35.803   1.432
 7592W        W80017  14.612   4.405  11.210
 7593W        W80018  38.988   8.236   0.340
 7594W        W80019  40.613  28.206   3.428
 7595W        W80020  17.534  23.137  12.098
 7596W        W80021  35.583   7.628  12.596
 7597W        W80022  15.700   7.229   1.317
 7598W        W80023  31.061  29.896  13.988
 7599W        W80024  21.636  24.557   3.701
 7600W        W80025  15.881  16.030   0.835
 7601W        W80026  28.492  27.541   3.136
 7602W        W80027  33.058  13.350  14.287
 7603W        W80028   1.775   5.842   0.038
 7604W        W80029   4.326  38.696  11.577
 7605W        W80030  15.627  12.715   2.281
 7606W        W80031  24.940  22.664   2.745
 7607W        W80032  23.696  37.271   1.888
 7608W        W80033   9.681   3.911  14.105
 7609W        W80034  34.619  20.699   0.980
 7610W        W80035  21.967   3.699  11.964
 7611W        W80036  25.077  21.389   1.401
 7612W        W80037  29.625  38.899   4.609
 7613W        W80038  32.360  26.180   1.842
 7614W        W80039  41.199  41.719   2.659
 7615W        W80040   6.445  14.162   4.080
 7616W        W80041   7.399   4.839   3.555
 7617W        W80042  23.191  43.286   3.662
 7618W        W80043  20.105  30.392   0.628
 7619W        W80044  30.324  16.122   1.798
 7620W        W80045  28.885  35.173  12.951
 7621W        W80046   7.869  36.996  12.051
 7622W        W80047   1.398  33.933   3.238
 7623W        W80048  12.038  20.839  10.522
 7624W        W80049  26.707   5.856   9.916
 7625W        W80050  40.131   8.857   0.333
 7626W        W80051  33.208  16.371  13.413
 7627W        W80052  19.554   3.177   4.223
 7628W        W80053   2.007   7.150  14.730
 7629W        W80054  22.545  28.457  14.527
 7630W        W80055  24.974  25.023  13.576
 7631W        W80056  41.141  35.637  12.730
 7632W        W80057  42.749  24.515   0.832
 7633W        W80058   7.025  31.560  14.026
 7634W        W80059  10.241  39.310   4.109
 7635W        W80060   7.667  26.129   3.262
 7636W        W80061  12.884   9.416  10.817
 7637W        W80062  35.132  14.031   5.103
 7638W        W80063  39.371  29.401  13.489
 7639W        W80064  34.603  20.596   1.888
 7640W        W80065  13.279   9.748   0.529
 7641W        W80066  19.755  15.729   4.954
 7642W        W80067   8.794  42.591  13.011
 7643W        W80068   5.131   3.480  13.400
 7644W        W80069   3.009  26.447   3.153
 7645W        W80070  25.943   5.762  12.453
 7646W        W80071  41.562  35.899  12.959
 7647W        W80072  37.849   1.399   4.789
 7648W        W80073   7.468   2.767  14.348
 7649W        W80074  34.690  29.744   1.710
 7650W        W80075  20.050  13.426   2.838
 7651W        W80076  42.377  32.081  12.936
 7652W        W80077  33.321  18.785   3.195
 7653W        W80078   3.419  35.927   4.265
 7654W        W80079  22.406   1.990   4.173
 7655W        W80080  19.015  35.937  13.829
 7656W        W80081  20.608  30.559   4.197
 7657W        W80082  40.428  24.110  11.629
 7658W        W80083   1.515  30.899  11.123
 7659W        W80084  39.507  33.499  13.705
 7660W        W80085  12.126  34.781   4.285
 7661W        W80086  44.528   7.370  14.011
 7662W        W80087  10.678  12.272   4.342
 7663W        W80088  27.675  14.078  11.293
 7664W        W80089  43.858   6.934  11.957
 7665W        W80090  20.136  41.615   4.194
 7666W        W80091  37.129  13.221  11.111
 7667W        W80092  36.276  30.072  11.652
 7668W        W80093  16.231   7.251   3.132
 7669W        W80094  14.112  36.335   4.281
 7670W        W80095  21.716  26.151   4.269
 7671W        W80096  16.779  44.524  12.163
 7672W        W80097  40.763   6.389  14.396
 7673W        W80098   3.418  14.677   5.098
 7674W        W80099  10.497  24.214   3.782
 7675W        W80100   2.025  29.190  10.752
 7676W        W80101  41.837  20.267   3.429
 7677W        W80102  31.141  20.335  11.905
 7678W        W80103  41.069  44.730  13.390
 7679W        W80104  13.070  25.467  12.818
 7680W        W80105   9.359   0.806  11.438
 7681W        W80106   6.180  14.560  10.551
 7682W        W80107  27.728  27.105  10.592
 7683W        W80108  11.968  42.531  12.096
 7684W        W80109   3.581   0.253  13.555
 7685W        W80110  16.151  21.488   0.947
 7686W        W80111  36.486  24.089  10.007
 7687W        W80112  15.269  31.380  13.324
 7688W        W80113  37.078  26.568  13.957
 7689W        W80114  27.074  19.676   2.314
 7690W        W80115  34.419  14.418  12.131
 7691W        W80116   5.514  33.072   3.838
 7692W        W80117   1.385   6.928   4.124
 7693W        W80118  17.128  22.753  13.787
 7694W        W80119   8.828  34.830  10.151
 7695W        W80120  25.023  15.265   2.615
 7696W        W80121  31.908  29.973   2.940
 7697W        W80122  41.565  36.957  13.012
 7698W        W80123  12.282  13.057  12.949
 7699W        W80124   6.053   0.372  14.738
 7700W        W80125  42.730  15.509   3.378
 7701W        W80126  20.933  31.409  13.275
 7702W        W80127  43.043   0.735  11.063
 7703W        W80128   2.191  13.597  12.137
 7704W        W80129  33.345  44.940   1.240
 7705W        W80130  43.307  40.475   0.301
 7706W        W80131  29.062  11.219   3.634
 7707W        W80132  29.649   7.942   5.027
 7708W        W80133  33.436  37.818  14.069
 7709W        W80134  24.309  30.631   3.759
 7710W        W80135  41.735  20.032   1.450
 7711W        W80136  22.443  27.021   3.910
 7712W        W80137  33.212  27.132  13.851
 7713W        W80138  24.578   9.905  12.968
 7714W        W80139  27.058   2.512  12.460
 7715W        W80140  32.464  18.975   4.224
 7716W        W80141  27.577   1.264  12.508
 7717W        W80142   5.654   2.336   0.422
 7718W        W80143  20.211  14.262   1.255
 7719W        W80144  29.891  17.393   3.319
 7720W        W80145  14.452   2.315   1.299
 7721W        W80146  41.423  28.261   3.865
 7722W        W80147   9.780  26.513  12.379
 7723W        W80148  25.481   2.880  13.115
 7724W        W80149  29.442   7.960   1.227
 7725W        W80150   0.737   9.939   4.684
 7726W        W80151  20.681   2.463  13.403
 7727W        W80152  22.454   7.353  10.219
 7728W        W80153  15.397   9.126  13.146
 7729W        W80154  15.080  31.993   1.597
 7730W        W80155   4.331  37.220  11.564
 7731W        W80156  36.117  39.058   5.034
 7732W        W80157  20.749  22.731  11.030
 7733W        W80158  20.243  38.955   0.994
 7734W        W80159  13.070  30.592  10.699
 7735W        W80160  24.031  12.423  14.318
 7736W        W80161  18.400   2.082  14.292
 7737W        W80162  41.448  30.350   0.270
 7738W        W80163  22.046  32.475  14.828
 7739W        W80164  16.187   5.566  10.884
 7740W        W80165  40.843  17.306  12.979
 7741W        W80166  13.836  40.204   4.257
 7742W        W80167  38.970  12.572  10.950
 7743W        W80168  10.359  41.830   2.223
 7744W        W80169  31.539  19.298   4.239
 7745W        W80170  39.092   3.128  11.551
 7746W        W80171  17.654   2.447  14.801
 7747W        W80172  15.027  16.294  11.070
 7748W        W80173  31.487  40.622   1.451
 7749W        W80174  29.423  29.800  12.063
 7750W        W80175  31.590  13.222  11.741
 7751W        W80176  13.604  21.160  13.472
 7752W        W80177   9.230  40.820   0.552
 7753W        W80178  34.382  29.144  13.462
 7754W        W80179  24.099   9.674   4.633
 7755W        W80180  12.070   9.901   1.155
 7756W        W80181  40.924  22.050  11.652
 7757W        W80182   9.497  38.937   2.426
 7758W        W80183   8.886   5.904  11.584
 7759W        W80184  27.686  34.861   5.368
 7760W        W80185   1.255  26.464  11.028
 7761W        W80186  22.304  22.186  11.836
 7762W        W80187   7.250  37.361   0.789
 7763W        W80188   9.466  10.459   4.622
 7764W        W80189  10.388  16.644   2.483
 7765W        W80190  42.957  40.086  10.777
 7766W        W80191   2.222  44.261  11.931
 7767W        W80192  44.819   5.552   1.836
 7768W        W80193  28.982  14.345   2.744
 7769W        W80194  34.113  20.044  13.815
 7770W        W80195  34.157  13.214   2.784
 7771W        W80196  14.020   0.641  12.454
 7772W        W80197  37.547   7.765   1.614
 7773W        W80198  37.130  26.194   4.017
 7774W        W80199  27.598  16.669   4.195
 7775W        W80200   1.210  20.301  14.214
 7776W        W80201   5.251  43.838  12.661
 7777W        W80202  25.452   5.944  12.461
 7778W        W80203   7.303   8.124   2.176
 7779W        W80204  31.701  11.328  14.391
 7780W        W80205  32.478   7.625  11.913
 7781W        W80206  24.949  23.477   3.322
 7782W        W80207  24.513  23.248   2.254
 7783W        W80208  41.985  10.135   0.706
 7784W        W80209  27.828  22.621  10.759
 7785W        W80210  21.347  31.912   3.355
 7786W        W80211  19.666   4.256   4.548
 7787W        W80212   9.922  37.632   1.260
 7788W        W80213   6.814   3.023   3.795
 7789W        W80214  12.806   5.661  13.133
 7790W        W80215   2.004   4.437   1.421
 7791W        W80216  32.953  32.121  10.266
 7792W        W80217  44.328   8.526   3.217
 7793W        W80218   7.132  10.754  12.428
 7794W        W80219  16.571  22.566   4.122
 7795W        W80220  27.640   2.291   1.325
 7796W        W80221   4.407  26.559   3.680
 7797W        W80222  27.966  32.342  13.424
 7798W        W80223  40.293  39.396  12.842
 7799W        W80224  34.576  32.382  13.371
 7800W        W80225   9.700   5.670  13.278
 7801W        W80226  30.518  16.141  11.289
 7802W        W80227  15.704   1.961  11.032
 7803W        W80228  26.321   6.628  12.468
 7804W        W80229  11.964  32.209  12.359
 7805W        W80230  11.528   9.354  11.790
 7806W        W80231   7.190   2.865  12.941
 7807W        W80232  43.981  25.763   2.992
 7808W        W80233  16.125  19.812  11.593
 7809W        W80234   1.807  44.392  10.633
 7810W        W80235   5.621  12.557  12.026
 7811W        W80236  26.705  22.004   0.067
 7812W        W80237  11.794  42.061  12.122
 7813W        W80238  25.634  40.978   2.768
 7814W        W80239  41.587   1.434  10.985
 7815W        W80240  38.613   0.557  13.043
 7816W        W80241  23.251  36.021  14.461
 7817W        W80242   4.439  22.153   2.916
 7818W        W80243   5.694   9.902  12.854
 7819W        W80244   4.900  24.130   2.239
 7820W        W80245  15.766  41.800  12.786
 7821W        W80246  43.166   3.322  14.231
 7822W        W80247  30.008   2.873   1.309
 7823W        W80248  21.097  26.107   4.887
 7824W        W80249   6.480   7.934  13.416
 7825W        W80250  36.916  40.282  13.499
 7826W        W80251  42.531  42.967  12.307
 7827W        W80252  25.459  20.680  13.566
 7828W        W80253  37.921  25.197   1.011
 7829W        W80254  40.444   6.469  12.984
 7830W        W80255  27.330  33.834   9.722
 7831W        W80256  35.300  38.383   2.724
 7832W        W80257  17.264  21.179  12.173
 7833W        W80258   2.986  10.811   3.186
 7834W        W80259  33.850  28.676   0.301
 7835W        W80260  33.595  30.054   2.404
 7836W        W80261   6.721   3.706   4.358
 7837W        W80262  16.736   2.336   3.301
 7838W        W80263   5.874  33.666  10.878
 7839W        W80264  35.939  20.551  12.268
 7840W        W80265  38.534   6.770   2.431
 7841W        W80266  19.095   3.260  13.845
 7842W        W80267  18.804  40.351   0.881
 7843W        W80268  10.810  44.928  10.519
 7844W        W80269  34.658   8.714  12.500
 7845W        W80270  24.758  13.834   1.324
 7846W        W80271  22.480  17.116   2.885
 7847W        W80272  30.673  18.121  12.157
 7848W        W80273  14.639  43.253   4.626
 7849W        W80274   5.836  17.618  12.348
 7850W        W80275  27.660  17.321  12.248
 7851W        W80276  12.523  12.984   2.138
 7852W        W80277  38.914  43.876   3.167
 7853W        W80278  39.902   8.828   3.281
 7854W        W80279  33.584  24.920  10.743
 7855W        W80280  40.261   3.934   2.971
 7856W        W80281  44.748   1.977  14.923
 7857W        W80282  24.433   3.388   4.108
 7858W        W80283   7.664  43.226  13.408
 7859W        W80284   0.528  32.068  14.324
 7860W        W80285   8.288  35.602  10.215
 7861W        W80286  44.810  22.695  12.188
 7862W        W80287  15.110  21.049   4.266
 7863W        W80288  40.611  44.909  12.872
 7864W        W80289  32.417  10.902  13.922
 7865W        W80290  30.331  33.439  14.312
 7866W        W80291  23.668  39.915  11.278
 7867W        W80292  37.603   6.398   4.164
 7868W        W80293  36.389   6.367   1.719
 7869W        W80294  16.149   7.354  10.743
 7870W        W80295   0.976  39.955   1.715
 7871W        W80296   2.437  25.921   3.807
 7872W        W80297   2.928  13.016  12.939
 7873W        W80298  15.604  19.824   1.992
 7874W        W80299  11.951  34.050   1.080
 7875W        W80300  36.162   7.200   0.959
 7876W        W80301  11.815  32.289  13.536
 7877W        W80302  43.772  36.025   0.906
 7878W        W80303  37.086  43.365   2.149
 7879W        W80304   2.891  44.517  12.558
 7880W        W80305  27.235  36.724   0.280
 7881W        W80306  10.825  24.152   0.411
 7882W        W80307  39.370  44.428   1.766
 7883W        W80308  44.244  21.371   0.431
 7884W        W80309  40.996  42.241   2.318
 7885W        W80310   9.847  44.922  12.525
 7886W        W80311  16.332   1.129  13.783
 7887W        W80312  23.672  19.336  10.740
 7888W        W80313  18.949  10.149  14.561
 7889W        W80314  33.422   3.284  13.491
 7890W        W80315   0.181  43.071   1.141
 7891W        W80316  37.454  24.513   1.551
 7892W        W80317  16.163  44.869  10.712
 7893W        W80318   7.951  17.699   1.913
 7894W        W80319  41.072   8.346  11.129
 7895W        W80320  35.560   0.262   1.858
 7896W        W80321  19.502  30.965  14.339
 7897W        W80322  42.878  25.975  12.473
 7898W        W80323  12.925  28.133   1.743
 7899W        W80324  17.232  14.522  13.763
 7900W        W80325  37.334  22.107   3.573
 7901W        W80326   4.875  12.854  12.344
 7902W        W80327  26.379   5.438  13.757
 7903W        W80328   2.936  40.833   4.173
 7904W        W80329  14.003  17.073   2.231
 7905W        W80330  26.645  22.209   4.923
 7906W        W80331  21.286  26.077   0.307
 7907W        W80332   9.099  43.618   0.419
 7908W        W80333  18.483  29.164  14.835
 7909W        W80334   5.436  16.607  11.400
 7910W        W80335   1.209   0.515  11.019
 7911W        W80336  26.689  14.228   2.686
 7912W        W80337  19.958  41.331  13.348
 7913W        W80338  39.048  20.282  10.519
 7914W        W80339  19.652  15.005  12.379
 7915W        W80340  12.808  40.849   3.214
 7916W        W80341  10.569  14.776   2.144
 7917W        W80342  42.240   6.217   4.326
 7918W        W80343  41.403  42.599   2.917
 7919W        W80344  31.937  38.940   2.760
 7920W        W80345  20.045  37.483   3.818
 7921W        W80346  11.191  21.507   1.705
 7922W        W80347  34.502   8.323  11.291
 7923W        W80348  20.504  14.803  14.208
 7924W        W80349  22.507  26.040   1.190
 7925W        W80350  42.929  39.234  14.026
 7926W        W80351  33.726  34.992  10.317
 7927W        W80352  27.706  16.721  10.928
 7928W        W80353   8.726  12.142   0.009
 7929W        W80354   5.404  42.190   2.289
 7930W        W80355  31.315  25.101   2.885
 7931W        W80356  10.280   0.927  14.694
 7932W        W80357  41.512  26.899  11.395
 7933W        W80358  34.529  11.565  14.826
 7934W        W80359  22.864  41.240   2.800
 7935W        W80360  37.486  28.679  10.604
 7936W        W80361  21.974  37.046   2.322
 7937W        W80362  34.846  15.556   4.168
 7938W        W80363  21.746  39.899   5.105
 7939W        W80364  17.262  29.179   4.273
 7940W        W80365  34.129  26.459   4.791
 7941W        W80366  22.120  29.679   3.411
 7942W        W80367   6.309  38.710  10.983
 7943W        W80368   5.147  12.667  11.900
 7944W        W80369   5.457   9.810   2.385
 7945W        W80370   0.749  43.392   1.400
 7946W        W80371  22.040  12.199  14.845
 7947W        W80372   1.399  24.262  11.846
 7948W        W80373   3.927   5.596   4.158
 7949W        W80374  25.824   1.890   0.959
 7950W        W80375   7.461  10.681   4.159
 7951W        W80376  22.919  44.820  12.973
 7952W        W80377  28.952  23.537   4.808
 7953W        W80378  13.327  15.231   3.087
 7954W        W80379   5.928  16.831  14.991
 7955W        W80380   4.403  39.888   2.887
 7956W        W80381  12.850  37.545   4.942
 7957W        W80382   8.114  43.007  13.374
 7958W        W80383  21.430  41.587  13.610
 7959W        W80384   5.744  28.236  14.799
 7960W        W80385   4.493  36.095   0.908
 7961W        W80386  43.784   0.043  12.529
 7962W        W80387  39.248  19.895  14.376
 7963W        W80388   4.240   7.900  12.870
 7964W        W80389  42.706   0.250  11.254
 7965W        W80390  25.384  16.241  14.290
 7966W        W80391  41.010   8.300  12.027
 7967W        W80392   3.833  43.104  14.865
 7968W        W80393  43.588   8.718   1.698
 7969W        W80394   2.366  27.704  13.468
 7970W        W80395  15.354  31.640   0.271
 7971W        W80396  29.166  12.726  11.234
 7972W        W80397  14.212  38.348   4.103
 7973W        W80398   5.851  23.033  12.084
 7974W        W80399   6.246  28.129   4.603
 7975W        W80400  34.391  30.682   3.621
 7976W        W80401  18.261  16.324  14.287
 7977W        W80402  19.867  31.631  12.010
 7978W        W80403  16.521   0.235   4.207
 7979W        W80404  30.897  25.229   3.717
 7980W        W80405  28.615  29.093  12.612
 7981W        W80406   3.395  11.683   4.467
 7982W        W80407  39.989   8.354   0.298
 7983W        W80408  17.168  29.339  12.917
 7984W        W80409  24.150   0.072   2.409
 7985W        W80410  11.228  19.118  11.105
 7986W        W80411  40.352  33.557  10.201
 7987W        W80412   5.830  25.098   2.894
 7988W        W80413  24.508  23.260  12.918
 7989W        W80414  24.196  34.906   0.465
 7990W        W80415  31.391  17.757  10.239
 7991W        W80416  13.645  11.106  12.417
 7992W        W80417  14.478  28.208  14.506
 7993W        W80418   1.487  39.957  10.745
 7994W        W80419  13.511  22.077  14.024
 7995W        W80420  13.070  13.861   2.247
 7996W        W80421  33.673  43.888   0.835
 7997W        W80422  30.966  12.862   0.834
 7998W        W80423   6.374  36.939   4.990
 7999W        W80424  33.217  13.814   3.607
 8000W        W80425  22.489  25.669   1.775
 8001W        W80426  18.110   4.277  12.858
 8002W        W80427  21.204  26.173   4.386
 8003W        W80428  16.614  37.033   0.460
 8004W        W80429  15.695  20.007   3.062
 8005W        W80430  34.374  18.156   0.413
 8006W        W80431  36.540  32.928   2.090
 8007W        W80432  15.722  43.630  10.539
 8008W        W80433  13.380  26.083  11.988
 8009W        W80434  25.795  11.276  11.045
 8010W        W80435   2.392  12.174  14.071
 8011W        W80436  16.212   0.238   4.627
 8012W        W80437   3.743  29.384  12.395
 8013W        W80438  29.958   7.309   3.399
 8014W        W80439  15.966  27.509   1.295
 8015W        W80440  43.282  10.428   1.722
 8016W        W80441  34.491   3.722  10.517
 8017W        W80442   4.913  13.805  13.334
 8018W        W80443  34.352  29.445   0.364
 8019W        W80444  15.236   8.551   0.549
 8020W        W80445   5.273   4.371   0.730
 8021W        W80446  37.404  40.931   1.638
 8022W        W80447  10.399  31.930   2.696
 8023W        W80448  39.669  40.022   1.407
 8024W        W80449  29.614  39.558   0.004
 8025W        W80450  11.729  15.881  11.995
 8026W        W80451  34.978  20.286   3.670
 8027W        W80452  16.116  32.351   2.330
 8028W        W80453  41.389  20.481   3.680
 8029W        W80454  41.849  24.630   3.748
 8030W        W80455  29.128  17.067  11.117
 8031W        W80456  34.070  14.796   2.713
 8032W        W80457  26.601  24.896  10.317
 8033W        W80458  32.603   2.192  13.968
 8034W        W80459   7.428  43.772   1.000
 8035W        W80460  12.943  12.323  11.556
 8036W        W80461  14.359  26.196  14.437
 8037W        W80462  29.199  40.549  14.302
 8038W        W80463   4.958  37.916  10.666
 8039W        W80464  15.246  10.084   2.895
 8040W        W80465  17.310  17.641   3.542
 8041W        W80466   1.715  43.591   0.338
 8042W        W80467  44.973  21.077   2.444
 8043W        W80468  33.132  29.062  10.716
 8044W        W80469  41.869  28.442   4.587
 8045W        W80470   5.250  13.134   2.761
 8046W        W80471   6.826  27.939  12.957
 8047W        W80472  12.170  23.839   0.261
 8048W        W80473  37.254  41.222  11.959
 8049W        W80474   0.350  12.927  11.909
 8050W        W80475  20.758   3.844  14.959
 8051W        W80476  26.662  41.297  14.464
 8052W        W80477  39.249  17.754   1.335
 8053W        W80478   0.791  14.686   2.755
 8054W        W80479   5.171  36.068  13.163
 8055W        W80480  28.589  39.055   2.277
 8056W        W80481  33.462  34.911   1.168
 8057W        W80482   1.932  30.971  12.267
 8058W        W80483  44.309   2.188  12.007
 8059W        W80484   2.396  31.933   2.634
 8060W        W80485  32.428   7.753  12.423
 8061W        W80486  23.078  20.333   4.130
 8062W        W80487  37.803  38.959   2.635
 8063W        W80488  25.839  19.670  12.052
 8064W        W80489   0.349  42.958  10.710
 8065W        W80490  18.790  37.670   1.415
 8066W        W80491  17.207  42.600   4.661
 8067W        W80492  18.496  14.570  14.484
 8068W        W80493  34.474  27.893   3.141
 8069W        W80494  27.379  31.525  10.969
 8070W        W80495  30.285  30.413   4.326
 8071W        W80496   4.998  21.439   1.157
 8072W        W80497  11.078  41.893  12.981
 8073W        W80498  13.680  22.094  14.916
 8074W        W80499  19.797  20.724   1.225
 8075W        W80500   9.686  36.221   4.571
 8076W        W80501  26.383  33.221  11.124
 8077W        W80502  40.857  23.483  11.592
 8078W        W80503  24.686  15.775  14.408
 8079W        W80504  23.584   9.203  14.495
 8080W        W80505   0.458  35.992   2.851
 8081W        W80506  17.635  44.494   3.692
 8082W        W80507  15.078  19.013  12.393
 8083W        W80508   7.403  31.489   1.321
 8084W        W80509  44.354  28.428   5.098
 8085W        W80510   6.779  21.804  13.023
 8086W        W80511   2.648  24.488   4.371
 8087W        W80512   9.850  33.996  12.039
 8088W        W80513  41.336  14.247  12.731
 8089W        W80514  13.179  32.057   1.931
 8090W        W80515  38.388  31.477  10.854
 8091W        W80516  39.806   7.004  11.710
 8092W        W80517  14.096  27.576  14.906
 8093W        W80518  40.880  26.657  13.313
 8094W        W80519   1.064  20.264   2.721
 8095W        W80520   8.123  32.710  13.649
 8096W        W80521  20.153   1.261   1.287
 8097W        W80522  40.987   4.629  10.174
 8098W        W80523  40.500  11.367  12.413
 8099W        W80524  15.566  30.209  11.630
 8100W        W80525  43.697  39.835   4.599
 8101W        W80526  21.958  28.441   0.796
 8102W        W80527  10.892  11.625   0.246
 8103W        W80528  19.471  44.872   3.652
 8104W        W80529  41.399  18.123   2.438
 8105W        W80530   5.417  42.942   1.896
 8106W        W80531  33.704  33.968  10.248
 8107W        W80532  34.623  22.858  11.672
 8108W        W80533  34.689   1.453   1.817
 8109W        W80534  21.733   1.687   3.676
 8110W        W80535  43.977  23.794  11.501
 8111W        W80536   2.236  29.223   3.204
 8112W        W80537   7.939  39.679   0.058
 8113W        W80538  44.990  42.632  11.625
 8114W        W80539   2.239  30.333   2.889
 8115W        W80540   4.835  38.866  11.550
 8116W        W80541  11.331  11.844  13.084
 8117W        W80542   2.342  16.651  13.073
 8118W        W80543  34.723  13.328  14.321
 8119W        W80544  27.277  26.209   0.422
 8120W        W80545  37.965  11.461   1.425
 8121W        W80546  31.608  31.973   2.684
 8122W        W80547   6.813  29.585   0.658
 8123W        W80548   1.017  31.437  14.867
 8124W        W80549  36.678  14.759  14.879
 8125W        W80550  24.490  22.653  14.974
 8126W        W80551  25.975  13.595   3.299
 8127W        W80552  39.467  14.231   2.744
 8128W        W80553  30.062   6.429   2.827
 8129W        W80554  24.253  25.150  12.982
 8130W        W80555  43.396  38.041  13.545
 8131W        W80556  42.833  23.488  14.906
 8132W        W80557  13.233  17.713  11.544
 8133W        W80558  24.774  25.057  13.080
 8134W        W80559  19.838   1.427   0.911
 8135W        W80560   2.314  16.680  13.596
 8136W        W80561   4.653  15.667   0.131
 8137W        W80562  19.335  30.910   0.759
 8138W        W80563  42.806  44.579   4.525
 8139W        W80564   2.353  14.027  12.478
 8140W        W80565  24.781   8.625   2.099
 8141W        W80566  13.925   2.360   1.308
 8142W        W80567  17.033  15.898   4.977
 8143W        W80568  39.301  24.734   3.643
 8144W        W80569  29.577  36.621  14.457
 8145W        W80570  36.975  21.259  12.994
 8146W        W80571  36.165  14.821   1.666
 8147W        W80572  16.721   3.419   1.152
 8148W        W80573  10.924  32.227  13.521
 8149W        W80574   7.344  30.978  11.100
 8150W        W80575   9.978   0.214  13.022
 8151W        W80576  31.427  34.850  14.850
 8152W        W80577   1.488   1.457  13.417
 8153W        W80578  40.022  37.013   0.340
 8154W        W80579  19.282  13.149   3.296
 8155W        W80580  26.242  16.213  13.941
 8156W        W80581  30.936   1.759  12.634
 8157W        W80582  42.062  15.590   0.051
 8158W        W80583  25.689  35.036   2.163
 8159W        W80584  33.682  25.000  11.938
 8160W        W80585  35.959  32.987  11.524
 8161W        W80586  27.377  20.763   2.831
 8162W        W80587   4.927   7.745   4.688
 8163W        W80588  20.498  16.249   2.123
 8164W        W80589  35.958  19.301  14.626
 8165W        W80590   4.892  36.817  14.302
 8166W        W80591  28.021  38.269  10.522
 8167W        W80592   5.040  32.388   1.407
 8168W        W80593   1.023  21.054  14.794
 8169W        W80594  12.450  35.828  12.035
 8170W        W80595  29.995  35.880   4.820
 8171W        W80596  16.062  42.171   1.430
 8172W        W80597  10.040  16.085   0.195
 8173W        W80598  35.764   7.948   2.385
 8174W        W80599  39.564  39.116  11.164
 8175W        W80600  33.113  24.467  14.973
 8176W        W80601  37.344   6.203   0.541
 8177W        W80602  13.099   8.342   4.918
 8178W        W80603   9.234  39.771   1.885
 8179W        W80604  42.874   5.699   2.806
 8180W        W80605  26.484  34.878   1.198
 8181W        W80606  42.238  31.016   4.244
 8182W        W80607  13.675  28.648  11.185
 8183W        W80608  41.212  22.349   1.714
 8184W        W80609  35.452  16.789   1.928
 8185W        W80610  26.139   3.264   1.083
 8186W        W80611  39.060  21.601  12.535
 8187W        W80612  16.287  33.403   2.903
 8188W        W80613  37.836  33.576  11.858
 8189W        W80614   2.614  36.369   0.332
 8190W        W80615  40.282   4.370  11.237
 8191W        W80616  15.776  20.288   4.653
 8192W        W80617   5.494  34.620   1.479
 8193W        W80618  32.493   8.648  14.530
 8194W        W80619  33.666  18.293  10.250
 8195W        W80620  38.618  39.346  11.959
 8196W        W80621  22.524   5.144  14.476
 8197W        W80622   9.718  41.054  13.427
 8198W        W80623   6.326  42.427   4.340
 8199W        W80624  36.539  21.157   3.841
 8200W        W80625  14.506   1.240   3.410
 8201W        W80626  25.780  40.004   0.937
 8202W        W80627  18.660  20.040  14.674
 8203W        W80628  20.136  35.590   4.615
 8204W        W80629  18.682  35.638   4.053
 8205W        W80630  24.705  22.445   3.133
 8206W        W80631   6.273   0.392  14.265
 8207W        W80632   3.167  13.869  14.008
 8208W        W80633   8.351  25.700   4.023
 8209W        W80634  12.325  39.288   0.349
 8210W        W80635  44.261   0.813   2.461
 8211W        W80636  19.585  35.072   0.764
 8212W        W80637   0.087  19.786  11.059
 8213W        W80638   3.592  13.359  14.458
 8214W        W80639  11.231   2.701  12.990
 8215W        W80640   7.049  12.963  10.940
 8216W        W80641  33.996  38.171  12.480
 8217W        W80642  32.146  31.139   2.690
 8218W        W80643  22.229   1.811  11.493
 8219W        W80644  41.706  37.689   2.682
 8220W        W80645   4.391   6.663   4.236
 8221W        W80646  28.033  18.673   2.515
 8222W        W80647  29.817   1.314  13.668
 8223W        W80648   3.493  36.449   1.786
 8224W        W80649  24.276  27.690  11.540
 8225W        W80650  33.750  15.818   1.268
 8226W        W80651   1.809  14.611   2.745
 8227W        W80652  37.801  15.674   3.096
 8228W        W80653   5.366  38.085   1.803
 8229W        W80654  24.064  41.773  13.129
 8230W        W80655  38.475  26.986   2.360
 8231W        W80656  23.016  44.733   3.623
 8232W        W80657  44.524   9.224   2.352
 8233W        W80658  33.131  12.550   3.349
 8234W        W80659   8.760  37.991  14.146
 8235W        W80660  12.197   3.374  11.892
 8236W        W80661  15.335  43.999   1.753
 8237W        W80662  27.190   6.677  13.863
 8238W        W80663   8.174   2.347  12.075
 8239W        W80664  33.854  11.340  10.598
 8240W        W80665  28.178  34.565  12.529
 8241W        W80666  30.206  20.197   4.060
 8242W        W80667  37.484  17.864   9.910
 8243W        W80668  25.346   6.446   1.207
 8244W        W80669  37.136   1.770   4.316
 8245W        W80670  21.748  19.588   0.012
 8246W        W80671  36.930  32.938  14.790
 8247W        W80672  30.386  14.336  12.079
 8248W        W80673  38.988   9.658   4.198
 8249W        W80674  33.802  19.765   4.706
 8250W        W80675  36.831  12.818   0.983
 8251W        W80676  24.699  37.027  14.320
 8252W        W80677  12.730  40.812  12.500
 8253W        W80678  16.272  36.563   2.165
 8254W        W80679  41.741  32.378  11.941
 8255W        W80680  20.581  11.399   2.765
 8256W        W80681  26.342  34.635  13.540
 8257W        W80682  22.457  34.135  13.054
 8258W        W80683   1.699  18.431   1.770
 8259W        W80684  10.293  13.068  14.408
 8260W        W80685  36.748   2.350  13.623
 8261W        W80686   0.885  26.530  13.285
 8262W        W80687  17.365  14.960  13.975
 8263W        W80688   5.756  13.828  12.386
 8264W        W80689   8.200  39.271   3.179
 8265W        W80690  28.557  23.042   3.108
 8266W        W80691  19.702  29.180   4.802
 8267W        W80692  38.875  40.577   0.866
 8268W        W80693   6.941  43.764   2.379
 8269W        W80694   9.673  15.750   1.294
 8270W        W80695   8.740   0.422  10.657
 8271W        W80696   0.821  38.459   1.014
 8272W        W80697  28.063  28.153   3.109
 8273W        W80698  40.395  38.768   3.029
 8274W        W80699  33.017  37.512   4.598
 8275W        W80700  30.877  35.947  10.798
 8276W        W80701  20.497  24.699  12.907
 8277W        W80702  27.908  37.681   4.203
 8278W        W80703   4.482  23.562  11.454
 8279W        W80704  23.154  23.459   1.805
 8280W        W80705  17.197   8.288   4.345
 8281W        W80706   2.981  44.263  14.755
 8282W        W80707  39.531  34.221  14.621
 8283W        W80708  23.582  11.876   3.230
 8284W        W80709  36.879   6.261  11.240
 8285W        W80710  21.656  38.068  14.105
 8286W        W80711  12.853  33.320  12.566
 8287W        W80712  43.891  15.570   4.391
 8288W        W80713   9.063  17.793   4.125
 8289W        W80714  16.297   2.700  12.666
 8290W        W80715  30.586  40.869   1.511
 8291W        W80716  20.008  39.004  14.091
 8292W        W80717  11.601  27.467  11.029
 8293W        W80718  17.344  27.030   4.555
 8294W        W80719   4.923  38.576   2.328
 8295W        W80720  30.516  29.356  11.808
 8296W        W80721  27.765  31.068   1.204
 8297W        W80722  42.410  20.734  11.070
 8298W        W80723  17.387   5.805  12.848
 8299W        W80724  32.682  20.488  11.626
 8300W        W80725  34.069   3.265  13.000
 8301W        W80726   8.407  23.714   1.008
 8302W        W80727  27.051  16.255   2.348
 8303W        W80728   7.637  41.256  13.778
 8304W        W80729  10.180  13.943  14.728
 8305W        W80730  24.884  43.029  12.014
 8306W        W80731  39.249  36.468  13.668
 8307W        W80732  17.754  42.426  12.593
 8308W        W80733  14.982   2.344  13.003
 8309W        W80734  24.436  21.040  10.125
 8310W        W80735  22.546  31.008   2.370
 8311W        W80736   5.719  44.259   3.414
 8312W        W80737  15.338  42.894   3.139
 8313W        W80738  27.637  30.079  10.507
 8314W        W80739  38.552   2.472  13.058
 8315W        W80740  39.494   4.264  11.346
 8316W        W80741  13.144  41.139  12.556
 8317W        W80742  31.181   2.805   1.716
 8318W        W80743  33.124  24.896  12.024
 8319W        W80744  41.025   2.817  12.578
 8320W        W80745   3.778  19.145   3.114
 8321W        W80746  31.617  29.978  12.521
 8322W        W80747  33.425  33.893   0.313
 8323W        W80748   7.704   1.681   4.043
 8324W        W80749  11.691  40.001  13.439
 8325W        W80750  29.434  11.757   1.165
 8326W        W80751   8.756  43.536  14.871
 8327W        W80752  23.647  37.395  14.937
 8328W        W80753  39.883  22.805   4.151
 8329W        W80754  34.863   6.237  13.472
 8330W        W80755  38.935  21.971   2.206
 8331W        W80756  32.526  27.399   0.344
 8332W        W80757  15.693  34.823   0.486
 8333W        W80758  16.661  37.141   3.395
 8334W        W80759  13.698  43.016  13.895
 8335W        W80760  36.589  17.923   3.261
 8336W        W80761  22.002  29.057   1.384
 8337W        W80762   7.340   9.747   3.604
 8338W        W80763  10.954  30.681   3.801
 8339W        W80764  29.374   0.342  12.359
 8340W        W80765  31.221  15.652  14.929
 8341W        W80766  15.455   0.298  11.182
 8342W        W80767  38.482  18.331  13.997
 8343W        W80768   4.730  10.844  12.904
 8344W        W80769  41.979   4.722   4.149
 8345W        W80770   2.258  22.024   0.940
 8346W        W80771  24.001   5.288   2.234
 8347W        W80772  19.304  38.613  14.828
 8348W        W80773  38.880  25.517  13.017
 8349W        W80774   7.351   4.223   2.813
 8350W        W80775   0.798  27.201   2.266
 8351W        W80776  40.537  24.560  14.627
 8352W        W80777  35.600   5.290   0.109
 8353W        W80778  43.565  41.493  11.229
 8354W        W80779  10.673  27.162   3.884
 8355W        W80780  12.678   5.683  14.030
 8356W        W80781   1.403  27.643  13.230
 8357W        W80782  13.661  24.695   4.149
 8358W        W80783  19.636  11.120  13.080
 8359W        W80784  12.017  34.462  11.141
 8360W        W80785  42.122  43.288  12.448
 8361W        W80786   9.134  20.714   2.826
 8362W        W80787  42.455  23.549   0.306
 8363W        W80788  19.192   5.032   2.197
 8364W        W80789  32.469  27.977   2.776
 8365W        W80790   4.975  25.484  12.992
 8366W        W80791   1.186   1.034  13.385
 8367W        W80792  30.869  20.239   0.309
 8368W        W80793  32.587  22.503  13.099
 8369W        W80794  11.509  17.410   4.989
 8370W        W80795   3.507   2.731   1.310
 8371W        W80796  12.151  38.329   0.306
 8372W        W80797  28.557  23.414   1.321
 8373W        W80798  12.726   5.827  10.854
 8374W        W80799  34.450  14.018  14.711
 8375W        W80800   0.043  21.761  12.547
 8376W        W80801  30.373   9.236   0.665
 8377W        W80802  36.371   9.304   3.032
 8378W        W80803  23.116  37.242   0.495
 8379W        W80804  27.733  30.490   3.652
 8380W        W80805   0.310  41.759   3.953
 8381W        W80806  22.466  28.735  14.943
 8382W        W80807   1.748  17.143   2.393
 8383W        W80808  10.569  12.888  11.155
 8384W        W80809  25.566  16.291   2.325
 8385W        W80810  43.913   4.381  11.926
 8386W        W80811  34.933  39.794   2.962
 8387W        W80812  38.746  32.917  12.841
 8388W        W80813  11.075  30.139  10.913
 8389W        W80814  38.382  10.219  14.744
 8390W        W80815   3.302  40.614  10.569
 8391W        W80816  14.135  35.935  13.598
 8392W        W80817  17.705  37.883   1.164
 8393W        W80818  30.641  16.186   2.654
 8394W        W80819  40.478  14.459   1.264
 8395W        W80820   1.414  33.055  13.394
 8396W        W80821  29.259  29.328  11.580
 8397W        W80822   4.985  25.202   0.805
 8398W        W80823  31.678   2.078   2.708
 8399W        W80824  17.242  39.477  14.210
 8400W        W80825   8.391   7.200   1.874
 8401W        W80826  40.857  29.143   4.101
 8402W        W80827  14.178  31.767  12.013
 8403W        W80828  41.991   2.698  10.667
 8404W        W80829  34.917   3.868   3.178
 8405W        W80830   9.295  36.300  12.510
 8406W        W80831  12.652  13.301  12.627
 8407W        W80832   5.223   0.981  13.772
 8408W        W80833  11.628  29.587   0.966
 8409W        W80834  28.519  10.616   0.803
 8410W        W80835  44.305  42.836   0.731
 8411W        W80836  14.573  38.986  13.550
 8412W        W80837  31.061   1.276   2.227
 8413W        W80838  10.645  10.213  12.912
 8414W        W80839  32.569  25.669  14.797
 8415W        W80840  22.978  16.195   4.402
 8416W        W80841  23.178  31.828  12.936
 8417W        W80842   4.916  23.265  14.133
 8418W        W80843  13.319   2.722  11.556
 8419W        W80844  36.968  34.422  11.247
 8420W        W80845  41.583  16.654  12.808
 8421W        W80846  15.167  40.614   4.150
 8422W        W80847  10.681  25.452  14.042
 8423W        W80848  17.646  26.475  11.133
 8424W        W80849  17.949  25.703   3.334
 8425W        W80850  43.315  11.625  10.608
 8426W        W80851  21.626  11.382  11.921
 8427W        W80852  30.997  39.222   0.031
 8428W        W80853  28.217  25.455   4.098
 8429W        W80854  20.535  35.630   3.688
 8430W        W80855  17.675  32.566   4.337
 8431W        W80856  15.815  34.020  14.970
 8432W        W80857  36.182  11.650  11.087
 8433W        W80858  38.948  25.948  10.195
 8434W        W80859  12.751  39.294   3.760
 8435W        W80860  25.190  39.160   3.670
 8436W        W80861   9.909  12.732  14.340
 8437W        W80862  37.339  20.752   0.529
 8438W        W80863  41.938   3.962  13.592
 8439W        W80864  31.110   0.489   1.726
 8440W        W80865  13.976  18.769   1.722
 8441W        W80866   0.356  17.108  12.083
 8442W        W80867   3.192  12.852  11.209
 8443W        W80868  32.073  15.693   5.276
 8444W        W80869   2.250   4.177  13.627
 8445W        W80870  35.348   0.794  11.138
 8446W        W80871  41.543  36.015   4.957
 8447W        W80872  38.747  14.109   2.162
 8448W        W80873   0.760  10.224  13.893
 8449W        W80874  37.605   3.310   2.875
 8450W        W80875  40.831   5.640   3.394
 8451W        W80876  43.661  40.192   3.741
 8452W        W80877  13.091  29.441   0.660
 8453W        W80878  34.186  39.978   0.270
 8454W        W80879  29.950  21.112  13.499
 8455W        W80880  30.177  16.246  14.394
 8456W        W80881  15.872   4.809   3.418
 8457W        W80882  21.232  18.283   3.573
 8458W        W80883  31.872  16.584  14.363
 8459W        W80884   5.968  37.044   1.225
 8460W        W80885  41.300  44.059  10.622
 8461W        W80886   5.511  25.274   0.824
 8462W        W80887  37.116  19.123   3.240
 8463W        W80888  18.025  21.711  11.174
 8464W        W80889  26.090   6.416   3.378
 8465W        W80890  34.794  22.786   1.429
 8466W        W80891  16.546   9.761   0.924
 8467W        W80892   7.089   2.540   3.273
 8468W        W80893  26.949  11.672   2.700
 8469W        W80894  42.568  37.948   2.252
 8470W        W80895   9.444  18.951   1.914
 8471W        W80896   4.252  18.559  11.922
 8472W        W80897  38.476  16.204  12.856
 8473W        W80898  39.140   6.660   2.805
 8474W        W80899  44.434   4.850   5.217
 8475W        W80900  11.693  12.954   0.414
 8476W        W80901   4.248   7.784   2.810
 8477W        W80902   6.843  25.965  11.650
 8478W        W80903  32.667  23.330  11.858
 8479W        W80904  29.943  40.853   0.737
 8480W        W80905  11.424  12.020  11.235
 8481W        W80906  44.912  36.521  14.628
 8482W        W80907  29.107  25.926  14.042
 8483W        W80908  13.898  11.659  10.300
 8484W        W80909  22.625  43.326   2.372
 8485W        W80910  12.220   4.862  12.977
 8486W        W80911  27.407  26.520   0.919
 8487W        W80912  10.170  34.621  14.360
 8488W        W80913  31.161  39.443   4.652
 8489W        W80914  16.201  29.964   2.147
 8490W        W80915  17.964  39.069   2.390
 8491W        W80916  40.366  27.643  11.633
 8492W        W80917  32.540  39.362  12.985
 8493W        W80918  21.982  13.200   4.967
 8494W        W80919  41.707  34.095   3.799
 8495W        W80920  22.441  11.290  13.437
 8496W        W80921   0.462   7.883   1.439
 8497W        W80922   9.294  32.141  12.852
 8498W        W80923  37.322  18.021  14.907
 8499W        W80924  29.497  31.617   0.820
 8500W        W80925  30.400   4.614   3.689
 8501W        W80926  13.133  21.607   2.791
 8502W        W80927  22.792  11.330   4.994
 8503W        W80928   9.803   1.523   0.811
 8504W        W80929  33.198   0.338   0.078
 8505W        W80930   7.453  35.411  13.810
 8506W        W80931  34.174   6.837  14.501
 8507W        W80932   2.229   6.898  12.553
 8508W        W80933  16.535  44.827  14.251
 8509W        W80934   3.510   0.811   0.294
 8510W        W80935  16.589  22.759   0.921
 8511W        W80936  20.629  34.651  13.323
 8512W        W80937  38.869  14.432   4.969
 8513W        W80938   3.173  18.293   4.514
 8514W        W80939  25.122   3.424   0.879
 8515W        W80940  20.186  19.794  11.201
 8516W        W80941  27.651  16.359  12.123
 8517W        W80942  19.771  43.294   0.204
 8518W        W80943  42.488  14.365  11.271
 8519W        W80944  25.777  39.084  10.230
 8520W        W80945  40.618   3.738  14.001
 8521W        W80946  14.127  14.718  10.597
 8522W        W80947   7.684  25.470   4.166
 8523W        W80948  44.735  14.530  14.995
 8524W        W80949  18.203   9.941   2.308
 8525W        W80950  42.301   7.903  10.652
 8526W        W80951   6.237  28.032  14.818
 8527W        W80952  42.197  21.206  11.024
 8528W        W80953  42.349   0.273   3.191
 8529W        W80954  17.286  17.088   1.356
 8530W        W80955  15.833  17.110   2.777
 8531W        W80956  29.031  42.836   0.405
 8532W        W80957  17.973   6.069  12.562
 8533W        W80958   4.220  39.114   2.328
 8534W        W80959  26.415   1.703   4.457
 8535W        W80960   2.213  40.396   0.349
 8536W        W80961  17.127  43.430  10.719
 8537W        W80962  16.576   2.345  10.083
 8538W        W80963  34.239  19.131  14.860
 8539W        W80964  14.202  28.572   0.086
 8540W        W80965  39.572  34.914   4.032
 8541W        W80966  13.094  10.210   2.055
 8542W        W80967  10.905   1.953   0.020
 8543W        W80968  11.312  20.516  14.783
 8544W        W80969  19.252  16.587  14.035
 8545W        W80970  17.724  16.788   1.413
 8546W        W80971  13.148  17.846  12.026
 8547W        W80972  25.510  38.921   1.847
 8548W        W80973  15.065  38.564   4.345
 8549W        W80974  43.008  18.595  11.089
 8550W        W80975   6.268   2.965   2.751
 8551W        W80976  31.052  16.198  13.054
 8552W        W80977  11.281  32.457   1.355
 8553W        W80978  23.066  26.617  13.596
 8554W        W80979   3.296  20.826   3.314
 8555W        W80980  26.885  30.372   0.436
 8556W        W80981  36.109  17.543   1.749
 8557W        W80982  21.812  43.170  12.198
 8558W        W80983   7.308  24.963  11.514
 8559W        W80984  10.187  30.231  11.390
 8560W        W80985  21.080  13.530  13.362
 8561W        W80986  43.001  43.000  12.087
 8562W        W80987  31.124  14.123   2.309
 8563W        W80988   6.305  14.141  12.550
 8564W        W80989   8.948  28.084   4.748
 8565W        W80990   6.910  35.480  14.765
 8566W        W80991   8.550  29.504   0.752
 8567W        W80992   2.901  30.630   3.801
 8568W        W80993   8.863  27.472  11.766
 8569W        W80994   7.690  18.288   3.204
 8570W        W80995  27.680   8.484   4.608
 8571W        W80996  40.078  43.779  11.446
 8572W        W80997  17.118  39.956   0.298
 8573W        W80998  28.603  43.810   4.160
 8574W        W80999   5.407  38.417   4.189
 8575W        W81000   5.638  40.276  13.973
 8576W        W81001  44.436  42.927   1.692
 8577W        W81002  10.767  17.522  13.919
 8578W        W81003  13.245  24.500   3.875
 8579W        W81004   1.179   3.476  10.284
 8580W        W81005   9.631   7.531  10.762
 8581W        W81006  28.489   8.721  13.081
 8582W        W81007  27.097  32.818   9.869
 8583W        W81008  27.680  21.690  11.140
 8584W        W81009  23.649   4.001   2.225
 8585W        W81010   1.326   3.301  11.921
 8586W        W81011  15.763  38.233   2.318
 8587W        W81012  41.594  11.741  11.648
 8588W        W81013  27.950  35.612   2.201
 8589W        W81014  16.754   7.677  12.868
 8590W        W81015  43.201  35.362  11.051
 8591W        W81016   7.958  40.422  13.357
 8592W        W81017   6.455  31.242   1.529
 8593W        W81018  40.442  16.978  12.931
 8594W        W81019   7.887   2.381   2.837
 8595W        W81020  20.277  22.017  13.889
 8596W        W81021   3.867  32.176   1.751
 8597W        W81022  17.040  26.285   1.848
 8598W        W81023  31.434   6.942  13.436
 8599W        W81024  34.956  23.593  10.790
 8600W        W81025  10.282  38.327   2.477
 8601W        W81026  41.614  29.480   0.398
 8602W        W81027  17.980  32.711   5.343
 8603W        W81028  34.422   9.950  12.514
 8604W        W81029  17.771  36.976   1.866
 8605W        W81030  35.267  13.471   3.624
 8606W        W81031  33.954  28.555  14.828
 8607W        W81032  34.445  12.649  14.878
 8608W        W81033  27.042  44.715   0.951
 8609W        W81034   2.959  33.497  14.521
 8610W        W81035  41.736   4.155  12.590
 8611W        W81036  23.419  18.196  12.093
 8612W        W81037  31.130  14.101  12.053
 8613W        W81038  25.739   3.705   0.149
 8614W        W81039  36.070  12.300   1.843
 8615W        W81040  27.247  34.550  14.414
 8616W        W81041  19.722   6.285   0.501
 8617W        W81042  29.674  23.668  12.399
 8618W        W81043   5.580   9.930  13.377
 8619W        W81044  20.619   7.827   4.238
 8620W        W81045  32.953  17.936  11.529
 8621W        W81046  18.144  26.459  11.261
 8622W        W81047  36.000  32.600   1.938
 8623W        W81048  33.608  13.798  14.523
 8624W        W81049  11.335  43.333  13.220
 8625W        W81050   3.005  33.951   3.260
 8626W        W81051   9.777   0.862  14.509
 8627W        W81052   6.029  40.543  12.586
 8628W        W81053  29.565  21.701   1.788
 8629W        W81054  12.175  35.386   1.760
 8630W        W81055  28.867  28.723  11.072
 8631W        W81056  18.568  31.727   0.299
 8632W        W81057  42.657  13.360   4.197
 8633W        W81058  40.437  31.900  13.395
 8634W        W81059  31.041   9.126  11.479
 8635W        W81060   4.779   4.335  14.864
 8636W        W81061  10.321   5.800  14.961
 8637W        W81062  29.090  18.845  14.457
 8638W        W81063   5.496  43.546  13.002
 8639W        W81064  32.617  23.015  14.012
 8640W        W81065  25.247  38.130   0.861
 8641W        W81066  17.288   4.715  14.749
 8642W        W81067  15.051  43.874   0.286
 8643W        W81068  35.988  32.120   3.335
 8644W        W81069  43.837  33.106   1.751
 8645W        W81070  36.380  12.230   4.648
 8646W        W81071  34.429  36.965  11.030
 8647W        W81072  36.605  13.756   4.309
 8648W        W81073  13.853  19.217   2.413
 8649W        W81074  15.009  17.274   3.238
 8650W        W81075  11.334  26.694   4.911
 8651W        W81076  14.831  19.479   0.268
 8652W        W81077  30.352  25.901   1.395
 8653W        W81078  20.007   6.522   2.230
 8654W        W81079  27.950   2.426   4.571
 8655W        W81080   6.777   2.056  11.609
 8656W        W81081  32.526  18.601  14.783
 8657W        W81082  21.140  27.953  11.157
 8658W        W81083  19.611  43.711   1.705
 8659W        W81084  23.314  15.582   1.344
 8660W        W81085  27.499   3.395  12.363
 8661W        W81086  14.350  38.550  12.523
 8662W        W81087  16.585   4.808  11.083
 8663W        W81088  33.802   1.761  12.483
 8664W        W81089  17.666  20.563  14.531
 8665W        W81090  27.726  12.639  12.812
 8666W        W81091  24.778   7.744  13.976
 8667W        W81092  34.956  23.989  13.398
 8668W        W81093  26.675   0.455   1.698
 8669W        W81094   5.596  17.300  11.127
 8670W        W81095  26.741  23.171   4.500
 8671W        W81096  31.112   2.698  14.887
 8672W        W81097  23.493  29.908   1.968
 8673W        W81098   3.012  14.221   2.584
 8674W        W81099  26.465   6.309  14.657
 8675W        W81100   3.070   0.444   4.526
 8676W        W81101  16.876   6.884  12.372
 8677W        W81102  22.979  29.210  12.941
 8678W        W81103  28.369  35.408   4.165
 8679W        W81104  32.598  29.137   4.106
 8680W        W81105  24.693   8.485  10.557
 8681W        W81106  11.585  31.063   4.198
 8682W        W81107  39.538  43.980   2.368
 8683W        W81108  22.490  30.470  14.294
 8684W        W81109  19.736   5.488  13.593
 8685W        W81110  26.545  43.643   1.746
 8686W        W81111  38.345  13.775   0.529
 8687W        W81112  35.051  15.119   1.273
 8688W        W81113  16.714  33.529   0.791
 8689W        W81114  27.478  44.824  12.457
 8690W        W81115  44.793  24.095   4.162
 8691W        W81116  32.639   8.721  11.200
 8692W        W81117   3.352  11.567  12.800
 8693W        W81118  39.056   2.926   0.219
 8694W        W81119  10.359  24.328   0.473
 8695W        W81120  17.506   0.558  11.128
 8696W        W81121   7.217  21.822   2.388
 8697W        W81122  28.093  24.437  13.506
 8698W        W81123   3.381  32.057   2.672
 8699W        W81124  39.392   8.129   3.110
 8700W        W81125  11.307   3.048   2.497
 8701W        W81126  42.755  28.268   2.780
 8702W        W81127  18.657  30.024  12.547
 8703W        W81128   5.714  29.519   0.441
 8704W        W81129   9.308   8.986   2.907
 8705W        W81130  39.292  29.699   2.959
 8706W        W81131  26.144  41.774   3.605
 8707W        W81132  23.989  22.219   3.318
 8708W        W81133  15.794  41.944   1.819
 8709W        W81134  36.041  11.893   3.658
 8710W        W81135   3.082  24.573  11.462
 8711W        W81136   0.418  10.452   2.575
 8712W        W81137  20.344  23.225   2.310
 8713W        W81138  17.817   3.834  14.420
 8714W        W81139   7.538   1.174  14.871
 8715W        W81140  40.271   7.930   0.390
 8716W        W81141  25.916  17.065  11.118
 8717W        W81142  19.547   2.503  11.187
 8718W        W81143  42.300  24.921  14.397
 8719W        W81144  43.507   7.808  12.944
 8720W        W81145   0.824  39.752   3.252
 8721W        W81146   2.235  41.446  12.011
 8722W        W81147  21.521  34.674  14.116
 8723W        W81148  31.021   4.441  10.980
 8724W        W81149  43.450   2.843  14.354
 8725W        W81150   3.922  15.145  13.813
 8726W        W81151  16.262  43.805   2.733
 8727W        W81152  13.356  20.649  12.446
 8728W        W81153  31.228  28.906  13.733
 8729W        W81154  26.009  25.226   1.867
 8730W        W81155   1.964   8.805   4.098
 8731W        W81156  37.021  29.612  12.029
 8732W        W81157  34.362  10.640   4.194
 8733W        W81158  23.630  22.671  11.634
 8734W        W81159  24.287  41.777   2.840
 8735W        W81160  35.406  37.070  14.882
 8736W        W81161  44.321  12.153  13.955
 8737W        W81162   5.838  42.622   1.998
 8738W        W81163   5.774   7.170   1.389
 8739W        W81164  36.275  11.401   3.779
 8740W        W81165  17.539  30.707   0.002
 8741W        W81166  11.120  14.772   4.196
 8742W        W81167  10.778  38.681  12.747
 8743W        W81168  23.316  41.396  14.370
 8744W        W81169   7.230  14.038  12.512
 8745W        W81170  37.232   4.883   4.019
 8746W        W81171  15.967  33.132   4.588
 8747W        W81172   0.315  42.758  13.827
 8748W        W81173  30.995   3.568   4.907
 8749W        W81174  17.601  18.567  14.354
 8750W        W81175  39.425   2.834   4.634
 8751W        W81176  32.187  30.267   3.265
 8752W        W81177  15.034  26.949  14.363
 8753W        W81178   1.022   3.602  12.376
 8754W        W81179  25.563  39.289   4.652
 8755W        W81180  30.429  36.619  11.236
 8756W        W81181   0.995  12.402  14.722
 8757W        W81182  19.455  41.635   0.863
 8758W        W81183  28.582  17.204  14.259
 8759W        W81184   6.274  37.962  10.507
 8760W        W81185  38.455  32.979   4.609
 8761W        W81186  14.597  21.476   3.262
 8762W        W81187  18.141  14.434   0.694
 8763W        W81188  20.691  28.319   4.770
 8764W        W81189  37.886  37.052   1.886
 8765W        W81190  28.521   9.381  13.934
 8766W        W81191   2.725  37.325  13.369
 8767W        W81192  21.640  43.289   2.844
 8768W        W81193  33.978   9.424  13.400
 8769W        W81194  30.886   0.259   1.274
 8770W        W81195  13.765  29.372  13.977
 8771W        W81196  31.043  38.787   2.360
 8772W        W81197  22.748   2.327   4.011
 8773W        W81198  24.739   0.016  12.616
 8774W        W81199  21.039  33.030   1.899
 8775W        W81200  11.272  34.181  11.950
 8776W        W81201  15.329  13.552  14.727
 8777W        W81202  17.346   3.125   2.740
 8778W        W81203  30.028  14.816  14.394
 8779W        W81204  41.241  42.792   4.038
 8780W        W81205  22.024  35.848  12.487
 8781W        W81206  22.766   3.895  11.441
 8782W        W81207  37.430  11.275   3.304
 8783W        W81208  25.560  41.521   3.656
 8784W        W81209  21.089  41.475   4.587
 8785W        W81210  38.455  20.774   2.558
 8786W        W81211  21.804  32.963  11.943
 8787W        W81212  35.455  19.183   3.143
 8788W        W81213  27.102   8.918   0.249
 8789W        W81214  20.190  14.124  12.427
 8790W        W81215  15.683  13.199  14.891
 8791W        W81216  20.661  31.912   0.027
 8792W        W81217  10.322   3.597  12.009
 8793W        W81218  12.103   6.520   1.649
 8794W        W81219   0.311   7.334  10.697
 8795W        W81220  35.641   7.911   1.447
 8796W        W81221  39.654  34.959  11.604
 8797W        W81222  44.750  32.673   0.314
 8798W        W81223  17.028  43.511   1.560
 8799W        W81224  36.551  25.471  11.646
 8800W        W81225   6.375  17.284   4.624
 8801W        W81226  28.675  32.497  12.985
 8802W        W81227  25.383  28.476  11.189
 8803W        W81228  35.291  21.272   4.299
 8804W        W81229  31.283   2.360   4.218
 8805W        W81230  42.902  38.705   0.932
 8806W        W81231  29.481  20.609  14.769
 8807W        W81232  37.565  37.872   4.360
 8808W        W81233   6.498  39.458  14.027
 8809W        W81234   7.007  15.198   0.609
 8810W        W81235  38.574  22.020  12.442
 8811W        W81236   5.715  24.644   4.655
 8812W        W81237   0.296   8.670   2.423
 8813W        W81238  37.534   4.998  14.942
 8814W        W81239  18.658  12.626   0.512
 8815W        W81240   6.129  22.464   0.420
 8816W        W81241  32.003   0.878  10.932
 8817W        W81242  17.036  20.506  13.925
 8818W        W81243  11.260  35.728  12.928
 8819W        W81244  40.455  37.803   3.712
 8820W        W81245  25.025  25.101  10.944
 8821W        W81246   6.669  11.121   0.792
 8822W        W81247   3.287  34.710   2.284
 8823W        W81248   3.348  38.957   3.403
 8824W        W81249  33.869   0.883  14.975
 8825W        W81250  42.906   2.071   2.685
 8826W        W81251   6.232   6.762  11.955
 8827W        W81252  40.365   2.698   0.315
 8828W        W81253  27.695   8.773   2.866
 8829W        W81254  30.192   0.624  11.014
 8830W        W81255   4.433  42.225  12.509
 8831W        W81256  12.190  17.144   3.285
 8832W        W81257  27.278  31.126  14.425
 8833W        W81258  26.211  25.768   1.850
 8834W        W81259  14.175   6.919  12.908
 8835W        W81260  33.606  24.545   2.756
 8836W        W81261   4.218  29.313  14.639
 8837W        W81262  25.769  26.826   2.733
 8838W        W81263  42.639  30.865  11.224
 8839W        W81264   1.420  40.976   1.223
 8840W        W81265  42.367   9.159   3.904
 8841W        W81266  32.614  42.350   3.693
 8842W        W81267  21.258  41.381  12.915
 8843W        W81268  23.497  33.631  13.420
 8844W        W81269  24.538  25.192  14.868
 8845W        W81270  43.277  17.987   1.361
 8846W        W81271  34.582   9.770   3.899
 8847W        W81272  18.973  33.837  13.033
 8848W        W81273  19.739  32.264   4.005
 8849W        W81274  22.593  24.896  11.511
 8850W        W81275  19.686  19.704  12.369
 8851W        W81276  33.571   2.539   3.298
 8852W        W81277  43.400  16.083   0.384
 8853W        W81278  18.167   9.899   1.401
 8854W        W81279  43.740  34.386  14.090
 8855W        W81280  30.065   1.715  14.807
 8856W        W81281  23.431   7.335   0.053
 8857W        W81282  28.641   8.413   3.237
 8858W        W81283  36.315  39.462  12.406
 8859W        W81284  11.264  13.778  10.538
 8860W        W81285  38.831  17.601   1.030
 8861W        W81286  14.270  16.109  12.352
 8862W        W81287  37.959   0.400  14.340
 8863W        W81288   8.829  22.511   0.536
 8864W        W81289  40.858  29.904  13.817
 8865W        W81290  13.609  30.225   3.762
 8866W        W81291  41.137  36.357  11.377
 8867W        W81292  40.548  22.623   9.516
 8868W        W81293  17.670   9.792  14.481
 8869W        W81294  29.115   6.215   4.724
 8870W        W81295   0.832  22.248  10.643
 8871W        W81296  23.714  16.198  13.052
 8872W        W81297  44.715  16.726   0.577
 8873W        W81298  29.568  31.078  10.662
 8874W        W81299  40.620  24.277   4.642
 8875W        W81300   5.890  43.409   1.534
 8876W        W81301  39.324  29.537  11.191
 8877W        W81302  36.423  12.602  10.267
 8878W        W81303  23.540   8.074   2.310
 8879W        W81304   0.732   8.843  10.731
 8880W        W81305   8.926  24.146  14.285
 8881W        W81306  41.046  19.306   4.287
 8882W        W81307  11.657   1.475  12.241
 8883W        W81308  38.487  10.727   2.096
 8884W        W81309  25.792   7.699  12.576
 8885W        W81310  39.873   4.218  10.995
 8886W        W81311  38.309  10.770  13.367
 8887W        W81312  31.839  14.580  12.201
 8888W        W81313  16.197  24.863   4.481
 8889W        W81314  42.273  39.994   3.550
 8890W        W81315  23.025   9.511   5.188
 8891W        W81316  17.328  42.317  13.467
 8892W        W81317  30.901  24.813  11.656
 8893W        W81318  17.436  26.612   3.294
 8894W        W81319   8.255   9.964  10.761
 8895W        W81320   4.223  41.111   0.671
 8896W        W81321   8.082  36.099   0.720
 8897W        W81322  13.726  30.947   4.204
 8898W        W81323   4.870  34.460  10.593
 8899W        W81324   1.760  17.001  14.472
 8900W        W81325  39.352   7.090  14.962
 8901W        W81326  43.527   4.741  10.672
 8902W        W81327  36.412  32.353   1.274
 8903W        W81328  18.145  33.433  10.144
 8904W        W81329  36.383  42.473  12.897
 8905W        W81330   6.137   0.498   0.846
 8906W        W81331  36.639  13.103   3.146
 8907W        W81332  42.418  15.825   4.259
 8908W        W81333  12.436  11.713   0.853
 8909W        W81334   1.826   3.767  12.994
 8910W        W81335  20.132  26.654  13.175
 8911W        W81336  32.172  41.250   3.193
 8912W        W81337  33.293  39.028  11.971
 8913W        W81338  23.890  32.149   1.978
 8914W        W81339   9.280  41.337  12.071
 8915W        W81340  17.471  39.982  11.414
 8916W        W81341   0.086  30.439   4.167
 8917W        W81342  24.670  26.049  14.354
 8918W        W81343  39.383   1.793   4.510
 8919W        W81344  35.166  27.183   4.556
 8920W        W81345   1.340  12.710  12.038
 8921W        W81346   2.886  41.101   3.747
 8922W        W81347  44.748  28.811   5.011
 8923W        W81348  19.270   7.921   4.592
 8924W        W81349  28.165  15.554   0.504
 8925W        W81350  14.614  20.774   4.354
 8926W        W81351  38.583  18.755   1.418
 8927W        W81352  16.267  36.522   2.703
 8928W        W81353  34.436  24.004   3.696
 8929W        W81354  15.189  25.517  13.475
 8930W        W81355  30.717  38.879  13.409
 8931W        W81356  40.921  28.036   2.733
 8932W        W81357  18.610  43.237   4.136
 8933W        W81358   9.986  29.581  12.107
 8934W        W81359  36.577  24.562  10.782
 8935W        W81360  16.243  44.719  13.124
 8936W        W81361  25.762  44.750   3.313
 8937W        W81362  34.535  12.183  12.206
 8938W        W81363   4.351  38.586   0.935
 8939W        W81364  42.979   5.238   0.662
 8940W        W81365  25.721   7.414  11.604
 8941W        W81366   9.748  19.735   0.505
 8942W        W81367  18.043   5.704   1.271
 8943W        W81368  43.409  18.636   5.020
 8944W        W81369  25.564  43.943   2.726
 8945W        W81370  25.869  41.358  12.176
 8946W        W81371   0.884  20.687  10.778
 8947W        W81372  19.026   9.553  14.302
 8948W        W81373   9.736   1.782  10.789
 8949W        W81374  21.708  11.716   1.781
 8950W        W81375  32.718   3.232  13.860
 8951W        W81376  32.071  29.901  13.485
 8952W        W81377  34.493  37.630  14.089
 8953W        W81378  24.540   0.047  14.978
 8954W        W81379  20.430  10.558   4.188
 8955W        W81380  30.221  33.877   0.769
 8956W        W81381  33.547  36.370  11.606
 8957W        W81382   9.472   0.962  10.469
 8958W        W81383   3.413  12.090  13.397
 8959W        W81384  20.855  44.518  14.413
 8960W        W81385   0.330  37.286   1.254
 8961W        W81386  27.429   4.327  12.509
 8962W        W81387   0.728  44.921  14.358
 8963W        W81388   9.596  24.488   3.202
 8964W        W81389  18.661  33.112   1.418
 8965W        W81390  14.316  15.605  12.168
 8966W        W81391  11.592  20.977   0.337
 8967W        W81392  11.429  35.880   1.069
 8968W        W81393   3.191   8.327  12.391
 8969W        W81394   9.721   8.842   0.522
 8970W        W81395  22.233  11.298   1.240
 8971W        W81396   0.435  42.420  11.440
 8972W        W81397   0.244   3.930   1.318
 8973W        W81398   5.607  19.537   1.371
 8974W        W81399  27.008  13.532  12.403
 8975W        W81400   9.141  43.895   1.863
 8976W        W81401  26.437  18.526  10.639
 8977W        W81402   5.265  16.712   3.598
 8978W        W81403  24.268   5.082  13.498
 8979W        W81404  17.717   5.745   0.042
 8980W        W81405  20.481  41.582   2.472
 8981W        W81406   1.360   8.472   2.864
 8982W        W81407  33.390   2.299   0.164
 8983W        W81408  36.109  25.937  12.570
 8984W        W81409  30.978   7.201  10.678
 8985W        W81410  35.071  32.064   0.328
 8986W        W81411   8.616  29.086   1.692
 8987W        W81412  15.335   5.407  11.192
 8988W        W81413  22.241  19.825   5.024
 8989W        W81414  36.521  34.285   4.726
 8990W        W81415  27.541   7.517  11.205
 8991W        W81416   1.518   7.148   2.286
 8992W        W81417  26.208  24.067  13.385
 8993W        W81418  30.995   3.221   4.451
 8994W        W81419   0.766  32.143   0.882
 8995W        W81420   1.441  37.449  14.286
 8996W        W81421  37.391  24.119  11.596
 8997W        W81422  17.669  19.753  12.137
 8998W        W81423  31.488  18.601   3.487
 8999W        W81424  41.820  10.370   5.125
 9000W        W81425  37.561  27.955  11.963
 9001W        W81426  11.180  40.164  13.548
 9002W        W81427  12.172   2.236   1.176
 9003W        W81428   4.363   2.796   2.734
 9004W        W81429  30.996  31.723  14.324
 9005W        W81430  18.426  25.624   2.487
 9006W        W81431  11.800  16.763  12.866
 9007W        W81432  35.922  41.646   4.243
 9008W        W81433  13.177  29.026   3.283
 9009W        W81434  31.054  10.347   2.954
 9010W        W81435   5.124  26.037  14.373
 9011W        W81436   9.383  23.588   0.916
 9012W        W81437  14.265  16.679   0.265
 9013W        W81438  15.825   9.205   2.249
 9014W        W81439  22.289  22.945   2.317
 9015W        W81440  25.649  16.297  13.860
 9016W        W81441   1.445  21.629   4.203
 9017W        W81442  39.704  42.785   4.131
 9018W        W81443  42.982  39.031   2.927
 9019W        W81444   1.930   3.733   2.640
 9020W        W81445  20.102  11.269   2.602
 9021W        W81446   7.161   6.247   0.334
 9022W        W81447  14.625   8.764   5.116
 9023W        W81448   2.937   5.354  13.393
 9024W        W81449  37.806  12.819   4.149
 9025W        W81450  20.273  21.035  10.639
 9026W        W81451  42.547  35.831   1.425
 9027W        W81452  11.800   3.896   0.973
 9028W        W81453  16.168   9.813  11.028
 9029W        W81454  34.064   0.178   0.688
 9030W        W81455  40.087  27.446  12.427
 9031W        W81456  32.598  22.750   0.792
 9032W        W81457  29.901  37.890   4.443
 9033W        W81458  36.845   0.915   1.666
 9034W        W81459  21.217  38.023   4.199
 9035W        W81460   2.420  25.172   3.184
 9036W        W81461  21.251  12.248   3.179
 9037W        W81462   7.374  27.401  11.281
 9038W        W81463  25.511  44.743  11.594
 9039W        W81464  35.593   1.006   1.427
 9040W        W81465  27.521  22.726   0.228
 9041W        W81466  28.021  43.318  14.744
 9042W        W81467   6.063  32.663  13.618
 9043W        W81468  32.418  12.128  12.521
 9044W        W81469  17.230   2.985   0.422
 9045W        W81470   1.546  15.282  13.930
 9046W        W81471   9.257  20.504  13.838
 9047W        W81472  24.078  22.380  10.982
 9048W        W81473   3.493  21.835   3.102
 9049W        W81474  37.176   7.659   0.040
 9050W        W81475  19.510   0.488   4.226
 9051W        W81476  11.068  22.250  10.522
 9052W        W81477  26.531   6.660   3.057
 9053W        W81478  21.527   6.730  12.496
 9054W        W81479  31.532  21.791   2.106
 9055W        W81480  14.335  36.799   4.232
 9056W        W81481  32.400  32.258  14.215
 9057W        W81482  41.971  33.356  14.878
 9058W        W81483  23.796  35.612   3.615
 9059W        W81484  33.590  30.589   4.689
 9060W        W81485  35.084   8.267  13.569
 9061W        W81486  16.323  17.862   2.398
 9062W        W81487  17.958  36.158   4.177
 9063W        W81488  25.973   6.411   4.244
 9064W        W81489  21.390  41.580   2.167
 9065W        W81490  26.753  24.196  11.099
 9066W        W81491  12.335  23.531   2.734
 9067W        W81492  42.739  12.398   0.358
 9068W        W81493  21.219  35.592   0.367
 9069W        W81494   4.952  25.224   3.114
 9070W        W81495  23.184  44.258   3.865
 9071W        W81496  39.261  30.573  11.106
 9072W        W81497  23.996   5.899  11.630
 9073W        W81498  18.193  27.915  14.389
 9074W        W81499  37.943  42.823   4.561
 9075W        W81500  23.399   9.876  11.048
 9076W        W81501  34.819  13.158   5.084
 9077W        W81502  34.224  24.478  13.943
 9078W        W81503  43.012   4.732   0.448
 9079W        W81504   5.206   9.692  11.017
 9080W        W81505  42.488  37.317   4.151
 9081W        W81506   9.646  16.500   1.827
 9082W        W81507  27.938  10.782  11.637
 9083W        W81508   0.483  43.289  13.884
 9084W        W81509   8.234  15.183  14.813
 9085W        W81510  18.857  24.755  11.021
 9086W        W81511  29.912  18.643   5.048
 9087W        W81512  21.044  35.096  10.600
 9088W        W81513  21.147  17.200  13.059
 9089W        W81514   7.838  15.835   1.775
 9090W        W81515  29.091  43.362   4.366
 9091W        W81516  20.580  24.108   4.149
 9092W        W81517  36.333  39.055   0.906
 9093W        W81518  13.053  26.246  12.326
 9094W        W81519  35.902  10.169   4.166
 9095W        W81520  17.969  37.449  10.938
 9096W        W81521  15.688  19.511  13.034
 9097W        W81522  24.022  32.872   3.048
 9098W        W81523  12.093  33.123   3.410
 9099W        W81524  26.527  42.531  13.392
 9100W        W81525  41.734   8.009  12.389
 9101W        W81526  14.614  22.058  11.576
 9102W        W81527  19.505  15.618   1.608
 9103W        W81528   2.129  24.243   3.438
 9104W        W81529   2.482  39.244  14.883
 9105W        W81530  32.795  29.526  11.417
 9106W        W81531   1.773   7.698   4.693
 9107W        W81532  24.978  27.131   2.264
 9108W        W81533  44.082  29.289  12.869
 9109W        W81534  35.546  42.711   0.212
 9110W        W81535   7.680  34.030   2.890
 9111W        W81536  22.572  33.692  11.878
 9112W        W81537  24.103  14.621  12.602
 9113W        W81538   7.845   0.686  11.569
 9114W        W81539   5.160  19.798  11.981
 9115W        W81540  19.752  17.804  13.011
 9116W        W81541  25.682  36.848   1.663
 9117W        W81542   0.149  30.265  14.716
 9118W        W81543   8.390  36.375  11.551
 9119W        W81544  31.139   2.879  13.521
 9120W        W81545  15.374   4.716  10.664
 9121W        W81546  31.179   5.731   2.217
 9122W        W81547  21.577   3.453   4.652
 9123W        W81548  44.309   4.391   2.369
 9124W        W81549  32.533   4.890   2.355
 9125W        W81550   4.592   2.343  12.709
 9126W        W81551  33.115  10.342   0.334
 9127W        W81552   1.946  40.541  14.940
 9128W        W81553  27.444   8.390  12.587
 9129W        W81554  42.896  17.959  14.977
 9130W        W81555  18.011  43.377   0.894
 9131W        W81556   7.374  35.014   3.465
 9132W        W81557  13.372  11.613  13.993
 9133W        W81558  26.598  39.371   0.532
 9134W        W81559  16.761  16.301   3.410
 9135W        W81560  43.271   7.673  12.462
 9136W        W81561   2.219  10.666  11.257
 9137W        W81562  11.774  22.638   5.155
 9138W        W81563  22.785   0.379  14.915
 9139W        W81564  36.436  37.094   1.717
 9140W        W81565  11.534  13.212   4.639
 9141W        W81566  30.036  26.172  12.462
 9142W        W81567  13.847  44.064   1.410
 9143W        W81568   5.948  32.816   4.105
 9144W        W81569   0.310   6.393   3.670
 9145W        W81570   4.220  35.792   0.123
 9146W        W81571  26.158  14.281   4.302
 9147W        W81572   4.445   8.144   2.110
 9148W        W81573   5.947  22.415   3.340
 9149W        W81574  16.079   4.490   0.267
 9150W        W81575  23.147  43.240  13.622
 9151W        W81576  30.996  40.533  12.065
 9152W        W81577  14.246   4.848   0.660
 9153W        W81578   5.550  29.239   4.580
 9154W        W81579  16.866  15.440   1.338
 9155W        W81580   1.882  33.086   1.903
 9156W        W81581  25.441   4.466  13.403
 9157W        W81582  18.024   1.785   3.218
 9158W        W81583  38.860  42.458  11.072
 9159W        W81584  43.435  32.643   2.351
 9160W        W81585  42.010   0.382  11.637
 9161W        W81586  12.248  35.018  12.135
 9162W        W81587   0.138  43.909   1.179
 9163W        W81588  17.617  31.249   4.821
 9164W        W81589  44.742  10.450  10.301
 9165W        W81590  25.114  25.467   4.021
 9166W        W81591  22.836   2.852  12.022
 9167W        W81592   1.883  39.125  14.918
 9168W        W81593  29.512  42.715   3.253
 9169W        W81594  37.529  31.260  10.655
 9170W        W81595  24.595  10.154   4.136
 9171W        W81596   9.401  21.876  13.467
 9172W        W81597   2.454   8.863   1.355
 9173W        W81598  38.570  20.563   0.735
 9174W        W81599  27.015  28.385   1.717
 9175W        W81600   1.967  17.311   2.853
 9176W        W81601  32.501   6.996   4.459
 9177W        W81602  26.158   2.900   2.842
 9178W        W81603  13.851   2.292   0.344
 9179W        W81604  27.988  13.154  10.579
 9180W        W81605  29.676  39.903   0.795
 9181W        W81606  14.048  21.136   2.307
 9182W        W81607  20.086  13.184  10.547
 9183W        W81608  15.388  31.177  10.860
 9184W        W81609  36.563  26.944   1.396
 9185W        W81610  14.269  32.262  12.109
 9186W        W81611  27.921  24.134  12.187
 9187W        W81612   5.253  42.017   2.790
 9188W        W81613  31.357   9.932  10.440
 9189W        W81614  31.341  41.361  13.895
 9190W        W81615  43.206  14.614   3.602
 9191W        W81616  19.328  38.947   4.705
 9192W        W81617  14.657  38.059   3.701
 9193W        W81618  37.958  12.764  12.589
 9194W        W81619  21.056   8.602  14.367
 9195W        W81620  18.327  27.461  14.606
 9196W        W81621  15.634  37.117  13.456
 9197W        W81622  18.246  17.154  10.719
 9198W        W81623   8.985  22.792  12.040
 9199W        W81624   3.748  18.621   0.298
 9200W        W81625  23.252  32.812  12.072
 9201W        W81626  30.068  28.045  12.307
 9202W        W81627  27.121  39.356  11.597
 9203W        W81628  32.176  26.004   0.433
 9204W        W81629  43.729  30.969  13.951
 9205W        W81630  11.175  16.839   3.253
 9206W        W81631  13.282   0.325  11.522
 9207W        W81632  29.024  25.536  12.139
 9208W        W81633   3.059  22.638  14.392
 9209W        W81634   4.797  37.128   0.096
 9210W        W81635   9.914  15.514  14.365
 9211W        W81636  38.162   9.280   2.346
 9212W        W81637   0.847  10.557  12.471
 9213W        W81638  27.760  26.254   2.846
 9214W        W81639  24.546   5.501   1.746
 9215W        W81640  43.419  19.664   2.373
 9216W        W81641  22.148  25.600   1.248
 9217W        W81642   7.384   0.300  14.384
 9218W        W81643  15.784  31.413   4.905
 9219W        W81644  37.442   5.175   3.629
 9220W        W81645  39.107  25.844  10.695
 9221W        W81646  18.680  11.230  14.096
 9222W        W81647  14.685  14.584  12.916
 9223W        W81648  38.850  22.260   3.236
 9224W        W81649  37.930  41.230   3.199
 9225W        W81650  40.777   4.770  12.149
 9226W        W81651  15.217  28.869  12.855
 9227W        W81652  20.022  14.613  14.330
 9228W        W81653   7.646  10.763   1.388
 9229W        W81654  21.511   2.353   1.703
 9230W        W81655  35.425  21.848   2.597
 9231W        W81656  22.009  10.514   2.278
 9232W        W81657  35.416  39.949  12.160
 9233W        W81658   1.496  15.724   0.253
 9234W        W81659   1.292  27.411  14.217
 9235W        W81660  32.086  14.783  13.545
 9236W        W81661  19.241  14.873  13.968
 9237W        W81662  22.591  37.480   0.473
 9238W        W81663   4.872  33.048  14.217
 9239W        W81664  12.897  23.565   1.348
 9240W        W81665   6.674  16.393   3.628
 9241W        W81666  23.224   0.778  12.017
 9242W        W81667   6.236  44.748  14.017
 9243W        W81668   6.790  23.314  12.310
 9244W        W81669  19.585  27.930  14.317
 9245W        W81670  24.997  36.076  10.762
 9246W        W81671  24.441  42.020   4.103
 9247W        W81672  35.313  24.977   9.842
 9248W        W81673  14.789   2.057  11.157
 9249W        W81674  38.504  14.876  13.365
 9250W        W81675  34.823   5.454   4.087
 9251W        W81676   0.795   0.663   2.236
 9252W        W81677  42.534  35.712  13.007
 9253W        W81678   9.360   6.215   3.273
 9254W        W81679   8.485  29.317  11.085
 9255W        W81680  23.126  21.339  14.599
 9256W        W81681  24.923   2.972   3.445
 9257W        W81682   5.740  25.376  11.613
 9258W        W81683  10.310  40.752   2.212
 9259W        W81684  41.752   2.291   4.085
 9260W        W81685  39.369  34.117   3.674
 9261W        W81686   4.259  29.154  13.622
 9262W        W81687   7.814  39.013  11.106
 9263W        W81688   1.340   4.138   3.700
 9264W        W81689  34.545  16.492  13.041
 9265W        W81690  27.122  25.055  11.483
 9266W        W81691  29.964  13.441  14.203
 9267W        W81692  28.671   6.709  14.446
 9268W        W81693  33.075   1.441  13.614
 9269W        W81694  40.507   4.163  11.633
 9270W        W81695  38.057  24.400   2.579
 9271W        W81696  39.419   0.289   1.665
 9272W        W81697   8.736   6.639  10.212
 9273W        W81698   0.518   9.903   1.973
 9274W        W81699   4.844   6.251   0.324
 9275W        W81700  17.986  31.543  11.489
 9276W        W81701  42.385  15.462   1.879
 9277W        W81702  41.094  28.814  11.664
 9278W        W81703  11.091  32.192   4.573
 9279W        W81704  26.245   2.718   4.848
 9280W        W81705  19.298  39.483  11.505
 9281W        W81706  20.688   9.798  14.321
 9282W        W81707   4.490  43.539  12.972
 9283W        W81708  32.035  25.358   1.642
 9284W        W81709  32.631  33.101  14.100
 9285W        W81710  28.326  30.129   2.653
 9286W        W81711  22.273  20.947  13.413
 9287W        W81712  15.051  15.391  11.210
 9288W        W81713   4.571  28.625  11.532
 9289W        W81714  16.803   8.202  11.512
 9290W        W81715  40.796   2.376   4.090
 9291W        W81716  15.017  16.077  12.771
 9292W        W81717  20.352  29.396  10.651
 9293W        W81718   6.409  27.315   2.318
 9294W        W81719   5.400  21.597  13.394
 9295W        W81720  17.704  27.604  12.858
 9296W        W81721  14.324  10.674  12.510
 9297W        W81722  21.387  43.618   1.156
 9298W        W81723  39.474  22.647  12.820
 9299W        W81724  20.927  10.635  12.069
 9300W        W81725   0.403   2.258   3.231
 9301W        W81726  32.628  44.942   4.508
 9302W        W81727  13.519  33.379  11.212
 9303W        W81728  36.043  13.680  12.096
 9304W        W81729  41.033  38.960  11.099
 9305W        W81730  11.224  25.931  12.797
 9306W        W81731  38.967  27.129  10.666
 9307W        W81732  34.915  15.683  11.156
 9308W        W81733  26.875  35.833  14.467
 9309W        W81734  13.254  35.503   2.904
 9310W        W81735   0.135  14.131   4.513
 9311W        W81736  15.327  18.433  13.165
 9312W        W81737  23.198   4.154  10.560
 9313W        W81738   1.377  34.896  14.115
 9314W        W81739  25.178  44.619   4.943
 9315W        W81740  40.894  13.425   1.221
 9316W        W81741   2.204  22.795  13.916
 9317W        W81742   6.830  13.124  12.102
 9318W        W81743  25.908  37.045   4.973
 9319W        W81744  44.921  38.390   1.848
 9320W        W81745  26.198  19.114   3.831
 9321W        W81746  44.107  33.553   1.772
 9322W        W81747  17.518  28.062   3.138
 9323W        W81748  27.231  26.436  13.906
 9324W        W81749  35.771  37.480   3.049
 9325W        W81750  34.567  43.748  13.815
 9326W        W81751  33.122   2.324  10.771
 9327W        W81752   4.392  38.007   3.251
 9328W        W81753   1.840   1.973  12.590
 9329W        W81754   7.003  20.018  10.654
 9330W        W81755  20.877  19.224  11.053
 9331W        W81756   8.924  18.698   4.931
 9332W        W81757   7.333  41.021   3.679
 9333W        W81758  36.807  21.212  11.771
 9334W        W81759   0.361  14.120   1.207
 9335W        W81760   1.230  16.156   0.480
 9336W        W81761  21.264  43.111  13.272
 9337W        W81762  15.407  32.470   3.805
 9338W        W81763  12.639  27.697   3.195
 9339W        W81764  29.254   9.425   2.532
 9340W        W81765  41.656  37.439   0.858
 9341W        W81766  44.785  28.027   4.871
 9342W        W81767  38.365  25.211   3.677
 9343W        W81768  35.424  35.950  14.999
 9344W        W81769  44.059  17.169   3.720
 9345W        W81770  11.198   8.278  14.294
 9346W        W81771  28.165  17.469  13.990
 9347W        W81772  27.419  34.005   4.227
 9348W        W81773   1.566  41.834   1.265
 9349W        W81774  39.407  15.648   4.593
 9350W        W81775  11.879  16.763   2.743
 9351W        W81776  39.014  17.041  14.801
 9352W        W81777  24.523   8.676   9.728
 9353W        W81778   2.848   3.925   3.554
 9354W        W81779  20.679  34.407   1.186
 9355W        W81780  31.405  25.197   3.852
 9356W        W81781  18.579  22.750   1.184
 9357W        W81782  10.382  12.294   2.988
 9358W        W81783   3.985  41.348   1.947
 9359W        W81784  27.847   5.350  13.513
 9360W        W81785  39.015  23.623   4.127
 9361W        W81786  39.328  40.895  10.609
 9362W        W81787   6.163   4.395   0.401
 9363W        W81788  24.255  23.216   4.853
 9364W        W81789  16.266   9.381  11.289
 9365W        W81790   8.158   0.291   1.923
 9366W        W81791  13.645  34.851   0.917
 9367W        W81792  42.610  37.992  12.946
 9368W        W81793  43.800  34.518   1.256
 9369W        W81794  11.179  27.237   2.183
 9370W        W81795  11.460  13.923  11.376
 9371W        W81796  36.859  17.932   1.116
 9372W        W81797  28.078  11.378  14.587
 9373W        W81798  30.005  44.366  12.082
 9374W        W81799  14.793  26.213  12.423
 9375W        W81800  19.249  20.208   0.859
 9376W        W81801   7.312  11.299   4.840
 9377W        W81802   7.800  37.458   0.840
 9378W        W81803  13.910   8.401  13.367
 9379W        W81804  19.447  12.803  13.715
 9380W        W81805  12.260  35.202   2.354
 9381W        W81806  21.110  31.655  14.106
 9382W        W81807  31.995  15.577   0.740
 9383W        W81808   7.107  25.981   1.216
 9384W        W81809  27.466  33.008   5.019
 9385W        W81810  17.655  29.107   3.320
 9386W        W81811  42.552   3.365   1.735
 9387W        W81812  15.704  38.553  10.665
 9388W        W81813  11.669  13.023  10.466
 9389W        W81814   2.715   7.483   1.011
 9390W        W81815   0.387  29.009  11.628
 9391W        W81816  33.251   0.503   4.659
 9392W        W81817   5.029  34.805   1.391
 9393W        W81818  10.405  14.913   1.211
 9394W        W81819  38.562  25.158   4.605
 9395W        W81820  41.311  44.438  10.967
 9396W        W81821  32.997  27.459   3.711
 9397W        W81822   7.546  25.688  13.735
 9398W        W81823  10.008  12.081  12.943
 9399W        W81824  14.102   1.100  11.640
 9400W        W81825  41.766  33.374   4.920
 9401W        W81826  31.594  35.980  14.858
 9402W        W81827  19.635  35.495   4.419
 9403W        W81828   5.236  41.518   3.922
 9404W        W81829   9.381  32.062   4.632
 9405W        W81830  25.593   3.303  10.640
 9406W        W81831  30.434  44.303  10.940
 9407W        W81832  39.328  33.836  11.213
 9408W        W81833  25.106  39.430   1.657
 9409W        W81834  26.201  12.841  13.057
 9410W        W81835  41.914  25.297   0.415
 9411W        W81836  36.824   2.341   3.011
 9412W        W81837   3.010  28.543  13.347
 9413W        W81838  23.259  44.219  12.022
 9414W        W81839  15.896   6.750   1.185
 9415W        W81840  43.282   2.550  13.937
 9416W        W81841  20.661  25.893   2.795
 9417W        W81842  18.524  24.290   4.042
 9418W        W81843   4.731  34.926  11.900
 9419W        W81844  29.279  30.109   1.758
 9420W        W81845   7.353   5.354  11.013
 9421W        W81846  37.451  24.750   1.998
 9422W        W81847  29.171   4.748  11.552
 9423W        W81848  19.028  33.804   2.382
 9424W        W81849  38.576  24.524   4.998
 9425W        W81850  31.888   0.755   2.193
 9426W        W81851  22.021   8.913   1.867
 9427W        W81852  33.365  41.784   2.763
 9428W        W81853   5.818  42.458   0.257
 9429W        W81854  11.331  17.823  11.707
 9430W        W81855   4.766  44.310   2.433
 9431W        W81856  13.727  15.396   2.783
 9432W        W81857  38.387  42.186  13.700
 9433W        W81858  17.574   6.905   3.057
 9434W        W81859  16.057   7.392   2.649
 9435W        W81860  33.954  27.970   4.271
 9436W        W81861  20.782  16.583   1.263
 9437W        W81862  32.849  31.541  14.849
 9438W        W81863  18.672  38.994  12.539
 9439W        W81864  41.949  39.275   4.545
 9440W        W81865  28.442  28.660   2.656
 9441W        W81866   4.817  33.943   4.904
 9442W        W81867  16.573  44.364   1.483
 9443W        W81868  35.999  13.710  10.813
 9444W        W81869  42.578  32.553  14.773
 9445W        W81870  44.700   7.848  13.821
 9446W        W81871  36.931  23.666  11.063
 9447W        W81872  19.295  40.488   0.872
 9448W        W81873  35.925  24.492  13.593
 9449W        W81874  24.724   0.311   3.642
 9450W        W81875  27.117  31.812  11.846
 9451W        W81876   9.591   9.787   3.503
 9452W        W81877  36.538  13.999   1.745
 9453W        W81878  27.535   2.218  13.284
 9454W        W81879  11.730  11.693  10.907
 9455W        W81880  40.444   3.856   4.923
 9456W        W81881  42.266   0.438  14.379
 9457W        W81882  29.525   1.732   3.682
 9458W        W81883  12.779  18.842   0.371
 9459W        W81884  23.566  33.939  14.838
 9460W        W81885  30.021   3.325  11.853
 9461W        W81886  35.581  18.592   0.314
 9462W        W81887  42.966   5.293   1.896
 9463W        W81888   2.449   6.368   3.697
 9464W        W81889   4.708  39.931   1.150
 9465W        W81890  10.745  12.660  10.739
 9466W        W81891   3.754  37.595  13.488
 9467W        W81892   9.591   8.365   1.300
 9468W        W81893   1.815  24.054  11.116
 9469W        W81894  18.110   1.930   1.451
 9470W        W81895  36.172  44.358  13.139
 9471W        W81896   2.953  43.174  13.863
 9472W        W81897  38.040  31.155   1.365
 9473W        W81898  18.343  34.798   3.221
 9474W        W81899  32.112  19.759  12.382
 9475W        W81900  21.000  36.173   2.726
 9476W        W81901   4.073  22.609  14.384
 9477W        W81902  12.234  21.434   4.308
 9478W        W81903   9.932   4.916   4.180
 9479W        W81904  43.866  33.882  14.866
 9480W        W81905  28.426  40.338   2.705
 9481W        W81906   2.495  19.013  12.108
 9482W        W81907  36.489  17.032  12.515
 9483W        W81908  11.405  34.937   0.070
 9484W        W81909  10.279  18.393  13.904
 9485W        W81910  31.081  21.656  12.341
 9486W        W81911  42.126  38.894   1.927
 9487W        W81912   6.863  35.010   2.181
 9488W        W81913   3.503  24.560  12.568
 9489W        W81914   9.299  39.275   0.263
 9490W        W81915  12.066  10.179  12.869
 9491W        W81916   4.131  17.077   1.319
 9492W        W81917  14.332  16.532  13.127
 9493W        W81918  38.382  13.777   4.699
 9494W        W81919  16.788  38.467  13.267
 9495W        W81920  26.575  25.400  14.841
 9496W        W81921  13.887  40.449   3.302
 9497W        W81922  18.271  17.720  10.799
 9498W        W81923   8.385  11.388  11.553
 9499W        W81924  21.151  43.783  12.951
 9500W        W81925  22.522  13.235   1.252
 9501W        W81926  23.204   4.286   4.562
 9502W        W81927  42.934  43.172   4.950
 9503W        W81928   3.678   3.322   2.388
 9504W        W81929  23.511  14.662   1.276
 9505W        W81930  10.201   6.235  11.490
 9506W        W81931  22.397  27.835  10.695
 9507W        W81932  10.886  23.287   3.539
 9508W        W81933  17.418  43.796   2.027
 9509W        W81934   4.021  37.292   4.534
 9510W        W81935  31.521  43.909   2.386
 9511W        W81936   7.285  35.512   1.199
 9512W        W81937  26.836  29.128   1.399
 9513W        W81938  44.862  21.691  13.458
 9514W        W81939  11.663  38.060   3.185
 9515W        W81940  11.496  22.700   2.601
 9516W        W81941   3.877  27.632   0.826
 9517W        W81942  26.460  42.311   2.322
 9518W        W81943   1.988  16.328   1.139
 9519W        W81944  44.101  21.285   4.986
 9520W        W81945  20.698   2.183  10.764
 9521W        W81946  20.629  27.495   0.991
 9522W        W81947  34.338  36.256   4.861
 9523W        W81948  24.623  18.393  10.463
 9524W        W81949  16.793  22.068   4.152
 9525W        W81950  14.772  12.440  12.024
 9526W        W81951  38.065  40.103   0.382
 9527W        W81952  14.113  38.132  10.343
 9528W        W81953  32.207  37.646  13.480
 9529W        W81954  24.994   8.288   3.382
 9530W        W81955  28.698  28.505   1.361
 9531W        W81956  36.525  16.391  12.161
 9532W        W81957  20.712  32.801  10.914
 9533W        W81958  35.560   6.660  11.404
 9534W        W81959  33.959  42.459   3.185
 9535W        W81960  11.353  18.667  13.384
 9536W        W81961   4.905  12.090  11.009
 9537W        W81962  40.041  14.920  13.495
 9538W        W81963  35.594  13.900  11.249
 9539W        W81964  33.382  19.031   4.537
 9540W        W81965  32.355  40.745   1.459
 9541W        W81966  21.021  43.983   1.342
 9542W        W81967   8.709  34.747   0.874
 9543W        W81968  25.078   2.556   1.095
 9544W        W81969  11.733  26.549  10.891
 9545W        W81970  29.487  32.098   2.762
 9546W        W81971  30.223  22.467  12.017
 9547W        W81972  36.799  34.460  14.074
 9548W        W81973  32.993  18.168   5.535
 9549W        W81974  31.027  36.369   2.680
 9550W        W81975  29.500  28.122   3.192
 9551W        W81976  13.737   5.200  11.182
 9552W        W81977  40.635  21.143   3.209
 9553W        W81978  13.543  38.968  10.750
 9554W        W81979  22.629  37.300  12.662
 9555W        W81980  20.363   5.518   1.892
 9556W        W81981  20.708  23.242   3.747
 9557W        W81982  33.142  30.846   2.417
 9558W        W81983  23.497  34.383  12.503
 9559W        W81984  36.863  14.670   4.231
 9560W        W81985  40.672  40.546   0.445
 9561W        W81986  36.849   0.486   3.294
 9562W        W81987  42.770  32.576  10.773
 9563W        W81988   2.233  17.294   2.378
 9564W        W81989  24.027   7.886  11.025
 9565W        W81990  27.892  37.025   2.816
 9566W        W81991  34.022  35.616  12.130
 9567W        W81992   9.824  33.068   2.466
 9568W        W81993  29.610   1.272   4.346
 9569W        W81994   1.929  22.679  13.489
 9570W        W81995   2.018  14.823   2.202
 9571W        W81996  34.005   4.299  13.031
 9572W        W81997   2.134  39.394  11.144
 9573W        W81998   1.976  39.960   2.775
 9574W        W81999  13.110  23.984  11.962
 9575W        W82000  24.122   8.520   1.409
 9576W        W82001  39.917  34.701  14.127
 9577W        W82002  30.185  21.071   4.074
 9578W        W82003   6.221  35.079  12.146
 9579W        W82004  42.014  19.930  13.358
 9580W        W82005  30.919  29.847   3.188
 9581W        W82006  14.286  23.906  11.741
 9582W        W82007  22.549   7.476   4.638
 9583W        W82008   9.848  39.060  13.035
 9584W        W82009  38.540  39.001   3.202
 9585W        W82010  13.049  31.587  13.342
 9586W        W82011  24.555  24.179   3.717
 9587W        W82012   2.417  35.530   2.004
 9588W        W82013  41.013  11.254  12.441
 9589W        W82014   9.847  31.386   3.158
 9590W        W82015  30.108  32.849  13.422
 9591W        W82016  29.311  27.831   3.672
 9592W        W82017  31.940  43.338  14.614
 9593W        W82018  12.882  13.594   3.644
 9594W        W82019  43.544  12.197   4.211
 9595W        W82020  34.057  32.681   1.781
 9596W        W82021  38.465  12.099  11.539
 9597W        W82022   5.224  12.307   2.272
 9598W        W82023   2.798  26.921  11.275
 9599W        W82024   6.719  25.024  11.755
 9600W        W82025  36.322  44.905   0.298
 9601W        W82026   7.960   8.757  11.701
 9602W        W82027  36.873   4.813  11.099
 9603W        W82028  37.547  18.010  13.610
 9604W        W82029  27.727  23.457  13.861
 9605W        W82030   1.982  41.226  12.723
 9606W        W82031   2.261   1.401  13.842
 9607W        W82032  33.870  30.893   1.077
 9608W        W82033   4.415  23.620  10.748
 9609W        W82034   2.951  35.945   4.085
 9610W        W82035   3.792  19.700  14.823
 9611W        W82036   5.469   3.679  12.105
 9612W        W82037  34.113  36.028  14.457
 9613W        W82038  29.430  42.462   4.323
 9614W        W82039  25.217  11.750  12.604
 9615W        W82040  31.183  34.581  12.718
 9616W        W82041  31.080  44.807   0.782
 9617W        W82042   6.126  22.432  13.618
 9618W        W82043  10.738  27.237   4.940
 9619W        W82044  36.438  17.106   9.960
 9620W        W82045  15.861  26.703  11.541
 9621W        W82046   8.681  34.171   1.603
 9622W        W82047  29.945  29.161  12.603
 9623W        W82048   3.486  25.179  13.770
 9624W        W82049  42.396  36.790  11.981
 9625W        W82050  44.120  10.259  13.902
 9626W        W82051  14.793   5.363  11.217
 9627W        W82052  28.288  11.849  14.708
 9628W        W82053  21.476  36.573   1.758
 9629W        W82054  41.088  36.852   4.576
 9630W        W82055  26.221  43.384   0.068
 9631W        W82056  32.601  16.257  14.778
 9632W        W82057   8.136   8.369   1.408
 9633W        W82058   7.081  35.507   4.715
 9634W        W82059  11.137   1.242  10.724
 9635W        W82060  39.426  16.634   0.024
 9636W        W82061   8.850  28.962  12.320
 9637W        W82062  33.116  43.961  12.497
 9638W        W82063  30.431   3.957   4.173
 9639W        W82064  25.458  41.370   0.958
 9640W        W82065   4.783   7.151  11.638
 9641W        W82066  32.667  21.693   0.537
 9642W        W82067  44.362  10.853   0.971
 9643W        W82068  20.753  43.202   3.646
 9644W        W82069   4.605  42.996  10.033
 9645W        W82070  31.658   6.629  13.000
 9646W        W82071  41.327  34.943   1.900
 9647W        W82072  40.392   9.778  14.294
 9648W        W82073  17.718  28.080  10.656
 9649W        W82074  35.655  41.481   4.671
 9650W        W82075  36.928  29.026  13.781
 9651W        W82076  22.182   4.213   3.514
 9652W        W82077   5.250  26.694   2.419
 9653W        W82078   4.748  37.587  12.387
 9654W        W82079  20.099  22.137   4.180
 9655W        W82080  22.564   1.933   2.296
 9656W        W82081  37.570   6.412  13.389
 9657W        W82082  10.303  33.336   2.292
 9658W        W82083  10.228  15.826  11.093
 9659W        W82084   4.200  41.456   2.423
 9660W        W82085  24.124  32.577   3.962
 9661W        W82086   4.951  30.791   1.949
 9662W        W82087  25.902   6.497   0.280
 9663W        W82088   0.827  42.220   3.411
 9664W        W82089   4.156   4.977   0.100
 9665W        W82090  38.990  26.567  12.781
 9666W        W82091  38.323  40.967   4.165
 9667W        W82092  40.567  34.445  13.466
 9668W        W82093  19.839  42.425   0.507
 9669W        W82094  32.269  15.431  12.947
 9670W        W82095   7.213   3.773  12.949
 9671W        W82096  11.838  41.475  12.427
 9672W        W82097  42.705   1.332  13.801
 9673W        W82098  44.187   9.871  12.470
 9674W        W82099  15.452  15.004   1.427
 9675W        W82100  22.619   9.720  12.813
 9676W        W82101  30.197  40.376  14.446
 9677W        W82102  31.193  20.103  10.364
 9678W        W82103  42.031  17.709  10.707
 9679W        W82104  34.011  29.679  13.009
 9680W        W82105   0.846  24.727  10.721
 9681W        W82106  20.748  37.989   0.247
 9682W        W82107   5.708  19.039  14.747
 9683W        W82108  26.501  28.686   2.849
 9684W        W82109  17.817  30.353   2.754
 9685W        W82110  39.468  12.452  14.631
 9686W        W82111  31.155  24.097   1.869
 9687W        W82112  44.327  11.826  10.672
 9688W        W82113  20.750  44.189   3.869
 9689W        W82114  19.261  34.233  13.253
 9690W        W82115  38.924  11.704   5.208
 9691W        W82116  34.348   2.884  10.695
 9692W        W82117  37.067  11.125  12.894
 9693W        W82118  41.570  40.056  12.929
 9694W        W82119  32.442  33.861  11.768
 9695W        W82120  38.293  31.955   1.048
 9696W        W82121  30.857  23.502   0.792
 9697W        W82122  37.050  42.520   3.804
 9698W        W82123  18.295  37.602  10.583
 9699W        W82124  25.890   4.271   3.248
 9700W        W82125  34.023   8.259   1.700
 9701W        W82126  30.057  16.850  11.629
 9702W        W82127  16.659  17.636  13.922
 9703W        W82128  40.473   1.957   0.978
 9704W        W82129  41.289  16.751   0.485
 9705W        W82130  32.917   6.507   3.350
 9706W        W82131  42.971  14.618  12.003
 9707W        W82132  22.191  40.045   3.345
 9708W        W82133  31.045  23.348  14.263
 9709W        W82134   4.482  19.174   2.651
 9710W        W82135   8.724  15.029  11.465
 9711W        W82136   4.532  37.433   0.844
 9712W        W82137  19.866  32.500   5.017
 9713W        W82138   3.281   7.602   2.296
 9714W        W82139  20.262   5.269   2.791
 9715W        W82140   8.798   6.165  13.376
 9716W        W82141  40.786  24.603   4.219
 9717W        W82142  12.407  35.768  13.167
 9718W        W82143  34.962  23.283  13.816
 9719W        W82144  28.916   0.850  11.526
 9720W        W82145  17.616  44.125  10.552
 9721W        W82146  12.551  24.334  13.834
 9722W        W82147   5.396   2.971   5.013
 9723W        W82148   4.552  26.276   0.746
 9724W        W82149  23.683  34.339   3.888
 9725W        W82150  10.246  11.213  12.090
 9726W        W82151  31.914  36.624  13.599
 9727W        W82152   1.014  41.046  14.782
 9728W        W82153  23.630  11.072  10.679
 9729W        W82154   9.294  11.453  14.348
 9730W        W82155   8.761  31.554   3.359
 9731W        W82156   9.930  28.698   4.874
 9732W        W82157  19.113  11.441  11.894
 9733W        W82158   9.205  38.222  10.060
 9734W        W82159  32.701  36.973   0.960
 9735W        W82160   6.491  23.087   3.677
 9736W        W82161  10.087   2.796   2.951
 9737W        W82162  13.144  13.842  14.820
 9738W        W82163   6.743  13.858  13.448
 9739W        W82164  11.099   1.611   0.929
 9740W        W82165   3.917  41.344  11.575
 9741W        W82166  42.362  31.248   0.479
 9742W        W82167  42.818   9.128   4.611
 9743W        W82168   2.397  32.106  13.481
 9744W        W82169  33.647  12.599  12.337
 9745W        W82170  33.958  12.849  13.781
 9746W        W82171  36.368  37.046  13.284
 9747W        W82172   5.655  26.903  12.561
 9748W        W82173  37.393  19.998   2.325
 9749W        W82174  10.148  44.286   3.292
 9750W        W82175  36.110  23.040   0.895
 9751W        W82176  20.912  11.892  14.634
 9752W        W82177   2.701  19.190  13.866
 9753W        W82178  12.693  22.944   4.078
 9754W        W82179   9.320  40.422  12.951
 9755W        W82180  12.368  25.074  10.883
 9756W        W82181  42.034  22.798   3.608
 9757W        W82182  12.122  41.250   1.657
 9758W        W82183  20.074  31.664   3.295
 9759W        W82184  17.322  29.661   5.100
 9760W        W82185  12.864  20.763  12.413
 9761W        W82186  37.497  32.400  10.771
 9762W        W82187  12.559  43.873  12.797
 9763W        W82188  33.565  10.952  13.265
 9764W        W82189  11.136  24.987  12.417
 9765W        W82190  44.468  42.070  11.097
 9766W        W82191  35.293  29.571   0.937
 9767W        W82192  32.991  36.841  11.239
 9768W        W82193  30.497   2.372  12.145
 9769W        W82194  31.033  28.411   0.904
 9770W        W82195  10.314  16.276   4.141
 9771W        W82196  14.111  35.703  12.124
 9772W        W82197  10.659  34.395   1.872
 9773W        W82198   1.327   5.034   1.502
 9774W        W82199  12.760   0.193   4.601
 9775W        W82200  12.471  33.145   0.840
 9776W        W82201  34.429  19.119  11.033
 9777W        W82202  39.898   1.775   4.320
 9778W        W82203  29.572  30.719   1.251
 9779W        W82204  41.542  43.944  11.199
 9780W        W82205  35.495   2.503   0.893
 9781W        W82206  24.488  29.580   3.877
 9782W        W82207  24.376  30.502  12.039
 9783W        W82208  43.862  13.935  11.214
 9784W        W82209   2.918  22.889  12.042
 9785W        W82210  14.628  33.839   0.455
 9786W        W82211  37.063  44.803  14.837
 9787W        W82212  26.544  42.814   2.205
 9788W        W82213  36.364   1.150  12.462
 9789W        W82214  30.663  24.054   2.747
 9790W        W82215  35.982   5.473  14.162
 9791W        W82216  40.717  40.136   4.202
 9792W        W82217  44.189  22.757   4.155
 9793W        W82218  31.880  28.091   0.900
 9794W        W82219  38.790  12.035   4.286
 9795W        W82220  24.260  20.151   0.389
 9796W        W82221   0.951   5.424  10.608
 9797W        W82222  18.261  18.080  14.912
 9798W        W82223  18.869  22.871  12.084
 9799W        W82224  25.474   5.180   0.592
 9800W        W82225  32.939  20.799   4.272
 9801W        W82226  43.550  26.899   3.662
 9802W        W82227  26.795   0.456  10.324
 9803W        W82228   6.247   5.332   2.327
 9804W        W82229  19.906   3.895   0.232
 9805W        W82230  44.679  30.619   3.893
 9806W        W82231  19.050  44.679   5.122
 9807W        W82232  23.471  11.691  12.989
 9808W        W82233  22.365  26.587  12.011
 9809W        W82234  27.409  12.423  14.723
 9810W        W82235  12.706  25.119  14.528
 9811W        W82236  27.825  15.654  13.488
 9812W        W82237  22.973  10.507   2.142
 9813W        W82238  12.356  21.094   2.676
 9814W        W82239   2.388   9.227   2.792
 9815W        W82240  44.415  23.569   0.508
 9816W        W82241  21.744   4.053  10.618
 9817W        W82242  12.665  20.622  14.847
 9818W        W82243  11.369  17.208   4.109
 9819W        W82244  42.090  14.630  11.115
 9820W        W82245   3.831  24.427   0.138
 9821W        W82246  12.167  22.812   4.011
 9822W        W82247  27.948  27.401   1.545
 9823W        W82248   2.313  19.639   2.778
 9824W        W82249  38.127   1.189  11.528
 9825W        W82250  15.734  43.128  10.657
 9826W        W82251  13.456  38.423  11.459
 9827W        W82252  10.836  22.712  10.916
 9828W        W82253  43.266  35.008   2.006
 9829W        W82254  35.100  16.265   1.310
 9830W        W82255  27.218  35.792  11.542
 9831W        W82256  22.582   2.249  10.704
 9832W        W82257  39.427   9.472   1.753
 9833W        W82258  34.978  25.401  11.750
 9834W        W82259   7.619  39.741  10.561
 9835W        W82260  12.068  25.024  11.312
 9836W        W82261   5.295  43.995   3.243
 9837W        W82262   3.185  13.716  11.173
 9838W        W82263  32.916  13.562  14.938
 9839W        W82264   1.541  25.453  13.034
 9840W        W82265   3.279  29.603  10.305
 9841W        W82266  13.379  33.885   2.252
 9842W        W82267  29.727  29.698   1.210
 9843W        W82268  43.569  18.139   2.348
 9844W        W82269   0.780   6.427  10.483
 9845W        W82270  42.723   5.712  12.895
 9846W        W82271  14.061  29.809   2.221
 9847W        W82272  41.542   2.564   2.870
 9848W        W82273  19.742   7.205   2.234
 9849W        W82274  27.397  36.472   1.737
 9850W        W82275  31.190  22.971  12.920
 9851W        W82276  21.075  18.703   1.888
 9852W        W82277  17.454   0.267  14.589
 9853W        W82278  16.163  20.848  11.411
 9854W        W82279  23.158  14.414   0.013
 9855W        W82280   5.861   2.208  10.586
 9856W        W82281   2.205  28.792  12.010
 9857W        W82282  38.391  23.215   2.407
 9858W        W82283  34.478  26.525  11.583
 9859W        W82284   8.880   7.716   3.398
 9860W        W82285  19.980  13.828  10.584
 9861W        W82286  24.541  33.375   3.822
 9862W        W82287  26.167  36.364   2.258
 9863W        W82288  35.093  44.222   2.837
 9864W        W82289   5.772  24.632   3.152
 9865W        W82290  21.999  28.578  10.541
 9866W        W82291  25.782  32.855   0.328
 9867W        W82292  22.205  17.654   0.384
 9868W        W82293  31.443  44.822  10.691
 9869W        W82294  31.495  35.618   0.314
 9870W        W82295  31.165  24.873  10.101
 9871W        W82296  43.900  39.879  13.883
 9872W        W82297  34.555  19.173  12.044
 9873W        W82298  28.981  42.459  10.668
 9874W        W82299  41.120   7.738   3.626
 9875W        W82300  41.430  21.651  11.012
 9876W        W82301  43.497   3.862  10.798
 9877W        W82302  29.064  22.292  10.741
 9878W        W82303  30.588   5.536  11.052
 9879W        W82304  11.660  29.658  12.603
 9880W        W82305  11.045  41.267  11.214
 9881W        W82306   0.686  44.797  11.128
 9882W        W82307  42.451  17.019  14.295
 9883W        W82308  40.097   0.794   0.844
 9884W        W82309  27.614  21.887  14.765
 9885W        W82310  34.499  13.874   1.261
 9886W        W82311  20.022  38.253   4.242
 9887W        W82312  20.699  39.471  11.586
 9888W        W82313  27.661  38.936   4.609
 9889W        W82314   4.724  35.633  11.137
 9890W        W82315  36.126  11.119   1.233
 9891W        W82316  21.048  11.538   3.723
 9892W        W82317   8.184  24.660   4.572
 9893W        W82318  39.464  32.608  13.422
 9894W        W82319   8.328  34.337  14.337
 9895W        W82320  43.373  13.431  12.452
 9896W        W82321   5.682  18.175  12.950
 9897W        W82322  33.092   6.649  12.906
 9898W        W82323  11.164  21.968   2.396
 9899W        W82324  25.757  29.407   3.511
 9900W        W82325  10.807  29.243  14.574
 9901W        W82326  20.877  38.933  10.944
 9902W        W82327  18.032  19.447   2.404
 9903W        W82328  21.215  18.679   2.379
 9904W        W82329  16.610  42.741   2.309
 9905W        W82330  44.053  34.484  13.178
 9906W        W82331   8.370  36.950   2.386
 9907W        W82332  30.737   8.863   2.505
 9908W        W82333  27.666  16.324   2.214
 9909W        W82334  21.733  29.219  12.069
 9910W        W82335   3.799  21.146  14.552
 9911W        W82336  43.912   3.885  12.136
 9912W        W82337  44.630  27.296   4.117
 9913W        W82338   6.389  39.303  11.152
 9914W        W82339  44.981  34.973   2.351
 9915W        W82340   8.662  42.117  10.677
 9916W        W82341  37.852   9.270   1.161
 9917W        W82342  43.940  44.332   4.633
 9918W        W82343  42.299  37.239  13.381
 9919W        W82344  17.208  33.490   0.988
 9920W        W82345  23.561   0.354  12.522
 9921W        W82346   7.689  16.074   0.633
 9922W        W82347  27.045  37.545   4.852
 9923W        W82348  16.807  38.028   3.389
 9924W        W82349  35.496  15.813   0.844
 9925W        W82350  41.247  35.628  14.269
 9926W        W82351  29.995   3.133   2.510
 9927W        W82352  33.636  24.590  11.145
 9928W        W82353  16.197   3.768   1.308
 9929W        W82354  44.547   0.533  11.533
 9930W        W82355  31.278  11.510  14.728
 9931W        W82356   5.945  11.269   4.685
 9932W        W82357  28.688  36.167  12.933
 9933W        W82358  38.367  12.182  13.648
 9934W        W82359  19.829  24.265   1.416
 9935W        W82360  27.881  15.614  10.491
 9936W        W82361  11.635  44.207   4.214
 9937W        W82362  23.175  11.257   2.358
 9938W        W82363  25.732  27.511   4.631
 9939W        W82364  19.615  29.876   5.126
 9940W        W82365  23.920  40.012   0.475
 9941W        W82366  42.934  14.665   1.830
 9942W        W82367  35.483   8.566  12.790
 9943W        W82368  29.313  31.221   0.517
 9944W        W82369  34.041  28.948   3.730
 9945W        W82370  34.043  25.445  11.235
 9946W        W82371  15.730  17.043  12.165
 9947W        W82372  10.124  13.784   3.238
 9948W        W82373  21.301  20.049   3.605
 9949W        W82374   1.674  24.510  13.280
 9950W        W82375  44.156  43.992   9.960
 9951W        W82376  20.747   0.761  13.860
 9952W        W82377   3.563  38.648   2.463
 9953W        W82378  18.076  43.474   3.365
 9954W        W82379  33.981  10.289  14.783
 9955W        W82380  30.430   4.423  14.999
 9956W        W82381   0.008  33.980   4.253
 9957W        W82382  14.329  16.622   1.471
 9958W        W82383  30.960  18.936  14.119
 9959W        W82384  18.567  38.073   0.516
 9960W        W82385  37.340  26.167  14.924
 9961W        W82386  29.149   6.368   3.287
 9962W        W82387  39.994  21.551   4.873
 9963W        W82388  18.303   8.838   4.890
 9964W        W82389   8.631  32.236  11.143
 9965W        W82390  34.019  21.565   0.244
 9966W        W82391  23.464  14.827   0.200
 9967W        W82392  31.773  27.619   0.271
 9968W        W82393  31.074  30.538  11.170
 9969W        W82394  15.670   8.227   1.966
 9970W        W82395  26.201  42.517   4.276
 9971W        W82396  15.780  25.253   2.464
 9972W        W82397  41.958  35.078  12.920
 9973W        W82398   4.882  24.007   1.237
 9974W        W82399  42.235   5.025   3.773
 9975W        W82400  39.805  13.806   2.724
 9976W        W82401  21.760  36.114   3.144
 9977W        W82402  34.297  32.156   2.952
 9978W        W82403  15.219  15.660  12.534
 9979W        W82404  41.549  31.452   3.792
 9980W        W82405   7.573  42.347   3.859
 9981W        W82406   1.806   0.903   3.927
 9982W        W82407  40.085  13.080   0.086
 9983W        W82408  14.810  25.461  13.823
 9984W        W82409  20.301  23.146  12.117
 9985W        W82410  41.648  27.696   2.207
 9986W        W82411   9.066  35.078  13.837
 9987W        W82412   4.433  17.051  14.759
 9988W        W82413  41.811  11.648   4.649
 9989W        W82414  29.043  26.948   4.165
 9990W        W82415  22.600  41.106  10.729
 9991W        W82416  33.566   9.735   2.952
 9992W        W82417   9.768  32.128   1.959
 9993W        W82418  28.988  42.281  11.159
 9994W        W82419  25.092  37.811   0.460
 9995W        W82420   5.341  30.699  12.904
 9996W        W82421  20.214   1.892  11.550
 9997W        W82422  33.585  31.788  10.755
 9998W        W82423   4.685  15.034   4.224
 9999W        W82424  22.968  15.597   2.312
10000W        W82425  35.265  19.815  13.031
10001W        W82426  32.139  20.041   2.362
10002W        W82427  32.864  21.518   1.879
10003W        W82428  12.518  26.598   3.630
10004W        W82429  41.543  39.834  10.509
10005W        W82430  25.153  44.896   1.308
10006W        W82431   0.839  29.526   9.974
10007W        W82432  16.752  19.917  13.273
10008W        W82433   5.657   5.704  13.117
10009W        W82434   6.223  33.903  11.494
10010W        W82435   4.779  37.183   4.700
10011W        W82436  13.837  37.401   2.587
10012W        W82437   8.141  39.943   1.044
10013W        W82438  26.554   5.490   4.431
10014W        W82439  36.720  16.314  13.054
10015W        W82440  28.071  20.067  13.350
10016W        W82441  14.820  27.891   2.970
10017W        W82442   6.292   2.950   1.068
10018W        W82443  28.767   8.403  12.667
10019W        W82444  34.419  35.229   0.661
10020W        W82445  18.781   0.892  11.602
10021W        W82446  24.160   9.793   5.161
10022W        W82447   9.663  21.590  13.114
10023W        W82448  16.070  22.190  10.832
10024W        W82449  22.202   1.717   0.381
10025W        W82450  11.039   6.247   2.928
10026W        W82451  35.074  35.841  13.546
10027W        W82452  38.493  18.245   1.657
10028W        W82453  38.598  29.203   2.244
10029W        W82454  21.694  37.304   2.834
10030W        W82455  43.482  23.203   3.070
10031W        W82456  30.830   3.023   0.794
10032W        W82457  43.463  11.686  12.094
10033W        W82458   3.358  23.042  13.337
10034W        W82459  14.648   9.361  12.969
10035W        W82460  33.035  25.009   0.842
10036W        W82461  32.417  37.335   0.178
10037W        W82462  16.651  11.065   2.225
10038W        W82463  42.413  19.529   2.425
10039W        W82464  10.642  42.476  11.516
10040W        W82465   5.157   0.184   0.846
10041W        W82466  36.452  25.151   2.817
10042W        W82467   6.408  39.616  13.008
10043W        W82468  44.163  42.337  11.781
10044W        W82469  44.233  37.835   1.587
10045W        W82470   0.667  11.815   4.573
10046W        W82471  31.186  39.049   1.932
10047W        W82472  40.891  10.327  14.103
10048W        W82473  35.834  11.051  13.006
10049W        W82474  28.121  26.575   2.117
10050W        W82475  26.754  15.231   4.572
10051W        W82476  40.160  13.685  13.063
10052W        W82477  29.880  41.521   4.678
10053W        W82478   9.854  31.969   0.924
10054W        W82479   6.232  19.225   4.328
10055W        W82480  20.643  15.176  13.832
10056W        W82481   6.104  27.674  11.465
10057W        W82482   9.340  28.245   2.918
10058W        W82483  16.786   1.449  10.620
10059W        W82484  10.380  44.407  10.367
10060W        W82485   6.748  14.796   2.727
10061W        W82486  41.583  22.193   3.063
10062W        W82487  40.977  16.020   0.764
10063W        W82488  12.021  24.375   4.161
10064W        W82489   7.916  15.554  11.567
10065W        W82490  10.598   6.448  13.863
10066W        W82491  31.055   9.879  12.493
10067W        W82492   0.854  24.184  12.952
10068W        W82493  28.964   4.096   3.185
10069W        W82494  19.590  32.891  14.398
10070W        W82495  10.090  30.723   0.095
10071W        W82496  36.323   5.501  10.391
10072W        W82497  44.416  21.386   4.589
10073W        W82498   6.136   9.851   1.081
10074W        W82499  27.991  18.276  11.550
10075W        W82500  23.680  36.600   0.272
10076W        W82501  21.214  40.500  13.296
10077W        W82502  33.192   5.946  11.160
10078W        W82503  12.243  23.629  13.460
10079W        W82504  33.619  19.292  14.371
10080W        W82505  33.082  38.301  13.491
10081W        W82506  22.713  27.886   2.346
10082W        W82507   4.910  19.937   2.298
10083W        W82508  22.758  32.589  14.408
10084W        W82509   9.045  23.973   0.881
10085W        W82510  39.080  34.192  13.937
10086W        W82511   4.388  12.426  11.686
10087W        W82512  25.085  37.743  12.987
10088W        W82513  36.392  36.296   2.352
10089W        W82514  19.793  29.008   0.499
10090W        W82515  44.878  32.500   4.438
10091W        W82516  13.471   3.613  12.503
10092W        W82517   0.407  15.355   4.140
10093W        W82518  38.308  32.440   0.669
10094W        W82519  33.462  22.154  14.442
10095W        W82520  29.616  39.401   1.555
10096W        W82521  36.110   7.342   1.988
10097W        W82522   7.818  37.137  14.274
10098W        W82523  16.739  18.133   0.862
10099W        W82524  38.231  25.411  13.347
10100W        W82525  33.193  20.507   3.694
10101W        W82526  34.440  14.367  11.243
10102W        W82527  16.294  22.624  10.635
10103W        W82528   1.851  29.868  12.047
10104W        W82529  24.668  21.032   2.709
10105W        W82530  20.918  17.754  11.035
10106W        W82531  11.784  24.004   4.422
10107W        W82532  10.267   6.827  12.935
10108W        W82533   2.296  22.705   1.629
10109W        W82534  10.558  30.814   4.129
10110W        W82535   4.791  29.788   1.895
10111W        W82536  23.763  29.917  12.958
10112W        W82537  29.898  43.295  14.517
10113W        W82538  15.560  22.551  10.333
10114W        W82539  18.668  13.142   0.269
10115W        W82540  13.751  35.949  14.418
10116W        W82541  24.500  31.239  14.700
10117W        W82542  30.997  16.575  11.880
10118W        W82543  13.769  35.626  12.904
10119W        W82544  36.404  27.098   4.183
10120W        W82545   8.636  34.230  12.595
10121W        W82546  18.569   6.894  10.671
10122W        W82547  34.987   9.487  14.124
10123W        W82548  18.652   8.729   2.743
10124W        W82549  20.966  22.023  12.811
10125W        W82550  10.927  25.562   1.754
10126W        W82551  13.313  27.630  12.407
10127W        W82552  15.191   6.097   1.785
10128W        W82553  41.804  42.753   4.075
10129W        W82554  34.056  31.593  10.856
10130W        W82555   6.886   4.276   0.739
10131W        W82556  39.560  41.930  10.630
10132W        W82557   4.477   5.303   4.641
10133W        W82558  40.529   7.226  14.472
10134W        W82559   6.048  21.434   1.157
10135W        W82560  38.144  10.826   0.341
10136W        W82561  39.570   6.667   0.115
10137W        W82562  21.456  22.059  13.003
10138W        W82563   7.677   7.089   3.284
10139W        W82564  25.276  21.465   4.224
10140W        W82565  36.534  18.154  11.881
10141W        W82566  43.745   3.704  12.584
10142W        W82567  32.707  22.221   3.292
10143W        W82568  18.031  16.165   0.104
10144W        W82569   7.941  14.321  14.280
10145W        W82570  34.604   4.210  12.255
10146W        W82571  40.563  18.363  14.909
10147W        W82572  16.101  32.579  12.735
10148W        W82573  36.805  12.573   3.375
10149W        W82574  17.193  21.767  14.059
10150W        W82575  33.893  42.881  11.100
10151W        W82576  28.656  19.119  13.953
10152W        W82577  32.257  18.361   3.485
10153W        W82578  26.129  43.862  10.454
10154W        W82579  32.955  42.908  14.940
10155W        W82580   9.934   5.453   2.930
10156W        W82581  39.067  31.941   3.922
10157W        W82582  38.064   4.707  12.172
10158W        W82583  34.612  20.630   2.788
10159W        W82584  20.002   5.872   0.659
10160W        W82585  36.169   8.426   4.264
10161W        W82586  29.246   5.930  12.091
10162W        W82587  28.456  25.762  10.569
10163W        W82588   6.167  32.636   4.553
10164W        W82589  36.786  25.669  10.798
10165W        W82590  17.855  14.949  13.835
10166W        W82591  16.299  18.797  12.821
10167W        W82592  12.363  37.839  11.958
10168W        W82593   7.474  43.618   4.077
10169W        W82594  10.361  43.779  14.851
10170W        W82595   7.456   4.689   1.771
10171W        W82596  24.109  11.162  14.998
10172W        W82597   9.270  15.490   1.026
10173W        W82598  42.440  25.190   1.255
10174W        W82599  20.341  15.065   3.203
10175W        W82600  40.092  31.916  14.950
10176W        W82601  38.077   2.189  14.790
10177W        W82602  44.851  38.028  14.788
10178W        W82603  30.185  19.530  11.998
10179W        W82604  39.458  25.486   4.181
10180W        W82605  33.411  22.602   3.699
10181W        W82606  31.671  12.524  13.686
10182W        W82607  23.964  43.895   4.508
10183W        W82608  10.285  23.172  13.518
10184W        W82609  17.050  12.372  12.937
10185W        W82610  12.864  41.104   4.532
10186W        W82611  19.936  16.718  12.870
10187W        W82612   4.450  10.040  10.515
10188W        W82613  26.889  26.407   1.728
10189W        W82614   4.901  15.745  13.760
10190W        W82615  28.951  29.539   1.739
10191W        W82616  43.933   3.261  14.820
10192W        W82617  28.946   7.333   0.113
10193W        W82618   7.744   6.150  10.844
10194W        W82619  20.788  24.331  13.514
10195W        W82620  32.229  35.038   0.349
10196W        W82621  26.384  32.430   3.793
10197W        W82622  32.679  36.379  14.710
10198W        W82623   9.230  31.631  13.488
10199W        W82624  20.017   6.438   3.675
10200W        W82625   7.400  13.853   3.210
10201W        W82626   1.229  40.549   2.819
10202W        W82627  10.636  26.576  14.634
10203W        W82628   0.413   9.301  11.388
10204W        W82629  27.062  35.541   0.743
10205W        W82630  32.011  31.418   0.264
10206W        W82631  11.618  15.343  11.180
10207W        W82632   7.911   9.213   3.211
10208W        W82633   3.835  17.535   0.409
10209W        W82634   4.196   4.402  11.047
10210W        W82635   1.506  19.595  13.626
10211W        W82636  28.664  27.571  12.019
10212W        W82637   8.343  39.712  11.108
10213W        W82638   1.420   4.834  11.588
10214W        W82639  33.660  14.764  14.410
10215W        W82640   0.886  43.996  11.161
10216W        W82641  15.788  32.146  12.939
10217W        W82642   8.357  22.558   0.289
10218W        W82643  18.861  19.876   0.132
10219W        W82644  14.417  17.380   2.241
10220W        W82645   7.400  15.091   2.226
10221W        W82646  11.959  30.163  13.997
10222W        W82647  27.414   6.053  11.153
10223W        W82648  42.512  34.803   4.140
10224W        W82649  20.007  22.424  10.423
10225W        W82650  40.323  21.752  12.987
10226W        W82651  41.846  14.029   5.036
10227W        W82652   7.855   2.924   4.521
10228W        W82653   1.308  34.659  11.440
10229W        W82654  41.370  28.103   0.424
10230W        W82655  10.693  11.195   2.167
10231W        W82656   6.785  43.425  12.556
10232W        W82657  32.075  39.050   0.983
10233W        W82658   6.971  27.833  11.143
10234W        W82659  18.041  27.764   4.090
10235W        W82660  23.589   6.800  11.625
10236W        W82661  23.098  30.050  13.782
10237W        W82662  15.054  11.855  11.106
10238W        W82663  42.766   1.726  12.024
10239W        W82664  10.113  44.900   4.584
10240W        W82665  21.250   2.877  10.487
10241W        W82666  34.445  36.467  11.214
10242W        W82667   8.375  40.485   0.497
10243W        W82668  35.834  20.594   1.421
10244W        W82669  16.186  41.291   3.377
10245W        W82670   4.750   0.490   0.715
10246W        W82671  33.109  25.974   3.722
10247W        W82672  10.576  22.204   3.216
10248W        W82673  12.544   9.062  10.993
10249W        W82674   8.287  13.284  14.734
10250W        W82675  12.381  24.253   2.243
10251W        W82676  21.257  23.711   1.716
10252W        W82677   2.245  38.960   2.763
10253W        W82678  15.535   0.489   3.751
10254W        W82679  42.444  15.898   4.793
10255W        W82680  24.979  15.523  12.108
10256W        W82681   8.842  32.601   4.183
10257W        W82682  16.507  37.973   1.535
10258W        W82683  41.749  19.770   5.043
10259W        W82684  21.519  26.622   0.994
10260W        W82685   5.616  38.901   1.160
10261W        W82686  23.566  26.578  13.372
10262W        W82687  32.149  16.447   2.825
10263W        W82688   0.560  25.510  12.996
10264W        W82689  39.534  38.842   2.315
10265W        W82690   6.331   1.944  10.665
10266W        W82691  30.853  19.866   2.940
10267W        W82692  11.105   4.768  10.502
10268W        W82693  35.591  38.360  12.926
10269W        W82694   0.256  10.891  14.331
10270W        W82695  33.985   8.892   1.481
10271W        W82696  42.568  14.654  13.911
10272W        W82697   2.908  44.819  11.591
10273W        W82698  25.122  40.194  14.790
10274W        W82699  18.513   3.984  12.017
10275W        W82700  15.880  25.080  14.859
10276W        W82701  31.084  35.422   2.150
10277W        W82702  33.183  38.072   2.403
10278W        W82703  34.553  31.592   0.895
10279W        W82704  33.663   8.841   2.335
10280W        W82705  29.585  10.677  14.831
10281W        W82706   5.773   3.855  10.681
10282W        W82707  21.087  23.327  14.009
10283W        W82708  13.588  32.595  11.520
10284W        W82709  14.303  23.433   1.747
10285W        W82710   9.813  43.527  12.134
10286W        W82711  13.137  22.529  13.377
10287W        W82712   6.389  16.750   4.650
10288W        W82713  31.581  38.939  14.449
10289W        W82714  34.672  27.183   1.255
10290W        W82715   3.576   7.878  10.517
10291W        W82716  26.421  43.039  13.349
10292W        W82717  17.372  41.604   3.565
10293W        W82718  41.349  36.480   1.204
10294W        W82719   2.346  28.765   1.671
10295W        W82720  24.971  29.879   0.889
10296W        W82721   3.439   9.273   2.711
10297W        W82722  12.222  27.192  12.471
10298W        W82723   3.644  36.865   0.839
10299W        W82724  42.330   2.786   2.473
10300W        W82725  22.265  36.998   1.874
10301W        W82726  31.491  31.612  13.987
10302W        W82727  20.008  41.068  12.915
10303W        W82728  11.094  20.260  13.932
10304W        W82729  25.169  15.985  12.112
10305W        W82730  36.090  37.308  12.878
10306W        W82731   7.766   9.660  11.536
10307W        W82732   1.923  41.360   4.721
10308W        W82733   6.704  34.749   5.039
10309W        W82734  17.092  33.160  11.941
10310W        W82735  41.317   2.545   4.115
10311W        W82736  34.368  20.026   4.136
10312W        W82737   9.753  29.736   1.934
10313W        W82738  27.130  39.433   0.794
10314W        W82739   9.138   1.885   1.220
10315W        W82740   6.122  12.379   5.060
10316W        W82741  33.871  10.245  10.778
10317W        W82742  19.723  24.761   3.287
10318W        W82743  41.572  28.625   4.206
10319W        W82744  12.304  18.968  12.410
10320W        W82745  43.348  34.304   4.954
10321W        W82746   2.408   2.474   3.622
10322W        W82747  33.177  30.639  11.888
10323W        W82748  41.494  20.115  14.232
10324W        W82749  22.085  38.170   4.610
10325W        W82750   6.757  26.001  12.566
10326W        W82751  39.582  19.740   4.629
10327W        W82752  32.900   3.205  11.893
10328W        W82753  11.916  28.366   4.782
10329W        W82754  36.348  31.926   0.293
10330W        W82755  36.679  36.848   4.649
10331W        W82756  16.181  33.513   3.873
10332W        W82757  20.768   0.482   3.602
10333W        W82758   5.942   3.629   3.769
10334W        W82759   8.297  22.728   4.518
10335W        W82760  39.377  28.866   3.943
10336W        W82761   8.777  30.512  13.735
10337W        W82762  36.025  23.343   4.555
10338W        W82763  33.597  28.400   0.993
10339W        W82764  19.617   6.434   4.057
10340W        W82765  23.103  37.032   0.961
10341W        W82766   7.125   3.316  12.132
10342W        W82767  17.644  41.561  11.726
10343W        W82768   9.398   0.236  11.057
10344W        W82769  14.551  31.645   3.616
10345W        W82770  36.857  19.147  11.209
10346W        W82771  31.085  41.055   4.910
10347W        W82772  39.439  16.692  11.707
10348W        W82773  34.063   4.494  12.485
10349W        W82774   7.283  32.369  12.483
10350W        W82775  11.850  26.106  14.290
10351W        W82776  34.901  39.771   1.418
10352W        W82777   7.306  22.949  11.281
10353W        W82778   3.902  16.506   1.751
10354W        W82779   4.898  16.428   0.872
10355W        W82780  13.200  42.644  13.272
10356W        W82781  29.079  41.323  14.937
10357W        W82782  37.446  14.387   0.240
10358W        W82783  17.732  20.993  14.143
10359W        W82784  17.170   8.172   2.785
10360W        W82785  20.523  20.972   4.226
10361W        W82786  43.565  37.515   0.820
10362W        W82787  13.623  36.965  14.275
10363W        W82788  44.250  27.392   0.539
10364W        W82789  37.325  42.440  12.170
10365W        W82790  14.260  33.334  10.443
10366W        W82791  13.432  16.783   2.738
10367W        W82792  41.546  27.512  14.855
10368W        W82793  18.556  14.887   2.441
10369W        W82794  23.139   4.456   2.801
10370W        W82795  41.613  13.626   2.278
10371W        W82796  22.840  42.729   9.978
10372W        W82797  26.206  28.845  12.425
10373W        W82798  42.462  44.838   4.965
10374W        W82799  20.994  15.217  11.975
10375W        W82800  21.486  27.842   1.180
10376W        W82801   5.653  26.462   4.269
10377W        W82802  13.112  22.070   1.755
10378W        W82803  16.388  34.020  13.320
10379W        W82804  29.071  34.110   2.686
10380W        W82805  34.376  23.096   1.425
10381W        W82806  25.928  27.073  11.599
10382W        W82807  18.794   9.763  11.849
10383W        W82808  12.113  27.993  14.051
10384W        W82809  27.590   6.120  13.060
10385W        W82810  16.582  43.783   0.249
10386W        W82811  36.658  25.062   4.152
10387W        W82812   4.953   4.636   3.775
10388W        W82813  33.596  20.584   0.899
10389W        W82814  41.006  42.809   4.641
10390W        W82815  35.395   9.232   0.242
10391W        W82816  16.143   0.731   3.668
10392W        W82817  29.249  30.534   4.279
10393W        W82818   2.490  13.173   4.295
10394W        W82819   1.831  15.285  13.437
10395W        W82820   0.967  18.623  14.465
10396W        W82821  24.587   0.212   0.491
10397W        W82822   1.257  39.523  13.347
10398W        W82823  24.199  31.628   0.491
10399W        W82824  10.561  39.176   1.355
10400W        W82825  16.817  18.545   3.200
10401W        W82826   3.021  38.362  10.622
10402W        W82827  17.740  14.348  13.058
10403W        W82828  10.241   9.187  13.917
10404W        W82829  42.401  21.788   4.297
10405W        W82830  10.255   6.958   2.896
10406W        W82831  11.742  12.121  13.875
10407W        W82832  21.112  36.078   1.409
10408W        W82833  24.404  21.150  14.443
10409W        W82834  16.265  22.886  13.911
10410W        W82835   1.518  36.814  12.366
10411W        W82836   0.228  19.161   4.706
10412W        W82837   3.696  19.661   4.554
10413W        W82838  38.407  34.615   4.554
10414W        W82839  39.371  43.588   3.134
10415W        W82840  13.591  32.492   3.359
10416W        W82841   5.979  34.983   2.631
10417W        W82842  20.076  42.955  11.445
10418W        W82843  33.499   1.215  11.242
10419W        W82844  29.971  32.733   4.649
10420W        W82845  11.923   5.005   3.179
10421W        W82846  36.643   0.569   4.175
10422W        W82847  18.344  21.806  13.433
10423W        W82848   0.050  22.380  14.106
10424W        W82849   0.006  41.392  14.583
10425W        W82850  23.994  10.152   4.826
10426W        W82851  11.878  20.787  11.023
10427W        W82852  34.994   1.023   0.305
10428W        W82853  33.451  28.040  13.707
10429W        W82854  15.649  21.150  10.067
10430W        W82855  39.083  36.042   5.064
10431W        W82856  25.948  19.568   0.129
10432W        W82857  34.772  25.347   0.671
10433W        W82858  23.103   9.093   0.267
10434W        W82859  12.061  32.184   3.699
10435W        W82860  18.318  24.053   0.311
10436W        W82861  22.273   8.847  11.516
10437W        W82862  21.586  23.478   4.497
10438W        W82863  39.080  40.869   1.245
10439W        W82864  40.636   4.183   0.325
10440W        W82865  13.386  11.894  14.934
10441W        W82866  35.263  29.648   3.928
10442W        W82867   0.288  41.830  14.503
10443W        W82868  22.959   8.428  12.130
10444W        W82869  25.961  33.049   0.785
10445W        W82870  38.635  37.616   4.996
10446W        W82871  31.379  14.132   0.686
10447W        W82872  42.282   4.119  11.166
10448W        W82873  30.596  32.127   1.606
10449W        W82874   2.762  25.885  14.316
10450W        W82875  17.380  29.125   0.776
10451W        W82876   1.137  30.521  14.861
10452W        W82877  15.160  13.320  13.470
10453W        W82878   3.471   5.451   1.262
10454W        W82879  23.424  24.034  13.852
10455W        W82880  23.967  30.559  10.653
10456W        W82881  44.425   5.491  14.876
10457W        W82882   9.890  23.226  11.140
10458W        W82883  17.534  22.626  11.016
10459W        W82884  42.352  38.871  12.403
10460W        W82885  22.069   4.431  11.430
10461W        W82886   2.735  28.987   3.228
10462W        W82887  40.078   5.233  13.402
10463W        W82888  17.527  43.089  10.646
10464W        W82889   5.885   6.697   0.640
10465W        W82890  25.421  24.696   2.757
10466W        W82891  43.558  35.845   1.351
10467W        W82892  18.050  34.881   1.828
10468W        W82893   7.357   7.182   2.864
10469W        W82894  44.805  14.578   2.815
10470W        W82895  42.705  44.397  11.142
10471W        W82896   7.786  15.075  13.345
10472W        W82897   1.947  44.837  13.961
10473W        W82898   2.073   8.065   0.921
10474W        W82899  22.553   9.367   3.617
10475W        W82900  12.704  44.970   3.654
10476W        W82901  31.104   0.894  11.159
10477W        W82902  26.276  37.879   0.438
10478W        W82903  17.776  43.906   0.758
10479W        W82904  28.594   0.756   1.385
10480W        W82905  25.397  10.152  13.426
10481W        W82906   4.206  39.886  13.387
10482W        W82907  38.923  26.891   2.607
10483W        W82908   8.180  42.879  11.676
10484W        W82909  17.036  14.258  11.480
10485W        W82910   6.830  24.239   1.833
10486W        W82911  39.334  28.596  12.286
10487W        W82912  20.629  17.551  13.426
10488W        W82913  32.542  42.421  12.357
10489W        W82914  18.787  30.953   0.722
10490W        W82915  18.962  41.446   0.787
10491W        W82916   9.102  19.595  11.102
10492W        W82917  42.442  39.528   1.364
10493W        W82918  12.091  40.550   4.011
10494W        W82919  28.635   8.211  13.154
10495W        W82920  38.243   3.080  11.421
10496W        W82921  17.768  29.203   1.647
10497W        W82922   7.684  27.862  12.968
10498W        W82923  22.051  18.737  11.192
10499W        W82924  30.029  12.895   0.775
10500W        W82925  38.308   6.334  10.629
10501W        W82926   1.721  27.754  12.684
10502W        W82927  19.846  35.442   2.915
10503W        W82928  19.588   4.894   1.409
10504W        W82929  23.300  12.560  13.033
10505W        W82930   5.397   5.931   0.431
10506W        W82931   3.770   6.190  12.410
10507W        W82932   7.951  44.005   2.355
10508W        W82933  25.673  15.529   3.009
10509W        W82934   0.905  23.897  12.520
10510W        W82935  27.640  39.428   1.926
10511W        W82936  18.378  31.699  10.658
10512W        W82937  35.879  30.062  13.994
10513W        W82938  37.289  36.391  14.051
10514W        W82939  28.780  37.529   5.029
10515W        W82940  23.970  29.577   1.864
10516W        W82941  33.352   3.399  12.060
10517W        W82942   1.553  28.211  11.576
10518W        W82943  10.710   8.455   1.911
10519W        W82944  35.567  30.086   4.816
10520W        W82945  14.704  16.030   0.901
10521W        W82946  29.170   2.197  14.789
10522W        W82947  35.620  19.579   4.342
10523W        W82948  13.735  15.401   0.367
10524W        W82949   6.808  35.931   0.508
10525W        W82950   3.812  16.689   4.244
10526W        W82951  35.721  29.142  10.412
10527W        W82952  26.104  17.557  11.203
10528W        W82953   3.799  36.824   2.867
10529W        W82954  23.438   1.721   3.352
10530W        W82955  41.541  12.219   2.894
10531W        W82956  11.456  19.577  13.379
10532W        W82957  24.431  14.227   1.515
10533W        W82958  33.151  16.181   4.743
10534W        W82959   5.325  23.786  12.338
10535W        W82960  18.417  11.170  12.764
10536W        W82961  11.230  27.700   2.407
10537W        W82962  18.017  36.979   1.319
10538W        W82963  33.327  16.825  14.435
10539W        W82964  41.913  37.171   2.624
10540W        W82965  12.641   9.951   2.351
10541W        W82966  27.318  19.796  11.669
10542W        W82967  40.972   4.541   2.025
10543W        W82968   0.519  41.258   0.888
10544W        W82969  42.692  10.608   2.976
10545W        W82970   0.308  40.535  11.482
10546W        W82971  21.163   8.805   1.393
10547W        W82972  22.778  19.756  10.361
10548W        W82973  30.938  20.223   4.767
10549W        W82974  37.574  43.699  13.858
10550W        W82975  29.010  25.074   3.814
10551W        W82976  37.859  34.164  13.339
10552W        W82977  27.356   4.743   0.380
10553W        W82978  30.879  14.524   3.322
10554W        W82979  26.230  17.038  12.451
10555W        W82980  21.594  14.664  12.173
10556W        W82981  11.285  18.002  11.218
10557W        W82982   7.880  41.406  14.730
10558W        W82983   0.373  13.686   2.139
10559W        W82984   4.488   6.973   0.403
10560W        W82985   9.601  11.357  10.802
10561W        W82986  16.406  43.904  13.489
10562W        W82987  16.338  32.670  13.180
10563W        W82988  10.311  21.657   3.693
10564W        W82989  14.566  22.263  13.903
10565W        W82990  22.565  34.093   3.164
10566W        W82991  23.639  22.281  13.228
10567W        W82992   6.827  27.165  10.718
10568W        W82993  37.397  34.475   1.304
10569W        W82994  43.586  13.317   1.795
10570W        W82995  22.527  28.129   1.187
10571W        W82996  18.277   2.156  10.871
10572W        W82997  37.275  44.024  13.568
10573W        W82998   7.224  40.430  13.330
10574W        W82999  40.592   5.223  13.436
10575W        W83000  19.023  29.880   5.681
10576W        W83001  38.619  20.237   1.883
10577W        W83002  30.978  14.282  12.562
10578W        W83003  33.054  25.472  14.698
10579W        W83004  24.127  22.911   3.847
10580W        W83005  39.696  37.398   2.844
10581W        W83006   9.331  40.366  12.024
10582W        W83007  19.781   3.891  14.292
10583W        W83008  24.084  25.642   2.457
10584W        W83009  37.662  40.828   0.673
10585W        W83010  31.091  13.043  13.080
10586W        W83011  20.151  14.353  11.964
10587W        W83012  30.251  25.433  11.450
10588W        W83013  37.532  40.790  14.875
10589W        W83014  30.734  16.619  13.563
10590W        W83015   9.855  38.513   1.984
10591W        W83016  32.655  11.884   0.832
10592W        W83017  16.689  11.780   4.399
10593W        W83018  22.657   0.807  14.693
10594W        W83019   8.817  24.184   4.035
10595W        W83020  19.561  12.151   2.272
10596W        W83021  37.510  25.470  11.569
10597W        W83022  44.390  34.159  10.844
10598W        W83023  19.776  42.997  12.755
10599W        W83024  38.082   3.768  12.700
10600W        W83025  13.213   7.790  12.002
10601W        W83026   7.990  39.238  12.827
10602W        W83027  42.917  10.996  14.030
10603W        W83028  22.120   8.262   4.787
10604W        W83029  18.082  27.136   0.322
10605W        W83030  12.776   2.468  11.505
10606W        W83031  12.838   7.155  13.136
10607W        W83032  22.791  40.539   3.951
10608W        W83033   8.607   5.890  14.531
10609W        W83034  31.547  10.352  10.683
10610W        W83035  31.815   4.019   4.188
10611W        W83036  13.240  10.862   1.260
10612W        W83037  21.538  44.406  11.628
10613W        W83038   6.938   9.307  12.458
10614W        W83039  43.802  38.562  14.510
10615W        W83040  22.581   0.452  10.010
10616W        W83041  21.282   6.674   1.543
10617W        W83042  27.818  40.908  14.404
10618W        W83043   2.502   6.852  13.389
10619W        W83044  15.603  15.338  13.803
10620W        W83045  28.911  17.530   0.823
10621W        W83046   9.774  32.821   0.449
10622W        W83047  26.638  43.641   3.598
10623W        W83048  30.201  42.814   1.090
10624W        W83049  19.198   0.790  14.436
10625W        W83050   9.902   9.373  14.301
10626W        W83051  34.532  22.996   3.735
10627W        W83052  24.515  33.069   2.889
10628W        W83053  27.639  30.641  12.467
10629W        W83054  12.853  18.787  14.484
10630W        W83055  35.061   1.756  13.767
10631W        W83056   0.666   0.581  13.596
10632W        W83057   9.154  14.759  11.482
10633W        W83058  33.313  23.622   4.570
10634W        W83059  28.126   0.853   0.246
10635W        W83060  11.545  12.813  12.237
10636W        W83061  14.836  33.474  14.355
10637W        W83062  25.239  40.411   4.662
10638W        W83063   6.431  21.726   1.877
10639W        W83064  32.442  12.613  11.617
10640W        W83065  31.587   5.874   4.626
10641W        W83066  16.351   0.450   1.779
10642W        W83067  12.159  29.451  12.556
10643W        W83068  12.588  22.053  10.558
10644W        W83069  27.882  23.159   1.796
10645W        W83070  17.407   4.239   0.378
10646W        W83071  42.041  29.069   0.468
10647W        W83072  16.966  44.509   4.443
10648W        W83073  11.079  22.178   3.261
10649W        W83074  34.440   6.988  14.924
10650W        W83075  22.609  32.627   2.844
10651W        W83076  22.534  17.510   1.968
10652W        W83077  32.203  43.940  10.759
10653W        W83078  17.029  27.663   1.184
10654W        W83079  18.907  35.975  10.290
10655W        W83080   7.087   2.463   2.444
10656W        W83081  16.052   3.980   0.250
10657W        W83082   8.860  33.627  11.063
10658W        W83083  32.176   0.272  14.988
10659W        W83084  22.091  25.945  14.775
10660W        W83085  30.093  13.201   3.624
10661W        W83086   1.883  15.168  12.513
10662W        W83087  31.358  12.608   0.062
10663W        W83088   4.024   1.721  13.917
10664W        W83089  34.755   2.264  10.570
10665W        W83090  25.243   5.560   1.196
10666W        W83091  21.541  41.363   4.379
10667W        W83092  19.013  18.608   0.779
10668W        W83093  25.520  24.784   3.774
10669W        W83094  36.618  28.668   3.681
10670W        W83095   3.331  18.250  14.671
10671W        W83096  38.647  30.042   0.854
10672W        W83097   8.893   6.819   0.302
10673W        W83098  10.820   9.053   4.134
10674W        W83099  21.564  27.980   2.878
10675W        W83100   1.920  31.517  11.037
10676W        W83101  38.053  41.572  13.917
10677W        W83102  18.304  34.667  12.231
10678W        W83103  17.546  10.740  10.557
10679W        W83104  16.854   3.192   4.088
10680W        W83105  17.462  38.845   2.356
10681W        W83106   0.986  25.927  14.447
10682W        W83107  17.092  42.870   0.237
10683W        W83108  35.085  44.779   0.890
10684W        W83109  34.184   8.380   4.214
10685W        W83110   6.668  40.791   1.050
10686W        W83111   0.475  24.954  13.896
10687W        W83112  18.018  32.197  14.508
10688W        W83113  28.048   5.437  10.612
10689W        W83114  10.114   8.679  13.883
10690W        W83115  20.226   7.431  11.087
10691W        W83116   4.219  23.734   2.903
10692W        W83117  22.065   5.892  13.369
10693W        W83118  24.635  25.379  12.685
10694W        W83119  41.301  42.340  14.524
10695W        W83120  26.488  44.721   4.386
10696W        W83121  12.617  15.538   1.677
10697W        W83122  10.810  10.709   0.432
10698W        W83123   5.155  29.424  14.506
10699W        W83124  12.369  26.934  12.010
10700W        W83125  42.850  33.390   1.366
10701W        W83126  41.514  43.795  14.481
10702W        W83127  39.448  35.181  14.657
10703W        W83128  20.273  33.870  12.840
10704W        W83129  12.443  31.115  13.979
10705W        W83130  24.103   2.708  14.724
10706W        W83131   0.771  37.995  11.912
10707W        W83132   9.989  42.906   0.721
10708W        W83133  42.285  33.530  11.572
10709W        W83134  27.496  20.326  12.420
10710W        W83135  41.764  28.112  12.536
10711W        W83136  13.614  33.793  10.929
10712W        W83137  36.036   1.374  10.658
10713W        W83138  25.667  31.849   2.359
10714W        W83139   1.015  43.313   4.557
10715W        W83140  43.500   0.298  10.789
10716W        W83141  22.037  38.431   2.367
10717W        W83142  43.427  13.750   4.813
10718W        W83143   4.389  22.664   2.667
10719W        W83144  38.520  22.615   4.860
10720W        W83145   6.754   5.896  10.919
10721W        W83146  26.449  34.359  12.126
10722W        W83147  15.674  16.726  11.194
10723W        W83148   6.461  25.590  12.439
10724W        W83149  40.330   1.323  14.126
10725W        W83150   2.146  35.023   0.282
10726W        W83151  28.930  22.584  12.929
10727W        W83152  19.672   1.314  11.875
10728W        W83153  42.633  11.812  14.079
10729W        W83154  27.149  13.598   1.954
10730W        W83155   9.636  19.331  12.499
10731W        W83156  20.085  43.941  13.870
10732W        W83157  38.144  14.674   2.558
10733W        W83158  44.954  23.150   1.397
10734W        W83159  40.392  41.499   4.555
10735W        W83160  41.920  15.686  14.557
10736W        W83161  25.151  11.164   5.427
10737W        W83162  35.871  44.876   1.309
10738W        W83163  32.146  36.038  13.170
10739W        W83164  14.370   8.764  10.793
10740W        W83165  23.409  38.916  10.533
10741W        W83166   4.313  25.502   2.234
10742W        W83167  40.398  17.518  12.741
10743W        W83168  29.054  16.244   2.239
10744W        W83169  28.141  22.534   4.239
10745W        W83170  17.783  26.247  13.342
10746W        W83171  40.118  31.521  12.997
10747W        W83172  39.793  19.241  12.630
10748W        W83173  22.040  11.424  13.831
10749W        W83174  44.685  25.858   4.903
10750W        W83175  22.711   4.430   4.622
10751W        W83176  40.562  36.160  10.757
10752W        W83177  34.033  15.089   1.429
10753W        W83178  26.775  13.868  14.761
10754W        W83179   3.740  15.921   3.769
10755W        W83180  43.117  16.985  10.920
10756W        W83181  29.172  19.581  11.170
10757W        W83182  17.860   7.369  10.723
10758W        W83183  26.136   3.861   0.916
10759W        W83184  13.356  41.893  12.197
10760W        W83185  43.468  44.091   1.166
10761W        W83186   9.169  28.106  13.403
10762W        W83187   6.475  34.094  12.801
10763W        W83188  10.119  29.719   2.343
10764W        W83189  10.729   6.956  11.183
10765W        W83190  36.088  38.718  11.497
10766W        W83191  18.230  21.467   4.265
10767W        W83192  27.440  31.743   3.277
10768W        W83193  11.131  16.098  11.221
10769W        W83194  25.167  27.881   0.281
10770W        W83195  35.063  20.471   4.566
10771W        W83196  24.212  33.907  13.433
10772W        W83197   5.228  28.881  12.636
10773W        W83198  26.108  20.650  12.328
10774W        W83199   4.662  42.921  14.575
10775W        W83200   4.837  11.336   2.462
10776W        W83201  21.542  29.403   4.634
10777W        W83202  21.487  39.661   2.318
10778W        W83203  27.509   6.861   3.334
10779W        W83204   3.175  42.507  14.476
10780W        W83205  16.751   2.852   3.197
10781W        W83206  20.711  13.847  14.397
10782W        W83207  12.344  20.305  12.839
10783W        W83208   1.970  40.680  13.179
10784W        W83209   3.038   1.372  13.405
10785W        W83210  40.950   1.970  12.850
10786W        W83211  35.756  13.893  13.906
10787W        W83212   3.398  41.315   3.729
10788W        W83213  44.432  15.426   2.709
10789W        W83214  24.207  31.260   0.131
10790W        W83215  11.398  17.741  12.234
10791W        W83216  11.616  34.441   0.973
10792W        W83217  37.415  32.469   0.315
10793W        W83218  20.391  44.867  13.092
10794W        W83219  36.336  22.327  11.894
10795W        W83220  29.619  25.636  14.910
10796W        W83221   2.813  41.805  14.507
10797W        W83222  31.009  18.197   4.573
10798W        W83223  25.138  17.709  11.462
10799W        W83224  40.522  43.005  14.270
10800W        W83225  42.222  14.863   0.620
10801W        W83226  24.210  28.865  14.338
10802W        W83227  15.816  19.478   2.769
10803W        W83228   8.874   0.908   0.012
10804W        W83229   7.226  42.945   1.732
10805W        W83230  32.136  14.252   3.160
10806W        W83231   4.759  35.524   4.641
10807W        W83232  12.455  27.945   1.890
10808W        W83233  39.677   9.990   2.635
10809W        W83234  36.633  17.248  14.370
10810W        W83235   0.820  22.884   4.748
10811W        W83236  42.508  22.795   4.631
10812W        W83237   4.728  37.119  11.122
10813W        W83238   8.579  39.151  12.650
10814W        W83239  21.039  27.276  11.696
10815W        W83240  18.037  12.025   0.178
10816W        W83241  15.816  23.734  11.089
10817W        W83242  10.222  10.467   3.038
10818W        W83243   9.701   0.498   1.629
10819W        W83244   2.673  21.836  11.988
10820W        W83245  18.756  42.664  11.105
10821W        W83246   4.941  25.731  13.996
10822W        W83247  37.523  39.470  14.409
10823W        W83248  13.075   3.119  11.045
10824W        W83249  18.553   7.764  12.490
10825W        W83250  20.482   6.153   0.684
10826W        W83251  33.363  28.008  11.543
10827W        W83252  14.055  39.952   1.843
10828W        W83253   7.331  17.507   4.506
10829W        W83254  16.281  12.110   1.781
10830W        W83255  18.673  24.286  10.814
10831W        W83256   8.558  25.363   3.130
10832W        W83257  44.855  42.807  13.367
10833W        W83258  43.343   7.937   3.162
10834W        W83259  36.991  38.368  12.318
10835W        W83260  14.411  40.395  10.619
10836W        W83261  17.274   7.474   3.115
10837W        W83262  39.413  27.038   2.701
10838W        W83263  22.787   5.332  13.468
10839W        W83264  11.753  37.296  10.965
10840W        W83265  10.096  36.236  10.222
10841W        W83266  34.903  32.846   1.292
10842W        W83267  23.250  11.529  13.444
10843W        W83268  32.025  17.770   0.675
10844W        W83269  13.687  16.011  14.386
10845W        W83270  37.451  39.517   2.409
10846W        W83271  44.281   2.373   1.813
10847W        W83272   7.164  38.259  11.433
10848W        W83273   7.109  19.729   1.287
10849W        W83274  39.577   5.181   0.836
10850W        W83275  17.794  12.169   1.481
10851W        W83276  14.308  13.221   2.321
10852W        W83277  28.089  18.821   4.592
10853W        W83278  11.322  37.279   0.694
10854W        W83279   8.232  16.301  12.935
10855W        W83280   6.280  41.087   1.267
10856W        W83281  13.187  25.202  12.395
10857W        W83282  44.914  10.404   2.756
10858W        W83283  21.273  43.128   1.308
10859W        W83284  32.884  29.483   4.958
10860W        W83285   4.965  17.098   3.818
10861W        W83286   0.240  42.453   1.701
10862W        W83287  39.126  30.130  14.799
10863W        W83288  19.037  13.947  13.798
10864W        W83289  44.637  13.795  14.182
10865W        W83290  31.524   6.936   0.737
10866W        W83291  41.753  30.188  12.038
10867W        W83292  44.450   2.332  13.298
10868W        W83293  37.857   5.177  10.755
10869W        W83294  19.713  29.769   3.771
10870W        W83295  14.275  43.234   3.196
10871W        W83296   8.289  20.231   4.646
10872W        W83297   5.751   4.316  14.866
10873W        W83298  27.426  24.974   4.955
10874W        W83299  33.441  36.108  13.032
10875W        W83300   7.406  32.032   1.956
10876W        W83301   8.766  26.071   0.731
10877W        W83302   8.305  23.732   4.597
10878W        W83303  21.729   1.438  10.795
10879W        W83304  21.364   5.410   3.656
10880W        W83305  35.716  13.844  11.740
10881W        W83306  44.890  33.665   2.193
10882W        W83307  13.563  43.867   2.358
10883W        W83308  25.225   9.239   4.871
10884W        W83309  17.958  17.829  13.449
10885W        W83310  43.646  15.357  12.960
10886W        W83311  37.336  23.652  11.841
10887W        W83312  28.536   4.856   4.740
10888W        W83313   2.778  32.921  11.674
10889W        W83314  29.991  39.341  12.065
10890W        W83315   0.181  40.816   0.807
10891W        W83316  33.983   0.769   0.815
10892W        W83317  24.066   3.181   0.198
10893W        W83318  17.701   1.521  11.979
10894W        W83319  24.634  33.931  14.875
10895W        W83320  19.774  18.725   3.313
10896W        W83321   6.750  42.712  12.031
10897W        W83322  38.875  35.856  14.309
10898W        W83323   6.828  16.101   0.997
10899W        W83324  28.125   8.151  13.311
10900W        W83325   6.920  29.113   1.624
10901W        W83326  43.942   1.003  11.199
10902W        W83327   7.189  19.672   3.303
10903W        W83328  24.985  13.336   4.194
10904W        W83329   1.271  41.033  13.484
10905W        W83330   7.299  40.699   2.291
10906W        W83331  26.964  36.155  11.854
10907W        W83332  18.815   6.860  11.135
10908W        W83333  26.721  23.013   1.430
10909W        W83334   0.027  42.231  11.180
10910W        W83335  24.272  22.270  13.028
10911W        W83336  13.927  21.467   1.343
10912W        W83337  38.075  35.057  14.926
10913W        W83338  33.476  31.574  13.012
10914W        W83339  37.594  17.050  14.253
10915W        W83340  30.718   5.435  13.044
10916W        W83341   9.171  30.977  14.544
10917W        W83342  17.191  14.014  13.813
10918W        W83343  21.663  18.521  14.029
10919W        W83344   8.293  38.116  13.436
10920W        W83345  20.857   1.864   3.761
10921W        W83346  14.821   9.043  12.388
10922W        W83347  41.820  31.746   2.665
10923W        W83348  18.111   7.271  11.188
10924W        W83349  32.497  36.347   4.236
10925W        W83350  12.045  14.013   5.136
10926W        W83351   0.768  34.566   3.583
10927W        W83352  42.556   8.353   0.505
10928W        W83353  41.026  12.363   2.720
10929W        W83354  43.314  16.596  11.678
10930W        W83355  17.297   4.085   4.203
10931W        W83356  12.806  39.607  11.956
10932W        W83357  32.046  14.635   1.740
10933W        W83358  16.262  34.940  14.534
10934W        W83359   2.551  34.058  11.256
10935W        W83360  29.936  14.842   3.396
10936W        W83361  25.569  11.648  13.612
10937W        W83362  27.935  40.075   1.825
10938W        W83363  39.582  42.792   0.278
10939W        W83364  24.755  22.258   4.309
10940W        W83365  42.909   9.990   2.715
10941W        W83366  15.330  36.919  13.080
10942W        W83367  43.219  18.642   1.877
10943W        W83368  16.064  16.637   1.483
10944W        W83369  30.099   1.401   4.529
10945W        W83370  33.664  22.973  10.661
10946W        W83371   6.137   0.692  12.834
10947W        W83372  23.270  33.333  12.044
10948W        W83373  16.716  44.376   0.982
10949W        W83374   3.497  24.419   1.910
10950W        W83375  14.852  20.055  14.896
10951W        W83376  14.227   2.742   1.105
10952W        W83377  19.030  24.569  12.031
10953W        W83378  34.428  18.798  13.428
10954W        W83379  15.939   3.046  13.466
10955W        W83380   3.398  42.902  12.995
10956W        W83381  29.374  42.069  13.867
10957W        W83382  25.949  26.736  10.795
10958W        W83383  28.604  26.454   1.864
10959W        W83384  40.836  11.266   1.478
10960W        W83385  11.867  37.593   3.295
10961W        W83386  24.011   7.902   2.718
10962W        W83387  32.092   3.983   1.801
10963W        W83388  14.823  11.597   0.883
10964W        W83389   4.701  12.296   2.163
10965W        W83390   6.465  37.637  13.099
10966W        W83391  40.884  16.605  14.862
10967W        W83392  22.073  30.523   4.111
10968W        W83393   7.960  14.111   3.864
10969W        W83394  29.645  18.613  10.685
10970W        W83395  28.656  33.578   1.691
10971W        W83396   6.936   1.944   1.876
10972W        W83397   9.452   3.309   2.380
10973W        W83398  22.812  33.536   4.548
10974W        W83399  28.941  28.105  12.161
10975W        W83400  26.434  37.092   4.260
10976W        W83401  43.389  21.279  12.950
10977W        W83402  33.507  35.402   0.963
10978W        W83403  17.577  44.748  14.485
10979W        W83404   7.092  42.512  10.767
10980W        W83405  22.817  10.105  14.446
10981W        W83406  35.979   1.448  12.102
10982W        W83407  41.421  24.592  13.734
10983W        W83408  32.604  43.468   3.680
10984W        W83409  14.597  29.469   0.974
10985W        W83410  33.392   4.102  10.192
10986W        W83411  32.761  22.578   1.702
10987W        W83412  25.496  41.019  13.873
10988W        W83413   5.038  25.439   4.763
10989W        W83414  38.778  39.575  12.483
10990W        W83415  33.759  16.312  13.458
10991W        W83416  36.162   8.880   0.266
10992W        W83417  22.789  39.391  13.342
10993W        W83418  17.536  21.333  13.292
10994W        W83419  33.137  43.306  13.947
10995W        W83420  44.414   2.487  14.551
10996W        W83421  18.533  14.945  12.773
10997W        W83422  21.064   9.842  13.915
10998W        W83423  19.309  15.482   3.712
10999W        W83424  20.123  39.763  14.085
11000W        W83425  25.569  22.919  11.201
11001W        W83426   2.380   5.799  10.403
11002W        W83427  20.620  19.331   3.218
11003W        W83428   1.861  15.152   3.673
11004W        W83429  24.292  13.686   2.791
11005W        W83430  25.755  40.768  13.503
11006W        W83431  37.852  32.444   1.851
11007W        W83432  19.461  37.908   0.945
11008W        W83433  20.420  23.067  10.736
11009W        W83434  18.996  25.495  11.601
11010W        W83435  15.334   5.658   2.610
11011W        W83436  12.277   6.165   2.267
11012W        W83437  11.266  32.021   5.148
11013W        W83438  36.598  17.966  12.734
11014W        W83439  15.041  31.135   4.330
11015W        W83440  37.807  26.487  10.394
11016W        W83441  21.118  40.563   4.699
11017W        W83442  12.289   5.658  14.784
11018W        W83443  36.156   9.728   3.268
11019W        W83444  26.691   7.769  11.050
11020W        W83445  21.421   5.206   4.146
11021W        W83446   4.359  39.972  11.066
11022W        W83447   1.826  30.839  11.693
11023W        W83448   7.343   3.137   1.901
11024W        W83449  20.707   1.459   2.085
11025W        W83450   3.713  21.117   0.985
11026W        W83451   2.966   5.757   2.350
11027W        W83452  30.204   8.892  12.131
11028W        W83453   8.325  35.554   4.241
11029W        W83454  17.750   0.506  14.227
11030W        W83455  43.846  19.694  10.694
11031W        W83456  21.343  33.832   1.262
11032W        W83457  18.629  29.496  11.369
11033W        W83458  16.307  36.414   0.671
11034W        W83459  15.254  24.454   0.766
11035W        W83460  27.982  25.194   3.697
11036W        W83461  33.889  28.353  10.821
11037W        W83462   7.179  17.878   3.122
11038W        W83463  22.030  43.496  14.259
11039W        W83464  23.696   3.408   3.982
11040W        W83465  21.286  14.498  13.127
11041W        W83466  29.151  24.987   4.360
11042W        W83467  41.220  28.870  14.797
11043W        W83468  34.062  21.560   3.104
11044W        W83469  41.973  21.138  10.572
11045W        W83470  41.236  24.576  10.712
11046W        W83471  30.388  44.012  13.988
11047W        W83472  14.670  22.277  10.204
11048W        W83473   4.446  36.627   1.919
11049W        W83474  11.244  37.461   2.634
11050W        W83475  40.686  13.039   3.653
11051W        W83476  10.707  17.517   3.771
11052W        W83477  22.267   1.248  11.546
11053W        W83478  15.933  12.214   3.821
11054W        W83479  19.780  12.080  14.984
11055W        W83480  11.411  33.582   3.436
11056W        W83481  34.145  22.835  10.524
11057W        W83482  19.686  33.311   5.029
11058W        W83483  39.886  23.638  13.853
11059W        W83484  11.629  15.798   3.095
11060W        W83485   8.645  30.371   0.014
11061W        W83486  41.776   8.548  12.399
11062W        W83487  25.579  27.030  13.908
11063W        W83488  11.819   8.146  10.972
11064W        W83489  41.904  43.954   0.147
11065W        W83490  38.101  35.061   3.149
11066W        W83491  37.529  37.350  10.743
11067W        W83492  41.042  29.325  11.514
11068W        W83493  10.843  21.267  14.867
11069W        W83494  34.436   2.397   4.333
11070W        W83495   6.379  14.763  13.336
11071W        W83496  44.977   3.681  13.870
11072W        W83497  24.603  15.288  10.697
11073W        W83498  23.615   9.862  13.344
11074W        W83499   1.271  15.511  14.812
11075W        W83500  37.944  14.861  11.148
11076W        W83501  16.526  34.214   4.186
11077W        W83502  44.830   7.887  13.311
11078W        W83503  35.137   4.816   0.912
11079W        W83504   2.873  43.246   4.193
11080W        W83505  33.327  31.531   4.253
11081W        W83506  24.992  44.605  10.031
11082W        W83507  34.569  39.660   1.809
11083W        W83508   0.255  42.392   2.611
11084W        W83509   6.686  39.287   4.828
11085W        W83510  41.275  37.582  11.991
11086W        W83511   0.965  40.429  12.995
11087W        W83512  41.013   5.305   1.617
11088W        W83513   2.107  32.995   3.320
11089W        W83514  34.421  29.598  11.205
11090W        W83515   3.507   8.337   1.753
11091W        W83516  37.337  18.852   4.163
11092W        W83517   3.915  12.378  11.861
11093W        W83518  43.002  12.767   1.251
11094W        W83519  40.325  18.912  11.194
11095W        W83520  17.674  24.245   0.778
11096W        W83521  39.314  34.354  11.203
11097W        W83522  43.331  27.421   1.292
11098W        W83523  15.311  33.440   2.901
11099W        W83524  17.641  24.956  14.667
11100W        W83525  43.922  13.312   0.398
11101W        W83526  26.107   7.910   1.355
11102W        W83527   0.198   5.486  11.648
11103W        W83528   2.947   5.231   4.674
11104W        W83529  44.778  34.078   2.920
11105W        W83530  15.050  44.006   2.197
11106W        W83531  19.031  42.537   1.429
11107W        W83532  41.708  28.584  11.030
11108W        W83533   5.167  19.663  14.114
11109W        W83534  27.251  25.776   2.283
11110W        W83535  24.075  21.204  14.844
11111W        W83536  43.293  31.982   3.835
11112W        W83537  17.773  11.284  13.363
11113W        W83538   0.067   6.481   4.140
11114W        W83539  22.131   1.222  12.591
11115W        W83540  10.856  13.668  10.833
11116W        W83541  16.301  37.504   1.668
11117W        W83542  25.064  18.342  12.523
11118W        W83543  15.179  31.059  14.260
11119W        W83544  34.290  44.315   4.047
11120W        W83545  20.256  20.530  14.801
11121W        W83546  10.346  17.347   4.181
11122W        W83547  12.188  43.469  12.080
11123W        W83548  35.544  32.586  14.289
11124W        W83549  26.635  21.190   1.814
11125W        W83550  13.396  32.876   2.935
11126W        W83551  16.240   0.446  11.536
11127W        W83552   8.689  20.959   1.412
11128W        W83553  28.150   8.372   2.261
11129W        W83554   1.478  25.986  13.870
11130W        W83555  43.826  36.497  10.509
11131W        W83556   3.873  15.249   3.917
11132W        W83557  12.694  43.777   0.835
11133W        W83558  28.961  26.206   2.221
11134W        W83559  19.200  33.586   0.464
11135W        W83560  42.953  17.319   2.299
11136W        W83561  33.758   5.910  11.012
11137W        W83562  12.406  38.458  11.567
11138W        W83563   7.391  10.303  12.391
11139W        W83564  39.143  42.571   4.582
11140W        W83565  27.936  20.069  12.443
11141W        W83566  33.386   6.196   0.048
11142W        W83567  10.646   4.568   2.758
11143W        W83568  33.028  43.105   1.310
11144W        W83569   4.826   6.952   4.246
11145W        W83570  26.154  20.940   1.876
11146W        W83571  24.814  37.179  11.110
11147W        W83572   0.368  12.227   2.283
11148W        W83573   6.611  24.112  11.576
11149W        W83574   0.073  44.178   2.015
11150W        W83575  18.730  33.769   0.722
11151W        W83576  41.806  43.972   5.112
11152W        W83577  14.332   8.900  12.929
11153W        W83578  10.049  14.689   4.067
11154W        W83579  21.768  32.834  14.191
11155W        W83580  21.608   6.458  13.824
11156W        W83581  36.406  35.070  11.097
11157W        W83582  18.506  36.332   0.737
11158W        W83583   0.792   8.174   1.739
11159W        W83584  16.638  44.938   3.802
11160W        W83585  35.628  41.557   2.261
11161W        W83586  20.285   9.721  14.942
11162W        W83587  44.979  32.353  13.362
11163W        W83588  20.657  30.384  10.123
11164W        W83589  17.273  43.097   2.681
11165W        W83590  41.802   9.376   1.204
11166W        W83591  31.436  26.931  12.985
11167W        W83592  27.453  32.980  11.194
11168W        W83593  24.070  25.238   4.700
11169W        W83594  25.947   3.257  13.322
11170W        W83595  26.651  34.409   4.557
11171W        W83596  40.451   9.121   2.825
11172W        W83597  14.350  32.590   5.056
11173W        W83598  34.925  36.454  11.436
11174W        W83599   4.748  41.054   3.710
11175W        W83600  10.238  23.526   0.964
11176W        W83601  15.358  12.773   1.840
11177W        W83602  32.818  34.048  14.452
11178W        W83603  30.114  31.678  11.689
11179W        W83604  17.126  40.522   2.650
11180W        W83605   5.671   7.596  14.086
11181W        W83606   8.376  22.595   2.367
11182W        W83607   5.007  15.354  12.008
11183W        W83608  41.900   5.432   3.795
11184W        W83609  36.991  30.331  13.912
11185W        W83610  35.500  15.310   1.057
11186W        W83611  19.323   3.289   4.695
11187W        W83612  23.924  43.956  10.339
11188W        W83613  13.326  23.628  12.814
11189W        W83614  32.110   8.782  11.167
11190W        W83615   7.610  28.831  13.893
11191W        W83616  21.553   2.675   2.467
11192W        W83617  13.488  23.808  10.720
11193W        W83618   8.938  44.488   2.867
11194W        W83619   6.772  14.095  10.929
11195W        W83620  40.956  33.119   1.404
11196W        W83621  38.925  28.690   2.259
11197W        W83622  26.320  31.873  12.494
11198W        W83623  30.072  11.760   3.797
11199W        W83624  28.862   9.838   0.488
11200W        W83625  33.178   4.228  13.212
11201W        W83626  21.577   9.441  11.142
11202W        W83627  31.160  23.505  13.769
11203W        W83628  14.892  13.877   0.309
11204W        W83629  19.390  28.099   1.489
11205W        W83630  15.275  30.989   3.359
11206W        W83631  15.710  25.057  11.947
11207W        W83632   6.292   9.286   4.629
11208W        W83633   4.393  11.870  10.941
11209W        W83634  16.106  31.458  14.279
11210W        W83635  40.849  38.554  12.069
11211W        W83636  17.613   2.292  14.258
11212W        W83637   7.936  21.705   1.819
11213W        W83638   5.359  11.338   2.613
11214W        W83639   9.564  39.914  10.754
11215W        W83640  16.060   0.654   1.171
11216W        W83641  32.607  11.962   2.681
11217W        W83642  22.963  32.277  10.632
11218W        W83643  42.245   4.414   1.716
11219W        W83644  16.828  44.201   0.042
11220W        W83645  22.729   6.201   3.775
11221W        W83646  38.624   8.999   2.860
11222W        W83647  13.821  19.475  13.518
11223W        W83648  22.550  18.169  11.580
11224W        W83649  28.449   0.464   4.290
11225W        W83650  15.478  12.081   1.358
11226W        W83651  29.124   3.363   2.750
11227W        W83652   4.045  43.132  10.219
11228W        W83653   0.832   6.598   1.922
11229W        W83654  44.943  42.348   3.387
11230W        W83655  30.488  30.293   1.493
11231W        W83656  21.178  10.180   9.961
11232W        W83657  30.062   5.277   4.154
11233W        W83658  25.234  14.333   3.172
11234W        W83659  17.589  32.409  11.425
11235W        W83660   4.014  11.598  13.456
11236W        W83661  29.956  38.818  11.202
11237W        W83662  41.330  38.120  13.608
11238W        W83663  24.441  14.020  11.272
11239W        W83664  10.198  22.949  11.995
11240W        W83665  31.175   1.808  12.153
11241W        W83666   5.203  14.216  13.472
11242W        W83667   9.817   8.449   0.832
11243W        W83668  19.384  40.328   0.362
11244W        W83669  17.683  11.848   4.388
11245W        W83670  37.683  33.448  14.380
11246W        W83671  30.293  27.932   3.402
11247W        W83672  31.494  23.990   3.388
11248W        W83673  12.917   3.568  14.847
11249W        W83674   6.352  26.967  10.628
11250W        W83675  16.773   3.279   0.251
11251W        W83676  19.228  32.276  12.986
11252W        W83677  19.986  22.051   1.194
11253W        W83678  31.896  40.852   1.660
11254W        W83679  25.458  12.861  11.651
11255W        W83680  38.264  28.853   1.787
11256W        W83681  19.038  12.276   1.271
11257W        W83682   4.747  23.340  13.019
11258W        W83683  38.275   1.721  13.221
11259W        W83684  30.559   5.724   1.677
11260W        W83685  34.351  19.250  10.546
11261W        W83686  19.061  12.539  13.505
11262W        W83687  41.362  19.858   4.683
11263W        W83688   7.469  29.412  11.160
11264W        W83689   7.249  28.153   3.602
11265W        W83690  29.471   8.615   0.033
11266W        W83691   3.286  31.197   3.088
11267W        W83692  34.027   6.023  14.448
11268W        W83693   0.378   1.718  12.304
11269W        W83694  13.592  41.312   2.695
11270W        W83695  42.445   2.446   1.820
11271W        W83696  40.090  15.899  10.091
11272W        W83697  34.903   2.575   2.467
11273W        W83698  21.064  33.071   0.317
11274W        W83699  23.175  18.745  13.931
11275W        W83700  24.680   2.691   2.879
11276W        W83701  37.071   4.179   1.284
11277W        W83702  27.531  37.233   3.494
11278W        W83703  32.202  16.610   5.002
11279W        W83704  17.779  33.573   1.761
11280W        W83705   6.049  40.010   2.426
11281W        W83706   4.077  20.116  11.456
11282W        W83707  11.540  30.324  10.779
11283W        W83708  41.404  24.204  14.681
11284W        W83709  11.526   0.964   1.848
11285W        W83710  22.961  22.170  14.192
11286W        W83711   6.470   6.605  10.712
11287W        W83712  32.966  25.048   4.219
11288W        W83713  36.405  17.874  10.720
11289W        W83714  14.882  33.633   3.117
11290W        W83715  21.257  11.004  11.988
11291W        W83716  13.307   9.289   2.352
11292W        W83717   5.361  41.402   4.918
11293W        W83718  36.800   7.198   3.686
11294W        W83719  37.116  44.533   0.517
11295W        W83720  13.346  36.590   4.607
11296W        W83721  35.500  19.106   4.138
11297W        W83722  33.104  31.055   4.246
11298W        W83723  40.021  39.100  11.443
11299W        W83724   4.251  25.582  12.272
11300W        W83725  38.733   6.321   0.239
11301W        W83726  40.234  27.549   3.216
11302W        W83727   1.483   6.609   3.715
11303W        W83728  21.295  34.472  11.553
11304W        W83729  35.953  40.451  14.029
11305W        W83730  11.383  41.589  13.459
11306W        W83731  23.866   8.402   5.029
11307W        W83732  14.795  29.148   2.246
11308W        W83733  30.899  35.319  14.721
11309W        W83734  18.794  16.875  13.874
11310W        W83735  40.041  34.411  13.504
11311W        W83736  13.691  18.631  11.489
11312W        W83737   6.234   0.345   1.831
11313W        W83738  19.460  22.577   4.864
11314W        W83739  36.390   9.336   1.522
11315W        W83740  42.055  15.984   2.722
11316W        W83741  17.546  27.242  13.456
11317W        W83742  37.343  32.335  13.999
11318W        W83743   0.858   1.809   2.235
11319W        W83744  21.709  25.256   1.936
11320W        W83745  28.630  26.693   1.357
11321W        W83746   9.726  41.273  10.599
11322W        W83747   4.745   6.622  12.358
11323W        W83748   9.471  22.760  12.304
11324W        W83749  20.725  28.992  11.488
11325W        W83750  37.932   0.184  11.455
11326W        W83751  12.269  10.707   4.365
11327W        W83752   0.893  23.541   3.223
11328W        W83753  36.019  17.173   4.722
11329W        W83754  39.373  12.549  11.599
11330W        W83755   5.457  44.477  12.402
11331W        W83756  24.998  44.366   3.877
11332W        W83757  25.261  15.624   1.269
11333W        W83758  39.302  21.781   3.605
11334W        W83759  40.721  19.335   0.246
11335W        W83760   2.438  17.093  10.760
11336W        W83761  30.481  14.112  12.547
11337W        W83762  20.291   5.420  13.813
11338W        W83763  29.501  39.502  14.520
11339W        W83764  28.593  10.214  10.118
11340W        W83765  23.656  18.075   3.808
11341W        W83766  40.829   7.198   3.126
11342W        W83767  17.895  31.954  13.111
11343W        W83768  16.370  31.703  13.876
11344W        W83769  14.389   0.743   3.249
11345W        W83770  11.414  10.289   2.911
11346W        W83771  29.913  34.556   4.087
11347W        W83772   2.201   5.810  14.540
11348W        W83773   6.751  32.607   2.896
11349W        W83774  29.512   0.846   0.376
11350W        W83775  10.699   5.776  12.596
11351W        W83776   9.185  10.130   1.693
11352W        W83777  17.772  37.864   3.515
11353W        W83778   3.377  22.511   0.483
11354W        W83779  33.440  16.041  13.777
11355W        W83780  29.079  25.770  12.600
11356W        W83781  23.079  19.816   0.737
11357W        W83782  24.419   1.534   3.343
11358W        W83783   9.210  12.866  11.947
11359W        W83784  37.251  11.225   3.788
11360W        W83785   8.629   7.924   4.289
11361W        W83786  35.321  44.986   4.022
11362W        W83787  11.037   6.688  14.363
11363W        W83788  39.323   0.184  11.540
11364W        W83789  13.112   5.683   3.409
11365W        W83790   9.667  14.092   3.231
11366W        W83791  18.354  41.051   3.582
11367W        W83792  26.060   0.393  10.637
11368W        W83793  15.181  20.174  12.909
11369W        W83794  32.594  26.454  12.357
11370W        W83795  34.829  10.314  11.993
11371W        W83796  21.833  31.005   4.253
11372W        W83797   3.337   7.750  13.066
11373W        W83798  35.439  29.527  14.452
11374W        W83799  37.811  14.330   1.823
11375W        W83800  30.528  34.378  14.096
11376W        W83801  32.153  23.253  11.741
11377W        W83802  18.782  32.392   0.976
11378W        W83803  44.820   3.005  10.682
11379W        W83804  37.446   1.270   3.644
11380W        W83805  30.373  38.499   2.293
11381W        W83806  18.396  39.452  12.721
11382W        W83807  40.491  19.932  11.158
11383W        W83808   6.579   1.774  13.925
11384W        W83809  16.922  15.339   3.288
11385W        W83810  37.409  32.599   2.641
11386W        W83811  40.977  26.136   4.747
11387W        W83812   0.599  16.548  12.968
11388W        W83813  31.421  11.236  11.672
11389W        W83814  36.939  39.568   3.211
11390W        W83815   8.867  35.650   1.779
11391W        W83816   9.728  35.069   1.401
11392W        W83817  16.057  34.330  12.666
11393W        W83818   2.632  15.938  11.597
11394W        W83819  18.463  23.501   3.859
11395W        W83820   8.784   2.736   5.284
11396W        W83821   5.431  37.147   3.339
11397W        W83822  26.965  22.553  12.395
11398W        W83823  17.063  26.412   9.843
11399W        W83824  41.395  34.913   3.368
11400W        W83825  19.611   7.817  11.577
11401W        W83826  32.530  22.509   2.166
11402W        W83827   8.724  21.734  10.738
11403W        W83828  38.875   3.801   0.024
11404W        W83829   3.370  31.696   2.264
11405W        W83830  44.441  27.022   3.685
11406W        W83831  36.962  28.051   1.857
11407W        W83832  29.082  30.062   4.182
11408W        W83833  23.298   4.833   4.641
11409W        W83834  23.355   8.380   1.919
11410W        W83835  29.116  26.269  12.670
11411W        W83836  40.249  43.298  14.673
11412W        W83837  17.038  25.613   2.980
11413W        W83838  40.014  15.695   4.466
11414W        W83839  15.754  21.063   2.939
11415W        W83840  36.967  33.438  11.709
11416W        W83841  29.378   2.453  13.545
11417W        W83842  24.994  36.191   0.209
11418W        W83843   3.749  16.079  11.797
11419W        W83844   0.024  42.505   0.818
11420W        W83845  26.493  19.736   2.407
11421W        W83846  14.649  28.642   4.577
11422W        W83847  27.323   1.922  14.965
11423W        W83848  36.412   1.728  10.552
11424W        W83849  38.404  18.366  13.501
11425W        W83850  12.279   5.890   2.974
11426W        W83851  42.150  35.518  12.690
11427W        W83852   8.809  20.931   2.432
11428W        W83853  26.968  41.384   0.718
11429W        W83854  27.854  17.019   3.226
11430W        W83855   0.914  36.548  14.348
11431W        W83856  35.090   8.168   2.851
11432W        W83857  18.230  11.384  13.776
11433W        W83858  43.757  17.553   3.633
11434W        W83859  19.486  16.503   1.751
11435W        W83860  16.563  18.820  10.688
11436W        W83861  20.835  35.070  14.840
11437W        W83862  39.877  31.559  10.404
11438W        W83863  26.504  30.643   3.566
11439W        W83864  35.585  34.947   3.909
11440W        W83865  11.732  13.268   3.182
11441W        W83866  17.214  41.143   3.703
11442W        W83867  19.561  18.252  12.820
11443W        W83868  13.720  18.638   0.728
11444W        W83869  18.411  41.750   2.858
11445W        W83870  21.009  26.716   0.853
11446W        W83871  17.667   4.304   3.329
11447W        W83872  18.010  18.870  14.358
11448W        W83873  16.064  44.973   4.220
11449W        W83874  43.923  10.795  13.823
11450W        W83875  44.829  33.797  11.551
11451W        W83876  21.611   1.938  13.590
11452W        W83877  24.046  41.616   0.908
11453W        W83878  37.654   1.905  10.306
11454W        W83879  13.828  15.733  14.823
11455W        W83880  25.406   4.449  14.791
11456W        W83881  12.112  18.564   4.588
11457W        W83882  31.920   5.394   1.811
11458W        W83883   5.240  26.832   4.715
11459W        W83884  19.487  40.638  11.859
11460W        W83885  42.249  43.421   0.823
11461W        W83886  44.687   6.503  10.722
11462W        W83887  24.747   9.634  14.851
11463W        W83888  15.442  31.918   4.573
11464W        W83889  38.151  11.621   3.130
11465W        W83890  28.690  19.609  12.855
11466W        W83891  34.380  31.035  13.012
11467W        W83892  38.522  30.575  12.067
11468W        W83893  29.416  36.025   1.411
11469W        W83894   1.833  40.117   3.658
11470W        W83895  13.647  17.801  11.889
11471W        W83896  44.346  37.486  10.333
11472W        W83897  19.947  12.798   1.052
11473W        W83898  15.735  22.294   1.346
11474W        W83899  10.440  34.714   5.056
11475W        W83900  38.612  34.660   4.089
11476W        W83901  32.705  20.774  14.407
11477W        W83902  10.593  34.107  13.765
11478W        W83903  38.508  10.833   3.101
11479W        W83904  42.384  21.170  12.374
11480W        W83905  11.770  32.049   0.232
11481W        W83906  19.812  27.801  12.095
11482W        W83907  21.030   7.110  13.915
11483W        W83908  20.082  22.150   3.657
11484W        W83909  25.708  15.832  14.425
11485W        W83910  43.318  33.112  13.861
11486W        W83911  10.221  19.105   0.517
11487W        W83912  19.702   4.339   0.007
11488W        W83913   6.660  19.117  14.516
11489W        W83914  25.487  37.048  12.447
11490W        W83915  30.614  44.830   2.227
11491W        W83916  44.024  30.959   2.650
11492W        W83917  17.170  38.404  10.616
11493W        W83918  26.252  34.951   3.764
11494W        W83919  24.018   3.888   3.357
11495W        W83920  37.108   7.197  13.453
11496W        W83921  44.292  41.987   2.414
11497W        W83922  25.693   3.250   3.643
11498W        W83923  33.725  42.987  10.563
11499W        W83924  32.189  19.087   9.817
11500W        W83925  25.122  13.012   1.779
11501W        W83926  36.024  26.636  14.858
11502W        W83927   6.433  20.303   1.849
11503W        W83928  30.001   1.882   1.736
11504W        W83929  37.985  24.416   3.680
11505W        W83930  18.523  12.995  13.448
11506W        W83931  25.600  15.849   0.322
11507W        W83932  26.959  17.199   3.591
11508W        W83933  34.803  24.894  11.642
11509W        W83934   4.098   8.660   1.027
11510W        W83935   0.029  17.220   4.334
11511W        W83936  13.569   2.458   3.562
11512W        W83937  24.182  36.434  12.419
11513W        W83938  41.314   1.717   0.432
11514W        W83939  42.515   4.431  11.520
11515W        W83940  25.651  27.737   0.218
11516W        W83941   9.274  27.269   0.861
11517W        W83942  38.803  43.518  10.071
11518W        W83943  41.226   3.847  11.979
11519W        W83944  39.708  40.827   4.224
11520W        W83945   1.140  43.630   3.253
11521W        W83946   9.652  15.160  10.988
11522W        W83947  43.804  39.916   2.328
11523W        W83948  29.173   3.889  13.469
11524W        W83949   5.841  43.587   4.721
11525W        W83950  40.971  44.859  10.895
11526W        W83951   3.848  31.767   4.180
11527W        W83952  33.063  33.931  13.047
11528W        W83953  13.180  35.175   2.117
11529W        W83954  37.923  29.965   0.186
11530W        W83955  33.306  32.230   0.977
11531W        W83956  24.702   6.203   2.266
11532W        W83957   2.825  37.053  12.091
11533W        W83958  39.427  10.957   0.721
11534W        W83959  30.700  27.660   4.120
11535W        W83960  11.832  28.335   3.135
11536W        W83961  15.683  44.902  13.839
11537W        W83962  43.885  35.476   3.243
11538W        W83963   7.748   6.738  13.984
11539W        W83964  43.179   2.491  11.940
11540W        W83965  21.963  12.127   0.712
11541W        W83966  38.775  12.841   1.874
11542W        W83967  36.690  24.294   2.812
11543W        W83968  25.937  24.744  11.311
11544W        W83969  28.645  15.223   1.248
11545W        W83970  10.103  28.990  11.837
11546W        W83971   8.350  41.782  10.971
11547W        W83972   9.325  25.884   1.356
11548W        W83973  44.489  34.844  10.275
11549W        W83974   4.241  11.407   1.975
11550W        W83975  33.943  25.742  13.426
11551W        W83976   4.919   0.815   2.331
11552W        W83977  16.471   9.785   1.811
11553W        W83978   7.265  37.985   1.942
11554W        W83979  29.153   5.464  11.132
11555W        W83980  22.179  17.327  11.554
11556W        W83981  10.096   0.426  11.671
11557W        W83982  35.381  37.088  12.022
11558W        W83983  42.517  39.012   4.646
11559W        W83984  17.286  32.498  11.022
11560W        W83985  43.259  16.011   2.215
11561W        W83986  16.698  25.272   2.232
11562W        W83987  20.236   1.285   4.399
11563W        W83988  44.218  13.682  14.468
11564W        W83989  38.588   1.991  12.907
11565W        W83990  34.100  20.620  11.743
11566W        W83991  20.976  33.415   1.558
11567W        W83992   7.783  21.334   2.841
11568W        W83993  15.746  40.354  10.713
11569W        W83994  34.329  36.517   4.384
11570W        W83995  24.624  10.418   4.599
11571W        W83996   2.618  20.843  11.330
11572W        W83997  14.644   1.354  12.379
11573W        W83998  37.713  34.522  14.951
11574W        W83999  27.018  14.979   1.912
11575W        W84000  34.055  23.347  14.704
11576W        W84001  41.750  24.915   4.179
11577W        W84002  44.839  44.923  10.783
11578W        W84003  15.167  22.624  13.464
11579W        W84004   1.932  36.122  11.607
11580W        W84005  19.561  33.613   2.348
11581W        W84006  22.138  43.108  11.271
11582W        W84007  31.536   1.335   2.438
11583W        W84008  40.838  43.821   3.215
11584W        W84009  27.410   3.279   4.799
11585W        W84010  36.231  32.669   4.966
11586W        W84011   8.716   8.452   5.431
11587W        W84012   7.927  39.334  10.402
11588W        W84013  14.712  33.929  14.555
11589W        W84014  42.738   4.888   3.716
11590W        W84015  17.248  42.080   4.781
11591W        W84016  23.991  37.826   2.212
11592W        W84017   9.712  35.826   0.005
11593W        W84018  17.286  12.084  11.598
11594W        W84019  18.551  34.036   1.616
11595W        W84020  19.481  12.674   3.237
11596W        W84021  23.684  41.804   0.302
11597W        W84022  34.021  37.577  10.477
11598W        W84023  36.587   0.084   4.401
11599W        W84024  28.768   6.816   4.073
11600W        W84025  30.043   3.829   3.627
11601W        W84026  43.250  24.688   2.291
11602W        W84027  34.976   1.307   3.865
11603W        W84028  43.785  24.315   3.297
11604W        W84029  38.051   9.011   5.387
11605W        W84030  32.480  21.543   4.370
11606W        W84031  12.796  16.790   1.407
11607W        W84032   2.961  43.922   3.215
11608W        W84033  21.093  41.370  13.957
11609W        W84034   3.675  16.683   2.845
11610W        W84035  12.111  42.747   4.998
11611W        W84036  15.711  15.803   3.328
11612W        W84037  11.186  18.427  12.938
11613W        W84038   7.501  13.724   1.897
11614W        W84039   9.815  36.333   4.072
11615W        W84040   3.776  33.929   2.412
11616W        W84041  15.077  11.646   0.439
11617W        W84042  39.398  33.463  11.552
11618W        W84043  12.224   1.194  11.100
11619W        W84044  34.724  28.069  12.508
11620W        W84045  40.537   9.263  11.584
11621W        W84046  11.802  25.068   4.953
11622W        W84047  16.853  32.185  11.139
11623W        W84048  44.618  23.570  13.169
11624W        W84049  20.567  43.242  14.906
11625W        W84050  35.068   3.336   3.145
11626W        W84051  39.090   9.120  13.511
11627W        W84052  13.560  41.949  13.909
11628W        W84053  37.306  28.721   1.830
11629W        W84054  18.721  21.911   0.460
11630W        W84055   5.200   8.394   2.831
11631W        W84056  31.647  17.301   2.323
11632W        W84057  41.755  27.395   2.650
11633W        W84058  33.603  36.387   1.013
11634W        W84059  41.829  26.703   1.370
11635W        W84060  15.405  24.919   1.691
11636W        W84061   3.296  33.017   1.560
11637W        W84062  27.661  23.215  14.331
11638W        W84063  34.777  22.462   4.601
11639W        W84064  14.584   7.757  11.958
11640W        W84065  37.055  16.088  12.463
11641W        W84066  24.261   2.915  13.448
11642W        W84067  29.419  21.269   3.630
11643W        W84068  14.300  40.774  12.609
11644W        W84069  15.557   1.839   0.736
11645W        W84070   9.162  13.107  10.648
11646W        W84071  10.922  37.993  14.511
11647W        W84072   4.340  28.815  14.584
11648W        W84073   3.959  44.418  11.580
11649W        W84074  37.502  32.577   4.376
11650W        W84075  33.712  34.495  10.904
11651W        W84076  38.021   2.916  13.568
11652W        W84077  37.462  11.309  11.955
11653W        W84078  25.996  20.482  14.437
11654W        W84079  16.631   6.818  13.325
11655W        W84080  20.583  41.294  10.967
11656W        W84081   7.400  43.795   0.485
11657W        W84082  10.408  36.653   1.577
11658W        W84083  38.365  16.892   2.756
11659W        W84084  27.006  30.439  11.650
11660W        W84085  32.483   2.933   1.977
11661W        W84086  27.085  13.852   0.987
11662W        W84087   5.917  40.926  14.485
11663W        W84088  38.289  12.799  10.779
11664W        W84089  16.737  20.201  11.067
11665W        W84090  12.850  24.814   3.762
11666W        W84091   6.229  32.367  11.507
11667W        W84092  17.263   2.737  14.096
11668W        W84093   6.956  19.267  13.026
11669W        W84094  40.540  30.387  10.600
11670W        W84095  18.688  36.356   1.418
11671W        W84096  40.009  38.535   4.170
11672W        W84097  18.387  33.149  13.383
11673W        W84098   4.047  32.463   1.240
11674W        W84099  21.079   2.189  13.610
11675W        W84100  43.686  38.393   2.240
11676W        W84101  25.604  18.137  13.355
11677W        W84102  22.127  31.913  12.005
11678W        W84103  20.729   1.451  13.324
11679W        W84104  38.862   8.664  14.088
11680W        W84105  10.292  32.019   1.222
11681W        W84106  16.218  31.479   3.780
11682W        W84107  30.813   0.803  12.921
11683W        W84108  43.796  39.095   4.153
11684W        W84109   5.365  16.684   0.809
11685W        W84110  23.624  32.271   0.183
11686W        W84111  22.186  10.167   3.162
11687W        W84112  43.811   2.786   1.438
11688W        W84113  18.742  30.879   4.419
11689W        W84114   0.356  25.978   3.749
11690W        W84115  31.188  12.692   3.299
11691W        W84116  19.038   1.883  13.055
11692W        W84117  32.622  26.697  11.211
11693W        W84118  16.319  33.003  12.405
11694W        W84119  34.806  16.218  11.881
11695W        W84120  26.573  16.388   3.346
11696W        W84121  14.809  42.937   3.206
11697W        W84122  32.806   1.581   3.672
11698W        W84123  31.593  10.968  10.463
11699W        W84124  42.760   6.023   3.678
11700W        W84125  10.638  18.255  12.446
11701W        W84126  24.716   2.268  12.925
11702W        W84127  33.465  16.884  10.588
11703W        W84128  12.323   3.173   2.225
11704W        W84129  11.256  22.579   3.024
11705W        W84130  41.769  37.556  10.636
11706W        W84131   3.008   6.723   0.464
11707W        W84132   3.813  26.937   0.221
11708W        W84133  29.598   6.198  11.550
11709W        W84134   0.141  28.506  11.659
11710W        W84135   3.950  43.964  12.275
11711W        W84136  16.678  32.510   5.601
11712W        W84137  11.844  36.878  13.497
11713W        W84138  10.937  10.225  14.460
11714W        W84139  44.905  40.858   1.361
11715W        W84140  42.413  23.758  10.503
11716W        W84141  11.629  24.527  10.376
11717W        W84142  12.150  30.526   4.706
11718W        W84143   9.993  37.859  10.802
11719W        W84144  22.939  31.533   0.969
11720W        W84145  27.206  19.153  10.587
11721W        W84146   1.715  35.660  11.555
11722W        W84147  18.173  31.083  11.379
11723W        W84148  32.594  25.120   5.211
11724W        W84149   8.154  31.393  12.175
11725W        W84150   0.817   3.739   4.281
11726W        W84151  39.159  37.313   2.706
11727W        W84152  39.074  12.349   0.715
11728W        W84153  21.162  21.714  13.417
11729W        W84154   8.154   7.982   3.604
11730W        W84155  35.344  11.211  10.450
11731W        W84156   0.323  25.029   0.287
11732W        W84157  26.499  43.833   3.092
11733W        W84158  27.030  18.131   0.326
11734W        W84159  39.270  21.715  13.026
11735W        W84160  14.588  30.105  12.479
11736W        W84161   0.280  16.801  11.661
11737W        W84162  36.929  12.786  10.340
11738W        W84163  42.682  43.926  12.007
11739W        W84164   3.088  40.989  12.495
11740W        W84165  18.618  19.281  11.064
11741W        W84166  23.533  27.633   3.400
11742W        W84167  38.756  23.455  12.837
11743W        W84168   2.946  28.232   3.699
11744W        W84169  21.234   2.811   1.629
11745W        W84170  44.533  43.369   2.878
11746W        W84171  42.941  44.176  14.533
11747W        W84172  10.043   6.383  14.317
11748W        W84173   8.347   1.535   2.844
11749W        W84174  44.462  32.574  11.604
11750W        W84175  18.882  10.679   0.841
11751W        W84176  44.912  41.333  13.566
11752W        W84177  38.868  37.580  14.559
11753W        W84178  30.181  11.615  14.931
11754W        W84179  30.613  43.534  13.964
11755W        W84180  20.637  27.654  12.931
11756W        W84181  23.648  33.386   3.853
11757W        W84182  40.732  15.962  12.907
11758W        W84183  17.348  30.466   3.688
11759W        W84184  20.316  27.473  13.481
11760W        W84185   6.857  26.873   3.674
11761W        W84186  13.790   8.577   4.224
11762W        W84187  41.979  26.196   4.636
11763W        W84188  44.256  22.643   3.308
11764W        W84189  39.377  24.641  13.860
11765W        W84190  29.187  43.756  13.481
11766W        W84191   3.253  43.293  10.579
11767W        W84192  35.644  31.140  13.399
11768W        W84193  37.783  20.602  11.804
11769W        W84194  21.869  42.798   4.648
11770W        W84195  20.740  11.215   1.341
11771W        W84196  18.438  34.475  11.156
11772W        W84197  34.657   6.245  12.092
11773W        W84198  29.077  16.713   4.715
11774W        W84199  27.754  18.549  11.124
11775W        W84200  32.023  36.401   2.715
11776W        W84201  35.930  22.141  13.792
11777W        W84202   6.397  23.362   0.405
11778W        W84203  12.202  11.614   3.669
11779W        W84204  33.508  20.968  12.484
11780W        W84205  28.338  11.273  13.605
11781W        W84206  23.160  41.547  11.152
11782W        W84207  24.375  39.380   2.334
11783W        W84208  31.098   4.965   1.740
11784W        W84209  44.676   4.438  11.204
11785W        W84210  38.746  14.610  12.988
11786W        W84211  16.745  40.670  12.568
11787W        W84212  44.501  41.612   1.753
11788W        W84213  19.166   7.929   0.020
11789W        W84214  19.281  30.140  11.577
11790W        W84215  27.911  10.362   2.340
11791W        W84216  44.995  25.490   3.121
11792W        W84217  12.929  11.241   1.946
11793W        W84218   9.259  23.728  14.387
11794W        W84219  37.395  19.751  12.530
11795W        W84220   8.914  39.361  14.899
11796W        W84221   5.490  43.661   0.287
11797W        W84222  36.813   8.196   3.201
11798W        W84223  39.823  39.836   0.944
11799W        W84224   1.346  26.525  14.314
11800W        W84225  20.198  36.572   1.365
11801W        W84226  40.832   3.346   1.337
11802W        W84227  28.983  44.115  14.853
11803W        W84228   2.766   5.443   0.413
11804W        W84229   6.759   7.994   2.341
11805W        W84230  44.548  42.387   0.955
11806W        W84231   3.907  39.360  14.065
11807W        W84232  27.065  14.162  12.106
11808W        W84233  37.466   7.440   2.902
11809W        W84234  38.147  28.714   3.887
11810W        W84235   7.338  34.715  14.883
11811W        W84236  42.342  40.009  12.572
11812W        W84237   1.807  19.139  13.579
11813W        W84238   5.197  13.601  14.473
11814W        W84239   7.843  44.656  10.976
11815W        W84240  22.050  20.243   4.804
11816W        W84241  41.282  37.507  14.854
11817W        W84242  23.127  18.280   0.890
11818W        W84243  10.415   7.701   2.304
11819W        W84244  21.196  20.476  13.897
11820W        W84245   1.697  15.818  13.932
11821W        W84246  12.171  23.572   3.712
11822W        W84247  13.757  23.942   4.159
11823W        W84248  15.046  16.811   1.259
11824W        W84249   4.953  36.631   5.029
11825W        W84250  40.230  41.244   3.314
11826W        W84251  11.227  37.973  13.308
11827W        W84252  15.247  43.358   3.407
11828W        W84253  33.459   3.836   1.701
11829W        W84254  30.127  34.864  14.306
11830W        W84255  32.862   6.192  12.913
11831W        W84256  44.650  15.618   1.955
11832W        W84257  33.503  20.097  12.000
11833W        W84258  40.513  14.789   0.836
11834W        W84259  41.633  34.878   4.477
11835W        W84260  26.070  26.237   0.075
11836W        W84261  23.256  12.907   0.715
11837W        W84262   7.362  15.272  11.146
11838W        W84263  40.498  17.401  10.058
11839W        W84264  19.696  41.660  14.542
11840W        W84265  13.759  31.342  12.800
11841W        W84266   8.765  36.018  12.711
11842W        W84267  33.637  23.044  14.828
11843W        W84268  22.560   0.954  12.427
11844W        W84269  43.464  44.556   0.264
11845W        W84270   9.383  20.056  11.104
11846W        W84271  17.592   8.049   3.580
11847W        W84272   1.004  41.524  14.987
11848W        W84273  42.033  43.007   3.704
11849W        W84274   8.321  24.081   1.378
11850W        W84275  29.843  23.491   1.871
11851W        W84276   1.527  26.664   1.808
11852W        W84277   7.866   9.202  10.938
11853W        W84278  31.797  33.154  11.931
11854W        W84279  34.918  24.913   1.859
11855W        W84280  39.350  40.409  13.057
11856W        W84281  28.653  22.304  12.040
11857W        W84282  40.053  18.612  11.988
11858W        W84283   1.236  41.433   1.360
11859W        W84284  29.972  18.268  12.874
11860W        W84285  36.441  22.499   1.344
11861W        W84286  38.365  19.794  10.738
11862W        W84287  14.291  40.265   3.569
11863W        W84288  33.915  43.423   4.152
11864W        W84289  33.884  34.708   1.381
11865W        W84290  44.097  14.083  13.389
11866W        W84291  20.300  19.770  14.361
11867W        W84292   4.428  21.645   2.253
11868W        W84293  21.259  22.103   3.614
11869W        W84294  29.023  44.416  12.172
11870W        W84295  42.491  32.841   2.797
11871W        W84296  14.279  13.214  10.629
11872W        W84297  15.291  42.364   2.235
11873W        W84298  36.877  42.503  11.121
11874W        W84299  29.513   8.837   3.390
11875W        W84300   3.421  18.226   0.716
11876W        W84301   8.231  26.517  10.689
11877W        W84302  27.187  17.680   1.439
11878W        W84303  37.188  43.762  11.520
11879W        W84304  40.402  19.345   2.378
11880W        W84305  24.746  37.555   0.155
11881W        W84306   5.986  19.242   0.752
11882W        W84307  18.584  20.456  12.959
11883W        W84308  22.462   2.435  14.868
11884W        W84309  17.245  34.027  11.400
11885W        W84310  23.681  41.798   1.283
11886W        W84311  27.637  16.548   3.179
11887W        W84312  26.216  28.567  14.518
11888W        W84313  27.049  30.193   2.404
11889W        W84314  21.928  44.439  12.460
11890W        W84315  28.622  25.931  13.853
11891W        W84316  26.619   3.732  12.456
11892W        W84317   9.169   6.866   1.227
11893W        W84318  23.152   9.668   3.748
11894W        W84319  37.070  38.374  10.379
11895W        W84320   3.356  44.798   2.709
11896W        W84321  32.563  17.109  10.331
11897W        W84322   4.626  11.002  10.139
11898W        W84323  24.606  12.090  13.655
11899W        W84324  28.141  37.924   1.487
11900W        W84325  11.368   3.820  11.654
11901W        W84326  32.481  36.961  10.695
11902W        W84327  17.831  39.316   1.834
11903W        W84328  30.451   5.923   4.220
11904W        W84329  20.517  32.870   4.259
11905W        W84330  40.011   8.872  10.649
11906W        W84331  16.651  41.988  12.611
11907W        W84332   6.821  33.966  12.411
11908W        W84333   4.818  10.437   2.251
11909W        W84334  13.271  41.637  12.656
11910W        W84335  40.485  20.754  12.429
11911W        W84336  35.923   0.973  11.886
11912W        W84337  14.118  26.900   2.286
11913W        W84338  44.864  42.592  14.034
11914W        W84339   9.250  29.557   4.148
11915W        W84340   8.323   4.921  10.575
11916W        W84341  23.165  39.355  10.695
11917W        W84342  38.040  19.057   3.325
11918W        W84343  32.395  20.756   3.491
11919W        W84344  39.252   0.347  10.200
11920W        W84345  41.687  12.759  11.202
11921W        W84346   4.426  15.085   0.826
11922W        W84347  18.728  33.946  12.177
11923W        W84348  35.832  20.568   4.213
11924W        W84349  15.293  41.949  12.606
11925W        W84350  19.553  32.041   9.845
11926W        W84351  14.085  43.718  14.378
11927W        W84352  24.705  31.471  12.079
11928W        W84353  21.880  23.197   1.353
11929W        W84354  10.903  36.152  12.854
11930W        W84355  21.915   4.893  12.472
11931W        W84356  14.794   6.479  14.971
11932W        W84357  39.789  10.259   3.416
11933W        W84358  42.309  27.695   4.180
11934W        W84359  11.867  30.601  13.146
11935W        W84360  25.228  34.845   3.197
11936W        W84361  20.239  43.842  11.394
11937W        W84362  34.243  44.290   1.229
11938W        W84363   5.663   7.874  14.845
11939W        W84364  35.007  39.327   1.180
11940W        W84365  14.510  36.261  11.169
11941W        W84366  18.991   0.770   3.667
11942W        W84367  41.359   1.301  13.837
11943W        W84368  39.050  10.830  14.089
11944W        W84369  19.198  14.745   4.915
11945W        W84370  13.814   2.805   0.255
11946W        W84371  34.872   3.963   1.797
11947W        W84372  25.292  32.628   2.719
11948W        W84373  27.440  37.573  12.110
11949W        W84374   7.109  22.829   2.631
11950W        W84375  35.335  24.996  14.768
11951W        W84376  40.528  38.424  12.442
11952W        W84377   4.953  29.991   1.425
11953W        W84378  33.470   3.978   3.044
11954W        W84379   9.569  12.886   0.461
11955W        W84380  21.113  14.498   4.621
11956W        W84381  26.531   9.338  12.489
11957W        W84382  25.941  38.783  13.468
11958W        W84383  19.531   4.893  11.654
11959W        W84384  16.598  12.107  13.904
11960W        W84385  17.065  23.125   0.063
11961W        W84386   0.161  26.274  13.901
11962W        W84387   4.845  12.848   2.863
11963W        W84388  34.831  12.231   2.220
11964W        W84389  38.515  20.147  13.977
11965W        W84390  16.978   0.190  11.037
11966W        W84391  20.283   6.771  13.368
11967W        W84392  43.303  26.601  14.695
11968W        W84393  28.480  23.640  14.385
11969W        W84394   0.024  19.019  13.960
11970W        W84395  28.058  17.754   0.335
11971W        W84396  22.978  13.103   2.183
11972W        W84397  21.810  36.238   0.319
11973W        W84398   2.926   8.012   0.436
11974W        W84399   6.338  22.213  14.868
11975W        W84400   8.948   3.510  13.730
11976W        W84401   4.058   6.231   4.936
11977W        W84402  19.763  31.221   1.802
11978W        W84403   0.082  41.016   2.766
11979W        W84404   9.338  38.374  10.574
11980W        W84405  24.650   9.202   0.830
11981W        W84406  21.263   8.643  11.439
11982W        W84407  22.293  22.124  10.634
11983W        W84408  20.138   4.911  12.050
11984W        W84409  31.399   4.373  10.623
11985W        W84410  40.401  24.941   0.977
11986W        W84411  28.639  38.610  12.507
11987W        W84412  39.397  18.497   0.270
11988W        W84413   6.920   7.386  14.868
11989W        W84414  31.580  34.557   1.237
11990W        W84415  32.085   3.971   1.258
11991W        W84416  34.373  10.257  12.931
11992W        W84417   7.187  21.260   1.724
11993W        W84418   1.883  38.802  13.953
11994W        W84419  42.631  42.395  14.007
11995W        W84420  30.538  14.452   4.180
11996W        W84421  31.578  34.361  11.126
11997W        W84422  32.455  19.576   0.685
11998W        W84423  44.649  11.584   3.873
11999W        W84424  18.845  10.622  11.510
12000W        W84425  43.521  28.583  13.143
12001W        W84426  27.477   8.384   4.143
12002W        W84427  28.060  24.977   1.362
12003W        W84428  39.019  29.937  12.522
12004W        W84429   6.935   3.917   1.679
12005W        W84430  35.928  24.000   0.810
12006W        W84431  43.367   5.705  12.092
12007W        W84432  24.056  35.897   1.409
12008W        W84433  33.888   7.373   1.615
12009W        W84434   7.137  39.625  10.740
12010W        W84435  25.798  25.723  14.386
12011W        W84436  19.089  41.958  12.423
12012W        W84437  36.439   4.226  12.662
12013W        W84438  29.294  28.958  11.956
12014W        W84439   0.440  38.473   1.896
12015W        W84440  22.052  20.218  11.575
12016W        W84441  40.398  12.382   2.114
12017W        W84442  24.291  35.570  14.761
12018W        W84443  17.348  35.475   0.887
12019W        W84444  20.137   3.804   1.747
12020W        W84445  30.548  43.272  13.500
12021W        W84446  18.661  36.278  11.571
12022W        W84447   6.002  36.092  13.679
12023W        W84448  33.184   5.651   0.253
12024W        W84449   2.310  36.802  12.064
12025W        W84450   1.033   1.969  14.304
12026W        W84451   7.585  17.148   4.816
12027W        W84452  10.619  38.892  11.919
12028W        W84453   2.433  28.095  14.857
12029W        W84454  29.492  25.795  13.476
12030W        W84455  41.003   8.491  14.266
12031W        W84456  22.237   4.990   1.713
12032W        W84457   7.185  21.111   4.128
12033W        W84458   8.773  19.606  11.642
12034W        W84459  34.043  44.805   2.895
12035W        W84460  44.425  39.628  14.853
12036W        W84461   6.777  36.186   3.868
12037W        W84462  43.041  13.999   0.520
12038W        W84463  34.673   3.909  13.569
12039W        W84464  20.757  19.752   1.375
12040W        W84465   3.473  10.726  10.681
12041W        W84466  24.663   3.833   3.945
12042W        W84467  17.264  39.481   3.334
12043W        W84468  17.165  18.494   0.224
12044W        W84469  36.633  44.124   4.906
12045W        W84470   0.436   0.867  12.815
12046W        W84471  31.109  10.589   2.234
12047W        W84472   2.242   6.292   0.221
12048W        W84473  29.548  25.574   3.884
12049W        W84474  24.745  41.046  13.317
12050W        W84475  23.002   6.895  10.410
12051W        W84476  33.589  32.520   4.882
12052W        W84477  21.062  22.219  13.330
12053W        W84478  21.567  25.163   2.829
12054W        W84479   9.393  42.454   1.193
12055W        W84480  20.550  27.570   4.247
12056W        W84481  35.094  33.365   1.239
12057W        W84482  12.268  10.636   1.651
12058W        W84483  11.554   7.082   2.727
12059W        W84484  23.563   6.859  12.625
12060W        W84485  16.033   1.908   9.690
12061W        W84486  17.592   0.218   0.445
12062W        W84487  36.329  21.570  12.929
12063W        W84488   2.183  33.390  12.985
12064W        W84489   3.202  27.250  11.152
12065W        W84490  38.492  24.437  10.251
12066W        W84491  41.260   2.795   4.568
12067W        W84492   5.430   5.927  12.393
12068W        W84493   4.730   6.035   0.780
12069W        W84494  10.151  43.944   2.351
12070W        W84495   3.701  20.557  13.810
12071W        W84496   0.922  23.944  11.158
12072W        W84497  26.961  16.763  10.562
12073W        W84498   6.999   1.498  14.066
12074W        W84499  29.159   2.862   1.886
12075W        W84500  26.290  39.319  11.424
12076W        W84501  23.197  25.269  12.440
12077W        W84502  26.278  37.560  10.984
12078W        W84503  34.983  20.333   2.350
12079W        W84504  21.057  32.667   2.251
12080W        W84505  39.810  31.363   4.583
12081W        W84506  29.960   5.865  13.011
12082W        W84507  22.825  22.137   0.777
12083W        W84508  30.586  11.286  10.483
12084W        W84509  23.241   7.109   3.828
12085W        W84510   7.650  40.087  14.399
12086W        W84511   4.272  26.597   1.303
12087W        W84512  19.388  10.654  13.254
12088W        W84513   3.329  28.766  10.517
12089W        W84514  11.057  38.358   2.784
12090W        W84515  14.151  28.396  11.111
12091W        W84516  27.832   4.622   0.486
12092W        W84517  31.651  14.530  11.484
12093W        W84518  25.013  26.447  14.398
12094W        W84519  32.661  26.623   1.794
12095W        W84520  24.996  11.326   4.678
12096W        W84521  22.315  31.870  13.118
12097W        W84522  43.491  18.219   3.699
12098W        W84523  42.332  12.756  13.540
12099W        W84524  26.178  20.103  13.115
12100W        W84525  10.605  11.169   0.164
12101W        W84526   8.194  17.987   4.132
12102W        W84527  38.956  19.582   2.417
12103W        W84528  17.295   8.620  14.310
12104W        W84529  13.120   9.438   0.080
12105W        W84530  32.528  35.241  11.155
12106W        W84531  16.168  22.497  12.655
12107W        W84532   3.958  39.400  12.353
12108W        W84533  23.817  32.464  10.776
12109W        W84534  31.367  32.560   1.785
12110W        W84535   8.746  36.943   5.156
12111W        W84536  26.368  12.350   2.861
12112W        W84537  19.164  36.838   1.852
12113W        W84538  17.137  32.903   0.984
12114W        W84539   8.456  12.817  13.011
12115W        W84540   6.705  28.221  11.369
12116W        W84541  31.520  21.455  12.080
12117W        W84542  44.748  27.459   0.401
12118W        W84543  21.829  30.512  10.723
12119W        W84544  40.483  43.338  11.450
12120W        W84545   2.226  37.377   4.230
12121W        W84546  14.244  11.091   1.256
12122W        W84547  35.656   5.684   0.796
12123W        W84548  39.463  26.627  14.474
12124W        W84549  20.654   0.448   2.622
12125W        W84550  12.291  32.486   1.705
12126W        W84551  16.439  25.241   4.195
12127W        W84552   5.812  12.412  13.424
12128W        W84553  14.992  36.816  11.949
12129W        W84554   1.558   3.981  14.546
12130W        W84555   6.966  41.990  14.287
12131W        W84556  29.175  15.513  11.189
12132W        W84557  12.099   6.334   3.159
12133W        W84558  32.588  19.308   3.105
12134W        W84559   1.003  24.312   4.957
12135W        W84560  26.876   6.286   1.632
12136W        W84561  27.939  31.424   3.886
12137W        W84562   2.400   0.558   0.912
12138W        W84563   1.746   2.943   4.786
12139W        W84564  37.945  44.763  13.269
12140W        W84565   5.787  41.067   0.546
12141W        W84566   9.682  20.409   4.553
12142W        W84567  18.191  11.309  14.303
12143W        W84568  33.536  26.612  11.659
12144W        W84569  37.406  31.895  10.854
12145W        W84570  39.476  27.648  11.363
12146W        W84571  42.083   2.288   2.380
12147W        W84572  14.813  37.333   3.291
12148W        W84573  15.573   8.967  11.047
12149W        W84574  23.764  35.896   3.185
12150W        W84575  18.414   1.021  12.012
12151W        W84576  34.832  27.323   0.731
12152W        W84577   1.687  41.639  11.215
12153W        W84578   4.144  36.951   2.225
12154W        W84579  10.604   5.386   2.991
12155W        W84580   4.389  36.392   3.372
12156W        W84581   1.023  10.673  13.958
12157W        W84582  14.230  10.343   4.652
12158W        W84583  29.109   4.391   1.499
12159W        W84584  32.085  26.448  14.456
12160W        W84585  42.392  10.225   1.841
12161W        W84586  24.156  44.003  14.365
12162W        W84587   8.365  44.498   0.705
12163W        W84588  28.739  40.809  14.310
12164W        W84589   9.256   9.385   1.208
12165W        W84590  37.567  25.292  13.518
12166W        W84591  13.456  41.888   4.887
12167W        W84592   6.219   6.128   3.782
12168W        W84593  30.131  38.358   4.197
12169W        W84594  27.985  20.331  12.907
12170W        W84595   0.828   5.443  13.386
12171W        W84596   3.483  40.390   0.077
12172W        W84597  39.528  29.202  12.460
12173W        W84598  30.379   1.918   0.777
12174W        W84599   8.956   2.879  14.463
12175W        W84600   0.596  23.287   2.521
12176W        W84601  29.547  16.193  10.792
12177W        W84602  28.696  18.102  12.086
12178W        W84603  41.372   4.986  11.456
12179W        W84604  27.929  17.731  12.147
12180W        W84605  26.928   4.875  14.068
12181W        W84606  32.564  26.534  14.241
12182W        W84607   7.237   2.616   0.712
12183W        W84608  44.625  28.415  11.622
12184W        W84609   1.988  38.071  12.394
12185W        W84610  28.411  44.379   3.314
12186W        W84611  21.819  27.128   3.110
12187W        W84612  42.450  27.478  14.828
12188W        W84613   5.358   2.881   2.773
12189W        W84614   7.295  44.750   3.223
12190W        W84615  36.320   3.554   1.837
12191W        W84616  40.741  30.054   4.070
12192W        W84617  22.735   4.492  13.503
12193W        W84618   9.341  13.397   3.624
12194W        W84619   0.931   1.024  10.225
12195W        W84620  27.487  39.533  10.644
12196W        W84621   7.837  11.356   4.693
12197W        W84622   8.130  42.364   0.003
12198W        W84623   0.753  19.292   4.606
12199W        W84624  20.217  11.620  11.591
12200W        W84625  20.341  26.072   1.372
12201W        W84626  31.578  17.291  14.403
12202W        W84627  42.988  18.144   3.548
12203W        W84628  22.553  10.581  10.267
12204W        W84629  37.558  29.951  12.340
12205W        W84630  22.074  40.359  11.876
12206W        W84631   9.715   1.793   4.949
12207W        W84632   9.142  26.973  11.758
12208W        W84633  23.727  33.120  12.032
12209W        W84634  36.546  35.388   2.623
12210W        W84635  31.918  11.619   0.495
12211W        W84636   6.841  24.044  10.548
12212W        W84637   5.466  10.154   2.003
12213W        W84638   9.299  33.499   3.271
12214W        W84639  17.618  34.479  11.522
12215W        W84640  15.718  34.574  11.359
12216W        W84641  17.846  26.129   4.678
12217W        W84642  18.298  23.915   4.479
12218W        W84643  22.079  22.598  14.758
12219W        W84644  35.940  41.274   1.191
12220W        W84645   5.422   0.813   3.716
12221W        W84646  43.236  12.781  14.682
12222W        W84647  28.073  35.996  14.358
12223W        W84648  32.516  18.154  12.511
12224W        W84649  25.996   6.548  12.020
12225W        W84650  33.901  20.639  12.603
12226W        W84651  41.421   4.282  11.803
12227W        W84652  23.487  11.824  11.117
12228W        W84653  18.726   4.337   0.386
12229W        W84654  41.286  30.427   0.894
12230W        W84655  15.530  39.751  13.439
12231W        W84656  10.840  19.958   4.124
12232W        W84657   4.254  35.653  12.889
12233W        W84658   5.160   3.340   3.702
12234W        W84659  18.676   8.018  12.926
12235W        W84660  26.952  31.184   0.776
12236W        W84661  35.898   6.655   0.874
12237W        W84662  18.651   4.003  11.168
12238W        W84663  19.763  20.111   2.459
12239W        W84664   5.828   1.861   3.770
12240W        W84665  23.008  30.111   0.792
12241W        W84666  13.581  37.021   3.858
12242W        W84667   9.129  30.648   1.275
12243W        W84668  29.094   9.380   0.648
12244W        W84669  43.943  13.674  13.042
12245W        W84670  24.523  16.262  14.311
12246W        W84671  44.961  23.476   3.347
12247W        W84672  37.759  29.030   3.166
12248W        W84673   2.295  37.392  12.877
12249W        W84674  15.301  23.760   3.276
12250W        W84675   8.095  38.412  10.174
12251W        W84676  25.882  38.337  13.752
12252W        W84677   4.650  18.325   0.377
12253W        W84678  38.089   3.025   2.887
12254W        W84679  27.944   1.261  14.926
12255W        W84680  33.476  32.391   1.430
12256W        W84681  27.535   9.764   3.859
12257W        W84682  33.368  35.058   4.684
12258W        W84683  18.734  21.220   4.537
12259W        W84684  11.906  11.133   0.894
12260W        W84685  39.283  23.133  10.654
12261W        W84686   5.208  40.825   3.672
12262W        W84687  18.775   9.036  10.682
12263W        W84688  25.637  40.695   2.314
12264W        W84689   7.213  39.403  12.571
12265W        W84690   9.815  19.645  11.446
12266W        W84691   3.351  32.174   1.664
12267W        W84692  32.027  23.243  13.956
12268W        W84693   2.993   3.375   4.293
12269W        W84694   7.453  15.308  14.297
12270W        W84695  39.091  26.613  14.854
12271W        W84696  28.647  30.795   2.382
12272W        W84697  24.034  38.835  12.498
12273W        W84698  24.908  29.051   1.105
12274W        W84699  44.502   3.391  12.586
12275W        W84700  13.298  40.611   3.720
12276W        W84701  38.040   6.597  12.586
12277W        W84702  18.238  38.515  13.695
12278W        W84703  19.164  22.059   0.187
12279W        W84704  18.764  18.564   3.371
12280W        W84705   3.194  31.347   4.872
12281W        W84706  16.702  21.079   0.392
12282W        W84707  25.112   2.155   4.091
12283W        W84708  24.527  16.048   2.668
12284W        W84709  37.507  41.292  11.081
12285W        W84710  10.322  14.079   2.824
12286W        W84711   2.399  35.548  14.551
12287W        W84712  40.874  36.447  13.878
12288W        W84713   4.564   1.933  13.031
12289W        W84714   3.955  40.452  11.236
12290W        W84715   3.491  24.754   0.338
12291W        W84716  44.422  39.741  11.455
12292W        W84717   1.449  43.790   2.874
12293W        W84718  32.517   0.278   4.081
12294W        W84719  27.602  39.473   2.434
12295W        W84720  28.556  29.165  11.128
12296W        W84721  16.114  19.313  11.581
12297W        W84722  25.965   9.094  14.795
12298W        W84723   1.804  15.199   1.664
12299W        W84724  20.707   5.391   1.492
12300W        W84725   5.134  42.436   0.954
12301W        W84726  29.979   6.171   1.352
12302W        W84727  23.067   9.730  12.077
12303W        W84728  22.075  10.878  11.598
12304W        W84729  21.082  38.345   4.703
12305W        W84730  21.786   0.228  12.013
12306W        W84731  30.915  36.028   3.293
12307W        W84732  41.397  23.630   0.502
12308W        W84733  22.285   4.824  14.833
12309W        W84734   9.213  14.201  14.899
12310W        W84735  13.296  41.149  10.777
12311W        W84736  33.557  35.364  14.870
12312W        W84737  26.580  17.899   3.233
12313W        W84738   4.739   6.978   2.890
12314W        W84739  30.669  21.768  13.415
12315W        W84740  28.274   2.848  12.302
12316W        W84741  26.641  36.720  14.375
12317W        W84742  11.366  39.484  10.534
12318W        W84743  25.485   1.645   2.689
12319W        W84744  36.784  36.621   2.316
12320W        W84745  24.474  27.698  12.002
12321W        W84746  12.131  27.249   2.413
12322W        W84747  20.624  20.724  14.042
12323W        W84748  24.006  14.627  13.581
12324W        W84749   7.750  18.620  11.556
12325W        W84750  24.937   5.687   4.704
12326W        W84751  37.850  23.941   3.837
12327W        W84752  27.966   5.101   4.145
12328W        W84753  14.895  10.908  13.408
12329W        W84754  36.105  30.195  14.447
12330W        W84755   9.231  12.612   1.393
12331W        W84756  22.138  41.469  12.899
12332W        W84757   2.087  11.271  13.416
12333W        W84758   5.234  28.735   2.645
12334W        W84759   5.495  22.571   4.171
12335W        W84760   0.980  41.001   4.154
12336W        W84761  43.399   8.913   0.424
12337W        W84762  22.030  13.359  10.976
12338W        W84763  22.298   5.238   3.867
12339W        W84764  44.003   1.024   3.326
12340W        W84765  38.844   8.707   4.249
12341W        W84766   8.415  13.041   0.942
12342W        W84767  23.786   7.699   3.348
12343W        W84768  18.634  28.709  14.056
12344W        W84769  30.554   4.538  11.184
12345W        W84770  31.358   9.275  14.552
12346W        W84771  33.146  12.202  11.062
12347W        W84772   7.663  22.103   4.865
12348W        W84773  19.335   8.776  12.930
12349W        W84774  19.033  22.962   4.116
12350W        W84775  23.173  16.753  12.037
12351W        W84776  27.636  40.486  13.627
12352W        W84777  42.078  44.485   0.654
12353W        W84778  12.831  12.069  12.114
12354W        W84779  14.364   9.716  11.248
12355W        W84780   4.320  29.390   0.929
12356W        W84781  16.040  23.005  13.396
12357W        W84782  10.174  33.039  11.111
12358W        W84783  43.980   4.347  14.524
12359W        W84784  26.034  35.885   2.380
12360W        W84785  21.977   0.274  10.727
12361W        W84786  13.432  28.616  10.702
12362W        W84787  35.804  33.888  12.965
12363W        W84788   0.375  24.619   4.379
12364W        W84789  40.034  21.603   3.840
12365W        W84790  26.626  38.857   4.719
12366W        W84791  13.574  38.122  13.746
12367W        W84792   0.222   3.816  11.742
12368W        W84793   6.847  27.341  11.212
12369W        W84794  28.112  17.089  10.132
12370W        W84795  44.706  12.234  12.324
12371W        W84796  38.795  17.733  12.203
12372W        W84797  32.480  35.336   4.355
12373W        W84798  18.514  42.282   4.226
12374W        W84799  27.632   2.471   2.447
12375W        W84800  12.312  22.848  10.486
12376W        W84801  10.056   7.855  12.602
12377W        W84802  27.119  24.689   1.507
12378W        W84803  13.245  40.621  12.577
12379W        W84804  38.176  32.241  14.986
12380W        W84805  35.409  19.139   2.647
12381W        W84806  35.883  39.334   1.168
12382W        W84807  17.696   6.560  12.420
12383W        W84808  39.013  13.365  11.432
12384W        W84809  18.679  30.467   4.768
12385W        W84810  34.828  10.236  14.304
12386W        W84811  13.929  32.613  12.920
12387W        W84812  18.762   1.966   9.762
12388W        W84813  25.135  34.088   3.711
12389W        W84814  32.376  31.278  14.734
12390W        W84815  40.111  34.931  11.813
12391W        W84816  44.748  15.933   9.991
12392W        W84817  41.516  22.130   3.726
12393W        W84818  11.187  37.954   2.463
12394W        W84819  36.832   8.175  12.562
12395W        W84820  19.495  20.988   4.113
12396W        W84821   8.305  39.962  11.555
12397W        W84822  18.025  11.670  11.165
12398W        W84823  31.913  28.971   2.775
12399W        W84824   6.716  36.359   0.256
12400W        W84825  39.378  42.371   0.518
12401W        W84826  18.709   8.036   1.205
12402W        W84827  43.459  23.428  11.243
12403W        W84828  15.230   6.383  14.688
12404W        W84829   7.632   0.222  11.622
12405W        W84830  13.161  16.760   1.848
12406W        W84831  41.671  27.180  10.418
12407W        W84832  39.078   7.328  13.335
12408W        W84833  21.527  31.921   0.772
12409W        W84834  13.037  39.070  11.536
12410W        W84835  22.961  44.366  11.638
12411W        W84836  34.062  27.322  10.665
12412W        W84837  22.955  28.178   2.725
12413W        W84838   7.112  41.224  13.871
12414W        W84839  10.741  43.982  13.249
12415W        W84840  16.717  19.374  13.326
12416W        W84841  40.477  42.826   3.773
12417W        W84842  27.303  13.202  12.113
12418W        W84843  14.666  24.428   5.558
12419W        W84844  13.698  37.642  13.146
12420W        W84845  20.388  30.526  13.325
12421W        W84846  38.283   7.439   3.714
12422W        W84847   7.243   9.032  10.990
12423W        W84848  37.642   3.691  12.993
12424W        W84849  32.185  30.574   1.552
12425W        W84850  42.025  44.788  13.027
12426W        W84851  11.120  28.893   4.148
12427W        W84852  22.610  20.553   4.075
12428W        W84853  25.350  10.299  10.662
12429W        W84854  13.746  23.929   1.257
12430W        W84855  24.516   3.356  14.435
12431W        W84856   8.526   7.725   0.494
12432W        W84857  30.937  23.545   5.241
12433W        W84858  15.185  14.525   3.151
12434W        W84859   7.198   4.519  14.947
12435W        W84860  29.904  17.867   9.762
12436W        W84861  11.108  30.276  13.776
12437W        W84862   9.394   7.805   0.184
12438W        W84863  22.491  25.182   1.263
12439W        W84864  23.935  41.046  12.039
12440W        W84865  22.123  39.172  12.265
12441W        W84866  18.292  43.516   1.479
12442W        W84867   4.348  27.633   4.608
12443W        W84868  35.129  15.330  11.459
12444W        W84869  20.117  21.266   0.249
12445W        W84870   2.265   8.124   4.113
12446W        W84871  26.490   9.746   3.364
12447W        W84872  28.443   2.317   1.784
12448W        W84873  10.265  36.951   4.050
12449W        W84874   9.895  26.505  11.861
12450W        W84875  35.572  43.939  14.839
12451W        W84876  42.291   8.765   0.299
12452W        W84877  12.564   9.117   0.812
12453W        W84878  11.086  10.790  12.032
12454W        W84879  33.986  42.593   2.693
12455W        W84880   7.942   6.395   4.542
12456W        W84881  16.162  24.168  13.856
12457W        W84882   6.214  35.426   1.173
12458W        W84883  31.112  24.071   0.073
12459W        W84884  20.154  12.476  13.252
12460W        W84885  40.037  10.264  14.460
12461W        W84886  23.837  29.937   1.143
12462W        W84887  33.650  30.964   3.175
12463W        W84888  17.483  20.866   4.457
12464W        W84889  30.387  43.515  12.419
12465W        W84890  32.175  42.558   2.821
12466W        W84891  31.523  37.397   1.412
12467W        W84892  40.506  35.364  13.284
12468W        W84893  17.730  33.018   2.066
12469W        W84894  36.642  11.384   2.944
12470W        W84895  12.218   3.023   4.248
12471W        W84896  41.760   3.521   5.013
12472W        W84897  31.881  28.721  12.020
12473W        W84898  43.948   1.806   4.605
12474W        W84899  21.225   9.864  10.680
12475W        W84900   1.050  38.953  10.209
12476W        W84901  35.102   1.839  14.278
12477W        W84902  36.906  22.765   1.987
12478W        W84903  16.131  27.619   0.806
12479W        W84904   8.588   7.883  12.470
12480W        W84905  27.526  26.979  12.632
12481W        W84906  42.068  11.608   4.158
12482W        W84907  42.712  40.482   4.230
12483W        W84908  14.937  35.633   5.127
12484W        W84909   1.633   7.386  12.121
12485W        W84910  11.388   4.731   0.377
12486W        W84911   4.900  35.919  11.550
12487W        W84912  28.628  36.437  10.684
12488W        W84913  33.482  24.027   3.647
12489W        W84914  28.094  11.417   1.922
12490W        W84915   3.779  33.328   2.768
12491W        W84916  35.813  24.521   0.499
12492W        W84917   1.436  41.863   3.240
12493W        W84918  28.698  34.424  10.680
12494W        W84919  39.466  27.898  13.928
12495W        W84920  22.240   2.302   2.389
12496W        W84921   2.307   9.649  13.406
12497W        W84922  42.306   3.886  13.252
12498W        W84923   4.468  11.912  11.477
12499W        W84924  12.700  39.423   2.237
12500W        W84925  25.580  40.791   4.564
12501W        W84926  24.927   7.803   3.689
12502W        W84927  22.206  11.697  14.875
12503W        W84928   7.265  42.809   3.245
12504W        W84929  28.027  25.251  11.714
12505W        W84930  40.995  28.805   0.715
12506W        W84931  20.226  44.508   3.772
12507W        W84932  44.983  39.324  10.651
12508W        W84933   9.193  23.031   2.277
12509W        W84934   9.133  32.776   3.705
12510W        W84935   2.935  38.268   3.313
12511W        W84936   5.886  16.002  10.138
12512W        W84937  42.061  44.531  12.126
12513W        W84938   0.577   1.923   4.046
12514W        W84939   9.316  21.842   3.754
12515W        W84940  24.073  19.078  10.492
12516W        W84941  40.255   0.961  10.976
12517W        W84942  26.940  29.103  10.576
12518W        W84943  30.591   4.301  14.253
12519W        W84944   3.173   0.459  12.886
12520W        W84945  29.687  36.358  14.019
12521W        W84946  29.032  42.089  12.981
12522W        W84947  16.562  40.350  11.922
12523W        W84948   1.012  13.261  10.715
12524W        W84949   8.202  29.344   1.909
12525W        W84950   7.687   4.373   0.106
12526W        W84951  40.787  41.592  12.533
12527W        W84952  20.390  31.479   0.174
12528W        W84953  20.959   2.443   0.839
12529W        W84954  35.915  21.997  11.829
12530W        W84955  40.812  42.564  14.461
12531W        W84956  44.720   1.298  13.878
12532W        W84957  38.385  44.714   1.857
12533W        W84958  17.335  37.390   2.325
12534W        W84959  42.078  42.392  13.974
12535W        W84960  11.389  33.990   0.397
12536W        W84961  15.992  43.831  12.850
12537W        W84962  44.375   5.446  11.329
12538W        W84963  44.380   7.656  14.458
12539W        W84964   3.526  29.230  10.597
12540W        W84965   9.830  13.281   0.876
12541W        W84966   6.852   7.987   4.535
12542W        W84967   2.775  30.607  11.182
12543W        W84968  25.997  44.462   0.053
12544W        W84969  26.001  31.892   9.825
12545W        W84970  14.554  43.974  13.892
12546W        W84971  20.920  42.300   4.184
12547W        W84972  23.665   0.487  10.966
12548W        W84973  27.652  41.306   1.407
12549W        W84974  24.452  22.069   1.532
12550W        W84975  14.114   0.515   2.523
12551W        W84976   0.079  18.201  11.715
12552W        W84977  26.986  27.560   0.178
12553W        W84978  19.152  42.473   0.915
12554W        W84979   6.196  44.002  13.397
12555W        W84980   1.497  18.943  11.360
12556W        W84981  34.973   7.703   2.645
12557W        W84982  37.428  27.929   2.090
12558W        W84983  25.589  15.291  11.464
12559W        W84984   7.803  41.947   3.538
12560W        W84985  35.431   7.829   4.713
12561W        W84986  41.852  24.578  14.017
12562W        W84987  37.288   4.851  13.568
12563W        W84988  11.650  23.313  14.830
12564W        W84989  38.142  23.116   1.708
12565W        W84990   0.203   4.903  13.747
12566W        W84991  21.706  16.254   2.661
12567W        W84992  28.787  27.936  11.435
12568W        W84993  34.816  21.929  11.898
12569W        W84994  10.543  14.666  14.821
12570W        W84995  22.997  35.558  14.382
12571W        W84996  23.558  17.568   0.922
12572W        W84997   8.350  32.827   4.202
12573W        W84998  36.430  28.952  13.644
12574W        W84999  35.956   8.347  11.588
12575W        W85000  44.879  19.721  14.404
12576W        W85001  40.403   1.520   3.353
12577W        W85002  35.663  26.686   2.878
12578W        W85003  12.631  34.411   1.278
12579W        W85004   1.781   6.641  11.203
12580W        W85005  41.306  29.156   3.276
12581W        W85006  27.541   6.402  12.601
12582W        W85007  37.346  38.538  12.671
12583W        W85008   1.800  16.844  12.585
12584W        W85009   7.861   4.139   2.509
12585W        W85010  10.587  29.995  13.938
12586W        W85011  14.686  18.495  13.814
12587W        W85012  28.137  10.690   4.063
12588W        W85013  16.825  21.053  10.538
12589W        W85014  43.200  10.191   4.875
12590W        W85015  16.595   5.742   1.668
12591W        W85016   5.040  12.879  11.428
12592W        W85017  36.468  29.841  14.521
12593W        W85018   4.418  31.818  14.489
12594W        W85019  35.429   1.271   0.356
12595W        W85020  34.269  17.059   2.874
12596W        W85021  42.717  25.481   2.295
12597W        W85022  33.101   2.656   2.878
12598W        W85023  33.621  44.712   4.488
12599W        W85024  14.560  41.245   0.696
12600W        W85025  15.953  14.639  13.169
12601W        W85026  21.173  20.133  11.902
12602W        W85027  14.625   8.160   0.613
12603W        W85028  26.856  10.197  13.569
12604W        W85029  22.750  22.103  10.890
12605W        W85030  20.451  44.837  13.614
12606W        W85031  39.800  29.206  11.179
12607W        W85032  21.761  10.228   4.305
12608W        W85033  26.185  34.084  12.470
12609W        W85034   9.407  18.606  12.490
12610W        W85035   9.370   9.359  11.527
12611W        W85036  41.492  24.461   2.921
12612W        W85037  12.852  10.311  14.490
12613W        W85038   9.253  18.842  10.710
12614W        W85039  22.472  24.403   0.455
12615W        W85040   4.959  37.268   0.582
12616W        W85041  10.782  44.703  14.052
12617W        W85042   8.077  41.262   3.750
12618W        W85043  28.972  42.855  13.600
12619W        W85044   8.347   9.137  11.125
12620W        W85045  42.509  26.722   1.972
12621W        W85046  28.047  27.071  13.825
12622W        W85047  28.393  36.474   1.753
12623W        W85048   2.405  21.719  14.720
12624W        W85049  44.846  19.640  11.499
12625W        W85050  20.462   4.424   2.937
12626W        W85051  11.795  33.085   3.845
12627W        W85052  19.979  36.598   0.685
12628W        W85053  41.578  36.403  13.276
12629W        W85054  12.126   8.411   2.823
12630W        W85055  25.943  32.469  12.877
12631W        W85056   6.446  24.570   1.908
12632W        W85057  17.215  35.984   2.352
12633W        W85058   2.482  39.418   1.374
12634W        W85059   3.830  27.451   0.337
12635W        W85060  10.646  34.471   0.452
12636W        W85061  33.103  32.374   1.868
12637W        W85062  25.732  40.164   2.296
12638W        W85063  19.536  26.559  10.455
12639W        W85064  30.310  24.510   2.798
12640W        W85065  42.006  29.396  10.606
12641W        W85066  34.583   9.572  13.409
12642W        W85067   0.418  44.462  13.014
12643W        W85068  32.440  38.865   0.290
12644W        W85069  20.227   8.566  12.618
12645W        W85070  13.850  37.032   1.856
12646W        W85071  20.082  26.736  11.426
12647W        W85072  25.698  17.184   1.915
12648W        W85073  42.964   4.980   1.490
12649W        W85074  31.983  15.156   1.781
12650W        W85075   1.044  26.960  11.063
12651W        W85076   0.878   5.627   3.479
12652W        W85077  37.852  27.558   2.735
12653W        W85078  19.146  35.368  11.566
12654W        W85079   5.132  29.554   2.330
12655W        W85080  26.196  35.612   1.758
12656W        W85081  14.459  44.353  13.411
12657W        W85082  16.556  27.632  13.156
12658W        W85083  12.626  11.814  13.547
12659W        W85084   4.272   0.035   2.274
12660W        W85085  32.790   9.523   4.254
12661W        W85086  25.723  13.627  11.960
12662W        W85087  32.561   3.738  13.800
12663W        W85088  10.230  39.450  14.792
12664W        W85089   8.780   4.250   4.365
12665W        W85090  10.708  27.269  11.983
12666W        W85091  38.908  30.973   0.807
12667W        W85092   3.622  42.717   3.214
12668W        W85093  18.553  20.188  11.446
12669W        W85094   9.366  35.790   2.784
12670W        W85095  17.601  35.934   0.439
12671W        W85096  32.713   2.178   1.797
12672W        W85097  29.189  22.728  11.146
12673W        W85098  10.093  44.994   3.770
12674W        W85099  43.040   7.640   1.792
12675W        W85100   7.809  18.055   1.332
12676W        W85101  18.524  30.037  13.045
12677W        W85102  37.539  15.643   3.776
12678W        W85103  18.736  44.357   1.392
12679W        W85104   7.409  31.922  11.773
12680W        W85105  30.878   0.722   2.185
12681W        W85106  32.428  28.254  12.622
12682W        W85107  36.906   9.787   4.518
12683W        W85108   3.920  25.074   0.445
12684W        W85109  17.714  38.857   0.508
12685W        W85110  23.655  40.936   4.092
12686W        W85111  32.015  29.484   2.409
12687W        W85112  43.293  28.971   4.742
12688W        W85113  44.702  12.728  11.607
12689W        W85114   9.454  17.235  11.921
12690W        W85115  36.328  16.009  13.501
12691W        W85116   7.182  43.442   0.175
12692W        W85117  32.455  12.565   2.883
12693W        W85118   5.647  40.450   3.292
12694W        W85119  44.039  27.262   1.903
12695W        W85120   6.272  26.314   3.255
12696W        W85121  14.169  27.652   2.007
12697W        W85122  40.285   2.331  12.472
12698W        W85123  33.743  38.162   1.728
12699W        W85124  27.690   1.674   2.175
12700W        W85125   5.796  38.784   4.252
12701W        W85126  24.338  29.644  12.844
12702W        W85127  25.118  42.999  14.624
12703W        W85128  25.085  43.284   0.515
12704W        W85129   5.725   9.404  14.343
12705W        W85130  33.625  28.206   0.498
12706W        W85131  36.863  42.893   2.227
12707W        W85132  14.630  11.109   0.891
12708W        W85133   3.868   9.717  11.112
12709W        W85134   1.444  18.226   2.800
12710W        W85135  30.003  44.052   0.225
12711W        W85136   5.220  21.588  11.558
12712W        W85137  40.272   5.930  13.951
12713W        W85138  10.325  31.137   0.739
12714W        W85139  17.079   0.887   3.715
12715W        W85140   2.855  18.708   4.560
12716W        W85141  14.004   2.890   4.357
12717W        W85142   5.956  14.806  12.371
12718W        W85143  27.477  35.364   1.028
12719W        W85144  10.656  41.325   3.499
12720W        W85145  31.795  11.712   5.030
12721W        W85146  39.886   0.742   5.524
12722W        W85147  16.541  10.766   0.523
12723W        W85148  18.612  25.058  12.034
12724W        W85149  16.179  20.786  10.596
12725W        W85150  14.099  15.664  14.342
12726W        W85151  29.056  25.973  13.114
12727W        W85152  30.416  30.678   1.866
12728W        W85153  38.990  20.600   1.727
12729W        W85154  21.237  15.830   4.206
12730W        W85155  14.586  34.593   0.360
12731W        W85156  30.708  26.468  11.678
12732W        W85157  36.545  43.358   2.880
12733W        W85158  10.205  18.850   4.603
12734W        W85159  36.080   6.479   0.399
12735W        W85160  25.199  35.397   1.682
12736W        W85161  12.413  36.090   3.607
12737W        W85162  11.045  37.391   3.719
12738W        W85163  31.156   0.450   2.558
12739W        W85164  44.541  43.160   0.414
12740W        W85165   0.525  41.408  14.803
12741W        W85166  40.100   5.772   3.566
12742W        W85167  24.878  35.982  14.252
12743W        W85168  23.205  28.054   3.354
12744W        W85169  34.360  16.711  14.162
12745W        W85170  25.043  34.028   4.241
12746W        W85171   7.384  40.021   1.869
12747W        W85172  26.094  14.057  13.246
12748W        W85173  25.236   1.165  11.649
12749W        W85174   6.662  23.169  13.689
12750W        W85175  25.430  15.074  13.073
12751W        W85176  21.762  40.360  12.948
12752W        W85177  16.155  44.414   3.379
12753W        W85178   2.334  42.894  11.891
12754W        W85179  43.813   5.941  12.092
12755W        W85180  10.330   8.429  13.388
12756W        W85181  15.242  36.597   2.953
12757W        W85182  24.486  16.360  12.299
12758W        W85183   8.236  41.944   2.234
12759W        W85184  42.985   0.567  14.460
12760W        W85185  28.175  44.703   1.741
12761W        W85186  42.205  16.772  14.979
12762W        W85187   5.425  31.278   2.614
12763W        W85188  34.237   2.061  11.197
12764W        W85189  12.279  11.151   4.103
12765W        W85190  24.944   8.415  13.627
12766W        W85191  15.078   3.800   0.683
12767W        W85192  27.151  40.597  12.411
12768W        W85193  34.984  19.610   0.495
12769W        W85194  42.998  11.849  11.398
12770W        W85195  33.177  28.470  13.830
12771W        W85196  21.444  16.786  14.664
12772W        W85197  11.846   4.606   0.158
12773W        W85198  44.447  42.869   2.698
12774W        W85199  37.844  38.797   4.639
12775W        W85200  40.507  33.610   1.515
12776W        W85201  10.432   9.955  13.545
12777W        W85202  37.641   9.810   0.006
12778W        W85203  25.267   2.005   3.008
12779W        W85204  21.442  35.833   3.711
12780W        W85205  20.136  20.976   0.693
12781W        W85206   8.860  15.754  13.072
12782W        W85207  38.973   0.264  12.324
12783W        W85208  15.184  14.234   0.943
12784W        W85209   2.961  23.958   3.248
12785W        W85210  13.257  34.811   0.255
12786W        W85211  43.922  41.632  12.381
12787W        W85212  25.728  40.471   3.708
12788W        W85213   3.733   1.785  11.683
12789W        W85214  27.077   1.213  13.825
12790W        W85215  18.738  17.595  12.200
12791W        W85216  26.401  17.121  13.282
12792W        W85217  12.571  26.417  14.305
12793W        W85218   3.405  34.001  11.562
12794W        W85219   7.211  32.661   1.343
12795W        W85220  43.798  35.191   2.784
12796W        W85221   5.329  43.895  11.750
12797W        W85222  42.291   0.490   2.733
12798W        W85223  29.629  44.688  11.093
12799W        W85224  19.523  38.393  12.481
12800W        W85225  29.645   3.216  10.673
12801W        W85226  24.027  22.600   1.731
12802W        W85227   3.003   8.682   3.206
12803W        W85228  20.800   8.428   1.280
12804W        W85229   3.717  29.957   3.625
12805W        W85230  44.749  16.126   1.186
12806W        W85231  39.007  44.825  11.952
12807W        W85232   6.198  19.072  13.354
12808W        W85233  14.674  14.757   0.412
12809W        W85234  22.536  34.582  12.126
12810W        W85235  23.663  41.465   1.654
12811W        W85236  13.696  10.555  12.064
12812W        W85237  32.634  13.337   4.085
12813W        W85238  41.941   9.318   0.296
12814W        W85239  11.879   4.241  14.796
12815W        W85240  14.640  32.440   4.225
12816W        W85241  41.017  18.074  14.998
12817W        W85242  25.731  14.580   4.122
12818W        W85243   7.271   4.283   0.408
12819W        W85244  37.162  39.635   1.205
12820W        W85245  29.844  25.454  13.674
12821W        W85246  17.193  39.733   2.311
12822W        W85247   8.174  15.056  12.634
12823W        W85248   5.810  13.751   3.804
12824W        W85249  26.570  26.699   0.731
12825W        W85250   0.319  37.850  14.592
12826W        W85251  13.326  25.455  10.610
12827W        W85252  43.878   8.889  10.348
12828W        W85253  22.051  28.557   1.277
12829W        W85254  22.714  29.212  13.436
12830W        W85255  35.565  32.888   3.272
12831W        W85256  32.847  10.785   4.522
12832W        W85257   4.121   9.705   0.892
12833W        W85258  38.801  28.982   1.799
12834W        W85259   2.908  35.416  13.492
12835W        W85260  36.572  11.264  12.919
12836W        W85261  38.558  41.093  13.353
12837W        W85262  16.871  31.973   2.256
12838W        W85263  34.673  18.865  13.870
12839W        W85264  28.375  13.625   2.226
12840W        W85265  20.709  38.902   2.296
12841W        W85266   3.345   8.546   2.201
12842W        W85267  41.016   9.859  11.986
12843W        W85268   3.271  10.007   1.295
12844W        W85269  43.309   0.481  12.045
12845W        W85270  15.341  43.725   4.523
12846W        W85271   5.507   0.958  10.270
12847W        W85272  13.521  32.096   1.111
12848W        W85273  28.179  19.598   0.812
12849W        W85274  14.133  35.533   2.303
12850W        W85275  33.534   9.264   3.189
12851W        W85276  31.947  29.902  11.177
12852W        W85277   4.549  14.075  11.184
12853W        W85278  39.513   7.461  13.112
12854W        W85279  25.652   8.019   4.836
12855W        W85280  10.853  23.904   2.447
12856W        W85281  21.298  21.229   0.198
12857W        W85282   7.876  16.543  11.693
12858W        W85283  43.601  34.781  12.315
12859W        W85284  32.205  19.133   2.336
12860W        W85285   1.071  36.480   3.206
12861W        W85286  25.757  43.317   3.106
12862W        W85287  27.517  21.442  11.568
12863W        W85288  20.125  15.943  13.285
12864W        W85289  31.864  19.959  14.006
12865W        W85290  25.779  11.392   0.735
12866W        W85291  21.621  20.275   0.435
12867W        W85292  21.728  40.612  13.405
12868W        W85293  31.387  37.504  14.805
12869W        W85294  12.837  17.474  11.269
12870W        W85295  41.805   1.808   0.280
12871W        W85296   5.701   1.232   1.113
12872W        W85297   5.656   5.880  11.906
12873W        W85298  31.086  25.213  11.431
12874W        W85299   8.411  44.249  11.924
12875W        W85300  27.616  20.145  10.415
12876W        W85301  24.813  18.125  14.899
12877W        W85302  18.672  12.613   1.070
12878W        W85303  32.609  39.629  11.177
12879W        W85304  21.497  21.952   2.728
12880W        W85305  25.603  36.184   2.340
12881W        W85306  41.863  33.174   0.351
12882W        W85307  15.085  12.604   4.243
12883W        W85308   2.519  14.822  13.822
12884W        W85309  29.057  13.616   3.220
12885W        W85310  23.740   3.484   2.182
12886W        W85311  44.528  40.335   2.182
12887W        W85312  43.495  39.932   0.171
12888W        W85313  28.141  19.865  13.829
12889W        W85314   7.299  29.951  11.933
12890W        W85315   8.849  24.446   3.586
12891W        W85316  40.405  10.411   5.076
12892W        W85317  27.905  27.365  14.208
12893W        W85318  38.162  27.077  11.060
12894W        W85319  12.401  26.289  10.731
12895W        W85320  31.474  33.505  13.712
12896W        W85321  33.369  25.398   0.854
12897W        W85322  20.629   6.724  11.648
12898W        W85323  25.004  31.837  12.353
12899W        W85324   6.641   9.851  13.467
12900W        W85325  17.719  40.264   1.789
12901W        W85326  11.639  41.389  14.013
12902W        W85327  29.509   9.681  11.588
12903W        W85328   0.247  21.038   2.010
12904W        W85329  25.109  16.555   1.304
12905W        W85330  17.727  16.778   0.046
12906W        W85331  16.263  44.357  12.149
12907W        W85332   4.416  24.041  11.580
12908W        W85333   2.450  33.445  14.605
12909W        W85334  27.329  29.193   1.305
12910W        W85335  44.384  27.181  11.966
12911W        W85336  34.071  30.781   1.869
12912W        W85337  35.649  28.219  10.776
12913W        W85338  12.778   1.245   3.145
12914W        W85339  14.048  12.735   0.482
12915W        W85340  19.280   3.907  14.430
12916W        W85341  34.686  38.509  13.522
12917W        W85342  18.385  38.927  10.623
12918W        W85343  25.991  43.108  10.216
12919W        W85344  19.854  21.785  13.637
12920W        W85345  17.156  26.142  14.994
12921W        W85346  18.797  13.184   3.140
12922W        W85347  24.165  28.063   1.692
12923W        W85348   6.642   9.815   0.329
12924W        W85349  19.328  36.440   4.117
12925W        W85350  36.829   0.931  14.379
12926W        W85351   2.209  17.991   4.667
12927W        W85352   0.526  18.998  12.905
12928W        W85353  38.422   8.481   1.608
12929W        W85354  25.182  15.333   3.673
12930W        W85355  17.340  27.193  12.957
12931W        W85356   5.046   8.722  12.948
12932W        W85357   9.632  36.750   2.127
12933W        W85358  23.937  24.152  14.360
12934W        W85359  15.667  27.742   1.688
12935W        W85360  31.626  29.022   3.865
12936W        W85361  13.699  33.415   1.372
12937W        W85362  39.742  26.941   2.254
12938W        W85363   1.245  13.414  11.979
12939W        W85364  18.046  19.528  13.592
12940W        W85365  35.563  13.682   0.297
12941W        W85366  38.350   2.979  14.919
12942W        W85367   6.428  39.100   3.189
12943W        W85368   8.588  27.960   2.398
12944W        W85369  41.292  14.665  13.995
12945W        W85370   2.036  31.992  12.581
12946W        W85371  11.206  13.292  12.682
12947W        W85372  33.181  25.867  12.060
12948W        W85373   7.858  19.232   2.796
12949W        W85374  24.533  42.758   3.169
12950W        W85375  39.714  44.983   5.193
12951W        W85376  29.581   1.401  12.585
12952W        W85377   7.582  44.881   4.561
12953W        W85378  41.235  42.442  11.884
12954W        W85379  21.726  43.806   2.391
12955W        W85380  11.185  33.156  14.992
12956W        W85381  20.777   5.273   2.815
12957W        W85382   1.732  29.150  13.489
12958W        W85383  27.476  22.422   2.197
12959W        W85384  10.340  20.185  11.919
12960W        W85385  25.427  34.080  12.050
12961W        W85386  19.287  44.423   3.413
12962W        W85387  37.369  10.438   4.045
12963W        W85388  33.043  12.107  14.144
12964W        W85389  22.215  14.989  11.555
12965W        W85390   5.502   0.327  11.984
12966W        W85391  39.869  29.696  12.904
12967W        W85392  40.996  25.154   1.952
12968W        W85393  39.223  42.641   1.999
12969W        W85394  26.696  16.270  12.875
12970W        W85395  32.027  38.298   3.144
12971W        W85396  26.124  28.731   2.496
12972W        W85397  12.150  15.258   1.174
12973W        W85398  26.571   1.354   1.018
12974W        W85399   4.198  29.557   4.764
12975W        W85400  24.461  24.691  12.839
12976W        W85401  20.940  32.715  11.947
12977W        W85402  19.756  38.510   5.026
12978W        W85403  25.735   4.418  11.329
12979W        W85404   6.500  25.927  11.280
12980W        W85405  29.425   4.288  11.544
12981W        W85406   9.190  10.065  10.372
12982W        W85407  43.928  31.884  13.793
12983W        W85408  44.628  22.947  10.049
12984W        W85409  12.748  22.584   4.808
12985W        W85410  39.751   2.295  12.393
12986W        W85411  38.348  27.096  12.373
12987W        W85412   3.479  27.263   3.781
12988W        W85413  44.497  32.211   1.367
12989W        W85414  10.059  12.837  11.074
12990W        W85415  35.090  33.393  14.368
12991W        W85416  42.124   8.944   1.144
12992W        W85417   2.962  39.072   0.673
12993W        W85418   3.904  44.906  10.891
12994W        W85419  40.945  43.633  12.651
12995W        W85420   0.858  27.159   2.873
12996W        W85421  40.944  11.172  13.707
12997W        W85422   9.351  41.948   4.574
12998W        W85423  13.737   5.876   3.796
12999W        W85424  35.098   5.468   3.277
13000W        W85425  24.315  25.974   3.179
13001W        W85426   1.799  38.385   4.667
13002W        W85427  43.839  40.538  12.550
13003W        W85428   8.107   1.384  10.574
13004W        W85429  16.543   6.180  13.423
13005W        W85430  10.635  20.073  14.458
13006W        W85431  15.996   1.544   4.132
13007W        W85432   3.144  29.226   2.313
13008W        W85433  16.682  17.212  13.179
13009W        W85434  23.707   6.761  13.493
13010W        W85435  42.004   8.177  13.334
13011W        W85436  31.315  38.056   1.407
13012W        W85437   5.637  36.811   0.840
13013W        W85438   8.956  20.464  12.550
13014W        W85439  31.416  29.113   2.814
13015W        W85440  29.486  38.047  13.800
13016W        W85441  40.805   2.282  13.813
13017W        W85442  15.307   1.863   1.187
13018W        W85443  11.787   7.693  11.224
13019W        W85444  20.667  31.522   1.656
13020W        W85445  13.652   5.676   0.848
13021W        W85446  20.510  21.712   0.408
13022W        W85447   9.836   9.526  10.732
13023W        W85448  10.342  11.546   1.664
13024W        W85449  17.757   1.788   4.062
13025W        W85450  43.878  24.722   0.003
13026W        W85451  19.987  40.531   0.307
13027W        W85452   6.784  25.329  14.002
13028W        W85453  17.141  21.125   2.416
13029W        W85454  36.249  41.272  10.621
13030W        W85455  37.517  35.913   3.865
13031W        W85456   1.350  25.522  12.563
13032W        W85457  20.704   3.958   2.806
13033W        W85458  34.052  32.915   2.785
13034W        W85459  23.844   8.231  13.105
13035W        W85460  22.402  40.604  14.566
13036W        W85461   0.666  13.150   4.170
13037W        W85462  35.081  29.921  14.400
13038W        W85463  31.485  35.816  11.505
13039W        W85464   3.907  34.856  13.147
13040W        W85465   8.827  27.095  14.390
13041W        W85466  15.689  19.006   2.601
13042W        W85467  14.182  34.131   0.486
13043W        W85468  30.493  32.363   2.572
13044W        W85469   6.218  20.382  13.818
13045W        W85470  23.581  21.888   1.893
13046W        W85471  44.368  40.907   3.055
13047W        W85472  43.030  19.149  11.591
13048W        W85473  14.589  40.875   1.421
13049W        W85474   1.482  26.041  14.421
13050W        W85475  38.781  23.761  12.440
13051W        W85476   2.214  14.545   5.170
13052W        W85477  32.139  38.564   3.576
13053W        W85478  17.323  12.552  14.009
13054W        W85479  40.565  24.986   3.367
13055W        W85480   3.890  23.674   4.636
13056W        W85481   3.731  43.554  12.523
13057W        W85482  22.638  39.435   0.275
13058W        W85483   9.821  38.142   4.661
13059W        W85484  39.549  30.831   0.326
13060W        W85485   3.278  23.529   1.814
13061W        W85486  38.420  35.626   4.379
13062W        W85487  44.786  22.696  11.627
13063W        W85488  24.716  14.578  12.063
13064W        W85489  11.756  11.454   0.104
13065W        W85490  32.725  17.081   4.173
13066W        W85491  10.644   1.527  10.640
13067W        W85492  32.472  23.541  13.982
13068W        W85493  13.845  26.188  14.348
13069W        W85494  30.460   6.703  12.447
13070W        W85495  15.519  33.197  12.187
13071W        W85496   5.728  30.757   4.896
13072W        W85497  21.830  39.891  10.722
13073W        W85498   7.079   0.173  13.914
13074W        W85499  42.220  35.446   1.337
13075W        W85500  27.202  31.579  10.471
13076W        W85501  30.640  26.717   2.243
13077W        W85502   6.411  32.949   3.902
13078W        W85503  31.692  32.153   5.061
13079W        W85504   9.646  27.387  10.642
13080W        W85505   7.883  33.859   3.652
13081W        W85506  15.801  24.535   1.935
13082W        W85507   5.829  26.080   4.580
13083W        W85508   9.873  31.159  11.215
13084W        W85509  21.433   2.027  14.987
13085W        W85510  40.323  33.723  11.701
13086W        W85511  34.905   6.993  12.283
13087W        W85512  32.940  44.131   1.174
13088W        W85513  25.990   3.459  10.971
13089W        W85514  25.623  10.720  10.953
13090W        W85515  24.149   7.461  13.387
13091W        W85516   8.599   6.358  10.654
13092W        W85517  22.238   0.243   3.676
13093W        W85518   1.523  39.408  14.263
13094W        W85519  19.357  15.085   1.312
13095W        W85520   2.203  32.871  12.940
13096W        W85521  27.089  43.267   2.817
13097W        W85522  39.427  26.908   1.790
13098W        W85523  35.698   8.926   0.524
13099W        W85524  21.022  20.797   3.164
13100W        W85525  16.798  43.853   4.373
13101W        W85526  20.271  13.223  11.390
13102W        W85527   6.039   4.018   1.839
13103W        W85528  44.325  30.680  12.474
13104W        W85529  40.009  35.986  10.741
13105W        W85530  29.123  19.196   2.960
13106W        W85531  41.998   0.071  13.499
13107W        W85532  40.647  22.123   3.339
13108W        W85533  21.915  12.629   0.912
13109W        W85534  30.220  23.016   0.392
13110W        W85535  19.308   1.962   2.654
13111W        W85536  39.432   8.154   1.314
13112W        W85537  31.562  33.761   0.531
13113W        W85538  42.526  19.103   2.173
13114W        W85539   0.397  21.093   4.505
13115W        W85540  11.633  42.268   2.944
13116W        W85541  12.271   3.682   2.243
13117W        W85542   8.857   7.040  14.364
13118W        W85543  37.856   4.716   3.227
13119W        W85544   9.665  11.275   4.479
13120W        W85545   3.398  44.837   4.666
13121W        W85546  39.322   9.748  14.323
13122W        W85547  44.297  10.978   4.440
13123W        W85548  30.998  10.429   4.077
13124W        W85549  34.023   2.664  11.955
13125W        W85550  25.323  39.399  11.685
13126W        W85551  35.692  42.797   0.719
13127W        W85552   5.296   8.813  14.729
13128W        W85553  32.990  37.387  11.138
13129W        W85554   1.348   4.130   4.480
13130W        W85555   3.825  12.312  14.734
13131W        W85556  19.719  13.902  11.076
13132W        W85557  29.049  30.254   9.874
13133W        W85558  34.066  17.164  12.372
13134W        W85559   3.931  26.974   1.819
13135W        W85560  17.870   5.709   4.705
13136W        W85561  12.623  19.543   2.604
13137W        W85562   9.165  37.606   3.877
13138W        W85563   0.783  23.945   2.923
13139W        W85564  14.494  37.515  10.206
13140W        W85565   9.626  17.249  13.149
13141W        W85566  26.632  43.173  11.861
13142W        W85567  29.256   2.971   4.489
13143W        W85568  42.408  37.823  10.774
13144W        W85569  44.196  36.118  14.479
13145W        W85570   4.417   9.076   4.615
13146W        W85571   0.230   4.743  12.862
13147W        W85572  29.441  39.159  11.107
13148W        W85573  17.197  44.741  10.137
13149W        W85574  23.688  44.983  11.347
13150W        W85575  30.441  10.833   4.221
13151W        W85576  17.236  40.402  11.231
13152W        W85577  34.165  35.552   1.147
13153W        W85578  33.528  22.710   2.381
13154W        W85579   4.137   9.451  11.452
13155W        W85580  30.365  18.303   1.257
13156W        W85581  23.247  43.573  14.841
13157W        W85582  25.434  28.695  13.410
13158W        W85583   8.661  22.190   1.850
13159W        W85584  11.258  17.371   3.142
13160W        W85585  34.049  34.999   0.968
13161W        W85586  10.675   3.663  11.615
13162W        W85587   8.873  16.000  11.580
13163W        W85588   9.523  13.904  12.295
13164W        W85589  16.048  37.325  12.458
13165W        W85590  31.406   4.483   0.874
13166W        W85591  26.093  44.318  12.921
13167W        W85592  27.103  32.489  12.450
13168W        W85593  38.569   2.851   0.368
13169W        W85594  27.309   6.887  12.605
13170W        W85595   8.412  22.663   3.258
13171W        W85596   9.342  13.295   0.702
13172W        W85597   2.244  24.594  10.550
13173W        W85598  36.301   3.775  12.867
13174W        W85599  13.545   5.377  13.920
13175W        W85600  31.512  30.909   4.934
13176W        W85601   1.265   7.178  14.298
13177W        W85602  16.201  15.976   4.785
13178W        W85603  18.829  37.951  12.195
13179W        W85604  18.642  13.167  14.749
13180W        W85605  24.784   1.791   4.642
13181W        W85606  30.130  23.754   2.224
13182W        W85607  20.792   2.453   4.687
13183W        W85608  39.375   3.061  14.365
13184W        W85609  20.055  10.383   2.119
13185W        W85610  37.810  35.893   2.591
13186W        W85611  35.814  21.745   2.261
13187W        W85612  36.437  43.390  11.380
13188W        W85613  25.459  34.038   1.324
13189W        W85614  16.467  19.327   4.184
13190W        W85615  21.251  18.621  10.632
13191W        W85616  41.966  36.024   4.639
13192W        W85617  35.505   7.682   3.786
13193W        W85618  31.475  33.554   1.406
13194W        W85619   5.272  31.661  10.578
13195W        W85620  18.134  33.586  13.332
13196W        W85621  44.895  33.464   4.929
13197W        W85622  15.203  31.762  12.475
13198W        W85623  16.365  19.198  12.057
13199W        W85624  39.928  42.323   0.938
13200W        W85625  22.901  30.381  14.584
13201W        W85626  14.076  42.928  12.818
13202W        W85627  11.748  33.586  14.000
13203W        W85628  32.462   6.762   3.568
13204W        W85629   3.699  33.575  10.651
13205W        W85630  38.881  25.499   3.519
13206W        W85631   1.888  40.308   3.197
13207W        W85632  10.809  13.265   0.827
13208W        W85633  10.208  42.547  10.522
13209W        W85634  35.492  11.881   4.773
13210W        W85635  22.050  18.262  11.465
13211W        W85636  19.150  17.616   3.340
13212W        W85637  14.885   6.870   3.675
13213W        W85638  29.945  18.139  14.770
13214W        W85639   5.091  43.423   1.805
13215W        W85640  22.103  33.724   0.788
13216W        W85641  43.413  32.919   3.717
13217W        W85642  10.072  13.728   0.757
13218W        W85643  16.319  34.173   2.392
13219W        W85644  28.449  15.740   4.192
13220W        W85645  34.929  38.867  13.216
13221W        W85646   7.199   7.163   4.612
13222W        W85647  38.949   6.539  11.642
13223W        W85648  38.823   0.254  11.551
13224W        W85649  23.151  39.038  14.819
13225W        W85650  34.891  26.447  14.305
13226W        W85651   1.880  19.693  11.459
13227W        W85652   1.180  42.761   3.695
13228W        W85653  28.108  43.040   3.274
13229W        W85654   5.548  26.466  12.928
13230W        W85655   0.596  15.177   0.205
13231W        W85656  16.576  23.994  14.779
13232W        W85657   9.058  12.883  14.245
13233W        W85658  10.007  10.775  11.999
13234W        W85659  31.643  15.490  13.949
13235W        W85660  27.894  29.570  13.443
13236W        W85661  28.136  37.678  11.674
13237W        W85662  11.337   0.988   4.329
13238W        W85663  32.912  24.227   1.297
13239W        W85664   4.978   4.960  10.743
13240W        W85665   8.951  12.138   2.659
13241W        W85666  31.714  14.287   4.669
13242W        W85667   8.450  27.760   2.888
13243W        W85668  14.568  13.675   2.253
13244W        W85669  36.219  32.685  13.854
13245W        W85670  29.468  41.085   2.428
13246W        W85671  16.886  16.746   3.159
13247W        W85672  13.354  21.134   3.577
13248W        W85673   8.638  42.280   0.876
13249W        W85674  11.700  19.583   4.165
13250W        W85675   9.698  24.975  11.674
13251W        W85676  26.674  23.963   3.041
13252W        W85677  44.411   4.617  14.580
13253W        W85678  42.567  39.365   0.836
13254W        W85679  27.441  44.519  14.401
13255W        W85680  26.737  13.117  12.498
13256W        W85681   6.796  10.201   2.128
13257W        W85682   8.615  19.057  11.771
13258W        W85683  44.695   8.910  14.807
13259W        W85684   6.443  37.780  11.067
13260W        W85685  17.652  31.097   0.345
13261W        W85686   8.330   2.724   2.421
13262W        W85687  39.150  17.306   0.741
13263W        W85688  40.616  13.691  12.809
13264W        W85689   2.237  34.705  14.876
13265W        W85690  34.376  12.589  13.925
13266W        W85691  17.412  36.983  11.506
13267W        W85692  42.845  35.178   2.825
13268W        W85693   7.150   9.923  11.022
13269W        W85694  34.705  33.465   1.912
13270W        W85695  23.758  12.889  11.564
13271W        W85696  17.920  37.315  14.462
13272W        W85697   9.163  15.720  11.061
13273W        W85698  36.176  35.806  14.548
13274W        W85699  28.930  32.590  12.543
13275W        W85700   3.106  23.560  14.372
13276W        W85701   7.190   7.746   3.753
13277W        W85702   4.867  20.235   1.877
13278W        W85703  26.923   3.312  10.796
13279W        W85704  30.097  20.470   3.643
13280W        W85705  43.462  19.730  13.003
13281W        W85706  23.767  19.822   1.451
13282W        W85707  26.188  23.675   2.803
13283W        W85708  32.157  26.689   0.900
13284W        W85709  35.288   4.256  10.574
13285W        W85710  17.704  25.156   4.778
13286W        W85711  12.635   0.982  12.527
13287W        W85712   7.349  18.134   3.560
13288W        W85713  32.220  34.904  13.147
13289W        W85714   3.392   2.871   3.666
13290W        W85715  21.232   1.472   0.945
13291W        W85716  29.117  35.646   3.656
13292W        W85717   6.862  10.349   0.285
13293W        W85718  12.617   0.494  10.903
13294W        W85719   5.278  13.670   2.740
13295W        W85720  27.543  27.233   3.002
13296W        W85721  42.394  16.310   0.242
13297W        W85722   5.768  10.918  13.431
13298W        W85723   4.874  17.704  12.979
13299W        W85724  22.218   7.158   3.703
13300W        W85725   4.197   5.444   1.725
13301W        W85726   6.910  26.736  10.421
13302W        W85727   4.689  38.865   4.622
13303W        W85728  44.138  11.165  11.160
13304W        W85729  32.454  28.482   1.063
13305W        W85730  27.737  30.344   0.737
13306W        W85731  15.998  16.791  14.309
13307W        W85732  12.042  31.443  11.392
13308W        W85733  44.250  14.747   2.319
13309W        W85734  29.628  10.600   2.965
13310W        W85735  26.992  42.908  13.532
13311W        W85736   7.248   7.426  12.882
13312W        W85737  32.134  34.297   3.610
13313W        W85738   9.234  44.842  12.182
13314W        W85739  29.981  33.855  11.555
13315W        W85740  37.259  22.365   4.599
13316W        W85741  29.056  32.365  10.326
13317W        W85742  26.419  32.334  13.009
13318W        W85743  14.640  39.498   9.943
13319W        W85744  37.034   0.245   4.187
13320W        W85745  19.021  30.993  11.950
13321W        W85746  36.418  25.472  11.076
13322W        W85747  35.398  23.792   0.973
13323W        W85748  28.025   1.728   0.476
13324W        W85749  32.120  21.621  10.931
13325W        W85750  40.026  35.278  13.450
13326W        W85751  44.373  35.426  11.855
13327W        W85752  43.220  37.728   1.854
13328W        W85753  11.791  11.129  13.107
13329W        W85754   4.893  15.595   4.177
13330W        W85755  28.537  39.582   4.119
13331W        W85756  34.393   6.840   1.449
13332W        W85757  32.400   3.009  14.386
13333W        W85758  40.229  28.174  12.037
13334W        W85759  44.738  19.748  10.663
13335W        W85760  14.723   4.799  14.418
13336W        W85761   5.861  32.649  11.191
13337W        W85762  14.373   8.659  13.389
13338W        W85763  19.619   5.057  11.154
13339W        W85764   9.653   5.959   9.846
13340W        W85765  13.196  19.072  12.559
13341W        W85766   5.254  13.887   0.187
13342W        W85767  26.189  34.868   2.183
13343W        W85768  29.644  31.753   3.115
13344W        W85769   2.997   6.653   2.293
13345W        W85770  30.395   8.261  14.812
13346W        W85771  38.381   7.086   0.018
13347W        W85772  27.189  36.441  14.823
13348W        W85773  16.679  25.110  12.812
13349W        W85774  14.212  25.690   1.314
13350W        W85775  24.739   2.838  13.564
13351W        W85776  35.651  40.576  11.482
13352W        W85777  10.753  16.194  13.385
13353W        W85778  16.252   9.215   3.289
13354W        W85779  39.072  31.495   0.798
13355W        W85780  30.927  30.851   3.164
13356W        W85781  26.919  37.815  12.493
13357W        W85782  40.990  28.738   1.837
13358W        W85783  37.301  17.712   0.785
13359W        W85784  26.434  23.271   1.848
13360W        W85785  43.716  18.243  12.007
13361W        W85786   3.183   4.494   3.630
13362W        W85787  27.212  10.834   1.311
13363W        W85788  14.313   3.513  11.218
13364W        W85789  18.650  20.009  13.224
13365W        W85790  35.418  30.455   0.819
13366W        W85791  36.530  24.201  12.104
13367W        W85792  30.134   8.758   1.185
13368W        W85793  27.064  35.573   4.583
13369W        W85794  12.381   2.923   0.385
13370W        W85795  29.193   0.448   3.743
13371W        W85796  17.256  31.892  11.032
13372W        W85797  36.146  24.683  12.143
13373W        W85798  29.703   6.140  14.826
13374W        W85799  34.328  37.404   4.157
13375W        W85800  24.424  13.630  14.370
13376W        W85801  23.294  42.102   0.884
13377W        W85802  15.644  12.522  12.117
13378W        W85803   2.341   5.265   0.164
13379W        W85804  41.775  22.778   4.145
13380W        W85805  31.213  11.159  13.078
13381W        W85806  42.609  44.434   0.684
13382W        W85807  37.895  41.825   1.293
13383W        W85808  34.068  42.747   3.604
13384W        W85809   0.724  16.183  13.865
13385W        W85810  13.436   7.646   4.257
13386W        W85811  11.359  30.412  12.443
13387W        W85812  12.703  11.544  13.069
13388W        W85813  15.018   7.802  14.804
13389W        W85814   9.831  29.657  11.090
13390W        W85815  26.234  27.604  14.487
13391W        W85816  42.494   9.366  12.399
13392W        W85817   7.767  39.882  12.995
13393W        W85818  27.485   0.226   2.130
13394W        W85819  10.770  38.530  12.252
13395W        W85820   7.396  12.582   1.267
13396W        W85821  40.232  32.625  12.912
13397W        W85822  44.408  29.393   0.394
13398W        W85823  11.938  22.543   1.501
13399W        W85824  19.080  20.290  14.887
13400W        W85825   7.840  40.310   2.705
13401W        W85826  33.948  33.437  11.209
13402W        W85827  28.197  34.905   4.167
13403W        W85828  29.893  17.699  12.248
13404W        W85829  41.577   4.457  13.485
13405W        W85830  27.240  19.246   2.756
13406W        W85831  28.229  44.234   0.778
13407W        W85832  41.473  41.317  14.494
13408W        W85833  19.824  33.353   3.201
13409W        W85834  33.157   4.861  10.097
13410W        W85835  39.820  25.662  12.162
13411W        W85836  27.449   9.889   4.391
13412W        W85837  34.546  32.016   4.348
13413W        W85838  31.250  31.757  10.707
13414W        W85839  35.132  33.640  11.586
13415W        W85840   0.867  22.374   4.649
13416W        W85841  37.395   6.885  11.332
13417W        W85842  32.219  40.938  12.664
13418W        W85843  28.783  36.516  13.817
13419W        W85844   4.454  11.713   3.697
13420W        W85845  24.690  36.918  12.047
13421W        W85846  38.042   6.417   3.619
13422W        W85847  19.009  30.024  13.273
13423W        W85848  15.777  14.694  13.730
13424W        W85849  25.392  34.628   3.640
13425W        W85850  21.185  30.286  14.386
13426W        W85851  12.099  21.030   2.173
13427W        W85852  14.787  35.316  14.041
13428W        W85853  24.227  34.393  11.500
13429W        W85854  12.054  26.430  13.058
13430W        W85855  35.849  36.942   1.336
13431W        W85856  34.652  13.887   3.091
13432W        W85857  37.377   3.273   3.862
13433W        W85858   2.282   4.471  14.413
13434W        W85859  32.753  44.435  14.902
13435W        W85860  21.548   4.457  12.441
13436W        W85861   6.472  35.505   0.698
13437W        W85862  24.060  27.997  12.098
13438W        W85863  43.487  30.480   0.437
13439W        W85864  38.954   4.438   4.250
13440W        W85865  24.123  23.238  10.571
13441W        W85866  22.943   9.597  14.510
13442W        W85867  39.339  39.075   1.256
13443W        W85868  43.489  36.473  12.048
13444W        W85869  27.487   9.513   2.343
13445W        W85870  16.281  43.130  13.557
13446W        W85871   7.109  17.775  14.808
13447W        W85872  25.129  35.397  12.510
13448W        W85873  36.743  38.566   3.357
13449W        W85874   0.401  40.903  12.840
13450W        W85875   9.442  35.485   4.541
13451W        W85876   2.590  30.595   1.704
13452W        W85877  11.178  24.532  12.117
13453W        W85878  16.188   7.124  13.388
13454W        W85879  12.272   5.675   3.692
13455W        W85880  20.043   2.668  11.155
13456W        W85881  31.211  41.545   4.183
13457W        W85882   5.063  17.361   0.169
13458W        W85883  36.447   2.431   1.309
13459W        W85884  26.064   3.950  10.740
13460W        W85885   3.087  13.876   1.186
13461W        W85886  12.395  34.570   3.339
13462W        W85887   9.019  17.589  10.717
13463W        W85888   1.839  10.180   3.171
13464W        W85889  25.534  29.994  11.119
13465W        W85890  36.317  42.956  13.125
13466W        W85891  19.744   3.639   4.140
13467W        W85892  44.966  38.675  12.024
13468W        W85893  27.118  27.939   3.293
13469W        W85894  23.423   0.808   4.723
13470W        W85895  38.123  26.077  11.984
13471W        W85896  19.644  40.351   3.700
13472W        W85897  31.183  21.800  14.387
13473W        W85898  37.147  36.812   3.154
13474W        W85899  30.709  35.841   4.179
13475W        W85900  34.661   7.376   0.883
13476W        W85901   3.994  35.893  14.006
13477W        W85902  17.478  16.032   2.263
13478W        W85903  34.267  16.324  11.114
13479W        W85904  24.888  35.100  14.291
13480W        W85905   0.329   3.192   0.581
13481W        W85906  30.771  28.522   1.736
13482W        W85907   8.982  37.881   2.935
13483W        W85908  22.430  10.383   1.182
13484W        W85909  28.855  28.197  12.651
13485W        W85910   0.063  44.779  13.797
13486W        W85911  42.259  32.666  10.699
13487W        W85912  35.626  25.291  10.122
13488W        W85913   5.428  18.026  14.934
13489W        W85914  17.240  16.698   2.262
13490W        W85915  42.394  38.990   1.480
13491W        W85916  29.352  18.823   3.263
13492W        W85917  37.788   6.410   0.340
13493W        W85918  13.286  24.169  12.458
13494W        W85919  11.669  31.812   3.513
13495W        W85920  25.600   3.790   3.641
13496W        W85921  42.448  39.156  14.211
13497W        W85922  35.036   6.597  11.950
13498W        W85923  28.573  31.118  11.140
13499W        W85924   3.668  24.468  14.637
13500W        W85925  30.383  29.411  13.450
13501W        W85926  21.287  38.012   3.690
13502W        W85927  30.356  38.688   0.872
13503W        W85928  10.805  19.811   2.729
13504W        W85929   5.182   2.278   3.631
13505W        W85930  30.010  18.544   2.748
13506W        W85931  32.794  18.655  10.551
13507W        W85932  40.260  12.856   1.945
13508W        W85933   4.757  27.655  13.268
13509W        W85934  15.849  29.940   0.745
13510W        W85935  13.908  38.481  13.914
13511W        W85936   9.420  10.489  11.267
13512W        W85937  20.776   0.130  12.859
13513W        W85938  44.947  17.536   2.648
13514W        W85939   3.194  35.064   0.269
13515W        W85940  32.613  44.666  11.173
13516W        W85941  39.516  42.545   2.403
13517W        W85942  35.988  40.270  13.527
13518W        W85943  20.296  33.822   4.590
13519W        W85944  16.597  27.375   3.172
13520W        W85945  38.679  39.365  13.776
13521W        W85946  18.192  33.976  12.986
13522W        W85947  42.343  20.566  12.058
13523W        W85948  22.711   8.861   2.898
13524W        W85949   4.439   0.556   3.243
13525W        W85950  23.074  23.922   1.216
13526W        W85951  18.866   8.405  11.220
13527W        W85952  28.412  20.116   4.711
13528W        W85953  13.893   4.290   1.843
13529W        W85954   0.956  12.613   4.180
13530W        W85955  41.443   9.806  14.406
13531W        W85956  16.546  11.693   0.293
13532W        W85957  37.802  22.125   3.826
13533W        W85958  27.983  42.021   3.076
13534W        W85959  31.832  15.887  12.792
13535W        W85960  38.729   6.456   3.044
13536W        W85961  21.655  18.485   3.291
13537W        W85962  28.213  21.077  12.243
13538W        W85963  16.051   3.667   2.402
13539W        W85964  10.158   1.473  13.911
13540W        W85965   5.256  23.212  12.995
13541W        W85966  20.707  20.089   4.347
13542W        W85967  25.286  38.392  12.438
13543W        W85968  32.271  14.218  12.833
13544W        W85969   3.698  40.869  14.415
13545W        W85970  30.301   0.646  11.514
13546W        W85971   8.530  36.999   2.902
13547W        W85972  20.181  15.560   3.129
13548W        W85973  37.035  14.755   1.933
13549W        W85974  27.621  43.243   3.179
13550W        W85975  17.059   1.974   0.557
13551W        W85976  24.955  35.522   1.241
13552W        W85977   9.161  33.875  14.895
13553W        W85978  32.851  28.237   0.832
13554W        W85979  13.612  35.785  14.918
13555W        W85980  30.431   6.821   0.852
13556W        W85981  37.159  35.049   0.370
13557W        W85982   5.538   7.777  12.642
13558W        W85983  22.611  33.190   4.890
13559W        W85984  29.661  38.794   2.836
13560W        W85985  26.699  13.838   3.079
13561W        W85986   5.734   5.643   3.152
13562W        W85987  17.602  30.703   1.408
13563W        W85988  31.036   8.674  11.761
13564W        W85989   7.272  25.849   5.082
13565W        W85990  18.258  21.230  11.224
13566W        W85991  38.283  29.697   0.871
13567W        W85992  36.680   1.038  13.446
13568W        W85993  42.851  38.611   3.247
13569W        W85994   3.807   1.392  13.102
13570W        W85995   0.215  35.871   3.928
13571W        W85996  15.160   9.377  12.674
13572W        W85997   3.878  29.825   0.161
13573W        W85998  32.473  25.238   4.189
13574W        W85999  37.353  18.770  10.768
13575W        W86000  24.231  31.868   2.250
13576W        W86001   7.367  11.897  11.177
13577W        W86002  19.759  40.659   1.080
13578W        W86003  41.317  34.068   4.787
13579W        W86004  34.060  26.540  13.966
13580W        W86005  44.909  14.656  13.229
13581W        W86006  18.222  42.514  14.994
13582W        W86007  15.151   6.225  14.187
13583W        W86008  13.911  44.240   4.083
13584W        W86009   8.414  12.073  14.307
13585W        W86010  37.654   2.307   2.707
13586W        W86011  22.750  30.838  12.783
13587W        W86012  27.595   0.351   3.744
13588W        W86013  21.773  11.399   4.189
13589W        W86014   8.144  23.593  12.842
13590W        W86015  43.799   2.559  11.214
13591W        W86016  38.614  13.315  12.655
13592W        W86017  24.238  34.639   0.928
13593W        W86018  27.240  14.128  13.074
13594W        W86019  25.224  29.682  12.506
13595W        W86020  13.799  16.580  11.497
13596W        W86021  33.877  27.420   0.909
13597W        W86022  22.707   3.887  14.886
13598W        W86023   8.253  20.658   1.380
13599W        W86024  35.030  10.879  11.100
13600W        W86025   3.236   7.695   4.346
13601W        W86026   8.236  34.548  11.518
13602W        W86027  43.786  18.007  12.983
13603W        W86028  21.707  32.188   3.663
13604W        W86029  43.608  37.312  12.541
13605W        W86030  13.938  22.192   0.836
13606W        W86031   7.707  22.283   0.915
13607W        W86032   4.675  43.226  11.400
13608W        W86033  32.904   1.199  14.626
13609W        W86034  16.836   7.645   3.464
13610W        W86035  41.328  18.319  12.383
13611W        W86036  37.628  24.002  13.969
13612W        W86037  20.444  11.748   2.329
13613W        W86038  31.644  19.270  10.251
13614W        W86039   4.714  34.873   3.241
13615W        W86040  13.207   3.356   0.734
13616W        W86041  32.150  19.507   1.500
13617W        W86042  39.577   7.359   0.397
13618W        W86043  30.099  36.576   0.921
13619W        W86044  36.974  29.902  11.600
13620W        W86045   1.295  35.405  12.481
13621W        W86046  36.037  19.127  12.917
13622W        W86047   5.910  43.261   3.274
13623W        W86048  23.429   7.883   3.668
13624W        W86049  15.408  41.862  12.080
13625W        W86050  33.449   4.425  14.438
13626W        W86051  39.423  37.467  10.711
13627W        W86052  22.243  18.051   1.340
13628W        W86053  34.880  33.328  13.897
13629W        W86054  41.917  10.388  10.694
13630W        W86055   0.009  24.970   3.186
13631W        W86056  15.822  32.869  10.336
13632W        W86057  36.119   3.409  11.196
13633W        W86058  44.952  22.663  13.653
13634W        W86059  34.203   7.966   3.829
13635W        W86060  18.192   9.845  14.536
13636W        W86061   5.245  32.468   0.503
13637W        W86062   4.650   1.572   4.669
13638W        W86063  34.640  39.760   4.143
13639W        W86064  42.523   0.552   2.009
13640W        W86065   3.262  17.196  13.562
13641W        W86066  30.232  28.395   2.954
13642W        W86067  36.170   5.762   4.137
13643W        W86068  11.077  21.498  11.560
13644W        W86069  36.015  19.640  13.019
13645W        W86070  37.366  15.890   3.290
13646W        W86071  34.991  17.038  14.319
13647W        W86072  24.931   9.897  14.244
13648W        W86073   0.952  44.753  11.640
13649W        W86074  40.270  39.119  14.851
13650W        W86075  25.997  27.658  12.218
13651W        W86076  26.029  24.614   3.728
13652W        W86077  40.302  20.702   3.291
13653W        W86078  20.157  32.969  13.006
13654W        W86079  13.212   4.310   2.307
13655W        W86080  29.959  40.932  10.916
13656W        W86081   9.670  34.249  11.375
13657W        W86082  41.670  40.261   4.227
13658W        W86083  29.933  19.220  12.612
13659W        W86084  34.186  24.465   2.009
13660W        W86085  19.720  42.077   0.968
13661W        W86086  16.000  38.570   2.674
13662W        W86087  43.998   0.393  14.271
13663W        W86088   2.174  42.984  11.408
13664W        W86089  10.312  14.836   1.707
13665W        W86090  21.817  13.244  11.454
13666W        W86091   1.166   8.667  11.033
13667W        W86092  13.663  18.902   4.812
13668W        W86093   8.591   5.726  13.126
13669W        W86094  26.888  14.536   5.023
13670W        W86095   5.740   5.002  14.912
13671W        W86096  33.487  13.175   3.994
13672W        W86097   3.767  18.264   3.062
13673W        W86098  20.600  43.561  11.726
13674W        W86099   2.682  30.428   5.101
13675W        W86100  24.875  27.645   2.921
13676W        W86101  17.066  15.613  14.718
13677W        W86102  20.410   1.143   4.882
13678W        W86103  28.016  34.216   1.774
13679W        W86104   8.262   4.484   3.675
13680W        W86105  19.646   9.919  13.415
13681W        W86106  25.265  30.239   1.701
13682W        W86107   8.428   8.872   2.380
13683W        W86108  42.812  19.590  13.078
13684W        W86109  37.245   6.222   4.496
13685W        W86110  16.564  39.629   3.988
13686W        W86111  23.127  10.983  10.722
13687W        W86112  33.402  18.802  10.639
13688W        W86113  31.059  29.305  14.032
13689W        W86114  44.062   7.858  14.823
13690W        W86115  13.227  20.651   1.386
13691W        W86116  40.094  30.089  11.267
13692W        W86117   3.399   0.582  11.495
13693W        W86118  23.289   1.256   0.742
13694W        W86119  43.830  39.106   0.306
13695W        W86120  30.262  12.131   4.468
13696W        W86121  11.799  43.162  11.226
13697W        W86122   3.188  22.067   1.638
13698W        W86123  15.985  18.560   2.761
13699W        W86124  25.566  34.335  11.627
13700W        W86125  34.798  23.039   0.667
13701W        W86126  26.540  14.298  14.924
13702W        W86127  37.965  23.413   1.316
13703W        W86128  37.797  31.556  12.426
13704W        W86129  12.850  29.439  13.027
13705W        W86130   1.491  42.808   2.784
13706W        W86131  28.474  10.247  10.673
13707W        W86132  43.534  17.204  13.121
13708W        W86133   2.015  17.523  12.087
13709W        W86134   2.352   3.696  12.347
13710W        W86135  22.570   1.244   4.588
13711W        W86136  27.668  28.437   2.361
13712W        W86137  23.680   4.719  10.863
13713W        W86138   8.723  34.979  10.639
13714W        W86139  27.494  19.989  14.444
13715W        W86140  38.025  26.191   1.345
13716W        W86141  32.098   2.261  13.851
13717W        W86142  34.873  22.256   3.545
13718W        W86143  26.686  40.821   2.279
13719W        W86144  27.249   7.584  13.876
13720W        W86145  11.310  22.789  11.634
13721W        W86146  26.643  39.945   1.209
13722W        W86147  15.163   1.090   4.905
13723W        W86148  19.231  19.218   1.824
13724W        W86149   2.288  38.903   1.318
13725W        W86150  39.527  23.726   0.353
13726W        W86151   6.557  11.590   2.784
13727W        W86152  16.034  16.082  12.113
13728W        W86153   9.095  37.450   9.720
13729W        W86154   2.068  21.768   0.553
13730W        W86155   5.511  10.314   0.818
13731W        W86156  15.384  20.739   1.829
13732W        W86157  22.793   4.837   2.709
13733W        W86158  25.541   7.682  13.365
13734W        W86159  41.517   5.218  11.887
13735W        W86160   5.741  33.883  14.476
13736W        W86161  43.351   4.232   4.326
13737W        W86162  42.366  18.543  13.157
13738W        W86163  25.571  30.875  11.416
13739W        W86164   5.833  11.200  12.492
13740W        W86165  38.923  11.538   1.326
13741W        W86166  25.079   4.908  14.543
13742W        W86167  31.146  34.158  11.366
13743W        W86168  12.645  33.605   0.682
13744W        W86169  18.038  21.367   1.972
13745W        W86170   5.904   1.954   4.279
13746W        W86171  11.713  40.315  13.877
13747W        W86172  44.971  10.310  13.431
13748W        W86173   4.721   0.578   4.463
13749W        W86174  15.727   7.071  13.998
13750W        W86175  27.654  38.032  12.235
13751W        W86176  24.707  36.353  12.502
13752W        W86177   4.958   7.939   4.213
13753W        W86178  44.347  42.681   5.074
13754W        W86179   3.295   3.937  12.664
13755W        W86180  16.585  29.311  13.993
13756W        W86181   2.486  17.635   3.370
13757W        W86182  24.622  24.714  12.160
13758W        W86183  24.532  40.509  14.356
13759W        W86184  26.934  33.101  11.109
13760W        W86185  44.742  32.702   3.987
13761W        W86186   3.258  33.999   3.707
13762W        W86187  22.486  34.658  13.132
13763W        W86188  39.222  44.347  14.462
13764W        W86189   1.913  30.618   3.156
13765W        W86190   1.304  16.158  13.221
13766W        W86191   9.175  14.600   1.042
13767W        W86192  38.156   1.678  12.394
13768W        W86193  39.317  13.544   0.401
13769W        W86194  42.975  37.220   2.951
13770W        W86195  26.207  17.817   4.539
13771W        W86196  27.513  31.936  10.653
13772W        W86197  26.617  20.128  10.598
13773W        W86198   8.408  33.115   2.460
13774W        W86199  11.650  22.301   0.030
13775W        W86200  40.283   3.110  14.449
13776W        W86201  34.499  14.707  12.554
13777W        W86202   8.195   8.118   1.875
13778W        W86203  18.738   5.525  12.892
13779W        W86204  16.543  42.056   0.036
13780W        W86205  33.640  13.228   1.343
13781W        W86206  36.993   7.328  11.278
13782W        W86207  32.024  26.245   1.348
13783W        W86208  21.622  13.243   3.578
13784W        W86209   3.656  19.200  14.898
13785W        W86210   7.508  44.764  14.361
13786W        W86211   7.947  18.653   4.633
13787W        W86212   7.019   6.237  13.616
13788W        W86213  42.344  39.556  12.849
13789W        W86214  13.244  32.616  13.224
13790W        W86215  20.323  12.774  12.298
13791W        W86216  19.460  19.724   0.765
13792W        W86217   8.680  27.033  11.963
13793W        W86218  13.589  21.750   3.035
13794W        W86219   2.267  28.698   2.178
13795W        W86220  27.210  39.187   2.678
13796W        W86221  38.149  38.003  13.014
13797W        W86222  40.811  24.635   2.706
13798W        W86223  42.540  21.145  13.363
13799W        W86224  35.902  28.019   3.337
13800W        W86225  14.234  22.781  13.813
13801W        W86226   1.939  29.035  14.853
13802W        W86227  40.026  33.329   0.060
13803W        W86228   3.284  10.548   4.446
13804W        W86229  15.048  29.150  12.452
13805W        W86230  36.360   8.502   2.330
13806W        W86231  12.630  23.838   3.692
13807W        W86232  37.063  37.436  11.864
13808W        W86233  18.106  34.573   1.381
13809W        W86234  21.790  19.144  11.646
13810W        W86235   7.669   5.617  13.454
13811W        W86236  11.348   9.640   0.333
13812W        W86237  27.903  15.775   1.400
13813W        W86238  28.574   7.014  14.872
13814W        W86239  35.746  31.951  12.125
13815W        W86240  43.403  15.509   4.555
13816W        W86241  22.003  14.915   4.828
13817W        W86242  36.021  18.345   0.004
13818W        W86243   0.200  43.892   0.660
13819W        W86244  32.510   2.013   3.788
13820W        W86245  39.951  25.390  13.106
13821W        W86246  17.190  19.015  13.811
13822W        W86247  35.544  32.337   4.179
13823W        W86248  43.930   1.829  13.930
13824W        W86249  42.442  10.156   3.817
13825W        W86250  31.667  15.097  10.661
13826W        W86251  27.019  31.207  11.246
13827W        W86252   5.646   6.536   2.004
13828W        W86253  43.295   4.817   3.751
13829W        W86254  27.435   9.441   4.768
13830W        W86255  26.604  31.638   1.555
13831W        W86256  33.913  42.724   0.239
13832W        W86257  23.965  19.573   2.733
13833W        W86258  32.413  19.490   1.962
13834W        W86259  17.653  25.823  10.459
13835W        W86260   6.185  19.674  10.679
13836W        W86261  20.339  22.451   0.806
13837W        W86262  35.814  19.752   1.042
13838W        W86263  17.618  22.748   0.890
13839W        W86264   9.807  23.669   0.633
13840W        W86265   9.827  41.380   4.495
13841W        W86266  22.578  30.088   3.124
13842W        W86267  12.263   7.887  10.930
13843W        W86268  14.204  13.300  12.550
13844W        W86269  28.437  30.403  10.598
13845W        W86270  21.695  31.732  11.075
13846W        W86271   7.338   1.828  14.294
13847W        W86272  29.891  40.940   1.250
13848W        W86273  24.546  19.906  11.631
13849W        W86274  25.741  27.865   2.424
13850W        W86275  11.179  26.377  10.643
13851W        W86276  24.336  41.394   3.700
13852W        W86277  18.673   1.670  10.733
13853W        W86278  20.519  14.013   1.561
13854W        W86279  24.596   2.773  13.064
13855W        W86280  14.615   0.340   1.016
13856W        W86281  23.125  26.821   2.562
13857W        W86282  38.353  30.999   2.596
13858W        W86283  21.168  21.080  12.377
13859W        W86284  39.292   4.713   0.333
13860W        W86285  13.151   0.906  10.184
13861W        W86286  26.050   9.087  12.321
13862W        W86287  29.898  41.738   4.176
13863W        W86288  19.270  18.617   3.211
13864W        W86289   7.144  20.811   1.007
13865W        W86290   3.428  18.346  12.825
13866W        W86291  44.428  31.194   2.439
13867W        W86292  26.944   2.929   3.397
13868W        W86293  39.130  40.575  10.995
13869W        W86294  41.583   0.003  13.189
13870W        W86295  43.737  36.360   1.450
13871W        W86296  42.302   3.384  12.387
13872W        W86297  29.868  21.843  14.885
13873W        W86298   5.627  21.567  12.936
13874W        W86299  27.144  18.065  10.999
13875W        W86300  23.310  18.750  11.195
13876W        W86301  28.937  22.036   3.812
13877W        W86302  15.786  28.979   3.374
13878W        W86303  24.697  23.429  14.329
13879W        W86304  12.116  18.053   1.284
13880W        W86305  23.706  13.412   3.776
13881W        W86306  15.847  36.579   3.793
13882W        W86307  18.257  33.664  14.365
13883W        W86308   5.020   2.625  14.977
13884W        W86309  40.077  12.693   4.688
13885W        W86310   7.812  41.656  13.520
13886W        W86311  18.586  32.677   3.358
13887W        W86312   9.694  29.987  13.947
13888W        W86313  29.216   7.967   0.250
13889W        W86314  14.805  42.806  11.751
13890W        W86315   2.896  40.015   0.284
13891W        W86316  30.211  21.623   0.227
13892W        W86317  14.522   0.323   2.267
13893W        W86318  22.167  31.566  11.228
13894W        W86319  44.821   3.177   5.078
13895W        W86320  19.290  31.016  11.499
13896W        W86321  21.693  14.738   1.304
13897W        W86322  29.887  35.370   5.042
13898W        W86323  11.706   5.290  13.882
13899W        W86324  38.080  44.365   1.347
13900W        W86325  29.789  20.648   4.731
13901W        W86326   2.399  32.076   1.358
13902W        W86327   1.692  27.620   2.503
13903W        W86328  29.497  43.890  10.475
13904W        W86329   6.323  12.086  11.183
13905W        W86330  40.918   6.592  14.888
13906W        W86331  40.674  14.703   4.576
13907W        W86332  43.113  28.204   0.928
13908W        W86333  22.791  29.640  13.879
13909W        W86334  23.487  40.861  13.006
13910W        W86335   4.417   2.028  14.972
13911W        W86336   8.230  40.531  13.968
13912W        W86337  11.323   2.548   2.334
13913W        W86338  18.730  19.100   1.637
13914W        W86339   3.772   9.670   2.688
13915W        W86340  12.952  39.325   1.307
13916W        W86341  14.270  24.896   3.768
13917W        W86342  19.740  13.533  12.539
13918W        W86343   2.388  21.380  11.537
13919W        W86344   4.430   0.029  13.321
13920W        W86345  30.130  25.129   4.925
13921W        W86346  11.544  21.298   3.068
13922W        W86347  31.567   4.911   4.046
13923W        W86348   2.489  29.700  11.298
13924W        W86349  31.399  29.223   4.308
13925W        W86350   6.889  15.613   0.868
13926W        W86351  38.089  42.822  13.385
13927W        W86352  13.832  14.806   1.873
13928W        W86353  13.605  25.487  12.548
13929W        W86354  37.005  16.069   0.712
13930W        W86355  30.034  16.957   5.468
13931W        W86356  24.284  37.995   2.595
13932W        W86357  10.503   8.941  11.973
13933W        W86358  42.864  18.189  13.238
13934W        W86359  27.286  16.289  11.634
13935W        W86360  34.419   7.523  14.898
13936W        W86361  42.238   7.894   0.771
13937W        W86362   7.895  42.161   2.551
13938W        W86363  12.831   0.731   4.759
13939W        W86364  22.064   9.705  11.103
13940W        W86365  17.824  40.370  10.571
13941W        W86366  19.472  19.479  11.004
13942W        W86367  38.848  31.968   1.922
13943W        W86368  34.157  35.897   3.707
13944W        W86369  40.981  43.017   9.788
13945W        W86370   5.413  20.024   0.002
13946W        W86371  17.377   5.241  14.854
13947W        W86372  26.401   9.305  11.232
13948W        W86373  27.128  29.924   0.374
13949W        W86374  44.459   9.579   1.989
13950W        W86375  37.360  42.438   4.212
13951W        W86376  13.529  18.804   4.178
13952W        W86377  23.909  17.630   3.665
13953W        W86378   3.346  43.279   3.738
13954W        W86379  12.835   4.111   3.289
13955W        W86380  23.936  36.776  11.456
13956W        W86381   3.707  26.909  12.534
13957W        W86382   3.803  30.549  13.516
13958W        W86383   6.793  36.800   4.668
13959W        W86384  44.962  17.167   0.303
13960W        W86385  20.748  44.985   4.891
13961W        W86386  33.803  41.976  14.752
13962W        W86387  12.844  39.903   2.372
13963W        W86388  15.425   3.355   5.032
13964W        W86389  26.272  11.508  14.859
13965W        W86390  36.890  43.755  13.328
13966W        W86391  31.028   8.729  14.480
13967W        W86392  23.881  17.522   4.590
13968W        W86393  32.510  24.173  12.148
13969W        W86394   3.808  23.443   0.501
13970W        W86395  24.423  29.994   1.050
13971W        W86396  23.051  37.345   4.928
13972W        W86397  19.212  27.385  14.948
13973W        W86398  22.925   1.827   4.128
13974W        W86399  19.379  29.938   4.251
13975W        W86400  40.461  18.311   0.825
13976W        W86401  22.739  27.109   2.723
13977W        W86402   9.843  44.421   4.614
13978W        W86403  38.927  34.962  10.634
13979W        W86404   6.610  36.319   1.359
13980W        W86405  11.731  13.069  11.451
13981W        W86406  20.951  18.724  14.985
13982W        W86407  44.869  39.419   0.698
13983W        W86408  24.882  38.218   1.833
13984W        W86409  20.947  14.682   1.000
13985W        W86410  18.217  26.162   4.262
13986W        W86411  31.500  26.478  10.559
13987W        W86412  38.853  34.340   4.475
13988W        W86413   4.693   1.312  11.237
13989W        W86414  13.743   8.923  13.400
13990W        W86415  29.227  14.328   3.716
13991W        W86416  43.314  33.695   2.332
13992W        W86417  30.900  19.284   1.199
13993W        W86418   4.748  21.963  11.078
13994W        W86419  30.866   6.377  11.065
13995W        W86420  34.852   4.555  11.961
13996W        W86421  14.561  29.289  11.916
13997W        W86422  38.974  24.994  12.989
13998W        W86423  36.046  28.492   3.831
13999W        W86424  23.962  28.043  13.463
14000W        W86425  38.572  28.942  12.858
14001W        W86426  40.709  35.682   3.320
14002W        W86427  17.122  39.970  14.397
14003W        W86428  31.462  16.112   2.269
14004W        W86429   8.106  31.004   3.680
14005W        W86430   0.449  36.241   2.369
14006W        W86431  25.454   2.985   0.804
14007W        W86432  13.215  30.967   4.047
14008W        W86433  43.421  10.446  14.686
14009W        W86434  41.789  34.815  14.237
14010W        W86435  39.337  11.284   1.118
14011W        W86436  34.149  30.108   0.818
14012W        W86437  26.283  43.431  14.084
14013W        W86438   1.512   6.500  13.013
14014W        W86439  31.193   8.130  13.773
14015W        W86440   0.356   1.423   0.929
14016W        W86441  31.606   6.340   3.308
14017W        W86442  18.255  44.367  12.336
14018W        W86443  39.886   4.760   1.559
14019W        W86444   6.953   4.707   0.359
14020W        W86445  11.223  31.808   0.762
14021W        W86446  41.280  32.891   2.405
14022W        W86447  25.508  31.919  12.173
14023W        W86448  27.982  13.365   2.979
14024W        W86449  25.068  23.232   0.620
14025W        W86450  38.440  11.213   1.379
14026W        W86451   5.757  33.892  11.746
14027W        W86452  30.335  37.026  12.043
14028W        W86453  41.497  38.837   1.509
14029W        W86454  35.554  22.842   5.084
14030W        W86455  11.752   6.769   1.963
14031W        W86456  38.574   2.313  13.981
14032W        W86457  21.498  40.113   2.577
14033W        W86458  19.695  33.304   0.262
14034W        W86459  15.568   9.755   4.468
14035W        W86460  15.839  42.016   0.796
14036W        W86461  37.379  19.586   1.978
14037W        W86462  41.082  13.136  11.575
14038W        W86463  14.757  34.360  12.004
14039W        W86464   7.874  23.414  13.704
14040W        W86465  22.076  22.711   3.780
14041W        W86466  22.652  40.416   5.141
14042W        W86467  29.896  27.559   0.757
14043W        W86468  12.909  14.121  12.893
14044W        W86469  19.111  18.974   2.259
14045W        W86470  34.039  27.757   2.875
14046W        W86471  11.626   9.143   3.675
14047W        W86472  26.075  14.227   4.814
14048W        W86473  35.066  12.136  14.286
14049W        W86474  36.842  24.658  13.389
14050W        W86475  31.963   1.998   3.129
14051W        W86476  43.775  15.657   1.840
14052W        W86477  26.666  10.913   4.026
14053W        W86478  40.461   8.869   1.733
14054W        W86479  41.962  24.481   2.699
14055W        W86480  35.476  14.277  13.662
14056W        W86481  26.271  29.440  14.186
14057W        W86482  24.252  24.435  13.994
14058W        W86483  15.894  24.424  11.605
14059W        W86484  24.105   6.498   0.525
14060W        W86485   1.849  10.192   2.253
14061W        W86486  19.744  26.003  11.132
14062W        W86487  44.297   8.745   2.300
14063W        W86488  44.824  28.274   0.855
14064W        W86489   9.608  39.808  14.351
14065W        W86490  31.965  35.849  12.179
14066W        W86491  21.240  36.877   3.484
14067W        W86492  28.682  42.116   2.620
14068W        W86493   9.754  21.129  13.352
14069W        W86494  39.297   0.004   2.977
14070W        W86495   4.185  36.566   0.422
14071W        W86496  16.639  19.734   0.180
14072W        W86497   1.968  35.841  12.919
14073W        W86498  34.011  36.462  14.197
14074W        W86499  21.085  31.187  12.501
14075W        W86500  40.592   4.866  13.047
14076W        W86501  12.533  19.712  14.481
14077W        W86502   8.383  35.431   1.296
14078W        W86503  13.875  24.600  14.864
14079W        W86504  13.354  42.255  11.816
14080W        W86505  29.575  17.998   3.253
14081W        W86506  31.615  20.027   2.364
14082W        W86507  40.423  41.298  12.225
14083W        W86508  35.092  41.080  14.701
14084W        W86509   9.712   2.979   2.078
14085W        W86510   1.281  19.099  13.602
14086W        W86511  23.068   0.316  11.664
14087W        W86512  44.481  36.215   3.327
14088W        W86513  38.355  23.538  10.117
14089W        W86514   0.130   3.185  13.921
14090W        W86515  36.827  10.864  13.312
14091W        W86516  23.020  23.166   3.137
14092W        W86517  14.203  31.531   2.900
14093W        W86518  21.048  27.509   1.844
14094W        W86519  30.050  15.366   0.414
14095W        W86520  37.852  13.729   0.696
14096W        W86521  33.204  41.238  13.713
14097W        W86522  10.669  25.288   0.452
14098W        W86523  13.805  11.832   4.618
14099W        W86524   1.242  11.123  14.168
14100W        W86525  28.471   2.479   4.527
14101W        W86526   3.392  31.175   1.287
14102W        W86527  40.909  16.593  10.763
14103W        W86528  27.446   7.675  12.958
14104W        W86529   9.854  42.035   3.253
14105W        W86530  36.402  24.172  11.060
14106W        W86531   8.652   6.185   0.909
14107W        W86532  27.537  37.447  14.914
14108W        W86533  40.483  37.317   4.467
14109W        W86534   5.711  44.645   1.279
14110W        W86535  30.422  32.493  12.519
14111W        W86536   3.950   6.841   3.367
14112W        W86537  15.615   3.046  14.748
14113W        W86538  16.720   6.511  10.427
14114W        W86539   7.866  18.684  10.064
14115W        W86540  38.130   1.757   4.561
14116W        W86541  10.606   6.205   3.222
14117W        W86542   1.341  27.524   4.176
14118W        W86543  38.306  38.918   2.701
14119W        W86544  16.658   4.835  13.570
14120W        W86545  34.897  31.842  12.318
14121W        W86546   0.747  13.871   0.881
14122W        W86547  39.036  33.104   1.635
14123W        W86548   5.863  18.995   4.028
14124W        W86549  15.322  24.852   9.547
14125W        W86550   4.732  26.712  11.204
14126W        W86551  14.901   6.032   3.365
14127W        W86552  38.597   6.746  10.804
14128W        W86553   0.218  26.962  14.944
14129W        W86554  37.817  15.071   2.623
14130W        W86555  40.414  39.767   1.945
14131W        W86556  23.927  24.935   3.760
14132W        W86557  41.387  38.271  14.128
14133W        W86558  26.508   3.682  14.967
14134W        W86559  41.611  33.837  12.967
14135W        W86560  14.170  35.843  14.094
14136W        W86561  21.244  13.249   0.697
14137W        W86562   8.735   3.366   4.499
14138W        W86563  33.679  20.662   3.797
14139W        W86564  11.751   8.846  12.502
14140W        W86565  39.714  26.450   4.477
14141W        W86566  23.150  39.722   1.977
14142W        W86567  11.319  18.339   1.672
14143W        W86568  19.672  43.264  14.700
14144W        W86569  39.977  41.881  12.120
14145W        W86570  13.592   5.200  14.921
14146W        W86571  43.528  41.419  13.217
14147W        W86572   8.754  42.260   3.283
14148W        W86573  32.736  33.072  14.604
14149W        W86574  19.587   6.649   4.780
14150W        W86575  12.438  14.643  13.598
14151W        W86576  22.925   8.590  14.509
14152W        W86577   1.793  40.178  13.301
14153W        W86578  11.254   9.302  14.039
14154W        W86579  34.913  31.903  13.687
14155W        W86580  23.672  42.472   2.268
14156W        W86581   2.078  26.511   4.608
14157W        W86582   5.955  43.908   3.822
14158W        W86583  37.407   2.419   0.021
14159W        W86584  36.536   0.294   1.695
14160W        W86585  12.860  31.485   1.220
14161W        W86586  43.207  35.068  12.515
14162W        W86587   2.901  14.805   4.970
14163W        W86588  40.058   1.808  13.928
14164W        W86589  44.450   0.946  11.212
14165W        W86590   5.778  19.978  14.635
14166W        W86591  40.531  25.358  12.401
14167W        W86592   5.730   0.555   1.696
14168W        W86593  23.577  26.196   3.727
14169W        W86594   4.304   2.399  13.114
14170W        W86595  43.241   4.817  14.969
14171W        W86596  34.829   7.159   2.637
14172W        W86597  21.626  32.094  12.099
14173W        W86598  21.990  31.190   0.855
14174W        W86599  12.353  30.090  10.571
14175W        W86600  23.807  40.989   3.166
14176W        W86601   0.732  26.960  12.896
14177W        W86602  34.648  29.951   4.577
14178W        W86603  18.271   9.243  12.469
14179W        W86604  23.694   5.692   2.245
14180W        W86605  36.616  41.774   0.913
14181W        W86606  30.150  32.282   3.671
14182W        W86607  41.728  12.992   1.654
14183W        W86608  20.095  32.505   3.229
14184W        W86609  18.468  20.677  10.647
14185W        W86610   3.788  43.004   4.483
14186W        W86611  42.266   6.922  14.929
14187W        W86612  39.367  40.431   1.230
14188W        W86613  17.059  40.254  14.830
14189W        W86614  34.002  24.098  14.275
14190W        W86615  19.024   2.430   2.734
14191W        W86616  19.502  26.911  14.197
14192W        W86617  11.351   0.052   4.226
14193W        W86618   1.371  41.793   0.647
14194W        W86619  22.821   9.299  13.049
14195W        W86620   0.867  22.405   0.637
14196W        W86621  29.630  35.119  14.319
14197W        W86622  19.492  43.279   4.904
14198W        W86623   4.372   6.587   4.744
14199W        W86624  34.236  23.323  10.351
14200W        W86625  35.478  43.554  13.390
14201W        W86626  17.766  29.953  11.710
14202W        W86627  15.694   6.339  14.413
14203W        W86628  16.217   4.476   3.628
14204W        W86629  25.525  29.664   3.914
14205W        W86630  42.308  25.932   4.333
14206W        W86631  21.486  10.572   5.019
14207W        W86632  31.165  36.461   2.183
14208W        W86633  42.977  14.106  14.474
14209W        W86634  35.156  26.753   2.826
14210W        W86635  21.616  10.883  14.342
14211W        W86636  34.073  12.884  12.342
14212W        W86637  29.086  19.002  12.157
14213W        W86638   2.901  18.345   1.293
14214W        W86639  20.691   0.386   4.534
14215W        W86640  36.950  38.088   0.770
14216W        W86641  41.307  19.806  11.640
14217W        W86642  11.571  28.896   2.814
14218W        W86643  24.300  40.067   3.397
14219W        W86644   1.457  21.371  11.569
14220W        W86645  25.663  19.524  13.496
14221W        W86646  25.079  38.885   0.426
14222W        W86647  33.147  25.220   0.391
14223W        W86648  32.746  16.242   0.642
14224W        W86649  27.175  41.715  14.367
14225W        W86650  13.786  19.816  11.707
14226W        W86651  38.298  22.266   3.751
14227W        W86652   2.556   7.264   2.897
14228W        W86653   6.347  41.103   2.744
14229W        W86654  17.260  33.151   4.452
14230W        W86655  26.249  15.763   1.161
14231W        W86656  12.712   9.223  14.149
14232W        W86657  42.776   7.826   0.679
14233W        W86658  37.279  16.844  13.865
14234W        W86659   2.848  39.941   1.855
14235W        W86660  24.502  20.739  10.678
14236W        W86661  15.032  25.792   4.624
14237W        W86662  18.036  31.998   0.972
14238W        W86663   8.322  36.970   0.522
14239W        W86664  34.587  14.155   3.534
14240W        W86665  23.031  20.013  10.769
14241W        W86666  24.261  26.939  12.507
14242W        W86667  19.026  21.772  11.583
14243W        W86668   1.389  44.074  11.240
14244W        W86669   4.850  38.827   1.825
14245W        W86670  14.888  25.063   1.520
14246W        W86671   2.249   1.830  13.511
14247W        W86672   9.823  26.277  14.598
14248W        W86673  41.098  23.222   4.575
14249W        W86674  15.448  35.189  13.472
14250W        W86675  42.916  26.512   2.242
14251W        W86676  19.379   1.735  14.657
14252W        W86677  15.705  29.087   2.307
14253W        W86678  19.235  37.087  12.086
14254W        W86679  35.050  19.172  11.564
14255W        W86680   3.697  34.780  12.352
14256W        W86681  24.145  19.867   5.146
14257W        W86682  24.721  15.545   3.543
14258W        W86683  38.552  24.689  12.936
14259W        W86684  38.987  24.054  11.609
14260W        W86685  17.246  35.927   1.817
14261W        W86686  19.302  31.084   3.588
14262W        W86687   3.335  31.864  11.202
14263W        W86688   3.304  19.710   4.204
14264W        W86689  16.250  25.384   3.734
14265W        W86690  40.277  28.091   5.427
14266W        W86691   8.088  13.311  14.266
14267W        W86692   9.311  14.587   4.500
14268W        W86693  23.879  38.905  13.392
14269W        W86694  24.818  44.343  12.331
14270W        W86695   5.382  11.547  14.306
14271W        W86696  18.698  13.983   5.127
14272W        W86697  16.789   5.427   0.352
14273W        W86698   8.785   7.267  10.692
14274W        W86699  18.693  14.241   1.305
14275W        W86700  44.185  28.456   3.834
14276W        W86701  36.064  32.645   3.324
14277W        W86702  20.006   6.840  14.771
14278W        W86703  39.673  25.766  12.866
14279W        W86704  21.655  10.197  10.765
14280W        W86705   2.654  37.863   2.172
14281W        W86706  35.629  30.821   0.169
14282W        W86707  43.551  38.508   4.586
14283W        W86708   8.337   7.549   2.760
14284W        W86709  30.594  40.031   3.447
14285W        W86710  21.818  34.906   2.979
14286W        W86711   5.696   6.508  14.793
14287W        W86712  24.149  36.806   0.211
14288W        W86713  20.563  37.776  11.037
14289W        W86714  30.747  39.373  14.101
14290W        W86715  13.243  22.804   0.812
14291W        W86716  39.024  15.281   4.529
14292W        W86717  11.839  13.636  14.367
14293W        W86718  43.904   9.902  13.402
14294W        W86719  23.814   4.938   4.653
14295W        W86720  42.873  34.091  13.315
14296W        W86721  24.754  18.690   3.382
14297W        W86722  23.647  18.164  14.451
14298W        W86723  28.701   6.841   0.360
14299W        W86724  39.337  28.297   0.249
14300W        W86725  22.786   4.276  13.032
14301W        W86726  28.634  25.251   0.823
14302W        W86727  43.891  43.984   2.878
14303W        W86728  37.892  11.775   2.710
14304W        W86729  23.728   1.362  11.532
14305W        W86730  10.290  18.116   2.632
14306W        W86731  24.877   6.345   1.780
14307W        W86732   7.983   4.698  10.968
14308W        W86733  33.442   0.369  14.331
14309W        W86734  36.204  29.838  12.118
14310W        W86735  35.028  15.925   5.099
14311W        W86736  19.609  20.490   4.700
14312W        W86737  20.754  40.212   2.759
14313W        W86738  39.454  23.654  12.930
14314W        W86739   8.979  19.499   4.335
14315W        W86740  21.734  12.755  14.938
14316W        W86741  21.798  41.481  14.496
14317W        W86742  14.878   6.692  13.736
14318W        W86743  18.601  24.738  14.572
14319W        W86744  22.127  26.677   2.159
14320W        W86745   5.376  14.533  14.948
14321W        W86746  20.231  28.072  12.852
14322W        W86747   4.640  39.328  14.414
14323W        W86748  18.608   2.476  11.092
14324W        W86749  44.273  26.080   5.175
14325W        W86750  14.629  34.599  13.332
14326W        W86751  41.798  15.256  14.231
14327W        W86752   0.081   2.670  12.999
14328W        W86753  30.071  32.518   3.206
14329W        W86754  11.412  36.567  11.258
14330W        W86755  44.086   2.445   0.748
14331W        W86756  16.055  41.960  13.692
14332W        W86757  17.210  34.384  13.147
14333W        W86758  16.864   5.785  14.337
14334W        W86759  43.933  16.643  11.417
14335W        W86760   8.795   0.792   2.402
14336W        W86761  14.620  42.039   3.757
14337W        W86762   6.713  22.140  12.116
14338W        W86763  19.567  13.762   4.438
14339W        W86764  29.543  16.545  10.414
14340W        W86765   7.477  44.336  14.668
14341W        W86766   6.257  38.985  13.913
14342W        W86767  38.066  18.085  13.800
14343W        W86768   3.775  13.581  12.475
14344W        W86769  37.484  21.979  14.698
14345W        W86770   7.334   6.273  11.129
14346W        W86771  16.798  29.550  12.611
14347W        W86772  22.787  10.231   1.602
14348W        W86773  38.786  12.903  14.233
14349W        W86774  11.758  33.893  12.998
14350W        W86775  43.870  26.934   2.288
14351W        W86776  42.831  14.537   3.268
14352W        W86777   6.712  22.466   2.178
14353W        W86778  16.247   8.566  12.940
14354W        W86779   5.360  10.184  12.498
14355W        W86780  30.366   1.898  14.380
14356W        W86781   5.431  40.033   3.016
14357W        W86782  19.476  36.967  13.532
14358W        W86783  43.919   2.283   4.739
14359W        W86784  32.486  27.564   1.399
14360W        W86785  24.397  42.197   1.743
14361W        W86786   3.661  38.065  11.622
14362W        W86787  31.627  28.992  13.396
14363W        W86788  30.695  39.874   1.222
14364W        W86789  41.347  23.637   2.858
14365W        W86790  32.635  12.578   4.751
14366W        W86791  40.520  28.611   1.606
14367W        W86792   4.704  21.244   3.182
14368W        W86793  15.983  26.939   2.356
14369W        W86794   4.416  16.035  14.813
14370W        W86795   4.253  39.536   4.503
14371W        W86796  32.542  14.101   0.361
14372W        W86797  40.371  36.214   1.980
14373W        W86798  33.702  18.964   1.261
14374W        W86799  29.671   5.468  11.144
14375W        W86800  14.660   6.762   1.651
14376W        W86801  33.621  32.674  13.310
14377W        W86802  16.193  33.383   3.390
14378W        W86803  12.548  44.514   3.860
14379W        W86804   7.725  38.373   3.945
14380W        W86805  12.855  41.956   0.274
14381W        W86806   8.478  26.387   1.566
14382W        W86807  14.164  28.122   1.797
14383W        W86808  39.451  27.126   4.417
14384W        W86809   3.290  31.340  11.345
14385W        W86810  41.823  33.045  14.466
14386W        W86811   3.678  35.168   3.180
14387W        W86812  20.502  27.009  11.910
14388W        W86813   8.230  28.851  14.196
14389W        W86814   3.855  21.055  11.527
14390W        W86815  31.431  11.639   2.169
14391W        W86816  36.024  14.219  11.908
14392W        W86817  13.978  25.889  12.438
14393W        W86818  19.170  12.496  12.797
14394W        W86819  32.861  12.114   4.671
14395W        W86820  37.642  10.718   0.397
14396W        W86821   1.091  32.914   3.198
14397W        W86822  15.887  10.701  11.479
14398W        W86823  28.496  39.073   4.111
14399W        W86824  38.090  28.736  12.873
14400W        W86825  16.834  29.045  12.544
14401W        W86826  33.903  42.565  13.894
14402W        W86827  38.983   6.331  12.950
14403W        W86828  37.347  37.505   5.155
14404W        W86829  24.973  38.633   2.804
14405W        W86830  15.264  19.857   3.626
14406W        W86831  38.938   2.669   2.166
14407W        W86832  12.309  27.485   4.469
14408W        W86833   5.993  21.937  12.850
14409W        W86834  12.810  19.080  14.905
14410W        W86835  44.440  13.774  10.713
14411W        W86836  16.743  43.017   1.342
14412W        W86837   9.332   1.293   3.408
14413W        W86838   2.232  10.638   1.857
14414W        W86839  21.307  12.647  13.351
14415W        W86840   1.944   7.379   2.089
14416W        W86841  30.074  28.456  11.356
14417W        W86842  43.494   1.217  12.478
14418W        W86843  44.399  19.541  12.507
14419W        W86844  20.160   9.795   4.281
14420W        W86845  39.182   6.189  10.793
14421W        W86846  25.588  21.227   1.771
14422W        W86847   4.446   6.256   1.147
14423W        W86848  30.967  27.566  10.646
14424W        W86849  35.970  38.009  10.763
14425W        W86850  41.521   3.195  11.171
14426W        W86851  44.899  42.339  13.597
14427W        W86852  41.320   2.062   3.809
14428W        W86853  26.307  23.741   3.798
14429W        W86854  20.045  24.906   1.837
14430W        W86855  33.640  20.669  13.398
14431W        W86856  39.341  27.508  13.605
14432W        W86857  14.230   9.223   2.450
14433W        W86858   5.378  35.824   2.487
14434W        W86859  42.756  40.321   1.920
14435W        W86860  10.308  14.585  14.292
14436W        W86861  11.427  34.807   4.166
14437W        W86862  38.905  44.324   0.951
14438W        W86863  44.079  25.117  10.994
14439W        W86864  32.226   3.850  13.439
14440W        W86865  22.270  40.972   3.339
14441W        W86866  43.477  31.549  12.894
14442W        W86867  28.630   9.853  11.476
14443W        W86868  43.484  22.255   3.619
14444W        W86869  18.265   2.146  11.890
14445W        W86870  43.325  21.037   1.564
14446W        W86871  19.695  14.899  11.861
14447W        W86872  25.781  27.356   2.699
14448W        W86873  13.853   3.301   1.461
14449W        W86874  11.434  15.479   2.747
14450W        W86875   8.815  20.828  13.899
14451W        W86876   3.885  37.531   4.970
14452W        W86877  10.607   2.152  14.331
14453W        W86878  21.922   5.415   1.838
14454W        W86879  23.555  44.865  13.795
14455W        W86880   9.717  12.261  14.236
14456W        W86881  17.187  36.045  13.602
14457W        W86882   8.273  40.215   4.834
14458W        W86883   3.990  23.139  14.616
14459W        W86884  39.460  11.478   2.710
14460W        W86885   4.821  15.046   1.820
14461W        W86886  19.761   7.325   4.268
14462W        W86887  20.128  12.230   2.777
14463W        W86888  41.011  23.441  12.114
14464W        W86889  28.495  22.193   0.422
14465W        W86890  33.323  10.807   1.732
14466W        W86891  26.740   2.810  13.363
14467W        W86892  28.980  26.208  13.584
14468W        W86893  29.089  16.660  13.858
14469W        W86894  38.736  34.855   2.651
14470W        W86895  31.386   2.641  13.092
14471W        W86896   7.223  25.532   2.956
14472W        W86897  19.790  17.605  14.545
14473W        W86898  31.634  30.504   4.622
14474W        W86899   9.353  26.189   4.872
14475W        W86900  37.465  26.262   4.430
14476W        W86901   7.727  29.460   4.040
14477W        W86902  24.944  33.987   1.313
14478W        W86903   4.662   2.094   4.655
14479W        W86904   2.274   3.885   0.942
14480W        W86905  20.664  32.683   3.761
14481W        W86906  32.420  22.216  14.476
14482W        W86907  25.989  21.244  11.618
14483W        W86908  25.924   2.310   4.557
14484W        W86909  37.211  42.097  11.045
14485W        W86910  20.778   4.760   0.679
14486W        W86911  17.451  18.571  12.528
14487W        W86912   9.228   3.662  12.834
14488W        W86913  38.138  28.622   0.306
14489W        W86914  43.025  12.126   3.300
14490W        W86915  17.124  25.116   0.922
14491W        W86916  27.572  14.360   0.245
14492W        W86917  28.588  12.768   0.830
14493W        W86918  14.375  11.779  14.052
14494W        W86919  44.298  39.601  10.190
14495W        W86920  11.093   8.222  10.556
14496W        W86921  25.813  39.462   4.245
14497W        W86922  40.002  44.452   3.346
14498W        W86923  10.680  13.065   0.331
14499W        W86924  27.503  30.385  11.477
14500W        W86925   8.056   8.807  14.457
14501W        W86926  44.930  14.097   0.221
14502W        W86927   8.665  43.586  12.894
14503W        W86928   8.012   5.781   3.577
14504W        W86929  15.068  38.303  12.975
14505W        W86930  29.376  15.263  14.883
14506W        W86931  44.154  17.617  14.909
14507W        W86932   8.830  11.593   3.631
14508W        W86933  16.427  39.633   0.726
14509W        W86934  29.741  39.520  13.145
14510W        W86935  25.524   0.179   4.322
14511W        W86936  29.936  25.256   2.594
14512W        W86937  15.310  40.344  10.382
14513W        W86938   4.814   5.077  13.054
14514W        W86939  41.989  12.137  14.807
14515W        W86940  18.700  44.931   2.266
14516W        W86941   0.408   1.687   1.368
14517W        W86942   1.383   1.384  14.879
14518W        W86943   4.682  28.178  14.638
14519W        W86944  18.957  34.506  11.952
14520W        W86945  41.288  31.698  11.919
14521W        W86946  29.090  24.002   2.933
14522W        W86947  27.030   5.926  12.497
14523W        W86948   3.362  38.434  14.510
14524W        W86949  12.157  18.362   3.679
14525W        W86950  44.537  33.125  13.418
14526W        W86951  18.638  16.271  10.886
14527W        W86952  39.778  44.462  10.267
14528W        W86953   8.600   5.091   4.252
14529W        W86954  11.592  13.819  13.908
14530W        W86955  28.056  18.031  13.404
14531W        W86956  30.185  44.712  13.487
14532W        W86957   5.803   8.732  14.968
14533W        W86958  11.115  30.819   0.138
14534W        W86959  14.025  43.591   0.252
14535W        W86960  37.976  29.441  14.358
14536W        W86961   0.368  42.658   2.163
14537W        W86962  42.861  20.473  11.073
14538W        W86963  17.362   4.593   4.295
14539W        W86964  18.300  18.944  11.320
14540W        W86965  39.630  44.818  14.854
14541W        W86966  25.510  20.911   2.179
14542W        W86967  32.150   0.223   3.712
14543W        W86968   0.345  36.375  10.785
14544W        W86969  31.992  37.261  12.560
14545W        W86970  26.025  43.995  14.802
14546W        W86971  23.758   4.955   3.756
14547W        W86972  22.109   3.201  13.334
14548W        W86973  23.195  44.395  13.035
14549W        W86974  24.687  39.780   1.658
14550W        W86975  38.515  30.983   1.239
14551W        W86976   6.262  27.025  14.880
14552W        W86977   4.115  30.984   0.363
14553W        W86978  20.246   5.897   2.848
14554W        W86979  35.901   5.945   4.556
14555W        W86980   0.285  12.844   4.396
14556W        W86981   4.732  36.760  13.392
14557W        W86982  29.541  28.126   1.236
14558W        W86983   5.299  28.168   1.292
14559W        W86984   1.518  25.793   3.989
14560W        W86985   1.216   0.961   2.255
14561W        W86986   0.118  39.975  14.318
14562W        W86987  43.976  34.870  14.885
14563W        W86988  16.263  41.677   1.333
14564W        W86989  44.951   3.931   0.362
14565W        W86990  25.386  24.178  10.656
14566W        W86991  33.056  22.732   2.151
14567W        W86992  43.174  41.479   0.230
14568W        W86993  10.639  20.954  12.718
14569W        W86994  16.500   4.214   0.389
14570W        W86995   6.321  16.525   1.298
14571W        W86996   1.691  27.612  10.967
14572W        W86997  14.329  32.472  10.755
14573W        W86998  39.321   8.976  10.946
14574W        W86999   3.496  11.751  11.425
14575W        W87000  29.415  37.011   0.692
14576W        W87001  22.190  21.642  13.005
14577W        W87002   4.359  38.412  13.549
14578W        W87003  29.827  30.170  10.729
14579W        W87004   8.144  10.288  11.155
14580W        W87005   6.509  42.481  12.939
14581W        W87006  44.097  21.564   3.811
14582W        W87007   2.240  18.694   4.144
14583W        W87008  33.126  35.132   2.265
14584W        W87009  43.724  33.312  14.795
14585W        W87010  33.776  28.513   3.611
14586W        W87011  15.314  27.941   0.352
14587W        W87012  38.083  24.662   5.141
14588W        W87013  11.710  40.548  14.403
14589W        W87014  18.242  36.324   3.244
14590W        W87015  10.337  41.010   3.819
14591W        W87016  25.720  25.906  11.152
14592W        W87017  23.655   1.036   2.294
14593W        W87018  24.957  34.539   3.999
14594W        W87019  15.536  33.457   4.603
14595W        W87020  23.474   9.289   2.499
14596W        W87021  42.661  43.363   0.504
14597W        W87022  35.187  18.267   2.227
14598W        W87023  34.982  29.133  11.151
14599W        W87024   9.839   4.057  11.204
14600W        W87025  43.741  20.440   3.299
14601W        W87026   9.325  10.468  13.880
14602W        W87027   9.445  41.319   1.371
14603W        W87028  29.668  16.717   1.669
14604W        W87029  30.530  43.017  13.968
14605W        W87030  21.045  21.730  14.370
14606W        W87031  12.952  21.706  13.415
14607W        W87032  37.091  12.220  12.099
14608W        W87033  35.083  29.544   1.421
14609W        W87034   8.855  16.073   1.713
14610W        W87035  14.988  42.402   3.810
14611W        W87036  27.925   3.730   2.730
14612W        W87037   7.586  20.496  10.699
14613W        W87038  40.485  36.810  12.061
14614W        W87039  19.548  30.056  11.137
14615W        W87040   4.550  43.372   1.774
14616W        W87041  37.836  13.681  12.835
14617W        W87042   3.261  23.071  12.385
14618W        W87043  32.621  32.609  14.864
14619W        W87044  38.958  11.757   0.851
14620W        W87045  29.282  19.665   3.183
14621W        W87046  30.631  28.081  13.144
14622W        W87047   5.394  38.303  11.220
14623W        W87048   7.613  36.131   0.916
14624W        W87049  15.089  24.115  13.865
14625W        W87050   0.963  29.183   0.956
14626W        W87051   8.650  23.024   2.296
14627W        W87052   8.165  22.667   1.892
14628W        W87053  21.027  14.639   0.503
14629W        W87054  21.091   9.091  11.021
14630W        W87055  11.585  13.269   1.880
14631W        W87056  17.178   8.740  10.312
14632W        W87057  22.335  33.050   3.873
14633W        W87058  19.660  33.488  10.629
14634W        W87059  30.694   4.235   3.838
14635W        W87060  25.637  28.495   3.814
14636W        W87061  19.081  16.514   3.699
14637W        W87062  22.957  13.562  11.623
14638W        W87063  30.654  35.305  12.243
14639W        W87064  32.050  13.094  10.929
14640W        W87065  34.638   6.233  11.188
14641W        W87066  12.248   2.499   4.364
14642W        W87067  30.135  43.565   2.698
14643W        W87068   2.806  35.500   0.325
14644W        W87069  44.850  15.140   1.935
14645W        W87070  36.372  39.165   4.205
14646W        W87071  16.274   1.483  14.426
14647W        W87072  26.226  31.501  10.573
14648W        W87073  12.288  34.152  12.399
14649W        W87074  38.592  43.330   1.611
14650W        W87075  27.740  22.144  14.334
14651W        W87076  35.954   8.363  13.069
14652W        W87077  13.701  25.401   0.179
14653W        W87078  11.840  11.685   0.963
14654W        W87079   4.494   4.058  13.559
14655W        W87080  23.175  28.727   0.462
14656W        W87081  23.955  40.062   1.023
14657W        W87082  26.421   9.746  14.371
14658W        W87083  39.385  22.914   4.459
14659W        W87084  10.917  23.193   1.769
14660W        W87085   1.271   6.133   2.323
14661W        W87086  15.176   9.962  12.774
14662W        W87087   8.424  22.256  13.476
14663W        W87088  19.072  23.547   3.274
14664W        W87089  24.279  10.640  11.136
14665W        W87090  24.728  36.074  11.195
14666W        W87091  41.810   0.296  10.785
14667W        W87092  43.871  15.356  13.797
14668W        W87093  25.064  24.862   1.433
14669W        W87094  24.486  38.458  11.686
14670W        W87095   4.006   5.935   1.802
14671W        W87096  33.056  31.409   0.886
14672W        W87097  17.114  31.849   1.834
14673W        W87098  27.496   0.677   2.375
14674W        W87099  40.455  18.929  12.104
14675W        W87100  40.949  38.320  10.717
14676W        W87101  33.866  12.798   4.125
14677W        W87102  42.545  26.745   2.510
14678W        W87103  17.067  37.839  12.634
14679W        W87104   1.281  25.381  11.133
14680W        W87105  39.543  39.939  10.553
14681W        W87106  15.154  25.340   1.197
14682W        W87107  30.646   8.936  13.842
14683W        W87108  28.915  15.742  10.783
14684W        W87109  15.074  21.222   3.345
14685W        W87110  42.560   0.038   1.916
14686W        W87111  27.443  12.853   3.494
14687W        W87112  35.149  16.577  11.637
14688W        W87113  44.784  41.218   0.559
14689W        W87114   7.389  40.550  14.426
14690W        W87115  40.389  42.702  10.682
14691W        W87116   8.817  26.467  14.264
14692W        W87117  43.506  17.236  11.177
14693W        W87118  34.438  38.806   2.155
14694W        W87119  32.887  32.582   4.105
14695W        W87120  23.620   0.807  14.770
14696W        W87121   3.700  32.512   2.110
14697W        W87122  37.996  22.562   3.066
14698W        W87123   2.453  17.825   4.234
14699W        W87124   8.703  24.931   3.388
14700W        W87125  12.105  32.853   0.216
14701W        W87126  43.475   5.244   3.995
14702W        W87127  35.589  42.452  14.773
14703W        W87128  32.381  40.158  12.643
14704W        W87129   7.772  16.280  13.698
14705W        W87130  44.396  18.148  14.231
14706W        W87131  19.725  31.982   1.313
14707W        W87132   3.923  39.962  11.417
14708W        W87133  24.257  30.284  10.295
14709W        W87134   6.185   8.448   1.350
14710W        W87135  12.302  39.176   4.533
14711W        W87136  39.218  40.791   4.342
14712W        W87137  33.626   4.134   4.217
14713W        W87138   3.746  28.943   0.265
14714W        W87139  22.469  20.789   1.440
14715W        W87140  40.446  16.261   4.974
14716W        W87141   7.599  33.053   4.690
14717W        W87142  40.766   2.812   4.389
14718W        W87143  34.943  17.449   1.896
14719W        W87144  14.555  13.347   0.717
14720W        W87145  43.978  38.286  11.950
14721W        W87146   7.752   3.888   3.315
14722W        W87147  19.305  34.429  10.680
14723W        W87148  30.168  14.840   2.921
14724W        W87149   0.801  14.540  12.511
14725W        W87150  22.274   4.347  14.273
14726W        W87151  40.581  42.906  11.155
14727W        W87152  17.015  10.820  11.169
14728W        W87153   1.913  22.496   1.206
14729W        W87154  29.182  43.690   0.719
14730W        W87155  17.107  29.981  10.486
14731W        W87156  43.500   5.097  14.148
14732W        W87157   2.480  13.470   3.257
14733W        W87158  16.836  24.262  11.077
14734W        W87159  30.544  23.695  11.246
14735W        W87160   7.920  43.395   3.246
14736W        W87161  34.613  32.155   0.020
14737W        W87162  23.874  39.263   3.218
14738W        W87163  29.559  10.379  13.283
14739W        W87164  35.019  31.333  11.002
14740W        W87165   6.226  18.208  14.544
14741W        W87166   4.208  43.724   2.769
14742W        W87167  13.387  35.065  14.788
14743W        W87168  41.308  27.053   1.436
14744W        W87169  21.819  33.355  11.596
14745W        W87170   2.515   0.305   1.365
14746W        W87171  25.951  34.350  14.824
14747W        W87172  18.474   1.516   1.374
14748W        W87173  29.224   4.151  12.978
14749W        W87174  44.494  36.995   3.779
14750W        W87175  34.618  25.954  11.413
14751W        W87176   8.766  11.302   4.269
14752W        W87177  32.329  20.593   1.880
14753W        W87178  15.018   1.928   3.915
14754W        W87179  22.105  25.952  10.702
14755W        W87180  18.837  42.289  11.969
14756W        W87181  32.324  30.400  14.553
14757W        W87182  41.363  15.115  11.609
14758W        W87183  34.964   4.645   4.507
14759W        W87184  34.790  11.617   2.716
14760W        W87185  44.735  30.850  14.084
14761W        W87186  38.837  29.454  13.400
14762W        W87187   1.944  34.850  12.122
14763W        W87188  25.196  37.777   2.338
14764W        W87189  39.440  19.331   4.342
14765W        W87190   3.884  38.708   3.384
14766W        W87191   5.770  12.837   1.584
14767W        W87192  43.511  17.031   2.885
14768W        W87193  15.146  43.549   1.950
14769W        W87194  10.772  34.162  14.869
14770W        W87195  26.073   3.922  13.791
14771W        W87196   5.482  44.855   1.959
14772W        W87197  28.631   2.286   1.289
14773W        W87198  41.073  10.240  14.601
14774W        W87199  11.156  25.488   4.164
14775W        W87200  10.656  23.509  13.383
14776W        W87201  26.441  33.149  14.858
14777W        W87202  13.206  15.423  11.017
14778W        W87203  33.657  25.082   2.451
14779W        W87204  34.187  10.715   2.153
14780W        W87205   4.787  12.812   3.778
14781W        W87206  30.151   7.454   1.274
14782W        W87207  43.861   0.245   1.399
14783W        W87208  37.395   3.304  11.674
14784W        W87209   8.330  30.338   1.705
14785W        W87210  42.164  41.232  13.347
14786W        W87211  38.002   8.351   2.691
14787W        W87212  11.917   9.775  12.529
14788W        W87213  22.897  21.048  14.178
14789W        W87214   2.227   3.933   2.272
14790W        W87215  40.969  36.956  10.593
14791W        W87216  25.595  40.210   1.419
14792W        W87217  28.759  44.790  11.277
14793W        W87218  12.029  29.485   0.623
14794W        W87219  13.864  28.963   0.841
14795W        W87220   2.517  31.514   3.613
14796W        W87221  21.647  42.960   0.479
14797W        W87222   0.171  28.126  13.389
14798W        W87223   3.251   4.503  11.948
14799W        W87224  11.668  38.845  12.409
14800W        W87225   3.772  29.380  10.174
14801W        W87226   1.924  41.206   1.195
14802W        W87227   7.207  17.728   0.304
14803W        W87228  13.252  19.415  14.752
14804W        W87229  14.820  41.414   3.158
14805W        W87230  26.723  24.298  13.866
14806W        W87231   1.439  32.514   0.004
14807W        W87232  38.007  35.993   5.154
14808W        W87233  35.391  31.009   3.711
14809W        W87234   9.741   6.681  11.161
14810W        W87235  27.080  43.319   3.705
14811W        W87236  20.770  42.684  12.701
14812W        W87237  16.911  37.092  11.692
14813W        W87238  24.391   4.669   4.476
14814W        W87239  37.362  20.253   1.865
14815W        W87240  38.626  16.785   1.445
14816W        W87241  39.778  33.973  13.574
14817W        W87242  29.323   1.007   2.847
14818W        W87243  39.538  31.045  10.977
14819W        W87244   1.218  22.903  12.553
14820W        W87245   5.965  44.177  13.888
14821W        W87246  30.903  18.625  14.801
14822W        W87247   1.635  15.319   1.149
14823W        W87248  16.838  26.075  13.420
14824W        W87249  24.250  21.242   1.142
14825W        W87250  20.727  20.511   0.006
14826W        W87251   8.379  11.755  12.115
14827W        W87252  32.491  17.220  14.449
14828W        W87253   2.781  12.247  14.469
14829W        W87254  31.198  12.524  12.899
14830W        W87255  41.746  20.776  11.572
14831W        W87256  22.218  34.629   1.743
14832W        W87257  37.278  36.081  11.857
14833W        W87258   0.348  24.974  10.768
14834W        W87259   4.204  44.359  12.015
14835W        W87260  24.602  36.881  10.742
14836W        W87261  31.678  38.336  13.452
14837W        W87262   8.706  32.096   4.302
14838W        W87263  21.268  41.572  11.965
14839W        W87264  17.697  29.688   1.481
14840W        W87265  24.498  15.157   4.152
14841W        W87266  28.627  37.694  12.973
14842W        W87267  36.127  20.753   1.925
14843W        W87268   2.179  39.920  12.082
14844W        W87269  16.079  38.457  11.917
14845W        W87270  44.469   2.354   4.151
14846W        W87271   7.845   1.804  14.412
14847W        W87272  24.100  26.459  12.690
14848W        W87273  36.254  41.402   0.349
14849W        W87274  13.236  21.139   4.606
14850W        W87275  32.676  16.569  10.272
14851W        W87276  31.884  12.778   1.465
14852W        W87277  36.426  31.578   4.856
14853W        W87278  34.084  19.012   4.192
14854W        W87279  35.404  26.910   3.309
14855W        W87280  23.705   8.932   2.813
14856W        W87281  16.474   0.160   0.317
14857W        W87282  12.893  40.113  11.910
14858W        W87283  22.722   2.697  12.945
14859W        W87284  26.558  34.182  13.733
14860W        W87285  21.089  34.044   4.784
14861W        W87286  36.287  15.566   1.003
14862W        W87287  36.495  22.246   3.672
14863W        W87288   5.180  37.546   4.158
14864W        W87289  20.075  10.429  11.074
14865W        W87290  20.762   7.277  10.468
14866W        W87291   8.868  27.968   3.702
14867W        W87292   2.328  18.974  12.985
14868W        W87293   4.975  17.192   2.446
14869W        W87294  32.131  20.059  10.557
14870W        W87295  11.674   2.473  11.935
14871W        W87296  11.852  17.628  14.514
14872W        W87297  39.872  20.521   4.519
14873W        W87298  34.964  17.376   4.727
14874W        W87299  44.865  23.129  11.930
14875W        W87300  27.879  38.369  14.489
14876W        W87301  35.320  12.818  14.805
14877W        W87302  42.539  27.900  10.463
14878W        W87303  29.485  15.251   4.567
14879W        W87304  27.515  26.221  10.850
14880W        W87305  36.365  17.148  10.613
14881W        W87306  10.659  21.002  13.537
14882W        W87307  18.820  21.240  14.723
14883W        W87308  36.590  22.610  14.707
14884W        W87309  44.445  43.357  13.923
14885W        W87310  22.419  35.725   4.871
14886W        W87311  10.903  29.420  12.977
14887W        W87312  14.556   7.885  10.671
14888W        W87313  39.300  35.548   0.802
14889W        W87314  40.122  10.323   4.174
14890W        W87315  26.029   5.995  11.869
14891W        W87316  33.054  21.645  11.432
14892W        W87317   4.439  30.107  10.536
14893W        W87318   4.413  27.868   1.825
14894W        W87319  32.419   5.265   3.786
14895W        W87320  31.316   8.624   0.499
14896W        W87321  11.612  23.272  10.200
14897W        W87322  33.088  22.065  13.574
14898W        W87323  14.687  29.194  11.201
14899W        W87324  19.156  36.497  10.942
14900W        W87325  19.265  26.151  11.321
14901W        W87326  15.065   9.798   4.594
14902W        W87327  32.315  38.118   2.291
14903W        W87328  44.903   1.187  11.193
14904W        W87329  29.002   6.842  11.672
14905W        W87330   1.805  39.094   3.731
14906W        W87331  12.687  29.029   1.411
14907W        W87332  40.829  18.469  12.402
14908W        W87333   3.319  25.184   4.180
14909W        W87334  34.499  36.294   1.938
14910W        W87335   4.768  24.995   4.710
14911W        W87336  10.393  13.272  14.911
14912W        W87337  24.154   3.822  11.438
14913W        W87338  10.458  23.884   4.405
14914W        W87339  39.887  12.065  12.604
14915W        W87340  40.486  13.709  11.491
14916W        W87341  20.127  39.900   3.997
14917W        W87342  14.700   4.716   0.878
14918W        W87343  41.852   6.107  13.002
14919W        W87344  27.641  37.452  11.643
14920W        W87345  18.460   1.252  12.461
14921W        W87346  20.102  29.433  13.980
14922W        W87347   2.838  41.562   1.512
14923W        W87348  10.449  43.372  10.162
14924W        W87349  16.517  37.186   3.876
14925W        W87350  32.340  28.735   4.392
14926W        W87351   8.272  18.317   1.358
14927W        W87352  16.542  28.611   1.070
14928W        W87353  34.542  40.033  13.797
14929W        W87354  14.132   1.905   3.931
14930W        W87355   5.729  39.897   2.029
14931W        W87356  32.094  22.092  11.219
14932W        W87357  37.644   7.208   3.327
14933W        W87358  20.900   0.927   2.032
14934W        W87359  42.239  38.895  10.631
14935W        W87360  27.685  41.972  13.626
14936W        W87361  14.142  19.546  10.842
14937W        W87362  27.586  21.002   5.063
14938W        W87363  44.929  30.193   3.737
14939W        W87364  39.793  26.432   0.345
14940W        W87365  11.382  20.653  13.768
14941W        W87366   4.505  31.423  13.229
14942W        W87367  37.526  18.342   3.237
14943W        W87368  32.924   2.769   2.397
14944W        W87369   9.388  34.217   1.374
14945W        W87370  32.607  41.559   3.153
14946W        W87371  17.397  44.271   0.849
14947W        W87372  22.912  25.400  13.443
14948W        W87373  20.681  33.463  12.645
14949W        W87374  15.771  42.612  12.451
14950W        W87375  29.623  44.769   3.224
14951W        W87376  16.643  40.970  11.327
14952W        W87377  13.391  43.817   1.311
14953W        W87378  33.627  28.615  14.028
14954W        W87379  12.070  23.954  12.967
14955W        W87380  22.301  34.631   0.861
14956W        W87381   5.865  20.319   2.794
14957W        W87382  40.033  11.429  11.859
14958W        W87383  23.096  12.680  12.109
14959W        W87384  36.345   8.432   3.283
14960W        W87385   9.366   7.396  13.099
14961W        W87386   3.303  30.082  11.072
14962W        W87387  34.498  17.214   1.992
14963W        W87388  19.250  16.092  11.323
14964W        W87389   0.857  13.706   4.807
14965W        W87390  29.935  42.392  13.068
14966W        W87391   6.703  16.132  11.970
14967W        W87392  38.602  33.387   4.893
14968W        W87393  27.595   2.900   0.420
14969W        W87394  35.286  19.350  13.356
14970W        W87395  32.676  38.573  12.570
14971W        W87396  44.639   1.987  14.432
14972W        W87397  29.018  21.629  12.673
14973W        W87398  24.216  11.273   3.431
14974W        W87399   2.031  14.085   2.781
14975W        W87400  28.654  19.570  11.139
14976W        W87401  19.417  42.904   1.804
14977W        W87402  34.571   9.159  13.730
14978W        W87403  17.041   6.991   4.963
14979W        W87404  16.744  34.476  10.486
14980W        W87405  22.636  43.554   1.895
14981W        W87406  22.480  19.721   3.786
14982W        W87407  22.613  20.979   4.861
14983W        W87408  21.602  31.589   1.485
14984W        W87409  37.156  22.728  13.771
14985W        W87410  42.175  28.573   0.799
14986W        W87411  41.792   6.266   0.378
14987W        W87412  19.651  16.519  14.472
14988W        W87413  10.247  22.989  13.037
14989W        W87414  15.772  28.287   2.874
14990W        W87415  32.926  30.127   4.344
14991W        W87416  23.136  25.572  11.617
14992W        W87417  12.751  18.812  12.618
14993W        W87418   7.808  31.068   1.985
14994W        W87419  31.813  16.356  10.213
14995W        W87420  44.439  41.646  13.978
14996W        W87421   1.027  23.584   2.666
14997W        W87422   7.591   1.875  10.058
14998W        W87423  35.236   9.398   4.254
14999W        W87424  36.999  36.389  13.174
15000W        W87425   7.692  11.595  10.927
15001W        W87426  28.419  41.812   3.414
15002W        W87427  36.135   9.628  10.475
15003W        W87428  41.947  28.370  13.415
15004W        W87429  35.636  26.643  11.079
15005W        W87430  11.388  27.455   3.916
15006W        W87431  40.057   9.770   1.365
15007W        W87432  35.433  10.137  12.937
15008W        W87433  20.597  19.072   3.673
15009W        W87434  13.143   6.397   2.495
15010W        W87435  27.561  27.088   1.724
15011W        W87436  41.495   0.294   4.926
15012W        W87437  40.529  34.985  12.124
15013W        W87438  11.696  30.877   1.670
15014W        W87439  25.668  44.969   3.838
15015W        W87440  25.354  33.121  12.025
15016W        W87441  21.873  39.102   3.335
15017W        W87442  16.165  37.355  10.647
15018W        W87443  11.339  34.131  11.135
15019W        W87444  21.292   0.690  14.927
15020W        W87445   2.516  18.225  10.588
15021W        W87446  34.788   6.442   4.073
15022W        W87447  41.795  23.581   2.549
15023W        W87448  22.216  35.460  10.697
15024W        W87449  21.959  42.420   0.806
15025W        W87450   8.147  33.551   2.277
15026W        W87451   4.764  36.397   1.514
15027W        W87452  14.256  23.789  14.921
15028W        W87453  43.549  28.926   0.810
15029W        W87454  29.097  37.815  12.544
15030W        W87455  16.053  10.629  14.458
15031W        W87456  20.426  10.174   4.520
15032W        W87457   4.194  36.028   2.640
15033W        W87458  13.899  28.528   2.754
15034W        W87459  39.486  37.359  12.887
15035W        W87460  20.498   8.314   4.305
15036W        W87461  27.736  13.394  11.898
15037W        W87462  22.524   3.193  12.971
15038W        W87463  25.633  14.673   3.169
15039W        W87464  14.088  34.634  13.056
15040W        W87465   5.786  32.064   2.927
15041W        W87466  26.461  44.426  14.377
15042W        W87467   2.069  36.348  12.882
15043W        W87468  24.944  36.733   0.468
15044W        W87469  21.994  11.944  13.941
15045W        W87470   6.735   1.615   4.084
15046W        W87471  43.228  36.795  12.359
15047W        W87472  11.399  43.136   0.194
15048W        W87473   4.223  15.331   1.257
15049W        W87474  18.540  29.246   3.193
15050W        W87475   3.801  17.054   3.207
15051W        W87476   3.052  43.090   2.104
15052W        W87477  34.429  42.813   0.399
15053W        W87478  17.098  27.673   1.918
15054W        W87479  15.410  15.269  11.579
15055W        W87480   2.197  10.328  10.579
15056W        W87481  39.439  41.270   0.894
15057W        W87482   5.223   3.237  10.374
15058W        W87483   6.691  37.787   1.232
15059W        W87484  40.295  21.264  12.390
15060W        W87485  23.713  43.305  11.930
15061W        W87486   1.580   7.605   3.715
15062W        W87487  31.673  13.759   2.674
15063W        W87488  44.450   1.566   1.210
15064W        W87489  28.573   4.025  11.070
15065W        W87490  42.379  34.650  12.914
15066W        W87491  26.764  12.623   4.061
15067W        W87492  18.668  16.840   1.612
15068W        W87493  16.254  23.279   3.224
15069W        W87494  13.181  30.331   4.641
15070W        W87495  43.816  44.841  13.341
15071W        W87496   7.438   2.989   3.238
15072W        W87497  24.487   8.619  13.501
15073W        W87498   9.130  37.083  13.043
15074W        W87499  13.087   8.406  12.089
15075W        W87500   6.581  24.001   3.229
15076W        W87501  30.973  24.815  12.933
15077W        W87502  25.535  21.025  10.873
15078W        W87503  29.580  10.865   4.194
15079W        W87504  40.194  23.157  11.584
15080W        W87505  13.687  25.716  14.756
15081W        W87506  41.160  39.213   1.752
15082W        W87507   7.548  11.258  13.865
15083W        W87508  21.523  19.399   0.421
15084W        W87509  37.342   2.827   3.596
15085W        W87510  16.575  42.706  12.897
15086W        W87511  34.658  18.134  12.994
15087W        W87512  22.857  39.809   2.957
15088W        W87513  35.361  31.892   5.097
15089W        W87514   9.299  20.646  14.365
15090W        W87515   8.158  18.740   0.097
15091W        W87516  31.427  10.173  12.106
15092W        W87517   1.426  37.945   2.547
15093W        W87518  39.825  25.055  12.750
15094W        W87519  21.693  21.071  10.009
15095W        W87520  19.727  43.278   1.967
15096W        W87521  12.893  11.247   1.421
15097W        W87522  33.948   5.295   1.741
15098W        W87523  15.925  34.580   3.208
15099W        W87524   9.893   1.567  11.228
15100W        W87525  23.257   1.705  14.208
15101W        W87526  16.051  22.103   4.639
15102W        W87527  27.644   9.174  12.786
15103W        W87528   0.161  18.372  14.907
15104W        W87529   0.852  12.060   2.437
15105W        W87530  43.412  25.477  12.900
15106W        W87531  31.093  18.525  13.815
15107W        W87532  37.061  38.876   2.035
15108W        W87533  24.539  12.028   3.174
15109W        W87534  43.044  38.293  13.849
15110W        W87535  32.199  14.197  12.184
15111W        W87536  12.820  34.746  10.870
15112W        W87537  23.418  18.985  13.265
15113W        W87538  40.286   8.204  12.290
15114W        W87539  41.404  21.621   0.981
15115W        W87540  41.866  40.393   0.942
15116W        W87541  37.913  23.983  14.408
15117W        W87542  30.424   2.435  14.083
15118W        W87543   2.172  28.157   4.111
15119W        W87544  42.862  42.407  10.715
15120W        W87545  43.930  36.165   4.480
15121W        W87546  16.300  28.957  12.754
15122W        W87547  11.226  35.832   1.850
15123W        W87548  35.243  21.429  11.193
15124W        W87549   5.285  37.754   2.250
15125W        W87550  30.950  20.337  14.285
15126W        W87551  41.430  39.829  11.023
15127W        W87552   0.823  34.486   4.523
15128W        W87553  11.237  43.353  14.249
15129W        W87554  29.729   3.327   4.079
15130W        W87555   8.737   6.208   4.758
15131W        W87556   6.647  38.299  10.690
15132W        W87557  28.365  29.532   3.547
15133W        W87558  25.091  44.487   2.290
15134W        W87559   3.390  25.618  10.369
15135W        W87560  12.909   8.802  13.924
15136W        W87561  37.531  22.624  14.118
15137W        W87562   9.108  21.647   4.202
15138W        W87563  10.698   5.741   1.228
15139W        W87564  40.862  39.757  11.479
15140W        W87565  21.168  28.084   2.565
15141W        W87566  12.044   2.346  12.854
15142W        W87567  34.420   2.581   4.883
15143W        W87568  22.089  29.599   4.648
15144W        W87569  14.740  15.590   3.246
15145W        W87570   2.255  37.593   2.354
15146W        W87571   4.905  28.227   0.112
15147W        W87572   9.371   6.296   2.777
15148W        W87573  19.167  29.444   1.008
15149W        W87574   1.797  10.190  13.828
15150W        W87575  14.523  29.050   2.660
15151W        W87576  10.734  44.843   2.914
15152W        W87577  36.865  43.371   1.266
15153W        W87578  29.175   8.251  10.517
15154W        W87579  12.307  41.334  13.275
15155W        W87580  24.151  11.332  14.502
15156W        W87581  16.832  13.758   4.777
15157W        W87582  19.584  17.073  12.671
15158W        W87583  40.837  26.078  12.148
15159W        W87584  15.803   5.276  12.095
15160W        W87585  42.560  39.586  11.662
15161W        W87586  38.976  27.952  14.415
15162W        W87587   7.427  34.484   2.767
15163W        W87588  22.646  17.786  10.630
15164W        W87589  33.032  42.525   2.301
15165W        W87590  27.546  23.176   4.496
15166W        W87591   8.359   8.267  13.365
15167W        W87592  34.579  11.462   1.772
15168W        W87593   7.321  29.256   3.799
15169W        W87594  41.546   1.272   0.504
15170W        W87595  22.694  36.530   4.678
15171W        W87596  35.827  22.165   0.218
15172W        W87597  25.111  20.518   3.324
15173W        W87598  27.154   4.384  10.795
15174W        W87599  31.467   0.215  14.460
15175W        W87600  38.421  43.099  11.959
15176W        W87601  36.910  34.009  13.118
15177W        W87602  43.444   2.370   4.894
15178W        W87603  18.232  22.214   3.587
15179W        W87604  28.733   2.455  14.883
15180W        W87605  15.413  20.238   2.252
15181W        W87606  17.548  38.481   2.764
15182W        W87607  32.653  12.299   2.297
15183W        W87608  31.486  22.640  14.300
15184W        W87609  13.638  10.897  14.327
15185W        W87610  42.960  32.084  10.797
15186W        W87611  14.387  16.957   1.889
15187W        W87612  25.601  24.986  10.125
15188W        W87613  38.881   0.696   3.715
15189W        W87614  27.328  24.524   2.571
15190W        W87615   1.519  34.433   3.909
15191W        W87616  32.907  26.471   0.449
15192W        W87617  36.295   4.711   0.308
15193W        W87618  12.796  17.597   2.908
15194W        W87619   1.860  25.578   3.655
15195W        W87620  10.211  28.093   1.299
15196W        W87621   1.397  38.712   4.056
15197W        W87622   2.353  40.809   4.214
15198W        W87623  34.546   4.229   2.867
15199W        W87624  27.371  38.985   0.901
15200W        W87625  23.481  34.629   1.357
15201W        W87626  28.151  20.979   4.235
15202W        W87627  35.807  39.803  14.274
15203W        W87628  34.949  16.821  12.992
15204W        W87629  40.621  27.088  12.862
15205W        W87630  39.474  17.181   2.705
15206W        W87631  33.822  29.481   1.924
15207W        W87632  21.294  32.107  13.927
15208W        W87633  11.694  17.632   3.983
15209W        W87634  38.338  35.211   0.870
15210W        W87635  16.661   4.163   3.687
15211W        W87636  12.244   6.196   3.657
15212W        W87637  35.350  12.214   2.356
15213W        W87638   7.227  13.059   0.322
15214W        W87639  41.974  33.135   3.018
15215W        W87640  28.653   5.251  12.865
15216W        W87641  28.934   0.880  10.691
15217W        W87642  33.455  20.482  12.338
15218W        W87643  37.538   0.403  10.692
15219W        W87644  16.291   9.297  12.600
15220W        W87645  23.982  30.598  13.009
15221W        W87646  20.387   1.378   0.828
15222W        W87647  39.380  15.171  14.933
15223W        W87648   6.512  38.378   1.338
15224W        W87649  32.803  26.105   2.413
15225W        W87650   2.970  34.557   2.754
15226W        W87651  14.968  24.535  12.041
15227W        W87652   2.787  25.452  12.121
15228W        W87653   9.146  34.033   4.194
15229W        W87654  21.662   7.940  13.850
15230W        W87655   4.028  33.540  11.076
15231W        W87656   2.737  43.285  10.548
15232W        W87657  28.662  19.212   2.699
15233W        W87658   2.958  21.814  12.421
15234W        W87659  39.308   3.928   3.297
15235W        W87660  17.216  14.925  13.450
15236W        W87661  40.598   9.545   4.176
15237W        W87662  38.444  34.331  11.078
15238W        W87663  24.688  40.270   0.383
15239W        W87664   9.111   1.241  11.568
15240W        W87665  15.803   1.002  12.108
15241W        W87666  11.733   1.770  11.196
15242W        W87667   6.403  25.445  11.152
15243W        W87668  37.259  35.389   1.892
15244W        W87669  20.710  31.328   2.129
15245W        W87670  14.360  28.106  13.420
15246W        W87671  25.606  21.927  12.968
15247W        W87672  19.670  25.821   2.452
15248W        W87673  41.325  15.939  13.996
15249W        W87674  11.680   7.930   4.877
15250W        W87675  37.228  16.220  14.699
15251W        W87676  18.613  21.490   9.820
15252W        W87677  10.695  44.957   1.075
15253W        W87678  41.593  35.569   3.555
15254W        W87679  29.187   3.711   2.248
15255W        W87680  39.759  11.189  11.412
15256W        W87681  32.985   3.663   1.854
15257W        W87682  30.908  15.688   4.437
15258W        W87683  10.768  26.660  10.016
15259W        W87684  39.905  28.787  13.934
15260W        W87685  14.271  40.277   2.175
15261W        W87686   3.882  38.172   3.311
15262W        W87687   1.618  11.352   0.365
15263W        W87688  10.621  25.559  12.958
15264W        W87689  36.049  39.324  13.237
15265W        W87690  20.129  34.827  10.745
15266W        W87691  36.308  23.534   2.163
15267W        W87692  32.421   0.402   0.458
15268W        W87693  29.914  36.991   0.637
15269W        W87694  42.828  38.083   3.200
15270W        W87695  29.035  32.918   1.023
15271W        W87696  15.325  11.565  13.006
15272W        W87697  29.707   4.399   4.860
15273W        W87698  21.932  15.308   3.962
15274W        W87699  26.001  20.720  12.860
15275W        W87700  21.615   4.989   0.900
15276W        W87701  36.499  40.923   1.768
15277W        W87702  38.902  36.523  14.937
15278W        W87703  37.366  34.186   2.869
15279W        W87704  34.051  40.564   4.441
15280W        W87705  24.692  18.834   0.385
15281W        W87706  37.862  26.966  13.915
15282W        W87707  27.766  29.568  14.293
15283W        W87708  26.370  44.469   2.723
15284W        W87709  16.370  44.390  10.666
15285W        W87710   6.176   7.301   3.085
15286W        W87711  43.015  32.628   4.364
15287W        W87712  19.149  15.747  12.099
15288W        W87713   1.972  35.643   0.339
15289W        W87714  29.879  33.743   0.371
15290W        W87715  11.801  16.408  11.970
15291W        W87716   0.190  44.538  10.737
15292W        W87717   1.046  19.179  12.806
15293W        W87718  26.629  10.775   1.699
15294W        W87719  27.090   3.072  13.091
15295W        W87720  13.730  31.965  10.977
15296W        W87721  42.778  21.733  13.917
15297W        W87722  13.340  41.507  11.482
15298W        W87723  43.000   0.509  12.555
15299W        W87724  24.201  18.680   0.256
15300W        W87725  12.838  14.343   2.492
15301W        W87726  18.146  22.805   2.408
15302W        W87727  32.914  33.173   2.306
15303W        W87728  21.511  17.723   2.446
15304W        W87729  15.289  37.140   4.191
15305W        W87730  44.406  21.226  10.465
15306W        W87731  44.145  24.077  12.436
15307W        W87732  39.318  36.570   1.846
15308W        W87733  19.209  22.950   4.592
15309W        W87734  18.978  21.214   1.507
15310W        W87735  27.165  17.052  13.410
15311W        W87736  19.247  10.909  11.695
15312W        W87737  12.311   7.157  14.898
15313W        W87738  31.319   5.611  13.876
15314W        W87739  19.609   0.541   2.810
15315W        W87740  10.088  41.206   3.400
15316W        W87741   0.197  24.671   3.616
15317W        W87742  13.888  41.905   0.254
15318W        W87743  28.351  42.672   9.897
15319W        W87744  23.064  42.698  13.900
15320W        W87745   0.556  26.058   2.194
15321W        W87746  11.888  23.893   1.023
15322W        W87747  16.654   0.578  11.095
15323W        W87748   2.989  37.185  14.658
15324W        W87749  27.037  28.735  14.882
15325W        W87750  16.539  22.066  14.929
15326W        W87751  34.192  15.238  13.103
15327W        W87752  32.125  36.451   0.440
15328W        W87753  27.569  12.242   3.793
15329W        W87754   9.551  44.979  10.622
15330W        W87755   2.519  42.695  11.108
15331W        W87756  25.937   6.688   3.785
15332W        W87757   3.346  25.545   2.865
15333W        W87758   8.235  19.638  14.307
15334W        W87759  28.816  41.454  12.480
15335W        W87760  21.595   8.245  12.457
15336W        W87761  18.032   6.771   0.834
15337W        W87762   5.695   6.691  13.257
15338W        W87763  27.412  40.817   2.691
15339W        W87764  27.489  22.172  10.888
15340W        W87765   7.973  23.183   4.447
15341W        W87766   2.652   5.936  11.984
15342W        W87767  11.180  24.309   3.202
15343W        W87768   9.996  23.974  12.128
15344W        W87769  42.663  40.487  13.596
15345W        W87770   7.314  23.147  10.806
15346W        W87771  24.197  19.659   1.235
15347W        W87772  18.158  30.116  10.436
15348W        W87773  15.901  12.808  13.962
15349W        W87774  43.284  40.060  12.678
15350W        W87775  14.453  13.537  12.923
15351W        W87776  29.413   7.653  14.810
15352W        W87777  39.848  14.795   1.900
15353W        W87778  28.165  33.914  14.238
15354W        W87779  29.555  21.264   1.467
15355W        W87780  42.951  33.030  13.382
15356W        W87781  10.814   1.814  12.182
15357W        W87782  21.724  14.069   1.781
15358W        W87783  28.056  15.266   3.323
15359W        W87784  29.510  19.109  13.348
15360W        W87785  31.969  15.763  13.259
15361W        W87786  34.522  15.926  10.856
15362W        W87787  37.438  44.936   4.250
15363W        W87788  15.575  32.040   2.715
15364W        W87789  31.939   5.295  12.482
15365W        W87790  33.496  34.135  12.212
15366W        W87791  32.151   8.393  11.579
15367W        W87792  21.781  16.548   1.638
15368W        W87793  14.534  31.051  10.387
15369W        W87794  43.532   6.404  13.974
15370W        W87795  17.711  43.331   4.107
15371W        W87796   2.953   7.762  13.475
15372W        W87797  30.673   7.309   0.215
15373W        W87798  37.564  37.283  10.218
15374W        W87799  16.268  16.346  14.411
15375W        W87800   8.547  35.084  14.002
15376W        W87801  27.564  19.976  13.408
15377W        W87802  36.098  12.236   2.856
15378W        W87803  24.477  28.060  11.234
15379W        W87804   7.460   8.038   5.127
15380W        W87805  37.522  36.573   0.430
15381W        W87806  38.477   6.504  11.868
15382W        W87807  25.489  28.090  14.318
15383W        W87808   9.068   5.393  14.887
15384W        W87809  35.979  24.753   1.470
15385W        W87810  37.852  12.702   2.399
15386W        W87811  21.135  12.032   3.649
15387W        W87812  13.674  22.746  10.437
15388W        W87813  39.325   8.493  10.686
15389W        W87814   8.893   6.986   4.100
15390W        W87815  35.859  11.603   2.710
15391W        W87816  20.541  35.820  13.851
15392W        W87817  42.070  37.843   2.341
15393W        W87818  25.611  44.682   1.437
15394W        W87819   7.209  28.135  11.501
15395W        W87820  41.312   0.740   2.400
15396W        W87821  10.357  19.036   1.543
15397W        W87822  33.491  18.593   5.411
15398W        W87823   9.575  14.084  10.919
15399W        W87824  23.197  22.003  11.180
15400W        W87825   8.420  28.649  12.461
15401W        W87826   4.790   2.506   1.809
15402W        W87827  13.054  30.582  11.595
15403W        W87828  42.065   0.470  13.870
15404W        W87829  31.168   3.593   3.550
15405W        W87830   6.872  13.119   4.487
15406W        W87831  43.041  24.794  11.164
15407W        W87832  43.335  28.889   1.368
15408W        W87833  44.919  16.605   1.760
15409W        W87834   8.738  30.654   1.788
15410W        W87835  41.093  44.676  14.518
15411W        W87836  43.859  34.427  10.638
15412W        W87837  17.216  38.784  11.584
15413W        W87838   0.956  12.610   3.300
15414W        W87839  17.707  19.802   1.289
15415W        W87840  10.955   1.310   4.169
15416W        W87841  15.021   9.036   2.689
15417W        W87842  25.401  32.169   1.865
15418W        W87843  26.737   7.668   4.549
15419W        W87844  40.374  19.157  14.386
15420W        W87845  33.869  32.005  11.139
15421W        W87846  22.956  10.432   1.163
15422W        W87847   4.645  17.689  12.426
15423W        W87848   9.375  21.370  13.633
15424W        W87849  43.397  25.227  12.447
15425W        W87850  37.366  15.133  13.954
15426W        W87851  16.125  16.208  13.065
15427W        W87852  41.309  19.958   0.013
15428W        W87853  41.127  13.936   5.042
15429W        W87854  14.346  38.781  13.975
15430W        W87855  37.482  36.046   0.366
15431W        W87856  41.562  21.732  13.434
15432W        W87857   9.873  27.147  14.547
15433W        W87858   6.307  41.717  14.747
15434W        W87859  17.588  32.006  12.673
15435W        W87860  31.554   5.211   2.793
15436W        W87861   7.732   9.139  14.816
15437W        W87862  15.829   1.793  14.447
15438W        W87863   8.459  14.168   1.217
15439W        W87864  13.137  10.615   4.084
15440W        W87865  27.924  24.245  12.683
15441W        W87866   4.063   3.830   3.201
15442W        W87867  26.535   2.935  14.259
15443W        W87868   0.978  22.231   1.412
15444W        W87869  25.996   0.205   0.792
15445W        W87870  41.233  19.040  13.970
15446W        W87871  26.643  35.709   4.260
15447W        W87872  37.981  40.241   1.216
15448W        W87873  39.554  10.956  14.868
15449W        W87874   2.518   1.850   0.320
15450W        W87875  42.910  22.195   0.247
15451W        W87876  18.554   5.980  14.523
15452W        W87877  10.187   8.895  14.355
15453W        W87878  30.533  20.222  13.996
15454W        W87879  27.979   0.357  14.980
15455W        W87880  28.022  13.597  12.285
15456W        W87881  38.386  30.318   4.811
15457W        W87882   4.946  41.794  12.352
15458W        W87883  14.369  39.059   0.869
15459W        W87884  36.271  28.837   3.259
15460W        W87885  20.424  28.742   0.004
15461W        W87886  14.193  41.033  11.239
15462W        W87887   1.935  25.532   0.628
15463W        W87888  18.345  36.904  14.953
15464W        W87889  21.191  33.057   3.860
15465W        W87890  21.503  22.639  14.197
15466W        W87891  31.409  30.034   1.374
15467W        W87892  21.617  17.876  12.986
15468W        W87893  10.601  28.881   3.217
15469W        W87894  12.051  30.674   1.339
15470W        W87895  35.706   4.879  14.800
15471W        W87896  29.118   0.227   1.921
15472W        W87897  16.140  35.855  14.964
15473W        W87898  29.130  43.573   2.883
15474W        W87899   0.172  44.804  11.193
15475W        W87900   1.581  42.657  14.404
15476W        W87901  33.131   7.718   4.080
15477W        W87902  31.691  10.325   0.272
15478W        W87903   2.974  24.044  12.781
15479W        W87904   8.224  11.181   0.535
15480W        W87905  41.831  38.097  13.828
15481W        W87906   6.942  15.240   2.364
15482W        W87907  17.649  30.785  12.009
15483W        W87908  42.254  16.743   0.487
15484W        W87909  25.114  12.801   0.796
15485W        W87910  13.290  10.396  14.773
15486W        W87911  39.337  25.447  14.941
15487W        W87912  15.071  39.498  13.349
15488W        W87913  10.805  17.298   0.014
15489W        W87914  25.548  39.420  13.817
15490W        W87915  43.153   8.704   0.005
15491W        W87916   5.787   5.367   1.949
15492W        W87917  27.580  43.399  13.814
15493W        W87918   1.301  22.470  12.856
15494W        W87919  21.197   2.725   4.836
15495W        W87920  25.050  36.024   2.689
15496W        W87921  25.800  34.561   2.371
15497W        W87922  14.351  26.622   1.356
15498W        W87923   9.754   7.757  14.028
15499W        W87924  34.763  38.539   0.839
15500W        W87925  41.459  19.291   1.964
15501W        W87926   1.794  15.708   2.825
15502W        W87927  32.060  22.004  14.168
15503W        W87928   8.269  20.426   1.871
15504W        W87929  17.104  17.540   0.415
15505W        W87930  19.496   4.013  12.091
15506W        W87931  17.791   7.424  12.456
15507W        W87932  41.067   9.309   4.227
15508W        W87933  17.058  43.937  13.086
15509W        W87934  24.301  24.197  12.840
15510W        W87935  23.183  33.579   0.028
15511W        W87936  36.463  33.285  11.896
15512W        W87937  13.294  31.770  10.255
15513W        W87938   4.015  10.282   0.766
15514W        W87939  21.186  28.160   4.677
15515W        W87940  12.684   0.931  14.024
15516W        W87941  32.924   3.328  13.375
15517W        W87942  12.338  37.848   0.260
15518W        W87943   5.910  11.450   3.311
15519W        W87944  39.948  43.785   4.598
15520W        W87945  22.986  13.650   3.410
15521W        W87946  17.766  15.692  10.187
15522W        W87947  38.479  29.567  14.583
15523W        W87948   1.303  16.363   1.293
15524W        W87949  31.533  27.144   0.602
15525W        W87950  30.044   0.961  13.285
15526W        W87951  27.109  27.894   1.861
15527W        W87952   9.176  31.230   0.823
15528W        W87953  37.454  21.867  12.028
15529W        W87954  39.258  36.923   2.275
15530W        W87955  17.721   0.315   3.363
15531W        W87956  15.818  23.759   4.903
15532W        W87957  28.284   0.860   3.470
15533W        W87958   5.205  41.274   2.188
15534W        W87959  11.280   0.068  11.128
15535W        W87960  25.476  12.652   3.073
15536W        W87961  31.508  23.580  12.672
15537W        W87962  26.225  37.537   1.359
15538W        W87963  31.534   7.304  11.827
15539W        W87964  23.598  16.172   0.304
15540W        W87965  16.174   1.017   5.031
15541W        W87966  21.874   7.750  14.845
15542W        W87967  22.437  39.933   1.441
15543W        W87968  29.529  43.765   3.219
15544W        W87969   2.698   0.462  13.675
15545W        W87970   6.280   6.390   0.871
15546W        W87971   7.263  17.312   4.034
15547W        W87972  30.914  41.470   4.588
15548W        W87973   7.823   5.384  12.634
15549W        W87974  13.687   1.725   4.169
15550W        W87975  10.269  14.950   4.639
15551W        W87976  18.533  44.840   0.283
15552W        W87977   1.431   9.340  11.212
15553W        W87978  10.203  32.499   0.385
15554W        W87979  42.937  23.737   0.370
15555W        W87980  17.292   0.991  11.448
15556W        W87981  13.791  37.153   1.339
15557W        W87982  31.931   0.532   4.996
15558W        W87983  43.164  43.469   0.343
15559W        W87984  30.461   3.379  12.644
15560W        W87985  36.860  32.995   3.688
15561W        W87986  13.681  16.197  13.278
15562W        W87987  10.091  15.788   5.025
15563W        W87988   2.784  15.388  10.555
15564W        W87989  16.846  24.638  12.326
15565W        W87990  13.130  14.971  14.067
15566W        W87991  39.118  27.524  11.722
15567W        W87992   3.708  26.158   1.864
15568W        W87993  41.419  39.802  12.448
15569W        W87994  41.569   4.482   3.902
15570W        W87995   2.933  13.688  12.942
15571W        W87996  41.882   4.865   4.633
15572W        W87997  11.833  37.942   0.142
15573W        W87998  10.466  27.689   4.334
15574W        W87999   7.806  19.587   1.856
15575W        W88000  14.066   8.774   1.121
15576W        W88001   7.295  23.348  11.607
15577W        W88002  33.037  28.693   3.246
15578W        W88003  37.311  39.346  10.667
15579W        W88004  31.041  13.413   1.926
15580W        W88005  28.684  31.602  12.826
15581W        W88006  44.010  21.063  11.352
15582W        W88007  28.981  17.522  14.958
15583W        W88008  32.383  40.983  10.733
15584W        W88009   0.477  44.301  11.079
15585W        W88010  37.566   1.366   2.700
15586W        W88011  38.950  42.268   3.263
15587W        W88012  10.652  44.070   0.807
15588W        W88013  22.580  44.561  12.119
15589W        W88014  44.661  15.235   3.227
15590W        W88015  30.425   2.902  14.292
15591W        W88016  11.160  11.214   3.956
15592W        W88017   7.693  19.640  10.750
15593W        W88018  17.222  14.370  14.242
15594W        W88019  42.984  36.802  14.727
15595W        W88020  40.004  28.295   0.900
15596W        W88021   4.135  39.023  13.034
15597W        W88022  39.891  15.152   0.010
15598W        W88023  43.400  29.880   4.944
15599W        W88024  27.826  13.157   2.216
15600W        W88025   1.143  23.619   1.986
15601W        W88026  25.180  15.055  10.762
15602W        W88027  33.891  13.867   4.216
15603W        W88028  33.058  25.220  13.311
15604W        W88029  20.019  38.085   1.015
15605W        W88030   6.925   9.026   0.367
15606W        W88031  17.434  12.232   3.253
15607W        W88032  43.046  17.723   4.085
15608W        W88033   1.905  26.483  13.960
15609W        W88034  24.248   7.411   0.281
15610W        W88035  14.842  32.603  10.928
15611W        W88036  26.773  31.675   4.093
15612W        W88037   4.386  20.874   1.778
15613W        W88038  25.702  42.700  14.808
15614W        W88039  22.902  43.269  14.609
15615W        W88040  37.420  23.324   3.408
15616W        W88041  19.120  15.064  11.667
15617W        W88042   6.243  22.783  14.990
15618W        W88043  25.154  38.641   4.143
15619W        W88044  25.302  34.891   4.109
15620W        W88045  29.217  35.410  14.439
15621W        W88046  39.366  32.969   4.371
15622W        W88047  25.262  30.105  10.690
15623W        W88048  28.614  22.753  12.519
15624W        W88049  36.781   4.714   2.139
15625W        W88050  12.460  21.298  11.625
15626W        W88051  41.089  34.107   2.701
15627W        W88052  33.895  36.300  10.574
15628W        W88053  43.023  30.515  11.257
15629W        W88054  38.973  16.789   0.265
15630W        W88055  37.220  11.072  11.583
15631W        W88056  36.068  33.637   2.416
15632W        W88057  20.537  22.937   0.884
15633W        W88058  42.515   0.540  11.662
15634W        W88059  23.765  27.473   1.200
15635W        W88060   1.161  44.694   0.863
15636W        W88061  41.738  23.334  12.634
15637W        W88062   7.108  44.371  11.587
15638W        W88063  39.439  40.427   4.644
15639W        W88064  28.153  21.260   1.893
15640W        W88065  13.065  16.401  10.746
15641W        W88066   7.881  37.659   9.813
15642W        W88067   4.786   9.647   1.718
15643W        W88068   7.701   8.688  13.423
15644W        W88069  34.496  12.636  12.528
15645W        W88070   2.434  13.593  14.594
15646W        W88071   1.222  24.730  13.435
15647W        W88072  41.428  43.909   5.516
15648W        W88073  26.331   7.371   1.798
15649W        W88074  33.453   2.280   3.755
15650W        W88075  12.915  19.305   3.264
15651W        W88076  19.214   9.941  10.515
15652W        W88077  10.355  12.316   3.515
15653W        W88078  34.726   1.263  14.935
15654W        W88079  41.714  43.989  12.194
15655W        W88080  39.910  22.286  13.769
15656W        W88081  24.636  15.392   4.592
15657W        W88082  13.935  24.106   0.801
15658W        W88083  16.107  41.693   3.722
15659W        W88084   5.885   7.508   0.527
15660W        W88085   8.025  38.406   4.961
15661W        W88086  41.571   8.228  13.633
15662W        W88087  25.993  14.662  10.792
15663W        W88088  41.730  21.005  11.067
15664W        W88089  14.038  35.465   1.790
15665W        W88090   4.289  16.558  10.244
15666W        W88091  43.745   1.426  12.088
15667W        W88092   9.706  36.644   1.267
15668W        W88093  21.876  26.403  11.964
15669W        W88094  43.269  27.327  14.248
15670W        W88095  42.748  18.061  11.902
15671W        W88096  25.108  32.141   1.273
15672W        W88097  10.831   9.848  10.530
15673W        W88098  10.199  39.100   0.250
15674W        W88099  35.026  40.798  13.559
15675W        W88100  22.197  11.009   9.819
15676W        W88101  41.776  42.404   1.881
15677W        W88102  43.566   0.346  11.624
15678W        W88103   5.230   6.830  11.089
15679W        W88104  35.943  19.264  11.905
15680W        W88105   6.750  23.503  11.826
15681W        W88106  43.268  44.698   0.807
15682W        W88107  26.913   0.363  14.932
15683W        W88108  25.522   8.875   0.544
15684W        W88109  20.751  27.081  14.666
15685W        W88110  20.110  29.833  10.535
15686W        W88111  12.101  38.554  12.472
15687W        W88112  30.871  15.775  13.297
15688W        W88113   7.265  24.700  14.339
15689W        W88114   3.480  30.512  14.411
15690W        W88115  15.784  10.951   3.240
15691W        W88116  41.622   8.906   1.326
15692W        W88117  18.052  44.393   1.379
15693W        W88118  23.589  24.716  14.767
15694W        W88119  33.993  35.004   3.349
15695W        W88120  26.180   7.689  14.943
15696W        W88121  42.044  17.084   4.532
15697W        W88122  43.776  38.699  13.124
15698W        W88123  32.534  13.403  12.111
15699W        W88124  22.041  39.294   4.192
15700W        W88125  20.241  38.528  14.812
15701W        W88126  30.380  32.900  14.870
15702W        W88127   4.172  25.542  11.407
15703W        W88128  38.527  21.314   2.514
15704W        W88129  42.990  32.512   1.146
15705W        W88130   0.942  35.422   4.430
15706W        W88131  30.658  34.816  12.110
15707W        W88132   6.364   8.154  12.907
15708W        W88133  11.788  28.100  10.497
15709W        W88134  40.974  13.975   3.770
15710W        W88135  41.816   1.444   4.393
15711W        W88136  29.079  31.052  10.983
15712W        W88137  43.741  18.691   1.798
15713W        W88138  14.263  44.851  14.929
15714W        W88139   8.770  16.196   4.040
15715W        W88140  24.218  41.139  14.989
15716W        W88141   2.810  33.176  11.201
15717W        W88142   1.130   3.954  11.425
15718W        W88143   2.115  20.117  13.503
15719W        W88144   9.441  15.495   1.685
15720W        W88145  29.167  44.350   1.691
15721W        W88146  27.323  14.718  13.949
15722W        W88147  10.117  41.516  13.976
15723W        W88148   8.802   5.615   1.323
15724W        W88149  21.688  24.153  14.958
15725W        W88150  20.527  16.781   3.682
15726W        W88151  42.177   9.212  13.400
15727W        W88152  10.924   7.688   2.351
15728W        W88153  25.965  15.356  12.950
15729W        W88154  10.832  40.575   2.237
15730W        W88155  23.041   0.305   4.305
15731W        W88156  44.904   2.384  10.674
15732W        W88157  22.961  24.178   0.494
15733W        W88158  37.832  15.352  12.405
15734W        W88159  28.733   9.770   4.950
15735W        W88160  40.950  40.364   4.613
15736W        W88161   1.521  31.670   4.782
15737W        W88162  18.183   2.554   1.883
15738W        W88163   7.714  34.681   3.147
15739W        W88164   3.825  39.805   0.779
15740W        W88165  10.111  26.137   3.696
15741W        W88166  31.097  15.259   5.375
15742W        W88167  43.520  38.656   0.012
15743W        W88168  20.489   5.889   1.552
15744W        W88169  41.014  15.800   4.627
15745W        W88170  37.973  36.967   2.759
15746W        W88171  18.604  15.791  10.665
15747W        W88172  24.016  34.024  10.589
15748W        W88173  10.334  13.925   1.162
15749W        W88174  34.825   0.225   2.736
15750W        W88175  29.951  35.828  11.418
15751W        W88176  41.934  17.229   0.037
15752W        W88177  37.929  42.889   1.322
15753W        W88178  10.041  32.239   2.960
15754W        W88179  18.056  12.238  14.426
15755W        W88180   6.316  13.568   0.904
15756W        W88181   0.548   0.534  11.570
15757W        W88182  26.335  23.164   2.769
15758W        W88183  10.109  38.813   4.216
15759W        W88184  38.594  38.586   1.561
15760W        W88185  33.553   2.447  14.461
15761W        W88186  35.310  21.262  14.475
15762W        W88187  40.805   2.916  12.099
15763W        W88188  31.953   1.706   1.190
15764W        W88189  33.197  42.952   2.634
15765W        W88190  39.853   3.190   4.946
15766W        W88191  40.894  27.531  12.812
15767W        W88192   8.629  40.928  14.807
15768W        W88193  17.063   3.457   2.418
15769W        W88194  42.797  42.556   1.895
15770W        W88195  28.478   4.249   2.181
15771W        W88196  22.937  13.911  14.142
15772W        W88197  35.029  41.302  13.486
15773W        W88198   9.677  14.007  14.857
15774W        W88199  44.683  33.416  14.904
15775W        W88200  34.496  26.512   3.471
15776W        W88201   1.040  35.678  12.113
15777W        W88202  43.122   2.473   2.173
15778W        W88203   7.396  23.153  13.569
15779W        W88204  35.439   3.415   3.789
15780W        W88205  28.599  25.877  12.290
15781W        W88206   7.147  42.595  14.986
15782W        W88207  24.592  38.348  10.615
15783W        W88208  22.758  29.612   2.495
15784W        W88209  24.162  13.345   3.217
15785W        W88210  44.279   3.974  13.371
15786W        W88211  15.784  16.535  13.526
15787W        W88212  18.230  43.044   1.230
15788W        W88213  16.155  42.613   0.060
15789W        W88214  15.771   4.838   2.459
15790W        W88215  17.606  31.415  14.382
15791W        W88216  32.608  24.717  12.047
15792W        W88217   5.158  34.568   3.393
15793W        W88218  10.613  44.436  12.115
15794W        W88219   3.385  20.056  14.934
15795W        W88220  18.038  35.849   2.759
15796W        W88221  43.247   9.298   3.358
15797W        W88222  31.477  26.903   4.552
15798W        W88223  20.655  11.668  12.250
15799W        W88224  14.363  17.880   2.353
15800W        W88225  24.748   8.642   0.007
15801W        W88226  28.178   0.794  12.028
15802W        W88227  23.464  24.027  12.514
15803W        W88228  17.245   9.276  14.545
15804W        W88229   2.184   8.120  14.821
15805W        W88230  33.777  22.255   2.486
15806W        W88231  37.915  22.117  13.034
15807W        W88232   2.389  28.038   4.573
15808W        W88233   6.648   0.571   1.581
15809W        W88234  43.471  33.879   1.139
15810W        W88235  15.054  40.313   4.744
15811W        W88236  15.193  28.057   4.153
15812W        W88237  35.396  28.929   3.316
15813W        W88238  39.821  20.113   0.976
15814W        W88239  21.096  20.123   5.034
15815W        W88240   1.837  20.511  12.383
15816W        W88241  41.013  40.084   1.389
15817W        W88242  32.175  24.128  11.764
15818W        W88243   4.259  20.489   2.683
15819W        W88244  15.587  34.132  12.176
15820W        W88245   7.035  14.521  10.791
15821W        W88246  41.282  34.476   4.433
15822W        W88247  26.138  38.399   4.144
15823W        W88248  20.679  21.312  10.427
15824W        W88249  22.132   5.467   0.215
15825W        W88250  15.098  36.803   3.835
15826W        W88251  14.135  40.593   5.052
15827W        W88252  18.121  33.377   1.102
15828W        W88253  30.002  39.352  14.610
15829W        W88254  13.558   5.708  14.384
15830W        W88255  15.846  19.439  10.287
15831W        W88256  20.223  14.125   0.728
15832W        W88257   3.728  14.370   4.775
15833W        W88258   4.483  11.579   5.063
15834W        W88259  19.994  17.172  12.358
15835W        W88260  25.775  37.644   0.496
15836W        W88261   9.147  44.371   3.313
15837W        W88262  43.346  20.770   3.338
15838W        W88263  11.587  40.802   2.712
15839W        W88264  18.785  31.882   4.658
15840W        W88265  15.760  22.674  13.913
15841W        W88266   8.898  39.664   0.362
15842W        W88267  18.597  17.811   2.367
15843W        W88268   4.454  10.498   0.943
15844W        W88269  43.401  18.519   0.293
15845W        W88270  44.968  15.334  12.945
15846W        W88271  35.906   3.702   0.907
15847W        W88272  35.340  39.500   2.227
15848W        W88273  29.192  12.336   0.857
15849W        W88274  31.077  36.548   1.157
15850W        W88275  34.546  41.501  14.617
15851W        W88276  43.962  32.886  12.043
15852W        W88277  43.945  11.238  12.592
15853W        W88278  17.078  41.080   0.297
15854W        W88279  21.607  42.375   2.425
15855W        W88280  30.196  35.328   3.025
15856W        W88281  27.535  32.770  12.411
15857W        W88282  13.210  28.355   4.708
15858W        W88283   2.259  22.128  14.394
15859W        W88284  14.836   1.844  13.258
15860W        W88285  24.158   4.727  14.440
15861W        W88286  29.108  40.272  13.883
15862W        W88287  33.122  37.791  13.592
15863W        W88288  16.773  33.547   2.772
15864W        W88289  22.146  36.529   2.403
15865W        W88290  34.400  33.614  14.875
15866W        W88291  30.191  37.910  12.453
15867W        W88292  15.280   9.285   4.535
15868W        W88293  34.825  22.782  12.145
15869W        W88294   9.422   3.020  14.729
15870W        W88295  12.263   5.147  10.736
15871W        W88296  12.562  16.513  10.924
15872W        W88297   1.995  13.221   2.515
15873W        W88298  24.643  43.037   2.679
15874W        W88299  35.859  41.485  11.528
15875W        W88300  11.269   7.118   1.918
15876W        W88301   6.685  27.100  12.378
15877W        W88302  37.497  21.139  12.922
15878W        W88303  28.043  13.871   0.957
15879W        W88304   9.611   1.282  10.868
15880W        W88305  38.850  16.501   4.535
15881W        W88306  40.993  36.090   0.195
15882W        W88307  12.814  38.852  11.940
15883W        W88308  16.694   9.633  11.134
15884W        W88309   9.628  11.710  14.040
15885W        W88310  19.308  16.691   0.400
15886W        W88311  22.031  22.573  14.197
15887W        W88312  22.800  38.592  13.985
15888W        W88313  34.676  10.855   3.193
15889W        W88314  16.202  35.425   3.703
15890W        W88315  10.218  39.535  14.277
15891W        W88316  24.727  20.020  11.168
15892W        W88317   0.845   7.345  10.682
15893W        W88318  40.930   6.186  13.089
15894W        W88319  37.583  24.701  12.945
15895W        W88320  42.978  37.640   2.419
15896W        W88321  32.006  31.622   2.856
15897W        W88322  35.182  22.298   2.676
15898W        W88323  42.763  19.689   4.888
15899W        W88324  30.951  33.154   4.628
15900W        W88325   6.764  30.303  12.250
15901W        W88326  42.620  21.680  12.592
15902W        W88327  16.222   5.634   0.426
15903W        W88328  23.943  18.827   0.677
15904W        W88329  12.029  38.977  11.517
15905W        W88330  24.086  44.344   3.237
15906W        W88331   5.299  42.501  13.459
15907W        W88332   4.241  43.016  12.516
15908W        W88333  28.259  25.781   2.741
15909W        W88334  11.196   7.428  12.876
15910W        W88335  16.551  44.390   1.996
15911W        W88336  10.801  40.905   0.980
15912W        W88337  15.871  26.031   4.261
15913W        W88338  10.783  32.477   1.872
15914W        W88339  27.526  40.767   4.881
15915W        W88340  32.965  17.186   4.614
15916W        W88341  33.962   3.491   0.378
15917W        W88342  43.314  15.865   1.727
15918W        W88343  44.329  27.869   0.389
15919W        W88344  38.135  11.077  11.183
15920W        W88345  15.589   2.481   4.987
15921W        W88346  32.433  28.568  13.121
15922W        W88347   6.368  38.004   4.578
15923W        W88348  12.089  22.035  10.460
15924W        W88349  37.412   4.188   4.361
15925W        W88350   9.313  10.128   4.263
15926W        W88351  27.402   3.680  14.472
15927W        W88352  30.659  43.836  10.561
15928W        W88353  13.742  10.625  12.562
15929W        W88354  12.151  19.055  13.346
15930W        W88355  13.073  27.122  10.625
15931W        W88356  44.583  23.448   2.306
15932W        W88357  11.360  27.900  10.753
15933W        W88358  34.096  23.119  12.430
15934W        W88359  25.200  15.779  14.463
15935W        W88360  18.051  30.057   2.386
15936W        W88361  40.918  17.654  13.626
15937W        W88362  16.402  24.361   0.232
15938W        W88363  14.375  12.877   0.882
15939W        W88364  26.470  30.786   3.049
15940W        W88365  44.955  23.274  14.427
15941W        W88366   1.794  26.413  13.449
15942W        W88367  14.429   4.361   1.779
15943W        W88368  13.559   9.466  11.570
15944W        W88369  19.147  40.612   1.821
15945W        W88370  41.253  40.508  13.515
15946W        W88371  25.690  25.176  11.462
15947W        W88372  14.259  42.584   1.675
15948W        W88373  32.508  17.785   3.577
15949W        W88374  12.649  18.028   2.548
15950W        W88375  30.567  11.191   0.564
15951W        W88376  20.142   9.924  11.045
15952W        W88377  40.703  28.854   1.146
15953W        W88378  12.072  31.049   0.373
15954W        W88379  16.678  27.978  14.573
15955W        W88380   6.692  28.753  11.952
15956W        W88381   0.900  15.549  12.805
15957W        W88382  30.690  19.644  12.040
15958W        W88383   8.759  32.222  14.344
15959W        W88384  43.323   7.686  10.947
15960W        W88385   5.645   9.535   4.121
15961W        W88386  20.704  44.201   0.930
15962W        W88387   4.863  26.480  14.389
15963W        W88388  10.094   7.566  10.565
15964W        W88389  44.681  29.974   3.354
15965W        W88390  39.589  16.514   3.222
15966W        W88391  11.867   5.681  11.084
15967W        W88392   3.414  39.303   1.798
15968W        W88393   2.063   4.588  12.146
15969W        W88394  31.507  32.920   3.759
15970W        W88395  27.445  25.102   3.846
15971W        W88396  20.601  28.534  10.557
15972W        W88397  12.587  43.088   2.480
15973W        W88398  43.676  10.230   4.664
15974W        W88399  12.025  40.064   4.679
15975W        W88400  32.999  34.822   3.415
15976W        W88401   4.801  11.066  12.448
15977W        W88402   3.350  44.447  11.429
15978W        W88403  10.215  19.585   3.787
15979W        W88404  40.436  19.613   2.907
15980W        W88405  20.689  16.151  13.974
15981W        W88406  35.348   8.641  13.298
15982W        W88407  24.582  29.989   0.545
15983W        W88408  10.064  44.090  10.638
15984W        W88409  40.420   3.946  12.117
15985W        W88410  30.186   7.205   4.410
15986W        W88411  42.240  29.955   0.986
15987W        W88412  14.768  42.561  14.733
15988W        W88413   2.267  24.737   3.439
15989W        W88414  43.848  44.310   1.475
15990W        W88415   7.755   1.642  14.891
15991W        W88416  12.844  12.788   0.793
15992W        W88417  41.649   7.976   5.043
15993W        W88418  24.908  12.748  10.697
15994W        W88419  21.711  36.276   2.623
15995W        W88420  17.300   7.689  12.842
15996W        W88421  28.544  14.095   4.209
15997W        W88422  44.379  23.284  12.061
15998W        W88423   1.704   4.544   4.527
15999W        W88424  12.829  16.358  13.668
16000W        W88425  29.177  29.676   0.433
16001W        W88426  43.334  40.045  11.680
16002W        W88427  28.176  11.235  10.606
16003W        W88428  30.369  21.870  14.773
16004W        W88429  42.836   2.307  12.872
16005W        W88430  38.584  27.212   2.816
16006W        W88431  13.115  39.049  14.915
16007W        W88432   2.849  19.879  11.099
16008W        W88433  25.782  36.442   4.236
16009W        W88434   4.445  23.042   4.507
16010W        W88435   8.629  38.273  10.216
16011W        W88436  21.186  38.919   0.418
16012W        W88437  33.179  15.164  12.855
16013W        W88438   2.499  33.649  12.625
16014W        W88439  28.010  25.242   1.824
16015W        W88440   2.923  10.183  11.879
16016W        W88441  41.068  30.547   2.032
16017W        W88442  19.175   3.586   2.944
16018W        W88443  26.874   6.306   2.282
16019W        W88444   1.817  40.873   2.160
16020W        W88445   0.936   9.589   4.139
16021W        W88446  38.804  12.065   1.258
16022W        W88447  19.526  33.202   2.026
16023W        W88448  14.563  32.782   0.234
16024W        W88449   2.866  19.410  13.439
16025W        W88450  28.195  38.590  11.530
16026W        W88451   7.938  11.798   0.374
16027W        W88452  23.095  35.124  12.427
16028W        W88453  38.925  10.582   4.181
16029W        W88454  23.651  19.669  13.848
16030W        W88455  23.038  23.457  12.974
16031W        W88456   5.446  23.486   2.563
16032W        W88457  43.013   0.191  14.827
16033W        W88458  22.115  26.642   3.736
16034W        W88459  43.378   9.204   0.882
16035W        W88460  17.021  31.900  10.241
16036W        W88461  41.289  33.961  13.362
16037W        W88462  16.208  18.155   5.112
16038W        W88463  33.959  35.412   3.700
16039W        W88464  42.190  28.913  10.774
16040W        W88465  41.553  32.239   4.214
16041W        W88466  32.950  26.937  11.929
16042W        W88467  34.904  33.908   2.822
16043W        W88468  23.789  44.848  10.333
16044W        W88469  44.503  18.702  12.039
16045W        W88470  28.506  36.037   4.742
16046W        W88471  15.020  33.577   0.650
16047W        W88472  44.437   0.053   4.630
16048W        W88473  10.626  24.337  12.298
16049W        W88474  31.464  36.669  13.848
16050W        W88475   0.582   3.410   3.770
16051W        W88476  29.878   3.851   0.415
16052W        W88477  40.886  25.073   2.974
16053W        W88478  36.532  32.940  14.453
16054W        W88479  38.006   5.640   2.151
16055W        W88480  21.051  29.185   1.275
16056W        W88481  34.306  21.055   2.833
16057W        W88482  12.079   7.886   2.821
16058W        W88483  23.555  31.030   2.311
16059W        W88484  26.944  42.043   2.273
16060W        W88485  41.365  35.819   2.486
16061W        W88486  40.745  19.818   3.338
16062W        W88487  37.892  34.500   0.433
16063W        W88488  27.989  29.494  14.873
16064W        W88489  26.558  19.304  13.398
16065W        W88490  25.171  13.072   2.797
16066W        W88491   0.052   6.553  11.094
16067W        W88492  20.625   7.435  12.024
16068W        W88493  12.094  38.834   0.451
16069W        W88494  30.380  41.170  13.671
16070W        W88495  33.625  36.904   4.763
16071W        W88496  36.079   9.262  14.890
16072W        W88497   0.509  25.671   2.968
16073W        W88498  38.812   2.304   4.146
16074W        W88499   1.530  24.596   0.582
16075W        W88500  40.093  13.238  14.543
16076W        W88501  17.138  29.986   2.608
16077W        W88502  18.696  19.087   1.116
16078W        W88503  11.738   8.807   1.421
16079W        W88504  17.262  32.856   1.848
16080W        W88505  36.948   3.852  11.108
16081W        W88506  20.739  36.113  14.458
16082W        W88507  22.132  21.272  11.568
16083W        W88508   9.708  33.634   4.140
16084W        W88509  23.524  29.140   3.577
16085W        W88510  19.678   7.252  14.738
16086W        W88511   2.864  42.978   4.642
16087W        W88512  38.830  42.701   1.236
16088W        W88513   8.034  18.379  13.900
16089W        W88514  24.006  22.407   3.798
16090W        W88515   0.915  26.751  12.428
16091W        W88516  10.101  39.811   0.782
16092W        W88517   4.721   5.375   1.772
16093W        W88518  41.857  39.337  14.481
16094W        W88519  13.661  36.956   2.350
16095W        W88520  37.405  36.053   9.769
16096W        W88521  36.623  34.268  14.926
16097W        W88522  17.188  19.999   4.487
16098W        W88523  10.805  15.578   1.807
16099W        W88524  17.271  38.614   1.907
16100W        W88525   8.184  12.828  14.463
16101W        W88526  27.052  22.098  12.684
16102W        W88527  40.424   0.506   4.407
16103W        W88528  40.475   6.276   0.881
16104W        W88529   2.929  41.404  14.861
16105W        W88530   7.365   2.216   1.494
16106W        W88531   6.626  19.307   4.659
16107W        W88532  14.400  10.152   1.442
16108W        W88533  18.234   7.260   1.902
16109W        W88534  33.548   2.407  11.918
16110W        W88535  42.988  23.022   4.406
16111W        W88536  24.216   0.336   4.727
16112W        W88537  33.761  38.216   0.999
16113W        W88538  17.079  29.155  13.409
16114W        W88539  28.207  33.206   0.859
16115W        W88540  26.962  30.146   4.471
16116W        W88541  15.366  23.587   1.903
16117W        W88542   9.796  44.728   0.795
16118W        W88543   8.428  18.308  10.574
16119W        W88544   8.281  38.571  11.970
16120W        W88545  41.177   5.107   2.146
16121W        W88546  43.256  27.987   1.851
16122W        W88547  25.547  39.879  13.554
16123W        W88548   8.232  28.783  11.104
16124W        W88549  34.672   1.847  12.247
16125W        W88550  18.955  43.007   3.675
16126W        W88551  42.116  28.943  12.679
16127W        W88552  41.545   3.301  13.787
16128W        W88553  32.091  15.795   1.221
16129W        W88554  30.911  13.725  10.748
16130W        W88555   0.902  42.568   0.826
16131W        W88556   9.310  25.218  11.945
16132W        W88557   0.846   6.486   3.048
16133W        W88558  26.575  42.744  12.905
16134W        W88559   8.698  32.432  11.608
16135W        W88560  22.088  39.954   0.008
16136W        W88561  18.660  32.185   3.283
16137W        W88562   0.809   2.311  11.957
16138W        W88563  22.416   8.330   1.489
16139W        W88564  29.887  32.778  14.791
16140W        W88565  24.982  17.458   0.294
16141W        W88566  44.926  16.772   4.567
16142W        W88567  11.484   1.447   4.049
16143W        W88568  37.456  12.908  12.537
16144W        W88569  30.868  15.285  14.787
16145W        W88570  30.707  30.055   2.172
16146W        W88571  11.647   7.591   2.765
16147W        W88572   9.820  40.465   4.660
16148W        W88573  42.375  28.094   1.562
16149W        W88574   2.335  39.009   3.678
16150W        W88575  41.966  28.673   2.195
16151W        W88576  14.135  37.343   0.094
16152W        W88577  20.755   5.117  10.653
16153W        W88578  22.078  42.206  13.989
16154W        W88579  38.649  27.190  11.929
16155W        W88580   3.956   0.791   3.249
16156W        W88581  39.807  38.425   3.148
16157W        W88582  21.710   4.502  10.899
16158W        W88583  41.966  19.673   1.169
16159W        W88584   4.259   2.200  14.001
16160W        W88585   0.455  26.431   2.533
16161W        W88586  40.536  39.013  13.120
16162W        W88587  21.245  26.908   2.243
16163W        W88588  38.157   9.334   4.568
16164W        W88589  41.897  15.066   3.774
16165W        W88590  37.905  40.472  11.037
16166W        W88591  22.640  38.813   3.916
16167W        W88592  16.626  15.545  14.352
16168W        W88593   1.922  23.513  11.045
16169W        W88594  19.338   5.176  13.878
16170W        W88595   9.778   2.496  11.235
16171W        W88596  31.487  42.790   2.298
16172W        W88597   8.300  33.716  13.529
16173W        W88598  32.443  26.861  12.067
16174W        W88599   7.322  21.220   0.229
16175W        W88600  26.615   4.269   4.578
16176W        W88601  26.119  34.864  11.084
16177W        W88602  32.431  19.792  12.799
16178W        W88603  26.702  36.490  13.316
16179W        W88604  40.082   5.287   1.730
16180W        W88605  42.828  19.150  13.792
16181W        W88606  22.983  33.881  13.893
16182W        W88607   3.393   4.473   4.141
16183W        W88608  24.833  17.131  14.389
16184W        W88609  43.571   9.548  14.483
16185W        W88610   5.739   5.818  13.623
16186W        W88611  36.868  19.700   4.082
16187W        W88612  23.938  36.076   4.992
16188W        W88613  20.240   4.630   3.637
16189W        W88614  22.200  24.736   1.460
16190W        W88615  37.424  36.927   3.921
16191W        W88616  37.418   9.193  11.126
16192W        W88617   1.818  25.604   1.119
16193W        W88618  27.158  37.141  13.566
16194W        W88619   6.908  21.049   3.631
16195W        W88620  23.107  30.829  14.363
16196W        W88621   1.906  18.291  13.381
16197W        W88622  11.125  29.027  14.939
16198W        W88623  13.295  26.604  10.632
16199W        W88624  10.198  13.566  14.356
16200W        W88625  11.652   2.831   1.659
16201W        W88626  31.142  12.890  10.120
16202W        W88627  39.888  42.286   4.160
16203W        W88628  32.212  12.154   2.095
16204W        W88629   0.135  30.883  12.110
16205W        W88630  27.909  10.149  14.819
16206W        W88631  16.593  14.196  10.733
16207W        W88632  40.870  11.436   0.046
16208W        W88633  18.144  44.960  13.576
16209W        W88634   1.415  39.860  12.045
16210W        W88635  24.932  29.784  13.838
16211W        W88636  33.647  33.048  12.940
16212W        W88637  21.219   7.705  10.924
16213W        W88638  39.244  16.133   0.073
16214W        W88639  36.867  41.778   2.163
16215W        W88640  40.295  12.107   1.248
16216W        W88641  29.156  22.669   4.188
16217W        W88642  27.536  14.182   3.083
16218W        W88643  11.111  27.085   4.158
16219W        W88644  22.177   0.991   2.607
16220W        W88645  21.818  22.184   0.043
16221W        W88646   2.504   0.537   4.241
16222W        W88647  14.236  10.920   3.794
16223W        W88648  37.321  32.370   2.152
16224W        W88649  28.596  22.599   4.879
16225W        W88650  15.600   9.692   3.651
16226W        W88651  19.135   4.585  11.597
16227W        W88652  37.131  35.066   4.256
16228W        W88653  16.355   2.456   1.792
16229W        W88654  43.463   5.180  10.956
16230W        W88655   3.357  13.731  10.672
16231W        W88656  25.907  19.844  10.738
16232W        W88657  31.951  34.119   4.360
16233W        W88658  14.929  33.418   2.120
16234W        W88659  25.948  17.229   0.070
16235W        W88660  43.399  37.001  14.963
16236W        W88661  43.923  36.547  12.376
16237W        W88662   7.680  11.474   2.464
16238W        W88663   2.273  38.916  12.178
16239W        W88664   0.320  29.387   2.386
16240W        W88665  28.741  28.271   4.164
16241W        W88666  29.995  38.382   3.705
16242W        W88667  24.264   5.268  10.987
16243W        W88668   0.966  10.689  10.454
16244W        W88669  25.887   6.076   5.162
16245W        W88670  16.679  38.550  10.557
16246W        W88671  15.480   7.270   1.799
16247W        W88672  18.797  43.585  11.848
16248W        W88673  42.928   7.768   1.191
16249W        W88674  26.562  34.707   4.135
16250W        W88675  40.882   1.885  10.645
16251W        W88676  18.565  38.466  10.787
16252W        W88677   5.438  33.403  13.928
16253W        W88678  10.722  28.943   2.722
16254W        W88679  41.450  32.024   2.405
16255W        W88680  15.531  39.876   0.799
16256W        W88681  42.754   8.399   2.800
16257W        W88682  22.738   2.826   0.785
16258W        W88683   2.769  27.689  14.793
16259W        W88684  42.206  12.828   1.789
16260W        W88685  32.359  44.380   4.496
16261W        W88686  11.739  20.231  14.921
16262W        W88687  41.488   3.459   3.811
16263W        W88688  41.499  19.250  13.592
16264W        W88689  10.820  11.761  14.273
16265W        W88690  27.755  36.794   4.263
16266W        W88691  38.986   2.504  10.088
16267W        W88692   2.967   0.545  14.102
16268W        W88693  20.278  31.224  10.394
16269W        W88694  26.177  10.994   1.386
16270W        W88695  10.267  26.425   1.791
16271W        W88696  21.478  23.276   3.308
16272W        W88697  12.462   5.699  11.551
16273W        W88698  40.489   5.190  11.685
16274W        W88699   7.000  43.146   2.950
16275W        W88700  11.162  30.171   3.956
16276W        W88701   1.721  23.038  11.606
16277W        W88702  28.415  33.413  10.262
16278W        W88703  18.869   5.417   2.717
16279W        W88704  36.199  37.331   2.174
16280W        W88705  31.626  12.291  13.192
16281W        W88706  39.321  33.025   0.014
16282W        W88707  14.321  11.865   4.624
16283W        W88708  18.251  18.786   0.409
16284W        W88709  23.160   8.115   0.336
16285W        W88710   1.993  12.212  12.116
16286W        W88711  31.525  27.507  12.858
16287W        W88712  34.449   5.340   2.498
16288W        W88713   6.878  18.100  12.133
16289W        W88714  40.386   9.658   0.703
16290W        W88715  41.954  34.461   2.800
16291W        W88716  11.811  39.060  14.358
16292W        W88717  27.356   2.947  14.951
16293W        W88718  40.709  44.051   5.020
16294W        W88719  19.017  13.733  13.007
16295W        W88720  38.341  39.426  11.508
16296W        W88721  12.846  39.748  12.461
16297W        W88722  23.220   2.867   1.032
16298W        W88723  13.136  18.576  10.814
16299W        W88724  28.176  27.636  13.065
16300W        W88725  20.604  35.138   3.931
16301W        W88726  44.352  39.756  12.359
16302W        W88727  35.890  19.778   0.536
16303W        W88728  20.470  10.320   3.730
16304W        W88729  10.559   8.335  10.632
16305W        W88730  24.449  19.472  11.879
16306W        W88731  13.090  29.616  10.665
16307W        W88732  43.110  30.907   2.966
16308W        W88733  42.222  39.326  13.295
16309W        W88734   6.073  17.844   3.875
16310W        W88735  18.825  36.139   4.691
16311W        W88736  37.491   4.779   0.822
16312W        W88737   7.169   0.203  10.727
16313W        W88738  14.716  34.603   3.904
16314W        W88739  40.091  23.527  11.931
16315W        W88740  38.905   3.783   4.198
16316W        W88741   3.007  20.933  14.928
16317W        W88742   5.328  14.435  12.076
16318W        W88743  35.938  19.544   3.136
16319W        W88744   4.997  25.263   1.582
16320W        W88745  15.616  37.953   1.334
16321W        W88746  14.154   5.716  10.697
16322W        W88747  40.360  34.826  10.765
16323W        W88748   3.207  13.269   1.195
16324W        W88749  38.373  17.911   2.816
16325W        W88750  10.831  42.827  12.556
16326W        W88751  16.472  20.295  12.400
16327W        W88752   6.036  14.697  13.724
16328W        W88753   1.761  40.031  13.782
16329W        W88754  36.338   3.144   3.696
16330W        W88755  42.857  21.511  11.103
16331W        W88756  24.240  29.956   3.624
16332W        W88757  15.894  14.636   1.977
16333W        W88758  26.156  17.511   3.624
16334W        W88759  12.050  43.453   4.573
16335W        W88760  11.883  18.609  13.305
16336W        W88761  20.447   2.030  14.916
16337W        W88762  31.399  15.268   4.952
16338W        W88763  30.189  32.682   5.094
16339W        W88764  18.664  13.352   2.275
16340W        W88765  11.937   0.459  11.535
16341W        W88766  39.959  27.211   1.850
16342W        W88767  28.700  18.810  11.498
16343W        W88768   8.732  18.236   4.789
16344W        W88769  10.350   1.945   3.638
16345W        W88770  20.742  23.163   4.652
16346W        W88771  32.842  26.902  14.489
16347W        W88772  38.147  23.985  13.905
16348W        W88773  18.582  27.174  13.405
16349W        W88774  38.306  39.953   0.802
16350W        W88775  29.088  26.972  14.954
16351W        W88776  10.257  25.619   0.366
16352W        W88777  41.986  16.804  10.671
16353W        W88778  30.162   9.446  12.198
16354W        W88779  40.831  38.474  14.061
16355W        W88780  17.082  27.488   4.416
16356W        W88781  28.481  32.604  11.188
16357W        W88782  41.350  30.652  14.791
16358W        W88783  29.903  30.675  10.597
16359W        W88784  41.601   7.268  10.650
16360W        W88785   1.038  26.634  11.469
16361W        W88786  33.195   2.220   3.138
16362W        W88787   9.579  19.125  14.822
16363W        W88788  19.114  12.809  10.702
16364W        W88789  21.211  23.639  11.498
16365W        W88790   2.769   2.454  14.333
16366W        W88791  38.316  31.011   4.517
16367W        W88792  38.381  29.167   5.034
16368W        W88793   1.972  41.873   1.821
16369W        W88794  22.214  27.934  14.719
16370W        W88795   4.901  26.999   1.932
16371W        W88796  39.954  16.253  10.505
16372W        W88797  12.698   6.308  11.014
16373W        W88798   1.456  41.483  14.052
16374W        W88799  36.642  39.302  14.361
16375W        W88800  37.876   5.890  14.800
16376W        W88801  23.229  40.651  13.951
16377W        W88802  26.599  32.451   4.983
16378W        W88803  43.508  27.270  12.362
16379W        W88804  15.711  41.358   3.139
16380W        W88805   1.185  26.667  12.874
16381W        W88806  34.652  16.996   2.480
16382W        W88807  16.318  18.686  11.947
16383W        W88808  44.245  28.204   0.781
16384W        W88809   7.206   9.646   2.700
16385W        W88810  43.948  29.150   2.817
16386W        W88811  32.046  35.072   4.337
16387W        W88812  24.652  35.330   4.679
16388W        W88813  33.531  21.734   2.260
16389W        W88814  10.637  15.272  12.100
16390W        W88815   2.374   2.527  12.969
16391W        W88816   1.368  35.539   4.157
16392W        W88817  26.911  36.533  11.482
16393W        W88818  38.522  13.155   1.197
16394W        W88819  31.485   1.633   1.427
16395W        W88820  36.119  39.630   2.723
16396W        W88821  18.583  13.349   3.992
16397W        W88822  17.680  25.426   1.709
16398W        W88823  42.863   3.802   3.707
16399W        W88824   4.599  18.211   4.825
16400W        W88825  35.636  28.740  10.739
16401W        W88826  12.191  35.416  11.799
16402W        W88827  22.436   9.384   1.416
16403W        W88828  11.142  19.386  10.663
16404W        W88829  22.213   4.499   0.258
16405W        W88830  32.917  19.546  10.590
16406W        W88831  17.646  16.292   3.771
16407W        W88832  20.738  31.379  11.123
16408W        W88833  19.168  17.507   3.861
16409W        W88834  33.696  20.058  13.525
16410W        W88835  40.209  14.157   0.362
16411W        W88836  13.745  34.267   3.378
16412W        W88837  15.035  12.805  12.472
16413W        W88838   0.152  19.596  11.938
16414W        W88839  24.959   2.153   3.548
16415W        W88840  33.106  17.719  13.710
16416W        W88841  19.152  38.066   3.333
16417W        W88842  26.816  25.156  13.596
16418W        W88843  43.447  34.920  13.618
16419W        W88844  13.607  23.701   2.551
16420W        W88845  42.655  34.998   4.591
16421W        W88846   7.563  20.732   4.234
16422W        W88847  25.188  41.817   0.208
16423W        W88848  43.158   3.991   1.464
16424W        W88849  35.398   4.424  11.922
16425W        W88850  10.143  43.067  10.481
16426W        W88851   9.124  44.849  13.019
16427W        W88852  31.855  10.059  11.041
16428W        W88853  20.802  39.857   3.131
16429W        W88854  12.124  32.509  10.675
16430W        W88855  16.032  30.090  13.035
16431W        W88856  31.755  34.456  14.853
16432W        W88857  22.097  23.534   3.233
16433W        W88858  41.433  25.221   0.698
16434W        W88859  44.793  16.917  13.834
16435W        W88860  20.586   0.541  11.609
16436W        W88861  29.748  42.265   1.857
16437W        W88862  21.504  25.705   3.283
16438W        W88863  18.118  16.731   1.822
16439W        W88864  38.527   4.175  14.874
16440W        W88865  39.314  11.295   1.650
16441W        W88866  14.779  13.334  10.761
16442W        W88867  21.168  19.619  11.228
16443W        W88868  11.681  31.934  11.088
16444W        W88869  32.325  42.595   4.141
16445W        W88870   2.296  31.309  11.983
16446W        W88871  35.365  21.736   4.579
16447W        W88872  40.457  34.489  14.388
16448W        W88873  18.981  21.164   4.077
16449W        W88874  22.744  31.337  14.778
16450W        W88875  36.427   2.369   4.807
16451W        W88876   2.855  35.455   2.267
16452W        W88877  25.727  44.161   1.357
16453W        W88878  19.249   1.323  14.396
16454W        W88879  24.931  20.773  13.598
16455W        W88880   4.214  10.834  12.909
16456W        W88881   1.322  11.669   1.750
16457W        W88882  32.147  12.176   2.706
16458W        W88883  26.499  37.463   1.815
16459W        W88884  40.217   1.189  10.506
16460W        W88885  24.575  13.713   3.314
16461W        W88886  22.215  42.462  12.490
16462W        W88887   6.216  40.267   0.080
16463W        W88888   4.398   7.718   4.238
16464W        W88889  25.980  19.763   2.615
16465W        W88890  43.368  27.949   1.312
16466W        W88891  15.532   7.173  12.100
16467W        W88892  44.353  14.704  13.483
16468W        W88893  20.257  44.946   4.082
16469W        W88894  11.831  26.625  14.972
16470W        W88895  44.227  22.996   3.687
16471W        W88896  41.298  20.227  13.771
16472W        W88897   6.179  26.178  11.587
16473W        W88898  10.347  33.139  14.200
16474W        W88899  15.094  31.460  11.151
16475W        W88900  16.630   1.817   3.336
16476W        W88901  16.542  19.991   1.508
16477W        W88902  23.156  23.565   4.629
16478W        W88903  24.736  33.756   1.801
16479W        W88904   3.269  19.971   3.745
16480W        W88905   9.893   3.420  14.052
16481W        W88906   7.647  15.969   2.237
16482W        W88907  13.645  18.105  11.473
16483W        W88908  26.249  25.709   4.544
16484W        W88909  31.679  18.141   3.341
16485W        W88910  44.859  22.692   0.413
16486W        W88911  33.467  39.030  10.232
16487W        W88912  11.612  12.107   0.589
16488W        W88913  15.650  21.667  12.828
16489W        W88914   3.935   0.879   4.141
16490W        W88915   0.323  40.415  14.867
16491W        W88916  10.331  32.073   0.704
16492W        W88917  27.532  12.076  11.647
16493W        W88918  39.434  42.556   3.296
16494W        W88919  39.049   1.256  13.427
16495W        W88920  29.006  31.419   4.655
16496W        W88921  44.524  24.899  10.266
16497W        W88922  41.667  14.348  11.115
16498W        W88923  38.085  17.227  10.991
16499W        W88924  33.867  43.144  11.553
16500W        W88925  37.053   3.059  14.579
16501W        W88926   3.062  44.683  13.061
16502W        W88927  44.848   1.830   3.285
16503W        W88928  11.320  23.163  10.655
16504W        W88929  34.480  34.977   2.100
16505W        W88930  16.851  27.939  11.522
16506W        W88931  20.287  14.365   2.193
16507W        W88932  13.021   7.108   3.638
16508W        W88933  11.348  22.445  14.225
16509W        W88934  17.144  31.509   2.946
16510W        W88935  31.223   1.315  13.382
16511W        W88936   9.563  33.908  13.886
16512W        W88937  14.063  36.995  13.384
16513W        W88938  44.271  22.534  14.414
16514W        W88939   4.277   1.436  11.905
16515W        W88940  11.585   4.825  10.759
16516W        W88941  35.410  31.015   4.589
16517W        W88942  34.817  44.821   0.426
16518W        W88943  22.314  18.565   1.407
16519W        W88944  37.605  21.262   0.963
16520W        W88945   0.945  13.385   3.791
16521W        W88946  37.496   1.531  14.467
16522W        W88947  33.676  20.987   1.806
16523W        W88948  23.328  13.598   2.983
16524W        W88949  44.251  22.251   4.214
16525W        W88950  10.599  30.145   1.827
16526W        W88951  36.096  35.859   3.910
16527W        W88952  42.942  17.178   1.785
16528W        W88953  21.561  31.231   2.632
16529W        W88954  32.938  24.152  12.908
16530W        W88955  34.359   7.331  10.524
16531W        W88956   4.067  41.435  11.079
16532W        W88957   5.808  21.016   1.367
16533W        W88958   3.194  44.357  11.933
16534W        W88959  38.850  26.006   3.669
16535W        W88960  22.057  35.598  12.924
16536W        W88961  11.356  22.403   2.203
16537W        W88962   8.677  18.069  14.019
16538W        W88963  31.852   6.511   4.235
16539W        W88964   3.200  10.493   1.435
16540W        W88965  37.706  24.153   5.082
16541W        W88966  28.648  14.346   4.658
16542W        W88967  12.686  31.562  13.990
16543W        W88968  42.401  20.191  12.454
16544W        W88969  42.141  11.717  13.963
16545W        W88970   3.328  13.357  13.992
16546W        W88971  40.322   3.081   2.428
16547W        W88972  10.682  13.712   3.647
16548W        W88973  37.026  32.492   3.603
16549W        W88974  25.354  25.864   0.350
16550W        W88975  22.454   0.144   0.234
16551W        W88976   0.795  32.662  11.973
16552W        W88977  14.798  18.261  10.511
16553W        W88978  12.744   3.763  10.780
16554W        W88979  14.863   3.878   3.405
16555W        W88980  36.007  42.967  13.974
16556W        W88981  35.380   6.642   0.959
16557W        W88982  33.110  12.218   4.218
16558W        W88983  39.266  23.651   2.401
16559W        W88984  29.883   7.242   2.249
16560W        W88985  22.169   6.502  14.371
16561W        W88986  19.773   2.733   2.131
16562W        W88987   9.710   6.738   1.722
16563W        W88988  11.828  29.091   1.462
16564W        W88989  25.430  34.581   2.006
16565W        W88990  40.974  30.082   0.272
16566W        W88991  41.055  28.701   4.288
16567W        W88992  20.496  36.039   2.776
16568W        W88993  41.616   7.911  14.887
16569W        W88994  36.481  39.803   2.314
16570W        W88995  34.200   3.135  13.925
16571W        W88996  24.728  10.632  14.848
16572W        W88997   8.375   4.188  13.891
16573W        W88998  14.173  34.001   3.192
16574W        W88999  42.034   3.400  12.853
16575W        W89000  18.586   0.007  13.914
16576W        W89001  37.312   9.841  12.128
16577W        W89002  10.729  22.237   1.820
16578W        W89003  43.336  24.481   3.924
16579W        W89004  27.561   2.222   3.428
16580W        W89005   4.705  44.340  11.996
16581W        W89006  34.112  34.580  13.462
16582W        W89007  43.871  38.293  14.926
16583W        W89008  35.286  28.690   3.768
16584W        W89009  13.853  11.288  11.447
16585W        W89010  11.878  43.681  11.094
16586W        W89011  39.096  39.580  11.002
16587W        W89012  28.165  23.289  14.163
16588W        W89013  32.185  24.060   0.961
16589W        W89014   2.025  42.433  13.559
16590W        W89015  25.742  11.820   0.422
16591W        W89016  12.182   3.469  11.409
16592W        W89017  35.614  12.107   1.915
16593W        W89018  26.631   4.516   4.102
16594W        W89019  20.592  12.338  14.513
16595W        W89020  42.291   8.646   3.791
16596W        W89021  18.666  14.271  10.591
16597W        W89022  15.290   5.730  14.061
16598W        W89023  35.611  28.858   4.147
16599W        W89024  41.327   4.272   1.169
16600W        W89025  35.105  12.829  10.841
16601W        W89026  34.732   1.463   0.909
16602W        W89027  23.785  15.926  10.991
16603W        W89028  33.560  17.297  12.471
16604W        W89029  35.466   7.545  11.207
16605W        W89030  18.172  24.791  12.120
16606W        W89031  22.221  10.738   1.515
16607W        W89032  28.054  36.619  13.323
16608W        W89033  25.437  15.819  13.966
16609W        W89034   7.874  27.912  14.804
16610W        W89035  24.565  24.690   3.775
16611W        W89036  23.300  23.074  11.637
16612W        W89037  24.423   6.845  12.988
16613W        W89038  44.702   6.964  11.083
16614W        W89039  29.212  41.854  12.055
16615W        W89040  19.560  22.185  12.391
16616W        W89041   5.679  35.089  12.017
16617W        W89042  37.363  30.151   1.911
16618W        W89043  20.507  43.849   1.277
16619W        W89044  26.933   6.237   0.307
16620W        W89045  29.588  28.009   4.507
16621W        W89046  29.038  38.777   3.527
16622W        W89047  26.294  23.026   3.296
16623W        W89048  28.168  22.566  11.142
16624W        W89049   3.659  35.465   4.296
16625W        W89050   1.688  24.831   4.049
16626W        W89051  27.272  12.653   3.939
16627W        W89052  38.581  22.962  12.789
16628W        W89053   1.860  26.157   0.721
16629W        W89054  44.437  24.349  12.093
16630W        W89055  14.298  28.139  12.038
16631W        W89056  22.605   0.226  12.959
16632W        W89057  17.885  11.932  12.027
16633W        W89058  19.844  40.891  13.738
16634W        W89059   5.134  12.183   4.120
16635W        W89060  34.101   0.687   3.666
16636W        W89061  29.130  22.755  12.483
16637W        W89062  40.309  24.050  13.543
16638W        W89063  40.258  11.001   3.580
16639W        W89064  11.617  14.228   4.588
16640W        W89065   2.454  18.609   2.697
16641W        W89066  25.544   8.315   1.255
16642W        W89067   8.252   4.486   1.372
16643W        W89068  42.498  20.229  14.932
16644W        W89069  14.172  33.447   4.726
16645W        W89070  35.296  42.417   1.600
16646W        W89071  31.703  16.572  14.851
16647W        W89072  42.004   3.905   2.265
16648W        W89073   6.776  19.690  14.013
16649W        W89074   1.026  32.092   1.904
16650W        W89075  35.854  32.989  14.779
16651W        W89076  26.557  30.936   2.562
16652W        W89077  40.363  30.754   4.095
16653W        W89078  26.032  13.646  14.036
16654W        W89079   6.485  40.357   2.404
16655W        W89080   2.359  12.986   3.301
16656W        W89081  34.956   8.456   3.802
16657W        W89082  44.921  29.592  11.298
16658W        W89083  24.668  36.981   3.713
16659W        W89084  20.841  19.188  11.584
16660W        W89085  43.669  41.015  12.948
16661W        W89086  33.182  37.567  10.700
16662W        W89087  10.739  30.162  14.778
16663W        W89088  36.575  31.718  13.947
16664W        W89089   1.576  36.327  12.604
16665W        W89090  36.916  26.134  10.642
16666W        W89091  32.461   4.916   1.392
16667W        W89092  10.717  37.595   4.654
16668W        W89093   0.503  21.196  11.492
16669W        W89094  18.556  44.335  14.523
16670W        W89095   6.230  21.200   2.209
16671W        W89096   0.198  28.979   1.430
16672W        W89097   4.250   1.754  14.566
16673W        W89098  36.399  16.511  13.406
16674W        W89099  44.773  43.184   4.619
16675W        W89100  32.940   5.756   0.708
16676W        W89101  34.480  18.856   1.306
16677W        W89102  34.659  29.853   0.488
16678W        W89103  40.736  33.848  14.471
16679W        W89104  12.637  23.272   3.132
16680W        W89105  13.266  23.244  14.680
16681W        W89106   7.853  41.284   1.711
16682W        W89107  43.131   7.178   4.416
16683W        W89108  38.035  29.499   1.868
16684W        W89109   2.775  27.964   3.289
16685W        W89110  42.532   3.881  10.738
16686W        W89111  20.159  22.642   3.422
16687W        W89112  26.601  15.371  13.818
16688W        W89113  40.391  29.609   0.686
16689W        W89114  22.242   8.817   1.407
16690W        W89115  34.728  24.424   1.897
16691W        W89116   5.854  22.217  12.436
16692W        W89117  20.138  10.174  10.082
16693W        W89118  41.145   4.445  14.409
16694W        W89119  35.918  16.357  13.494
16695W        W89120   1.698   6.014   3.542
16696W        W89121   3.300  34.929  11.943
16697W        W89122  25.009   5.890  10.252
16698W        W89123  19.511  16.529  11.214
16699W        W89124  29.206   1.399   4.679
16700W        W89125  24.806   5.786  13.155
16701W        W89126  28.159  31.893   2.277
16702W        W89127  38.343  24.102   0.362
16703W        W89128  30.407  29.090   4.098
16704W        W89129  19.584   0.510   2.298
16705W        W89130  14.296  31.855  13.796
16706W        W89131  32.930  44.423  12.423
16707W        W89132   5.289  30.104  12.000
16708W        W89133  20.302  38.048   0.538
16709W        W89134  38.394  21.470   3.395
16710W        W89135  19.256  29.019  14.336
16711W        W89136  37.910  39.086  14.558
16712W        W89137  15.132  39.137  14.844
16713W        W89138  43.420  28.102  10.887
16714W        W89139  26.965  28.136  14.290
16715W        W89140  34.291  32.460   4.179
16716W        W89141  42.883   8.421  13.069
16717W        W89142  25.609  22.762  13.473
16718W        W89143  15.263  20.876  10.311
16719W        W89144  19.077  38.858  13.313
16720W        W89145   5.821  27.731  14.937
16721W        W89146   4.918  37.773   3.451
16722W        W89147  18.815  19.939   0.966
16723W        W89148  26.937  24.670   2.899
16724W        W89149  12.362  19.164   4.093
16725W        W89150  33.692  42.495  14.802
16726W        W89151   7.179  28.959  11.931
16727W        W89152  43.747  13.883  14.030
16728W        W89153  31.368   1.940   3.800
16729W        W89154  37.206  31.294  13.044
16730W        W89155  13.744  26.960   1.898
16731W        W89156  17.205   1.120   3.130
16732W        W89157   3.470  32.948  13.906
16733W        W89158   7.519  11.207   1.126
16734W        W89159  28.641  27.734  12.846
16735W        W89160  36.832  33.861   4.629
16736W        W89161   7.387   9.628  11.908
16737W        W89162  31.963   1.498   1.679
16738W        W89163  18.042  26.550   0.541
16739W        W89164  28.043   3.723   0.243
16740W        W89165   8.902  15.161   4.506
16741W        W89166  21.804  34.965  10.948
16742W        W89167  28.196  44.288  12.751
16743W        W89168  33.058  22.595  12.908
16744W        W89169  24.007  13.808   2.283
16745W        W89170  38.581  39.366   2.821
16746W        W89171  22.541  26.061   3.795
16747W        W89172  26.024   5.607   4.558
16748W        W89173  19.716   8.200   4.646
16749W        W89174  23.981  30.920  11.016
16750W        W89175  27.169   8.708   3.658
16751W        W89176  34.612  10.091  13.353
16752W        W89177  37.121  37.982   2.279
16753W        W89178   3.501  17.177   2.779
16754W        W89179  16.123   1.702   2.259
16755W        W89180  33.629  26.172  13.066
16756W        W89181   9.134  25.063  11.023
16757W        W89182  30.278  38.873   0.380
16758W        W89183  11.757  20.474  14.472
16759W        W89184   8.457  15.219   3.558
16760W        W89185  25.698  44.170  12.577
16761W        W89186  23.493  44.891  14.875
16762W        W89187  37.943   7.623  10.419
16763W        W89188   1.089  30.503   0.785
16764W        W89189  29.165  44.872  11.981
16765W        W89190  24.123  35.129   0.000
16766W        W89191  44.290   6.918   0.035
16767W        W89192   6.911  28.494   4.106
16768W        W89193  14.280  31.578  10.978
16769W        W89194  28.722  20.310   1.945
16770W        W89195  12.058   6.438  11.534
16771W        W89196  21.224   7.001   0.382
16772W        W89197  24.188  41.253   2.906
16773W        W89198   7.863  10.834   0.918
16774W        W89199  44.233   7.757  11.581
16775W        W89200  24.143   2.722   3.624
16776W        W89201  14.838  44.129   1.716
16777W        W89202  33.605  14.864  12.462
16778W        W89203  25.756  31.647   2.877
16779W        W89204  33.357  14.271   0.822
16780W        W89205   3.892  13.980   1.342
16781W        W89206  27.550  43.611  14.333
16782W        W89207   5.265  10.297   2.467
16783W        W89208   8.706   7.773   1.003
16784W        W89209  22.561  22.571  10.714
16785W        W89210  26.259   5.964  12.814
16786W        W89211  22.464  11.627  11.723
16787W        W89212   2.701   7.931   1.768
16788W        W89213  26.601  23.227  13.179
16789W        W89214  13.134  10.552   1.663
16790W        W89215  38.632  33.965   1.450
16791W        W89216   6.039   1.733   0.365
16792W        W89217  23.997  23.502  12.373
16793W        W89218  14.595   1.125  13.014
16794W        W89219  19.014  23.406   4.358
16795W        W89220  11.160  10.866  14.013
16796W        W89221  42.990  35.065   0.830
16797W        W89222   4.307  20.348   3.270
16798W        W89223  20.246  13.314   4.876
16799W        W89224  24.680  16.044  11.047
16800W        W89225  21.224  40.781  10.623
16801W        W89226  21.288   9.856   3.646
16802W        W89227  41.914  22.930  13.402
16803W        W89228  29.621  28.931   4.596
16804W        W89229  32.964  43.625   1.280
16805W        W89230  18.768  28.479   2.746
16806W        W89231  24.082  21.544  13.512
16807W        W89232  17.101  33.031  13.780
16808W        W89233  11.171  34.294   1.748
16809W        W89234  25.619  19.149  11.603
16810W        W89235   4.159   8.647   4.769
16811W        W89236  16.940   5.383   1.846
16812W        W89237   0.478  29.672   2.834
16813W        W89238  20.635   3.343  11.096
16814W        W89239  20.650  24.636   4.765
16815W        W89240  18.097  36.852  13.529
16816W        W89241  38.838  18.914  10.567
16817W        W89242  38.220  14.643  12.983
16818W        W89243  38.262  44.377  11.068
16819W        W89244  24.532  21.253  10.595
16820W        W89245  24.018  32.573   3.472
16821W        W89246   2.349  19.526   3.722
16822W        W89247  17.297  40.602   0.354
16823W        W89248  26.463  43.547   1.229
16824W        W89249  16.868  33.140  14.228
16825W        W89250   0.879  38.824   4.939
16826W        W89251  10.776  39.187  12.823
16827W        W89252   6.411  33.000   0.721
16828W        W89253  31.382  12.675   0.575
16829W        W89254  35.301  26.211   1.484
16830W        W89255  29.202  44.853  12.502
16831W        W89256  34.842  32.337  11.082
16832W        W89257  15.778  32.714   2.331
16833W        W89258   8.776  33.861  13.474
16834W        W89259  31.873   3.451   5.045
16835W        W89260  26.668  20.723  12.544
16836W        W89261  16.036  14.354   0.391
16837W        W89262  40.515  34.492  11.159
16838W        W89263  31.067  44.994  11.940
16839W        W89264  32.640  26.744   3.169
16840W        W89265  14.258  32.102  11.615
16841W        W89266  15.260  34.929  12.449
16842W        W89267  10.690  35.790  14.912
16843W        W89268   5.698  35.109   0.920
16844W        W89269   2.417  34.585   0.461
16845W        W89270   1.218  43.767   0.425
16846W        W89271  14.787  32.929  13.069
16847W        W89272  43.791  13.184  12.609
16848W        W89273  42.884  24.750   0.384
16849W        W89274  25.999   8.858   1.943
16850W        W89275  11.836   1.402  13.772
16851W        W89276   5.117  18.107   4.722
16852W        W89277   5.941  43.117   1.984
16853W        W89278   0.866   0.757  13.095
16854W        W89279   8.001  34.438   5.703
16855W        W89280  20.052  24.039   2.247
16856W        W89281   3.338  16.223  12.060
16857W        W89282  30.305  42.313  13.967
16858W        W89283  16.907  40.044   2.631
16859W        W89284  17.162   0.148   2.366
16860W        W89285  10.394  40.339  12.075
16861W        W89286  35.869   8.232   1.067
16862W        W89287   7.381  23.207  13.042
16863W        W89288   0.750  44.457  12.078
16864W        W89289  27.498  36.929  12.429
16865W        W89290  40.482   2.219  10.711
16866W        W89291  41.452  36.782   2.984
16867W        W89292  38.426  34.715  10.673
16868W        W89293  26.106   9.152   3.937
16869W        W89294  24.270  35.013   1.667
16870W        W89295  43.451  21.178   0.699
16871W        W89296  44.534  18.015   3.818
16872W        W89297  37.397   0.432   0.845
16873W        W89298  17.494   7.138   2.175
16874W        W89299   2.038  34.547  12.937
16875W        W89300  20.315  10.834  14.860
16876W        W89301  20.610  42.272   4.665
16877W        W89302  34.181  17.462   5.097
16878W        W89303  43.527   8.330   4.739
16879W        W89304  24.397  17.664   4.641
16880W        W89305  33.926  20.371  12.156
16881W        W89306  40.870  19.739  12.041
16882W        W89307  29.547  18.432   2.962
16883W        W89308   1.240   5.186   2.455
16884W        W89309  18.816  11.847  14.795
16885W        W89310   8.791  34.393   3.606
16886W        W89311  42.622  44.512   2.777
16887W        W89312  32.160  30.004   2.474
16888W        W89313  13.257  21.218  14.057
16889W        W89314   7.648  11.637   4.305
16890W        W89315  39.839   4.924  14.292
16891W        W89316  16.871  31.165  13.881
16892W        W89317  16.136  35.089   3.307
16893W        W89318  39.982   9.437  11.974
16894W        W89319  25.639  21.473  12.701
16895W        W89320  41.958  22.378   3.875
16896W        W89321  22.687   5.941   4.645
16897W        W89322   5.843  30.134   4.267
16898W        W89323  19.884  29.877   4.256
16899W        W89324   6.611  14.804   3.770
16900W        W89325  10.665  12.696  13.239
16901W        W89326  37.605  36.835  11.519
16902W        W89327  41.611  34.001   2.870
16903W        W89328  34.386  29.645  13.366
16904W        W89329  12.902  35.039  11.283
16905W        W89330   0.050   0.939  12.478
16906W        W89331  26.596  21.717   1.738
16907W        W89332  16.730  32.665   1.759
16908W        W89333  20.136   9.028  14.860
16909W        W89334  17.953  34.258   3.713
16910W        W89335  36.654   2.215  10.595
16911W        W89336  24.419   2.906   0.954
16912W        W89337   8.404  18.004  14.765
16913W        W89338  37.303  29.891   1.471
16914W        W89339   4.675  42.622   3.779
16915W        W89340  25.617  23.146   4.516
16916W        W89341   9.239   8.902   2.383
16917W        W89342  29.314  41.866  11.112
16918W        W89343  41.964  30.430  14.359
16919W        W89344  33.195   7.182   4.603
16920W        W89345  32.465  30.837   0.899
16921W        W89346  15.554  23.473   3.643
16922W        W89347  28.417  21.738   4.365
16923W        W89348  41.748  21.042   2.921
16924W        W89349   8.196   1.545  12.368
16925W        W89350  12.896  14.352  13.982
16926W        W89351   7.641  12.231   3.382
16927W        W89352   3.318  26.799   0.380
16928W        W89353  40.449  11.838   2.257
16929W        W89354  37.551   9.258  13.355
16930W        W89355   7.574  16.242  14.296
16931W        W89356  41.145   5.566  11.905
16932W        W89357  42.915   0.273  13.001
16933W        W89358  21.084   7.743   2.678
16934W        W89359  39.016  39.345   0.925
16935W        W89360  39.911   9.163  14.958
16936W        W89361  34.007  26.097  12.612
16937W        W89362  18.039  10.223  14.847
16938W        W89363   2.705  39.074  14.312
16939W        W89364   0.266   7.127   3.278
16940W        W89365  22.414  39.787  11.081
16941W        W89366   4.416  15.341   1.727
16942W        W89367  37.356   1.645  12.138
16943W        W89368  21.687  16.789   2.662
16944W        W89369  38.096   9.128   4.099
16945W        W89370  37.895  14.490   3.466
16946W        W89371  21.748  27.058   2.183
16947W        W89372  35.043  22.714  12.967
16948W        W89373   6.638  36.781   0.564
16949W        W89374   8.548  28.118   3.257
16950W        W89375  33.109  37.847  12.759
16951W        W89376  37.282  42.479  13.128
16952W        W89377   4.642  16.671  13.465
16953W        W89378  31.711   6.434   0.792
16954W        W89379   6.280  42.961  11.982
16955W        W89380  42.908  16.704   3.999
16956W        W89381  24.280  42.072   0.243
16957W        W89382   2.321  44.856   3.726
16958W        W89383  44.388  19.815   2.569
16959W        W89384  21.690  42.998   4.203
16960W        W89385  37.889  13.900   4.756
16961W        W89386  40.860  26.297  11.105
16962W        W89387  42.099  27.535   1.069
16963W        W89388  31.376  25.758   0.320
16964W        W89389  11.692  36.115   3.343
16965W        W89390  24.944  43.081   3.107
16966W        W89391   2.843  38.530   2.605
16967W        W89392  33.928   5.746   3.757
16968W        W89393  20.804  27.181   2.170
16969W        W89394  15.729   1.875   2.624
16970W        W89395  43.782  26.489  14.528
16971W        W89396  13.832  43.480  13.443
16972W        W89397  34.490   2.452  10.967
16973W        W89398  22.677   6.507  12.247
16974W        W89399  35.777  43.939  10.707
16975W        W89400   8.259  18.302   0.411
16976W        W89401  11.209   6.886   1.374
16977W        W89402   9.643  39.806  13.460
16978W        W89403  36.552  39.365   2.915
16979W        W89404  31.451   8.692  10.572
16980W        W89405  22.165  19.872   1.094
16981W        W89406  14.587   8.613  12.582
16982W        W89407  23.692  44.258  14.322
16983W        W89408  38.596  33.964   0.534
16984W        W89409   5.332  42.251  13.976
16985W        W89410  36.757  19.551   2.767
16986W        W89411  34.109  39.761   4.152
16987W        W89412  42.949   7.928  11.252
16988W        W89413   1.378  21.558  11.101
16989W        W89414  42.246  29.998   2.444
16990W        W89415  33.641  41.858  12.202
16991W        W89416  28.843  20.556  13.343
16992W        W89417  31.366  30.007   2.963
16993W        W89418  27.842  20.512   0.965
16994W        W89419  17.059  39.220   2.329
16995W        W89420   8.313   7.517  14.772
16996W        W89421  19.663  32.602  13.990
16997W        W89422   1.715  34.920  13.143
16998W        W89423   3.732  41.649  10.672
16999W        W89424  37.401  29.955   2.915
17000W        W89425  35.992   3.861   0.424
17001W        W89426  33.014  18.084   2.333
17002W        W89427  37.947  33.116  11.164
17003W        W89428  16.659  31.445   5.123
17004W        W89429  44.301  44.365  11.048
17005W        W89430  15.821  32.902   1.834
17006W        W89431  32.910   8.736   1.206
17007W        W89432   2.511  16.338  14.935
17008W        W89433  15.186  16.515   3.625
17009W        W89434  12.699  24.467   5.410
17010W        W89435   1.916  24.650   3.068
17011W        W89436  11.220   2.603  12.113
17012W        W89437  40.850  41.153   3.943
17013W        W89438  27.013   0.759  14.153
17014W        W89439   4.682  14.121   3.763
17015W        W89440  30.416  27.386   1.334
17016W        W89441  41.319  38.661   2.852
17017W        W89442  29.024  17.070  13.490
17018W        W89443  11.655  24.634  13.481
17019W        W89444  18.684  43.742   1.215
17020W        W89445   9.000   6.627   3.124
17021W        W89446  43.298  40.999  14.383
17022W        W89447  27.196   1.859   1.979
17023W        W89448  33.365  18.286  14.303
17024W        W89449  30.557  13.610   1.818
17025W        W89450   3.512  22.999  10.413
17026W        W89451  11.917  40.082  10.037
17027W        W89452  22.203  10.442   4.195
17028W        W89453  43.363  14.617  11.418
17029W        W89454   3.390  22.750  11.232
17030W        W89455  38.870  34.378   2.832
17031W        W89456  31.568   9.203   4.570
17032W        W89457  31.027  12.064  12.011
17033W        W89458  32.110  20.022   4.127
17034W        W89459  13.255  15.188  10.547
17035W        W89460  43.085  25.729  11.216
17036W        W89461   1.233  12.300  12.904
17037W        W89462  44.731  30.895   3.274
17038W        W89463  35.352  27.023  13.969
17039W        W89464  17.041   7.741  11.569
17040W        W89465   2.678  36.520  10.910
17041W        W89466  12.210  17.289   0.921
17042W        W89467  15.563  30.346   0.529
17043W        W89468  34.623  39.226  14.840
17044W        W89469   3.505  22.727   3.239
17045W        W89470  21.414   2.979   4.390
17046W        W89471  35.239  41.758   3.050
17047W        W89472  43.397  21.234   4.283
17048W        W89473  24.072  18.094   1.764
17049W        W89474  42.791  16.081  12.475
17050W        W89475   3.720  43.116  11.656
17051W        W89476  32.036  13.432  11.494
17052W        W89477  23.086  44.282   2.197
17053W        W89478  33.431   4.258  11.600
17054W        W89479  14.735   6.542   3.309
17055W        W89480  25.081   3.774  11.455
17056W        W89481  11.647  18.593  10.661
17057W        W89482  18.727  32.190  11.847
17058W        W89483  33.200  11.706   4.761
17059W        W89484  22.032  14.846   2.988
17060W        W89485  15.620  34.221   3.471
17061W        W89486  29.338  23.569   2.033
17062W        W89487  10.417  12.880   0.753
17063W        W89488  17.036  27.907  14.971
17064W        W89489  37.388  19.641  14.111
17065W        W89490  32.243  20.274  12.520
17066W        W89491  10.155  33.879   4.223
17067W        W89492  21.962  27.061   4.574
17068W        W89493   0.647  43.438  13.392
17069W        W89494  41.056  27.949   1.367
17070W        W89495  24.869   0.485  13.959
17071W        W89496  38.777  22.715   1.282
17072W        W89497   7.940  40.595   4.103
17073W        W89498   1.746   5.852   4.616
17074W        W89499   0.508  20.647   9.966
17075W        W89500  24.438  22.980  14.414
17076W        W89501  33.568  40.942   3.279
17077W        W89502  30.971  15.052   0.969
17078W        W89503  38.649  34.200   1.002
17079W        W89504  21.928   3.244   1.037
17080W        W89505   4.019   8.904   3.337
17081W        W89506  16.242   1.339  11.941
17082W        W89507  30.167  31.334  13.633
17083W        W89508  21.639  26.394   0.562
17084W        W89509  26.572   3.976   4.125
17085W        W89510  31.085  31.590   2.878
17086W        W89511  30.002  13.196   0.350
17087W        W89512  19.314  18.606  13.095
17088W        W89513  25.634  23.940  11.048
17089W        W89514  42.903  43.749  13.585
17090W        W89515   4.162   9.790  14.962
17091W        W89516   2.760  41.910  12.513
17092W        W89517  21.737   4.395   0.459
17093W        W89518  44.799  41.852  12.837
17094W        W89519  19.568  27.476   3.287
17095W        W89520  23.560  27.489   3.963
17096W        W89521  15.126  10.782  14.331
17097W        W89522  39.033  15.677   4.206
17098W        W89523   5.945  41.070  11.054
17099W        W89524  11.858  16.741  13.400
17100W        W89525   4.386  19.764  13.084
17101W        W89526  31.586   4.280  14.426
17102W        W89527  21.621   0.265  14.808
17103W        W89528  37.083  41.537   0.798
17104W        W89529  43.097   3.683  11.091
17105W        W89530  26.538  17.847   4.117
17106W        W89531  23.950  11.173  11.472
17107W        W89532  28.422  13.031  13.891
17108W        W89533  31.797   0.137   0.354
17109W        W89534   1.284  21.584  13.038
17110W        W89535  35.342  29.495  11.234
17111W        W89536  34.883  22.196   4.064
17112W        W89537  14.421  41.879  11.032
17113W        W89538  19.743   0.805   0.161
17114W        W89539  29.618  39.973  13.340
17115W        W89540  36.471   2.780  13.072
17116W        W89541   9.227  35.927   4.673
17117W        W89542  26.309  13.384  11.985
17118W        W89543  30.140  42.716  11.398
17119W        W89544   3.267  39.064   2.387
17120W        W89545  29.112   1.401   3.652
17121W        W89546  10.502  42.280  13.752
17122W        W89547   1.064  33.104   4.123
17123W        W89548  28.643  26.567  13.820
17124W        W89549  25.041  18.257  10.730
17125W        W89550   5.530  37.920   4.121
17126W        W89551  40.844  25.248   0.960
17127W        W89552  15.561  19.639  10.719
17128W        W89553  16.085   1.456   2.716
17129W        W89554   7.947   0.007  14.481
17130W        W89555  35.958  32.145   0.030
17131W        W89556   0.806  24.730   2.218
17132W        W89557  10.447  19.499   0.777
17133W        W89558  20.474   4.282   2.450
17134W        W89559   9.377  14.334  12.076
17135W        W89560  31.355   6.372   1.816
17136W        W89561  40.452  36.378   3.254
17137W        W89562  34.406  23.215   4.182
17138W        W89563   6.258  28.132  11.617
17139W        W89564  12.826  25.677   0.087
17140W        W89565  29.150   0.461   4.706
17141W        W89566   8.197   6.715  11.096
17142W        W89567   0.095  42.989  14.813
17143W        W89568  14.587  34.834  11.972
17144W        W89569  15.292  40.623  12.640
17145W        W89570  24.912  19.802   1.705
17146W        W89571  19.580  42.216  14.578
17147W        W89572  19.469  15.273   0.809
17148W        W89573  31.375   0.845  14.911
17149W        W89574   4.279  16.123  11.082
17150W        W89575  20.374  44.332  14.331
17151W        W89576   5.212  39.601  11.602
17152W        W89577  35.412  36.346   4.233
17153W        W89578   2.156  11.562  14.692
17154W        W89579  12.935   4.373   4.556
17155W        W89580   4.397   3.356   2.050
17156W        W89581   5.636  10.722   1.207
17157W        W89582  44.999  34.655   3.747
17158W        W89583  11.017  43.231  12.805
17159W        W89584  40.287  18.519   0.347
17160W        W89585  39.976  39.337   0.936
17161W        W89586  24.700   0.549   3.152
17162W        W89587  11.234  40.034   0.238
17163W        W89588   5.039   0.933   0.517
17164W        W89589   9.648  44.814  13.030
17165W        W89590  38.390  21.532  13.802
17166W        W89591  19.256   0.059   0.468
17167W        W89592  42.152  42.796   5.017
17168W        W89593  11.191  29.107   2.189
17169W        W89594  21.662  40.153  14.779
17170W        W89595  27.927  39.277   3.314
17171W        W89596  36.473  22.807  13.380
17172W        W89597  22.281   6.090  11.070
17173W        W89598  20.086   8.722  11.605
17174W        W89599  25.057  22.147   1.936
17175W        W89600  14.787  35.572   1.476
17176W        W89601  10.759  26.083  12.958
17177W        W89602  42.532  39.974   5.040
17178W        W89603  19.623  10.751   0.239
17179W        W89604   6.732  41.096   2.019
17180W        W89605   3.729  22.132   2.419
17181W        W89606  20.247  44.225  11.022
17182W        W89607  39.904   4.174  12.220
17183W        W89608  26.073  39.284  14.927
17184W        W89609  22.731  10.110  10.451
17185W        W89610  31.943  23.525   0.880
17186W        W89611  18.252  43.011   3.157
17187W        W89612  24.873  15.864  14.912
17188W        W89613  14.933  43.580  11.529
17189W        W89614  26.539  30.002   3.927
17190W        W89615   6.213  16.263   4.699
17191W        W89616  44.273  17.273   3.253
17192W        W89617  31.907  24.286  13.014
17193W        W89618  42.297  42.772   4.285
17194W        W89619  19.789  39.679   3.125
17195W        W89620  44.381  23.511  11.601
17196W        W89621  21.785  10.652   5.432
17197W        W89622   5.146  13.234   1.345
17198W        W89623  38.379  38.308  11.140
17199W        W89624  30.588  25.888   3.729
17200W        W89625  31.484  15.892   1.434
17201W        W89626   5.506  39.989  12.076
17202W        W89627  12.571  22.659  11.961
17203W        W89628  13.093  12.834  12.667
17204W        W89629  13.250  17.290  10.356
17205W        W89630  13.818  41.571  14.854
17206W        W89631  19.874  13.906   2.735
17207W        W89632  14.237  17.084  10.704
17208W        W89633  18.545  19.773  13.697
17209W        W89634   5.862  11.633  12.782
17210W        W89635  43.998  24.726   0.626
17211W        W89636  42.952  21.413  13.544
17212W        W89637  30.165  23.219   2.176
17213W        W89638  29.081   9.790   3.333
17214W        W89639  37.913  13.670  14.203
17215W        W89640  24.550   5.337  13.016
17216W        W89641  21.184  16.113   0.423
17217W        W89642   8.341  12.671  13.510
17218W        W89643   9.137   5.840   9.776
17219W        W89644  31.223   4.795  10.294
17220W        W89645  20.130  19.099  10.771
17221W        W89646  40.581  25.077   0.474
17222W        W89647   7.809   4.750   1.384
17223W        W89648   7.156  26.018  14.862
17224W        W89649  37.501  42.764   0.976
17225W        W89650  22.033  28.290  11.060
17226W        W89651  41.853   1.324  12.997
17227W        W89652  42.844  16.777  12.571
17228W        W89653  14.239  10.674  11.461
17229W        W89654  38.095   0.584  13.122
17230W        W89655   8.848  43.939   3.376
17231W        W89656  26.714  44.143   1.784
17232W        W89657  15.799  31.877   0.459
17233W        W89658   1.542  40.935  11.082
17234W        W89659  25.231  25.461  10.605
17235W        W89660   2.792  22.178  14.373
17236W        W89661  14.542  20.808   2.542
17237W        W89662  24.496  26.039   1.946
17238W        W89663  13.543  17.762   0.447
17239W        W89664  22.127   8.859   3.620
17240W        W89665  11.650  17.167  12.384
17241W        W89666  29.308  15.046  12.433
17242W        W89667  37.919  16.298   1.557
17243W        W89668  35.424  24.200  12.137
17244W        W89669  22.610  22.297   3.260
17245W        W89670  28.325  18.786   3.369
17246W        W89671  27.975   3.015  11.344
17247W        W89672   4.386  26.467  12.204
17248W        W89673  20.834  40.047  13.266
17249W        W89674  30.655  10.815  10.831
17250W        W89675  41.721   4.210   0.822
17251W        W89676  34.944   1.498   2.269
17252W        W89677   4.232  27.208  12.473
17253W        W89678  27.880   5.120  12.574
17254W        W89679  24.517  10.858   0.289
17255W        W89680  27.880  41.872   4.084
17256W        W89681  43.814  32.864   1.279
17257W        W89682   3.389  21.373   3.283
17258W        W89683  24.002  31.196  14.564
17259W        W89684  34.667  44.290  12.949
17260W        W89685   4.210  25.861   2.590
17261W        W89686  21.816   7.395   4.169
17262W        W89687  30.412  33.478  13.042
17263W        W89688  33.913  33.599   2.783
17264W        W89689   7.889  24.683   0.749
17265W        W89690  37.545  43.247   1.861
17266W        W89691  22.463  19.118  12.683
17267W        W89692  28.447  12.088   1.372
17268W        W89693  37.045  41.980  13.436
17269W        W89694  14.419   4.367   4.767
17270W        W89695   1.676  26.000   3.428
17271W        W89696   7.230  20.127  13.416
17272W        W89697  44.020  22.592  10.760
17273W        W89698  43.010  34.127  11.526
17274W        W89699  13.795  34.648   1.497
17275W        W89700  43.006   2.380   4.558
17276W        W89701  44.185   9.011  11.887
17277W        W89702  38.446  36.585   4.100
17278W        W89703  44.394   5.796   0.300
17279W        W89704  36.466  20.544  11.079
17280W        W89705  37.092   9.689   2.559
17281W        W89706   8.188  26.444  13.091
17282W        W89707   3.387   6.296   4.329
17283W        W89708  24.072  41.699  14.903
17284W        W89709  42.355  33.539   4.577
17285W        W89710  33.534  12.965   1.771
17286W        W89711  16.842  43.953   2.764
17287W        W89712   3.468  31.775  14.323
17288W        W89713  28.331   8.263   1.769
17289W        W89714  44.524  28.148   4.106
17290W        W89715   9.603   8.058  10.683
17291W        W89716   4.685  33.384  10.363
17292W        W89717  22.271  25.616   3.717
17293W        W89718  24.003  28.142   4.427
17294W        W89719  29.121  15.154   0.337
17295W        W89720   7.739  11.105  12.058
17296W        W89721   2.184  16.228  13.347
17297W        W89722   9.869  10.576  11.006
17298W        W89723  23.851  42.177  14.952
17299W        W89724  38.303  35.908   1.418
17300W        W89725  18.371  37.352   2.681
17301W        W89726  16.196  38.443   1.729
17302W        W89727   4.156  33.171   2.253
17303W        W89728   1.834  26.112  14.828
17304W        W89729  14.879  34.542  13.790
17305W        W89730  41.041   1.259   0.333
17306W        W89731  33.469  37.912   4.360
17307W        W89732  17.884  22.116   0.181
17308W        W89733   9.870   5.440   3.724
17309W        W89734   5.308  44.170   2.259
17310W        W89735  33.492  11.372  13.577
17311W        W89736  17.236  24.769   4.053
17312W        W89737  23.152  15.142  11.164
17313W        W89738  32.043   5.860   2.067
17314W        W89739  36.447   6.699   2.401
17315W        W89740  12.375  42.420   4.099
17316W        W89741  33.028  28.408   0.326
17317W        W89742  29.172  37.887   0.167
17318W        W89743   5.189  43.473  14.344
17319W        W89744  24.208  37.349   2.176
17320W        W89745   2.759  43.079   0.544
17321W        W89746   1.332  13.401  13.254
17322W        W89747  37.681  42.364   2.002
17323W        W89748   6.623  10.812   0.310
17324W        W89749  11.828  35.973   2.514
17325W        W89750  42.811  33.548  10.731
17326W        W89751  21.727  39.158   4.695
17327W        W89752  35.106  25.016   4.149
17328W        W89753   1.657  34.307  11.505
17329W        W89754  41.043  38.018   3.131
17330W        W89755  34.603  19.480  14.666
17331W        W89756  37.649   1.007   3.204
17332W        W89757  16.336  15.796  11.191
17333W        W89758  39.036  34.363  14.426
17334W        W89759  13.602   0.001  12.988
17335W        W89760  25.634  17.698   2.445
17336W        W89761   1.787  42.076  14.942
17337W        W89762  24.439  32.608  11.469
17338W        W89763  35.682   1.714   0.387
17339W        W89764  23.342   3.749   4.152
17340W        W89765  22.762  28.431   0.583
17341W        W89766   5.746  19.673  12.920
17342W        W89767  12.764  36.763  11.434
17343W        W89768  37.193  17.775  10.900
17344W        W89769  26.649   8.352  13.461
17345W        W89770   9.416  10.853   2.404
17346W        W89771   7.488  32.871  11.427
17347W        W89772  40.914   3.501   0.338
17348W        W89773  38.760  20.012  14.403
17349W        W89774  29.020  24.955   1.735
17350W        W89775   3.267   4.178  14.144
17351W        W89776   8.879  14.220   5.050
17352W        W89777  17.156  27.218   3.295
17353W        W89778   7.667  38.055  11.541
17354W        W89779  25.500   8.925   3.879
17355W        W89780  28.086  17.300   2.312
17356W        W89781  31.322  16.449  11.059
17357W        W89782  16.508   6.512  13.855
17358W        W89783  27.662  14.693  13.553
17359W        W89784  42.864  32.199   4.110
17360W        W89785   9.993  38.953   2.464
17361W        W89786  28.429  28.459  11.031
17362W        W89787   7.322   2.920   2.366
17363W        W89788  35.697   6.626   1.938
17364W        W89789  12.329  17.440  13.142
17365W        W89790  23.100  29.540   2.912
17366W        W89791  17.112  37.905  13.570
17367W        W89792  10.766  19.544  10.307
17368W        W89793  12.846  33.421   3.518
17369W        W89794  41.539  24.644  14.904
17370W        W89795  38.611  10.552   1.202
17371W        W89796  23.251   2.491   4.038
17372W        W89797   5.320  41.032   4.154
17373W        W89798  26.408  20.259   2.381
17374W        W89799  25.773  11.775   1.604
17375W        W89800  38.900   4.838  11.552
17376W        W89801  10.272  27.013  10.636
17377W        W89802  38.579   3.746   3.596
17378W        W89803  43.380  32.417  12.494
17379W        W89804  26.033  29.998   3.189
17380W        W89805  34.889  33.961   1.884
17381W        W89806   2.933  39.500   1.610
17382W        W89807  13.801  44.792   1.889
17383W        W89808  21.219   3.167   3.155
17384W        W89809  32.628  35.833   0.898
17385W        W89810  12.363  30.868   4.397
17386W        W89811  19.141  35.774   3.778
17387W        W89812  21.295   0.059  12.061
17388W        W89813  24.514  26.233   0.889
17389W        W89814  37.647  40.481   4.498
17390W        W89815  15.458  34.123   2.134
17391W        W89816  36.468  40.568   1.380
17392W        W89817  27.245   3.316   2.599
17393W        W89818  14.848  37.410   1.192
17394W        W89819  17.763  25.671  12.049
17395W        W89820  11.462   9.416   2.345
17396W        W89821   5.327  33.321   2.874
17397W        W89822  30.541   9.828   4.202
17398W        W89823  29.130  30.916  10.483
17399W        W89824  11.807  12.657  13.976
17400W        W89825  42.922  31.099   4.549
17401W        W89826  34.270  11.741  11.567
17402W        W89827   4.823  18.733  14.996
17403W        W89828   3.562  29.335  13.848
17404W        W89829  20.017  37.609  12.050
17405W        W89830  22.729  30.988   3.370
17406W        W89831  18.487  34.314   2.368
17407W        W89832   9.132  15.353   4.085
17408W        W89833   2.186  12.603  13.817
17409W        W89834  42.203  41.120   0.447
17410W        W89835  20.379  35.068  13.465
17411W        W89836   4.272  19.987   2.879
17412W        W89837  19.109   6.806  10.696
17413W        W89838  12.295  41.520  10.567
17414W        W89839   6.190  31.963   3.254
17415W        W89840   2.762  37.954   0.459
17416W        W89841  32.128  11.713  12.594
17417W        W89842  43.569  23.615   2.274
17418W        W89843  21.947  38.866   2.836
17419W        W89844   0.342  19.189   2.442
17420W        W89845  11.758   0.491  14.251
17421W        W89846   8.968   1.566   4.273
17422W        W89847   9.145   2.268  11.667
17423W        W89848  26.920   5.438  14.957
17424W        W89849  21.612  15.526   2.446
17425W        W89850  14.103  15.014   2.757
17426W        W89851  16.752  13.779  13.991
17427W        W89852   2.396  25.957  10.496
17428W        W89853   5.344  12.862  10.983
17429W        W89854  20.173   4.150  12.533
17430W        W89855  41.543  18.685  12.075
17431W        W89856   8.198   4.329   0.877
17432W        W89857   8.343  36.698   1.913
17433W        W89858  35.146   2.422  13.036
17434W        W89859   9.061  23.001  10.805
17435W        W89860  40.084   0.277   0.874
17436W        W89861  33.462   3.660  12.491
17437W        W89862  25.955  15.100   3.262
17438W        W89863  11.946  41.868  10.787
17439W        W89864  21.172  40.968   4.363
17440W        W89865  41.054  38.534   1.363
17441W        W89866  19.213  11.036   0.663
17442W        W89867  14.577   3.139   0.858
17443W        W89868  19.312  18.292   2.752
17444W        W89869  44.904  10.081   1.288
17445W        W89870  15.567  10.343  13.739
17446W        W89871  32.322  38.397  14.508
17447W        W89872   4.213  17.378  10.663
17448W        W89873   5.173  18.330  14.184
17449W        W89874   6.689  27.722  14.434
17450W        W89875  25.267   1.005   0.673
17451W        W89876  29.379   4.215   1.934
17452W        W89877  40.320  11.221   1.417
17453W        W89878  24.198  31.070  13.041
17454W        W89879  18.308  28.946   0.911
17455W        W89880  44.925  15.990   1.702
17456W        W89881   6.984  32.294  14.417
17457W        W89882  18.691  21.757   3.100
17458W        W89883   1.915  12.207  10.775
17459W        W89884  37.867  37.073  14.061
17460W        W89885  27.654  19.697   4.933
17461W        W89886  28.573  19.133   1.752
17462W        W89887  29.083  29.424  12.031
17463W        W89888  28.401   6.653   3.727
17464W        W89889   6.176  14.068   1.614
17465W        W89890  36.976  43.272  11.520
17466W        W89891  18.705  14.813  10.535
17467W        W89892   6.969  40.359   2.589
17468W        W89893  27.560   9.520  13.147
17469W        W89894  30.201  19.838  11.067
17470W        W89895  13.107  11.712  10.902
17471W        W89896  30.612  43.370   3.517
17472W        W89897  33.626  43.448  13.846
17473W        W89898  18.998  25.373   0.117
17474W        W89899  30.669  25.985   1.879
17475W        W89900  22.939  11.297  12.584
17476W        W89901  31.810  17.641  11.964
17477W        W89902  23.688  15.212  11.114
17478W        W89903  30.181  19.539   3.417
17479W        W89904   0.379   6.922   4.122
17480W        W89905  23.111  27.884   4.690
17481W        W89906  38.998  36.981  14.697
17482W        W89907  29.628  35.029  13.367
17483W        W89908   7.679  29.213  13.555
17484W        W89909  10.727   5.015  12.857
17485W        W89910   4.897   9.231  13.408
17486W        W89911  31.631  23.088   3.357
17487W        W89912   3.836   7.845   0.477
17488W        W89913  37.244   4.941  14.350
17489W        W89914  36.115   6.397   3.652
17490W        W89915   6.742   2.267  10.733
17491W        W89916  33.638  22.874  13.812
17492W        W89917  38.874  19.828  10.682
17493W        W89918  11.131  35.131  12.883
17494W        W89919  39.460   4.864   1.817
17495W        W89920  28.622  20.453  14.772
17496W        W89921  39.921   6.159   4.559
17497W        W89922   3.674  33.026  13.424
17498W        W89923  34.867  12.163   0.301
17499W        W89924  19.236   3.365  10.964
17500W        W89925  17.773  26.560  11.641
17501W        W89926  31.013  29.450   4.577
17502W        W89927  27.694  41.414   0.370
17503W        W89928  14.095  24.095  12.672
17504W        W89929  11.867   4.879   1.137
17505W        W89930   6.835  22.221   4.920
17506W        W89931  23.529  25.535   3.161
17507W        W89932   1.187  43.788  10.801
17508W        W89933   6.294  35.138  12.666
17509W        W89934  43.676  14.249   2.541
17510W        W89935  13.595  22.989  11.283
17511W        W89936  42.559  37.083  14.688
17512W        W89937  23.966  20.214  11.624
17513W        W89938   6.638   3.000  11.060
17514W        W89939  10.382  38.541  13.470
17515W        W89940  35.930  25.304  10.532
17516W        W89941  14.427  39.738  13.954
17517W        W89942  34.425   8.754  14.073
17518W        W89943  44.714  39.545  11.065
17519W        W89944  29.465  38.437   3.657
17520W        W89945   0.101   1.294   1.777
17521W        W89946  43.436  28.852   3.732
17522W        W89947  34.963  43.825  13.018
17523W        W89948  17.724   1.247   1.822
17524W        W89949  39.116   1.170   2.283
17525W        W89950  21.101   1.845  10.697
17526W        W89951  24.203  16.219  10.960
17527W        W89952   8.919  44.929  11.232
17528W        W89953   4.065  36.899   4.169
17529W        W89954   5.267  18.961   3.659
17530W        W89955  13.883  11.936   0.910
17531W        W89956  22.711  14.730  11.929
17532W        W89957   8.921   0.832  12.271
17533W        W89958  12.254  10.901  12.629
17534W        W89959   0.011  30.995   2.841
17535W        W89960  10.087  23.473  12.045
17536W        W89961  31.431  28.417   1.266
17537W        W89962  40.458   3.301  11.162
17538W        W89963  35.294  33.877  12.791
17539W        W89964   1.475  23.802   2.803
17540W        W89965  30.426  24.550  13.007
17541W        W89966  28.564   8.901   3.418
17542W        W89967  19.381  22.216   2.593
17543W        W89968   5.188  14.094  11.710
17544W        W89969  34.849  24.464  10.387
17545W        W89970  13.559   8.198  12.042
17546W        W89971   1.913  14.312   2.313
17547W        W89972  43.829  43.965  12.516
17548W        W89973  19.552  42.921   4.062
17549W        W89974  25.977  34.243   1.431
17550W        W89975  42.467  23.007   3.772
17551W        W89976  25.274  14.132  10.901
17552W        W89977   0.938  44.428   1.428
17553W        W89978   5.520  19.341   2.712
17554W        W89979  39.307  38.793  12.559
17555W        W89980  27.917  38.862  14.074
17556W        W89981  29.970  15.099  12.967
17557W        W89982  26.061  32.125   4.963
17558W        W89983   8.151  30.868  12.055
17559W        W89984  23.479  42.886   3.172
17560W        W89985  21.643  41.550  10.781
17561W        W89986  33.263  31.036   0.208
17562W        W89987  22.152  30.071   4.397
17563W        W89988  37.316   2.339   3.107
17564W        W89989  44.950   8.012   1.273
17565W        W89990  14.324  32.899   0.928
17566W        W89991   6.771  40.933   0.562
17567W        W89992  20.938  19.741   3.317
17568W        W89993  23.390  18.360  14.866
17569W        W89994  20.330   3.310   1.692
17570W        W89995  18.694   4.797  11.626
17571W        W89996  30.880  20.103   1.268
17572W        W89997  36.995   5.515   0.808
17573W        W89998  34.084  37.794   1.839
17574W        W89999   6.804  10.345  10.990
17575W        W90000  37.038  41.059  11.065
17576W        W90001  21.560  30.954  12.412
17577W        W90002  21.352  23.141   1.462
17578W        W90003  28.148  33.000  13.807
17579W        W90004   0.503  44.525  11.540
17580W        W90005  44.679  23.129  12.442
17581W        W90006  19.697  42.094  13.141
17582W        W90007  17.330   1.277  13.979
17583W        W90008  41.832  35.838   1.770
17584W        W90009  19.588  42.765  14.499
17585W        W90010   4.867  41.317   5.282
17586W        W90011  18.943  37.372  13.009
17587W        W90012   8.006  34.790   4.116
17588W        W90013  36.448  11.267   0.384
17589W        W90014  11.688  42.574  14.402
17590W        W90015   5.921  23.077  11.325
17591W        W90016  14.700  39.786  11.254
17592W        W90017   1.224  31.240   2.432
17593W        W90018  34.385  28.237   4.098
17594W        W90019  16.176  14.382  12.076
17595W        W90020  19.785  30.544  14.580
17596W        W90021  34.517  44.590   3.670
17597W        W90022  25.379   9.805   0.735
17598W        W90023  24.179  10.761   2.752
17599W        W90024   3.809  38.739   4.327
17600W        W90025   6.133  25.142  14.535
17601W        W90026  23.448   5.109  10.637
17602W        W90027  29.598  18.336   1.832
17603W        W90028  20.657   6.848  11.154
17604W        W90029  40.042  16.179   4.637
17605W        W90030  34.557  43.458  14.238
17606W        W90031  38.981  21.133   1.275
17607W        W90032  29.655  18.112  10.558
17608W        W90033  20.707  15.611   3.423
17609W        W90034  28.335  22.019  11.428
17610W        W90035  41.705   7.049   0.886
17611W        W90036  11.553  21.189   1.287
17612W        W90037   9.878   5.906   3.528
17613W        W90038   6.848   6.166   4.342
17614W        W90039  15.226  17.155  13.330
17615W        W90040  23.506  28.684   0.973
17616W        W90041   6.255  39.240   0.016
17617W        W90042  32.819  21.995   2.298
17618W        W90043   0.751   0.766  11.176
17619W        W90044  11.336  21.148   2.605
17620W        W90045  34.607  18.683   2.801
17621W        W90046  16.894  24.100  14.335
17622W        W90047   2.351   1.398  10.580
17623W        W90048  29.219  13.196  14.755
17624W        W90049  34.031  32.462  10.946
17625W        W90050   0.660  43.793   3.225
17626W        W90051  42.234  41.638   0.495
17627W        W90052   4.328  14.346   0.201
17628W        W90053  33.773   1.960  10.317
17629W        W90054  25.059   4.769  12.615
17630W        W90055   1.924  25.058  11.878
17631W        W90056  22.648  42.847  14.393
17632W        W90057  35.965  15.837  10.689
17633W        W90058  10.462  44.301  13.994
17634W        W90059  28.453  33.926  11.647
17635W        W90060  12.328  11.241   0.259
17636W        W90061  19.321  21.735  10.714
17637W        W90062  26.175  42.810   2.890
17638W        W90063  38.507   1.489  12.052
17639W        W90064  34.591  39.361  13.100
17640W        W90065  32.139  25.659  10.730
17641W        W90066  26.567  37.634  14.759
17642W        W90067  37.613  37.113   4.951
17643W        W90068  25.704   0.944   4.161
17644W        W90069   0.855  31.700  11.575
17645W        W90070   3.493   5.845   4.106
17646W        W90071  12.165  21.293  13.565
17647W        W90072  18.290   8.339   0.473
17648W        W90073  10.256   8.273  11.034
17649W        W90074  35.543  30.569  12.373
17650W        W90075  21.771  12.712  13.583
17651W        W90076  24.700  34.379   0.958
17652W        W90077  19.711  15.069   2.199
17653W        W90078   6.317  40.743   3.723
17654W        W90079  13.664  38.528  13.443
17655W        W90080  24.646  35.395   0.766
17656W        W90081   7.309   9.041  13.280
17657W        W90082  16.364  38.629  14.012
17658W        W90083  11.124   2.915  12.519
17659W        W90084   3.690  26.757  11.659
17660W        W90085   3.238  19.339   1.930
17661W        W90086  13.074   5.007  11.457
17662W        W90087  13.696   0.547   0.699
17663W        W90088   1.811  12.655  12.268
17664W        W90089  13.139  27.239  13.281
17665W        W90090  37.451  42.563   3.312
17666W        W90091   7.688   4.227   4.205
17667W        W90092   6.082  12.910  11.573
17668W        W90093  31.622  42.238  12.738
17669W        W90094  13.373   1.707  14.411
17670W        W90095   6.911  37.959  13.248
17671W        W90096   7.594   6.117  10.352
17672W        W90097   8.457  33.397  12.730
17673W        W90098  10.264   7.794  13.076
17674W        W90099  13.106  38.029   2.876
17675W        W90100  12.658  39.904   0.748
17676W        W90101  25.793  18.311  11.944
17677W        W90102  43.214  25.489  11.949
17678W        W90103  23.942  29.436   3.672
17679W        W90104  10.411  36.977   0.226
17680W        W90105  12.834  33.127  11.690
17681W        W90106  14.849  25.532  14.972
17682W        W90107   3.408   4.252   4.670
17683W        W90108  32.954  36.985  11.720
17684W        W90109  12.855   1.643   2.727
17685W        W90110  22.216  25.403  14.818
17686W        W90111  18.634  12.412  14.442
17687W        W90112  35.424   0.868  12.617
17688W        W90113  20.200  19.152   0.780
17689W        W90114  12.272  26.575   4.574
17690W        W90115  24.542  23.300   4.032
17691W        W90116   4.148  25.313  13.497
17692W        W90117  22.395  29.196  14.723
17693W        W90118  33.763  18.066   3.649
17694W        W90119   3.659   1.247   1.492
17695W        W90120   3.300  34.179   2.337
17696W        W90121  37.395  37.073   0.370
17697W        W90122   6.617   3.234  11.999
17698W        W90123  34.845  25.260   3.782
17699W        W90124   6.258   8.497  11.621
17700W        W90125   5.853  11.242  10.788
17701W        W90126  34.155  31.973   4.009
17702W        W90127  21.589   6.868  10.681
17703W        W90128  28.247  44.646  11.297
17704W        W90129   3.663  36.549   0.412
17705W        W90130  14.169  20.001   2.730
17706W        W90131  34.139  18.060  13.784
17707W        W90132   7.636  23.519   1.503
17708W        W90133  20.486  11.861  14.346
17709W        W90134  33.412  10.870  13.740
17710W        W90135  13.321  25.025   3.784
17711W        W90136  35.552  13.263  12.059
17712W        W90137   8.239  21.743   1.276
17713W        W90138   2.629  19.898  11.967
17714W        W90139  43.968   8.884  11.438
17715W        W90140   3.608  20.691  14.818
17716W        W90141  17.041  30.667  14.262
17717W        W90142  30.683  23.224   3.078
17718W        W90143   7.690  29.689  12.113
17719W        W90144  44.662  26.263   2.363
17720W        W90145  11.366   4.007   3.247
17721W        W90146  33.594  19.145   1.737
17722W        W90147   9.522  19.093   2.417
17723W        W90148  24.193   7.228  14.348
17724W        W90149  15.634  36.564  11.597
17725W        W90150  12.334   4.271   3.220
17726W        W90151  19.539   4.865  14.333
17727W        W90152  17.583  12.668  13.491
17728W        W90153   4.291  27.804  11.164
17729W        W90154  42.175  17.330  11.591
17730W        W90155  13.881  23.708  14.085
17731W        W90156   6.874  26.482   3.303
17732W        W90157  15.573  44.304   5.203
17733W        W90158  41.408  29.812   1.591
17734W        W90159   7.269  34.980  11.978
17735W        W90160   4.569  29.514   3.215
17736W        W90161  38.834  22.378  10.694
17737W        W90162   4.334  37.404   0.002
17738W        W90163  17.637  29.897  13.497
17739W        W90164  26.244   8.377   0.373
17740W        W90165  24.050   0.375   3.240
17741W        W90166  32.477  30.725   0.389
17742W        W90167  34.927  21.517  12.675
17743W        W90168   9.588  14.852  10.579
17744W        W90169  29.577  18.927   2.787
17745W        W90170  42.867   2.848  13.848
17746W        W90171  35.106  20.938   0.996
17747W        W90172   9.718   9.240  13.801
17748W        W90173  26.410  30.983  13.106
17749W        W90174  38.665  25.550   2.139
17750W        W90175  34.509  10.455   1.804
17751W        W90176  21.637   9.691   5.443
17752W        W90177  13.197  39.891  13.380
17753W        W90178   3.214  21.616   4.534
17754W        W90179  36.875   2.007  12.117
17755W        W90180  30.187  40.455  12.977
17756W        W90181   3.408  30.476   4.764
17757W        W90182  28.060  22.194  14.871
17758W        W90183   2.691  12.464   3.648
17759W        W90184  18.219   9.350  13.342
17760W        W90185  40.270  36.473   2.772
17761W        W90186  18.320   7.863  12.026
17762W        W90187  39.050  37.479   9.997
17763W        W90188   4.337  21.627  11.828
17764W        W90189   8.643   3.070   2.720
17765W        W90190  22.510   3.750  13.902
17766W        W90191  43.871   0.850   2.846
17767W        W90192  35.339  37.342  12.466
17768W        W90193   0.445   0.571   0.699
17769W        W90194  30.175  31.113  12.348
17770W        W90195  21.714   6.825  14.350
17771W        W90196   0.672  23.755   1.728
17772W        W90197  28.578  34.505  12.925
17773W        W90198  34.871  20.441   3.189
17774W        W90199  29.535  30.951   4.090
17775W        W90200  10.918  10.878   1.841
17776W        W90201  15.787  30.467   4.273
17777W        W90202   3.737  35.691   0.205
17778W        W90203  14.548  37.512  12.506
17779W        W90204  38.074  18.874  12.670
17780W        W90205  44.234  29.197  13.364
17781W        W90206  19.192  10.182  13.407
17782W        W90207  11.934   3.688  12.627
17783W        W90208  41.425  18.295  14.443
17784W        W90209  41.981  38.642   0.705
17785W        W90210  13.834  32.003   3.304
17786W        W90211  22.138  37.156  12.815
17787W        W90212  17.363   3.742  12.971
17788W        W90213  22.630  24.689   0.918
17789W        W90214  18.232  30.761  12.559
17790W        W90215   0.925  22.141  11.459
17791W        W90216  34.434  37.130  13.282
17792W        W90217  22.732  21.277  13.426
17793W        W90218  32.422   9.167  10.982
17794W        W90219  18.065  40.661  11.278
17795W        W90220  33.589  14.577   2.689
17796W        W90221   9.889  37.995   2.635
17797W        W90222   0.764  22.839   2.263
17798W        W90223  15.374  26.957   0.157
17799W        W90224   3.269  27.623  12.417
17800W        W90225   8.230  25.092   1.480
17801W        W90226  11.486  36.326  13.978
17802W        W90227  42.282  21.823  12.146
17803W        W90228   2.760  13.399   0.743
17804W        W90229   0.921  10.255   1.179
17805W        W90230   3.813   1.415   1.005
17806W        W90231  38.492  36.033   1.886
17807W        W90232  27.264  22.204   2.617
17808W        W90233  27.954  41.519   3.187
17809W        W90234  23.729  33.478   2.866
17810W        W90235  26.541   3.703  10.725
17811W        W90236  29.168  20.375  10.644
17812W        W90237   9.898  31.904   0.417
17813W        W90238  22.721   0.943   2.464
17814W        W90239  15.039  29.950  13.459
17815W        W90240  40.039  39.802  10.701
17816W        W90241   6.760  15.753   1.737
17817W        W90242   2.912   2.738   2.761
17818W        W90243  11.656  14.641   1.724
17819W        W90244  29.289  34.353   1.797
17820W        W90245  32.597  35.415  14.485
17821W        W90246  38.335  43.846  10.680
17822W        W90247  44.161  11.690   4.607
17823W        W90248  41.677   9.059  12.425
17824W        W90249  30.155  10.029   2.130
17825W        W90250  16.656  10.282   4.109
17826W        W90251   5.854  35.296  11.589
17827W        W90252  25.756  43.768  11.421
17828W        W90253   1.337   9.466  12.175
17829W        W90254  40.548  34.421  12.594
17830W        W90255  29.714  10.705  12.465
17831W        W90256   6.688  43.529  14.968
17832W        W90257  15.624  25.630   2.151
17833W        W90258  31.969  40.379   1.478
17834W        W90259  11.597  32.475  13.981
17835W        W90260   8.240  31.967  13.054
17836W        W90261  35.261  44.640  14.140
17837W        W90262  40.800  35.398   2.863
17838W        W90263   2.967  36.946  10.754
17839W        W90264  26.012  27.961  13.426
17840W        W90265  24.586  13.103   3.431
17841W        W90266  17.041  17.155  13.587
17842W        W90267  12.432   6.717   3.193
17843W        W90268   7.552  32.188  14.948
17844W        W90269  15.339   0.745   2.361
17845W        W90270  36.880   9.472   4.046
17846W        W90271   2.345  32.546  14.402
17847W        W90272  10.824   9.354  10.564
17848W        W90273   9.445  42.268  11.752
17849W        W90274  35.677  32.119   2.863
17850W        W90275  37.490   0.054   3.128
17851W        W90276   8.883  18.594   4.391
17852W        W90277  24.000  42.920   1.338
17853W        W90278  36.837  40.262   0.532
17854W        W90279   7.661  41.440  14.255
17855W        W90280  21.451  16.516  11.966
17856W        W90281  31.628  15.157   4.485
17857W        W90282  41.763  30.433  11.556
17858W        W90283   2.454  43.363  11.582
17859W        W90284  22.043  12.506   3.643
17860W        W90285  22.141  10.403   0.726
17861W        W90286  36.443  28.197   1.759
17862W        W90287   0.284  33.511   3.335
17863W        W90288  17.279  18.133   4.320
17864W        W90289  17.755   2.800   1.699
17865W        W90290  10.220  22.014  14.042
17866W        W90291   6.761  16.314  13.917
17867W        W90292  13.546  41.034   3.937
17868W        W90293  22.743  18.272   0.314
17869W        W90294  23.127  26.589   3.934
17870W        W90295  37.871  44.918  10.986
17871W        W90296  35.015  12.360   4.038
17872W        W90297  42.968  14.142   1.837
17873W        W90298  42.332   1.808   4.549
17874W        W90299  23.010  27.383   4.922
17875W        W90300   4.442  29.056   0.545
17876W        W90301   6.453  35.153  11.170
17877W        W90302   1.016  24.021   0.803
17878W        W90303  35.936  32.627  12.445
17879W        W90304  32.445  42.463  10.689
17880W        W90305   9.716  23.296   1.456
17881W        W90306   1.349  29.904   3.130
17882W        W90307   4.437  32.006  12.553
17883W        W90308   3.012  28.182  14.849
17884W        W90309  27.970  13.078   0.173
17885W        W90310  28.792   0.810   3.042
17886W        W90311  24.954  44.495   2.802
17887W        W90312  18.346  12.333  11.358
17888W        W90313  27.243  32.748  12.890
17889W        W90314  10.251   9.767  13.072
17890W        W90315   8.119  12.435  11.482
17891W        W90316  11.291  35.408  10.548
17892W        W90317  38.107  22.807   5.082
17893W        W90318  23.599  18.325  10.799
17894W        W90319  25.339  17.574  10.544
17895W        W90320  44.755   6.521   0.414
17896W        W90321  33.537  24.263  13.376
17897W        W90322  40.300  35.414   3.565
17898W        W90323  26.141   2.316  13.766
17899W        W90324  40.051  32.902  10.673
17900W        W90325  19.289  41.500  12.576
17901W        W90326  38.039  39.227   0.931
17902W        W90327  41.933  44.908   3.246
17903W        W90328  24.146  11.133  13.096
17904W        W90329  38.228  32.126   4.556
17905W        W90330  30.161  38.871   4.040
17906W        W90331  14.777   6.196   2.882
17907W        W90332  25.188  26.514  11.745
17908W        W90333  26.626  18.896   5.073
17909W        W90334  43.498  11.346   3.439
17910W        W90335  39.576   0.523   4.642
17911W        W90336  41.724   7.828   2.168
17912W        W90337  23.620  32.428   2.680
17913W        W90338  17.742  14.115   4.637
17914W        W90339  25.725  21.771  11.506
17915W        W90340  22.246   7.914  10.641
17916W        W90341  22.658  25.166   1.780
17917W        W90342  30.192  14.816  13.884
17918W        W90343   2.966   2.016  14.520
17919W        W90344  22.573  10.578  14.400
17920W        W90345  17.674   1.972  13.216
17921W        W90346  27.328  31.105  13.040
17922W        W90347  22.041  29.952  13.363
17923W        W90348   1.285  35.378  14.872
17924W        W90349  17.848  41.664  11.066
17925W        W90350   8.126  32.673   1.386
17926W        W90351   2.794  26.852  12.538
17927W        W90352  38.893   4.929   1.292
17928W        W90353   0.828  27.460   0.464
17929W        W90354   7.393  20.886   2.006
17930W        W90355  16.805  27.154  13.850
17931W        W90356  24.678  40.898   2.424
17932W        W90357  15.655  10.274   0.311
17933W        W90358  36.044  14.794   3.780
17934W        W90359  18.923   1.420  11.533
17935W        W90360  13.277  38.514   5.178
17936W        W90361   0.820  38.548  13.579
17937W        W90362  42.018   8.713  14.294
17938W        W90363  39.971  26.529  12.446
17939W        W90364  24.848  43.047   0.087
17940W        W90365   5.818  28.045   4.877
17941W        W90366  38.984  18.465  14.589
17942W        W90367  39.322  23.650  11.554
17943W        W90368   3.468   4.273  11.525
17944W        W90369   0.269   1.874  10.928
17945W        W90370  43.035   3.252  12.818
17946W        W90371  15.550  26.484   0.081
17947W        W90372   4.667  38.047  13.857
17948W        W90373  32.388   1.184  11.106
17949W        W90374  40.652  16.580   4.125
17950W        W90375  26.301  41.080  11.333
17951W        W90376  23.765  14.236   4.258
17952W        W90377  15.126  35.839  11.924
17953W        W90378   4.479  12.881  10.402
17954W        W90379  39.755  25.522   3.712
17955W        W90380   5.954  14.089   4.166
17956W        W90381   5.433  26.936  12.083
17957W        W90382  19.481  23.626   3.742
17958W        W90383  33.057  35.415   2.688
17959W        W90384  25.545  10.456   4.739
17960W        W90385  16.292  43.121  13.011
17961W        W90386   6.254  41.549  12.841
17962W        W90387  21.449   1.515  14.839
17963W        W90388  19.697  25.547  12.808
17964W        W90389  12.604  13.130  14.283
17965W        W90390  25.118  32.450  12.995
17966W        W90391  21.639   8.767   4.926
17967W        W90392  42.908   4.625  13.536
17968W        W90393  20.145  13.629   0.895
17969W        W90394  23.303  35.996   1.851
17970W        W90395  11.697  10.713   2.886
17971W        W90396  27.435  11.537   3.309
17972W        W90397  32.156   5.112   4.604
17973W        W90398   5.911  41.134   4.813
17974W        W90399  19.712  12.271  12.028
17975W        W90400  34.574  22.047  13.438
17976W        W90401  23.605  22.714   3.794
17977W        W90402  44.350   9.282  14.421
17978W        W90403  34.807  21.180  14.459
17979W        W90404  20.338  19.971   3.993
17980W        W90405  21.178  13.053   3.740
17981W        W90406   1.580  30.019   1.349
17982W        W90407  26.199  18.838   2.700
17983W        W90408  41.088  31.864   0.850
17984W        W90409   4.734   5.232  12.550
17985W        W90410  17.083   2.344  11.005
17986W        W90411  34.138  35.905  13.594
17987W        W90412  19.234  15.963   2.833
17988W        W90413  32.142  43.965  11.538
17989W        W90414  21.269  23.060  14.397
17990W        W90415   1.315   3.170  12.400
17991W        W90416  28.894   6.175   1.289
17992W        W90417  10.692  18.665   3.724
17993W        W90418   1.309  11.859  13.337
17994W        W90419  30.140  21.263   3.156
17995W        W90420  31.903   6.052  13.060
17996W        W90421  24.741  37.468   1.204
17997W        W90422  10.216  43.532   3.750
17998W        W90423   6.262  10.362   2.320
17999W        W90424  34.556  12.564   4.169
18000W        W90425  33.265  13.590   2.206
18001W        W90426  24.968  35.475   2.160
18002W        W90427  22.255  28.433   1.737
18003W        W90428  27.732  25.779   2.630
18004W        W90429   0.669  17.712  12.388
18005W        W90430  34.142   7.287  13.778
18006W        W90431  26.131  31.390  12.899
18007W        W90432  21.814  29.021   0.893
18008W        W90433  13.996  22.684   4.122
18009W        W90434  32.918  13.849  13.393
18010W        W90435  43.281  21.263  10.967
18011W        W90436  17.989   9.288  12.026
18012W        W90437   8.800  34.479   2.178
18013W        W90438  27.588  44.846  14.799
18014W        W90439  23.144  21.577   1.398
18015W        W90440  34.860  14.717  11.228
18016W        W90441  30.891   4.445  10.482
18017W        W90442  32.550  10.231  10.512
18018W        W90443  22.105  37.914   2.414
18019W        W90444  19.495  35.827   2.834
18020W        W90445  32.393  32.024  11.046
18021W        W90446   9.362  36.350   3.742
18022W        W90447   5.318  22.200   0.829
18023W        W90448   8.006  24.730   1.781
18024W        W90449  38.851   7.757   2.733
18025W        W90450   2.848  29.527   4.706
18026W        W90451  32.596  23.895  12.613
18027W        W90452   6.411  21.240  12.182
18028W        W90453  39.545   1.760  13.903
18029W        W90454  16.297  40.032   4.205
18030W        W90455  41.824  12.810  14.842
18031W        W90456  32.786  35.855  14.742
18032W        W90457  44.674  31.447   1.226
18033W        W90458   8.605  17.208   4.545
18034W        W90459  32.993  37.935  12.272
18035W        W90460  15.069  26.929  11.120
18036W        W90461  17.874  31.518  10.587
18037W        W90462   3.932   7.125  10.722
18038W        W90463  24.309  33.422  11.519
18039W        W90464  36.361   0.548   0.876
18040W        W90465  37.627  44.042   4.981
18041W        W90466  24.065   5.938   1.366
18042W        W90467  32.927  15.632   4.833
18043W        W90468  18.654   5.519  11.067
18044W        W90469  27.878  24.211   2.919
18045W        W90470  41.142  22.041  12.141
18046W        W90471  40.662  25.598   3.692
18047W        W90472  33.133   4.436   3.762
18048W        W90473  37.921  40.492  13.812
18049W        W90474  37.054  32.189  12.322
18050W        W90475  39.146   2.703   1.191
18051W        W90476  17.704  13.755   0.404
18052W        W90477  21.962  33.867  14.884
18053W        W90478  24.715   2.851   1.377
18054W        W90479  39.425  33.336   2.190
18055W        W90480   9.081   4.155  13.265
18056W        W90481   2.644   3.722   3.136
18057W        W90482  25.210  28.135   1.200
18058W        W90483  11.194  20.487   1.613
18059W        W90484  29.427  20.771   3.877
18060W        W90485  24.521   6.312   0.231
18061W        W90486  34.015   8.274   2.260
18062W        W90487  44.022  31.214  14.345
18063W        W90488   0.748  30.896   0.581
18064W        W90489   8.150  34.866  14.258
18065W        W90490  17.559  19.987   3.714
18066W        W90491   4.984  39.296  12.020
18067W        W90492  23.428  29.471  11.730
18068W        W90493  27.369  26.693  11.398
18069W        W90494   9.181  28.496  13.061
18070W        W90495  10.696  10.020   4.239
18071W        W90496  14.261  34.085  14.301
18072W        W90497   0.829   9.175  11.686
18073W        W90498  18.549  13.812   3.179
18074W        W90499   7.954   7.340   4.070
18075W        W90500  20.270   9.976   4.970
18076W        W90501   3.798  43.701   1.192
18077W        W90502  43.680   4.324  10.898
18078W        W90503  32.588   1.430   2.307
18079W        W90504   5.197  38.015   0.278
18080W        W90505   5.958   8.218   3.984
18081W        W90506   2.374  38.131  14.263
18082W        W90507  44.398  30.416  10.719
18083W        W90508  43.205   9.652  14.038
18084W        W90509   6.355  21.056   2.705
18085W        W90510  12.572  27.231  10.811
18086W        W90511  27.983   9.081  11.352
18087W        W90512  32.932  12.346   2.907
18088W        W90513  12.192   2.668   2.256
18089W        W90514  34.467   2.253   2.463
18090W        W90515   1.238  31.573  14.406
18091W        W90516  23.939  33.611  13.095
18092W        W90517  36.651   4.904   1.272
18093W        W90518   5.246  14.790  10.743
18094W        W90519  34.831  20.115  11.667
18095W        W90520   4.644  44.278   1.539
18096W        W90521   2.419  35.894   3.368
18097W        W90522   5.423  28.412   4.900
18098W        W90523   3.391  34.633  13.379
18099W        W90524   5.298  35.558  13.310
18100W        W90525   3.044  41.397  11.222
18101W        W90526  19.231  14.441   2.947
18102W        W90527  38.923   3.232  10.657
18103W        W90528  34.999  19.668  14.969
18104W        W90529   7.109  24.050   0.703
18105W        W90530   6.389   8.405  11.106
18106W        W90531  13.661  36.091   2.902
18107W        W90532  27.235  37.605  13.065
18108W        W90533  35.883  13.683   4.540
18109W        W90534  30.010  35.477  12.931
18110W        W90535  10.204   8.149   5.417
18111W        W90536  33.836   0.904   4.124
18112W        W90537  29.599   8.818  10.718
18113W        W90538   2.380   4.858  11.278
18114W        W90539   9.329  19.804  14.376
18115W        W90540   8.782  29.402   1.215
18116W        W90541  10.368  37.469  12.012
18117W        W90542  24.468   9.429   4.959
18118W        W90543  33.563  30.665  10.022
18119W        W90544   5.414  21.756   3.842
18120W        W90545   0.241  26.141   0.912
18121W        W90546  36.039  23.533  11.045
18122W        W90547  30.371  25.607  11.914
18123W        W90548   0.281  29.636   0.512
18124W        W90549  37.788   7.453  14.190
18125W        W90550  32.831  33.620   4.092
18126W        W90551  21.686  19.020  13.356
18127W        W90552  22.785  37.720  14.649
18128W        W90553   2.840  29.534   1.799
18129W        W90554  15.081   4.939  12.896
18130W        W90555   7.823  32.443   3.795
18131W        W90556  15.771  33.909  12.622
18132W        W90557  38.409  32.029   2.783
18133W        W90558  21.535  11.795   4.431
18134W        W90559  27.604  25.470   3.486
18135W        W90560   1.508  33.854   1.440
18136W        W90561   7.830  21.354  11.016
18137W        W90562  30.913  22.801   1.270
18138W        W90563  43.018  27.114  12.062
18139W        W90564  39.367  31.899   3.523
18140W        W90565  31.357  32.162   2.201
18141W        W90566   5.276  35.546  10.747
18142W        W90567   3.698  21.274   4.268
18143W        W90568  16.828  35.654  10.684
18144W        W90569  23.197  43.041   0.825
18145W        W90570  37.100  32.977   0.824
18146W        W90571  12.125  26.527  14.035
18147W        W90572  10.184  26.492  13.946
18148W        W90573  36.056  44.547   2.796
18149W        W90574  42.999  33.992   0.347
18150W        W90575  17.264  30.423  14.663
18151W        W90576  33.073  34.039   2.703
18152W        W90577   2.182  34.941  11.190
18153W        W90578  25.711  10.893   0.865
18154W        W90579   5.918  41.959   0.484
18155W        W90580   9.222  20.318  11.523
18156W        W90581  36.496  16.640  10.685
18157W        W90582  25.975  12.764   2.265
18158W        W90583  44.235  29.282  10.219
18159W        W90584  28.555  40.631   2.295
18160W        W90585  36.474   1.899  14.810
18161W        W90586  23.201  20.212  12.950
18162W        W90587  35.211  26.450   4.089
18163W        W90588  19.247  28.408   2.592
18164W        W90589  14.741  13.262  12.550
18165W        W90590   0.493  10.487   3.993
18166W        W90591   4.455  10.751  13.376
18167W        W90592   6.062  33.657   0.314
18168W        W90593  14.717  36.648  14.862
18169W        W90594  29.657  28.754  13.822
18170W        W90595  30.963   9.629  14.477
18171W        W90596  35.330   7.149   3.834
18172W        W90597  41.141  33.659   2.988
18173W        W90598  18.719  35.948   1.114
18174W        W90599  43.899   1.306   1.394
18175W        W90600  14.115  27.635  13.399
18176W        W90601   1.802   8.938  14.565
18177W        W90602  35.629  34.408  11.097
18178W        W90603  30.200  23.441  12.249
18179W        W90604   2.203  28.453   0.709
18180W        W90605   1.675  12.902   2.888
18181W        W90606  22.101   3.690  13.589
18182W        W90607   6.775  21.966   1.290
18183W        W90608  42.359  20.554   2.767
18184W        W90609  32.199  32.057  12.409
18185W        W90610  37.607  33.799  13.635
18186W        W90611  39.357  24.446  12.518
18187W        W90612  39.806   2.652  12.016
18188W        W90613  16.279   0.274  12.522
18189W        W90614  13.259  17.807  10.163
18190W        W90615  12.089  37.399   0.383
18191W        W90616  16.494  36.752  11.772
18192W        W90617  34.309  25.424   4.870
18193W        W90618  40.235   2.004  10.280
18194W        W90619  36.926  18.740   1.610
18195W        W90620  25.640  23.669   2.792
18196W        W90621  24.362  23.185   1.728
18197W        W90622  20.821  25.039   4.456
18198W        W90623   0.541  15.387  11.099
18199W        W90624  34.980  39.998  14.067
18200W        W90625  31.933  19.680  13.569
18201W        W90626   4.120  34.888  12.598
18202W        W90627   3.716  34.086   4.342
18203W        W90628  38.220  26.424   0.020
18204W        W90629  11.321  21.018  11.598
18205W        W90630  25.372  19.448  12.005
18206W        W90631  28.789  13.979   4.988
18207W        W90632  14.078  33.072   2.228
18208W        W90633  30.744  23.630   3.404
18209W        W90634  16.213  17.230   0.843
18210W        W90635  34.607  24.147  12.461
18211W        W90636  32.000  16.089  10.616
18212W        W90637  25.058  42.565  14.908
18213W        W90638   9.992   1.886   2.124
18214W        W90639  41.914  39.839   2.564
18215W        W90640  24.579  14.234   0.540
18216W        W90641   6.725  13.822  12.557
18217W        W90642  34.019  37.912   0.653
18218W        W90643  40.869   9.585   1.827
18219W        W90644  26.478  37.832  13.758
18220W        W90645   5.513  16.141  10.483
18221W        W90646   0.378  17.839   1.421
18222W        W90647  35.122  25.316   2.911
18223W        W90648  24.489  28.093   4.180
18224W        W90649  13.060  21.352   2.280
18225W        W90650   5.288   0.063  13.679
18226W        W90651  33.488   4.947   2.863
18227W        W90652  30.367   0.873  14.877
18228W        W90653  29.875   6.424  13.063
18229W        W90654  32.955   5.426  12.408
18230W        W90655  39.867   7.722  12.860
18231W        W90656  14.598   7.426   5.028
18232W        W90657  32.758  29.188  14.411
18233W        W90658  27.971  31.823  14.318
18234W        W90659  33.569  37.501   3.100
18235W        W90660  10.710   8.007   5.224
18236W        W90661  23.239  26.625   2.109
18237W        W90662  37.553  38.522  12.111
18238W        W90663  31.879  41.249  14.011
18239W        W90664   7.220  24.902   1.308
18240W        W90665   2.547  36.355   3.584
18241W        W90666  44.357  13.740   3.092
18242W        W90667  44.006  40.820  13.765
18243W        W90668  16.853  14.517  11.072
18244W        W90669  31.234  25.654  11.638
18245W        W90670  28.067  24.408  11.355
18246W        W90671  20.659   5.972  13.359
18247W        W90672  41.881  41.818  11.524
18248W        W90673  19.544  40.302   4.213
18249W        W90674  35.348  33.672   3.731
18250W        W90675  18.727  10.234  14.117
18251W        W90676  22.741  37.013   0.229
18252W        W90677  43.438  41.803   2.620
18253W        W90678  36.011   9.849   4.564
18254W        W90679   8.882  17.681  13.024
18255W        W90680   6.080  37.404  11.160
18256W        W90681  24.425  37.442   3.708
18257W        W90682  25.504   1.445  11.192
18258W        W90683  32.442  13.365  13.853
18259W        W90684  10.950  11.871  11.136
18260W        W90685   7.715   5.356  13.953
18261W        W90686   9.819  39.557  13.036
18262W        W90687  11.222  19.546   2.923
18263W        W90688  40.682  16.958  14.529
18264W        W90689  29.012  20.488   1.093
18265W        W90690  39.104  44.247   2.212
18266W        W90691  33.942  43.160   1.387
18267W        W90692   2.875  22.614  11.162
18268W        W90693  36.549   4.730  12.619
18269W        W90694  22.091  43.399  10.865
18270W        W90695   9.134  23.226  14.096
18271W        W90696  42.036  31.943   3.121
18272W        W90697   9.915  37.992   0.392
18273W        W90698  18.160  41.237   2.828
18274W        W90699  14.668   2.312  10.711
18275W        W90700  27.036  41.057   1.389
18276W        W90701   0.401  26.431   3.054
18277W        W90702   7.641  42.021   1.248
18278W        W90703  17.109   0.856  10.993
18279W        W90704  29.090  33.516   0.260
18280W        W90705  40.451  35.857   1.595
18281W        W90706   3.303  35.549   0.423
18282W        W90707  43.242  23.058  14.895
18283W        W90708  14.366  28.985   0.984
18284W        W90709  21.130  13.585  14.240
18285W        W90710  28.058  16.037  10.736
18286W        W90711   8.014  23.914  10.255
18287W        W90712  21.515  35.947  12.980
18288W        W90713  37.410  27.712   3.471
18289W        W90714  13.828  36.372   0.766
18290W        W90715   6.599   9.107  14.055
18291W        W90716  29.361   6.455  12.956
18292W        W90717  22.953  11.726  11.930
18293W        W90718  24.078  10.162  10.375
18294W        W90719  38.520  22.654   0.827
18295W        W90720  39.965  44.829  12.091
18296W        W90721  44.476  12.682  12.102
18297W        W90722   5.040   5.977  10.693
18298W        W90723  16.706   9.220  12.308
18299W        W90724  28.487  14.812   1.529
18300W        W90725  28.053   5.445   2.957
18301W        W90726  31.606  40.079  12.350
18302W        W90727   6.223  29.625   4.439
18303W        W90728  40.542  18.313   3.619
18304W        W90729  41.623  43.019  11.211
18305W        W90730   1.025  41.372   0.875
18306W        W90731   4.045  34.484   3.652
18307W        W90732  11.387  28.342   3.493
18308W        W90733  35.586  31.469  12.108
18309W        W90734  16.360   6.946   1.262
18310W        W90735  13.159  16.258  11.623
18311W        W90736   4.963  31.544   2.788
18312W        W90737  30.026  37.085  12.877
18313W        W90738  44.956  20.212  11.316
18314W        W90739  16.774  33.457   1.306
18315W        W90740  41.771   3.331  12.418
18316W        W90741  44.945  29.224   0.525
18317W        W90742  30.232  23.679  13.614
18318W        W90743   7.964  31.624   2.809
18319W        W90744  33.174  28.536  13.309
18320W        W90745  39.114   3.343   1.772
18321W        W90746  14.488  28.511   1.944
18322W        W90747   3.436   9.668   2.274
18323W        W90748   5.656  36.649   1.345
18324W        W90749  10.692   8.785   0.462
18325W        W90750  39.706  11.648  11.107
18326W        W90751  30.121  44.483   2.902
18327W        W90752  43.284  12.707  11.714
18328W        W90753   0.776  26.043   4.790
18329W        W90754  12.632   8.672  13.366
18330W        W90755  21.539   8.579  11.971
18331W        W90756  31.019  23.253  13.355
18332W        W90757   5.732  18.015   4.263
18333W        W90758   0.777  27.480  12.986
18334W        W90759  21.623  37.643   0.076
18335W        W90760  16.737  10.185   9.983
18336W        W90761  39.504   7.059   4.768
18337W        W90762   8.830   1.539  11.209
18338W        W90763  43.780  33.143   0.369
18339W        W90764  29.578  13.602   1.334
18340W        W90765  41.333  18.310   4.874
18341W        W90766  41.106  24.279   1.522
18342W        W90767  17.077  25.960   1.467
18343W        W90768  28.742  32.486   0.387
18344W        W90769   0.719  12.575   0.339
18345W        W90770   0.892  31.354  13.868
18346W        W90771   9.941  36.827   1.693
18347W        W90772  13.937  39.676   4.234
18348W        W90773  11.754  15.916   0.156
18349W        W90774  25.243   4.912  13.637
18350W        W90775  40.768  44.277  14.547
18351W        W90776  18.538  36.809  11.567
18352W        W90777  29.964  41.223   3.657
18353W        W90778   1.557  33.489   3.638
18354W        W90779  25.566   2.391  14.840
18355W        W90780  32.097   8.276  11.068
18356W        W90781  26.122  38.806   3.383
18357W        W90782  42.450  42.034   2.584
18358W        W90783  42.275   9.863  10.610
18359W        W90784  30.961  28.845  12.795
18360W        W90785  30.635  33.842   0.015
18361W        W90786  32.094  30.290   0.214
18362W        W90787   9.347  19.161   1.066
18363W        W90788  44.843  36.455  12.396
18364W        W90789  36.624  38.531  10.694
18365W        W90790  12.722  41.770   2.603
18366W        W90791  20.037  25.642   1.333
18367W        W90792  16.127   5.358  11.676
18368W        W90793  20.716  13.567  13.934
18369W        W90794  10.586   8.649   3.752
18370W        W90795  17.354  35.183  13.395
18371W        W90796  43.288   0.119  12.394
18372W        W90797  33.457  27.578  14.976
18373W        W90798  28.079  24.231   4.704
18374W        W90799  31.741   8.822   3.660
18375W        W90800  32.594  23.773   3.897
18376W        W90801   7.795  19.280  12.009
18377W        W90802  29.629  25.875  11.116
18378W        W90803  21.585  26.515  14.100
18379W        W90804  44.919  14.749   3.300
18380W        W90805  41.537   9.769  11.161
18381W        W90806  32.683  32.644  14.329
18382W        W90807  30.425   0.398   0.485
18383W        W90808  22.193  40.375  13.339
18384W        W90809  30.941  39.730  13.048
18385W        W90810  19.289  26.098   3.214
18386W        W90811  16.073  22.264   3.264
18387W        W90812  32.641  17.303  12.038
18388W        W90813  22.260  23.745   3.694
18389W        W90814  32.470   4.722  11.909
18390W        W90815   8.857   0.549   1.536
18391W        W90816  12.753  43.316   0.236
18392W        W90817  40.475  15.215   2.192
18393W        W90818   0.816   1.288  11.267
18394W        W90819   6.713  29.581  11.589
18395W        W90820   9.263  39.803  11.154
18396W        W90821  15.841  19.250   0.170
18397W        W90822  15.397   8.420  11.804
18398W        W90823  26.635  35.624   3.027
18399W        W90824  16.304  14.599  14.012
18400W        W90825   1.980  23.125  12.026
18401W        W90826  44.592  33.395  11.737
18402W        W90827  26.258  42.437  11.189
18403W        W90828   2.823  27.151  14.723
18404W        W90829  31.072  30.176  12.532
18405W        W90830  10.424  11.644   0.008
18406W        W90831  14.771   9.090   1.021
18407W        W90832  43.762  14.093  10.734
18408W        W90833  36.615  43.256  11.867
18409W        W90834  20.809  37.480   1.801
18410W        W90835  42.445  43.460  13.545
18411W        W90836  13.706   8.353  10.764
18412W        W90837  18.616   3.000   1.113
18413W        W90838  16.201  29.637  10.681
18414W        W90839   1.040  16.983  10.093
18415W        W90840  14.336  26.107  11.714
18416W        W90841  12.733  25.468  12.416
18417W        W90842  42.253   4.635  11.142
18418W        W90843  43.743  21.287   3.561
18419W        W90844  44.422  41.525  13.449
18420W        W90845  41.766  23.684  11.818
18421W        W90846  16.551  29.544   4.521
18422W        W90847  19.208  32.624  13.369
18423W        W90848   7.271  38.378  14.830
18424W        W90849  24.970  23.543  13.360
18425W        W90850   8.289   3.904  11.505
18426W        W90851  15.783  36.635  13.339
18427W        W90852  20.085  31.700   4.617
18428W        W90853  33.434  42.989   2.151
18429W        W90854  15.197   0.465  13.343
18430W        W90855  31.853  21.030  12.935
18431W        W90856  23.680  38.486  10.663
18432W        W90857  37.907   4.474  10.533
18433W        W90858   3.913   5.035  11.572
18434W        W90859  30.654  36.453   4.545
18435W        W90860  13.847  31.154   1.194
18436W        W90861  33.330  23.862  13.799
18437W        W90862  39.941   1.537  13.359
18438W        W90863  28.471  40.514  12.644
18439W        W90864  38.603  35.031  11.620
18440W        W90865  30.727   7.910  13.848
18441W        W90866  37.806  10.899  13.424
18442W        W90867  16.834  33.581   3.754
18443W        W90868  19.798  32.626   3.634
18444W        W90869  18.213  22.449  14.934
18445W        W90870  10.637  17.903   1.398
18446W        W90871  23.306  36.546   3.690
18447W        W90872  16.331  30.982  11.211
18448W        W90873   9.806  42.620  12.955
18449W        W90874  10.344  31.493   1.889
18450W        W90875   2.288  30.033   4.128
18451W        W90876  17.989  22.799  11.193
18452W        W90877  10.571  30.189   1.303
18453W        W90878  15.441   1.748   4.180
18454W        W90879   1.550  38.354   0.079
18455W        W90880  11.320  11.340   4.930
18456W        W90881  23.905  42.825  11.852
18457W        W90882  26.477  41.959   5.004
18458W        W90883  25.096  16.117  10.761
18459W        W90884  16.275  36.952  12.745
18460W        W90885  44.546  37.433   1.701
18461W        W90886  29.617  27.033   1.274
18462W        W90887   4.318  36.888   0.048
18463W        W90888   6.792  10.931   1.659
18464W        W90889  22.984   3.099   3.293
18465W        W90890   7.288  10.363  11.223
18466W        W90891  26.681  16.039   0.441
18467W        W90892   8.283  29.653   2.310
18468W        W90893  19.506  20.273  11.380
18469W        W90894   8.430   7.834   3.192
18470W        W90895  16.736  40.341  14.383
18471W        W90896  12.771  42.841  12.119
18472W        W90897  38.572  24.228   2.601
18473W        W90898  11.170  37.095   2.271
18474W        W90899  15.784  23.537  14.790
18475W        W90900  42.495  22.126   1.551
18476W        W90901  18.616   4.931  12.102
18477W        W90902  31.726  17.586  10.658
18478W        W90903   4.276  41.767   1.850
18479W        W90904  44.778  43.826   4.105
18480W        W90905  20.572   6.876  12.161
18481W        W90906   2.270  16.947   0.048
18482W        W90907   2.405  26.186   0.566
18483W        W90908  26.115  37.534  10.513
18484W        W90909  14.070  10.147  11.973
18485W        W90910  37.122  35.379  11.190
18486W        W90911  44.219  20.315   2.658
18487W        W90912  42.912  19.723  10.370
18488W        W90913  41.782  39.878  14.430
18489W        W90914   3.645  32.988   1.938
18490W        W90915  36.247  37.572  14.691
18491W        W90916  22.690  14.836  12.926
18492W        W90917  13.670  27.247  13.474
18493W        W90918  10.307  32.519   3.755
18494W        W90919  33.567  13.340  12.104
18495W        W90920  20.212  30.020   5.100
18496W        W90921  15.630   9.793  12.993
18497W        W90922   0.026  38.987  13.383
18498W        W90923   1.348  22.825   0.374
18499W        W90924  33.814  44.044  13.935
18500W        W90925  12.759  32.507   1.425
18501W        W90926  24.309  14.104  14.547
18502W        W90927  28.905  24.604  13.063
18503W        W90928  42.784   1.211   2.273
18504W        W90929  36.387  43.812  13.577
18505W        W90930  20.926  12.524   4.894
18506W        W90931  35.401  22.656  13.350
18507W        W90932  44.366   2.753   0.458
18508W        W90933  29.127  14.331  10.574
18509W        W90934  36.008   7.353  12.385
18510W        W90935  22.061  34.342  12.350
18511W        W90936  28.188  17.630   2.678
18512W        W90937  29.622  28.976  13.106
18513W        W90938   8.453  24.762   0.892
18514W        W90939  39.819   8.409  13.470
18515W        W90940   0.038  44.970  14.945
18516W        W90941  11.375  27.947   0.920
18517W        W90942   3.513  40.078  13.971
18518W        W90943  26.187  17.934  12.135
18519W        W90944  40.853  12.234   1.645
18520W        W90945   6.692  18.652  13.823
18521W        W90946  20.514  31.839   0.523
18522W        W90947   9.755  27.845  14.787
18523W        W90948  35.892  21.649   0.022
18524W        W90949  44.949  32.152   3.603
18525W        W90950  34.643   3.314  11.739
18526W        W90951  17.739  13.585   3.842
18527W        W90952  19.128  35.497   2.638
18528W        W90953   7.929  36.080  13.350
18529W        W90954  28.559  33.566   4.232
18530W        W90955  33.900  24.482   3.299
18531W        W90956  39.014   8.376   3.338
18532W        W90957  13.362  29.144  10.643
18533W        W90958  30.617  36.566  13.828
18534W        W90959   6.321   6.128  10.704
18535W        W90960  42.981  38.574   2.731
18536W        W90961  37.077  15.774  14.940
18537W        W90962  29.040  31.624   2.313
18538W        W90963   3.379  35.060  14.341
18539W        W90964  29.557  39.084   2.445
18540W        W90965  16.745  16.233   3.910
18541W        W90966  21.716  36.065  13.456
18542W        W90967  17.886  22.274  11.919
18543W        W90968  15.626  40.535  14.788
18544W        W90969  30.336   8.388  11.914
18545W        W90970  31.967  35.893   2.036
18546W        W90971  35.169  18.680   2.562
18547W        W90972  21.679  28.003  14.374
18548W        W90973  20.583   9.416  11.663
18549W        W90974   7.094  10.031  12.024
18550W        W90975  28.368  20.948   0.304
18551W        W90976  39.519  20.695   3.697
18552W        W90977  24.153  16.654  10.706
18553W        W90978   3.419   6.192  12.824
18554W        W90979  31.568  14.325   0.233
18555W        W90980  24.970  41.596  13.916
18556W        W90981  22.099  14.324   2.870
18557W        W90982   3.427  24.631  10.616
18558W        W90983  38.028  11.676   0.358
18559W        W90984  33.837   9.026  10.699
18560W        W90985   4.817  22.125   3.341
18561W        W90986  13.410   3.367   3.184
18562W        W90987   9.493  33.818  11.653
18563W        W90988  44.017   7.361  14.992
18564W        W90989   3.110  12.563  11.623
18565W        W90990   5.744   1.426  13.760
18566W        W90991  34.985  43.345   4.944
18567W        W90992  10.084  40.002  14.459
18568W        W90993  32.946   1.448   1.382
18569W        W90994   7.737  14.969   4.413
18570W        W90995   6.362  27.939  13.474
18571W        W90996  10.997  18.082   0.135
18572W        W90997  29.102  37.596   4.638
18573W        W90998  22.970  42.806  13.375
18574W        W90999  18.751  24.145   3.589
18575W        W91000  32.548  35.020   1.334
18576W        W91001  31.576   2.385  11.177
18577W        W91002  18.430  22.594  10.162
18578W        W91003   9.225  11.351   2.396
18579W        W91004   8.329  13.561  12.828
18580W        W91005  20.737  31.863  12.034
18581W        W91006  33.353  29.633   0.632
18582W        W91007   2.462   9.376   1.397
18583W        W91008  35.483  16.200  14.298
18584W        W91009  42.954  43.343   1.440
18585W        W91010   8.722   4.287   4.892
18586W        W91011  38.262  14.116   1.445
18587W        W91012  30.965   4.911  10.744
18588W        W91013  27.644  12.023   3.329
18589W        W91014   4.482  37.294   1.336
18590W        W91015   2.462  22.671   2.123
18591W        W91016  37.363  33.396   2.246
18592W        W91017  23.098  20.994  11.535
18593W        W91018   8.376   9.893   2.126
18594W        W91019   3.523  28.107  14.783
18595W        W91020   8.871  41.797   0.978
18596W        W91021  29.791  41.240   2.833
18597W        W91022  41.040  19.480   0.776
18598W        W91023  33.650   4.903  10.285
18599W        W91024  41.889   1.807   3.215
18600W        W91025  30.103  38.759   4.525
18601W        W91026  15.831  22.196  13.668
18602W        W91027  43.353  15.269  12.512
18603W        W91028  37.013  35.821   3.265
18604W        W91029   3.230   3.357   4.956
18605W        W91030  40.024  40.017   3.651
18606W        W91031  14.380  15.143   0.873
18607W        W91032  12.521  44.898  14.270
18608W        W91033   4.525   4.348   4.983
18609W        W91034  39.599  22.655  14.866
18610W        W91035  44.317  37.855  13.787
18611W        W91036  15.119  34.595  13.110
18612W        W91037  25.890  40.838  12.084
18613W        W91038  27.062  44.801  10.867
18614W        W91039  42.061  39.938  10.430
18615W        W91040  13.688  18.055   2.342
18616W        W91041   1.069   3.805   0.906
18617W        W91042  25.107  42.951  14.088
18618W        W91043  10.008   1.567   3.719
18619W        W91044  23.515   1.655  11.964
18620W        W91045  33.656  31.933   1.279
18621W        W91046   1.256   7.423  12.461
18622W        W91047  31.983  37.044  14.665
18623W        W91048  12.197  39.139  14.019
18624W        W91049  42.507  29.517   4.482
18625W        W91050   8.709   8.355  10.157
18626W        W91051  15.229  34.518  12.135
18627W        W91052  41.033  27.003   1.011
18628W        W91053  31.150   0.372  14.870
18629W        W91054   9.785  34.427   3.139
18630W        W91055  10.640  36.889  11.403
18631W        W91056   8.049  31.200   4.197
18632W        W91057  21.575  32.907  12.673
18633W        W91058  36.629  10.075   2.314
18634W        W91059  21.057  33.528   0.551
18635W        W91060   4.237  40.398   1.964
18636W        W91061   7.877   1.207  13.609
18637W        W91062  23.655  37.687  14.090
18638W        W91063   6.676  29.739  13.370
18639W        W91064  37.080  17.017   2.302
18640W        W91065  41.334   6.901   4.461
18641W        W91066   6.662  40.860  13.543
18642W        W91067  30.315  23.936  12.349
18643W        W91068  25.074  21.053   3.327
18644W        W91069  13.634   2.384   2.279
18645W        W91070   2.920  13.091   1.582
18646W        W91071  17.804   7.171   0.360
18647W        W91072  16.368   6.945  12.519
18648W        W91073  23.748  12.873   0.834
18649W        W91074  38.552  25.529  11.627
18650W        W91075   6.233  10.048   3.284
18651W        W91076  41.860  28.498   1.673
18652W        W91077  11.761   7.694  10.682
18653W        W91078  40.450   8.768  11.631
18654W        W91079  19.496  43.832   0.309
18655W        W91080   3.152  13.613  14.452
18656W        W91081  11.932  21.750  13.419
18657W        W91082  33.002  23.973  13.380
18658W        W91083  43.303   2.068  12.874
18659W        W91084  14.236   5.905  14.072
18660W        W91085   5.808  39.564   4.714
18661W        W91086  38.028  11.074   4.156
18662W        W91087   9.181  17.890   1.201
18663W        W91088  43.903  27.989   2.219
18664W        W91089  29.135  19.592   1.305
18665W        W91090  11.080  12.818   3.148
18666W        W91091  23.077   8.369  13.999
18667W        W91092   7.319  15.207   4.225
18668W        W91093  34.369  22.236   4.182
18669W        W91094  32.829  12.314   3.789
18670W        W91095  23.720  14.278   3.364
18671W        W91096  21.224  37.729   2.362
18672W        W91097  27.263  35.934   1.414
18673W        W91098  23.568  34.893  10.663
18674W        W91099  25.572  20.002  11.772
18675W        W91100  10.849  13.656  12.820
18676W        W91101   3.322  38.907   4.271
18677W        W91102  23.480  29.705  11.296
18678W        W91103   1.356  25.948   2.620
18679W        W91104  12.826  30.131  11.498
18680W        W91105  38.820   1.796  13.354
18681W        W91106  18.111   5.241   1.031
18682W        W91107   7.806  40.535   2.238
18683W        W91108  33.606  21.223  11.176
18684W        W91109  35.837  35.505   1.931
18685W        W91110  32.646  40.140   4.944
18686W        W91111  32.952  41.056   0.894
18687W        W91112  17.229  44.431  13.230
18688W        W91113  19.960  23.052   4.154
18689W        W91114  32.866  30.495   2.691
18690W        W91115  33.997   7.810  13.809
18691W        W91116  10.350   7.252  11.432
18692W        W91117  31.057   1.022   1.763
18693W        W91118   7.418  35.303   4.380
18694W        W91119   3.454  19.632  13.558
18695W        W91120  27.064  33.545  12.449
18696W        W91121  30.166  10.358   0.361
18697W        W91122  11.168  34.871  13.360
18698W        W91123  20.055  22.746   2.403
18699W        W91124   7.245   2.354  10.767
18700W        W91125  36.070  35.166  12.061
18701W        W91126  24.102  13.724   3.556
18702W        W91127  30.473   4.511   4.196
18703W        W91128  16.547  23.189   3.646
18704W        W91129  12.285  20.148   0.683
18705W        W91130  37.930  43.653   5.158
18706W        W91131  18.489   7.906  14.306
18707W        W91132  14.145  31.181  11.319
18708W        W91133  29.585  16.140   3.409
18709W        W91134   5.494  26.701   3.717
18710W        W91135  35.429  31.943  11.204
18711W        W91136   8.551  22.900  14.672
18712W        W91137   6.406  34.384  12.381
18713W        W91138  37.052  10.491  14.406
18714W        W91139   1.234  16.879   1.243
18715W        W91140  28.246   9.280   1.821
18716W        W91141   0.718  16.763  11.951
18717W        W91142  28.026  33.812   5.002
18718W        W91143  10.828   2.823   3.253
18719W        W91144  22.686   4.400   1.403
18720W        W91145  38.439  21.617   1.277
18721W        W91146   7.613   1.771   1.342
18722W        W91147  44.079  20.689  12.098
18723W        W91148  25.810  35.536   0.246
18724W        W91149  38.998   1.990   2.832
18725W        W91150  15.723  29.191  11.971
18726W        W91151   4.482  38.611   0.431
18727W        W91152  21.959  31.894   4.023
18728W        W91153   2.030  36.488   1.669
18729W        W91154  14.644  26.603   3.714
18730W        W91155  40.789  15.156  12.483
18731W        W91156  26.274  27.197   3.582
18732W        W91157  16.569   0.508  11.971
18733W        W91158  34.356  37.524   1.465
18734W        W91159  10.834   9.756   2.817
18735W        W91160   0.274   7.411   1.344
18736W        W91161  44.154  20.725   4.375
18737W        W91162  35.969   0.312  13.641
18738W        W91163  11.208  11.812   4.703
18739W        W91164  25.676  42.527   3.660
18740W        W91165  14.649   5.281   4.614
18741W        W91166   6.897  18.240  10.724
18742W        W91167  38.952  29.309   2.830
18743W        W91168  39.861  16.072   4.141
18744W        W91169   9.166   6.185   1.872
18745W        W91170  33.201   1.344   0.947
18746W        W91171  36.091  12.566   1.395
18747W        W91172  16.166  21.676  11.011
18748W        W91173  21.134  20.774   1.805
18749W        W91174  33.701  10.181   3.686
18750W        W91175   8.261  31.138   2.266
18751W        W91176  11.272  34.830  10.674
18752W        W91177  24.564  18.891  12.913
18753W        W91178  30.632  35.077   0.261
18754W        W91179  10.858  19.227  14.938
18755W        W91180  33.615  38.104   3.400
18756W        W91181   4.594  29.392  10.824
18757W        W91182  35.486  14.632  12.677
18758W        W91183  12.745  10.420   3.213
18759W        W91184   8.256  31.888  12.060
18760W        W91185  18.366  36.374  14.378
18761W        W91186  38.365  27.399   3.559
18762W        W91187   3.376  37.033  12.040
18763W        W91188  10.421  17.740  12.928
18764W        W91189  15.772  17.240  14.046
18765W        W91190  36.554  44.848  14.835
18766W        W91191  26.656   9.351   4.738
18767W        W91192  28.826  34.829  13.772
18768W        W91193  30.165  28.210   2.453
18769W        W91194  22.642   1.222   3.738
18770W        W91195  32.981   4.142   2.754
18771W        W91196  23.649   5.270   1.862
18772W        W91197  30.304  12.106   1.760
18773W        W91198  22.666  21.983  12.136
18774W        W91199   2.449  44.260   0.934
18775W        W91200   0.938  25.470   3.200
18776W        W91201  36.330   5.917   3.659
18777W        W91202   2.272  19.008   3.727
18778W        W91203  13.153  38.409   3.228
18779W        W91204   5.755  23.106   0.848
18780W        W91205  34.346   2.791  14.453
18781W        W91206  37.458   0.809  13.886
18782W        W91207  21.713  43.594   1.915
18783W        W91208  23.078  35.509  11.224
18784W        W91209  13.813  26.451   3.141
18785W        W91210   1.407  40.500   1.416
18786W        W91211  38.120   8.313  14.384
18787W        W91212  11.047   0.920   1.998
18788W        W91213   3.021  10.047   4.416
18789W        W91214  21.294  38.445  11.637
18790W        W91215  33.838  21.735  11.960
18791W        W91216   8.452  28.129   3.976
18792W        W91217   4.939   8.152  10.693
18793W        W91218  33.966  43.349  13.466
18794W        W91219  13.325  34.647   2.802
18795W        W91220   2.788  20.802   0.389
18796W        W91221  29.623  24.748  14.981
18797W        W91222   5.295  20.615  12.428
18798W        W91223   4.857  21.795  13.890
18799W        W91224  24.934  23.055   2.011
18800W        W91225   9.438  31.670   0.735
18801W        W91226  24.537  24.688  14.777
18802W        W91227  36.884  44.102  12.514
18803W        W91228  16.266  40.237  13.599
18804W        W91229   8.394  12.853   1.481
18805W        W91230   9.308  18.260  14.652
18806W        W91231  22.743   6.860   0.948
18807W        W91232  11.031  13.120   4.519
18808W        W91233  24.376   0.319  13.912
18809W        W91234  16.600  40.458   2.737
18810W        W91235  22.127  12.897  11.156
18811W        W91236  24.930  22.971  14.242
18812W        W91237  28.850  25.461  13.984
18813W        W91238  29.190  27.439   4.292
18814W        W91239  16.439   8.429   1.244
18815W        W91240  12.380  20.264   3.705
18816W        W91241  29.211   9.236   1.626
18817W        W91242  29.597   5.697  10.691
18818W        W91243  12.849  17.373   3.428
18819W        W91244  13.875  14.192  10.363
18820W        W91245  18.232  10.458   2.303
18821W        W91246  40.209   9.229   3.288
18822W        W91247  32.580  44.873   2.313
18823W        W91248  14.095  25.413  12.352
18824W        W91249   2.544  44.039  14.939
18825W        W91250  38.750  36.081   1.209
18826W        W91251  20.692   4.101  10.764
18827W        W91252  22.558  28.693  10.640
18828W        W91253  41.491  22.850  14.315
18829W        W91254  24.190   2.824   1.437
18830W        W91255   7.740  40.433  12.080
18831W        W91256  35.148  43.926   3.255
18832W        W91257  41.444   7.755  10.699
18833W        W91258  29.028  27.494  11.486
18834W        W91259  21.298  20.352   3.193
18835W        W91260   6.300  25.021   4.595
18836W        W91261  35.747  31.977  10.775
18837W        W91262  26.014  34.560  12.366
18838W        W91263  25.913  27.097  14.307
18839W        W91264  36.574   8.631  12.093
18840W        W91265  30.487  34.591   1.826
18841W        W91266  17.850  26.834  12.552
18842W        W91267  18.765   9.483   3.347
18843W        W91268   7.637  42.949  10.617
18844W        W91269  35.490   7.646  14.049
18845W        W91270  34.249  31.764  14.977
18846W        W91271  41.767  29.678  12.042
18847W        W91272  26.937  23.566  13.417
18848W        W91273  11.888   6.234  14.161
18849W        W91274  43.090   1.470   2.932
18850W        W91275  25.451  31.579  14.584
18851W        W91276  18.149  10.199  11.371
18852W        W91277   0.917  33.158  12.046
18853W        W91278  27.545  18.678  12.029
18854W        W91279  29.062  17.279   1.248
18855W        W91280  10.206  43.580  10.605
18856W        W91281  36.871   6.071   3.707
18857W        W91282  20.111  17.243  14.347
18858W        W91283  38.892  36.702  14.088
18859W        W91284  44.030  27.927  14.956
18860W        W91285  28.917  32.040  13.042
18861W        W91286  21.220  36.450  12.678
18862W        W91287   0.797  40.913   2.162
18863W        W91288  26.374  20.651   1.501
18864W        W91289  28.182   1.225   3.842
18865W        W91290  18.626  23.184  12.413
18866W        W91291  41.395  28.708   1.462
18867W        W91292  20.964   2.258  12.097
18868W        W91293   7.391  29.045   3.344
18869W        W91294  32.748  13.216   0.283
18870W        W91295  39.831  19.864   0.335
18871W        W91296  17.160   4.566   1.994
18872W        W91297  25.948   6.159   3.800
18873W        W91298  39.543  21.167   1.375
18874W        W91299  37.006  15.878  13.910
18875W        W91300  30.253  11.305   3.113
18876W        W91301  24.294   2.991  11.216
18877W        W91302  38.428  24.885   4.162
18878W        W91303  23.823  36.063   1.865
18879W        W91304  31.596  33.867  12.501
18880W        W91305  24.180  42.452   1.339
18881W        W91306  20.787   2.937   2.830
18882W        W91307  43.889   5.222  13.396
18883W        W91308  11.567   8.710   1.898
18884W        W91309   6.126  21.314  14.849
18885W        W91310   8.801   6.384   2.213
18886W        W91311  35.354  28.700  12.213
18887W        W91312  12.627  17.163  14.482
18888W        W91313  37.457   7.176   2.452
18889W        W91314  36.896  17.518  12.582
18890W        W91315  22.475  13.676  12.471
18891W        W91316  42.328   2.715   4.689
18892W        W91317  39.726  42.372   1.409
18893W        W91318  18.877  27.038   4.809
18894W        W91319  24.024  31.350  12.321
18895W        W91320  11.724   4.391  11.601
18896W        W91321  34.894  35.502  14.433
18897W        W91322   7.308   0.939   1.788
18898W        W91323  32.348   7.571  10.684
18899W        W91324  34.539   1.793   0.564
18900W        W91325  33.315  21.696   4.214
18901W        W91326  34.940  11.737   1.428
18902W        W91327   4.360  13.282  11.674
18903W        W91328  44.863   7.719  14.305
18904W        W91329  36.522  39.899  10.592
18905W        W91330  31.734  34.634  12.097
18906W        W91331  26.738  20.199  14.715
18907W        W91332  24.308  18.519  12.544
18908W        W91333  33.432  33.641  14.011
18909W        W91334  20.178   1.417  13.087
18910W        W91335  12.112  27.052   4.735
18911W        W91336  31.921  15.556  10.625
18912W        W91337  40.789  30.506  14.991
18913W        W91338  28.699   5.690  11.592
18914W        W91339  34.322  14.449   2.101
18915W        W91340  13.937  11.049   3.362
18916W        W91341  43.469   5.245  11.906
18917W        W91342  44.968   4.317   0.031
18918W        W91343  39.487  33.586  10.148
18919W        W91344   6.417  36.774   2.508
18920W        W91345  13.739  37.466   3.088
18921W        W91346  44.794  19.754  13.449
18922W        W91347  12.143  17.244   2.757
18923W        W91348  12.866  33.648  11.687
18924W        W91349  24.627  17.723   1.819
18925W        W91350  18.535  36.555   4.510
18926W        W91351  15.691  11.217   4.595
18927W        W91352   4.974  40.501  11.444
18928W        W91353  41.943  12.611  12.593
18929W        W91354  32.853  16.916  14.234
18930W        W91355  19.777  41.319   3.761
18931W        W91356  21.513   1.045  14.607
18932W        W91357  31.345   8.260  11.919
18933W        W91358  15.548  19.628   4.225
18934W        W91359  35.746  34.911  11.621
18935W        W91360   2.823   4.985  11.062
18936W        W91361  12.732   0.484   3.653
18937W        W91362  12.784  22.274  14.725
18938W        W91363  11.385   6.315   3.860
18939W        W91364  13.898  26.116  11.985
18940W        W91365  29.658  42.069   2.611
18941W        W91366  23.943   7.778  12.881
18942W        W91367   8.186  26.509   2.635
18943W        W91368  22.153  34.543  10.834
18944W        W91369  13.226  34.281   0.245
18945W        W91370  17.758   1.917   2.804
18946W        W91371  19.424  15.210  13.310
18947W        W91372   8.141  26.938  11.465
18948W        W91373  42.132  28.697   4.201
18949W        W91374  28.923  30.140  11.288
18950W        W91375  29.751  12.005   4.517
18951W        W91376  31.902  26.800   1.358
18952W        W91377  42.978   3.334  13.737
18953W        W91378  21.966  13.008   2.229
18954W        W91379  22.227  43.500  12.788
18955W        W91380  22.203  13.291  14.154
18956W        W91381   5.669   5.090  10.968
18957W        W91382  21.737  17.865   0.600
18958W        W91383  44.771   9.353  13.029
18959W        W91384  13.178  31.203  14.986
18960W        W91385   9.003   1.787   3.819
18961W        W91386   9.762  25.074  14.962
18962W        W91387   4.624  24.234  12.774
18963W        W91388  15.862   2.239  12.370
18964W        W91389  41.950  21.524   2.102
18965W        W91390  14.656  21.027  14.781
18966W        W91391  10.856  25.691   3.741
18967W        W91392  17.286  43.618   4.405
18968W        W91393  18.585  22.253  13.334
18969W        W91394   6.127  20.698   4.605
18970W        W91395  41.536   7.941  11.202
18971W        W91396  10.669  23.557   2.130
18972W        W91397  23.572   8.209  11.459
18973W        W91398  16.630   1.222  13.331
18974W        W91399   4.162   3.255   3.898
18975W        W91400  37.050   7.878  12.170
18976W        W91401   9.289  39.548  13.011
18977W        W91402   7.355   3.877   3.700
18978W        W91403   9.734  44.751   2.273
18979W        W91404   0.150  18.702  13.424
18980W        W91405  22.461  17.787   3.635
18981W        W91406  28.027  26.866  14.849
18982W        W91407  39.086   2.945  11.062
18983W        W91408  17.275  43.875   0.531
18984W        W91409  17.756  30.463  11.607
18985W        W91410  37.100  20.540   4.130
18986W        W91411  10.525   7.252   5.032
18987W        W91412  13.602  22.379   3.972
18988W        W91413   1.837  37.508   4.996
18989W        W91414  21.491  37.570   1.033
18990W        W91415  30.444  30.463   0.971
18991W        W91416  34.971  37.187   2.459
18992W        W91417  40.995  30.046   4.641
18993W        W91418  21.057   8.768  11.886
18994W        W91419   5.417   9.132  12.528
18995W        W91420   9.303  33.061  12.702
18996W        W91421  41.946  38.348  11.830
18997W        W91422  13.516  31.394   4.066
18998W        W91423  12.595  18.503  12.213
18999W        W91424  21.605  30.615  11.984
19000W        W91425   2.742  17.662   2.933
19001W        W91426  30.590  17.597  13.381
19002W        W91427  26.465  39.320  10.896
19003W        W91428   0.864  14.300   1.175
19004W        W91429  13.604  24.331   0.242
19005W        W91430  18.446  42.991  12.892
19006W        W91431  33.637   2.768   2.822
19007W        W91432  33.176   4.896   3.293
19008W        W91433  22.253  35.462   2.874
19009W        W91434  18.775  37.642  12.593
19010W        W91435  15.200  30.074   0.280
19011W        W91436  21.684  11.401  14.221
19012W        W91437  34.235  15.025   3.680
19013W        W91438  13.181  15.174   3.559
19014W        W91439  22.639   2.917   3.672
19015W        W91440  31.448  26.531   3.063
19016W        W91441  14.009  38.355   1.135
19017W        W91442  14.044  20.406   0.792
19018W        W91443  17.024  11.066  11.661
19019W        W91444  24.713  28.638   3.385
19020W        W91445  40.312  35.434   4.543
19021W        W91446  43.859  26.008  11.490
19022W        W91447  18.704   8.337   0.776
19023W        W91448   6.310  13.685   1.993
19024W        W91449  43.547  44.292  11.114
19025W        W91450   1.791  19.290  11.097
19026W        W91451  15.542  16.247  11.122
19027W        W91452  40.812  21.171  12.405
19028W        W91453  22.155   3.590  11.092
19029W        W91454  40.964  30.589  10.823
19030W        W91455  33.087  40.772   4.203
19031W        W91456  10.694  11.778   3.964
19032W        W91457  19.306   6.278   1.891
19033W        W91458  15.544  25.918   1.727
19034W        W91459  12.640  11.080  12.332
19035W        W91460  17.489  39.013  10.854
19036W        W91461   7.283   2.961  11.453
19037W        W91462  24.002   1.940  12.828
19038W        W91463   7.988   2.649  14.417
19039W        W91464  41.840  23.016   3.182
19040W        W91465  28.094  42.279  11.215
19041W        W91466  25.220  25.638   4.510
19042W        W91467  26.807   8.773   3.301
19043W        W91468  28.490  35.306  11.714
19044W        W91469  16.097  18.109   0.473
19045W        W91470   7.788  11.706  13.814
19046W        W91471  29.561  30.738   3.186
19047W        W91472  28.682  32.468  14.408
19048W        W91473  43.533  44.030   4.782
19049W        W91474   7.418   9.452   1.188
19050W        W91475  15.807  29.960   2.470
19051W        W91476   9.320   7.055  13.489
19052W        W91477  35.949   0.577   1.632
19053W        W91478  16.720  30.034   0.187
19054W        W91479   5.749  22.492  10.580
19055W        W91480  12.271   1.944   3.482
19056W        W91481  17.564   0.951   2.214
19057W        W91482  19.064  27.408   3.205
19058W        W91483  23.970  26.585   2.869
19059W        W91484  13.638  32.329   2.457
19060W        W91485  26.162  13.483   0.224
19061W        W91486  32.705  22.004   1.738
19062W        W91487  26.724   9.719   1.030
19063W        W91488   5.839  44.060  10.707
19064W        W91489  12.909  14.396   3.257
19065W        W91490  43.524  39.927   3.319
19066W        W91491   5.885   5.348  12.828
19067W        W91492  29.505  26.485   1.288
19068W        W91493  39.539  21.560   4.594
19069W        W91494   0.300  41.288  12.512
19070W        W91495  36.893  16.997   1.008
19071W        W91496  42.389   9.221   1.743
19072W        W91497  44.996  34.190  14.550
19073W        W91498  22.302  32.039  14.045
19074W        W91499  44.794  10.727   1.232
19075W        W91500  44.877   8.890   4.522
19076W        W91501  29.948  29.618   2.587
19077W        W91502  24.187  33.755  11.882
19078W        W91503  43.873  14.405  14.357
19079W        W91504  32.108  30.366  10.240
19080W        W91505   3.273  43.425  14.195
19081W        W91506  10.406   0.857   0.756
19082W        W91507   1.545  31.058  12.596
19083W        W91508   4.848  39.954   2.604
19084W        W91509  25.668  23.983  13.962
19085W        W91510  18.711  26.575   3.639
19086W        W91511  20.322  39.470  12.905
19087W        W91512   9.629  26.168  13.567
19088W        W91513  26.041  38.660   0.545
19089W        W91514  34.531   8.935  12.056
19090W        W91515  11.344  44.370  14.442
19091W        W91516  28.256   2.208  11.245
19092W        W91517   5.533  28.527   3.404
19093W        W91518  21.165   7.286  10.140
19094W        W91519  15.669  41.388  14.312
19095W        W91520  44.992  40.359   1.227
19096W        W91521   8.651   2.417  10.910
19097W        W91522  28.406  29.710   1.651
19098W        W91523   1.235  20.166   1.868
19099W        W91524   5.248  32.618   3.630
19100W        W91525  44.248  28.125  12.500
19101W        W91526  12.957  15.365   0.426
19102W        W91527  12.909  43.878  12.415
19103W        W91528  34.842  26.176   3.614
19104W        W91529   0.471  17.346   0.911
19105W        W91530  16.146   1.180   2.281
19106W        W91531   4.975  32.415   0.037
19107W        W91532   2.979   5.366  14.823
19108W        W91533  41.271  10.217   1.224
19109W        W91534   5.526  37.178   4.350
19110W        W91535  34.288  36.401  13.172
19111W        W91536   6.423  20.228  12.902
19112W        W91537  27.149  44.323   1.996
19113W        W91538  16.373  42.938   0.947
19114W        W91539  19.756  37.715   2.706
19115W        W91540   5.736  16.388   0.229
19116W        W91541  38.259  30.737  11.234
19117W        W91542  12.835  35.886  12.876
19118W        W91543   0.294   7.677  13.442
19119W        W91544   4.850   0.361   0.227
19120W        W91545   9.248  37.812   0.826
19121W        W91546   7.603  14.362   1.739
19122W        W91547  15.663  36.000   2.215
19123W        W91548   0.676  37.770   0.454
19124W        W91549  20.163   4.416  14.778
19125W        W91550  15.898  16.318  12.585
19126W        W91551  32.947   3.974  11.449
19127W        W91552  20.726  35.477  13.391
19128W        W91553   5.798  13.054  14.566
19129W        W91554   7.629  31.215  12.821
19130W        W91555  35.656  25.528   0.351
19131W        W91556   4.345  19.808  14.093
19132W        W91557  36.026  30.018   4.576
19133W        W91558  14.325  25.425   0.859
19134W        W91559   3.985   1.885   4.144
19135W        W91560  22.056  41.419   3.161
19136W        W91561  13.796   9.410   2.675
19137W        W91562  42.831   0.495   2.819
19138W        W91563  34.223  42.901  10.713
19139W        W91564   0.679  28.677  13.951
19140W        W91565  20.505  32.490   1.348
19141W        W91566  13.595  18.480  13.913
19142W        W91567  39.989  43.501  10.233
19143W        W91568  21.608  21.644  13.742
19144W        W91569   5.777  13.322  12.423
19145W        W91570  17.143  38.998  14.375
19146W        W91571   5.476  33.628   1.675
19147W        W91572   4.712  17.332  11.359
19148W        W91573  22.920  23.103  14.729
19149W        W91574  29.958   1.506   3.532
19150W        W91575  19.652   3.500   0.441
19151W        W91576  32.509  32.566  11.794
19152W        W91577  15.117   2.144  13.910
19153W        W91578  14.413  34.715   1.478
19154W        W91579  17.682  30.547  10.621
19155W        W91580  36.541  26.745  14.848
19156W        W91581  22.297  23.282  11.990
19157W        W91582  30.513  18.548   4.585
19158W        W91583  38.500  16.240   0.793
19159W        W91584  20.401  12.691   0.828
19160W        W91585   1.695  13.677  10.920
19161W        W91586  16.148  32.611  10.688
19162W        W91587  40.707  17.120  11.351
19163W        W91588  18.103   5.679  14.234
19164W        W91589  19.404  31.466  14.062
19165W        W91590  19.028  41.968   0.825
19166W        W91591  16.364   8.103  11.269
19167W        W91592  37.895  44.524   1.807
19168W        W91593  20.311  34.102   2.799
19169W        W91594   1.454  10.767  11.737
19170W        W91595   2.025   4.486  13.965
19171W        W91596  21.168   1.704  13.456
19172W        W91597   2.835  35.937   3.047
19173W        W91598  15.939  44.458  14.791
19174W        W91599   8.677  44.056   4.359
19175W        W91600  14.665  15.756   0.145
19176W        W91601   5.307  13.314   3.230
19177W        W91602   0.123  22.432  10.798
19178W        W91603  26.689  32.874  10.259
19179W        W91604  16.042  41.301   0.388
19180W        W91605  41.891  21.606  11.183
19181W        W91606  35.491   8.553  12.139
19182W        W91607  44.723   5.792  12.353
19183W        W91608  35.608  35.047  10.729
19184W        W91609   3.372  27.174  11.632
19185W        W91610  37.933  26.785   4.050
19186W        W91611  23.149  14.511  11.686
19187W        W91612  18.597  19.717  12.384
19188W        W91613  36.604  40.268  14.532
19189W        W91614   1.704   6.478   1.654
19190W        W91615  16.306  23.846   0.218
19191W        W91616  23.847  22.401   9.861
19192W        W91617  38.552  18.063   4.123
19193W        W91618  10.987  13.207  11.125
19194W        W91619   5.126  31.082   2.972
19195W        W91620  10.421  29.874   2.756
19196W        W91621  30.457  11.347   4.133
19197W        W91622  31.903   2.828  14.413
19198W        W91623  36.544  43.181  14.516
19199W        W91624  25.995  27.672  10.480
19200W        W91625  14.294  29.118  10.666
19201W        W91626   1.763  17.553   0.314
19202W        W91627   9.392  26.978   2.208
19203W        W91628  11.018  27.677  12.007
19204W        W91629   4.292  26.098  13.124
19205W        W91630   2.287   7.371  14.280
19206W        W91631  20.472   4.708   2.089
19207W        W91632  13.071  15.887   0.452
19208W        W91633   0.701  19.100  12.421
19209W        W91634  39.578  39.960   2.248
19210W        W91635  35.845  34.620   2.266
19211W        W91636  18.578  44.054  11.919
19212W        W91637  16.385   4.898   0.897
19213W        W91638  29.072  40.302   3.789
19214W        W91639   6.684  41.694   2.003
19215W        W91640   9.643   7.887  13.085
19216W        W91641  11.218   2.993  13.411
19217W        W91642  39.046  31.795  11.937
19218W        W91643  16.148  20.727   1.267
19219W        W91644   3.714  42.789  13.564
19220W        W91645   1.233  28.221   0.328
19221W        W91646  18.214  14.556   2.240
19222W        W91647  40.011   0.254   4.621
19223W        W91648  41.962  36.807   0.207
19224W        W91649   4.239  10.165  12.646
19225W        W91650  10.170  41.290   0.898
19226W        W91651  24.468  39.076   4.956
19227W        W91652  24.483   7.277   0.724
19228W        W91653  12.115   1.713  10.392
19229W        W91654  37.542   3.289   3.384
19230W        W91655   8.162  44.192   4.172
19231W        W91656  29.300  19.386  10.723
19232W        W91657  36.042  37.591   2.638
19233W        W91658  13.148   8.689   4.529
19234W        W91659  31.974  28.510   4.069
19235W        W91660  14.197   4.682   0.181
19236W        W91661  18.260  44.398   2.367
19237W        W91662   7.953  24.429   3.149
19238W        W91663  16.210   1.827  13.580
19239W        W91664  40.238  41.484  14.472
19240W        W91665  17.052  36.260   0.414
19241W        W91666  12.656   3.428  11.179
19242W        W91667  44.420  11.433  10.355
19243W        W91668  39.386   7.969  10.776
19244W        W91669  33.485  14.541   1.778
19245W        W91670  30.050  35.203   0.404
19246W        W91671  22.919  29.609   1.975
19247W        W91672  27.820  11.101  14.947
19248W        W91673  24.683  23.156   2.751
19249W        W91674  13.665  18.089  13.235
19250W        W91675  31.207   9.673   0.952
19251W        W91676  31.409  44.874   1.980
19252W        W91677   4.826  39.015   0.343
19253W        W91678  36.504  30.244  14.878
19254W        W91679  44.091  10.255  10.736
19255W        W91680   0.349   3.096   5.141
19256W        W91681   4.879  19.673   0.372
19257W        W91682  27.761   2.709   3.640
19258W        W91683  36.440  34.907  14.832
19259W        W91684  25.716  29.014  12.433
19260W        W91685  26.668  33.388  10.228
19261W        W91686  20.639  29.556   4.653
19262W        W91687  19.309  15.314   0.311
19263W        W91688  11.262  26.222   4.545
19264W        W91689   5.200  31.499  11.902
19265W        W91690  12.851  25.669   0.984
19266W        W91691  13.749   9.865  10.696
19267W        W91692  37.040  31.503  14.074
19268W        W91693  33.484  25.619   1.710
19269W        W91694   2.181   9.416  12.458
19270W        W91695  43.356  13.947  12.387
19271W        W91696  33.808  26.325   2.206
19272W        W91697   1.889  23.514   2.905
19273W        W91698  33.350  43.274  10.213
19274W        W91699  36.837  30.541   3.222
19275W        W91700  35.576  40.271  14.384
19276W        W91701  44.477  41.492  11.114
19277W        W91702   4.956  25.716   0.779
19278W        W91703  13.117   3.465  14.352
19279W        W91704  26.983  34.674  10.554
19280W        W91705   6.914   8.213   0.182
19281W        W91706  44.774   9.459   2.789
19282W        W91707  27.658  38.293  12.824
19283W        W91708  26.075  32.817   1.692
19284W        W91709  30.151  27.600   4.822
19285W        W91710  25.137  40.471  11.727
19286W        W91711  11.302  41.331   1.560
19287W        W91712   9.518  32.189   2.992
19288W        W91713  28.464  29.077  13.111
19289W        W91714  22.109   8.378  11.612
19290W        W91715  12.579  16.235  12.223
19291W        W91716  29.536  25.930  12.038
19292W        W91717  35.011   2.226   2.808
19293W        W91718  36.012  15.258   2.736
19294W        W91719  30.524  15.190  13.332
19295W        W91720  13.330   6.488  12.908
19296W        W91721  13.212  25.804   2.473
19297W        W91722  25.651  41.264   3.222
19298W        W91723  25.429   8.474   1.756
19299W        W91724  39.105  27.784   9.980
19300W        W91725   0.972   3.228  10.697
19301W        W91726  17.198  41.823  14.740
19302W        W91727   1.789  28.542   3.286
19303W        W91728   3.296   3.375  14.764
19304W        W91729   5.010  38.835  14.874
19305W        W91730  41.943  29.534   3.624
19306W        W91731  34.438   8.706  11.606
19307W        W91732   0.374  19.461   0.853
19308W        W91733  38.162  34.028  11.641
19309W        W91734   4.843  11.122  13.854
19310W        W91735  16.305  19.569   3.723
19311W        W91736   0.238  36.637  11.222
19312W        W91737  23.270  43.790   0.317
19313W        W91738  18.074   6.843   3.160
19314W        W91739   1.492  21.097  13.854
19315W        W91740  11.320  22.007  14.753
19316W        W91741  22.257  40.405   0.299
19317W        W91742  20.665   7.936  11.708
19318W        W91743  21.993   1.502  14.953
19319W        W91744   5.018   2.966  12.589
19320W        W91745  11.337  10.840   2.146
19321W        W91746  36.974  39.737  10.764
19322W        W91747  12.695   8.155  11.481
19323W        W91748   3.448  14.645   2.393
19324W        W91749  27.625  20.118  11.419
19325W        W91750   4.482  32.302   2.728
19326W        W91751  14.574   3.129  14.109
19327W        W91752  14.835  19.757  13.426
19328W        W91753   4.692  23.502   2.250
19329W        W91754  32.549  15.631   0.424
19330W        W91755   7.808  35.818   0.348
19331W        W91756   5.708  34.077   3.231
19332W        W91757  11.754  22.765  13.461
19333W        W91758  15.446  42.488   5.122
19334W        W91759   5.236  26.707  11.657
19335W        W91760  42.844  11.413  10.479
19336W        W91761  33.574  17.819   0.987
19337W        W91762  24.807  33.529  11.513
19338W        W91763  28.700  19.501   3.625
19339W        W91764  11.796  44.559  14.270
19340W        W91765   4.907  10.834   3.971
19341W        W91766  10.293   4.225   0.789
19342W        W91767  41.352  23.618  11.525
19343W        W91768   6.896  22.280  11.674
19344W        W91769  16.111  34.502   0.543
19345W        W91770  14.567  20.658  13.629
19346W        W91771   9.790   8.926  10.260
19347W        W91772  36.881  26.231   3.546
19348W        W91773  12.789  39.573   0.371
19349W        W91774  28.117  28.870  11.122
19350W        W91775  26.719  13.300   3.691
19351W        W91776  20.351   3.355  13.781
19352W        W91777  22.206  24.736  12.124
19353W        W91778  30.522  32.911  12.887
19354W        W91779  37.057  17.271  11.102
19355W        W91780  16.335  31.918   0.416
19356W        W91781  36.779  12.833  14.673
19357W        W91782  20.957  30.080  13.970
19358W        W91783  44.241   6.692  11.056
19359W        W91784  31.599  29.426   1.297
19360W        W91785  37.505  12.832  14.453
19361W        W91786  11.245  16.132   2.335
19362W        W91787   8.337  13.737  11.392
19363W        W91788   0.592  12.333  12.882
19364W        W91789  17.105  19.865   4.004
19365W        W91790  43.967  26.190   3.822
19366W        W91791  30.967  24.915  14.143
19367W        W91792  41.879  39.883   0.906
19368W        W91793  44.050  37.525  14.410
19369W        W91794   6.706  38.871   1.930
19370W        W91795  42.847  17.455  14.909
19371W        W91796  28.542   4.371   3.282
19372W        W91797  10.284  19.078  12.627
19373W        W91798  17.183   3.584  14.565
19374W        W91799  22.746  44.854   2.199
19375W        W91800  29.369   8.114   2.680
19376W        W91801  11.807  37.439  11.464
19377W        W91802  13.391  27.568  11.889
19378W        W91803   5.296   2.542  14.526
19379W        W91804  22.504  29.889  11.524
19380W        W91805   5.199  12.949  13.896
19381W        W91806   9.364  30.536   3.867
19382W        W91807  33.427  36.275  10.793
19383W        W91808  27.623   8.848  14.403
19384W        W91809  38.054  29.193  13.830
19385W        W91810  25.070  30.865   2.865
19386W        W91811  16.164  10.256   3.108
19387W        W91812  20.238  28.200   4.557
19388W        W91813  42.510  15.371  11.175
19389W        W91814  24.559  24.663   1.184
19390W        W91815  37.110   4.842  13.052
19391W        W91816  23.137   4.539  14.592
19392W        W91817  41.357  42.653  10.736
19393W        W91818   2.217  42.070   0.954
19394W        W91819  36.834  26.548  10.305
19395W        W91820  32.165   0.746   2.647
19396W        W91821  17.829  23.064  14.318
19397W        W91822  36.701   8.325  10.535
19398W        W91823   5.225  13.333  11.203
19399W        W91824  42.454  42.963   1.642
19400W        W91825  43.763  16.769   3.656
19401W        W91826  39.329  10.755   4.499
19402W        W91827  37.382  20.525   2.327
19403W        W91828  34.805  29.550   3.414
19404W        W91829   1.995  29.599  11.170
19405W        W91830  34.914   4.912   1.898
19406W        W91831  38.956  11.000   3.302
19407W        W91832  36.879  37.962  13.408
19408W        W91833  12.924   8.930   2.261
19409W        W91834  14.740  27.410   2.733
19410W        W91835  32.005  11.281   1.789
19411W        W91836   8.897  32.698  11.132
19412W        W91837  20.799  41.362   2.797
19413W        W91838  37.479  24.642  10.875
19414W        W91839  15.379   2.483   1.770
19415W        W91840  31.919  20.166   0.337
19416W        W91841  31.030   5.939   1.762
19417W        W91842   9.082   4.714  11.998
19418W        W91843  33.829   9.343   1.297
19419W        W91844  16.673   9.319  13.786
19420W        W91845  44.151  35.807   4.159
19421W        W91846  11.303   1.199   1.426
19422W        W91847   1.464   5.614   1.739
19423W        W91848  44.883  24.762   0.411
19424W        W91849  41.133  14.956  14.839
19425W        W91850  34.568  38.466  13.022
19426W        W91851   0.438  22.137   3.713
19427W        W91852   6.298  44.350  10.718
19428W        W91853  14.768  18.707  14.764
19429W        W91854   6.635  13.265  10.768
19430W        W91855  31.549  14.689   1.553
19431W        W91856  19.598  25.043   2.825
19432W        W91857   6.848  32.552  14.895
19433W        W91858   0.844  37.891   1.855
19434W        W91859  23.312  26.127   3.272
19435W        W91860  11.738  42.703  10.373
19436W        W91861  41.098   1.267  11.054
19437W        W91862  16.539  35.482   4.952
19438W        W91863  37.347  44.271  11.421
19439W        W91864   2.986  31.006   0.962
19440W        W91865  41.472  42.466   2.344
19441W        W91866   4.317  35.010  10.631
19442W        W91867  31.084   5.260   4.351
19443W        W91868  39.277  15.165  12.471
19444W        W91869  33.867  17.644  12.130
19445W        W91870   4.291   1.752   2.733
19446W        W91871  44.756  37.561   4.437
19447W        W91872  35.349   5.005   0.480
19448W        W91873  18.427  32.506   0.002
19449W        W91874  26.358   7.815   4.189
19450W        W91875  42.419  11.214  12.557
19451W        W91876  29.208  10.307   2.744
19452W        W91877  18.140   0.517   4.638
19453W        W91878  27.183  16.921   1.730
19454W        W91879  10.404  26.768  12.650
19455W        W91880  38.249   6.630   0.451
19456W        W91881  16.317  38.462  13.486
19457W        W91882  31.133  18.464   4.150
19458W        W91883  39.862  37.476  13.650
19459W        W91884  38.687   8.694  13.616
19460W        W91885  35.199  19.812   4.156
19461W        W91886   0.839  19.800   4.541
19462W        W91887  18.088  10.777   0.364
19463W        W91888  12.777  32.388  12.324
19464W        W91889  27.902   1.482  11.675
19465W        W91890  40.114  29.575   1.392
19466W        W91891  41.823  26.515  13.666
19467W        W91892  34.098  20.541  14.619
19468W        W91893  16.692  29.060  13.057
19469W        W91894  31.103  41.016  11.659
19470W        W91895  24.634  31.583   0.076
19471W        W91896  14.137  18.321   2.254
19472W        W91897   0.877  28.824   0.585
19473W        W91898  16.806  36.589  11.123
19474W        W91899  17.169  14.677  12.419
19475W        W91900   5.186  14.808   0.412
19476W        W91901  20.667  31.509   1.140
19477W        W91902  42.437  25.977   0.196
19478W        W91903  32.698  32.073  14.794
19479W        W91904  10.740  28.508   2.354
19480W        W91905  37.357  14.819   2.406
19481W        W91906   0.367  33.967  14.264
19482W        W91907  34.541   3.218   2.941
19483W        W91908   7.171  17.189  12.967
19484W        W91909  41.670   3.407  14.272
19485W        W91910  23.756  29.135   0.755
19486W        W91911  14.117  35.861   3.035
19487W        W91912   7.320  10.843  11.958
19488W        W91913   8.858  13.702   4.749
19489W        W91914  12.814  20.365   0.429
19490W        W91915  15.682  22.957   2.436
19491W        W91916  27.454  18.439   0.470
19492W        W91917  30.613   3.999   0.858
19493W        W91918  33.114  14.038  14.928
19494W        W91919  21.666  15.158   3.183
19495W        W91920  39.064  28.420   3.179
19496W        W91921   6.321  38.547   4.423
19497W        W91922  14.236  40.414  11.869
19498W        W91923  33.165  23.469  11.926
19499W        W91924  14.528  24.242   3.750
19500W        W91925  26.245  22.960   4.637
19501W        W91926  33.387  40.607  13.751
19502W        W91927  44.840  27.483  11.027
19503W        W91928  12.298  22.803   3.098
19504W        W91929  16.214  35.445  11.525
19505W        W91930  31.308  44.903   2.830
19506W        W91931  43.777  14.142   1.012
19507W        W91932   5.107  42.366   4.549
19508W        W91933  20.589   1.869  11.194
19509W        W91934  40.064  15.636  14.725
19510W        W91935  15.525  17.246   3.193
19511W        W91936  38.457  33.766   0.046
19512W        W91937  31.494  37.420  13.302
19513W        W91938  32.825  40.602   3.715
19514W        W91939   1.694  11.821   4.587
19515W        W91940   0.299  23.908  13.881
19516W        W91941  15.270  27.055   2.691
19517W        W91942  10.899  21.540   2.411
19518W        W91943  26.297  11.308  11.138
19519W        W91944  30.068  25.876  12.881
19520W        W91945   8.190  37.876  11.441
19521W        W91946  29.758  17.316   0.478
19522W        W91947  39.435  19.249   1.238
19523W        W91948  34.960   0.930   2.224
19524W        W91949  36.168  38.648   1.668
19525W        W91950   8.960  40.615  10.939
19526W        W91951   2.462  35.215   1.103
19527W        W91952  22.131  33.315   2.204
19528W        W91953  17.955  31.271   4.418
19529W        W91954   9.489  21.144  11.499
19530W        W91955  35.509   4.300   4.185
19531W        W91956  20.028  37.576  11.081
19532W        W91957  23.673  25.500  12.464
19533W        W91958   2.749   2.133   3.413
19534W        W91959  18.666   0.733   1.758
19535W        W91960  24.786  39.837  14.946
19536W        W91961  44.405  20.535  12.474
19537W        W91962  21.737  34.425  13.720
19538W        W91963  31.034   2.999   1.272
19539W        W91964  12.884   5.929  11.360
19540W        W91965  39.938  13.533   3.130
19541W        W91966  39.766  30.137  11.659
19542W        W91967  36.914   2.792  13.395
19543W        W91968   7.276  10.901   3.199
19544W        W91969  31.424  12.815   2.823
19545W        W91970   3.188  22.701  10.753
19546W        W91971  11.300  32.313   3.384
19547W        W91972  40.878   2.961   0.423
19548W        W91973   5.757  30.457   3.362
19549W        W91974  28.487  29.892  10.582
19550W        W91975  15.038   1.040   2.667
19551W        W91976  20.684  11.733  12.746
19552W        W91977  28.465  35.534  13.863
19553W        W91978  40.649  11.506  10.185
19554W        W91979   4.590  36.501  12.020
19555W        W91980  11.053   9.599  10.991
19556W        W91981   3.508  17.807  13.882
19557W        W91982   1.465  11.731  14.096
19558W        W91983  25.451   3.350  14.896
19559W        W91984  12.595  42.416   2.640
19560W        W91985  35.810  17.608  12.457
19561W        W91986  33.530   9.643  10.793
19562W        W91987  18.095  28.688   0.525
19563W        W91988  34.615  15.789  12.101
19564W        W91989  43.326  17.144  14.980
19565W        W91990   3.449  38.132   2.573
19566W        W91991  33.648  10.661  12.443
19567W        W91992  13.845  19.914  12.630
19568W        W91993  18.937  25.196   0.665
19569W        W91994   7.313  26.013   2.674
19570W        W91995  38.977  35.046   2.247
19571W        W91996  40.565   5.901  14.408
19572W        W91997  22.330  14.184  13.894
19573W        W91998  26.142  24.115  11.039
19574W        W91999  18.178   1.528   1.821
19575W        W92000  37.882  39.825  14.993
19576W        W92001  29.650   6.792   2.153
19577W        W92002  33.791  11.563  11.133
19578W        W92003  16.210  12.346  14.811
19579W        W92004  34.881  26.985   4.136
19580W        W92005   4.753  22.510   3.711
19581W        W92006   1.959   2.497  11.834
19582W        W92007   7.288  15.445  13.780
19583W        W92008   1.125  44.571  14.335
19584W        W92009   8.363  43.379  13.608
19585W        W92010  26.244  10.158   3.138
19586W        W92011  17.834  12.232  11.526
19587W        W92012  32.051  16.162   5.513
19588W        W92013   4.899   1.926  10.686
19589W        W92014  38.924  36.927   4.594
19590W        W92015  31.830  12.081   3.548
19591W        W92016  38.395  35.909  14.018
19592W        W92017  44.476  37.560   0.680
19593W        W92018  16.097  26.682  14.141
19594W        W92019  10.263  31.606  11.146
19595W        W92020  30.461  12.272  14.537
19596W        W92021   2.957  22.156   3.816
19597W        W92022  33.950  33.373  13.201
19598W        W92023  32.950   0.312  11.989
19599W        W92024  23.682  31.913  10.734
19600W        W92025  11.617   8.212   5.295
19601W        W92026  40.932  34.600   2.659
19602W        W92027  38.985  11.119  10.874
19603W        W92028   6.191  31.095   2.943
19604W        W92029   6.450  25.038   2.203
19605W        W92030   4.488  12.720  14.865
19606W        W92031  31.578  26.075  12.551
19607W        W92032  15.150  38.737  11.448
19608W        W92033  33.513  12.877   3.178
19609W        W92034   4.218  44.913  12.391
19610W        W92035  14.367  44.444   3.947
19611W        W92036  11.284   6.469   0.736
19612W        W92037   9.665  23.627   4.840
19613W        W92038  23.498  17.726  13.089
19614W        W92039   4.673  11.598  12.778
19615W        W92040   1.712  36.518  10.515
19616W        W92041  31.050  20.505   0.959
19617W        W92042  19.099  16.600  14.917
19618W        W92043  18.452   2.952  10.406
19619W        W92044  42.415  44.934   4.458
19620W        W92045  37.378   0.201  12.126
19621W        W92046  31.945  10.149  14.856
19622W        W92047  11.459  21.523  13.476
19623W        W92048  40.796  12.527  11.158
19624W        W92049   0.980   5.744   0.421
19625W        W92050  23.040  27.492   3.235
19626W        W92051  24.523   8.785   4.555
19627W        W92052   2.637  26.144   2.965
19628W        W92053  32.966  25.148   1.330
19629W        W92054  40.709   6.969  13.640
19630W        W92055  24.252  30.518   1.763
19631W        W92056   0.327  32.867  11.457
19632W        W92057   3.839  42.319  11.440
19633W        W92058   8.284  34.303   4.725
19634W        W92059   7.917  42.035  12.717
19635W        W92060   7.431  17.603  14.435
19636W        W92061  43.533   7.121   1.571
19637W        W92062  22.386   8.391  10.806
19638W        W92063   6.555  29.088  11.562
19639W        W92064  15.435  13.795  11.212
19640W        W92065  42.461   7.426  11.506
19641W        W92066  20.755  39.373   2.537
19642W        W92067   4.195  26.724  12.623
19643W        W92068  28.728  33.196  13.319
19644W        W92069  37.968   0.691  11.456
19645W        W92070  32.499  42.678   2.391
19646W        W92071  34.280   7.826  10.408
19647W        W92072  25.322  17.375   4.840
19648W        W92073  38.505  11.912  12.326
19649W        W92074  25.281   5.736  12.933
19650W        W92075  17.734  41.431   1.741
19651W        W92076  23.694  18.873  11.520
19652W        W92077  13.286  19.203  12.041
19653W        W92078  16.545  44.257   0.482
19654W        W92079  12.665  38.333   0.012
19655W        W92080  24.065  35.816  13.097
19656W        W92081  41.283  18.173   4.372
19657W        W92082   5.377  20.170   2.195
19658W        W92083   3.746  37.858   0.489
19659W        W92084  35.416  41.445   2.700
19660W        W92085  24.265   0.833   3.137
19661W        W92086  34.412  22.478   3.715
19662W        W92087   6.902  34.063   2.131
19663W        W92088  26.546  20.243   0.646
19664W        W92089  44.153  30.043   4.280
19665W        W92090  43.855  22.993   0.914
19666W        W92091  33.940  12.674   1.913
19667W        W92092  12.215  32.714   3.707
19668W        W92093   1.513  17.107   2.886
19669W        W92094  40.063  21.740  12.534
19670W        W92095   7.393   5.229  14.403
19671W        W92096  31.558  10.792   2.406
19672W        W92097  30.456  25.664   0.520
19673W        W92098  43.989  32.171  12.457
19674W        W92099  28.023  15.120   3.803
19675W        W92100  24.007  20.771  12.441
19676W        W92101  33.485  43.179  10.971
19677W        W92102  25.526  34.332   4.030
19678W        W92103  22.996  44.948  14.763
19679W        W92104  24.177  42.867  10.558
19680W        W92105   2.775  19.751   1.318
19681W        W92106  39.095  10.874   1.891
19682W        W92107  37.060  11.090  13.722
19683W        W92108  11.887   1.869   0.958
19684W        W92109  14.730  25.002  11.949
19685W        W92110  36.301  39.848  10.135
19686W        W92111  32.335  18.119  13.536
19687W        W92112   9.107  16.340   0.489
19688W        W92113  21.160  16.099  14.215
19689W        W92114  14.713  18.579   0.354
19690W        W92115  44.985  26.629   2.605
19691W        W92116  44.302  34.680   1.294
19692W        W92117  12.560  18.754  13.098
19693W        W92118  13.418  21.569   1.359
19694W        W92119  25.147  32.108   4.786
19695W        W92120  38.290   8.409  14.879
19696W        W92121  23.107   9.417   0.893
19697W        W92122  39.326  35.577  14.318
19698W        W92123  20.262  22.652   1.729
19699W        W92124   2.433  28.952  13.015
19700W        W92125   2.456  30.597  14.347
19701W        W92126  44.021   9.709  14.279
19702W        W92127  12.513   3.306  13.124
19703W        W92128  41.467  43.317  11.851
19704W        W92129   3.252  42.358   2.370
19705W        W92130   2.853   5.694  11.516
19706W        W92131  39.567  25.251   3.252
19707W        W92132   2.409   1.543  11.086
19708W        W92133  30.386  14.207   0.935
19709W        W92134  29.552   9.425  12.887
19710W        W92135  19.083  39.933   0.227
19711W        W92136  31.943   6.023   0.548
19712W        W92137   7.857  14.689  11.953
19713W        W92138  17.279  24.714  13.312
19714W        W92139  13.822  43.037   1.296
19715W        W92140  43.268  25.459   0.221
19716W        W92141  35.292   7.774  13.593
19717W        W92142  25.200  40.747  12.740
19718W        W92143  23.139  39.039   0.731
19719W        W92144  35.189  27.199  12.306
19720W        W92145  34.327  11.821   3.483
19721W        W92146   4.156   4.881   0.996
19722W        W92147  12.795  34.048   0.435
19723W        W92148   1.040  40.230   2.322
19724W        W92149  19.007  26.108   3.641
19725W        W92150  32.383  10.716   2.846
19726W        W92151  40.120  34.650   2.697
19727W        W92152   6.378  24.262   4.139
19728W        W92153  42.993  34.152   2.773
19729W        W92154  32.505  38.604   4.343
19730W        W92155  18.031  42.993  11.905
19731W        W92156  29.442  35.149   2.924
19732W        W92157   7.747  41.068   3.122
19733W        W92158  26.117  15.339   1.463
19734W        W92159  24.899   3.551   4.311
19735W        W92160  18.020  16.932   2.319
19736W        W92161  43.489  11.933  12.564
19737W        W92162  44.339  19.536  13.454
19738W        W92163  19.342  23.451  11.727
19739W        W92164   3.902  40.514   2.332
19740W        W92165  12.758  20.108   4.838
19741W        W92166  19.513  43.367   4.342
19742W        W92167  11.868  15.226  13.825
19743W        W92168  18.533   1.761   3.190
19744W        W92169  13.125  32.947  12.863
19745W        W92170  31.004  38.335  14.747
19746W        W92171  26.741  38.685   1.488
19747W        W92172  13.780  38.500   0.688
19748W        W92173  43.939   5.263   1.669
19749W        W92174  15.754  18.886   3.910
19750W        W92175  44.910   4.080   1.718
19751W        W92176  11.792  33.063  10.509
19752W        W92177  38.890  34.897   3.675
19753W        W92178  39.399  39.121  13.529
19754W        W92179  40.764  13.250   3.162
19755W        W92180  17.029  43.371  14.236
19756W        W92181  44.399  37.358  11.801
19757W        W92182  27.407  41.183   3.387
19758W        W92183   2.439   9.273  11.138
19759W        W92184  18.855  41.663  11.153
19760W        W92185   6.803   9.215  14.900
19761W        W92186  20.875  42.823   4.010
19762W        W92187  20.686  18.338   0.299
19763W        W92188  20.934  38.262  12.558
19764W        W92189  41.299  34.170  14.370
19765W        W92190  14.904  14.912  14.059
19766W        W92191  16.859  32.625  14.003
19767W        W92192  20.262   0.131   4.721
19768W        W92193  18.223   0.243  12.969
19769W        W92194  29.038  16.776  10.643
19770W        W92195  26.216  20.580   3.239
19771W        W92196   6.363  36.368  13.932
19772W        W92197  32.225   7.364   2.556
19773W        W92198   6.348   9.245   2.604
19774W        W92199   4.453  11.890   0.825
19775W        W92200  19.105  20.178  11.678
19776W        W92201  11.297  17.074   0.198
19777W        W92202   1.551  16.263  10.704
19778W        W92203  18.315  41.509   2.416
19779W        W92204  24.955   2.664   1.792
19780W        W92205   1.993  22.400   2.996
19781W        W92206  11.194   5.868   4.087
19782W        W92207  33.685  41.748  13.124
19783W        W92208   6.843  23.009  11.899
19784W        W92209  39.944   5.290   3.593
19785W        W92210  32.703  44.406  11.618
19786W        W92211   0.999  39.678  12.927
19787W        W92212  38.915  40.668  12.931
19788W        W92213  13.923  29.700   0.405
19789W        W92214  41.286  19.760   2.818
19790W        W92215  17.341  37.896  14.846
19791W        W92216  27.946  39.100   4.181
19792W        W92217  44.789  41.895  11.902
19793W        W92218   0.224  34.910  14.541
19794W        W92219  40.266  36.150  12.629
19795W        W92220  17.717   3.274   2.418
19796W        W92221   1.718  38.957  14.422
19797W        W92222  13.797  12.845   3.638
19798W        W92223  25.644  21.137  14.263
19799W        W92224  20.475  32.964  11.888
19800W        W92225  20.672  22.037   0.788
19801W        W92226  42.814  30.170  12.849
19802W        W92227   2.644  31.375   0.815
19803W        W92228  21.837  14.572   4.264
19804W        W92229  34.036   5.866   4.657
19805W        W92230  20.195  26.067  11.928
19806W        W92231  31.192   4.322   3.767
19807W        W92232  23.688  19.440   3.240
19808W        W92233  26.451  29.930   1.218
19809W        W92234   5.608  37.747  12.899
19810W        W92235  26.615  38.788  14.237
19811W        W92236  30.632   4.333   1.298
19812W        W92237   2.825  32.456   0.307
19813W        W92238  44.536  43.594  14.383
19814W        W92239  15.749   0.921  12.612
19815W        W92240  18.587   4.104   1.956
19816W        W92241  42.294  12.440   0.649
19817W        W92242  15.824  27.326   1.980
19818W        W92243  18.257  17.244  12.960
19819W        W92244  10.314   3.129   4.228
19820W        W92245  23.063   6.407   0.797
19821W        W92246  39.776   6.228   1.416
19822W        W92247  28.051  14.601  12.558
19823W        W92248  19.753  14.730   1.372
19824W        W92249   5.898   2.979  12.432
19825W        W92250  22.155   6.830  11.491
19826W        W92251  13.290  12.753   4.499
19827W        W92252   6.422  43.788  12.459
19828W        W92253  17.178  11.841   4.534
19829W        W92254  36.809  31.874   1.825
19830W        W92255  25.990   0.041   1.275
19831W        W92256  42.088  21.417  13.500
19832W        W92257   4.447  36.482  11.095
19833W        W92258  34.506  23.235  12.056
19834W        W92259  26.136  15.893   0.270
19835W        W92260  15.659   4.836  14.066
19836W        W92261  36.232  35.513  11.283
19837W        W92262  12.272  27.975  13.125
19838W        W92263   9.466  27.191  12.577
19839W        W92264  22.928  44.036  10.619
19840W        W92265  20.185  14.713  11.614
19841W        W92266  20.086  21.686  12.398
19842W        W92267   7.685   2.717   1.313
19843W        W92268  10.842   1.757   0.479
19844W        W92269  13.681  36.088   0.330
19845W        W92270   4.308  21.824  11.342
19846W        W92271   0.162  22.142   3.274
19847W        W92272  14.181   5.255  10.928
19848W        W92273  18.464  28.506   1.397
19849W        W92274  35.468  13.140   3.192
19850W        W92275   4.568  21.466   0.889
19851W        W92276  25.039  32.647   1.159
19852W        W92277  12.936  12.091   0.139
19853W        W92278  15.348  15.564   3.800
19854W        W92279  14.629  43.687   1.931
19855W        W92280  30.508  24.735   1.168
19856W        W92281  27.614  34.477   4.227
19857W        W92282  13.210  14.750   2.452
19858W        W92283  41.986   7.269   3.736
19859W        W92284  40.973  32.589  11.496
19860W        W92285  11.645   2.287  13.590
19861W        W92286  20.290   8.801  13.175
19862W        W92287  19.784  16.888  10.956
19863W        W92288  26.715  43.838   2.223
19864W        W92289  24.936   6.875  13.024
19865W        W92290  23.690   0.334   4.663
19866W        W92291  23.092  36.082  12.294
19867W        W92292  38.798  40.612  13.855
19868W        W92293  42.441  33.413   0.051
19869W        W92294  26.088   5.048  12.975
19870W        W92295   7.708  40.843  10.662
19871W        W92296  34.031  16.526  10.222
19872W        W92297   6.181  20.204   3.326
19873W        W92298  15.055  17.870   4.697
19874W        W92299  44.178  38.535   2.272
19875W        W92300  19.989  33.628   4.244
19876W        W92301   0.712   5.190   2.369
19877W        W92302  13.730  27.970  11.890
19878W        W92303  39.338  22.668  14.367
19879W        W92304   9.405  25.547  13.569
19880W        W92305   9.075  14.339   2.322
19881W        W92306   0.127   4.251   4.037
19882W        W92307  25.290  25.249   0.862
19883W        W92308   6.933  34.540  13.629
19884W        W92309   1.842  36.683   4.614
19885W        W92310  10.363  36.804  10.643
19886W        W92311  44.674   1.429   0.297
19887W        W92312  16.683  32.751  10.185
19888W        W92313   4.857  28.976  14.374
19889W        W92314  37.572   5.878  13.454
19890W        W92315  41.506  15.780  13.485
19891W        W92316  11.695  25.600   2.393
19892W        W92317  21.050  15.599   2.138
19893W        W92318  17.792  21.118  11.952
19894W        W92319   7.041  42.363  12.916
19895W        W92320   5.819  34.413   1.141
19896W        W92321  42.274  17.525  12.945
19897W        W92322  30.069  35.367  14.439
19898W        W92323  10.681   0.895  11.234
19899W        W92324  31.106  24.446   2.284
19900W        W92325   0.879  11.370  12.755
19901W        W92326   1.342  25.737  13.435
19902W        W92327  11.903  10.111   4.642
19903W        W92328   1.130  22.771   0.884
19904W        W92329  22.233  10.957   2.487
19905W        W92330  38.626  24.258   5.455
19906W        W92331   5.891  33.205   2.159
19907W        W92332   7.290  24.281   2.066
19908W        W92333  41.884   9.967   2.612
19909W        W92334   6.450  38.401   0.280
19910W        W92335  30.545   7.809   4.799
19911W        W92336  41.309  24.544   3.868
19912W        W92337  27.025  23.117   4.050
19913W        W92338  37.327   6.614   0.199
19914W        W92339  10.863  12.305  14.464
19915W        W92340  21.170  34.318  13.574
19916W        W92341  33.419  12.118  12.402
19917W        W92342  26.968  30.668   4.319
19918W        W92343  21.160  18.248   1.195
19919W        W92344   1.466   9.825  10.495
19920W        W92345  35.058  15.267   2.872
19921W        W92346  42.320  30.196   3.343
19922W        W92347  35.663  40.515  10.666
19923W        W92348  20.308  15.424  13.347
19924W        W92349   2.971  21.580   1.680
19925W        W92350  30.557  43.262   4.556
19926W        W92351   3.673  26.608   1.593
19927W        W92352   6.398  19.294   2.932
19928W        W92353  44.943  28.952  11.873
19929W        W92354   2.080  32.178  11.751
19930W        W92355  37.543   2.434  11.159
19931W        W92356  20.582  28.477   0.939
19932W        W92357  37.867  17.152   2.806
19933W        W92358  40.281  38.573  14.097
19934W        W92359   3.025  11.004   0.267
19935W        W92360  27.439  31.328   0.727
19936W        W92361  27.341  34.073  12.120
19937W        W92362  27.511  25.198  11.797
19938W        W92363  25.271  18.343  14.752
19939W        W92364   3.005  44.620   2.376
19940W        W92365  14.234  21.433   3.662
19941W        W92366  44.694  19.144  12.642
19942W        W92367   6.154  39.420  13.630
19943W        W92368  35.094  13.195   0.103
19944W        W92369  34.450   9.198   2.610
19945W        W92370  44.839   4.778  14.836
19946W        W92371   2.724  32.118  13.911
19947W        W92372  21.266  38.960   0.935
19948W        W92373  40.394   9.442  13.006
19949W        W92374  42.531   1.174  12.449
19950W        W92375  36.071  40.522   4.202
19951W        W92376  27.205   5.864  14.850
19952W        W92377  31.585   3.136  10.780
19953W        W92378  10.694  12.860  14.774
19954W        W92379  24.586   5.111  14.484
19955W        W92380  42.113  38.117  12.905
19956W        W92381  10.219  29.692   5.049
19957W        W92382  39.008  13.620  10.981
19958W        W92383  27.816  22.093  12.267
19959W        W92384  34.360  26.170   3.869
19960W        W92385   9.307  32.796  11.849
19961W        W92386  38.245  20.583  13.863
19962W        W92387  15.532  30.280  12.990
19963W        W92388  37.824   9.757   4.491
19964W        W92389   4.850  32.687  11.837
19965W        W92390   6.412  39.117   2.674
19966W        W92391  11.229  40.434  14.587
19967W        W92392  38.351  43.228  13.546
19968W        W92393  39.799  38.396  10.916
19969W        W92394  29.597   5.226  14.429
19970W        W92395  24.479   8.108   4.286
19971W        W92396  32.370   8.679  13.545
19972W        W92397  14.179  25.144   5.165
19973W        W92398   5.767  36.089   2.699
19974W        W92399  16.833  19.267   0.369
19975W        W92400  42.614   0.032   2.815
19976W        W92401  11.724   1.950   4.109
19977W        W92402  32.875  10.465  14.208
19978W        W92403  24.918  31.953   1.739
19979W        W92404   1.665  36.038   1.735
19980W        W92405  22.419  14.273  10.653
19981W        W92406  44.761  42.776   1.302
19982W        W92407  36.163   5.646  14.908
19983W        W92408  40.548   8.890   1.232
19984W        W92409  33.017  14.034   2.210
19985W        W92410   1.801  24.327  10.672
19986W        W92411  42.434  16.461  12.644
19987W        W92412   5.263  19.173   2.251
19988W        W92413  19.730  43.833   4.488
19989W        W92414  33.528  34.113   3.776
19990W        W92415  27.563   6.868  14.344
19991W        W92416  34.033  24.603  12.093
19992W        W92417   0.507  26.083  14.417
19993W        W92418  16.724  26.660   2.831
19994W        W92419  27.492  23.705  14.306
19995W        W92420  23.058  21.690   3.727
19996W        W92421   7.819  40.269   1.806
19997W        W92422  14.383  37.041   3.373
19998W        W92423  27.775  24.699   0.723
19999W        W92424  17.219   2.260   0.949
20000W        W92425  11.254  44.478   1.736
20001W        W92426  23.139   7.877   0.820
20002W        W92427   6.418  27.463   2.914
20003W        W92428  33.814   0.499   5.224
20004W        W92429   9.240  30.127   5.040
20005W        W92430  28.934  15.563   4.106
20006W        W92431  23.078  22.587   3.757
20007W        W92432  35.273  29.617  13.560
20008W        W92433   5.287  40.997   0.673
20009W        W92434   7.934  26.597  11.145
20010W        W92435   3.793  31.058  10.559
20011W        W92436  11.235  41.834   1.465
20012W        W92437  26.489  27.610  10.662
20013W        W92438  17.221  16.888   4.907
20014W        W92439  20.729  42.254   2.447
20015W        W92440   1.502  11.881   0.298
20016W        W92441  30.784  13.573  13.220
20017W        W92442   3.948  24.049   2.314
20018W        W92443  19.490  14.643  13.453
20019W        W92444  26.519  38.413   4.956
20020W        W92445  14.668   4.516   0.385
20021W        W92446  43.361  16.684  12.604
20022W        W92447  37.080   9.633   3.588
20023W        W92448  15.889  21.251   1.406
20024W        W92449  12.455  23.397   0.306
20025W        W92450  40.484  26.646  13.634
20026W        W92451  33.382  25.001  13.994
20027W        W92452   4.411   1.061   3.262
20028W        W92453   5.636  17.446   4.560
20029W        W92454  33.842  35.505  10.243
20030W        W92455   0.917  16.182   4.620
20031W        W92456   1.892  14.795  11.465
20032W        W92457  36.137  35.869   2.175
20033W        W92458  16.587  10.561  11.097
20034W        W92459  35.629  32.481   0.913
20035W        W92460  32.018  37.314   0.512
20036W        W92461  25.069  22.277  11.067
20037W        W92462  39.420  38.442  10.547
20038W        W92463  37.205  13.599   1.298
20039W        W92464  10.552  23.278  12.219
20040W        W92465  13.826  22.028  14.419
20041W        W92466  27.380  37.921   1.851
20042W        W92467  16.078  38.123  14.921
20043W        W92468  32.897  34.654  12.421
20044W        W92469  37.741   9.904  11.210
20045W        W92470  34.750  22.981   4.570
20046W        W92471  20.178  19.675   4.667
20047W        W92472  14.644  40.168   5.189
20048W        W92473   1.578  17.555   0.805
20049W        W92474  29.367  18.268   1.361
20050W        W92475  30.158  25.433  12.612
20051W        W92476   3.403  14.328  14.085
20052W        W92477  19.817  42.801   3.164
20053W        W92478  12.240   8.136   3.260
20054W        W92479   3.895  44.302   4.094
20055W        W92480  18.706   4.413   2.937
20056W        W92481  10.315  20.657   0.285
20057W        W92482  33.067   2.975   4.350
20058W        W92483   5.000   9.956   2.144
20059W        W92484   1.159   6.756   4.551
20060W        W92485  42.802  40.770  12.784
20061W        W92486   2.781   7.215  14.265
20062W        W92487  16.331   7.875   2.441
20063W        W92488  28.170  22.803   3.398
20064W        W92489  17.575  33.582   3.301
20065W        W92490  42.817  34.938  13.343
20066W        W92491  12.136  37.850   1.579
20067W        W92492  28.995  12.181   0.288
20068W        W92493  35.603  37.587  12.058
20069W        W92494   1.939  34.060  10.854
20070W        W92495  43.227  14.256   4.623
20071W        W92496  21.136   5.764   3.342
20072W        W92497  41.502   3.069   4.195
20073W        W92498  35.974  33.037   1.629
20074W        W92499  17.125  26.933   0.503
20075W        W92500  12.381  10.705   4.877
20076W        W92501  27.568  11.556  14.912
20077W        W92502  36.799   7.690   3.875
20078W        W92503  29.649  23.941   1.751
20079W        W92504   9.299  23.953  13.349
20080W        W92505   7.205  29.520   2.392
20081W        W92506  29.819  26.577   0.388
20082W        W92507  24.695   7.756   0.033
20083W        W92508  42.397  24.634   2.440
20084W        W92509  42.911  16.255  13.378
20085W        W92510  40.310  33.043   2.203
20086W        W92511   0.935  35.583   3.819
20087W        W92512  23.599  32.139  12.112
20088W        W92513   9.649  31.730   2.306
20089W        W92514  40.899   0.404   2.686
20090W        W92515  20.264  34.846   1.675
20091W        W92516  10.715  39.900   3.670
20092W        W92517   9.560  38.139  13.081
20093W        W92518   3.330  18.961   2.854
20094W        W92519  21.348   1.991   3.789
20095W        W92520  10.463  11.983   1.918
20096W        W92521  33.997  32.932  11.108
20097W        W92522  35.948   7.989   0.607
20098W        W92523  39.497  13.920  11.917
20099W        W92524  30.529  41.753   2.729
20100W        W92525  24.475  40.919   3.846
20101W        W92526  15.731   1.555   4.567
20102W        W92527  37.487  41.524   4.282
20103W        W92528  40.279  33.516   1.973
20104W        W92529  33.956  31.409  12.522
20105W        W92530  14.691  44.830   3.857
20106W        W92531  26.376   2.376   1.476
20107W        W92532  38.797  23.403   4.983
20108W        W92533  13.894  36.642  13.040
20109W        W92534  27.673  28.910   2.158
20110W        W92535   3.476  21.136  12.573
20111W        W92536  13.456  31.337   2.284
20112W        W92537  19.470  42.953  12.034
20113W        W92538  41.178   0.656   1.415
20114W        W92539  36.068  30.683  12.457
20115W        W92540  16.693  40.881  14.408
20116W        W92541  31.976  29.274  11.462
20117W        W92542  35.267  22.663  10.411
20118W        W92543  38.390  15.293  10.643
20119W        W92544  21.682  19.627   2.691
20120W        W92545   0.440  30.697   2.885
20121W        W92546  29.022  34.389   0.654
20122W        W92547  28.650  28.904   3.663
20123W        W92548  19.151  36.436  10.415
20124W        W92549  27.058  44.789  13.752
20125W        W92550  21.104  37.999  11.400
20126W        W92551   1.929  11.362   2.821
20127W        W92552  31.985   2.684  11.193
20128W        W92553  31.218  44.753  14.408
20129W        W92554  35.093  25.759   2.655
20130W        W92555  14.497  31.583   0.480
20131W        W92556   6.246  38.923   4.078
20132W        W92557  38.398  19.655  14.295
20133W        W92558   2.047  35.909  13.916
20134W        W92559  10.630  40.464  11.619
20135W        W92560   2.870   1.379  10.632
20136W        W92561  23.454  39.561   4.672
20137W        W92562  24.517  33.067  11.205
20138W        W92563  34.465  43.804   1.236
20139W        W92564   7.665  24.637   0.265
20140W        W92565  43.134  16.567  14.933
20141W        W92566  44.927  34.157  12.143
20142W        W92567  16.514  38.434   4.578
20143W        W92568  24.756  12.225   2.376
20144W        W92569   2.813  41.794   2.369
20145W        W92570  35.619  24.920  14.312
20146W        W92571  38.883   4.696  13.919
20147W        W92572  15.728  42.941   0.911
20148W        W92573  42.037  38.636  12.950
20149W        W92574  43.761  22.571  14.409
20150W        W92575  11.561  30.466  11.671
20151W        W92576  11.876  38.327  10.285
20152W        W92577  32.613  15.295   0.029
20153W        W92578  21.581  20.873   2.572
20154W        W92579  37.615  16.707   1.423
20155W        W92580  16.477   5.842  14.707
20156W        W92581   7.641  34.031   4.063
20157W        W92582   4.250  21.389   1.817
20158W        W92583  32.475   0.325  14.032
20159W        W92584  14.645  32.215  13.642
20160W        W92585  18.199   1.580   4.699
20161W        W92586   5.585  24.760  11.978
20162W        W92587  41.770  17.164  13.642
20163W        W92588  16.076   2.352   4.891
20164W        W92589  33.824  35.295  12.492
20165W        W92590  10.664  43.917  12.308
20166W        W92591  21.952  27.595  11.542
20167W        W92592  16.506  34.435  12.434
20168W        W92593  42.533  42.996   2.670
20169W        W92594  25.783  10.181  11.902
20170W        W92595  21.204  39.300  11.109
20171W        W92596   7.942  44.197  14.825
20172W        W92597  27.232   8.582  14.790
20173W        W92598   9.667  11.483   0.548
20174W        W92599  43.273  17.437  11.611
20175W        W92600  11.665  19.360   0.956
20176W        W92601  10.396  29.439   3.702
20177W        W92602   6.887   6.210   3.171
20178W        W92603  11.654  15.734  14.699
20179W        W92604  22.310  25.262  11.246
20180W        W92605  14.719  25.933   3.016
20181W        W92606  18.493  33.045  10.240
20182W        W92607  21.251   3.680   3.284
20183W        W92608  35.195  27.180   2.538
20184W        W92609   9.799  24.222   1.424
20185W        W92610  32.407  18.735   1.178
20186W        W92611  41.430  26.204  10.651
20187W        W92612  27.590  27.658   1.831
20188W        W92613   8.699  36.927  10.179
20189W        W92614  42.120  28.369   5.061
20190W        W92615  19.722  19.459  14.962
20191W        W92616  31.112   8.611   2.269
20192W        W92617  22.762  25.705   2.646
20193W        W92618   6.817  26.611  13.283
20194W        W92619  20.524  17.235   3.403
20195W        W92620   1.577  16.577   2.790
20196W        W92621  19.078   0.846  11.162
20197W        W92622   0.187  37.936   3.113
20198W        W92623  28.451  24.780   4.331
20199W        W92624  17.557  11.077   2.195
20200W        W92625   9.681  11.620   3.788
20201W        W92626   8.327  30.511  13.481
20202W        W92627  16.982  27.768   9.904
20203W        W92628  23.231  41.430  13.367
20204W        W92629  16.932   7.716   4.992
20205W        W92630  39.659   0.930   4.325
20206W        W92631  41.494  22.649  13.849
20207W        W92632  33.950   4.998  11.643
20208W        W92633  30.105   1.331   1.144
20209W        W92634  14.740  22.655   1.413
20210W        W92635   6.807  21.288  12.951
20211W        W92636  10.372  40.706  12.430
20212W        W92637  39.407  22.781   3.429
20213W        W92638  23.544  23.632  12.195
20214W        W92639   5.971   4.202  12.539
20215W        W92640  23.142  26.286  14.000
20216W        W92641  41.441  32.917   1.450
20217W        W92642  27.837  24.885  13.492
20218W        W92643  25.527  18.765  14.531
20219W        W92644  29.182  20.822  12.398
20220W        W92645  20.712  20.015   0.706
20221W        W92646  29.649  21.472   3.126
20222W        W92647  31.836   9.785  10.613
20223W        W92648  13.814  10.274  14.944
20224W        W92649  38.370  31.616   4.583
20225W        W92650   6.221  23.818  14.776
20226W        W92651  35.249  38.417   0.525
20227W        W92652  24.947  26.358  12.169
20228W        W92653  26.740  33.246   0.282
20229W        W92654  38.916  30.415  13.435
20230W        W92655  43.373  43.806   2.166
20231W        W92656  34.746  17.968   2.204
20232W        W92657  28.775  13.058  14.943
20233W        W92658   6.970  15.194   3.762
20234W        W92659  40.286  40.525   2.387
20235W        W92660  32.622   6.874   3.102
20236W        W92661  14.781  10.294   3.801
20237W        W92662  27.022  12.271   1.165
20238W        W92663  27.834  15.293  12.875
20239W        W92664  10.746  11.269  11.960
20240W        W92665  16.835  11.765  14.871
20241W        W92666  28.601  10.193  12.248
20242W        W92667  14.550   9.345  12.035
20243W        W92668  21.030   3.960   3.690
20244W        W92669  44.551  33.642  13.428
20245W        W92670   4.873   3.503   9.976
20246W        W92671  37.630  27.733   1.639
20247W        W92672  31.624   4.648  11.915
20248W        W92673  17.583   5.233   2.431
20249W        W92674  44.970  31.865  12.438
20250W        W92675  18.684  21.564  10.718
20251W        W92676   0.311  38.409   4.678
20252W        W92677  21.482  13.750   0.072
20253W        W92678  31.067  31.216  13.426
20254W        W92679   9.873   3.327   5.104
20255W        W92680  21.800  31.655   4.659
20256W        W92681  28.261  32.606  10.727
20257W        W92682  15.318  42.457   0.241
20258W        W92683  24.125   6.676   3.240
20259W        W92684  42.463   6.626  11.098
20260W        W92685  39.186  37.678   5.025
20261W        W92686   9.273   1.439   0.960
20262W        W92687  19.745  30.622  12.813
20263W        W92688  39.830  38.812  13.647
20264W        W92689   4.503  23.117   1.902
20265W        W92690  14.906  38.025   4.176
20266W        W92691  10.743  38.950   4.610
20267W        W92692   7.458  25.569  11.205
20268W        W92693   2.619   2.290   2.938
20269W        W92694  32.669   4.347   1.585
20270W        W92695   9.142  41.928  10.474
20271W        W92696  39.982  19.611   2.614
20272W        W92697  42.794  28.107  14.322
20273W        W92698   2.045  29.765   1.356
20274W        W92699   1.840  32.429  14.368
20275W        W92700  23.086  16.868  13.457
20276W        W92701   5.349  37.610   3.128
20277W        W92702  30.586  36.373   1.034
20278W        W92703  29.535  37.594  11.203
20279W        W92704  18.261  42.012   0.182
20280W        W92705  44.031  11.108   0.100
20281W        W92706  14.271  32.921   3.161
20282W        W92707  34.040  17.492  14.150
20283W        W92708  29.833  42.698  13.483
20284W        W92709  38.130  17.324  12.675
20285W        W92710   7.227  14.875  14.488
20286W        W92711  31.684   4.960   0.887
20287W        W92712  30.170   8.681  13.914
20288W        W92713  24.791  31.962   3.628
20289W        W92714   3.706  23.218   3.160
20290W        W92715   3.596  30.443  11.662
20291W        W92716  27.703  17.692  13.124
20292W        W92717  39.138  19.704   4.154
20293W        W92718  28.255  32.088  11.149
20294W        W92719  26.072  32.637   5.661
20295W        W92720  44.262  43.237  11.517
20296W        W92721   7.838  12.190  13.434
20297W        W92722   8.770   1.992  14.483
20298W        W92723  37.035   5.012   0.746
20299W        W92724   0.632   3.731   2.228
20300W        W92725  13.195   6.810   4.659
20301W        W92726   0.434  15.950   1.648
20302W        W92727  38.816  17.010  13.890
20303W        W92728  25.602   8.685   2.219
20304W        W92729  18.050   9.884   2.801
20305W        W92730   6.078  37.423  11.693
20306W        W92731  32.885   9.222  11.219
20307W        W92732  13.823  11.837   1.898
20308W        W92733  31.944  44.936  10.627
20309W        W92734  42.038  42.947   0.542
20310W        W92735  41.539  15.407  11.225
20311W        W92736  23.930  11.174   3.865
20312W        W92737  25.675  43.503   3.623
20313W        W92738  28.087  20.357   2.696
20314W        W92739  33.406  17.375   1.221
20315W        W92740  16.299  25.136  14.076
20316W        W92741  29.570  38.850  11.535
20317W        W92742  38.876  41.600   4.213
20318W        W92743  25.527  18.278  14.295
20319W        W92744  34.485   2.428  13.557
20320W        W92745   5.772   3.002  11.048
20321W        W92746  42.642   0.973  10.767
20322W        W92747  42.203   5.817   1.818
20323W        W92748  30.897  10.754  12.916
20324W        W92749   3.934  29.599  13.593
20325W        W92750  29.325  21.162   2.845
20326W        W92751  32.935   6.499  14.698
20327W        W92752   7.675  11.798  12.767
20328W        W92753   0.907  42.415   1.315
20329W        W92754   4.332  32.656  11.985
20330W        W92755  20.147  31.630   0.991
20331W        W92756  29.239  11.016  12.027
20332W        W92757  44.534  20.709  10.614
20333W        W92758  25.097  12.564   2.704
20334W        W92759  26.717  37.368  11.121
20335W        W92760  30.124  33.369  13.435
20336W        W92761  27.865  13.549  14.241
20337W        W92762  28.185  44.800  12.084
20338W        W92763  24.747  14.033  14.262
20339W        W92764   4.979  15.654  11.204
20340W        W92765  30.987  26.337  11.021
20341W        W92766  18.258  28.849   4.441
20342W        W92767   3.599   8.137   3.623
20343W        W92768  44.211  16.862   0.417
20344W        W92769  37.891   6.755   3.261
20345W        W92770   2.843   2.181   4.910
20346W        W92771   8.734  35.856  10.899
20347W        W92772  11.066  28.580  14.339
20348W        W92773  44.890  25.728   3.590
20349W        W92774   9.827  29.611   3.360
20350W        W92775  26.026  38.766   2.672
20351W        W92776   0.660  25.799  11.562
20352W        W92777  13.838  36.060  11.005
20353W        W92778  21.629  15.745   3.876
20354W        W92779  11.277  20.107  13.407
20355W        W92780  17.708  12.826   0.399
20356W        W92781  35.823  12.541  12.858
20357W        W92782  34.352  39.647   3.693
20358W        W92783  34.918  37.586   0.855
20359W        W92784  36.586   8.418   1.292
20360W        W92785  37.994  14.281   4.410
20361W        W92786   4.763  14.177  10.034
20362W        W92787  18.535   7.622   1.690
20363W        W92788  37.103  31.779  12.926
20364W        W92789  28.666  37.175  13.006
20365W        W92790  26.363  30.372   0.448
20366W        W92791  31.887  30.616   1.962
20367W        W92792  35.588  16.271  10.661
20368W        W92793  34.922  23.554   3.201
20369W        W92794   2.415   8.609  14.822
20370W        W92795   2.921  24.437   0.961
20371W        W92796  20.208   9.788  12.051
20372W        W92797  22.721  13.202  12.441
20373W        W92798  27.884  39.067   0.009
20374W        W92799  13.473  11.238  13.502
20375W        W92800  42.523  11.022  14.420
20376W        W92801   2.775  29.476  14.051
20377W        W92802  17.156  25.375   0.449
20378W        W92803   4.712   2.522   5.017
20379W        W92804  26.645  27.258   1.744
20380W        W92805   8.864  32.382   2.312
20381W        W92806   9.767  24.020   3.243
20382W        W92807   5.879  22.190   3.811
20383W        W92808   0.837  27.053  13.389
20384W        W92809  15.326   4.961  11.511
20385W        W92810   2.213   4.953   0.834
20386W        W92811  15.397  20.344   3.827
20387W        W92812  35.440   2.228  11.734
20388W        W92813  21.125  43.387   2.666
20389W        W92814  44.855  17.710  11.676
20390W        W92815  42.597  12.096  11.136
20391W        W92816  39.361  41.332   2.386
20392W        W92817   3.703  30.302   5.312
20393W        W92818  30.616  25.170   4.533
20394W        W92819  15.773  22.493   5.086
20395W        W92820  24.234  44.381   4.596
20396W        W92821  12.306  30.162   2.092
20397W        W92822  43.888   5.958  13.985
20398W        W92823   0.359  33.655   2.403
20399W        W92824   3.822  15.842   4.851
20400W        W92825   9.369  12.556  11.549
20401W        W92826  14.336  41.559  10.610
20402W        W92827  38.392  16.714   4.631
20403W        W92828  10.006   0.937   1.626
20404W        W92829  29.976  22.953  12.099
20405W        W92830  39.826  41.856  11.082
20406W        W92831   0.229  19.474  13.378
20407W        W92832  19.941  15.559  10.335
20408W        W92833  37.949   3.714   2.390
20409W        W92834  20.628   4.967   3.647
20410W        W92835  14.927  30.100   4.927
20411W        W92836  24.072  38.388  14.494
20412W        W92837   8.183  25.446   0.267
20413W        W92838   1.983  38.907  11.345
20414W        W92839  31.501  28.750  10.339
20415W        W92840  32.453  39.441  11.648
20416W        W92841  44.610   0.358   4.128
20417W        W92842  24.147   9.164  10.594
20418W        W92843  34.000  26.732  11.435
20419W        W92844  12.621  24.546   2.788
20420W        W92845   1.645  11.896   3.688
20421W        W92846   5.799  25.219  13.999
20422W        W92847   1.292  25.227  13.451
20423W        W92848  19.515  35.350  10.813
20424W        W92849  13.031  12.355   1.429
20425W        W92850   9.311  13.086   3.172
20426W        W92851   6.193  38.015   1.239
20427W        W92852  30.366  21.719   1.213
20428W        W92853  21.703  27.567   4.065
20429W        W92854  29.513  29.809   2.149
20430W        W92855  44.503  23.074   1.645
20431W        W92856  23.882  18.790  12.388
20432W        W92857  20.727  34.567  14.829
20433W        W92858  16.078  34.967   2.824
20434W        W92859  37.044  13.305   3.935
20435W        W92860  35.450   3.094   2.851
20436W        W92861  16.392  10.295   0.714
20437W        W92862  29.957  44.185  11.133
20438W        W92863  28.417   5.076  10.729
20439W        W92864  18.847  29.192  12.980
20440W        W92865  25.139  34.378  12.879
20441W        W92866  39.457  37.006  14.950
20442W        W92867  19.249  25.843   0.064
20443W        W92868  27.336   5.149  13.853
20444W        W92869  36.573  14.121   2.287
20445W        W92870   5.855   2.607   1.813
20446W        W92871  18.064   7.646  11.585
20447W        W92872  33.837  38.494   4.522
20448W        W92873   4.789  16.575   3.817
20449W        W92874   4.115  32.536   0.621
20450W        W92875  20.625  27.335   4.694
20451W        W92876  20.562   2.966  14.613
20452W        W92877  27.381  22.619  10.461
20453W        W92878  38.394  44.190  10.159
20454W        W92879  42.945  19.768   1.261
20455W        W92880  38.505  25.431  11.129
20456W        W92881  41.369  11.911   4.580
20457W        W92882  33.543  22.395  12.872
20458W        W92883  28.246  28.143   2.596
20459W        W92884  19.593  29.708  12.279
20460W        W92885   7.536  41.588  11.702
20461W        W92886  33.183  13.212   2.569
20462W        W92887   9.695  35.595   1.324
20463W        W92888   3.355  12.679   4.078
20464W        W92889  25.096  11.885  13.464
20465W        W92890  43.447  20.936  14.028
20466W        W92891   6.288  11.200   0.370
20467W        W92892  12.344  30.430   3.371
20468W        W92893   2.065  28.452   2.870
20469W        W92894  15.333  40.705  10.804
20470W        W92895  38.347  36.407   1.270
20471W        W92896  23.543  43.006   2.291
20472W        W92897  10.477   4.158   1.925
20473W        W92898   4.112  10.479   3.613
20474W        W92899  43.293  17.629  14.733
20475W        W92900  22.383   9.247   0.157
20476W        W92901  44.624  32.772   2.248
20477W        W92902   4.017   2.390  14.980
20478W        W92903   3.324  39.438  14.744
20479W        W92904  42.368  20.463  14.484
20480W        W92905   7.237  21.867   3.482
20481W        W92906  19.763  35.899  11.968
20482W        W92907  34.562  10.358   2.337
20483W        W92908  30.188   5.408  13.021
20484W        W92909  11.625  11.587  10.411
20485W        W92910  39.162  25.729   0.364
20486W        W92911  20.218  35.553  13.513
20487W        W92912  24.561  18.021   4.272
20488W        W92913  33.530  28.097  14.213
20489W        W92914  18.743  28.637  13.068
20490W        W92915  17.045  19.808  14.278
20491W        W92916  12.978  27.489  10.985
20492W        W92917  43.988  44.046  14.930
20493W        W92918  13.258  36.747  14.539
20494W        W92919  30.872  10.292  13.397
20495W        W92920  43.084  10.425   2.411
20496W        W92921  12.751  28.383   4.171
20497W        W92922  18.068  39.113  14.852
20498W        W92923  15.261  26.684   4.391
20499W        W92924  32.907   9.346   0.350
20500W        W92925  20.932   9.599   0.551
20501W        W92926  31.797  38.360  11.410
20502W        W92927   2.955   2.677   4.813
20503W        W92928  43.843  22.269   0.314
20504W        W92929  18.087  24.790  14.457
20505W        W92930  25.987  36.901   4.433
20506W        W92931  36.459  14.023  12.099
20507W        W92932  40.844  15.196   4.739
20508W        W92933   3.132  14.149  14.510
20509W        W92934  41.510  18.772   4.606
20510W        W92935  17.583  31.868  11.425
20511W        W92936  15.996  33.553   0.766
20512W        W92937   2.167  27.877   2.789
20513W        W92938   9.092  11.196  14.748
20514W        W92939  35.592   1.852  14.880
20515W        W92940  25.543  43.121   4.282
20516W        W92941  36.982   4.307   4.647
20517W        W92942  29.302   2.307   4.139
20518W        W92943  26.215  13.291   4.535
20519W        W92944  23.718   3.696  12.577
20520W        W92945  18.787   0.053   0.676
20521W        W92946  16.103  11.796   3.570
20522W        W92947  20.607  28.949  13.375
20523W        W92948  24.680  32.159  11.611
20524W        W92949  28.599  43.963   2.333
20525W        W92950  30.051  14.369  12.486
20526W        W92951  44.049  34.624   4.788
20527W        W92952  19.508  35.032  12.514
20528W        W92953  27.513  29.394   2.244
20529W        W92954  12.326  18.607  13.587
20530W        W92955  38.383   8.413  11.664
20531W        W92956   0.019  30.948   4.175
20532W        W92957  44.548  29.767  11.607
20533W        W92958   0.963  12.261   1.504
20534W        W92959  22.033  30.561  11.194
20535W        W92960  23.977  20.103   1.888
20536W        W92961  19.164  37.163   0.009
20537W        W92962  35.930  35.678  12.064
20538W        W92963  32.500  34.825   3.213
20539W        W92964   1.979   5.405   4.754
20540W        W92965   4.252  22.199  12.556
20541W        W92966   3.614   5.391  11.753
20542W        W92967  31.655  39.958   1.530
20543W        W92968  19.525  11.130  13.948
20544W        W92969   7.369  12.624  10.680
20545W        W92970  26.077  16.342  10.601
20546W        W92971  36.343  30.997   1.777
20547W        W92972  17.190  34.561  11.777
20548W        W92973  38.441   1.618   0.207
20549W        W92974  18.595  21.006   1.814
20550W        W92975   7.441  20.185  12.951
20551W        W92976  30.093  28.354  12.999
20552W        W92977  37.396  30.711  10.694
20553W        W92978  16.133  10.381   4.075
20554W        W92979  30.907   4.612  14.814
20555W        W92980  37.999  44.456  14.089
20556W        W92981  43.423   9.197  12.440
20557W        W92982  33.611  21.840   0.424
20558W        W92983  15.899  17.748  13.326
20559W        W92984  43.417  32.011  11.042
20560W        W92985  41.082   6.888  12.524
20561W        W92986  18.718   9.694   3.812
20562W        W92987   9.955  30.755   0.595
20563W        W92988  41.882  41.263   2.232
20564W        W92989  23.048  12.877  10.904
20565W        W92990  28.105  32.920   2.644
20566W        W92991  43.850  34.143   4.838
20567W        W92992   1.961  22.029   2.579
20568W        W92993  22.729  11.500   2.492
20569W        W92994   9.274   2.652  11.976
20570W        W92995  28.521  25.932   2.324
20571W        W92996  14.096   5.587  12.073
20572W        W92997  19.875   3.208   1.929
20573W        W92998  33.401   8.135   0.738
20574W        W92999  25.898  40.489   1.117
20575W        W93000  39.611  34.861   1.326
20576W        W93001  32.539   7.115   1.629
20577W        W93002  27.429   7.861   0.759
20578W        W93003   4.755  22.009  13.431
20579W        W93004   0.863   9.355   0.956
20580W        W93005  39.092  23.205   3.447
20581W        W93006  36.169   1.174  13.476
20582W        W93007  36.871  32.109   1.379
20583W        W93008  42.245  43.320   4.109
20584W        W93009  16.116  14.232   1.752
20585W        W93010   5.921  13.737   1.211
20586W        W93011  39.505  43.947  12.273
20587W        W93012   4.159  14.690   4.592
20588W        W93013  13.696  42.882   2.670
20589W        W93014  19.970  40.821  11.229
20590W        W93015   3.342  25.393   1.884
20591W        W93016  26.236   0.467   4.788
20592W        W93017  20.635   4.166  13.973
20593W        W93018  42.409  11.282  10.720
20594W        W93019  33.204  15.043   1.329
20595W        W93020  17.617  38.581   1.045
20596W        W93021  38.754  36.269   2.743
20597W        W93022  32.119   7.442  12.923
20598W        W93023  39.709  19.692   1.287
20599W        W93024  27.728  31.457  10.579
20600W        W93025  38.395   2.489  12.206
20601W        W93026  29.650  39.967   4.558
20602W        W93027  24.211  39.266  14.274
20603W        W93028  13.672  42.884   4.805
20604W        W93029  35.640  37.629  13.306
20605W        W93030  31.014  26.433   1.756
20606W        W93031  21.665   8.331   3.135
20607W        W93032  44.834  37.925   3.544
20608W        W93033  13.032  11.355   4.549
20609W        W93034  35.928  10.566   2.853
20610W        W93035  44.150  26.526   0.483
20611W        W93036  29.577  13.701   1.864
20612W        W93037  27.014   0.523  12.663
20613W        W93038  37.581   6.061  11.813
20614W        W93039  17.860  34.853  11.189
20615W        W93040   9.691   4.432   3.662
20616W        W93041  36.553  15.570  11.704
20617W        W93042  14.368  44.465   4.467
20618W        W93043  35.849   8.368  12.471
20619W        W93044  34.321   7.346   1.288
20620W        W93045   0.402  20.638  10.921
20621W        W93046   4.478  14.179   0.692
20622W        W93047   4.786  31.086  10.250
20623W        W93048  27.886  32.273  10.701
20624W        W93049   6.456  31.608  11.936
20625W        W93050  13.348  32.904   4.210
20626W        W93051  18.713   7.059  12.962
20627W        W93052  28.108   0.714   2.992
20628W        W93053   0.713  29.464  13.268
20629W        W93054  12.701  17.026   1.872
20630W        W93055  44.813  14.608   1.888
20631W        W93056  38.521   4.380   2.988
20632W        W93057  43.101  28.023  12.024
20633W        W93058   3.892  20.036   3.280
20634W        W93059  36.944  15.222   1.728
20635W        W93060  29.679  19.143  10.960
20636W        W93061  18.545  38.393  12.096
20637W        W93062   1.187  35.085   1.748
20638W        W93063   7.453   1.877  12.051
20639W        W93064  30.291  15.382  12.382
20640W        W93065  16.257  10.419  10.703
20641W        W93066   2.416  17.936   0.592
20642W        W93067  36.622  38.267  13.057
20643W        W93068  41.026  23.435   1.246
20644W        W93069  10.048   8.757  11.165
20645W        W93070  33.722  24.624   2.200
20646W        W93071   5.416  11.590   3.543
20647W        W93072  33.472  20.259  14.478
20648W        W93073  33.307  21.936   2.666
20649W        W93074  33.911  33.711  10.673
20650W        W93075  26.836   7.346   1.801
20651W        W93076  11.595  41.623  12.009
20652W        W93077  43.933  40.136   4.221
20653W        W93078  26.069  24.147  12.384
20654W        W93079  35.251  42.927  10.758
20655W        W93080  41.815  31.924  14.430
20656W        W93081  31.435   6.382  13.417
20657W        W93082  23.153  38.743   0.314
20658W        W93083  28.158  30.322  14.506
20659W        W93084  14.774  20.764   1.229
20660W        W93085  22.318  40.508   3.672
20661W        W93086   7.382  38.211  10.712
20662W        W93087  44.007  13.985   2.809
20663W        W93088  36.970  41.290  10.616
20664W        W93089  23.722  21.178   0.252
20665W        W93090   6.761  29.270  12.005
20666W        W93091   4.451  42.359   2.488
20667W        W93092  17.765  40.328   0.399
20668W        W93093  27.014  12.299  11.659
20669W        W93094  43.545  31.491   0.209
20670W        W93095  35.896  36.389   2.246
20671W        W93096  24.828  21.648   4.469
20672W        W93097  44.343   1.432   3.249
20673W        W93098  31.917   3.069   3.222
20674W        W93099  32.894  38.952  11.007
20675W        W93100  35.657  15.711   1.826
20676W        W93101  36.901  30.997  11.937
20677W        W93102  21.276  40.013   1.831
20678W        W93103  35.983  19.191   4.352
20679W        W93104   6.665  35.545   0.216
20680W        W93105  27.664   4.701   2.638
20681W        W93106  34.927  25.955  14.519
20682W        W93107  36.889  39.013   3.072
20683W        W93108  21.925  26.941  13.834
20684W        W93109  38.984  15.072  12.973
20685W        W93110  42.192  27.925   0.716
20686W        W93111  24.066  41.633  13.641
20687W        W93112  38.452  17.373  13.832
20688W        W93113  13.593  18.242   2.840
20689W        W93114  40.908  37.076   1.284
20690W        W93115   9.588  36.398  14.291
20691W        W93116   3.474  44.324  14.489
20692W        W93117  42.768   1.276  12.884
20693W        W93118   6.779  22.594   3.650
20694W        W93119  27.519   3.729  13.962
20695W        W93120  42.454   5.892  11.619
20696W        W93121  11.061   0.212   1.361
20697W        W93122  43.306   7.642   4.668
20698W        W93123  36.508  36.793  14.276
20699W        W93124  36.667  10.288  13.073
20700W        W93125  30.908  22.495  14.058
20701W        W93126  31.807   3.089  12.594
20702W        W93127  34.420   8.143  13.951
20703W        W93128  21.019  33.673   4.178
20704W        W93129  40.019  14.730   1.340
20705W        W93130  26.600  20.274   1.166
20706W        W93131   6.751  44.537   4.902
20707W        W93132   5.416  12.080   3.728
20708W        W93133  25.534  31.127   4.192
20709W        W93134  13.670  35.072   0.450
20710W        W93135  30.505  39.472  12.177
20711W        W93136  38.581  23.471  11.100
20712W        W93137  28.175  16.322   2.039
20713W        W93138   9.887  10.640   2.221
20714W        W93139   5.898   7.013  14.683
20715W        W93140  18.766   1.822   5.493
20716W        W93141  15.851   4.516  12.435
20717W        W93142   2.996   0.460   4.023
20718W        W93143  40.128  22.463   0.132
20719W        W93144  13.951   5.369  14.257
20720W        W93145  22.151  17.092  10.569
20721W        W93146  14.506  38.302   1.313
20722W        W93147  42.178  31.106  11.984
20723W        W93148   8.685  14.512  11.578
20724W        W93149  14.883  22.165   1.196
20725W        W93150   8.409   8.289  14.327
20726W        W93151  30.985   4.289   4.282
20727W        W93152   5.008  35.181   4.241
20728W        W93153  28.490  39.525  12.072
20729W        W93154  38.723   3.699   1.788
20730W        W93155  43.218  24.491   4.934
20731W        W93156  27.314  23.455   0.828
20732W        W93157  26.924  14.014  13.464
20733W        W93158  35.555   8.349   0.668
20734W        W93159  39.431  24.950   4.100
20735W        W93160   1.332  39.842  14.079
20736W        W93161  22.431   2.436   3.579
20737W        W93162  23.016   7.635  12.579
20738W        W93163   4.842  10.653  12.128
20739W        W93164  42.430  13.218  10.702
20740W        W93165   0.523  34.075  10.578
20741W        W93166   5.717  34.998   3.079
20742W        W93167   4.804  21.185   4.595
20743W        W93168  36.771  27.608   1.163
20744W        W93169   8.178  17.225  14.633
20745W        W93170  19.296  41.343  14.549
20746W        W93171  28.935   7.837   4.490
20747W        W93172  42.305  23.949  12.906
20748W        W93173  29.319   2.948  13.423
20749W        W93174  15.048  33.294  13.318
20750W        W93175  40.809  29.612   4.333
20751W        W93176   7.047  15.627  13.338
20752W        W93177  23.364  44.853   0.404
20753W        W93178  18.551  21.298   1.151
20754W        W93179  38.039   4.020   2.817
20755W        W93180  13.726  44.497  12.871
20756W        W93181   6.403  13.831   3.304
20757W        W93182  23.200  37.607   1.339
20758W        W93183   5.532  40.260   2.351
20759W        W93184  35.911   4.307   2.434
20760W        W93185  32.571  12.346  12.973
20761W        W93186   3.676  25.219  10.166
20762W        W93187  25.609  28.124   0.877
20763W        W93188  32.951  11.842  14.561
20764W        W93189  37.220  10.281  13.956
20765W        W93190  26.062   2.797   1.394
20766W        W93191  17.621  33.032  13.836
20767W        W93192  43.419  24.198  12.483
20768W        W93193  21.000  25.691   3.255
20769W        W93194  17.748  38.481   3.242
20770W        W93195   8.944  34.954   4.350
20771W        W93196   4.261  33.895   2.668
20772W        W93197   6.345  43.793  13.845
20773W        W93198  15.780  34.409  13.467
20774W        W93199  11.197  19.086  11.997
20775W        W93200  34.584   7.938   1.859
20776W        W93201  37.020   4.499   0.724
20777W        W93202   2.726  14.616   2.858
20778W        W93203  43.275  16.342  13.847
20779W        W93204  22.894  11.488  11.487
20780W        W93205  32.426  27.568  11.502
20781W        W93206  27.037  16.481  14.242
20782W        W93207  28.395   6.436   0.796
20783W        W93208  43.515   6.883   1.103
20784W        W93209  25.003   6.456  12.212
20785W        W93210  25.575   4.765  14.400
20786W        W93211  25.191  16.733  14.371
20787W        W93212  26.873   9.386   0.260
20788W        W93213  16.758   9.843  13.045
20789W        W93214  13.171  23.655   0.901
20790W        W93215   6.991  28.080  14.706
20791W        W93216  15.577   8.247   1.460
20792W        W93217  33.077  42.729   4.579
20793W        W93218  27.626  39.226   1.441
20794W        W93219  23.602   4.774  14.332
20795W        W93220  12.014  34.972  12.940
20796W        W93221   0.691  19.678   3.762
20797W        W93222   5.637  35.574   0.300
20798W        W93223  38.041   2.817  14.544
20799W        W93224  26.013  19.349  10.751
20800W        W93225  41.273  38.816  10.657
20801W        W93226  31.060  30.048   1.740
20802W        W93227  13.801  35.838   0.784
20803W        W93228  33.139  25.639   2.618
20804W        W93229  19.348   5.668  10.727
20805W        W93230   9.386  44.648  13.466
20806W        W93231  24.173   4.322  12.368
20807W        W93232   8.447  29.573  12.978
20808W        W93233  37.978  18.573   3.137
20809W        W93234  36.580   7.656  12.012
20810W        W93235  23.174  37.338  13.419
20811W        W93236  12.574  15.588  14.646
20812W        W93237  27.786  35.970  12.904
20813W        W93238  31.362   6.920  14.811
20814W        W93239  40.334  29.148   0.924
20815W        W93240   9.710  40.683  13.778
20816W        W93241   9.649   2.722   2.582
20817W        W93242  11.759  34.985   3.206
20818W        W93243  32.042  40.043   0.779
20819W        W93244  43.456  42.826  12.356
20820W        W93245  29.387   0.915   4.670
20821W        W93246  31.022   6.770   0.735
20822W        W93247  31.028  22.973  11.133
20823W        W93248   3.958   0.835   1.336
20824W        W93249  42.018  10.892  12.509
20825W        W93250   6.765  29.233  13.365
20826W        W93251  10.348  23.984   1.273
20827W        W93252  40.334  27.171   0.426
20828W        W93253  34.905  36.905   0.368
20829W        W93254   5.622  12.909   3.393
20830W        W93255   0.160  40.766  12.390
20831W        W93256  32.155  22.951  11.232
20832W        W93257   5.849  30.652  11.150
20833W        W93258  26.748  39.688  11.187
20834W        W93259  10.576  39.102   2.376
20835W        W93260  23.969  23.826  11.949
20836W        W93261  27.536  38.984  13.740
20837W        W93262  35.379  16.626   2.977
20838W        W93263  31.863   7.883  11.333
20839W        W93264  20.762   6.248  10.604
20840W        W93265  13.962  43.368   4.096
20841W        W93266  22.224  37.483   2.133
20842W        W93267  32.438  39.618   4.294
20843W        W93268  15.221   0.511  11.614
20844W        W93269  20.599  28.882  14.304
20845W        W93270  17.238  25.241   5.090
20846W        W93271  36.071  40.500   3.657
20847W        W93272   4.619  12.372   1.681
20848W        W93273   7.197   1.580  11.399
20849W        W93274  16.209  10.331   1.668
20850W        W93275  35.408  14.482   2.741
20851W        W93276  28.613  44.015   0.312
20852W        W93277  30.874  40.084   1.656
20853W        W93278  26.021  23.932   4.741
20854W        W93279  18.247   9.950  10.563
20855W        W93280  17.256  30.434  10.315
20856W        W93281  13.882   9.431  13.430
20857W        W93282  29.931  18.643  14.835
20858W        W93283   1.999  18.794   2.849
20859W        W93284   9.331  35.087  14.639
20860W        W93285   3.468   7.461  14.906
20861W        W93286  29.020  30.115   5.435
20862W        W93287  11.860   7.769  10.113
20863W        W93288  21.534  30.716  11.107
20864W        W93289  26.994  26.639   3.083
20865W        W93290   5.339  33.707  11.956
20866W        W93291  39.144  42.138  13.283
20867W        W93292   0.880  37.041  10.484
20868W        W93293  32.088  26.965  10.779
20869W        W93294  43.574  11.645  13.875
20870W        W93295   9.139  11.115  12.876
20871W        W93296   6.876  22.478   1.239
20872W        W93297  22.647   7.296  14.349
20873W        W93298   1.859   3.343   3.536
20874W        W93299  28.779  30.595   4.579
20875W        W93300  11.243  20.989   1.678
20876W        W93301   2.320  35.205  12.166
20877W        W93302  37.044  22.579  12.315
20878W        W93303   7.768  34.936   2.684
20879W        W93304  16.225  24.442  10.551
20880W        W93305  40.837  24.214   2.387
20881W        W93306  33.503  16.258   1.397
20882W        W93307  31.339  37.637  13.801
20883W        W93308   8.557  15.373  12.870
20884W        W93309  11.688   9.898  11.524
20885W        W93310  43.632  28.059  11.332
20886W        W93311   1.386  40.053   0.495
20887W        W93312  38.601  35.478   1.363
20888W        W93313  31.387   0.491  14.037
20889W        W93314  33.213  28.979  11.772
20890W        W93315   0.489   8.732  13.907
20891W        W93316  24.680  25.735   1.214
20892W        W93317  42.857  37.753  13.907
20893W        W93318  31.563  33.287   4.124
20894W        W93319  39.890  35.519   2.809
20895W        W93320  27.744  30.981  10.326
20896W        W93321  24.866  36.359  13.005
20897W        W93322   3.465  37.472   3.214
20898W        W93323  39.569  22.361   1.406
20899W        W93324  40.088  13.549   1.348
20900W        W93325   8.801  17.037  11.660
20901W        W93326  20.129  41.285  13.874
20902W        W93327  20.139  36.626   2.208
20903W        W93328   9.222  18.264   5.020
20904W        W93329  10.348  35.396   1.834
20905W        W93330   3.591  17.903  14.922
20906W        W93331   6.358  29.850   2.951
20907W        W93332  37.620  21.039   1.447
20908W        W93333  10.618  16.134   4.555
20909W        W93334  23.969  27.229  14.454
20910W        W93335  44.347  30.896   0.445
20911W        W93336  16.166  12.248   2.767
20912W        W93337  16.881   4.974   3.319
20913W        W93338  16.940  13.606   2.936
20914W        W93339  22.775  17.823  13.848
20915W        W93340   4.409   8.873  11.891
20916W        W93341  19.119  20.016  13.014
20917W        W93342  30.542  25.679   4.667
20918W        W93343  31.348  39.015   3.702
20919W        W93344  15.668  35.599  11.904
20920W        W93345  17.357  27.871  13.151
20921W        W93346  19.867  16.746   1.471
20922W        W93347  44.234  14.378   0.843
20923W        W93348  23.965  30.044   4.512
20924W        W93349  41.544  42.586  12.611
20925W        W93350   5.323   2.386  14.013
20926W        W93351  22.521   8.874  14.319
20927W        W93352  34.602  34.971  10.659
20928W        W93353   9.348  15.393   4.581
20929W        W93354  34.603  31.830   0.423
20930W        W93355  11.663  20.517   2.452
20931W        W93356  24.525  14.881   4.575
20932W        W93357  43.715  23.491  12.932
20933W        W93358  43.117  10.932  13.281
20934W        W93359  10.080  21.270   2.135
20935W        W93360  15.141   9.409   0.833
20936W        W93361  24.300  16.738  12.587
20937W        W93362  21.174  18.799   4.623
20938W        W93363  36.682  14.339  12.940
20939W        W93364   3.434  38.437   3.393
20940W        W93365  22.804  15.364   1.105
20941W        W93366  39.772   7.728  10.460
20942W        W93367   8.751   3.314  14.234
20943W        W93368  19.735  23.949   1.836
20944W        W93369  41.031   4.754   2.546
20945W        W93370  13.848   1.442  11.991
20946W        W93371  22.767  14.077   2.222
20947W        W93372  23.972  39.055  12.038
20948W        W93373  15.845  29.079   4.222
20949W        W93374  25.081  31.142   4.441
20950W        W93375  23.029  20.661   0.429
20951W        W93376  20.592  20.187   4.896
20952W        W93377  15.721  30.185   3.813
20953W        W93378  26.099  12.328   1.118
20954W        W93379  30.170  13.571  11.158
20955W        W93380  18.067  33.180  11.142
20956W        W93381  41.504   2.020   2.895
20957W        W93382  10.286  19.764   3.311
20958W        W93383  42.602  32.609   3.572
20959W        W93384  15.716  34.875  13.163
20960W        W93385  12.257  43.854  14.341
20961W        W93386  30.187  12.375   2.186
20962W        W93387  30.106  36.078  13.830
20963W        W93388  10.775  21.712   1.957
20964W        W93389  22.561  11.698   2.988
20965W        W93390  40.491  21.539   4.189
20966W        W93391  41.975  25.132   1.473
20967W        W93392  12.933   1.499   3.577
20968W        W93393  41.542  37.950  11.139
20969W        W93394  35.378  22.962   3.373
20970W        W93395  30.270  32.387  14.865
20971W        W93396  33.286  26.264   2.287
20972W        W93397  38.113  10.881  13.836
20973W        W93398   9.250   2.956  12.392
20974W        W93399  19.824  15.550  13.477
20975W        W93400  17.659   6.417   0.833
20976W        W93401   4.912  41.472   4.652
20977W        W93402  20.467  27.049  13.212
20978W        W93403   3.927  34.841  10.314
20979W        W93404  34.216  41.469   3.744
20980W        W93405   7.013  15.580   4.145
20981W        W93406   1.390  44.302   1.150
20982W        W93407   1.623  27.022   2.191
20983W        W93408   9.352  27.206  14.418
20984W        W93409  13.604  25.590   5.142
20985W        W93410   0.950  27.656  14.918
20986W        W93411   4.800  13.047  10.801
20987W        W93412  25.528  38.490   0.126
20988W        W93413  24.643  18.103   0.833
20989W        W93414  34.827   0.825   5.146
20990W        W93415   3.259  16.058   1.386
20991W        W93416  28.137   0.159   3.010
20992W        W93417  12.696  19.657  12.801
20993W        W93418  35.430   4.017  13.534
20994W        W93419  33.608  16.496   4.676
20995W        W93420  44.414  22.034   2.037
20996W        W93421  27.199  19.720  14.099
20997W        W93422  31.649  14.642   2.917
20998W        W93423   7.184  15.365   3.314
20999W        W93424   8.130  37.396   3.600
21000W        W93425  23.582  38.295   0.893
21001W        W93426  16.568  10.209  13.921
21002W        W93427  35.797  16.408  12.624
21003W        W93428  27.039   5.789   2.368
21004W        W93429  34.919   1.282  13.591
21005W        W93430  12.576  27.579  10.425
21006W        W93431  36.949  26.970  12.814
21007W        W93432  32.596   8.196  11.076
21008W        W93433   8.069   8.947   9.837
21009W        W93434  12.111  28.195   2.186
21010W        W93435  33.610  16.527   9.644
21011W        W93436  41.335   1.270   3.341
21012W        W93437  39.635   6.943   2.672
21013W        W93438  31.101  14.484  13.548
21014W        W93439  27.435   5.067  11.434
21015W        W93440  31.528  30.230   1.894
21016W        W93441   8.774  42.087   5.116
21017W        W93442  10.558  28.042   3.142
21018W        W93443  29.940  10.489   4.189
21019W        W93444  12.269   1.292  13.498
21020W        W93445  31.178  30.945  13.838
21021W        W93446  42.115   8.559   2.491
21022W        W93447  15.336  16.304   0.351
21023W        W93448  30.177  38.625  13.865
21024W        W93449  28.323  32.593   1.690
21025W        W93450  27.387  38.102  13.956
21026W        W93451  29.628  19.601   3.577
21027W        W93452  29.657   9.278  14.286
21028W        W93453  11.181  40.614   0.784
21029W        W93454  18.279  27.012  14.854
21030W        W93455  33.662  30.463  11.017
21031W        W93456  27.060  26.778  12.423
21032W        W93457  38.664  23.978   4.015
21033W        W93458   7.146  28.534  14.955
21034W        W93459   7.774  10.180  10.548
21035W        W93460  42.288  22.691   4.155
21036W        W93461  28.650  38.499  14.069
21037W        W93462  38.565  30.511   0.472
21038W        W93463  34.161   2.363  13.140
21039W        W93464   2.902  12.586   1.704
21040W        W93465  15.191  18.607   0.068
21041W        W93466  27.028  22.013   4.117
21042W        W93467  12.161  27.956  12.149
21043W        W93468  14.126  35.034   4.595
21044W        W93469  31.847  31.607   2.353
21045W        W93470  23.465  34.406   2.399
21046W        W93471  20.149  11.467  14.414
21047W        W93472  20.757  17.504  14.421
21048W        W93473  23.666  36.347  12.216
21049W        W93474   0.482   1.474  13.456
21050W        W93475  33.952  20.196  10.808
21051W        W93476  19.660  35.557   1.913
21052W        W93477  15.643  12.118   4.803
21053W        W93478   8.819  37.103   0.358
21054W        W93479   7.236  27.554   4.232
21055W        W93480  33.598  34.006   2.672
21056W        W93481  21.528  30.708  13.301
21057W        W93482  30.961  19.445  13.368
21058W        W93483  32.167   4.454   4.179
21059W        W93484  37.915  27.519  13.007
21060W        W93485  14.391  15.029   3.272
21061W        W93486  44.009  26.455  10.702
21062W        W93487  33.995   1.310   1.394
21063W        W93488  33.989  42.478   4.947
21064W        W93489  38.339  39.770  13.817
21065W        W93490   7.938  32.107   1.848
21066W        W93491  32.483   6.710  10.775
21067W        W93492  22.525  41.679  12.568
21068W        W93493  41.758  39.975   3.417
21069W        W93494  21.889  42.772  11.551
21070W        W93495  31.543  41.463   3.816
21071W        W93496  37.522  41.260  12.454
21072W        W93497  16.772  13.789  12.481
21073W        W93498  24.071   8.878   0.411
21074W        W93499   1.044  33.571   3.675
21075W        W93500  29.668  19.061   4.826
21076W        W93501   0.993  34.038   0.467
21077W        W93502   2.816   3.264  12.771
21078W        W93503   4.639   4.191  10.872
21079W        W93504  34.412  21.925  10.978
21080W        W93505  38.414  12.727   3.250
21081W        W93506  36.497  35.050  12.459
21082W        W93507  14.949   8.302  14.350
21083W        W93508  42.964  19.691   0.395
21084W        W93509   9.833  29.081   0.403
21085W        W93510  26.326  17.383   0.412
21086W        W93511  21.239  17.533  14.787
21087W        W93512  28.880  24.196   2.163
21088W        W93513  43.444  33.440   3.673
21089W        W93514  39.852  11.227  13.847
21090W        W93515  14.192   4.676  12.146
21091W        W93516  33.602  23.100   3.426
21092W        W93517  25.243  42.004  13.081
21093W        W93518   5.527  30.204  14.887
21094W        W93519  19.065  36.568   4.537
21095W        W93520   9.909  44.394  13.680
21096W        W93521  18.188   4.407   2.194
21097W        W93522  36.898  43.333   0.397
21098W        W93523   1.947  21.689   4.157
21099W        W93524  18.152  16.115  10.738
21100W        W93525  14.835  21.097   4.702
21101W        W93526   3.003  30.856   5.022
21102W        W93527  19.299  36.589  12.388
21103W        W93528  20.108  28.023   0.411
21104W        W93529  22.287  14.688   4.472
21105W        W93530  11.693   9.097  10.609
21106W        W93531  29.191  38.208   4.060
21107W        W93532  19.072  23.021  13.363
21108W        W93533  34.344  35.302   1.714
21109W        W93534  13.607   7.147   1.703
21110W        W93535  43.837  42.227  11.157
21111W        W93536  18.337  13.560   1.932
21112W        W93537  19.855   5.652   3.680
21113W        W93538  35.517   9.613  12.013
21114W        W93539  24.229  35.569  13.524
21115W        W93540  10.393  14.823  12.047
21116W        W93541  17.854  30.852   0.765
21117W        W93542  21.487  38.273  11.173
21118W        W93543   8.187  16.725   1.940
21119W        W93544  28.215  15.833   1.849
21120W        W93545  35.148  15.640  12.117
21121W        W93546  36.879  30.122   1.660
21122W        W93547   7.981   3.735  11.972
21123W        W93548  13.479  15.584   2.291
21124W        W93549   1.241  43.926   4.552
21125W        W93550  11.290  19.206   2.148
21126W        W93551  19.242  14.233   2.415
21127W        W93552  11.005  41.173  12.110
21128W        W93553  44.047  29.781   1.939
21129W        W93554  29.763  14.561   1.598
21130W        W93555  27.978   0.594   1.261
21131W        W93556   9.594  12.101  11.464
21132W        W93557   6.397  35.472  14.778
21133W        W93558  17.134   5.342  14.396
21134W        W93559   7.261  27.750  13.293
21135W        W93560   2.880   0.976  14.393
21136W        W93561   9.876  22.693   4.210
21137W        W93562  39.462  33.831   3.243
21138W        W93563   4.593   3.282  11.968
21139W        W93564   6.859   9.612   3.791
21140W        W93565  34.406  41.098  10.881
21141W        W93566  14.427   6.776   2.094
21142W        W93567  44.823  15.766  10.940
21143W        W93568  10.233   6.824   5.134
21144W        W93569  11.126  34.931  11.467
21145W        W93570   4.719   4.753  14.075
21146W        W93571  15.121  12.526  13.857
21147W        W93572   3.145  14.707  14.303
21148W        W93573  17.311  11.252   0.509
21149W        W93574  20.106  17.151   1.670
21150W        W93575   2.765   6.172  12.440
21151W        W93576  17.245  28.159   4.450
21152W        W93577  32.249   6.410   0.746
21153W        W93578  28.110  28.385   4.625
21154W        W93579  24.753  28.480   4.940
21155W        W93580  40.736  20.817  12.899
21156W        W93581  35.978  20.253   1.794
21157W        W93582  41.486  17.228  12.725
21158W        W93583   0.943  31.454  12.092
21159W        W93584   5.129  44.244   1.377
21160W        W93585   4.802  21.533   3.646
21161W        W93586  26.990   7.672  11.489
21162W        W93587  12.300  29.850   1.671
21163W        W93588   4.602  20.100  13.391
21164W        W93589  38.960  10.705   2.855
21165W        W93590  16.552  34.801  12.810
21166W        W93591  18.579  14.473   1.775
21167W        W93592  22.150  43.044   1.651
21168W        W93593   5.338  29.261   2.729
21169W        W93594  40.453  34.198   1.417
21170W        W93595  44.878   5.603  13.906
21171W        W93596  19.691  28.546   0.790
21172W        W93597   9.893   7.976   1.418
21173W        W93598  26.064  30.429   4.230
21174W        W93599  19.557  15.498  14.485
21175W        W93600  29.036  18.507  14.838
21176W        W93601  32.416  37.595   4.238
21177W        W93602  41.832  13.686  12.134
21178W        W93603  24.713  35.557  11.197
21179W        W93604  40.660  39.337   2.791
21180W        W93605  10.593  11.116  10.724
21181W        W93606  29.489  41.997  10.639
21182W        W93607  38.280  42.410  12.955
21183W        W93608  14.652  13.042  14.267
21184W        W93609   1.273  44.502   4.169
21185W        W93610  20.112  22.205   3.148
21186W        W93611  19.560  23.245  13.316
21187W        W93612  18.988  27.313   1.443
21188W        W93613  37.841  21.143   4.380
21189W        W93614  36.692   0.963   0.879
21190W        W93615  39.497  44.061  14.796
21191W        W93616  12.467  28.851   4.158
21192W        W93617  24.882  10.575   3.314
21193W        W93618  27.189  32.542   3.219
21194W        W93619  43.871   9.253  12.872
21195W        W93620   4.281  30.252  11.104
21196W        W93621  18.200   4.211   2.714
21197W        W93622  38.271  28.639  11.590
21198W        W93623  36.116  28.677   1.733
21199W        W93624   0.555  22.193  11.085
21200W        W93625   5.142  19.633   0.821
21201W        W93626  13.243  32.152  12.454
21202W        W93627  21.726  13.249   4.078
21203W        W93628   7.047  14.665   1.342
21204W        W93629  23.609  30.652   1.228
21205W        W93630  39.066  35.871   2.630
21206W        W93631   1.326  14.273  10.523
21207W        W93632   3.478  39.533   2.259
21208W        W93633  38.515  27.647  12.550
21209W        W93634  37.795  25.482   5.515
21210W        W93635  32.440  27.678  10.895
21211W        W93636  38.796  36.066   3.467
21212W        W93637  23.495   3.411  13.006
21213W        W93638  23.206  19.270   3.730
21214W        W93639   5.993  15.528  11.829
21215W        W93640   7.311   4.372   3.869
21216W        W93641  26.634  32.571   9.878
21217W        W93642   0.080  33.880  13.547
21218W        W93643  15.137  12.246   3.064
21219W        W93644  27.473  34.152   2.496
21220W        W93645  18.027   2.673   3.549
21221W        W93646   9.129  35.299   2.780
21222W        W93647   9.873  34.028  14.310
21223W        W93648  18.163  38.427   0.657
21224W        W93649  39.794  18.116  13.981
21225W        W93650  29.074  13.142  13.014
21226W        W93651  39.998  29.963   4.569
21227W        W93652  14.261   3.960  14.466
21228W        W93653  25.925  33.926  12.948
21229W        W93654  32.616  18.996  13.833
21230W        W93655   9.366  20.252   2.715
21231W        W93656  27.913  13.651   9.853
21232W        W93657   5.142  31.972  12.116
21233W        W93658  39.553  42.407  11.819
21234W        W93659  15.733  20.801   4.717
21235W        W93660  36.400   7.238  11.125
21236W        W93661   0.536  20.270   0.354
21237W        W93662  42.883  31.711   3.960
21238W        W93663   1.845   0.418  12.588
21239W        W93664  44.415  29.159  14.805
21240W        W93665  19.125   7.158   0.982
21241W        W93666  21.116   8.681  10.033
21242W        W93667  21.493  28.827   2.235
21243W        W93668  30.781  32.465  14.904
21244W        W93669   1.762  33.118  13.851
21245W        W93670  13.420  18.241   0.563
21246W        W93671  22.247   2.972   0.730
21247W        W93672  35.164  17.488  11.262
21248W        W93673   2.655  28.428   0.970
21249W        W93674  38.585  41.755   3.753
21250W        W93675  11.393  11.298   0.912
21251W        W93676   1.518  18.602  12.130
21252W        W93677  30.274  35.464  10.605
21253W        W93678   4.713  22.138  12.193
21254W        W93679  18.618  35.777   0.647
21255W        W93680  33.034  27.455  12.006
21256W        W93681  34.139  40.796  14.908
21257W        W93682  37.810   0.382  11.912
21258W        W93683  37.961   2.417  11.954
21259W        W93684  38.787  35.773  10.340
21260W        W93685   1.269  31.908  14.824
21261W        W93686  38.251  12.121   0.214
21262W        W93687  34.521  13.408   2.032
21263W        W93688   2.299  43.930   2.736
21264W        W93689  31.835  18.694  10.961
21265W        W93690   6.297  41.714  10.512
21266W        W93691  26.664   4.755   3.615
21267W        W93692   9.672  21.747  12.101
21268W        W93693  19.158   1.253  13.887
21269W        W93694   6.952  34.585   1.374
21270W        W93695   1.758  30.408  13.481
21271W        W93696  29.521  12.077  12.581
21272W        W93697   4.293   1.349   4.343
21273W        W93698  40.305  44.325   2.864
21274W        W93699  34.577   1.993   3.002
21275W        W93700  34.129  22.731  13.901
21276W        W93701  28.436  34.089  13.193
21277W        W93702   4.849  25.148  11.854
21278W        W93703  44.449   0.185   3.291
21279W        W93704  26.743  44.987  11.999
21280W        W93705  19.062   0.105  12.593
21281W        W93706  34.976   2.826  12.078
21282W        W93707   2.388  14.173   0.570
21283W        W93708  44.587  39.538  11.922
21284W        W93709  30.127  36.835   2.768
21285W        W93710  36.836  39.242  10.827
21286W        W93711   7.712  21.216   1.772
21287W        W93712  36.749  39.305   1.160
21288W        W93713  11.220  40.406  14.027
21289W        W93714  33.368  14.847   2.240
21290W        W93715  25.919   2.371  12.432
21291W        W93716  36.439  24.300   4.642
21292W        W93717   7.805   5.779   0.522
21293W        W93718  19.145   1.375   4.426
21294W        W93719  10.562  39.826  14.511
21295W        W93720  36.992  14.656   3.699
21296W        W93721  26.893  38.477  13.271
21297W        W93722  13.204   4.329  14.238
21298W        W93723  14.918  33.500  13.814
21299W        W93724  37.273  32.732   5.596
21300W        W93725  44.891   8.368   4.555
21301W        W93726  23.043  22.504   0.406
21302W        W93727  14.817  23.103   4.317
21303W        W93728   6.742  34.343  11.153
21304W        W93729  21.977  39.595  11.263
21305W        W93730  40.889  19.015   0.602
21306W        W93731   9.300  34.253   3.709
21307W        W93732   6.394  20.380  14.333
21308W        W93733  39.287  22.735   1.183
21309W        W93734  42.394  18.124   4.529
21310W        W93735  13.080  41.334   2.623
21311W        W93736  19.064   4.872   4.671
21312W        W93737  14.813  23.484  14.984
21313W        W93738  37.947  30.678  12.904
21314W        W93739  31.970   7.508  11.670
21315W        W93740  25.077  42.298  11.574
21316W        W93741  25.643  39.915  14.065
21317W        W93742  15.992  40.797  12.126
21318W        W93743  21.773   3.526  11.488
21319W        W93744  13.273  37.049  14.956
21320W        W93745  17.531  19.605   4.147
21321W        W93746  13.257  17.777  14.169
21322W        W93747  34.569  33.417  14.386
21323W        W93748  23.343   5.730  12.016
21324W        W93749  35.905   6.777  13.090
21325W        W93750   6.360  19.873  14.395
21326W        W93751  22.418  15.315   3.817
21327W        W93752  10.645  34.119   4.108
21328W        W93753  22.997  19.049  12.553
21329W        W93754  30.236  24.023   0.842
21330W        W93755  13.402  19.791  10.391
21331W        W93756  41.056  39.621  12.064
21332W        W93757  32.556  40.050  13.624
21333W        W93758  15.606  13.151  13.290
21334W        W93759   0.948  33.284  13.391
21335W        W93760  10.860   2.084   0.892
21336W        W93761  32.465  16.986   4.707
21337W        W93762   9.288  32.965   4.192
21338W        W93763  40.784  10.433  14.977
21339W        W93764  18.681  29.592  13.322
21340W        W93765   4.796  14.603   3.935
21341W        W93766  16.526  25.634   3.083
21342W        W93767  28.040  42.948  13.235
21343W        W93768   3.509  23.701  11.585
21344W        W93769   3.823  15.549   1.531
21345W        W93770   9.851  41.259  12.597
21346W        W93771   0.729  21.813  13.911
21347W        W93772  27.177   7.874   0.289
21348W        W93773  44.577  18.276  12.888
21349W        W93774  17.657  22.609  14.474
21350W        W93775  20.425  29.658  11.936
21351W        W93776  18.229  22.878   4.825
21352W        W93777   4.438  30.870  14.432
21353W        W93778  22.466   9.312  11.561
21354W        W93779  11.369  24.208   4.675
21355W        W93780  31.027  40.091  14.845
21356W        W93781  11.751  29.155  12.662
21357W        W93782  29.826  26.109  14.846
21358W        W93783  21.687   2.861  14.530
21359W        W93784   2.579  18.075  11.610
21360W        W93785  18.288  23.170   1.305
21361W        W93786  19.567  15.286  11.526
21362W        W93787   9.113  17.239  13.828
21363W        W93788  12.617  32.386   3.706
21364W        W93789  30.051   1.074  11.360
21365W        W93790  30.568  28.055  11.578
21366W        W93791   6.852   1.767  10.737
21367W        W93792   4.751  43.771  12.598
21368W        W93793   6.347  37.183  13.327
21369W        W93794   6.831   0.452   1.090
21370W        W93795  39.618  16.655  13.982
21371W        W93796  22.628  25.485   0.422
21372W        W93797  24.621   2.032   4.203
21373W        W93798  32.107  24.953   2.378
21374W        W93799   7.640  10.072  12.011
21375W        W93800  21.339  31.727   2.422
21376W        W93801  26.383  24.436   2.287
21377W        W93802  44.798  16.411  13.899
21378W        W93803  11.319   3.902   4.836
21379W        W93804   6.371  42.974  12.908
21380W        W93805  15.121  10.633  10.908
21381W        W93806  38.454   5.917  13.701
21382W        W93807  39.211  15.351  11.957
21383W        W93808  27.194  32.422  14.171
21384W        W93809  12.601   5.617   4.151
21385W        W93810  19.635  37.353   4.100
21386W        W93811  22.462  13.184   2.172
21387W        W93812   6.653  19.770  13.010
21388W        W93813   7.323  35.486   3.898
21389W        W93814  23.635   1.951   2.714
21390W        W93815   7.323  18.333   4.119
21391W        W93816  38.321  30.929   4.000
21392W        W93817  32.483  43.289  12.342
21393W        W93818  44.347  44.680   3.227
21394W        W93819   6.845  43.286   1.543
21395W        W93820   5.953  14.252   1.119
21396W        W93821   7.813   7.447   2.752
21397W        W93822  23.220  15.140  13.909
21398W        W93823  37.624  14.050  13.964
21399W        W93824  13.250   1.074  12.069
21400W        W93825   9.396  33.916   1.779
21401W        W93826  16.024  33.006   3.699
21402W        W93827  30.582  40.387   1.292
21403W        W93828  15.778  43.591   2.671
21404W        W93829  39.766   5.693  14.894
21405W        W93830  40.479  10.494   1.678
21406W        W93831  13.168  27.461   4.924
21407W        W93832  40.123  13.183  14.024
21408W        W93833  20.054  29.621  11.582
21409W        W93834  41.269  39.855   3.279
21410W        W93835  17.359  22.084  11.932
21411W        W93836   9.112  22.478   2.855
21412W        W93837  32.342  37.280  13.848
21413W        W93838  11.148  37.437   0.210
21414W        W93839   8.241  23.407  12.376
21415W        W93840   0.489  18.038  13.997
21416W        W93841   8.783  43.202   1.339
21417W        W93842  27.573  36.954  10.912
21418W        W93843  39.912  33.885   2.261
21419W        W93844   3.647  37.018  10.178
21420W        W93845  31.970  19.978  12.920
21421W        W93846  23.859  16.710  12.836
21422W        W93847  25.634   1.518  12.845
21423W        W93848   0.369   5.290   2.861
21424W        W93849   3.278  26.606  14.084
21425W        W93850  12.542  24.962   0.461
21426W        W93851   0.508  14.766  14.539
21427W        W93852   1.264  21.619   4.715
21428W        W93853  15.834  10.705   2.206
21429W        W93854  19.142  33.797  11.460
21430W        W93855   0.800  13.322  13.952
21431W        W93856  12.233  28.209  10.734
21432W        W93857  32.688  13.384   2.712
21433W        W93858   2.396   8.392   0.676
21434W        W93859  43.921  15.615   3.749
21435W        W93860  33.404  32.150   2.784
21436W        W93861  28.401  44.498   0.315
21437W        W93862  20.709  24.438   0.781
21438W        W93863  26.654   8.622   0.092
21439W        W93864  14.338  26.479   4.303
21440W        W93865  36.428  25.073   1.628
21441W        W93866  15.354  11.207  13.373
21442W        W93867  21.718   4.943   2.720
21443W        W93868  43.029  44.012  11.193
21444W        W93869  25.385   8.127   4.339
21445W        W93870  10.577  31.588   2.349
21446W        W93871  34.061   6.018   0.440
21447W        W93872  33.839   3.811   3.377
21448W        W93873  25.030   5.399  13.794
21449W        W93874  42.795  25.147  12.066
21450W        W93875  41.741  44.839   5.063
21451W        W93876  30.733   6.293  12.639
21452W        W93877  21.061  33.284  14.510
21453W        W93878  15.004   9.835  14.865
21454W        W93879  44.869  25.287   0.464
21455W        W93880  26.659  17.078  13.728
21456W        W93881  27.650  14.219   3.567
21457W        W93882  42.056   4.117   3.136
21458W        W93883  13.372  28.299   3.769
21459W        W93884  24.312  42.148  14.731
21460W        W93885  26.060  29.613   0.088
21461W        W93886  30.114   4.926   0.812
21462W        W93887  40.196   3.214  12.456
21463W        W93888   0.692  21.093   1.769
21464W        W93889  16.764   6.655   3.731
21465W        W93890   9.895  35.135  13.496
21466W        W93891  36.694  26.461   4.043
21467W        W93892  22.758   0.196   3.790
21468W        W93893  38.861   3.129   1.338
21469W        W93894  16.592  32.392   2.159
21470W        W93895  25.503  26.660  13.302
21471W        W93896   0.549  16.295   4.255
21472W        W93897  22.063  18.018   0.027
21473W        W93898  34.622  36.884  11.499
21474W        W93899  25.654  33.912   0.852
21475W        W93900  26.522  41.940   0.114
21476W        W93901  37.320  29.640   0.923
21477W        W93902  32.056  37.383   4.545
21478W        W93903   8.466   4.655   0.555
21479W        W93904   6.418  36.425  12.886
21480W        W93905  39.443  20.761  11.143
21481W        W93906  13.628  27.979  11.362
21482W        W93907  35.838  38.956   0.710
21483W        W93908  28.429  22.733  13.006
21484W        W93909  12.271  11.260   2.121
21485W        W93910  31.461  42.986  11.096
21486W        W93911  10.771  12.596   2.208
21487W        W93912  17.447  36.612   3.660
21488W        W93913  29.101  18.660  13.829
21489W        W93914  39.010  31.532   2.228
21490W        W93915  22.474  29.652  12.005
21491W        W93916   9.731  30.186  12.896
21492W        W93917  19.829  15.196   0.445
21493W        W93918  14.070  38.339  10.804
21494W        W93919  25.740  37.071  11.143
21495W        W93920  43.018  20.973  13.200
21496W        W93921  16.808  40.376   2.242
21497W        W93922  31.664   6.746   1.608
21498W        W93923  25.269  23.064  12.473
21499W        W93924   1.381  35.972   2.594
21500W        W93925  33.049  29.210   3.296
21501W        W93926  34.683  11.078   4.080
21502W        W93927  35.743  34.955  13.544
21503W        W93928  39.358  28.362   3.820
21504W        W93929  27.984   5.354   2.462
21505W        W93930   6.125  16.435  10.316
21506W        W93931  16.853  23.651   1.839
21507W        W93932  27.097  38.550   0.744
21508W        W93933  14.370  23.772  13.550
21509W        W93934  35.417  36.460  14.860
21510W        W93935   5.476   4.856   3.289
21511W        W93936  31.133  24.583  14.981
21512W        W93937   3.387   0.634  10.554
21513W        W93938  19.710   2.828   1.622
21514W        W93939  16.694  30.638  10.025
21515W        W93940   8.309  24.957  12.612
21516W        W93941  27.144  24.529  10.764
21517W        W93942  10.694  40.483   1.260
21518W        W93943  23.583  27.982   3.773
21519W        W93944  22.713  36.344  11.920
21520W        W93945  29.326  16.177   2.947
21521W        W93946  13.186  33.426   1.351
21522W        W93947  42.370  34.846   1.197
21523W        W93948  13.871  37.369   0.871
21524W        W93949  23.439  44.800   4.710
21525W        W93950   9.631  16.817  12.853
21526W        W93951  19.569   4.767   0.245
21527W        W93952  39.406  40.963  11.441
21528W        W93953  18.496   4.808  10.708
21529W        W93954  23.871  42.484  10.712
21530W        W93955  42.271   2.466  12.092
21531W        W93956  25.494  22.053   3.209
21532W        W93957  37.870  43.530   0.689
21533W        W93958   2.501  12.203  12.020
21534W        W93959  25.152   6.863  12.514
21535W        W93960  43.781  26.735   0.822
21536W        W93961  24.775  43.067   1.731
21537W        W93962  10.187   2.498   0.528
21538W        W93963   2.299  21.337  10.714
21539W        W93964   1.706  28.998   0.321
21540W        W93965   9.214  27.995   1.942
21541W        W93966  30.213  14.601  14.838
21542W        W93967  15.646  22.510  10.835
21543W        W93968  28.807  13.535  11.737
21544W        W93969  26.492   5.665   3.420
21545W        W93970  15.502  19.788   2.513
21546W        W93971  41.233   9.633  12.395
21547W        W93972  23.345  44.029  14.028
21548W        W93973  36.968  19.379   1.329
21549W        W93974  22.830  33.970   1.101
21550W        W93975  10.590   8.176   4.211
21551W        W93976  34.647   4.848   3.677
21552W        W93977  10.257  44.028   3.743
21553W        W93978  28.184  18.193   1.847
21554W        W93979  28.600  44.289  11.459
21555W        W93980  19.095  20.548  12.960
21556W        W93981  15.092  17.220   0.432
21557W        W93982  12.887  38.955   2.605
21558W        W93983  26.624  44.703   3.520
21559W        W93984  33.700  16.573  13.009
21560W        W93985  38.934  10.262  12.412
21561W        W93986  15.842  27.516   4.512
21562W        W93987  36.898  29.509   4.668
21563W        W93988  42.322  14.587   3.233
21564W        W93989   0.509  29.573  11.991
21565W        W93990  23.995  27.239  11.537
21566W        W93991  24.633  18.056  12.593
21567W        W93992  27.665  27.211  13.510
21568W        W93993  24.841  16.206   0.775
21569W        W93994  33.846  32.408   2.825
21570W        W93995  24.516  18.022  14.479
21571W        W93996   0.737  42.941  13.558
21572W        W93997  23.771  36.142  11.129
21573W        W93998   2.337  41.573   2.301
21574W        W93999  41.026  14.597   0.224
21575W        W94000  21.202  30.898   2.820
21576W        W94001  21.156  25.841  14.851
21577W        W94002  23.448  25.779  12.104
21578W        W94003  14.304  27.762  12.468
21579W        W94004  13.184  12.263   2.340
21580W        W94005  27.127  43.546   2.363
21581W        W94006  35.084  31.356  12.367
21582W        W94007  28.634  35.337   0.240
21583W        W94008  29.953  15.282   2.753
21584W        W94009  23.713  14.843   3.077
21585W        W94010   7.427  26.972   2.263
21586W        W94011   4.408  38.916  13.459
21587W        W94012  20.525   9.757  13.836
21588W        W94013  33.024  21.251   1.471
21589W        W94014  26.656  22.683  13.307
21590W        W94015  22.081  34.045   4.842
21591W        W94016   8.271  28.083   1.586
21592W        W94017  37.857  39.105   1.783
21593W        W94018  43.508  22.097   2.580
21594W        W94019   1.217   6.337   0.246
21595W        W94020   2.449   6.657  10.713
21596W        W94021  11.841  44.533   2.359
21597W        W94022  13.704  15.917   2.849
21598W        W94023  43.142   7.675  13.893
21599W        W94024  13.330  40.946   1.144
21600W        W94025  10.586  12.849   1.240
21601W        W94026  23.269  27.634   1.984
21602W        W94027   2.690  15.619   1.778
21603W        W94028   4.685  36.002  11.996
21604W        W94029  26.621  18.591   2.421
21605W        W94030  27.362  25.438   1.333
21606W        W94031   9.710  30.178   3.740
21607W        W94032  33.458  27.157  11.879
21608W        W94033  43.030   6.354  14.044
21609W        W94034  33.541  38.557  13.450
21610W        W94035   4.712   3.134  13.817
21611W        W94036  35.375  41.868   4.891
21612W        W94037  34.063  25.016  10.930
21613W        W94038  44.053  19.789  11.170
21614W        W94039   3.287  43.015  11.357
21615W        W94040  19.620  40.562   1.593
21616W        W94041  13.737  44.890   2.850
21617W        W94042  34.342  17.798   3.328
21618W        W94043  17.872  42.830  10.940
21619W        W94044   8.640   4.382  13.448
21620W        W94045  42.670   4.595  11.978
21621W        W94046   4.315  26.407  13.535
21622W        W94047  11.568  31.438  11.212
21623W        W94048  30.405  33.793   3.674
21624W        W94049  19.342   7.948  12.034
21625W        W94050  41.511  31.686   1.976
21626W        W94051  26.743  39.198   1.507
21627W        W94052  38.575   4.422   0.323
21628W        W94053  24.275  35.290  11.165
21629W        W94054   8.807  12.799   1.169
21630W        W94055  21.712  18.718   0.997
21631W        W94056  13.068  33.356  13.802
21632W        W94057  32.683  12.337  11.236
21633W        W94058  32.093  34.842  13.636
21634W        W94059  21.771  22.180   3.606
21635W        W94060  20.105  28.425  10.630
21636W        W94061  20.301   1.861   2.836
21637W        W94062   8.379   9.422  12.540
21638W        W94063   2.741  19.225   4.618
21639W        W94064  16.226  42.989   3.263
21640W        W94065   8.625  10.839   0.453
21641W        W94066  19.915  12.860  11.882
21642W        W94067  26.771  39.213   4.124
21643W        W94068  15.169  22.296   2.932
21644W        W94069  29.888  23.212   0.851
21645W        W94070  35.991  17.546  13.901
21646W        W94071  30.464  42.945   5.002
21647W        W94072  12.572  41.596   4.801
21648W        W94073   1.951  43.441  13.973
21649W        W94074  22.113  36.017  12.015
21650W        W94075  31.140  33.518   3.190
21651W        W94076  11.054  38.003  10.668
21652W        W94077  27.654  26.953   0.756
21653W        W94078  12.617   4.349  13.500
21654W        W94079  39.600  12.135  10.719
21655W        W94080  17.905   2.313  10.543
21656W        W94081   2.234  38.941   0.258
21657W        W94082  10.797   7.733   1.420
21658W        W94083  43.452   0.532   1.234
21659W        W94084  12.062   8.923  13.536
21660W        W94085  18.305   2.145   9.607
21661W        W94086  27.133  11.304   2.355
21662W        W94087   6.937  38.820  14.246
21663W        W94088  21.479   1.873  13.063
21664W        W94089  10.669   3.243   0.051
21665W        W94090  12.202  11.671  14.960
21666W        W94091  13.668  40.838  10.600
21667W        W94092  24.070  40.844  14.272
21668W        W94093  13.238  15.525  14.024
21669W        W94094   8.433  20.091   0.839
21670W        W94095  29.810  27.506   0.248
21671W        W94096  40.575  23.691   1.194
21672W        W94097   1.349   0.731   1.330
21673W        W94098  18.241  39.784   1.236
21674W        W94099  22.805  24.650   2.753
21675W        W94100   7.645  34.089  12.051
21676W        W94101  37.029  26.452  12.552
21677W        W94102  26.158  37.920   3.339
21678W        W94103  44.944   2.725   1.951
21679W        W94104  33.286   5.295   3.610
21680W        W94105  32.311  27.107   2.984
21681W        W94106  15.135  11.488   3.710
21682W        W94107  23.589   8.810  13.533
21683W        W94108  21.099  18.828  12.190
21684W        W94109  40.158  27.181  13.058
21685W        W94110  44.044  33.958  10.503
21686W        W94111   4.932  43.007   2.673
21687W        W94112   7.927  35.729   1.109
21688W        W94113  44.690   4.183  14.627
21689W        W94114  21.587  24.127   4.050
21690W        W94115   1.363  30.179   1.840
21691W        W94116  43.075   5.451  10.650
21692W        W94117   8.882   2.956  12.057
21693W        W94118  16.312  28.586  13.993
21694W        W94119  43.535  19.052   3.057
21695W        W94120   0.022  20.467  14.903
21696W        W94121  33.349  39.038  11.233
21697W        W94122  38.978  41.204   4.510
21698W        W94123  20.686  41.184  12.480
21699W        W94124  39.022  32.322   5.349
21700W        W94125  36.374   5.366   1.968
21701W        W94126  24.666  22.751   2.330
21702W        W94127  27.641   3.745  11.364
21703W        W94128  34.495   4.392   3.854
21704W        W94129  15.312   3.378   4.082
21705W        W94130   7.272   8.253   3.757
21706W        W94131  36.982  24.204   0.896
21707W        W94132  24.725  41.953  14.443
21708W        W94133   7.476  37.889  12.001
21709W        W94134   6.124  25.064  13.522
21710W        W94135  25.308  43.764   2.303
21711W        W94136  33.552  42.024  10.137
21712W        W94137  36.139  36.929  11.519
21713W        W94138  11.662  37.652  13.801
21714W        W94139  32.790   8.279   0.908
21715W        W94140  42.195  13.571   4.172
21716W        W94141  10.722   5.307   0.457
21717W        W94142  26.451  17.339   1.304
21718W        W94143  40.802  29.921  12.936
21719W        W94144  43.236   5.733  12.927
21720W        W94145  23.398   8.304  14.855
21721W        W94146  31.903  17.900  10.292
21722W        W94147  33.891  19.799  12.992
21723W        W94148  36.393   6.804   0.100
21724W        W94149  30.461  27.583  10.688
21725W        W94150  21.302   7.746  14.537
21726W        W94151  22.049   2.353  12.206
21727W        W94152  13.854   4.835  14.383
21728W        W94153  29.514  28.683  14.739
21729W        W94154  35.346  23.127  13.056
21730W        W94155  33.470  19.828   3.215
21731W        W94156  28.623  40.808  11.406
21732W        W94157  13.417  22.846   4.118
21733W        W94158  30.086  14.280  10.746
21734W        W94159  28.224  42.771  11.150
21735W        W94160  35.929  35.854  14.990
21736W        W94161  29.590  40.758   2.818
21737W        W94162  37.062  19.530  13.408
21738W        W94163  32.927  22.055   4.927
21739W        W94164  27.820  30.455   4.175
21740W        W94165  16.883  16.589   4.492
21741W        W94166  29.657  26.951   2.218
21742W        W94167  19.749   9.235   4.506
21743W        W94168   7.238  32.458   2.750
21744W        W94169  13.059  11.696   2.676
21745W        W94170  24.675   5.826   3.468
21746W        W94171  24.695  20.028  13.328
21747W        W94172  26.012  39.347  10.622
21748W        W94173  40.057  43.299   1.919
21749W        W94174  10.412   9.410  12.385
21750W        W94175  11.134   5.004  11.538
21751W        W94176  35.839  29.696  11.192
21752W        W94177  31.100  40.207  13.029
21753W        W94178  19.588  44.324  12.478
21754W        W94179  35.989   5.353   1.041
21755W        W94180  11.822  25.000  10.198
21756W        W94181   2.489   4.100  14.070
21757W        W94182  38.114   8.676  12.776
21758W        W94183   5.058  19.725   1.848
21759W        W94184  34.357   4.953   2.150
21760W        W94185  24.092  25.205  14.414
21761W        W94186  31.385  25.997  14.833
21762W        W94187  42.216   2.870   3.347
21763W        W94188  33.055  35.055   3.877
21764W        W94189  13.546  29.943  11.116
21765W        W94190  30.044  36.263  11.135
21766W        W94191   2.897  41.750   4.405
21767W        W94192  27.941  19.051   4.154
21768W        W94193   7.810   6.928   2.802
21769W        W94194  42.325  22.975  11.450
21770W        W94195  35.416   7.494   4.280
21771W        W94196  43.375   7.174  10.361
21772W        W94197  33.160   7.147  14.701
21773W        W94198   2.386  40.712  13.491
21774W        W94199  14.414   2.744   0.527
21775W        W94200   1.546  20.115  14.956
21776W        W94201   5.217   7.241  13.321
21777W        W94202  29.038  19.029   1.964
21778W        W94203  38.436  23.120  14.208
21779W        W94204  35.568   6.745   2.950
21780W        W94205  41.553  31.542  11.488
21781W        W94206  26.188  29.211  11.125
21782W        W94207  17.493   3.730   2.306
21783W        W94208  32.477  38.294  14.027
21784W        W94209  30.633  11.393  10.978
21785W        W94210   7.938  44.221  13.539
21786W        W94211  34.123  35.456   4.581
21787W        W94212   5.707   9.620  11.988
21788W        W94213   1.989  42.805  10.459
21789W        W94214  13.574  18.392  11.042
21790W        W94215  28.542   0.886   3.998
21791W        W94216  31.450  15.206  11.893
21792W        W94217   1.582   3.708   1.011
21793W        W94218   3.916  37.723  14.208
21794W        W94219  16.553   7.776   3.875
21795W        W94220   2.556   8.278   0.196
21796W        W94221   2.414   6.590  13.862
21797W        W94222   3.691   8.848   2.943
21798W        W94223  28.463  32.123  10.689
21799W        W94224  40.757  39.354  14.979
21800W        W94225  28.236  43.934  11.874
21801W        W94226  44.709  30.081  11.003
21802W        W94227  20.789  15.275   2.496
21803W        W94228  43.007  15.660  10.414
21804W        W94229  34.612  44.913  12.597
21805W        W94230  10.277  24.204  13.098
21806W        W94231  13.481  42.391  12.307
21807W        W94232  17.194  17.577  13.850
21808W        W94233  13.587  43.908  10.742
21809W        W94234  44.509  12.267  10.444
21810W        W94235  19.775   5.074   2.805
21811W        W94236  28.379  13.107  13.029
21812W        W94237  21.039  13.811  14.793
21813W        W94238  35.385  43.277   4.582
21814W        W94239  13.212  24.465   2.817
21815W        W94240  29.878  40.035   1.666
21816W        W94241  41.949  17.646  14.720
21817W        W94242  12.603  10.832  10.297
21818W        W94243  37.618  35.044   4.076
21819W        W94244  12.948   2.166   1.339
21820W        W94245  26.421   7.761   0.505
21821W        W94246  31.964  38.987  10.087
21822W        W94247   8.680   3.851  13.426
21823W        W94248  44.512  26.781  13.501
21824W        W94249  26.960   5.397  12.523
21825W        W94250  36.059  28.484  10.552
21826W        W94251  25.218  13.157   0.216
21827W        W94252  26.067   7.431   3.288
21828W        W94253   1.046   1.934  12.907
21829W        W94254  25.237  12.383  14.822
21830W        W94255   0.257   3.886  14.925
21831W        W94256  17.839   1.528   3.616
21832W        W94257  18.204  29.499   2.273
21833W        W94258  38.396  42.865   1.743
21834W        W94259  43.524  25.584  11.531
21835W        W94260  38.876  21.536  11.144
21836W        W94261  17.902   8.411   1.766
21837W        W94262   0.019  13.587  13.370
21838W        W94263  14.390  43.265  14.336
21839W        W94264  31.056  30.329   3.304
21840W        W94265  29.727  28.007   4.030
21841W        W94266  28.923   4.662   2.553
21842W        W94267   0.031  41.863   4.494
21843W        W94268  10.611   4.170  11.554
21844W        W94269  11.340  36.574  14.929
21845W        W94270  32.494  12.568  13.436
21846W        W94271  32.968  23.064  12.183
21847W        W94272  24.555  43.618   3.645
21848W        W94273   0.935   1.688   3.223
21849W        W94274  13.815  41.054  14.771
21850W        W94275  26.183   7.150   3.786
21851W        W94276  12.857  30.367  14.787
21852W        W94277  42.249  21.983  12.878
21853W        W94278  22.823  14.292  10.314
21854W        W94279  35.379  11.212   3.568
21855W        W94280  10.348  17.821   4.010
21856W        W94281   7.183  25.467   1.172
21857W        W94282  10.279  22.037  11.687
21858W        W94283  18.150  27.723   0.482
21859W        W94284  15.096  11.891  12.653
21860W        W94285  31.667  39.225   1.844
21861W        W94286  23.409   8.717  14.363
21862W        W94287   4.676   5.693  14.223
21863W        W94288  44.074  16.340  12.859
21864W        W94289  19.689  13.200  13.949
21865W        W94290   8.186  36.061   2.705
21866W        W94291  18.438  20.002  12.762
21867W        W94292  43.894  15.995   4.099
21868W        W94293   8.650  12.467   1.763
21869W        W94294   1.851  14.134  13.735
21870W        W94295  42.057  31.829   2.205
21871W        W94296  33.472  18.602  13.918
21872W        W94297  30.311   2.894  13.776
21873W        W94298  21.745  32.346  14.399
21874W        W94299   4.363  40.986   1.157
21875W        W94300  22.984  23.212  13.429
21876W        W94301  29.074  36.516  12.071
21877W        W94302   4.191  14.619   0.705
21878W        W94303  34.797  13.572  12.196
21879W        W94304  20.831   5.525  12.026
21880W        W94305   5.783  41.486   0.223
21881W        W94306   3.048  26.200   1.009
21882W        W94307   9.258  41.847  11.985
21883W        W94308  31.655  38.588   3.729
21884W        W94309  44.471  28.874   3.786
21885W        W94310  21.667  28.557  11.308
21886W        W94311  37.966  22.699  10.293
21887W        W94312  20.695  44.571  11.751
21888W        W94313   1.165   8.708  10.506
21889W        W94314  28.659   8.932  12.066
21890W        W94315  17.052  12.381   2.243
21891W        W94316  14.519  24.098  12.397
21892W        W94317  14.234  39.924  13.079
21893W        W94318   4.780   5.872  11.602
21894W        W94319   2.572  17.321   4.135
21895W        W94320  41.964  31.903  13.895
21896W        W94321  39.488  35.824   2.335
21897W        W94322  12.006  42.014   3.273
21898W        W94323  30.436  30.850  10.654
21899W        W94324   3.919  26.754   4.462
21900W        W94325  12.155  24.136   9.694
21901W        W94326  23.645  10.698   1.955
21902W        W94327   0.122   1.447   3.487
21903W        W94328  14.379  17.081   4.005
21904W        W94329  31.634  41.772   4.453
21905W        W94330  10.606   4.332  14.288
21906W        W94331  16.044  40.742   3.655
21907W        W94332  15.754  38.328   4.129
21908W        W94333  12.843   5.827   4.620
21909W        W94334  14.796   7.492  10.898
21910W        W94335  13.061  17.038   3.790
21911W        W94336  44.374  38.902   5.000
21912W        W94337  15.487   5.296  13.857
21913W        W94338  29.049  40.426  12.015
21914W        W94339  36.802  35.568  13.147
21915W        W94340  34.368  43.198  11.572
21916W        W94341  21.686  23.437   2.854
21917W        W94342   1.269   9.358   3.830
21918W        W94343  41.998   3.805  12.308
21919W        W94344   1.087   9.208  13.541
21920W        W94345  27.452  34.764   1.271
21921W        W94346  31.697  17.901   4.952
21922W        W94347  10.765  10.822   1.350
21923W        W94348  17.461   3.158   4.900
21924W        W94349  42.737   1.420   3.960
21925W        W94350  20.704  23.499  11.488
21926W        W94351  29.466  15.010  12.935
21927W        W94352   4.505  19.310  12.300
21928W        W94353   3.851  14.183  12.413
21929W        W94354  29.940   1.533  10.471
21930W        W94355  27.926  32.917  12.979
21931W        W94356  39.854  27.026  12.631
21932W        W94357  14.750  39.760  13.036
21933W        W94358   5.232  44.994   0.347
21934W        W94359  27.820  10.261   4.227
21935W        W94360  12.325  20.122   1.187
21936W        W94361  17.249  43.180   3.338
21937W        W94362   1.382  37.599  13.802
21938W        W94363  31.004  40.026   0.795
21939W        W94364  28.631  27.268   4.103
21940W        W94365  21.609  28.640  14.925
21941W        W94366  41.754  24.423  10.654
21942W        W94367  19.458  16.216  14.864
21943W        W94368  18.259  42.486  12.515
21944W        W94369  17.225  22.683   0.257
21945W        W94370   8.726  21.124   0.890
21946W        W94371   9.466   1.302  14.456
21947W        W94372  14.063  21.593  10.661
21948W        W94373   3.881  22.251  10.706
21949W        W94374  14.771  38.701  14.256
21950W        W94375  39.551  17.718   3.596
21951W        W94376   6.682  16.770  10.775
21952W        W94377   7.709  29.702  14.203
21953W        W94378  20.035  44.940  13.933
21954W        W94379  42.618  31.965   2.245
21955W        W94380  30.590  38.459   0.411
21956W        W94381  35.805  14.896   0.382
21957W        W94382  34.354  38.938  12.941
21958W        W94383  22.466  38.993  13.805
21959W        W94384  42.670  23.053  12.657
21960W        W94385  37.641  10.930   2.126
21961W        W94386  31.287  24.953  12.025
21962W        W94387   0.149   6.753   0.155
21963W        W94388  12.221  20.080  13.328
21964W        W94389  38.589  39.433   3.732
21965W        W94390  14.249   3.719   0.471
21966W        W94391   0.785   9.140  12.666
21967W        W94392  16.627   6.035  10.603
21968W        W94393  38.354  43.448   4.098
21969W        W94394  10.411  17.127   5.316
21970W        W94395  34.551  24.078  13.846
21971W        W94396  35.887  22.695   2.811
21972W        W94397  26.070   7.713   4.841
21973W        W94398  30.547  44.438   3.689
21974W        W94399   3.824   0.417   0.508
21975W        W94400  26.792  39.639  13.999
21976W        W94401   3.524   0.337   4.720
21977W        W94402  32.563  16.622   0.204
21978W        W94403   5.111   2.158   2.283
21979W        W94404  38.629  24.466  10.762
21980W        W94405   7.281  34.346   0.306
21981W        W94406  13.250  17.949   0.966
21982W        W94407  24.756   4.530   1.723
21983W        W94408  29.578  37.058  11.150
21984W        W94409  16.667  18.403   0.418
21985W        W94410  41.080  38.419  12.541
21986W        W94411  33.137  28.527  12.024
21987W        W94412   0.334   4.874  14.698
21988W        W94413  16.542  33.422  12.917
21989W        W94414   0.972  25.222  13.868
21990W        W94415   9.173  35.827  14.979
21991W        W94416   8.406  44.114   2.109
21992W        W94417  15.953  30.868   1.224
21993W        W94418  16.459  32.221  12.055
21994W        W94419  16.413   0.263   1.251
21995W        W94420  36.944   5.068   2.798
21996W        W94421   8.646  26.167  11.791
21997W        W94422   5.282  20.619   4.568
21998W        W94423  11.740   3.777   4.539
21999W        W94424  26.446   2.948  12.923
22000W        W94425  34.897   6.764   3.622
22001W        W94426   6.538   4.085   1.963
22002W        W94427  43.994  23.747   4.143
22003W        W94428  32.246   5.348   2.224
22004W        W94429  43.603  25.037   3.301
22005W        W94430  21.985  17.638   4.514
22006W        W94431  30.062  30.225  12.051
22007W        W94432   6.262  20.065  14.871
22008W        W94433  40.052   2.448  13.750
22009W        W94434   9.124   5.914  13.872
22010W        W94435   1.870  11.172   4.776
22011W        W94436   0.877  39.916  14.793
22012W        W94437  30.945  19.510   2.564
22013W        W94438  31.910  37.767  12.604
22014W        W94439  27.551  29.999   4.213
22015W        W94440  27.733   6.616  13.929
22016W        W94441  24.121  33.134   0.772
22017W        W94442  25.061   7.322  13.874
22018W        W94443  37.565   2.276  11.652
22019W        W94444  37.359  40.470   4.097
22020W        W94445  30.231  13.851   2.211
22021W        W94446  19.022   0.970  13.083
22022W        W94447   5.307   2.572   3.195
22023W        W94448   7.844   9.187   1.297
22024W        W94449  30.490   2.450   2.023
22025W        W94450  27.199   3.479  12.811
22026W        W94451  24.054  23.648   4.616
22027W        W94452  32.200   2.282  12.900
22028W        W94453  41.572  28.047  10.766
22029W        W94454   3.177  27.035   1.339
22030W        W94455  27.012  34.908  14.084
22031W        W94456   2.566  12.262   0.363
22032W        W94457  22.821  16.241  11.961
22033W        W94458  39.756  22.737   0.385
22034W        W94459   4.193   1.827   4.618
22035W        W94460  24.996   3.108  13.189
22036W        W94461   5.908  37.731  10.784
22037W        W94462  19.726   5.698  13.141
22038W        W94463  37.858   2.967   0.809
22039W        W94464  23.621   6.360   0.332
22040W        W94465   8.435  32.401   1.714
22041W        W94466  24.981  36.891   4.704
22042W        W94467   9.299  26.936   1.687
22043W        W94468  18.024   5.657   1.800
22044W        W94469  44.516  35.570  11.032
22045W        W94470   7.295  24.626  10.666
22046W        W94471   8.785  38.633   1.332
22047W        W94472  37.480  18.639  14.314
22048W        W94473  23.541  41.653   0.803
22049W        W94474  22.135   3.049   2.794
22050W        W94475  13.170  44.069  14.444
22051W        W94476  21.942   9.207  10.734
22052W        W94477  26.010  39.499  12.889
22053W        W94478  41.041   8.771   2.780
22054W        W94479  43.273   5.960   0.923
22055W        W94480  25.588  22.297   4.080
22056W        W94481  27.138  37.013  14.444
22057W        W94482  33.909  24.167   0.121
22058W        W94483  24.461   3.798   4.442
22059W        W94484  25.688   0.340   0.399
22060W        W94485  29.497  36.383   4.465
22061W        W94486  27.021  43.919  10.372
22062W        W94487  40.905  31.165  13.324
22063W        W94488   0.426  25.362  11.715
22064W        W94489  23.168  24.850   1.034
22065W        W94490  35.390  24.585   3.251
22066W        W94491  13.579  41.957  11.443
22067W        W94492  27.995  15.136  12.411
22068W        W94493   5.687  15.470   4.659
22069W        W94494  15.229  32.995  10.936
22070W        W94495  25.146  38.017   1.383
22071W        W94496   3.395  12.769  10.749
22072W        W94497  20.049   3.259   2.833
22073W        W94498  34.592   8.335   0.451
22074W        W94499  11.732  24.005   0.518
22075W        W94500  12.754  32.037   3.247
22076W        W94501  31.069  16.787   4.991
22077W        W94502  42.421  34.009   2.135
22078W        W94503  12.046  21.076   1.379
22079W        W94504  10.651  29.439   0.652
22080W        W94505   5.450  37.973   4.805
22081W        W94506   0.869  16.110   1.426
22082W        W94507  13.740  34.761   0.036
22083W        W94508  26.902  38.547   0.250
22084W        W94509   7.458   9.068   0.408
22085W        W94510  13.953  35.143  12.964
22086W        W94511   5.450   8.337  12.977
22087W        W94512  12.706   4.725   1.762
22088W        W94513  23.372  39.035  13.425
22089W        W94514  11.242  40.855  12.439
22090W        W94515  31.571  32.885  12.384
22091W        W94516  33.000   0.410  14.598
22092W        W94517  38.960   8.211  13.830
22093W        W94518  12.215  36.554   3.640
22094W        W94519  39.440  24.510  14.963
22095W        W94520  15.175  19.007   3.774
22096W        W94521  39.887   0.460   5.072
22097W        W94522  43.461  28.530   4.519
22098W        W94523  30.458  19.412   0.960
22099W        W94524  22.498  27.530   3.375
22100W        W94525   0.323  37.644   4.863
22101W        W94526  34.355  44.403  12.563
22102W        W94527  32.103  26.369  13.947
22103W        W94528  11.684  39.882  12.141
22104W        W94529  33.468   6.939  12.008
22105W        W94530  17.466  37.073   4.094
22106W        W94531   5.939  34.080   4.645
22107W        W94532   9.256   2.558   4.031
22108W        W94533  23.651   1.920   2.200
22109W        W94534   8.962  29.408  13.918
22110W        W94535  43.834  17.625  13.342
22111W        W94536  28.191   8.807   1.583
22112W        W94537  21.555  44.435   1.322
22113W        W94538  19.061  16.583  13.053
22114W        W94539  17.775  23.503  14.593
22115W        W94540  26.099   0.777  12.836
22116W        W94541  39.466  32.954   0.902
22117W        W94542  39.875  24.656  12.402
22118W        W94543  24.566   6.423   3.795
22119W        W94544  42.048  18.830  12.205
22120W        W94545  26.691  23.543   2.756
22121W        W94546  40.554  39.488  11.921
22122W        W94547  14.562  20.325   2.744
22123W        W94548  22.736  16.468   1.889
22124W        W94549  41.452  16.052  12.095
22125W        W94550  22.492  32.558  13.926
22126W        W94551  23.029  42.730  11.913
22127W        W94552  29.543   2.655   1.214
22128W        W94553  19.281  36.998   4.756
22129W        W94554   7.168  38.045   4.378
22130W        W94555  14.316  26.811  11.132
22131W        W94556   3.662  14.320  13.342
22132W        W94557  20.073   5.448   0.371
22133W        W94558   5.758   9.697  13.826
22134W        W94559   1.768  32.953  14.794
22135W        W94560   9.296  41.614  14.962
22136W        W94561   7.670   9.424   0.736
22137W        W94562  20.443  33.439  13.103
22138W        W94563   1.860   9.400   2.766
22139W        W94564   5.408  14.953  14.155
22140W        W94565  32.989  23.199   0.331
22141W        W94566  30.228  34.970   4.203
22142W        W94567  34.455  17.295   4.616
22143W        W94568   8.872  22.011   2.738
22144W        W94569  16.596  19.619   0.686
22145W        W94570  20.457   4.721  11.585
22146W        W94571  13.381  14.177  11.622
22147W        W94572  43.685   7.831  10.600
22148W        W94573  37.428  39.244  13.879
22149W        W94574  16.979  15.786  12.880
22150W        W94575  40.282  15.833  13.851
22151W        W94576  15.890   5.792  12.174
22152W        W94577  19.976   7.699  14.570
22153W        W94578  21.768  21.175   0.396
22154W        W94579  38.972   0.254  10.634
22155W        W94580  43.257  13.521   0.597
22156W        W94581  13.370   5.826   4.937
22157W        W94582  36.956  36.770  13.983
22158W        W94583   1.442   8.397  14.018
22159W        W94584  43.977  22.752  11.478
22160W        W94585  12.879  21.356  12.476
22161W        W94586  42.496  18.200   0.366
22162W        W94587   6.766  35.960  14.884
22163W        W94588   1.223  26.129   3.640
22164W        W94589  23.586  14.261   0.769
22165W        W94590  22.226   8.047  14.602
22166W        W94591  37.382   0.228   3.584
22167W        W94592   3.272  15.591  10.644
22168W        W94593  33.605   6.900  13.917
22169W        W94594  39.359   0.464  11.122
22170W        W94595  33.453  40.427   2.440
22171W        W94596  17.213  27.365   0.783
22172W        W94597  26.486  30.239  13.873
22173W        W94598  44.731   5.114  13.855
22174W        W94599  35.047   7.653   1.784
22175W        W94600  23.210  35.672  10.762
22176W        W94601  21.076  31.712   1.974
22177W        W94602  38.769  32.153  14.082
22178W        W94603  32.882   9.198   0.898
22179W        W94604  39.857  40.289  12.976
22180W        W94605  11.123  25.917  11.400
22181W        W94606  16.857  18.773  11.106
22182W        W94607  22.862  27.919  13.618
22183W        W94608   4.826  12.385  13.220
22184W        W94609  11.679  19.353  11.220
22185W        W94610  13.788  34.107  13.936
22186W        W94611  29.523   4.661   2.816
22187W        W94612  11.121  15.180  13.618
22188W        W94613  33.087  19.212   5.368
22189W        W94614  22.787  27.738   1.524
22190W        W94615  22.047  31.127  13.981
22191W        W94616  37.052  43.099   0.848
22192W        W94617  20.544  35.210  12.432
22193W        W94618  41.936  30.364  12.948
22194W        W94619  40.852  27.505   4.493
22195W        W94620  10.434  43.209  13.428
22196W        W94621  35.804   1.669   4.103
22197W        W94622  17.133  29.569   0.768
22198W        W94623   4.343  42.953   1.963
22199W        W94624  26.960  25.429  11.148
22200W        W94625  37.025  38.941   2.562
22201W        W94626   0.417   5.410  14.982
22202W        W94627  10.123  22.498   2.613
22203W        W94628  13.101  35.354   1.148
22204W        W94629   3.671   8.888   4.723
22205W        W94630  33.957   9.129   0.397
22206W        W94631   4.307  23.778   0.226
22207W        W94632  44.324  16.418  11.665
22208W        W94633  14.687   8.888  14.936
22209W        W94634  33.055  42.482  12.559
22210W        W94635  22.433  35.307   2.258
22211W        W94636  36.794  43.379  14.122
22212W        W94637  15.815  35.930   2.712
22213W        W94638  36.099  35.949   4.435
22214W        W94639  12.169  13.236   2.892
22215W        W94640  15.729   3.861   3.441
22216W        W94641  11.259  40.745  11.935
22217W        W94642  14.758  26.404  11.924
22218W        W94643  23.598  30.685  12.417
22219W        W94644   9.152  35.878   3.730
22220W        W94645  14.846   7.603   4.143
22221W        W94646   7.342  11.257   0.259
22222W        W94647  36.643   0.976   4.727
22223W        W94648   7.737  30.414   2.311
22224W        W94649  43.156  16.854  13.042
22225W        W94650  21.634  29.224   0.401
22226W        W94651  42.676  15.667  11.576
22227W        W94652  43.466  40.887  10.029
22228W        W94653  24.039  37.872  14.405
22229W        W94654  24.982  12.200  12.482
22230W        W94655  32.891  20.788   3.279
22231W        W94656  34.897   9.223   1.953
22232W        W94657   4.340  34.007  11.627
22233W        W94658  21.192  14.055   2.354
22234W        W94659  14.776  19.682  14.334
22235W        W94660  12.895  29.835   3.899
22236W        W94661  44.579  22.676  14.011
22237W        W94662   7.262  26.074   2.164
22238W        W94663   5.325  32.185   4.331
22239W        W94664   2.262  10.366  13.994
22240W        W94665  19.702  11.002   1.288
22241W        W94666  15.145  43.478  12.480
22242W        W94667  41.959  24.563   2.179
22243W        W94668  10.430   8.410   5.041
22244W        W94669  36.483  29.020   0.931
22245W        W94670  10.612  24.585  13.624
22246W        W94671   8.975  37.903   4.330
22247W        W94672  32.145  39.791  11.387
22248W        W94673  35.596  44.818   2.622
22249W        W94674  22.084   0.240   4.170
22250W        W94675  18.560  23.191   1.739
22251W        W94676  40.564  27.114  13.881
22252W        W94677  34.149  29.200   4.198
22253W        W94678  22.536  24.083   1.882
22254W        W94679  39.025  13.407   3.282
22255W        W94680   3.163  18.381   3.583
22256W        W94681   6.949  39.301  12.121
22257W        W94682  10.063  22.707  13.490
22258W        W94683  28.502  43.705   1.318
22259W        W94684  30.630  38.798  14.993
22260W        W94685  21.164  15.457  14.861
22261W        W94686  18.680  24.542   1.278
22262W        W94687  14.931   3.178  13.494
22263W        W94688  44.870   5.145   3.851
22264W        W94689  35.013   9.199  11.150
22265W        W94690   7.752  20.233  13.348
22266W        W94691   3.513  38.525  10.486
22267W        W94692  19.706   5.192  13.029
22268W        W94693  20.615  17.015   4.574
22269W        W94694   8.888  24.627  14.447
22270W        W94695  29.047  17.157  13.999
22271W        W94696  22.311  32.561   4.566
22272W        W94697  25.881  21.071  12.493
22273W        W94698  44.563  29.252  11.667
22274W        W94699  31.238  41.915  14.516
22275W        W94700  39.204  27.151  11.119
22276W        W94701   1.046  28.164  11.536
22277W        W94702  18.280   1.231   0.964
22278W        W94703  26.646  33.440  13.613
22279W        W94704  40.550   0.167   3.001
22280W        W94705  23.410  26.145  13.598
22281W        W94706  41.842  20.523   1.309
22282W        W94707  20.197  37.405  13.305
22283W        W94708  42.935  19.625  13.589
22284W        W94709  33.009  11.809   3.814
22285W        W94710  43.797   9.766  11.960
22286W        W94711  42.297  28.238  14.356
22287W        W94712  16.674  30.957  14.958
22288W        W94713  43.794  32.065   3.912
22289W        W94714   5.792  22.667   1.605
22290W        W94715  23.045  19.619  12.978
22291W        W94716  42.065   3.227  11.169
22292W        W94717  34.734  40.163  11.095
22293W        W94718  40.326  14.281  12.179
22294W        W94719  28.124   4.197   3.961
22295W        W94720  32.450  12.889  12.082
22296W        W94721  13.723  41.104  11.056
22297W        W94722  33.006  11.855   0.443
22298W        W94723  34.275  17.029   1.045
22299W        W94724   4.882  38.420  11.857
22300W        W94725   7.725   6.784   0.898
22301W        W94726  11.413  33.978   3.757
22302W        W94727   9.317  16.019  13.906
22303W        W94728  15.141   0.490   4.211
22304W        W94729  25.960  20.038   4.252
22305W        W94730  43.955  11.606   2.698
22306W        W94731  16.750  23.057  13.986
22307W        W94732  32.399   9.726  10.650
22308W        W94733  20.957  25.699   1.922
22309W        W94734  44.320  40.732  13.353
22310W        W94735  10.314  38.346   3.344
22311W        W94736  43.429   3.252  10.169
22312W        W94737  22.803  32.965  13.655
22313W        W94738  19.806  32.884  12.642
22314W        W94739  36.619  23.250   0.775
22315W        W94740  41.056  29.976  14.330
22316W        W94741  27.749  11.851  12.118
22317W        W94742  10.402  26.651   1.342
22318W        W94743  11.593   8.609   0.370
22319W        W94744   2.023  33.274   3.785
22320W        W94745  43.427   3.928  13.314
22321W        W94746  21.211  34.395   2.424
22322W        W94747  36.038  11.878  14.978
22323W        W94748   6.243  40.211   3.770
22324W        W94749  36.081  19.360  10.647
22325W        W94750  31.401  12.509   4.225
22326W        W94751  44.625  26.600  14.353
22327W        W94752  28.450  23.043   4.633
22328W        W94753  16.086  21.081   2.255
22329W        W94754   4.423   4.217   2.101
22330W        W94755  36.149  17.603   4.187
22331W        W94756   1.825  39.553  12.002
22332W        W94757  37.377   1.238  11.002
22333W        W94758  15.781  39.812  12.985
22334W        W94759  14.879  21.061  11.609
22335W        W94760   7.283  26.269  13.046
22336W        W94761  40.748  28.225  11.067
22337W        W94762  38.103   1.572   0.709
22338W        W94763  15.665  37.702   2.391
22339W        W94764   6.330  39.613   4.630
22340W        W94765  11.224   6.713   2.821
22341W        W94766  27.243  43.285  10.649
22342W        W94767  30.603   0.906  11.108
22343W        W94768  29.028   5.902   0.502
22344W        W94769   0.356  11.842  12.461
22345W        W94770  24.749  21.327   2.278
22346W        W94771  27.961  21.743  10.603
22347W        W94772  31.134  21.027  13.989
22348W        W94773  25.717  11.773  11.153
22349W        W94774   7.747  13.609   1.061
22350W        W94775  18.766  33.017   4.598
22351W        W94776  26.961  29.243   4.821
22352W        W94777  39.447  37.065  12.014
22353W        W94778  30.143   7.777   3.788
22354W        W94779  44.709  34.424  10.535
22355W        W94780  15.595   1.419   2.864
22356W        W94781  35.123  42.010   0.678
22357W        W94782  42.646   4.194  14.281
22358W        W94783   8.786  29.363  10.651
22359W        W94784  34.997  19.831   2.406
22360W        W94785   9.897   7.449  11.967
22361W        W94786  34.729  38.458   1.820
22362W        W94787   9.495  15.120  12.499
22363W        W94788  17.636   8.990   2.781
22364W        W94789  15.781  15.858  12.880
22365W        W94790  26.742  43.309  14.941
22366W        W94791  20.001  44.019   0.058
22367W        W94792  41.282   9.153   0.931
22368W        W94793  44.715  39.413  13.363
22369W        W94794   7.286   4.901  13.089
22370W        W94795  30.994  10.128  13.934
22371W        W94796   5.973  41.799  12.435
22372W        W94797  33.008  23.118  12.697
22373W        W94798  42.980   5.339  12.043
22374W        W94799  43.559  25.840  11.069
22375W        W94800  37.647  10.831   3.162
22376W        W94801  20.755   1.477  12.460
22377W        W94802  36.413  24.521   0.769
22378W        W94803  15.536  32.632  13.654
22379W        W94804  10.356  11.634   4.809
22380W        W94805  13.420  43.978  12.540
22381W        W94806  22.963   7.832   1.861
22382W        W94807  13.789  14.534  14.485
22383W        W94808  41.490   0.441   3.478
22384W        W94809  36.425   0.705  10.705
22385W        W94810  31.090  14.691  11.535
22386W        W94811  38.318  33.554   1.369
22387W        W94812  28.995  35.685   1.453
22388W        W94813  39.510  42.060   2.545
22389W        W94814  39.702  35.814   0.968
22390W        W94815  38.510   9.945  13.171
22391W        W94816  13.613  42.461  14.033
22392W        W94817  44.144  30.283  13.470
22393W        W94818  11.726   7.685   0.473
22394W        W94819  35.409  44.427  14.682
22395W        W94820  18.433  37.454  12.936
22396W        W94821  41.079  34.973   2.968
22397W        W94822   7.411  32.742   3.156
22398W        W94823   3.878  37.377   2.008
22399W        W94824   9.869  33.065   1.445
22400W        W94825   2.320  27.081  12.601
22401W        W94826  32.406   4.380  12.569
22402W        W94827  32.342  34.560   0.496
22403W        W94828  28.293  23.625  10.690
22404W        W94829  37.572   3.815   2.772
22405W        W94830  11.264  32.393   0.666
22406W        W94831   1.789  16.218   3.081
22407W        W94832  41.750   5.480   3.277
22408W        W94833  19.672  44.578  13.840
22409W        W94834  35.246  35.877   2.792
22410W        W94835   7.462  12.394  11.137
22411W        W94836  16.368  30.508   4.655
22412W        W94837  22.701  34.955   0.954
22413W        W94838  32.008  22.438   2.201
22414W        W94839  33.684   8.591   0.757
22415W        W94840  14.262  11.141  11.748
22416W        W94841  27.071  10.901  11.055
22417W        W94842   5.256  31.998   3.069
22418W        W94843   2.350  11.382   3.620
22419W        W94844  16.624   1.842  12.635
22420W        W94845  43.854   7.435  11.749
22421W        W94846  25.314  44.911   3.472
22422W        W94847   0.135  38.403   2.328
22423W        W94848  42.387  15.894  14.049
22424W        W94849  17.629  22.782   2.324
22425W        W94850  30.512  41.312  14.203
22426W        W94851  22.931  26.519   1.267
22427W        W94852  42.850  27.513  13.458
22428W        W94853  19.680  18.921  12.124
22429W        W94854  13.775  27.591   1.208
22430W        W94855  17.753   7.692   1.229
22431W        W94856  26.635  13.039   0.840
22432W        W94857  29.961  11.168  11.230
22433W        W94858   7.950  17.162  13.297
22434W        W94859  33.496  43.903   2.872
22435W        W94860  33.471  37.622  11.129
22436W        W94861  41.012  29.248  11.004
22437W        W94862  15.205  23.637   0.943
22438W        W94863  32.995   6.875  13.380
22439W        W94864  18.169  35.490  14.767
22440W        W94865  40.002  28.442  13.454
22441W        W94866   0.611   0.551   4.167
22442W        W94867  38.548  20.443   3.521
22443W        W94868  35.192  39.011   2.315
22444W        W94869   8.269  38.294   3.121
22445W        W94870  26.711  14.098  10.719
22446W        W94871  40.961  35.872   2.835
22447W        W94872  27.054  41.451  12.534
22448W        W94873  44.850   7.511   2.611
22449W        W94874  13.222  33.413   4.242
22450W        W94875  22.142  34.848  12.335
22451W        W94876  23.677  10.248   5.213
22452W        W94877  16.644  25.687   4.445
22453W        W94878  35.606   1.141  10.870
22454W        W94879  14.741  35.122   2.090
22455W        W94880  24.157   0.876  14.813
22456W        W94881   2.857  23.522  13.922
22457W        W94882  27.544  25.209  14.427
22458W        W94883  35.394  35.351  13.567
22459W        W94884  42.241  12.088   4.042
22460W        W94885  21.735  21.543  11.230
22461W        W94886   7.266  10.634  13.881
22462W        W94887  10.445   3.610   1.940
22463W        W94888  32.865  31.109   2.073
22464W        W94889  24.436  44.923  13.033
22465W        W94890  42.983  26.893  10.694
22466W        W94891   3.672  13.067  11.128
22467W        W94892  21.575  40.586   2.335
22468W        W94893  37.005  26.830   0.765
22469W        W94894  39.781   0.990  10.711
22470W        W94895  28.314  28.117  11.390
22471W        W94896   9.117  34.475  11.179
22472W        W94897  11.601  22.671   4.291
22473W        W94898  35.973  21.790   3.777
22474W        W94899  11.397  33.458   0.357
22475W        W94900  18.699   1.443  12.020
22476W        W94901  22.429   5.383   2.043
22477W        W94902   8.254  21.074   1.714
22478W        W94903  13.846  41.292   0.789
22479W        W94904  26.840  24.654   2.402
22480W        W94905   7.990   2.749  13.503
22481W        W94906  28.209  39.873  13.002
22482W        W94907  20.461   2.344   1.726
22483W        W94908  42.726  32.876   1.393
22484W        W94909  20.585  37.596   0.530
22485W        W94910  24.020  30.859   2.199
22486W        W94911   2.415  17.106   0.510
22487W        W94912  23.980  23.491   1.487
22488W        W94913   7.497   7.572   0.488
22489W        W94914  33.886  10.181   1.398
22490W        W94915  39.060  16.220   3.701
22491W        W94916  34.430  21.081   2.190
22492W        W94917  23.948  43.716  13.367
22493W        W94918  27.937   1.290  11.177
22494W        W94919  12.694  44.658   4.624
22495W        W94920  40.946  43.258   0.454
22496W        W94921   0.886   0.943   1.382
22497W        W94922   7.755  12.583   4.464
22498W        W94923   4.488  37.535   2.884
22499W        W94924  20.497  25.689   3.251
22500W        W94925   2.011  17.611   1.789
22501W        W94926  41.235   5.384   3.169
22502W        W94927   2.362  26.522   2.436
22503W        W94928  16.656   1.718   0.358
22504W        W94929  43.491  10.446  12.451
22505W        W94930  14.001  17.498  13.333
22506W        W94931  10.878  30.675  12.397
22507W        W94932  34.822  14.988  14.801
22508W        W94933  40.077  41.142  13.163
22509W        W94934  24.563  28.416  13.343
22510W        W94935  11.163  44.703   1.218
22511W        W94936   9.293  18.344  11.304
22512W        W94937  24.375  44.024  10.573
22513W        W94938  14.580   1.309   2.899
22514W        W94939  36.350   4.420  12.192
22515W        W94940  18.279  42.992  12.366
22516W        W94941  14.223  20.166  10.852
22517W        W94942  35.391  39.659   1.159
22518W        W94943  41.901  10.854   1.322
22519W        W94944  24.462  32.055   4.046
22520W        W94945   5.858   2.527   0.859
22521W        W94946   6.658  12.131  14.806
22522W        W94947  31.078  13.081  11.911
22523W        W94948  43.847  41.923   0.735
22524W        W94949  10.365  17.564  12.031
22525W        W94950   1.218  13.633  14.817
22526W        W94951  41.911  26.987  14.040
22527W        W94952  26.131   8.742   4.680
22528W        W94953  15.730  35.113  14.568
22529W        W94954  36.414  14.167  14.760
22530W        W94955   4.417   6.669  14.512
22531W        W94956  12.446  21.695  13.377
22532W        W94957  15.768  42.895  11.978
22533W        W94958  15.161  43.348  14.959
22534W        W94959  25.069  21.781   2.315
22535W        W94960  41.777  20.060  13.792
22536W        W94961   0.186  44.691   1.190
22537W        W94962  13.812  28.026   2.929
22538W        W94963  13.813   2.718  13.945
22539W        W94964  36.922  37.511   2.626
22540W        W94965  11.726  14.637   1.203
22541W        W94966  34.062   3.910  10.780
22542W        W94967  37.383  43.758   1.883
22543W        W94968   5.727   6.014   2.722
22544W        W94969  22.535   9.892   1.329
22545W        W94970  22.080  11.991  13.020
22546W        W94971  31.423   6.333  14.492
22547W        W94972  14.819  42.389   0.231
22548W        W94973  40.899  14.879  11.596
22549W        W94974  31.523  21.609  12.603
22550W        W94975  32.395  14.254   1.695
22551W        W94976  18.763  32.903   0.044
22552W        W94977  36.636  24.620  12.881
22553W        W94978  13.935  42.834   0.339
22554W        W94979  10.610  41.765   4.253
22555W        W94980  15.333  28.384  11.957
22556W        W94981   2.491  36.566  12.556
22557W        W94982   7.662  22.702   1.893
22558W        W94983   8.334  33.025   1.779
22559W        W94984   5.254  31.821   4.681
22560W        W94985   4.283   9.909   2.824
22561W        W94986  17.017  43.007  12.918
22562W        W94987  34.307   5.885  12.137
22563W        W94988  13.619  13.660   3.266
22564W        W94989  16.014   0.543  12.925
22565W        W94990  44.008   8.907   4.047
22566W        W94991  18.929  18.658   1.846
22567W        W94992  24.531   6.738  12.163
22568W        W94993  10.755  29.944  12.959
22569W        W94994  43.037  19.471  11.203
22570W        W94995  22.583  41.884  14.490
22571W        W94996  35.091  36.160  12.506
22572W        W94997   3.890  44.341  14.815
22573W        W94998   6.616  38.979   0.816
22574W        W94999   2.402   8.386  14.358
22575W        W95000  44.783  10.837   4.338
22576W        W95001   3.719  42.764   0.349
22577W        W95002   8.606  38.863   4.948
22578W        W95003  36.398  17.721   0.922
22579W        W95004  15.298  27.448   1.958
22580W        W95005  34.306  35.133  12.570
22581W        W95006  23.784  41.929  11.951
22582W        W95007  29.826  31.453   2.728
22583W        W95008   5.895  29.701   2.798
22584W        W95009  38.386  37.003  14.009
22585W        W95010  41.069  40.052  13.844
22586W        W95011  20.861  40.810   3.470
22587W        W95012  29.382  40.566   2.358
22588W        W95013   8.362   5.832   5.094
22589W        W95014  35.270   6.637   3.987
22590W        W95015  25.245  17.120  11.622
22591W        W95016   9.290  30.084  11.570
22592W        W95017  24.681  31.627   2.313
22593W        W95018  38.037  12.328  14.782
22594W        W95019   3.156  35.483  12.025
22595W        W95020   5.759  28.285  12.133
22596W        W95021  27.643   2.483  12.771
22597W        W95022  39.500   8.857  11.418
22598W        W95023  11.627   7.991   3.096
22599W        W95024   8.495   9.739  10.106
22600W        W95025  29.065  16.311   3.377
22601W        W95026  16.235  33.449  14.464
22602W        W95027  37.101   2.449  14.565
22603W        W95028  23.357   6.519  11.224
22604W        W95029   1.344   7.760  14.842
22605W        W95030   6.519  40.792  11.196
22606W        W95031  19.674   7.974   3.331
22607W        W95032  37.772  22.089   5.506
22608W        W95033  23.531  36.878  14.849
22609W        W95034  23.745  28.048  10.697
22610W        W95035  32.090  29.464  14.838
22611W        W95036   3.320  44.530   0.518
22612W        W95037  19.255   2.860   0.243
22613W        W95038  33.884  15.641  11.628
22614W        W95039  42.861  14.178  10.045
22615W        W95040  16.098  25.431   4.505
22616W        W95041  14.258   0.428  14.302
22617W        W95042  29.542  41.913   1.065
22618W        W95043  31.441  43.934  12.661
22619W        W95044   7.870  33.007  12.966
22620W        W95045   9.769  32.766   4.393
22621W        W95046  24.116   6.353  11.060
22622W        W95047  23.572  18.070   1.116
22623W        W95048  32.677   3.716   2.768
22624W        W95049  19.855  11.484   1.140
22625W        W95050   8.060   0.040   4.933
22626W        W95051  38.631  42.458  10.554
22627W        W95052  39.773  41.827  14.309
22628W        W95053  14.718  32.933   4.301
22629W        W95054  31.532  41.611   1.692
22630W        W95055  12.216   1.726   1.344
22631W        W95056   7.872  29.162   0.465
22632W        W95057  15.359  22.207   1.828
22633W        W95058  41.517   3.355  12.870
22634W        W95059  36.200  30.493  13.999
22635W        W95060   0.737  32.015  14.807
22636W        W95061   5.243  36.132   5.109
22637W        W95062  41.737  35.594  11.960
22638W        W95063  13.714  23.624   3.709
22639W        W95064  25.853  13.733  13.548
22640W        W95065  30.471  21.471  11.099
22641W        W95066  40.517  43.792   4.614
22642W        W95067  31.007  17.514   2.994
22643W        W95068  38.585  44.838   9.730
22644W        W95069   6.000  21.597   0.667
22645W        W95070   3.586  28.377  10.719
22646W        W95071   9.119  32.888  14.090
22647W        W95072  15.730  18.905   9.585
22648W        W95073  25.288  40.596  12.206
22649W        W95074  44.041  10.120   2.825
22650W        W95075  40.278  12.225   4.262
22651W        W95076  22.797  41.726  12.122
22652W        W95077  34.365  11.332  10.684
22653W        W95078   9.573  44.069  10.454
22654W        W95079  41.322  37.558   3.294
22655W        W95080  39.285  35.574   4.729
22656W        W95081  31.442  13.304   0.264
22657W        W95082  41.384  17.680  11.300
22658W        W95083  17.568  32.698   1.226
22659W        W95084  20.105  35.794   1.833
22660W        W95085  31.922  33.280   3.764
22661W        W95086  41.038  12.322  14.654
22662W        W95087  17.540   7.015  12.637
22663W        W95088  43.172   5.701   3.902
22664W        W95089  20.678  22.452  11.678
22665W        W95090  21.064  43.723   3.203
22666W        W95091  28.700  11.339  13.247
22667W        W95092  39.646  17.293   0.759
22668W        W95093  25.473  30.393   1.235
22669W        W95094   8.597  42.969  10.748
22670W        W95095   7.355  37.809   4.786
22671W        W95096  36.322  11.250   4.732
22672W        W95097   7.147  36.244  12.583
22673W        W95098  25.265  22.036  11.499
22674W        W95099  21.729  41.371   3.582
22675W        W95100  20.124  39.919   4.739
22676W        W95101  23.639  32.160   1.534
22677W        W95102  33.649   4.219  13.975
22678W        W95103  35.323  29.454   3.346
22679W        W95104  28.421  10.428   5.055
22680W        W95105  27.440   6.583   4.583
22681W        W95106  14.864  11.530  14.959
22682W        W95107   7.930  41.470   4.204
22683W        W95108   7.411  35.206  12.437
22684W        W95109  23.085  37.896   1.848
22685W        W95110  23.597  28.072   2.314
22686W        W95111  30.731  28.043  10.699
22687W        W95112  30.644  17.193   5.071
22688W        W95113  25.164  22.514  13.317
22689W        W95114  39.641  38.340  13.732
22690W        W95115  36.078  21.629   3.265
22691W        W95116   6.236  21.942   0.324
22692W        W95117  23.657  17.986   0.619
22693W        W95118  29.543  21.855   3.684
22694W        W95119  22.166  19.520  10.952
22695W        W95120  37.663  39.813  11.970
22696W        W95121  42.852  31.145  13.295
22697W        W95122  18.750   8.237  12.426
22698W        W95123  38.891  13.323  13.503
22699W        W95124  17.130  43.955  10.645
22700W        W95125  34.089  34.753  11.438
22701W        W95126  20.672  12.140   0.024
22702W        W95127  12.840  38.506   2.019
22703W        W95128   3.825  43.757   3.140
22704W        W95129  40.171  15.229  11.160
22705W        W95130  28.551  42.157  11.415
22706W        W95131  43.410  10.691   4.818
22707W        W95132  44.756   5.268   4.816
22708W        W95133  26.458  22.065   2.256
22709W        W95134  38.511   6.493   1.540
22710W        W95135  24.986  26.902  10.695
22711W        W95136   9.360  14.833  11.983
22712W        W95137  18.211  22.650  13.615
22713W        W95138  28.760  30.599   4.066
22714W        W95139  38.999   2.766  12.334
22715W        W95140  20.162  28.930   4.623
22716W        W95141  25.453  36.442   1.389
22717W        W95142  32.207   1.468  12.496
22718W        W95143  11.842  22.111  12.853
22719W        W95144  16.408   3.200  13.578
22720W        W95145  14.064  40.634  14.589
22721W        W95146  35.957  41.767  13.339
22722W        W95147  23.874  33.404  12.531
22723W        W95148  35.104  18.728  12.214
22724W        W95149  32.533   5.799  13.556
22725W        W95150  15.147   2.031   1.907
22726W        W95151  40.786  18.556   3.182
22727W        W95152  12.880  43.441  13.038
22728W        W95153  37.716  26.521  14.798
22729W        W95154  22.071  12.853   4.053
22730W        W95155  20.267   1.858   5.073
22731W        W95156  30.201  22.496   4.978
22732W        W95157  30.542  31.574  12.932
22733W        W95158  40.466  44.705  12.025
22734W        W95159  34.044  16.593  12.235
22735W        W95160  13.527  28.523   0.792
22736W        W95161  12.159  10.987   2.948
22737W        W95162  36.994  35.415  14.115
22738W        W95163  44.562  17.169  13.313
22739W        W95164  35.578  13.585  14.433
22740W        W95165   5.674  34.522  12.855
22741W        W95166  13.763   4.481  10.459
22742W        W95167  23.735  18.778  13.863
22743W        W95168  21.750  19.871   5.120
22744W        W95169   3.993  33.673  13.985
22745W        W95170  40.071  17.570   0.722
22746W        W95171  24.733  39.346  12.015
22747W        W95172  33.531  12.957   0.125
22748W        W95173  43.548  16.079   2.672
22749W        W95174  18.206  17.041  14.835
22750W        W95175   0.798  42.886   2.311
22751W        W95176  29.628  16.986  11.324
22752W        W95177  10.842   5.975  13.053
22753W        W95178  28.329  34.084  12.451
22754W        W95179  33.866  40.379  11.182
22755W        W95180  18.799  33.033   3.688
22756W        W95181   5.237  38.051  11.651
22757W        W95182  40.835  31.647   0.405
22758W        W95183   4.182  14.290  13.330
22759W        W95184  18.346   9.688  11.591
22760W        W95185  19.628   3.802  13.823
22761W        W95186  26.511  43.111   1.754
22762W        W95187  16.032  30.586  11.088
22763W        W95188   3.825   2.402   4.120
22764W        W95189  16.810   1.817   5.001
22765W        W95190  16.260   1.910  10.295
22766W        W95191  18.122  35.559  11.826
22767W        W95192  31.913  27.533   2.305
22768W        W95193  37.001  23.184  14.092
22769W        W95194  15.288   8.302  12.276
22770W        W95195  18.663  31.470   2.462
22771W        W95196   9.282   8.907  13.796
22772W        W95197  44.948  43.424   0.670
22773W        W95198  23.214  13.911   0.881
22774W        W95199   4.585  25.176   3.781
22775W        W95200  35.812  14.319  11.450
22776W        W95201  36.667  22.862  13.850
22777W        W95202  20.631  43.413  14.396
22778W        W95203   9.325  27.418  11.539
22779W        W95204  37.869  15.138   1.756
22780W        W95205  33.410  32.699   2.717
22781W        W95206  23.714   8.738  12.465
22782W        W95207  30.207  31.992  12.502
22783W        W95208  40.825  32.853  14.406
22784W        W95209  44.612  12.868   3.796
22785W        W95210  36.967  11.496  12.085
22786W        W95211  21.703  16.726   2.120
22787W        W95212  34.554  36.597   1.528
22788W        W95213   1.430   1.325   3.925
22789W        W95214  33.423  17.356  10.749
22790W        W95215  30.962   0.890   3.837
22791W        W95216   9.658  23.162  14.047
22792W        W95217  15.814  15.082   0.664
22793W        W95218  42.068  20.556  14.892
22794W        W95219  40.858   8.546   3.778
22795W        W95220  14.581  24.717  13.393
22796W        W95221   0.755  13.938  11.103
22797W        W95222  32.131  18.871   2.793
22798W        W95223   2.654  43.869  10.691
22799W        W95224   0.470  42.832   0.154
22800W        W95225  24.655  43.325  11.063
22801W        W95226  16.148  16.112  14.900
22802W        W95227  31.987   3.651  13.878
22803W        W95228  33.843   5.895  13.053
22804W        W95229  27.886  35.761  11.251
22805W        W95230  18.191   0.167   3.164
22806W        W95231  42.745  26.539  12.465
22807W        W95232  36.034  15.769   3.690
22808W        W95233  26.396  10.358   4.279
22809W        W95234  34.509  42.648  10.366
22810W        W95235   1.467  18.402  14.415
22811W        W95236  24.267  10.619  13.147
22812W        W95237  31.601  19.123   2.333
22813W        W95238  37.132  19.605  11.234
22814W        W95239   5.828  12.382  11.527
22815W        W95240  37.642  39.451   1.420
22816W        W95241  33.632   2.252   2.829
22817W        W95242   9.681  14.592  11.119
22818W        W95243  25.973   6.283  14.802
22819W        W95244  14.340   9.193  12.493
22820W        W95245  22.321  28.669   0.445
22821W        W95246  35.228  31.105  14.263
22822W        W95247  29.427  32.134  12.014
22823W        W95248  38.150  28.642   1.304
22824W        W95249  28.922   9.608  14.614
22825W        W95250   8.640  26.417   2.388
22826W        W95251   2.411  40.787   0.013
22827W        W95252  41.428  21.771  10.499
22828W        W95253  12.705  20.646   3.586
22829W        W95254  24.108  19.144   3.292
22830W        W95255  14.261  27.434  13.909
22831W        W95256  38.613  24.459  14.395
22832W        W95257  18.742   4.921   2.860
22833W        W95258  10.520  13.638  11.609
22834W        W95259  28.963  41.901  10.721
22835W        W95260  33.578   6.376  11.024
22836W        W95261  23.225  25.770  13.304
22837W        W95262  18.562  18.649   2.861
22838W        W95263   0.856  34.897   2.127
22839W        W95264  32.920   2.915   3.874
22840W        W95265   4.352  13.825  10.772
22841W        W95266   1.875   3.786  12.491
22842W        W95267  20.165  26.473   9.803
22843W        W95268  41.550   8.966  11.503
22844W        W95269  16.218  28.905   2.321
22845W        W95270   1.561  23.531   2.313
22846W        W95271  32.495   4.319  10.656
22847W        W95272   5.495  41.684   2.454
22848W        W95273   8.624  20.990  10.403
22849W        W95274  30.389  41.500   4.556
22850W        W95275   1.514   6.912   1.404
22851W        W95276  42.137  40.019   4.705
22852W        W95277   1.476  30.153   2.693
22853W        W95278  36.749   2.162   4.370
22854W        W95279   0.842  14.592  13.107
22855W        W95280   1.885  15.696   1.852
22856W        W95281   0.891  17.838   3.719
22857W        W95282  31.652  44.461  12.420
22858W        W95283  38.519   2.962  12.327
22859W        W95284  11.000   9.244   0.453
22860W        W95285  11.582  40.904  13.190
22861W        W95286  26.954  15.548   0.429
22862W        W95287  31.531  13.015  13.574
22863W        W95288  29.617  34.626  14.445
22864W        W95289  14.236   9.655  10.231
22865W        W95290  12.753  26.968  14.337
22866W        W95291  36.968  16.699  12.149
22867W        W95292  13.350   0.990   3.888
22868W        W95293  15.092  27.165   3.163
22869W        W95294   4.448  35.914  13.717
22870W        W95295  42.078  36.088  12.068
22871W        W95296   9.479  12.142  12.883
22872W        W95297   7.929  13.626  14.826
22873W        W95298  33.066   7.921   2.184
22874W        W95299  41.300  11.565   1.913
22875W        W95300   4.418  39.571  14.023
22876W        W95301   3.823  10.739   1.775
22877W        W95302  30.968  13.352  14.794
22878W        W95303   7.807  15.044  11.538
22879W        W95304  20.319  38.672  13.827
22880W        W95305  29.109  18.648   4.625
22881W        W95306  15.870  23.556   2.670
22882W        W95307   1.318  30.504   1.328
22883W        W95308  18.749  40.758  12.867
22884W        W95309  17.388   0.586   1.342
22885W        W95310  35.353   6.105   0.872
22886W        W95311  39.561  17.848  13.568
22887W        W95312   8.675  19.899   4.492
22888W        W95313   5.777   3.895   4.205
22889W        W95314  11.251   1.410   4.601
22890W        W95315  21.641  41.374  12.549
22891W        W95316  37.382  32.891   3.612
22892W        W95317  10.900   0.359  11.775
22893W        W95318   1.889   8.023  10.812
22894W        W95319  28.252  24.478   0.899
22895W        W95320  27.515  18.950   0.396
22896W        W95321  15.577  43.822  13.922
22897W        W95322  26.197  27.429   4.346
22898W        W95323   6.083  35.070  14.980
22899W        W95324  26.995  35.511  13.893
22900W        W95325  32.020  17.471   1.966
22901W        W95326  23.193  23.006  12.173
22902W        W95327  23.246   4.384  13.219
22903W        W95328   7.870  14.313   0.534
22904W        W95329   4.648  42.693  12.525
22905W        W95330  24.113  42.545  12.678
22906W        W95331  12.876  23.731   3.203
22907W        W95332  40.630  24.066  11.166
22908W        W95333  22.967   2.127  14.784
22909W        W95334  12.679   0.288   0.802
22910W        W95335  42.467  11.208  14.966
22911W        W95336  41.811  29.970   3.348
22912W        W95337  28.507  15.986   2.314
22913W        W95338   1.818  19.357   4.615
22914W        W95339  36.215   5.719   3.198
22915W        W95340  13.298   9.012  11.499
22916W        W95341  33.590   9.246  14.661
22917W        W95342   0.554   3.914   0.844
22918W        W95343  30.356  10.855  12.015
22919W        W95344  12.352   8.330   3.734
22920W        W95345  27.033   6.860   4.685
22921W        W95346  38.759  32.664  13.769
22922W        W95347  35.160  16.103   3.467
22923W        W95348  18.492  26.519   0.270
22924W        W95349  35.756  12.768  11.998
22925W        W95350  23.938  14.669  10.700
22926W        W95351  30.450  44.295  14.399
22927W        W95352  41.109  22.724  12.916
22928W        W95353  25.642  32.658  14.013
22929W        W95354   1.888  21.591  12.379
22930W        W95355   1.567  38.127   3.395
22931W        W95356   2.840  36.959   1.529
22932W        W95357  34.425  32.911  11.565
22933W        W95358   4.618   7.962  14.430
22934W        W95359   5.945  24.101   3.896
22935W        W95360   4.746  29.054   1.714
22936W        W95361  15.757   3.388  10.509
22937W        W95362  24.733  44.543  12.813
22938W        W95363  33.989  23.190  11.916
22939W        W95364  39.078  24.604   3.130
22940W        W95365  29.556  27.050   4.193
22941W        W95366   4.357  35.648  10.698
22942W        W95367  19.488  19.012   4.752
22943W        W95368  10.387  30.482   0.476
22944W        W95369  29.077  38.351  11.153
22945W        W95370  42.540  26.966   0.748
22946W        W95371   5.192  39.980   4.475
22947W        W95372  44.190  15.043   1.363
22948W        W95373  10.882  17.148   1.813
22949W        W95374  12.731  13.215  11.552
22950W        W95375   4.430   3.371   1.527
22951W        W95376  44.908  43.746   3.604
22952W        W95377  15.711  16.957   1.742
22953W        W95378  26.414   0.497   1.242
22954W        W95379   4.792  31.420  10.650
22955W        W95380  40.020  34.869   0.933
22956W        W95381  36.909  24.104  13.464
22957W        W95382  29.014  10.740   4.930
22958W        W95383  31.444  33.240  12.806
22959W        W95384  31.819  31.423  12.037
22960W        W95385   9.738  26.946  12.071
22961W        W95386  15.596  41.017   2.186
22962W        W95387   5.707  19.386  12.493
22963W        W95388  31.549   3.730   3.856
22964W        W95389  40.067  23.956   0.974
22965W        W95390  14.236  11.422   0.762
22966W        W95391  17.602  39.799   3.755
22967W        W95392  24.148  33.498   0.356
22968W        W95393  25.781  43.450   2.604
22969W        W95394  20.961  41.855   0.387
22970W        W95395  41.835  41.665  12.517
22971W        W95396  21.256  25.680   2.803
22972W        W95397  41.991  22.159  11.877
22973W        W95398  12.484   1.316   3.805
22974W        W95399  15.054   7.201  13.115
22975W        W95400  25.931   1.757   2.433
22976W        W95401  32.969  38.336   4.217
22977W        W95402  39.479  17.309  13.567
22978W        W95403   6.479  43.853   0.463
22979W        W95404  33.485   4.282   1.455
22980W        W95405  20.055  16.161   4.416
22981W        W95406  38.517  13.235   3.164
22982W        W95407  27.921   2.280  10.269
22983W        W95408  37.617  32.050   2.401
22984W        W95409  22.107  17.716  12.968
22985W        W95410   4.036  33.688   1.944
22986W        W95411  32.451  29.529   1.705
22987W        W95412  13.265   6.542  13.415
22988W        W95413  19.404  12.851  12.000
22989W        W95414  31.154  22.500   0.905
22990W        W95415  24.849  44.091  10.774
22991W        W95416   3.847  42.770   4.942
22992W        W95417  33.428  41.227  10.631
22993W        W95418   2.468  43.570   2.362
22994W        W95419  15.528  16.549  14.450
22995W        W95420  35.803  10.726  11.488
22996W        W95421  34.084  24.362   3.804
22997W        W95422  19.298  42.930   3.148
22998W        W95423  22.105  23.395  14.747
22999W        W95424  38.326  15.141  11.518
23000W        W95425  17.066  17.089   3.540
23001W        W95426   8.667   3.890   3.157
23002W        W95427  26.549  44.587   5.072
23003W        W95428  27.987  23.654   2.093
23004W        W95429  27.011   1.511  11.459
23005W        W95430   6.673   6.941  13.341
23006W        W95431  21.613  14.119   2.678
23007W        W95432  17.647  38.909   3.525
23008W        W95433  22.481   1.929  14.884
23009W        W95434  31.473  13.316  13.994
23010W        W95435  40.983  25.419   0.487
23011W        W95436   2.283   6.703  14.866
23012W        W95437   7.176  39.177   5.012
23013W        W95438  29.912  44.564   0.360
23014W        W95439  37.487  17.013  11.019
23015W        W95440  33.854  37.357  11.541
23016W        W95441  10.726  13.159  11.578
23017W        W95442   0.756  30.039  13.528
23018W        W95443  21.124  19.007   2.801
23019W        W95444  19.321  35.097  12.020
23020W        W95445  23.646  14.665  11.852
23021W        W95446   2.712  33.656  13.094
23022W        W95447  28.123  11.592  12.394
23023W        W95448  27.941  28.709   0.275
23024W        W95449  39.600  10.893  12.374
23025W        W95450  15.704  28.210  13.105
23026W        W95451  34.332  24.638  11.671
23027W        W95452   0.365  29.971  10.703
23028W        W95453  42.995  27.192   0.906
23029W        W95454  22.142  23.214   1.876
23030W        W95455  43.848   8.679   3.082
23031W        W95456   3.574   0.425   3.275
23032W        W95457   1.306   5.611  11.957
23033W        W95458  21.503   6.568   3.811
23034W        W95459  30.593  33.870   2.623
23035W        W95460  36.317   7.948  11.668
23036W        W95461  40.018  43.230  11.221
23037W        W95462   7.594  16.766  12.062
23038W        W95463   0.408  29.693   1.938
23039W        W95464  28.614  28.552   4.615
23040W        W95465  17.600  33.495   4.262
23041W        W95466  24.168  20.500  11.105
23042W        W95467  28.530  39.870  11.632
23043W        W95468  31.161  16.337  12.298
23044W        W95469   7.139   1.777   2.787
23045W        W95470  10.767   8.501  10.213
23046W        W95471  10.307  24.556   2.317
23047W        W95472  39.265  19.197   3.870
23048W        W95473  24.675  29.633  11.658
23049W        W95474  27.043  26.449  13.406
23050W        W95475  44.593  13.079   1.971
23051W        W95476  42.785  33.785  14.896
23052W        W95477   8.596  15.784  12.190
23053W        W95478  19.753  39.846   4.365
23054W        W95479  14.769  16.818  12.213
23055W        W95480  23.603  19.631  14.872
23056W        W95481  15.621  18.518  14.467
23057W        W95482  26.875   9.748   2.669
23058W        W95483  20.053  38.601   4.615
23059W        W95484  14.757   0.809   3.637
23060W        W95485  26.384   5.852   4.856
23061W        W95486  43.373  30.007   1.739
23062W        W95487  40.519  22.449   4.108
23063W        W95488  21.028  12.415  14.780
23064W        W95489  23.448  26.099   1.504
23065W        W95490   2.924  32.938  14.495
23066W        W95491  37.788  23.518  12.076
23067W        W95492   3.505  15.793  13.458
23068W        W95493  33.926  20.103  11.712
23069W        W95494  29.049  15.648  13.971
23070W        W95495  20.163   3.427   5.076
23071W        W95496  31.034  33.677  11.646
23072W        W95497  18.067  31.094  10.031
23073W        W95498   6.347  31.592   3.809
23074W        W95499  27.153  11.573   0.734
23075W        W95500  21.556  33.988   3.580
23076W        W95501   7.376  44.479   2.789
23077W        W95502  39.454  39.011   4.526
23078W        W95503  38.631  11.393  13.055
23079W        W95504  40.522   1.239  11.806
23080W        W95505  17.623  41.487  14.704
23081W        W95506  10.303  32.133   3.405
23082W        W95507  44.900  18.000   1.322
23083W        W95508  11.874  16.730  10.290
23084W        W95509  26.926   0.480   2.181
23085W        W95510  19.080  29.783  11.253
23086W        W95511   3.425  43.456  14.759
23087W        W95512   4.778   7.635  11.466
23088W        W95513  26.297   5.867  10.538
23089W        W95514  24.552  37.300  14.737
23090W        W95515   3.598  10.810   1.317
23091W        W95516  43.625  15.253  14.448
23092W        W95517   8.416  43.501   2.510
23093W        W95518   0.317  29.231  14.578
23094W        W95519   8.685  13.763   2.297
23095W        W95520  12.173   1.428  13.013
23096W        W95521   0.896  31.884  13.905
23097W        W95522  17.666  17.620   2.237
23098W        W95523  22.658  26.876  12.868
23099W        W95524  21.899  31.927  11.523
23100W        W95525   7.324   6.683   3.132
23101W        W95526  23.397  15.638  14.993
23102W        W95527   5.186  19.294   1.209
23103W        W95528   5.742  39.856  14.312
23104W        W95529  19.105  38.686   0.329
23105W        W95530  38.286  26.661  12.052
23106W        W95531  14.567  25.914   4.060
23107W        W95532  19.184  41.893  14.523
23108W        W95533  38.839  37.934  14.103
23109W        W95534  40.978  34.795  14.539
23110W        W95535  35.529   2.601   2.736
23111W        W95536  37.739  32.580  14.917
23112W        W95537  40.012  25.724   4.119
23113W        W95538   3.776  36.004   1.657
23114W        W95539   8.957  18.746   0.797
23115W        W95540  14.908  14.373  11.653
23116W        W95541  20.613  32.809   0.279
23117W        W95542  29.188  24.457  12.053
23118W        W95543  21.455  11.189  12.418
23119W        W95544  42.289  20.151  13.780
23120W        W95545  37.402  24.070  12.603
23121W        W95546  10.930  40.995   1.465
23122W        W95547  17.009   4.538   0.411
23123W        W95548   6.303  34.593   0.444
23124W        W95549  43.864  36.783  14.853
23125W        W95550  15.889  24.587   4.926
23126W        W95551  35.525  19.992   2.457
23127W        W95552  42.822  29.591   5.179
23128W        W95553   3.473  34.496   2.736
23129W        W95554  30.862  28.884   0.832
23130W        W95555   7.944  38.724   9.737
23131W        W95556  29.569  31.127   3.607
23132W        W95557  11.668  24.789   4.203
23133W        W95558  35.189  37.622   5.125
23134W        W95559   5.365  41.918  11.175
23135W        W95560  43.027  11.386  13.050
23136W        W95561  10.535   4.080   2.885
23137W        W95562  43.041  44.321   0.441
23138W        W95563  13.429  18.975  11.000
23139W        W95564  39.237  34.973   2.694
23140W        W95565  41.921  24.218  11.096
23141W        W95566  29.902   8.863   0.178
23142W        W95567  13.661  12.564  11.233
23143W        W95568  40.327  35.452   3.070
23144W        W95569   3.367  37.134   2.842
23145W        W95570  34.675  16.129   2.633
23146W        W95571  41.871  30.673  13.365
23147W        W95572  25.070  25.882   1.512
23148W        W95573   8.093   5.560  13.152
23149W        W95574  30.200  32.658  12.040
23150W        W95575  10.728  23.694  12.489
23151W        W95576  42.784  30.974   0.400
23152W        W95577  44.084  29.789  12.813
23153W        W95578  14.195   3.202   0.419
23154W        W95579   8.133  44.370  10.631
23155W        W95580  21.157  19.523   2.761
23156W        W95581  23.525   8.272  13.506
23157W        W95582  28.472  13.339  10.578
23158W        W95583  21.756  37.932   4.262
23159W        W95584   8.216  17.084   3.276
23160W        W95585  23.366  11.330  14.241
23161W        W95586   0.894  38.825   0.667
23162W        W95587  21.039   4.440  14.207
23163W        W95588  35.826  13.425  11.188
23164W        W95589   7.394  21.209   1.249
23165W        W95590   8.133  32.939   4.705
23166W        W95591  33.918   5.446  11.892
23167W        W95592   7.875  22.328   2.834
23168W        W95593   6.893  16.626   4.542
23169W        W95594   1.020  15.083  11.660
23170W        W95595   4.945  14.890   4.690
23171W        W95596  30.543   7.684  10.584
23172W        W95597  34.375  17.738  11.868
23173W        W95598   2.272  25.874   2.695
23174W        W95599  14.304  22.306   2.663
23175W        W95600  21.379  17.626  13.717
23176W        W95601  25.735   7.940   3.675
23177W        W95602  44.957  34.541  12.818
23178W        W95603  28.805  32.142   3.461
23179W        W95604  28.727  28.303   2.871
23180W        W95605  23.905  12.700   4.658
23181W        W95606  16.119  30.837   3.323
23182W        W95607  13.621   6.304  14.944
23183W        W95608   7.365  39.098  14.406
23184W        W95609   6.544  28.209  14.370
23185W        W95610  20.713   8.970  10.224
23186W        W95611   5.345   8.738   0.219
23187W        W95612  40.440  33.895   4.359
23188W        W95613   0.225  17.865   2.965
23189W        W95614  39.149  24.957  14.887
23190W        W95615  34.918   8.473   2.210
23191W        W95616  44.054  42.779   4.142
23192W        W95617  28.076  41.392   4.136
23193W        W95618  19.344  13.419   4.807
23194W        W95619   6.735  30.303   4.548
23195W        W95620  11.617  36.582   4.264
23196W        W95621  25.517  38.277   4.581
23197W        W95622   3.701  44.385  12.040
23198W        W95623  16.816  24.581  13.462
23199W        W95624  31.517  37.442  11.037
23200W        W95625  30.633  16.367   3.857
23201W        W95626  28.842  17.768  11.530
23202W        W95627   7.715   8.332  10.455
23203W        W95628  19.696  33.943  13.271
23204W        W95629  16.178  44.683   3.817
23205W        W95630  21.379  16.180   3.861
23206W        W95631  30.419  36.923   3.779
23207W        W95632  31.954  35.577   4.163
23208W        W95633  42.822   5.159  11.097
23209W        W95634   9.715   9.538   0.374
23210W        W95635   2.376  22.582   2.634
23211W        W95636  33.934  29.440  12.533
23212W        W95637  11.968  18.104  12.472
23213W        W95638  10.819  11.324   1.581
23214W        W95639  22.904  30.958   4.246
23215W        W95640  26.882  23.195   0.908
23216W        W95641  13.149  24.914   1.763
23217W        W95642  18.106  18.790   4.642
23218W        W95643  13.377  38.026   5.037
23219W        W95644  10.653  13.735  14.779
23220W        W95645  15.270  10.083  13.278
23221W        W95646  44.478   0.229  12.358
23222W        W95647  17.729  14.664   4.122
23223W        W95648   1.442  22.725   2.790
23224W        W95649  31.869  25.077  13.858
23225W        W95650  19.653  25.716  10.309
23226W        W95651  17.976  15.879  11.639
23227W        W95652  19.365  31.271  12.893
23228W        W95653  31.559  29.937  10.850
23229W        W95654  41.430  40.366   1.215
23230W        W95655  12.243  41.043  10.763
23231W        W95656  27.495  24.117   1.388
23232W        W95657   6.146   6.435   1.970
23233W        W95658   6.829  24.560  10.452
23234W        W95659  19.780  19.610   2.594
23235W        W95660  14.820  32.564  14.438
23236W        W95661   1.104  21.979  11.009
23237W        W95662  44.165  14.908   0.837
23238W        W95663  27.333  19.802   2.775
23239W        W95664   6.711  27.558  12.610
23240W        W95665  13.427  11.205   3.328
23241W        W95666   8.786  17.110  10.728
23242W        W95667  15.051  28.588  13.730
23243W        W95668  10.211  41.294  12.210
23244W        W95669   2.408  31.699  11.179
23245W        W95670  13.366  16.576   4.785
23246W        W95671   0.394  12.878  13.489
23247W        W95672  20.527  34.788  13.926
23248W        W95673   1.361  13.901  12.263
23249W        W95674  30.221  25.253  13.079
23250W        W95675  39.896  18.751  13.957
23251W        W95676  11.774  20.216   0.837
23252W        W95677  17.159  19.539  13.836
23253W        W95678  32.655  29.557  14.028
23254W        W95679  27.831  29.302  11.184
23255W        W95680  22.108  37.715  12.273
23256W        W95681  27.793  10.254   0.451
23257W        W95682  24.356   0.515  11.373
23258W        W95683  34.514  27.154   1.789
23259W        W95684  36.489  11.284  12.010
23260W        W95685  44.591  14.035  11.122
23261W        W95686  35.054  11.854   4.061
23262W        W95687  41.801  30.864  13.848
23263W        W95688  13.066  19.029   1.437
23264W        W95689   6.124   6.275   4.849
23265W        W95690  31.546   8.247   4.468
23266W        W95691  17.155   2.327   2.363
23267W        W95692   9.697  42.399   1.925
23268W        W95693   8.236   6.938   0.709
23269W        W95694  32.069  14.805   3.824
23270W        W95695  11.800  21.234  13.171
23271W        W95696  24.453  36.395   2.190
23272W        W95697  28.059  39.669   4.698
23273W        W95698  11.316  36.426   3.506
23274W        W95699  42.871  20.729   0.327
23275W        W95700   9.308  18.922  13.450
23276W        W95701  33.006  43.505   2.325
23277W        W95702  38.556   7.381  13.470
23278W        W95703  27.588  44.025   2.845
23279W        W95704  32.146  44.683   3.683
23280W        W95705  31.934  16.143   4.149
23281W        W95706  11.236  12.923  11.531
23282W        W95707  22.151  22.316   0.772
23283W        W95708  34.392  16.729   2.104
23284W        W95709   7.427   4.702  12.548
23285W        W95710  34.959   1.683   2.773
23286W        W95711  10.140  25.040  12.471
23287W        W95712  21.750  19.171   3.887
23288W        W95713  13.688   6.820  14.988
23289W        W95714  10.707   6.957  11.705
23290W        W95715  28.090  30.018   9.781
23291W        W95716   6.635   4.561   2.172
23292W        W95717  38.035  18.163  12.965
23293W        W95718  44.321  33.324   2.776
23294W        W95719  15.284  23.074  10.894
23295W        W95720  13.621  15.844   1.837
23296W        W95721  14.750   8.629   0.387
23297W        W95722  31.994  19.231  14.432
23298W        W95723  30.320   1.728   2.102
23299W        W95724  12.629  22.920  13.953
23300W        W95725  10.264  39.617   0.314
23301W        W95726  27.476  40.869  14.018
23302W        W95727  22.144  20.529  11.136
23303W        W95728   5.235  26.683   3.248
23304W        W95729  23.638  35.925  10.683
23305W        W95730   8.611   3.303  14.771
23306W        W95731  36.814  42.224   4.170
23307W        W95732  23.142  22.569   1.388
23308W        W95733  33.557  37.383   4.543
23309W        W95734  22.031  33.146   2.956
23310W        W95735  22.198   8.793  10.578
23311W        W95736  13.671  22.453   2.755
23312W        W95737  32.052  15.733  13.761
23313W        W95738   6.837  23.732  12.587
23314W        W95739   1.271  36.302   0.008
23315W        W95740  24.728  27.451  12.356
23316W        W95741  16.554  38.589   2.740
23317W        W95742  20.462   0.299  13.875
23318W        W95743   4.758   9.534  12.978
23319W        W95744  25.107  42.567  10.195
23320W        W95745   4.303  15.365   0.417
23321W        W95746  41.102  23.070   3.722
23322W        W95747   7.688  34.859  12.979
23323W        W95748  23.654  34.989   4.529
23324W        W95749  39.766  36.601   3.702
23325W        W95750  24.550  28.735  11.966
23326W        W95751   2.803  13.878  13.401
23327W        W95752  41.830  12.549  13.520
23328W        W95753  18.637  24.428  11.341
23329W        W95754  39.333  19.795  11.508
23330W        W95755  31.968  27.234  12.962
23331W        W95756   6.288  23.148  13.053
23332W        W95757   4.463   2.671   4.580
23333W        W95758   2.269  26.177  13.440
23334W        W95759  39.800  11.855   2.774
23335W        W95760  42.453  29.542   3.712
23336W        W95761  37.596  25.034   4.669
23337W        W95762  27.361  30.845   3.561
23338W        W95763  21.829  32.931  14.693
23339W        W95764  13.008  18.642   4.235
23340W        W95765   9.274   8.162   1.756
23341W        W95766  30.400  24.226   2.344
23342W        W95767  16.226  21.597   4.599
23343W        W95768  18.302  33.161  14.305
23344W        W95769  44.255  11.826   4.118
23345W        W95770  18.532  24.580  11.809
23346W        W95771  39.469  13.843  11.049
23347W        W95772  18.465  21.039   4.091
23348W        W95773  36.537   3.641   3.670
23349W        W95774  41.090   0.482  14.778
23350W        W95775   3.346  13.969  10.126
23351W        W95776   5.971  30.427  13.968
23352W        W95777  36.920  20.031  13.447
23353W        W95778   2.392  39.535  14.315
23354W        W95779  18.911  10.670  12.449
23355W        W95780  30.582  27.822  11.137
23356W        W95781  31.255  34.554   3.939
23357W        W95782  34.596  44.239   1.843
23358W        W95783  39.964  39.631   2.351
23359W        W95784  27.198  27.103  10.578
23360W        W95785  36.473   0.407  11.778
23361W        W95786  31.670  24.035   2.913
23362W        W95787  15.270  44.430   3.914
23363W        W95788   9.896  12.841  12.981
23364W        W95789  43.260   2.962   3.653
23365W        W95790   7.052  37.513   5.089
23366W        W95791  36.347  19.704   0.324
23367W        W95792   8.664  29.425  14.706
23368W        W95793  28.937  40.022  10.707
23369W        W95794  44.698  41.327   1.373
23370W        W95795  16.411  32.608   2.850
23371W        W95796  16.149  39.859   3.384
23372W        W95797  22.717  18.290   1.263
23373W        W95798  27.945  31.218   0.720
23374W        W95799  36.418  35.492   0.336
23375W        W95800  35.549  33.424   3.282
23376W        W95801   5.194  38.113   1.213
23377W        W95802  11.457  15.581  12.409
23378W        W95803   6.357  26.722   3.549
23379W        W95804  23.592   4.847   0.759
23380W        W95805  30.977  18.747   4.543
23381W        W95806  32.706  20.538   3.845
23382W        W95807  14.567  34.598  12.416
23383W        W95808  28.053   9.189  13.116
23384W        W95809  23.306  14.083   2.238
23385W        W95810  38.921  31.009   1.878
23386W        W95811  38.592  34.867   3.134
23387W        W95812  43.366  40.809   4.481
23388W        W95813  10.253   4.301   3.403
23389W        W95814  13.020  37.981   0.821
23390W        W95815   8.575   6.444   0.462
23391W        W95816  18.044  13.191  10.941
23392W        W95817   9.784   9.533   4.990
23393W        W95818  32.307  25.986   2.353
23394W        W95819   9.853  18.859  12.422
23395W        W95820  16.082   1.931   1.783
23396W        W95821  34.420  43.946   2.860
23397W        W95822  30.423   9.061   3.679
23398W        W95823  39.563  18.794   2.729
23399W        W95824  35.911  13.743  13.030
23400W        W95825  29.550  14.216  14.874
23401W        W95826  17.701   5.947   2.874
23402W        W95827  11.592  15.001   4.215
23403W        W95828  18.797  39.586  11.599
23404W        W95829  42.416   5.078  12.893
23405W        W95830  39.678  15.199  11.109
23406W        W95831  27.059   3.224   2.109
23407W        W95832  12.351  39.904   4.047
23408W        W95833  41.171  28.287  13.839
23409W        W95834  17.411  21.780   2.506
23410W        W95835   3.357  28.619  14.734
23411W        W95836  11.223   9.256  14.976
23412W        W95837  11.638  17.856   1.265
23413W        W95838  36.986  35.113   2.764
23414W        W95839  33.148  33.109  10.647
23415W        W95840   3.732  37.355  10.995
23416W        W95841  24.512  38.859   3.899
23417W        W95842  21.999  19.961  10.710
23418W        W95843   3.928  39.383   1.754
23419W        W95844  37.902  20.134  11.572
23420W        W95845  43.650  18.944   1.329
23421W        W95846  43.604  20.622   2.004
23422W        W95847  39.908   6.944   0.389
23423W        W95848  29.723  20.224  10.701
23424W        W95849  34.337  17.290  11.586
23425W        W95850  42.650  40.022   4.509
23426W        W95851  16.603  35.126  14.881
23427W        W95852  40.513  14.584   0.362
23428W        W95853  10.625   6.686  10.750
23429W        W95854  35.878  14.186  13.309
23430W        W95855  43.870  26.981   4.465
23431W        W95856  23.271  18.180   2.659
23432W        W95857  10.314  44.562   1.555
23433W        W95858  15.302  35.980   4.960
23434W        W95859   1.603  38.818   2.360
23435W        W95860  14.357  31.575  11.550
23436W        W95861  18.884  14.086   2.765
23437W        W95862  24.745   7.115   4.559
23438W        W95863  34.928  19.862  14.013
23439W        W95864  12.723   7.908   1.559
23440W        W95865  20.653  44.477  11.261
23441W        W95866  18.250  26.465  13.440
23442W        W95867  18.617  27.942   3.611
23443W        W95868  40.335   4.915   1.380
23444W        W95869  36.673  22.581   2.434
23445W        W95870  18.671  40.058  13.341
23446W        W95871  34.950  36.322   1.250
23447W        W95872  33.038  44.744  11.974
23448W        W95873  42.004  19.084  10.636
23449W        W95874  24.112  11.790   3.370
23450W        W95875  28.847   0.065   3.713
23451W        W95876  11.065  16.047   5.076
23452W        W95877  34.327  18.266   2.698
23453W        W95878  14.836  25.414  12.893
23454W        W95879  17.413  38.721  14.035
23455W        W95880  23.983  29.749   4.072
23456W        W95881  33.958  24.540  10.714
23457W        W95882   3.915  14.767  14.801
23458W        W95883   3.884   5.805  13.825
23459W        W95884  26.770  10.158   5.219
23460W        W95885  39.378  40.912   3.336
23461W        W95886   3.293  12.782   1.387
23462W        W95887   4.089  29.253  10.878
23463W        W95888  31.397  33.011  13.866
23464W        W95889  27.617  34.542  11.350
23465W        W95890  23.738  24.444   4.919
23466W        W95891  36.145  10.306   0.765
23467W        W95892   1.354  10.272   3.345
23468W        W95893  13.811  37.310  14.685
23469W        W95894  29.870  34.871   2.879
23470W        W95895  39.399   7.425   1.793
23471W        W95896  26.172  26.551   2.893
23472W        W95897  21.047  14.372   3.315
23473W        W95898  13.193  28.113  11.604
23474W        W95899  15.773  30.416  10.645
23475W        W95900  37.351  13.262   4.598
23476W        W95901  16.473  27.067  14.262
23477W        W95902  27.298   6.595   0.318
23478W        W95903  11.103   8.801  14.189
23479W        W95904  15.170  35.934  13.888
23480W        W95905  32.612  29.695   4.252
23481W        W95906  44.598  44.312   1.785
23482W        W95907  15.301  10.841   3.417
23483W        W95908  19.619   1.817   0.645
23484W        W95909  13.047   6.309  11.743
23485W        W95910   0.198  32.494   3.068
23486W        W95911   6.347  23.508   3.415
23487W        W95912  20.801  23.929   2.840
23488W        W95913  20.840  44.303   4.360
23489W        W95914  35.821  28.047  13.855
23490W        W95915  41.886  31.909  12.975
23491W        W95916  11.662   6.740  12.291
23492W        W95917  31.668   8.417   3.979
23493W        W95918  11.163  28.717   2.567
23494W        W95919  20.093  13.659  14.756
23495W        W95920  25.188  30.002   3.106
23496W        W95921  31.579  16.487  12.554
23497W        W95922  39.855  34.635   4.443
23498W        W95923  36.413  27.394  12.900
23499W        W95924  27.876  34.972   1.024
23500W        W95925  11.703  42.300  11.678
23501W        W95926  15.669  11.373  10.906
23502W        W95927  24.140  24.206   0.317
23503W        W95928  29.666  33.611  13.517
23504W        W95929  37.551  20.125   1.376
23505W        W95930  30.733  21.616  14.183
23506W        W95931  35.662  28.670  14.500
23507W        W95932  19.547  27.098  14.676
23508W        W95933  37.840  18.522   3.652
23509W        W95934  39.284  41.959  13.985
23510W        W95935  30.488  36.780   3.292
23511W        W95936  38.427  25.704   3.743
23512W        W95937  36.258   9.152  10.641
23513W        W95938  39.212  23.550  14.403
23514W        W95939   2.613  40.998   0.473
23515W        W95940  14.026  39.303  14.783
23516W        W95941  24.014  38.290   3.428
23517W        W95942  29.731  27.662  12.382
23518W        W95943  34.232   5.864  11.194
23519W        W95944  23.057  26.981   3.098
23520W        W95945  31.574  43.182  12.885
23521W        W95946  43.646   2.311   2.115
23522W        W95947   6.903  42.700  11.220
23523W        W95948  32.482  10.314   1.582
23524W        W95949  29.490  16.398  14.039
23525W        W95950  24.128  17.749  11.117
23526W        W95951  36.892  21.769   3.298
23527W        W95952  17.660  14.881  12.498
23528W        W95953  18.369  30.599   0.742
23529W        W95954   2.302  39.883   3.638
23530W        W95955  17.590   5.847  12.320
23531W        W95956  13.758   3.963  14.166
23532W        W95957   3.874  40.297   0.991
23533W        W95958  26.951  31.045  10.775
23534W        W95959  41.609  32.787  14.067
23535W        W95960   7.866   7.202  12.603
23536W        W95961  37.795  34.188   4.591
23537W        W95962  23.674  18.261  12.539
23538W        W95963  40.008  17.006   3.341
23539W        W95964  10.453   3.754   2.454
23540W        W95965  22.935  43.770   3.793
23541W        W95966   6.595  17.764   4.596
23542W        W95967   8.690   7.335  11.571
23543W        W95968  42.497   2.192  12.462
23544W        W95969  27.607  28.632   3.826
23545W        W95970  24.208   1.283   3.812
23546W        W95971  12.350   3.861  11.704
23547W        W95972   3.221  41.083   0.627
23548W        W95973  38.419   2.025  14.404
23549W        W95974   8.240  19.581   0.772
23550W        W95975  40.883  25.637   1.335
23551W        W95976  39.347  21.517   1.020
23552W        W95977  21.567  39.425  13.318
23553W        W95978  11.428  23.204   2.685
23554W        W95979  10.333   7.171  11.938
23555W        W95980  13.137  23.170   3.287
23556W        W95981  23.177  13.875   0.051
23557W        W95982   7.192  21.249  13.837
23558W        W95983  10.384  41.945  12.442
23559W        W95984  19.777  35.519  13.212
23560W        W95985  27.443  28.580   2.837
23561W        W95986  33.540   4.304   0.441
23562W        W95987  18.644  17.258   5.224
23563W        W95988  23.301  17.291  13.277
23564W        W95989  42.866  40.520   3.721
23565W        W95990  36.747  28.103  11.502
23566W        W95991  10.491  28.450   0.881
23567W        W95992  44.356   3.959   3.178
23568W        W95993  36.618   1.960   0.317
23569W        W95994   2.422   4.845  10.766
23570W        W95995  36.962  41.388   2.892
23571W        W95996   6.958  13.790  11.304
23572W        W95997  39.316   3.648   0.887
23573W        W95998  32.427  17.577  14.814
23574W        W95999  23.499  42.832   1.375
23575W        W96000   6.319  13.948   2.434
23576W        W96001  22.021  30.864   0.445
23577W        W96002  20.035  19.829   3.602
23578W        W96003  24.503  31.536  10.788
23579W        W96004  37.953  21.455   1.430
23580W        W96005  28.116  10.745   2.638
23581W        W96006  26.005  27.128   3.127
23582W        W96007  10.841  43.593  11.953
23583W        W96008   2.181   7.761  13.885
23584W        W96009   6.751  14.280   3.700
23585W        W96010  37.312  12.927   4.215
23586W        W96011  25.992  43.853  10.942
23587W        W96012  10.356  36.623  14.825
23588W        W96013   6.814  20.022  11.607
23589W        W96014  26.864  20.614   0.015
23590W        W96015  44.495  21.662  10.774
23591W        W96016  22.256   5.909   1.144
23592W        W96017  18.601  42.906  10.670
23593W        W96018   7.421  11.214  10.624
23594W        W96019   3.499  12.686   0.632
23595W        W96020  36.930  19.147  14.276
23596W        W96021  13.875   5.693  11.143
23597W        W96022  43.246   8.377   1.254
23598W        W96023  40.857  43.308   1.354
23599W        W96024  43.367  41.361  12.251
23600W        W96025  26.397  16.845   2.054
23601W        W96026   8.893  40.579  13.744
23602W        W96027  29.880  31.173   4.827
23603W        W96028   9.950  43.374  13.530
23604W        W96029  34.408  39.222   4.633
23605W        W96030  11.107   6.691  10.611
23606W        W96031  19.134  29.037   1.873
23607W        W96032  44.499  38.846  11.137
23608W        W96033  10.925  25.914  13.950
23609W        W96034  23.330  35.630   1.160
23610W        W96035   8.905  10.369   1.309
23611W        W96036  42.451   3.641  11.180
23612W        W96037  38.819   6.728   1.891
23613W        W96038  13.353  43.083   9.919
23614W        W96039  25.024  16.392  11.209
23615W        W96040   7.799  18.459   0.985
23616W        W96041   4.929   8.169   3.762
23617W        W96042   5.109  17.428  11.029
23618W        W96043  13.611  44.261   0.008
23619W        W96044   4.910  31.497   0.438
23620W        W96045  17.030  29.065  10.344
23621W        W96046   1.412  34.855  11.925
23622W        W96047  11.812  40.853  11.736
23623W        W96048  44.854  30.835   2.359
23624W        W96049  14.780  37.813   2.358
23625W        W96050  29.014  15.250   3.700
23626W        W96051  30.193   0.396   2.855
23627W        W96052   9.558  29.520   0.489
23628W        W96053   6.248  26.444   4.936
23629W        W96054  43.897   2.162  13.236
23630W        W96055  10.424  11.872  11.169
23631W        W96056  24.049  44.018   1.365
23632W        W96057  39.518  37.367   1.291
23633W        W96058  12.240  10.621   2.189
23634W        W96059  15.571  42.935  10.180
23635W        W96060  20.668  30.932   0.501
23636W        W96061  33.796  28.274  11.536
23637W        W96062  20.755  43.368  11.299
23638W        W96063  10.204  16.314   0.642
23639W        W96064  20.046   4.586   4.116
23640W        W96065  22.364  18.308  11.082
23641W        W96066   5.775  35.740   4.225
23642W        W96067  42.237   0.409   4.363
23643W        W96068   4.207  18.755  12.396
23644W        W96069  14.571  21.666   1.872
23645W        W96070  15.079  21.929   0.016
23646W        W96071   0.068  22.604   2.992
23647W        W96072  36.507  32.422  13.464
23648W        W96073  23.074   9.852  10.142
23649W        W96074   7.109  36.538  12.098
23650W        W96075  33.476  34.048  10.708
23651W        W96076  21.059  24.174  12.652
23652W        W96077  41.298  11.361   4.590
23653W        W96078  15.041  19.092  14.991
23654W        W96079  26.576   8.324   0.850
23655W        W96080  42.413  10.563  11.345
23656W        W96081  30.949  34.129  14.208
23657W        W96082  42.567  14.084  13.363
23658W        W96083   7.947  22.063  13.999
23659W        W96084   9.774  29.379  12.540
23660W        W96085   1.345  24.687   1.401
23661W        W96086  20.155  23.785   0.852
23662W        W96087  18.970  42.555   4.440
23663W        W96088  11.133   3.661   2.935
23664W        W96089  34.417  37.387  12.610
23665W        W96090  35.461   1.514   1.212
23666W        W96091   6.873   9.407  14.415
23667W        W96092  41.947  43.522   3.736
23668W        W96093  17.334  19.322  12.145
23669W        W96094  38.965  13.104  11.872
23670W        W96095  24.751   1.750   2.153
23671W        W96096  32.555  22.467   4.252
23672W        W96097  41.790  32.471  13.707
23673W        W96098  29.957   5.480   2.787
23674W        W96099   8.624  44.999  13.025
23675W        W96100  15.734  32.369  12.426
23676W        W96101  29.421   2.172   1.454
23677W        W96102  29.083   0.051  14.052
23678W        W96103  35.528  32.448  12.074
23679W        W96104  11.246  22.578   3.559
23680W        W96105  28.504   2.725   4.070
23681W        W96106  41.553  44.388   4.911
23682W        W96107   3.055  30.287  11.474
23683W        W96108  32.704   7.451   4.308
23684W        W96109  20.657  13.740   4.691
23685W        W96110  43.760   6.906  11.070
23686W        W96111  32.035  44.904   1.635
23687W        W96112  16.443  11.186   4.101
23688W        W96113  38.616  10.751  13.780
23689W        W96114  27.957  33.831  11.550
23690W        W96115  10.941   4.424  12.059
23691W        W96116  32.561  38.654  11.247
23692W        W96117  31.613  17.783  14.318
23693W        W96118  36.505   9.259   0.226
23694W        W96119  24.684  28.441  11.556
23695W        W96120   0.981  39.605   1.308
23696W        W96121  11.334  26.700   4.393
23697W        W96122  11.079  21.085  12.475
23698W        W96123  24.044  31.841   3.160
23699W        W96124  20.942  40.160  12.689
23700W        W96125  40.949  21.590   4.475
23701W        W96126  43.098  33.397  11.184
23702W        W96127  39.601  42.715  10.151
23703W        W96128  19.749  27.691   1.504
23704W        W96129  30.521  44.854   0.332
23705W        W96130  32.469   5.428  13.164
23706W        W96131  14.066  31.585  13.155
23707W        W96132  43.422  34.832   1.549
23708W        W96133  30.122  34.505  12.007
23709W        W96134  21.118  35.428   3.511
23710W        W96135  42.258   7.004   2.614
23711W        W96136   8.600  15.767   2.168
23712W        W96137  10.437  16.373   1.624
23713W        W96138   4.929  25.561  12.146
23714W        W96139  20.521   3.321   2.632
23715W        W96140  39.950  18.580  11.124
23716W        W96141   6.600  10.706  11.522
23717W        W96142  41.076   3.831   1.424
23718W        W96143   1.273  28.387   1.204
23719W        W96144  23.544  20.705   0.851
23720W        W96145   6.380   1.584   5.064
23721W        W96146  32.186  28.829  11.606
23722W        W96147   4.360  44.562  14.893
23723W        W96148   1.748  25.185  14.253
23724W        W96149  29.196  22.010   2.408
23725W        W96150  39.624  39.843  12.838
23726W        W96151   3.359  37.947  13.486
23727W        W96152   4.267  31.124  12.001
23728W        W96153  22.622  18.985   2.939
23729W        W96154  15.385  19.065  11.109
23730W        W96155  12.323   0.803  10.605
23731W        W96156  27.423  27.629   0.460
23732W        W96157  14.557  42.851  13.021
23733W        W96158  21.606  35.648   3.268
23734W        W96159  32.504  22.864  11.660
23735W        W96160   7.007  30.592  13.169
23736W        W96161   1.177  14.586  14.947
23737W        W96162  12.979  33.122   0.934
23738W        W96163   7.988  26.157   0.133
23739W        W96164  44.808  37.419  12.569
23740W        W96165  18.474  41.620  10.272
23741W        W96166  16.258  41.832   0.492
23742W        W96167  40.246  31.497   2.659
23743W        W96168  17.270  11.127  13.468
23744W        W96169  27.743  10.704   1.228
23745W        W96170  33.560   0.246  13.855
23746W        W96171   7.468  26.800  12.470
23747W        W96172   2.016  44.823  11.790
23748W        W96173  25.179  22.208   2.819
23749W        W96174   9.319  43.388  10.924
23750W        W96175  42.617  18.798   1.485
23751W        W96176  44.013  34.136  14.434
23752W        W96177   3.363  42.165   1.805
23753W        W96178  35.536  11.734   3.801
23754W        W96179  28.083   3.608  10.673
23755W        W96180  12.135  44.504   1.610
23756W        W96181  41.462  31.714   4.276
23757W        W96182  24.135  17.526   0.543
23758W        W96183  43.527   7.095  11.569
23759W        W96184  13.097   3.430   2.781
23760W        W96185  26.529  14.895  13.489
23761W        W96186   7.445  12.837   9.883
23762W        W96187  26.724  21.670   3.869
23763W        W96188   4.400   9.164   3.581
23764W        W96189  16.323  21.652   1.420
23765W        W96190   0.919  17.592   0.771
23766W        W96191   1.887   8.547   0.723
23767W        W96192  25.662   0.198  12.512
23768W        W96193  17.825  16.807  10.663
23769W        W96194   9.923   2.517   1.168
23770W        W96195  34.026  23.109   2.615
23771W        W96196  23.018  26.290   2.433
23772W        W96197  29.117  30.440   1.349
23773W        W96198  18.161  36.851  14.469
23774W        W96199   7.071  25.772  13.921
23775W        W96200   0.234  26.625   0.757
23776W        W96201  17.403  27.403  14.799
23777W        W96202  14.487   2.157  13.023
23778W        W96203   7.378  30.713   0.840
23779W        W96204  39.957   0.956   2.189
23780W        W96205   7.599   1.241   2.228
23781W        W96206  41.268  27.156   0.097
23782W        W96207  41.508   7.942  13.062
23783W        W96208   2.179  28.659   0.232
23784W        W96209  40.093   2.552  10.778
23785W        W96210  18.765  42.499  12.429
23786W        W96211  22.140  44.181  13.555
23787W        W96212  20.997  22.623  10.580
23788W        W96213   9.043  16.196  10.424
23789W        W96214  42.867  18.215  13.769
23790W        W96215  27.396  10.400   2.289
23791W        W96216  14.618   6.418   3.805
23792W        W96217  36.016  11.243  10.696
23793W        W96218  11.777   1.815   3.615
23794W        W96219  37.365  27.621   2.958
23795W        W96220   1.321   4.316   2.263
23796W        W96221   2.438  28.150  13.970
23797W        W96222   8.154  17.577   3.181
23798W        W96223  20.006  36.075   1.361
23799W        W96224  19.556  24.239   4.190
23800W        W96225  10.479  12.389  12.445
23801W        W96226  36.841   7.412   1.400
23802W        W96227  36.778   8.991  12.965
23803W        W96228  20.412  30.999   4.000
23804W        W96229   6.402  40.180  14.576
23805W        W96230  37.563   8.627   0.370
23806W        W96231  41.580  43.833  11.713
23807W        W96232  24.655  24.176   2.309
23808W        W96233  22.050  34.912   4.676
23809W        W96234  10.982  35.932  13.318
23810W        W96235  14.042   7.998  11.985
23811W        W96236   5.405   0.897   1.360
23812W        W96237  13.688  15.083  11.570
23813W        W96238  22.796  14.746   4.572
23814W        W96239  24.560  38.959  12.630
23815W        W96240  41.733   2.950  12.046
23816W        W96241  39.426  32.478  14.217
23817W        W96242  25.940   1.433   0.030
23818W        W96243  26.188   3.719  13.337
23819W        W96244  34.877  29.979   3.134
23820W        W96245  19.330   5.820   1.379
23821W        W96246  34.463  38.399  12.516
23822W        W96247   4.436  26.945   1.700
23823W        W96248   8.110  12.594  12.638
23824W        W96249  44.880   9.433   4.584
23825W        W96250  36.814  32.096   4.430
23826W        W96251  40.885   7.155  13.177
23827W        W96252   6.824  35.733  10.037
23828W        W96253  21.187  10.619  11.621
23829W        W96254  38.348   9.909   2.912
23830W        W96255  40.596  20.864   4.265
23831W        W96256  14.417   4.040   3.584
23832W        W96257   4.836   7.351   1.777
23833W        W96258  34.180   8.962  12.519
23834W        W96259  30.292  27.473   0.395
23835W        W96260  39.339   5.965  13.935
23836W        W96261  15.819  38.447   1.306
23837W        W96262  41.623  14.406  13.649
23838W        W96263   9.411  44.630  12.607
23839W        W96264  29.397  43.998   3.664
23840W        W96265  26.756  31.596  13.508
23841W        W96266   3.275  42.183   4.587
23842W        W96267  26.712  37.780   5.198
23843W        W96268  16.591  19.632  11.895
23844W        W96269   6.327   2.059  14.922
23845W        W96270  27.939  19.209   2.435
23846W        W96271   8.313  28.613  11.619
23847W        W96272  18.815  21.792  14.779
23848W        W96273  39.915  20.140   2.436
23849W        W96274  14.515  21.639  12.444
23850W        W96275  22.720   7.083   3.721
23851W        W96276  12.519  26.936   4.284
23852W        W96277   6.232  27.375   1.786
23853W        W96278  11.915  14.847  11.167
23854W        W96279  10.792   7.383  12.055
23855W        W96280   9.898  33.968   1.920
23856W        W96281   4.842  40.319  13.769
23857W        W96282  27.184  17.793  13.949
23858W        W96283  23.891  33.977  11.530
23859W        W96284  16.240  24.197  11.931
23860W        W96285  14.026   5.170  12.885
23861W        W96286  32.046  35.915   3.769
23862W        W96287   3.403  15.704  11.984
23863W        W96288  32.562  23.119   0.002
23864W        W96289   6.529  41.955  13.749
23865W        W96290  24.726   7.696  12.604
23866W        W96291   3.312  19.079   2.364
23867W        W96292  40.649   7.252  11.446
23868W        W96293  33.672  13.048   2.722
23869W        W96294  31.136  27.131  10.391
23870W        W96295  19.216  19.620   4.660
23871W        W96296  34.984   3.252   1.726
23872W        W96297  22.308  34.403   3.503
23873W        W96298   6.335  39.826  11.157
23874W        W96299   8.315   6.451  12.612
23875W        W96300  33.618  36.334  14.521
23876W        W96301  11.705   5.825   1.509
23877W        W96302  19.206   1.847  12.505
23878W        W96303  43.514   8.956   4.137
23879W        W96304  37.427  38.646   0.359
23880W        W96305   7.384  30.700  10.678
23881W        W96306   7.292  15.109  12.485
23882W        W96307  26.976  16.015   3.303
23883W        W96308  15.419   5.238   2.306
23884W        W96309  39.474   3.470   5.187
23885W        W96310  32.930  32.524  10.708
23886W        W96311  22.188   4.071   2.992
23887W        W96312  31.979  18.460   1.302
23888W        W96313  16.741  42.310  11.121
23889W        W96314  25.829  37.567   4.949
23890W        W96315  15.854   1.016  13.624
23891W        W96316  16.614   7.279  10.443
23892W        W96317  19.876  27.556  11.621
23893W        W96318   8.895  32.418   4.697
23894W        W96319  10.515  13.695  12.437
23895W        W96320  36.825  23.620   2.260
23896W        W96321  43.217   9.279  13.508
23897W        W96322  43.490  19.543   4.444
23898W        W96323  12.218  18.193  12.034
23899W        W96324  38.871  11.163  11.737
23900W        W96325  28.091  42.428   1.384
23901W        W96326  37.028  42.503  14.868
23902W        W96327  11.415  10.764  10.673
23903W        W96328  19.770  34.629  13.898
23904W        W96329  42.992  18.538   2.737
23905W        W96330  38.955  13.752   1.841
23906W        W96331   9.210  25.054   1.846
23907W        W96332  12.829  10.185   2.776
23908W        W96333  40.433  30.895  10.712
23909W        W96334  20.241  12.936  10.960
23910W        W96335   7.332  26.987  10.686
23911W        W96336  12.270  42.377  13.432
23912W        W96337  21.731  44.983   3.348
23913W        W96338  11.152  42.837   3.215
23914W        W96339   6.870  10.616   0.740
23915W        W96340  38.868  43.949  12.119
23916W        W96341  29.216  40.509   1.166
23917W        W96342   8.794  17.791  14.470
23918W        W96343  36.552  12.803  13.869
23919W        W96344   3.766  22.345  12.597
23920W        W96345   6.802  39.444   0.936
23921W        W96346  27.145   3.792  12.397
23922W        W96347  32.358  12.703  11.091
23923W        W96348   4.342  36.645  12.874
23924W        W96349  15.791  16.196   4.516
23925W        W96350  25.939  36.475  10.634
23926W        W96351  31.734   9.343  13.090
23927W        W96352  14.451  24.699  11.191
23928W        W96353   6.468  30.839   1.925
23929W        W96354  38.089  17.147   2.305
23930W        W96355   3.798  20.170   4.609
23931W        W96356  37.513  33.757   3.630
23932W        W96357  42.560  20.683  12.492
23933W        W96358  16.735  31.967   0.046
23934W        W96359  32.042  13.342   3.792
23935W        W96360  29.148  38.126  12.985
23936W        W96361  30.950  39.317   2.300
23937W        W96362  24.099  44.879  13.867
23938W        W96363   1.451  40.071   1.879
23939W        W96364   7.592  34.040  14.093
23940W        W96365   9.340  29.837  11.113
23941W        W96366  32.931  32.937   2.757
23942W        W96367  11.897  22.985   2.795
23943W        W96368  44.067  43.387  11.055
23944W        W96369  11.709  30.684   0.296
23945W        W96370  19.933  30.442   0.123
23946W        W96371  17.933   9.403  13.769
23947W        W96372  22.101  20.016   2.925
23948W        W96373  22.201  28.502  13.070
23949W        W96374  20.890  25.306  11.973
23950W        W96375   5.381  39.493   3.071
23951W        W96376   2.339  12.169   4.139
23952W        W96377   5.368  34.865   4.049
23953W        W96378  38.007  41.487   0.910
23954W        W96379   2.470  20.555   1.875
23955W        W96380  36.516  34.545  11.023
23956W        W96381  31.638  10.971   1.429
23957W        W96382  12.220  11.942  14.507
23958W        W96383   4.645  40.229   3.250
23959W        W96384  17.614  37.816  13.634
23960W        W96385  26.456   9.999   1.383
23961W        W96386  11.306   8.624   3.173
23962W        W96387  35.491   4.017   0.395
23963W        W96388  19.834  42.963   4.505
23964W        W96389  23.188  43.491   1.134
23965W        W96390  30.517  14.046   3.243
23966W        W96391   3.519   2.240  11.089
23967W        W96392  26.494  28.256   1.775
23968W        W96393   8.197   1.403  11.890
23969W        W96394  14.755   3.186   2.224
23970W        W96395  27.975  12.301   4.127
23971W        W96396  17.336  35.809   4.623
23972W        W96397  40.797  39.717  13.563
23973W        W96398   9.407   2.508   1.426
23974W        W96399   9.313   3.986   2.700
23975W        W96400  17.233   5.502   4.970
23976W        W96401  10.224  10.290  13.170
23977W        W96402  27.918  39.257  12.101
23978W        W96403  18.823  30.310   1.033
23979W        W96404  22.559  27.991  14.314
23980W        W96405  44.459  17.308   0.238
23981W        W96406  18.383   2.698   3.162
23982W        W96407  27.180  23.002  14.083
23983W        W96408   9.353  40.142  14.869
23984W        W96409  33.147  22.453  14.865
23985W        W96410  25.555  24.992  13.995
23986W        W96411  30.130  25.198  11.020
23987W        W96412   2.463  24.135  12.773
23988W        W96413  11.499  36.601  14.418
23989W        W96414   8.789   7.666   5.249
23990W        W96415  24.008  14.371   3.816
23991W        W96416  13.195  25.307   0.868
23992W        W96417   2.409   5.181  13.388
23993W        W96418  36.922  35.871   1.494
23994W        W96419  28.377  37.508  10.670
23995W        W96420  41.003   6.375  11.528
23996W        W96421   7.353   7.707  13.319
23997W        W96422  36.408  32.910  14.967
23998W        W96423  26.099   3.747   4.371
23999W        W96424  28.166  42.003  12.988
24000W        W96425  34.955  26.377   4.518
24001W        W96426  16.424  30.478   3.626
24002W        W96427  42.049  13.203  11.548
24003W        W96428   8.918   5.911   3.780
24004W        W96429  16.306  32.589   0.725
24005W        W96430   8.329  21.882   0.270
24006W        W96431  18.721  34.771   2.304
24007W        W96432  23.537  20.275  10.682
24008W        W96433  24.893  31.036  14.368
24009W        W96434  19.322  11.370   0.254
24010W        W96435  16.024   3.892   0.809
24011W        W96436  16.093   9.728   4.618
24012W        W96437  34.568   3.287  13.057
24013W        W96438  16.518  10.415  14.757
24014W        W96439  27.424  43.225   0.968
24015W        W96440  39.378  10.913  13.345
24016W        W96441   1.287  31.500  12.604
24017W        W96442  24.733  30.515   3.482
24018W        W96443  38.146  19.643  11.191
24019W        W96444  23.699  15.781  14.539
24020W        W96445  26.684  14.610   0.847
24021W        W96446   1.920  29.377   1.861
24022W        W96447   8.909   1.960   4.617
24023W        W96448  24.289   1.917  11.659
24024W        W96449  33.959  30.193  13.986
24025W        W96450   1.793  13.760   3.719
24026W        W96451  25.742   7.840   3.131
24027W        W96452  17.667  36.970   2.364
24028W        W96453  10.182   4.489   4.316
24029W        W96454   6.134  21.583  12.493
24030W        W96455  22.762  36.931   2.913
24031W        W96456  43.324  44.282  14.854
24032W        W96457  32.257   1.704   2.039
24033W        W96458  30.014  24.902   1.754
24034W        W96459   0.290  12.757   2.504
24035W        W96460  35.955  43.548  12.451
24036W        W96461  18.495  30.908  14.411
24037W        W96462  24.933  42.156  11.108
24038W        W96463  37.066  12.930  11.659
24039W        W96464  28.437  20.142   2.347
24040W        W96465  40.244  44.955  14.009
24041W        W96466  44.362  33.780   2.169
24042W        W96467  32.639  17.670  13.404
24043W        W96468  17.154  16.268  14.129
24044W        W96469  42.628  14.277  11.754
24045W        W96470  38.001  33.591  11.369
24046W        W96471  35.426  43.494   3.226
24047W        W96472  21.797  16.843  10.838
24048W        W96473  29.393  17.521   3.367
24049W        W96474   2.764   3.286  14.027
24050W        W96475  42.808  33.529   2.284
24051W        W96476  18.156  14.010   0.376
24052W        W96477  22.186  20.707  12.974
24053W        W96478  12.809  35.649  14.026
24054W        W96479   6.125  33.762   3.280
24055W        W96480  42.275  23.806   4.865
24056W        W96481  18.967  17.180   1.317
24057W        W96482  43.282  38.446   4.108
24058W        W96483   6.705  10.224   3.124
24059W        W96484  14.549  27.324  12.214
24060W        W96485  42.621  16.203   0.751
24061W        W96486  12.753   0.377  14.721
24062W        W96487  12.208  16.349   2.772
24063W        W96488  16.166  33.888   0.355
24064W        W96489  27.397  38.520   4.449
24065W        W96490  39.412  16.549   1.835
24066W        W96491  43.885  20.167   1.997
24067W        W96492  23.061   7.607   0.346
24068W        W96493   4.658  38.125   0.259
24069W        W96494  14.654  44.609   1.619
24070W        W96495  12.259  24.537  14.888
24071W        W96496  22.814  33.170   0.483
24072W        W96497   2.908  35.033   3.047
24073W        W96498  29.484  30.217  13.828
24074W        W96499  42.250  35.432  10.684
24075W        W96500  43.298  33.098  12.177
24076W        W96501  35.607  39.446   1.803
24077W        W96502  18.936  28.259   0.007
24078W        W96503  14.142  35.108  10.739
24079W        W96504  20.062  29.411   4.457
24080W        W96505   9.755   4.290   3.171
24081W        W96506  11.313  34.151  12.837
24082W        W96507   8.709   6.773   0.879
24083W        W96508  30.623  41.848  11.426
24084W        W96509   9.358  16.024   1.856
24085W        W96510   5.865  40.070  11.219
24086W        W96511  39.032   3.674  11.596
24087W        W96512   1.286  10.386  13.043
24088W        W96513  37.609  15.781   0.057
24089W        W96514  32.230  35.426  11.541
24090W        W96515  22.058  14.021  12.616
24091W        W96516  15.553  37.331  12.588
24092W        W96517  22.599  30.307   1.726
24093W        W96518  29.604  44.455  14.943
24094W        W96519   6.302  33.234   2.510
24095W        W96520  20.754  30.412   2.293
24096W        W96521  41.144  15.069  11.163
24097W        W96522  32.400  38.907  10.811
24098W        W96523  19.116  40.347   3.673
24099W        W96524  44.718  37.477   3.809
24100W        W96525   4.873   2.891  11.173
24101W        W96526  34.557  22.333  12.049
24102W        W96527  28.453   3.434  12.009
24103W        W96528  18.187  34.527  10.711
24104W        W96529  21.632   7.815  13.357
24105W        W96530   3.048  39.927  13.812
24106W        W96531   2.061  35.543  10.739
24107W        W96532  18.633  15.330  11.450
24108W        W96533   2.896  15.891  10.480
24109W        W96534   7.772  34.479  12.633
24110W        W96535  11.696  28.997   2.317
24111W        W96536  16.784  42.371   3.783
24112W        W96537  42.024  35.061   4.173
24113W        W96538   7.888   7.892   3.162
24114W        W96539  10.416  43.116   0.415
24115W        W96540  35.127   3.963   2.252
24116W        W96541  24.693  38.430   4.142
24117W        W96542   3.977  44.453  12.509
24118W        W96543  13.841  33.073   4.106
24119W        W96544  31.472  18.539  10.663
24120W        W96545  22.582   4.430   0.754
24121W        W96546  31.564   5.261  11.084
24122W        W96547   5.754  38.091   0.194
24123W        W96548  42.255  34.494  12.389
24124W        W96549  21.145  29.209  11.745
24125W        W96550   0.880  12.065   3.330
24126W        W96551  19.953   7.583  13.353
24127W        W96552   8.650  14.632   1.050
24128W        W96553  31.420  21.032  14.472
24129W        W96554  32.019  25.687   4.090
24130W        W96555  42.235   8.386   4.224
24131W        W96556  31.797  12.636  10.020
24132W        W96557  12.128  41.455  11.053
24133W        W96558  41.437  40.093   0.744
24134W        W96559   9.668   8.414  10.266
24135W        W96560   2.772  17.881  13.355
24136W        W96561  38.499   2.898   2.276
24137W        W96562   0.185   3.470   2.341
24138W        W96563  34.463  40.050   1.349
24139W        W96564   8.726  35.987  14.747
24140W        W96565   6.177  28.531   0.880
24141W        W96566  18.035  40.037   4.684
24142W        W96567   7.825   8.802  12.191
24143W        W96568  29.046  15.073  11.997
24144W        W96569  41.097  29.563   3.901
24145W        W96570   6.626   9.712   3.335
24146W        W96571  30.020  11.160  13.905
24147W        W96572  23.448  29.261  12.185
24148W        W96573  12.984  27.669   1.391
24149W        W96574  44.997   0.704   0.420
24150W        W96575  24.452  11.430   4.747
24151W        W96576   3.435  24.561   2.787
24152W        W96577   9.924   9.970  13.432
24153W        W96578  38.967  28.649   3.647
24154W        W96579  12.036  35.539  14.285
24155W        W96580  14.603  22.165  14.752
24156W        W96581  11.080  40.806   2.630
24157W        W96582   9.028  40.010   0.890
24158W        W96583  23.496  37.587   0.387
24159W        W96584  19.463   0.048   2.767
24160W        W96585   7.313  31.872   4.168
24161W        W96586  28.018   1.749   2.786
24162W        W96587  36.364  39.347  11.024
24163W        W96588  16.367   9.244   2.322
24164W        W96589  31.854  40.541   3.723
24165W        W96590   4.968  10.612  10.018
24166W        W96591  10.301  41.291   2.182
24167W        W96592   7.925  40.015   2.293
24168W        W96593   4.340  27.859   0.943
24169W        W96594  44.426   0.828   4.148
24170W        W96595  17.736  31.234  12.251
24171W        W96596  42.009  19.305  11.471
24172W        W96597  28.228  34.578   0.971
24173W        W96598   4.890   9.094  14.822
24174W        W96599  37.563  21.012   2.358
24175W        W96600  20.549  12.243  13.494
24176W        W96601  12.074  43.022   3.253
24177W        W96602   3.642  19.507   0.898
24178W        W96603  38.540   2.684   1.792
24179W        W96604  16.052  40.319  11.933
24180W        W96605  15.214  17.650  11.659
24181W        W96606  39.083  40.090   2.175
24182W        W96607   3.180  14.288  11.460
24183W        W96608  31.173  20.087  14.882
24184W        W96609  14.639  21.229  12.128
24185W        W96610  10.784  31.626   3.908
24186W        W96611  38.100  27.285   0.846
24187W        W96612  22.007  36.493  14.381
24188W        W96613  26.339  24.617  14.346
24189W        W96614  38.354  21.347   2.036
24190W        W96615  41.956  41.772  14.839
24191W        W96616   8.656  41.867  14.989
24192W        W96617  22.646  21.637   1.239
24193W        W96618  19.282  20.749  14.759
24194W        W96619  24.094  20.716   3.230
24195W        W96620  24.676   0.799  12.990
24196W        W96621  33.731  44.551   4.956
24197W        W96622   2.446  31.104  14.928
24198W        W96623  32.973  39.515   2.210
24199W        W96624  43.916  17.222   1.430
24200W        W96625  22.700  11.764  12.593
24201W        W96626  12.050  22.934   5.469
24202W        W96627  22.144  37.448   2.636
24203W        W96628  30.923  14.464   5.024
24204W        W96629  19.532   6.743   2.103
24205W        W96630  41.531  37.580  11.530
24206W        W96631  21.999  28.252   0.320
24207W        W96632  35.510  32.878  13.863
24208W        W96633  34.920  22.979   3.123
24209W        W96634  38.418   8.822   2.366
24210W        W96635  25.103  31.992  10.904
24211W        W96636  43.422   4.816   1.265
24212W        W96637  22.180  17.783  13.831
24213W        W96638   2.235  19.033   4.548
24214W        W96639  21.476  32.557  14.840
24215W        W96640   1.293  17.334   4.765
24216W        W96641  35.105  14.771  13.012
24217W        W96642  31.401  44.448   4.634
24218W        W96643   9.239  36.806  14.341
24219W        W96644  32.430   9.816  14.032
24220W        W96645   0.171  35.472  11.714
24221W        W96646  28.052  41.349  10.879
24222W        W96647   5.462  37.390  12.529
24223W        W96648   6.964  40.315  12.334
24224W        W96649   8.849  22.335  12.946
24225W        W96650  10.457  20.145   0.247
24226W        W96651  34.912  18.543   4.636
24227W        W96652  33.034  32.187   4.933
24228W        W96653   9.984  17.291   4.579
24229W        W96654   7.594  42.007   2.135
24230W        W96655   3.386   6.707   4.647
24231W        W96656  10.711  42.310   4.879
24232W        W96657   3.955   5.411   4.639
24233W        W96658   8.641  42.843  14.318
24234W        W96659  10.757  31.908   0.985
24235W        W96660  38.642  29.634   0.485
24236W        W96661   6.414   8.353   3.768
24237W        W96662  11.915  26.110  13.796
24238W        W96663  13.719   8.417   0.944
24239W        W96664  38.470  25.198  12.958
24240W        W96665  13.121  44.095   1.644
24241W        W96666  13.588  26.261  11.559
24242W        W96667  14.702  32.169   1.303
24243W        W96668  23.466  16.155  11.324
24244W        W96669   8.194   6.402  11.617
24245W        W96670   6.880  34.492  14.819
24246W        W96671  11.018  18.776  11.554
24247W        W96672   9.626  36.206   2.222
24248W        W96673  39.837  41.467  12.398
24249W        W96674  39.793   1.719   2.767
24250W        W96675  17.530   8.567  13.842
24251W        W96676  15.342   8.606  13.025
24252W        W96677   1.331  33.566   4.124
24253W        W96678   3.703  29.064   4.089
24254W        W96679  38.034  10.725  10.729
24255W        W96680  22.592  39.918  13.975
24256W        W96681  11.304  27.288  12.466
24257W        W96682  33.192  31.581   3.635
24258W        W96683  25.734   9.465   1.766
24259W        W96684  27.730   6.625  11.062
24260W        W96685  22.088  26.244   5.135
24261W        W96686  41.900   7.361   2.423
24262W        W96687  10.399  34.972  14.719
24263W        W96688  44.035   5.343  12.922
24264W        W96689  34.553  42.990   3.580
24265W        W96690  31.278   9.377  13.297
24266W        W96691  44.965  43.785  11.213
24267W        W96692  33.920  44.377  13.543
24268W        W96693  28.153  15.589  12.160
24269W        W96694  31.478  37.227  11.503
24270W        W96695  26.604  36.362  11.049
24271W        W96696  15.322   5.888   3.083
24272W        W96697   2.000  38.385   3.229
24273W        W96698  12.340  40.272   1.006
24274W        W96699  27.295   3.907  13.148
24275W        W96700   7.301   8.331  13.443
24276W        W96701  18.157  30.172   0.450
24277W        W96702  17.199  38.956   0.360
24278W        W96703  33.582   1.987   4.687
24279W        W96704  38.116   1.988  13.985
24280W        W96705  30.987  20.732   3.434
24281W        W96706  15.594  24.196   4.708
24282W        W96707  43.050  39.480   2.129
24283W        W96708  28.975  24.650  10.876
24284W        W96709  12.091  43.374  13.612
24285W        W96710   6.714  30.466  11.304
24286W        W96711  13.147  16.975   3.176
24287W        W96712  13.195  15.893  13.114
24288W        W96713   6.105  32.873  12.350
24289W        W96714   6.143  36.756   1.633
24290W        W96715   0.968  22.245  14.079
24291W        W96716  36.862  25.553   5.192
24292W        W96717  13.775   1.004   4.885
24293W        W96718  37.116  10.738   3.183
24294W        W96719  24.583  12.155   1.736
24295W        W96720  22.581   3.768  12.996
24296W        W96721  10.048  37.474  14.432
24297W        W96722  26.235  18.571   0.727
24298W        W96723  10.078  40.270  12.486
24299W        W96724   9.993   1.766   1.622
24300W        W96725  12.851  10.668  12.080
24301W        W96726  40.248   0.445   1.446
24302W        W96727   3.443  26.140  13.861
24303W        W96728   9.275   5.776   1.444
24304W        W96729  34.618  11.668  11.994
24305W        W96730  12.142  34.527  12.023
24306W        W96731  38.398  21.162   1.538
24307W        W96732  13.900  26.881   3.823
24308W        W96733  41.965  16.275   0.584
24309W        W96734  44.544  10.264   3.754
24310W        W96735  33.175  21.102   1.941
24311W        W96736   5.678   5.312   0.467
24312W        W96737  19.685  36.872   2.344
24313W        W96738  22.415  37.489  11.087
24314W        W96739  26.479  30.903  14.780
24315W        W96740  35.368  38.908   0.378
24316W        W96741  37.337  33.124   2.736
24317W        W96742   9.353  18.794  11.577
24318W        W96743  27.999  17.010   4.179
24319W        W96744  17.173  15.372   4.099
24320W        W96745  22.134  20.734  13.868
24321W        W96746  38.861  30.191  12.956
24322W        W96747  12.354  26.132   3.422
24323W        W96748   0.839  36.937   4.534
24324W        W96749  42.212  25.585   3.637
24325W        W96750  35.758  42.997  10.773
24326W        W96751  36.798  20.830  12.779
24327W        W96752  15.175  43.509  11.094
24328W        W96753   8.285  44.822  11.210
24329W        W96754   1.484  21.103   2.250
24330W        W96755   3.275  42.093   0.922
24331W        W96756   7.150  42.113   0.257
24332W        W96757   6.899   7.432  11.743
24333W        W96758   4.759  12.328   0.199
24334W        W96759  29.878   2.047  14.410
24335W        W96760  22.491  21.744   3.630
24336W        W96761   8.996  15.126   0.311
24337W        W96762   2.402  41.254  14.007
24338W        W96763   8.030  41.777  14.375
24339W        W96764   0.851  36.763   4.049
24340W        W96765  18.060  33.396   3.107
24341W        W96766   8.152  38.012   4.648
24342W        W96767  41.466  28.453   3.401
24343W        W96768  17.228   3.277  14.093
24344W        W96769   0.558   2.195  12.431
24345W        W96770  36.835  19.321  14.760
24346W        W96771  23.492  36.936   4.533
24347W        W96772  20.067  33.535   1.052
24348W        W96773  38.369  27.567   4.058
24349W        W96774  11.050   2.444  14.401
24350W        W96775  36.507  38.400   3.834
24351W        W96776  25.925   6.874  11.609
24352W        W96777   8.679   4.799  13.048
24353W        W96778  30.695  33.393  12.622
24354W        W96779  19.185  39.650  11.036
24355W        W96780  32.367   7.605   1.745
24356W        W96781  11.135   4.929  11.000
24357W        W96782  28.911   0.927   4.901
24358W        W96783  36.054  12.753  11.581
24359W        W96784  29.388  15.807   4.218
24360W        W96785  36.886  26.265   2.060
24361W        W96786  38.883  33.588  11.374
24362W        W96787  43.076  11.385   2.730
24363W        W96788  17.237   2.554   1.377
24364W        W96789  15.698  26.026   1.237
24365W        W96790  17.463   3.854   0.722
24366W        W96791  14.761  31.498  12.522
24367W        W96792   0.206  21.199  14.464
24368W        W96793  42.910  12.082  11.857
24369W        W96794  28.172  30.963   3.188
24370W        W96795   5.893  40.989   2.478
24371W        W96796   1.028   8.314  12.934
24372W        W96797  23.789  11.726   1.785
24373W        W96798  18.641  16.573  12.024
24374W        W96799  44.267  16.154   0.172
24375W        W96800  34.683  14.752   1.213
24376W        W96801   7.297   7.985   4.212
24377W        W96802  42.938   2.755   0.701
24378W        W96803   1.267  12.611  13.950
24379W        W96804  10.300  42.030   3.610
24380W        W96805   0.458   8.376  12.886
24381W        W96806  10.703  31.575  11.889
24382W        W96807  22.750  27.103  11.107
24383W        W96808  36.587   0.029   0.754
24384W        W96809   9.678  31.426  13.324
24385W        W96810  38.949  22.805   4.153
24386W        W96811  17.879   8.687   4.600
24387W        W96812  10.178  20.197   4.142
24388W        W96813  19.378  38.466   2.517
24389W        W96814   3.639   4.990   0.936
24390W        W96815  15.875   6.253   4.327
24391W        W96816  21.717   9.945   0.247
24392W        W96817  43.187  10.657  13.711
24393W        W96818  22.976  11.359  13.899
24394W        W96819   8.786  12.604   0.230
24395W        W96820  11.745  13.567  11.708
24396W        W96821  17.095  35.429  14.362
24397W        W96822  23.886  29.235   1.249
24398W        W96823  21.667  13.760   4.813
24399W        W96824  39.355  42.948  13.820
24400W        W96825   3.330   5.168  14.340
24401W        W96826  32.355  43.638  11.167
24402W        W96827  10.708  18.332  14.754
24403W        W96828  24.634  16.746   1.476
24404W        W96829  15.765  26.379   1.683
24405W        W96830  33.498  34.329   4.809
24406W        W96831   2.868  16.909  14.404
24407W        W96832  27.089  30.633   0.856
24408W        W96833  29.618  15.840  11.283
24409W        W96834  37.707  14.560  13.050
24410W        W96835  37.968  43.066  11.711
24411W        W96836  33.363  28.915  12.280
24412W        W96837   2.010  26.455   0.342
24413W        W96838  34.880   8.482  14.836
24414W        W96839  29.608  17.136   2.567
24415W        W96840   7.308  32.897  11.919
24416W        W96841  16.870  17.014  14.604
24417W        W96842  40.937   9.299   2.773
24418W        W96843  21.020  38.613   1.276
24419W        W96844  34.096  28.203   0.239
24420W        W96845  23.446  13.286   2.280
24421W        W96846  13.272   4.222  11.981
24422W        W96847  35.309  36.687  11.173
24423W        W96848  32.093  41.349   2.294
24424W        W96849   9.130  32.562  14.502
24425W        W96850  25.554   4.135   1.291
24426W        W96851  28.649  17.120   1.506
24427W        W96852   7.840  38.869   0.253
24428W        W96853  14.050  43.901  11.701
24429W        W96854  29.984  19.792   1.687
24430W        W96855   0.217  23.440  10.716
24431W        W96856  40.912  32.570   1.384
24432W        W96857  16.733  23.045   3.192
24433W        W96858   2.792  22.037  14.897
24434W        W96859   1.162  32.084  10.645
24435W        W96860  34.498  28.429   3.155
24436W        W96861  29.636  38.353  11.953
24437W        W96862  12.643   3.823   3.717
24438W        W96863   5.140  37.756   9.875
24439W        W96864  12.792  10.133   0.833
24440W        W96865  19.522   4.335   1.399
24441W        W96866  27.424  12.896  14.917
24442W        W96867  25.046  11.169  11.569
24443W        W96868  32.078  37.312   2.417
24444W        W96869  37.325  21.309   0.495
24445W        W96870   1.265  19.774   2.802
24446W        W96871   7.420  25.087  12.146
24447W        W96872   6.461  31.176  11.111
24448W        W96873  16.414  11.852   2.537
24449W        W96874  28.639  37.926   3.232
24450W        W96875  20.303  30.142   4.140
24451W        W96876  27.526  13.458  10.670
24452W        W96877  19.247  44.276   4.882
24453W        W96878  19.162  30.504  13.990
24454W        W96879   3.282  12.891   0.197
24455W        W96880  38.105  24.963   4.721
24456W        W96881   6.700  29.930   1.756
24457W        W96882  14.612  30.259  13.472
24458W        W96883  12.029   3.894  13.922
24459W        W96884  42.536  10.681   0.316
24460W        W96885  21.399  25.144  11.620
24461W        W96886  11.972   9.335   2.420
24462W        W96887  26.577   2.865   1.328
24463W        W96888  19.780   6.455  14.410
24464W        W96889   1.538  14.105   2.669
24465W        W96890  43.906  32.381  10.699
24466W        W96891  26.110  28.928  11.560
24467W        W96892  20.576  39.251  10.607
24468W        W96893  30.247  17.318   2.209
24469W        W96894  27.909  40.456  10.308
24470W        W96895  32.412  24.281   4.160
24471W        W96896  14.008  38.409   0.241
24472W        W96897  39.715  41.302   3.347
24473W        W96898  22.085  30.768  10.347
24474W        W96899  13.081  34.440  13.549
24475W        W96900   6.706  19.050  11.505
24476W        W96901  40.750  42.718   4.203
24477W        W96902  14.903  23.560   4.700
24478W        W96903  36.913  13.031  12.397
24479W        W96904   5.527  44.753   3.681
24480W        W96905  31.011   2.192  14.773
24481W        W96906  13.101  42.297   2.245
24482W        W96907  28.650  29.529  12.921
24483W        W96908   4.114  20.543   0.740
24484W        W96909  37.100  20.066   0.263
24485W        W96910  13.094   5.134  13.801
24486W        W96911  29.084   5.783  10.709
24487W        W96912  30.430  34.009  13.054
24488W        W96913  37.584  40.473  11.434
24489W        W96914  25.898  21.718   2.733
24490W        W96915  39.534  43.279  10.958
24491W        W96916  43.060  39.411   3.778
24492W        W96917  11.428  38.052   0.446
24493W        W96918  35.465  20.086   3.779
24494W        W96919  20.648  10.886   2.798
24495W        W96920  36.391   7.875  14.814
24496W        W96921  40.024  14.969   0.863
24497W        W96922  27.154   0.350  14.473
24498W        W96923   7.673  41.052   0.078
24499W        W96924  28.526  37.343  11.559
24500W        W96925  33.580  33.592   3.622
24501W        W96926  31.956  28.460   2.532
24502W        W96927   4.607  17.682   0.831
24503W        W96928  33.270  38.839   4.962
24504W        W96929  33.526   8.037  13.744
24505W        W96930  18.648  19.023   3.569
24506W        W96931   8.808  25.574   4.223
24507W        W96932  36.047   5.048  11.427
24508W        W96933  39.814  24.049  10.735
24509W        W96934  43.688  21.791   3.524
24510W        W96935  12.620  20.599  11.957
24511W        W96936  11.837   6.819  14.928
24512W        W96937   6.493  28.629  11.024
24513W        W96938   9.042  14.095  12.429
24514W        W96939  36.322  38.827  11.050
24515W        W96940  34.166   9.736  12.125
24516W        W96941  10.134  27.893   4.664
24517W        W96942  11.956  19.233  14.144
24518W        W96943  22.913  35.380  11.698
24519W        W96944   6.499  37.534   4.347
24520W        W96945  33.550   4.927  14.357
24521W        W96946  41.206   0.009   3.599
24522W        W96947  42.518   5.789   0.557
24523W        W96948   4.442   8.000  12.051
24524W        W96949  22.834  26.961  14.690
24525W        W96950  31.193   0.485  12.802
24526W        W96951  12.853  14.585  14.450
24527W        W96952  16.648  22.466   2.350
24528W        W96953  15.783  23.200  11.077
24529W        W96954  15.645   6.375  12.444
24530W        W96955  33.496  18.697   0.425
24531W        W96956  36.875   0.237   2.454
24532W        W96957  12.174  36.903  13.917
24533W        W96958  24.602  41.151  11.511
24534W        W96959  41.029  17.475   3.902
24535W        W96960  32.085   9.157   4.501
24536W        W96961  34.850  36.003   1.652
24537W        W96962   8.801  21.199  14.860
24538W        W96963  20.321  27.094   3.551
24539W        W96964  36.417  42.575   1.280
24540W        W96965   4.772  25.497   1.987
24541W        W96966   8.356  36.436  13.259
24542W        W96967   1.645  19.971  13.305
24543W        W96968  30.908   8.409   2.721
24544W        W96969  15.969  30.901   4.603
24545W        W96970  40.547   1.435   4.881
24546W        W96971   6.547  26.590  12.425
24547W        W96972  20.538  38.997  13.490
24548W        W96973   4.245  17.316  11.528
24549W        W96974   8.161  19.624  12.877
24550W        W96975  15.519  32.705   5.116
24551W        W96976   8.792   7.764  10.516
24552W        W96977   9.214  33.494   4.229
24553W        W96978   9.935  33.650   0.728
24554W        W96979  21.770  28.758  12.963
24555W        W96980  24.587   7.460   1.959
24556W        W96981  43.885  26.080   0.296
24557W        W96982  21.670  35.786  11.153
24558W        W96983   8.396  16.196  13.431
24559W        W96984  20.055   9.708  14.102
24560W        W96985  32.015   9.675   1.236
24561W        W96986  39.970  42.849   1.664
24562W        W96987  27.731  23.676   4.127
24563W        W96988  38.548  41.855   2.899
24564W        W96989   1.400  16.014  12.743
24565W        W96990  40.931  34.720  12.332
24566W        W96991  25.074  40.005   3.257
24567W        W96992  42.403   1.549  11.594
24568W        W96993  41.033  44.997  14.947
24569W        W96994  37.598  42.660  10.516
24570W        W96995  22.024  37.824  11.041
24571W        W96996   3.487  11.571  10.489
24572W        W96997  16.070  44.191   0.267
24573W        W96998  42.183   8.385  11.568
24574W        W96999  40.021  39.904  11.979
24575W        W97000   2.730  16.625  13.928
24576W        W97001  35.439  25.120  10.589
24577W        W97002  21.234  13.318  13.810
24578W        W97003  34.875  35.032   0.904
24579W        W97004  23.693   2.153   3.189
24580W        W97005  44.991   8.701  12.463
24581W        W97006  26.381   4.976   0.252
24582W        W97007  16.735  23.054  13.046
24583W        W97008   0.889  21.552  11.242
24584W        W97009   6.630  23.692  13.063
24585W        W97010   8.586   7.313   2.350
24586W        W97011  33.861   5.291   0.812
24587W        W97012  28.997  11.247   2.743
24588W        W97013   3.004  43.321   0.953
24589W        W97014  31.411  41.561  11.503
24590W        W97015  33.844  20.028  14.794
24591W        W97016  37.053  34.529  13.052
24592W        W97017  10.894  13.841   4.117
24593W        W97018   3.955  31.503  13.390
24594W        W97019   8.225   8.452  14.808
24595W        W97020  40.838  30.865   0.878
24596W        W97021  17.621   3.729   1.193
24597W        W97022  13.816  19.206   3.928
24598W        W97023  39.774   1.778  11.146
24599W        W97024  26.055   5.632   3.745
24600W        W97025  43.778  19.454   2.083
24601W        W97026  14.612  27.984   2.010
24602W        W97027   8.219  24.042   3.362
24603W        W97028  12.874  40.601  12.054
24604W        W97029  15.656  34.141  14.487
24605W        W97030  36.296  11.401  12.466
24606W        W97031  35.464  11.074   1.850
24607W        W97032  12.872  32.108   2.379
24608W        W97033  26.210  11.087  13.958
24609W        W97034  33.846  23.657   1.948
24610W        W97035  32.721  42.903   0.908
24611W        W97036  40.163  25.852  13.005
24612W        W97037   3.190  21.480   2.739
24613W        W97038   9.294  28.009   4.003
24614W        W97039   3.763   4.190   1.377
24615W        W97040  41.814  40.132  10.824
24616W        W97041  34.236  43.046   2.703
24617W        W97042   4.594  25.421   4.464
24618W        W97043  44.973  43.517   2.641
24619W        W97044  17.069  11.263   0.032
24620W        W97045  22.157   5.797  11.627
24621W        W97046  13.210  19.015   4.546
24622W        W97047  32.382  14.372  14.672
24623W        W97048  40.991  21.572   2.489
24624W        W97049   5.816  26.656   0.742
24625W        W97050  43.277  22.649   1.250
24626W        W97051  39.567  14.972  12.065
24627W        W97052  33.548  42.291   4.772
24628W        W97053   4.279  14.471   2.281
24629W        W97054   1.164  34.788   3.803
24630W        W97055  42.423  19.252   1.683
24631W        W97056  20.029   9.588   4.743
24632W        W97057  37.954  32.599  10.921
24633W        W97058  40.548  43.329   3.760
24634W        W97059  36.743  13.637   2.154
24635W        W97060   3.713   6.366   3.402
24636W        W97061  20.913   0.850  11.934
24637W        W97062  35.561  22.514   1.825
24638W        W97063  22.131   8.654   5.137
24639W        W97064  28.232  20.841   0.962
24640W        W97065  36.648   9.739  12.948
24641W        W97066  27.951   0.000   1.353
24642W        W97067  17.836   7.360   4.734
24643W        W97068  21.091  22.644   0.242
24644W        W97069   1.159  43.032  10.310
24645W        W97070  26.413  43.005  10.550
24646W        W97071  24.944  38.968   1.331
24647W        W97072  16.649  43.476   2.712
24648W        W97073  24.445  32.191   2.658
24649W        W97074  25.004   3.867   3.425
24650W        W97075  21.780  37.171  12.023
24651W        W97076  34.836  20.810   2.319
24652W        W97077   8.695  43.901   0.252
24653W        W97078  24.848  27.769  14.028
24654W        W97079   6.216  29.232   4.108
24655W        W97080   6.871  23.268   0.218
24656W        W97081  30.897  35.595  13.460
24657W        W97082  41.436   2.132  12.185
24658W        W97083  21.709  24.541   2.262
24659W        W97084  15.235  28.358  12.863
24660W        W97085  23.779  35.143   1.768
24661W        W97086  31.743   0.750  11.784
24662W        W97087  27.261  36.919   4.385
24663W        W97088  16.745  20.908   4.716
24664W        W97089  34.183  32.316  13.702
24665W        W97090   0.411  10.289   4.461
24666W        W97091  15.550  30.561   1.364
24667W        W97092  30.025  35.001   4.674
24668W        W97093  37.911   3.282  14.377
24669W        W97094  19.166  27.640   4.638
24670W        W97095  17.254   6.948  11.209
24671W        W97096  37.378  11.353   0.388
24672W        W97097  41.777  34.526   0.554
24673W        W97098  32.282  41.730   5.038
24674W        W97099  24.202  26.452   3.311
24675W        W97100  28.660   8.222   0.491
24676W        W97101  19.638  11.348  14.400
24677W        W97102   3.587  37.547   1.253
24678W        W97103  42.658  29.230  11.622
24679W        W97104  42.916  21.096   4.447
24680W        W97105   9.277   1.587   4.684
24681W        W97106  10.822  12.203  13.958
24682W        W97107  21.543   6.522  10.252
24683W        W97108  38.031  24.996   3.312
24684W        W97109  13.186  24.488  10.652
24685W        W97110  33.958   4.503   0.202
24686W        W97111  34.011   4.715   4.621
24687W        W97112  35.816   0.153  14.555
24688W        W97113  15.644  18.132   1.278
24689W        W97114  26.743  44.952   4.768
24690W        W97115  28.747  36.933   2.813
24691W        W97116   2.328  13.084  14.534
24692W        W97117  16.251  27.584  11.195
24693W        W97118  11.278   3.356  14.404
24694W        W97119  19.454  25.962   1.762
24695W        W97120  16.302  37.971   4.726
24696W        W97121  25.721   8.428   0.267
24697W        W97122   2.335  10.355   0.475
24698W        W97123   5.506  14.150  13.033
24699W        W97124  17.112  27.460  12.273
24700W        W97125  12.194  19.596   4.349
24701W        W97126  32.492  30.963  11.664
24702W        W97127   4.491  10.397  13.015
24703W        W97128  22.367  40.301   4.164
24704W        W97129  28.190  24.936  11.249
24705W        W97130  10.237  29.717  14.918
24706W        W97131  29.572  37.762   0.478
24707W        W97132  26.505  14.184  14.390
24708W        W97133   9.119  37.821  12.382
24709W        W97134  37.416  20.111  12.901
24710W        W97135  41.692  34.483   3.244
24711W        W97136  27.411  29.515  11.970
24712W        W97137  35.715  18.656  11.617
24713W        W97138   6.222  28.539  11.994
24714W        W97139   0.963  33.133  14.292
24715W        W97140  23.583  25.796  11.589
24716W        W97141  44.790  30.919  13.583
24717W        W97142  40.394  42.678  12.011
24718W        W97143  31.631  19.820  11.099
24719W        W97144  34.563  21.781   3.284
24720W        W97145  14.411  15.673  13.389
24721W        W97146   8.597   0.492  12.052
24722W        W97147  39.791  24.269   1.272
24723W        W97148  16.134  19.713   2.142
24724W        W97149   7.327  10.315   0.505
24725W        W97150  35.264  18.814   4.913
24726W        W97151  36.881  44.203  11.584
24727W        W97152  23.680   0.518   4.114
24728W        W97153  16.094  34.670   2.389
24729W        W97154   9.779  33.953   2.896
24730W        W97155  38.888  12.885   2.384
24731W        W97156  17.585  40.285   4.591
24732W        W97157   8.955  28.042  10.654
24733W        W97158  33.876  15.217   3.334
24734W        W97159  29.878  20.647   4.093
24735W        W97160  27.551  26.197  13.530
24736W        W97161   4.939  24.565  13.068
24737W        W97162  27.654  39.354  11.482
24738W        W97163  26.263  22.013  12.418
24739W        W97164  21.158  14.149   0.873
24740W        W97165  18.146  30.302  13.865
24741W        W97166  22.250  35.386  13.338
24742W        W97167  15.550  27.427  14.943
24743W        W97168  38.219  29.638   4.904
24744W        W97169  43.959  39.350  13.933
24745W        W97170   0.062  11.245   0.991
24746W        W97171  22.378  14.403   2.397
24747W        W97172   5.338  42.744  10.592
24748W        W97173   7.148   2.355   0.261
24749W        W97174  22.247  29.037  10.424
24750W        W97175   3.620  27.387  10.811
24751W        W97176   5.642   0.472   0.028
24752W        W97177   8.803  39.434   3.898
24753W        W97178   0.017  35.527   0.426
24754W        W97179   0.834  28.591   3.283
24755W        W97180  31.122  11.816   0.891
24756W        W97181   3.211  33.377   0.215
24757W        W97182  22.978   2.721  12.497
24758W        W97183  35.540  43.367  14.779
24759W        W97184  40.227  12.329  11.556
24760W        W97185   7.336   4.963   1.308
24761W        W97186  16.285  15.327   0.425
24762W        W97187  17.591  31.477  11.786
24763W        W97188  26.101  38.417  10.380
24764W        W97189  15.877  12.595   4.705
24765W        W97190  42.716  21.639   1.695
24766W        W97191  20.193   8.965   1.625
24767W        W97192   3.826  19.667   2.939
24768W        W97193  42.501  19.090   4.601
24769W        W97194   1.786  30.611  12.600
24770W        W97195  13.221  13.264  10.776
24771W        W97196  42.563  20.750  14.874
24772W        W97197   6.886  24.639  11.470
24773W        W97198  37.812  41.931   4.527
24774W        W97199  39.992  28.583  12.945
24775W        W97200  17.676  15.132  13.355
24776W        W97201  39.033   6.794   1.436
24777W        W97202  13.309   7.807  13.786
24778W        W97203  32.245   4.462   1.291
24779W        W97204   9.870  18.047  13.854
24780W        W97205  37.557  42.880  10.035
24781W        W97206  32.730  42.839   2.834
24782W        W97207  22.249  22.839   1.514
24783W        W97208  21.144   5.938  10.749
24784W        W97209  17.696  43.090   1.283
24785W        W97210  24.176  28.216  11.607
24786W        W97211  13.660  26.532   2.231
24787W        W97212  27.027  36.415  13.794
24788W        W97213  31.850  13.557  12.313
24789W        W97214   4.255   3.600  11.627
24790W        W97215  12.165   0.265  11.055
24791W        W97216  43.759  35.164  14.513
24792W        W97217  32.638   3.305   1.204
24793W        W97218  26.241  34.828   3.267
24794W        W97219   7.839  42.772  11.187
24795W        W97220  28.130   9.275  12.596
24796W        W97221  37.406  16.356   4.741
24797W        W97222  33.497  24.520  12.025
24798W        W97223  14.351   5.873  13.566
24799W        W97224  21.447   0.371   0.299
24800W        W97225  40.834   0.442   2.176
24801W        W97226  16.254  34.563  10.630
24802W        W97227  24.638  43.359   1.320
24803W        W97228  40.203   3.464   3.183
24804W        W97229  30.018   0.480   2.385
24805W        W97230  17.197  29.666  13.326
24806W        W97231  12.984  37.468  13.598
24807W        W97232  44.282  20.035  12.543
24808W        W97233   7.658  12.893  14.449
24809W        W97234   3.987  15.421   2.001
24810W        W97235  31.133   4.034   0.851
24811W        W97236  34.827  42.442  14.061
24812W        W97237  19.741   6.518  12.066
24813W        W97238  42.779  42.746  14.482
24814W        W97239  31.261   1.220  11.531
24815W        W97240  23.011  28.331  14.367
24816W        W97241  25.730  11.786  11.646
24817W        W97242  42.706  27.173   3.877
24818W        W97243  14.489   7.653   0.775
24819W        W97244  21.987  27.598   3.279
24820W        W97245  18.360  11.073   1.566
24821W        W97246   0.696  10.407   0.741
24822W        W97247  30.461  16.239  10.808
24823W        W97248  28.951  33.881  11.538
24824W        W97249   8.893  15.303   2.248
24825W        W97250  42.816  23.023   0.847
24826W        W97251  24.773   4.032   1.817
24827W        W97252  16.061  32.994   2.677
24828W        W97253  43.617  27.210   4.064
24829W        W97254  15.399  20.183  13.984
24830W        W97255  43.796   2.877  12.607
24831W        W97256  20.166  43.549   1.805
24832W        W97257  24.258   1.663   2.132
24833W        W97258  40.252  26.941  12.321
24834W        W97259   1.440   4.844  14.272
24835W        W97260  27.739  43.598   1.076
24836W        W97261   4.578   7.905   0.721
24837W        W97262  28.735   7.325   4.565
24838W        W97263  27.841   8.679  11.010
24839W        W97264   4.239  31.927   3.125
24840W        W97265  22.048  32.679  11.070
24841W        W97266  11.602  27.421   0.308
24842W        W97267  43.473  14.890  10.450
24843W        W97268  10.825  15.549   0.308
24844W        W97269  42.778  30.152   4.276
24845W        W97270  27.176  26.026  12.438
24846W        W97271  25.029  32.659  14.320
24847W        W97272  30.448   0.020   4.034
24848W        W97273  15.594  26.210  10.903
24849W        W97274  33.605   3.701  10.919
24850W        W97275  43.027  29.562  11.685
24851W        W97276  24.311  37.890   3.102
24852W        W97277  20.614  20.989  14.503
24853W        W97278  14.900  15.569  13.269
24854W        W97279   4.272  27.056   3.608
24855W        W97280  16.991  40.938  12.915
24856W        W97281   1.526  38.582  12.109
24857W        W97282   9.296  22.268   0.422
24858W        W97283  27.624  16.091   0.813
24859W        W97284  36.929  20.010  11.524
24860W        W97285  25.434   1.084   5.079
24861W        W97286  16.598  32.478  13.578
24862W        W97287  26.776  32.535  11.777
24863W        W97288   2.957  13.303   2.052
24864W        W97289  14.228   1.284  12.702
24865W        W97290  19.778  18.428  12.012
24866W        W97291   0.695  37.519   2.181
24867W        W97292  23.597  14.314   0.250
24868W        W97293  38.330  16.297   0.248
24869W        W97294   8.142  14.246   1.864
24870W        W97295  10.268   5.797   5.539
24871W        W97296   3.872  35.654   3.103
24872W        W97297  43.793  36.176   2.626
24873W        W97298  43.956  36.924  13.072
24874W        W97299  31.891  31.426  12.990
24875W        W97300  11.617   7.269  12.104
24876W        W97301  32.058  17.879  11.544
24877W        W97302  39.081   8.728   0.446
24878W        W97303  29.207  41.541   1.392
24879W        W97304  27.696  40.053   1.051
24880W        W97305  10.062  37.563  13.537
24881W        W97306  24.068   4.210   1.207
24882W        W97307  38.362  38.110   1.683
24883W        W97308  43.175  32.455  11.094
24884W        W97309  32.056  18.243   2.132
24885W        W97310  13.360  22.288   0.836
24886W        W97311  16.658  37.945   3.863
24887W        W97312   5.447  40.960   4.648
24888W        W97313  40.051  28.618   1.333
24889W        W97314   4.874  14.943  13.110
24890W        W97315  17.539  40.512   0.829
24891W        W97316  11.869  33.013  12.354
24892W        W97317  29.560  15.176  13.426
24893W        W97318  26.505  18.028  12.597
24894W        W97319   9.080  20.061  14.015
24895W        W97320  28.548  31.901  11.548
24896W        W97321  27.004  26.923   3.939
24897W        W97322  36.960  16.081   1.236
24898W        W97323  26.664  19.785  12.429
24899W        W97324   3.884   8.271   1.316
24900W        W97325  18.164  22.620  11.657
24901W        W97326  24.197  27.024  14.872
24902W        W97327  24.444  33.063   3.390
24903W        W97328  32.050  22.758  12.498
24904W        W97329   9.870  14.766  11.992
24905W        W97330  41.842  24.954   2.494
24906W        W97331   4.770   6.658   3.821
24907W        W97332  34.000  27.587  12.122
24908W        W97333  32.030  17.572   3.628
24909W        W97334  19.953   3.652   3.632
24910W        W97335  36.167  35.938  11.601
24911W        W97336  11.314   0.840   4.878
24912W        W97337  29.694  20.205  12.084
24913W        W97338   0.443  14.814   0.528
24914W        W97339  11.400  42.874  14.114
24915W        W97340   3.184  33.565   4.511
24916W        W97341  36.487  16.602  11.574
24917W        W97342  39.783  40.595   0.351
24918W        W97343  15.372   6.679  13.903
24919W        W97344  19.566  37.665   1.874
24920W        W97345  18.323  23.402   2.708
24921W        W97346  44.329   2.003  12.486
24922W        W97347  27.503  19.356  11.482
24923W        W97348   6.319  27.508  14.736
24924W        W97349  29.166  17.591  11.073
24925W        W97350  41.088  10.979   0.814
24926W        W97351   7.112  18.229   2.297
24927W        W97352  18.240   7.377   4.365
24928W        W97353   7.409   2.808  11.930
24929W        W97354  33.933  31.771   2.084
24930W        W97355  30.638  24.569   4.212
24931W        W97356   3.951   5.027   2.423
24932W        W97357  32.876   0.985   4.462
24933W        W97358  44.564  42.795   4.274
24934W        W97359  17.154  11.807   3.209
24935W        W97360  18.022  32.964   0.734
24936W        W97361  34.590  26.689  11.098
24937W        W97362  16.842  28.083   3.602
24938W        W97363  39.588  25.197  12.011
24939W        W97364  20.665  19.005   1.764
24940W        W97365   1.153  29.262  14.430
24941W        W97366  18.135  20.599   2.485
24942W        W97367  31.477  19.477   1.825
24943W        W97368  18.308  35.148  12.063
24944W        W97369  17.697  15.804   0.402
24945W        W97370  29.998   3.498  12.853
24946W        W97371  42.062  36.095  13.873
24947W        W97372  15.263  44.270   3.414
24948W        W97373  27.900  35.947   2.786
24949W        W97374  35.623   3.167   4.180
24950W        W97375  23.654  13.645  14.979
24951W        W97376  42.405   3.863   1.906
24952W        W97377   7.870   6.791  11.480
24953W        W97378   3.708  22.598   3.692
24954W        W97379  10.103  17.119  12.911
24955W        W97380  30.143  15.338  13.971
24956W        W97381   8.308   4.782  13.466
24957W        W97382  39.044  11.631   0.362
24958W        W97383  25.447  42.494   2.704
24959W        W97384  40.779  24.154   2.914
24960W        W97385  22.008  28.546   2.213
24961W        W97386   2.969  35.667  10.916
24962W        W97387  24.612  21.195  14.936
24963W        W97388  22.097  25.197   2.866
24964W        W97389  12.093  33.605  13.334
24965W        W97390  41.420  38.790  14.273
24966W        W97391  31.265  11.173   3.190
24967W        W97392  10.151  13.464   1.477
24968W        W97393   7.444   4.034  11.093
24969W        W97394   4.341   5.812  13.054
24970W        W97395   0.168  33.381  11.580
24971W        W97396  32.179  22.774  14.834
24972W        W97397  21.693   6.448   3.293
24973W        W97398  28.763  11.598   3.904
24974W        W97399   2.834  35.058  12.164
24975W        W97400  23.524   5.768   1.768
24976W        W97401  30.168   8.152  13.898
24977W        W97402  27.161  23.486  11.580
24978W        W97403  11.658  21.748   1.744
24979W        W97404  13.871  29.614   2.984
24980W        W97405  25.188  40.597  13.876
24981W        W97406  10.602  23.765   0.685
24982W        W97407  28.186  19.348   1.975
24983W        W97408  44.539  16.827  14.570
24984W        W97409  21.314  17.408   0.826
24985W        W97410  35.696  15.394  14.470
24986W        W97411   6.747  32.099   2.737
24987W        W97412  30.501  34.832  12.609
24988W        W97413  27.675  27.701  14.510
24989W        W97414  34.165  42.018   4.096
24990W        W97415  34.474  43.500   2.592
24991W        W97416  17.317  40.066  12.913
24992W        W97417   9.752  21.461   0.383
24993W        W97418  33.126  15.561   1.267
24994W        W97419  24.618  40.700   1.798
24995W        W97420   1.284  13.296   0.241
24996W        W97421  21.665  29.166  11.095
24997W        W97422  39.896  14.271  11.871
24998W        W97423  31.336  34.880   2.779
24999W        W97424  23.608   4.411  13.955
25000W        W97425  34.797  33.484  12.607
25001W        W97426  27.985  29.864  11.235
25002W        W97427  31.706  37.103  11.957
25003W        W97428  33.109  22.177  12.149
25004W        W97429  27.629  39.466   3.943
25005W        W97430  44.260  30.142   0.801
25006W        W97431  30.648  24.699   2.267
25007W        W97432  32.333  34.820  14.900
25008W        W97433  13.959   1.770  12.762
25009W        W97434  30.920  10.887   1.852
25010W        W97435  23.132  15.738   3.760
25011W        W97436  21.937  29.648   0.532
25012W        W97437   5.724  13.127  10.502
25013W        W97438  39.131   1.447  11.963
25014W        W97439  31.926  27.733  13.868
25015W        W97440  14.696  42.835  14.301
25016W        W97441  26.933  21.174  10.780
25017W        W97442  25.208  36.949   1.435
25018W        W97443  31.014  25.610   4.963
25019W        W97444   7.563  21.495  13.559
25020W        W97445  17.717  21.242   4.694
25021W        W97446   6.875   5.217  14.361
25022W        W97447  30.179  33.542  10.873
25023W        W97448  39.380   7.471   4.482
25024W        W97449  18.773  26.507  14.338
25025W        W97450   0.982  40.245   4.612
25026W        W97451   7.731  37.616  12.696
25027W        W97452  42.977  35.787   3.681
25028W        W97453  16.497  37.035   1.428
25029W        W97454  43.846  37.349  10.466
25030W        W97455   0.570  30.453   0.778
25031W        W97456   9.201  24.987  10.507
25032W        W97457  43.940  33.504  13.045
25033W        W97458  31.399  37.499  10.177
25034W        W97459  37.788  38.364  12.529
25035W        W97460   4.791   6.255  11.095
25036W        W97461  15.992  40.585   0.808
25037W        W97462  25.889   6.924  10.817
25038W        W97463  36.308   2.890   1.061
25039W        W97464  32.996  32.110   2.324
25040W        W97465   9.666   1.170   3.813
25041W        W97466  40.900   5.608   1.173
25042W        W97467   1.827  31.608   0.213
25043W        W97468  25.509   4.381   2.194
25044W        W97469  11.289  33.063  10.622
25045W        W97470  31.107  27.193  13.582
25046W        W97471   0.791  16.063  11.395
25047W        W97472  32.588  22.221   0.800
25048W        W97473   2.442  36.907  13.942
25049W        W97474  42.074  11.046   1.805
25050W        W97475  33.872  39.853   0.657
25051W        W97476  30.392  17.318   3.206
25052W        W97477  21.008  14.983  14.751
25053W        W97478  43.786  15.134   4.660
25054W        W97479  27.045  26.896   1.679
25055W        W97480  11.874   2.821   4.596
25056W        W97481  42.438  10.504  14.376
25057W        W97482   1.742  32.588  13.877
25058W        W97483  25.450  31.867  12.668
25059W        W97484  14.817  26.351  13.830
25060W        W97485  12.692  21.098  12.055
25061W        W97486  31.569  19.167   4.728
25062W        W97487  14.554  32.220   2.328
25063W        W97488  37.812  15.785  13.309
25064W        W97489  17.626  22.746   3.173
25065W        W97490  31.043  23.472  12.895
25066W        W97491  43.555   2.397   3.857
25067W        W97492   2.434  30.345   0.870
25068W        W97493  18.185  35.602  12.842
25069W        W97494   2.487   7.131  13.836
25070W        W97495  35.179   2.359  14.408
25071W        W97496  44.715  31.007  13.069
25072W        W97497  37.318  31.953   0.319
25073W        W97498  19.834  16.546   0.385
25074W        W97499  32.101  29.898   0.563
25075W        W97500  14.190   9.204  11.058
25076W        W97501   8.735  13.588  12.013
25077W        W97502   6.259  28.784   1.329
25078W        W97503   4.292  40.430   2.906
25079W        W97504  17.801   4.807   3.228
25080W        W97505   8.095  24.227   0.910
25081W        W97506  20.526  19.284   2.241
25082W        W97507  37.395  13.575  13.968
25083W        W97508   0.657  28.561  13.017
25084W        W97509  24.706  21.090   3.684
25085W        W97510  44.795  24.121  11.092
25086W        W97511  20.038  18.693   4.225
25087W        W97512  38.948  44.435  10.408
25088W        W97513  22.623  24.163  14.817
25089W        W97514  11.283   1.198  13.136
25090W        W97515   8.793   1.350  13.752
25091W        W97516  43.980  31.495  12.963
25092W        W97517  10.727  32.155   1.454
25093W        W97518  21.007   0.755   1.547
25094W        W97519   8.083  28.946  13.731
25095W        W97520  26.805  41.026  11.558
25096W        W97521   5.302  24.075  11.382
25097W        W97522   5.217  33.849   0.753
25098W        W97523   7.233   3.076  14.719
25099W        W97524  11.331  23.988  14.546
25100W        W97525  19.351  37.393  13.868
25101W        W97526  17.705  26.501   1.448
25102W        W97527  38.643  38.364  13.865
25103W        W97528  32.336   2.741   3.338
25104W        W97529  35.644  25.825  10.080
25105W        W97530  15.646  20.221   1.216
25106W        W97531   4.202  29.185  12.557
25107W        W97532  35.646  11.247  13.850
25108W        W97533  24.663  28.204   1.636
25109W        W97534  10.152  34.822   2.306
25110W        W97535  28.943  23.130  11.953
25111W        W97536  41.394  22.145   2.545
25112W        W97537  20.608  31.654  14.245
25113W        W97538   8.595  19.640  11.104
25114W        W97539  20.057   1.411   2.900
25115W        W97540  36.755  20.178   3.921
25116W        W97541  23.710  44.862  12.385
25117W        W97542  18.720  23.842  13.494
25118W        W97543   6.462  16.246  12.441
25119W        W97544   2.438  22.376   1.255
25120W        W97545  14.266  42.041   0.875
25121W        W97546  32.981   6.272   4.559
25122W        W97547  37.388  17.573   3.825
25123W        W97548   9.359  12.924   4.646
25124W        W97549  44.746  26.167   0.763
25125W        W97550   2.338   2.643  12.169
25126W        W97551  10.434  25.465   1.925
25127W        W97552  37.789  30.142  13.799
25128W        W97553  14.670  27.446   3.254
25129W        W97554   1.993  41.175  11.058
25130W        W97555  36.398  26.875  12.893
25131W        W97556  13.664  31.393   3.213
25132W        W97557  30.279  15.497   5.106
25133W        W97558  14.712  21.852   3.634
25134W        W97559  27.651  37.964   2.363
25135W        W97560  34.672  19.520  11.649
25136W        W97561   8.585  17.071  14.927
25137W        W97562  25.489   8.173  12.417
25138W        W97563   5.767  29.494   4.168
25139W        W97564  29.079  17.563   2.689
25140W        W97565  42.388   4.828   2.351
25141W        W97566  26.932  11.211   0.415
25142W        W97567   4.237  21.228  12.708
25143W        W97568   1.640  22.114   4.152
25144W        W97569  34.047   1.716   4.695
25145W        W97570  43.987   4.642  12.375
25146W        W97571   5.763  23.211   2.277
25147W        W97572   9.627   2.080   1.184
25148W        W97573  43.820  13.675  13.562
25149W        W97574  29.125  37.575  12.988
25150W        W97575  12.692  23.275   2.284
25151W        W97576   9.253  12.160  13.364
25152W        W97577  28.220  34.077   4.586
25153W        W97578  30.936  15.728  14.478
25154W        W97579  34.700  27.576  13.271
25155W        W97580  41.759  11.237   0.295
25156W        W97581  39.448   0.055  13.012
25157W        W97582   2.541   6.326  10.295
25158W        W97583  32.518  23.199   0.543
25159W        W97584   5.250  33.187  10.690
25160W        W97585  41.885  21.797  14.283
25161W        W97586  10.451   4.840   0.856
25162W        W97587  10.374  22.522  11.036
25163W        W97588  24.977  32.780   4.864
25164W        W97589  37.330   4.572  11.143
25165W        W97590   1.526   8.856   0.288
25166W        W97591  28.999  33.500   4.540
25167W        W97592  31.609  21.410  10.272
25168W        W97593  44.370   6.029  14.766
25169W        W97594   6.794  38.020   2.173
25170W        W97595  17.213  41.291   3.157
25171W        W97596  37.527   3.988   2.301
25172W        W97597   9.755  35.236  12.987
25173W        W97598  44.101  44.771  12.867
25174W        W97599  14.397   4.734  11.575
25175W        W97600  25.523  35.081  13.443
25176W        W97601  20.094  19.488   3.180
25177W        W97602   4.020  37.385  10.160
25178W        W97603  36.141  25.418   4.598
25179W        W97604  31.679  24.582   4.187
25180W        W97605  35.040   5.205   3.698
25181W        W97606  13.025  31.617   2.134
25182W        W97607  25.506   5.456  12.541
25183W        W97608   7.243  33.662   2.234
25184W        W97609  18.826  19.391   0.307
25185W        W97610  16.592   1.197   0.353
25186W        W97611  23.139  28.932  13.343
25187W        W97612  10.873  11.163  12.853
25188W        W97613  16.169  41.065  11.122
25189W        W97614  30.493  21.189   4.515
25190W        W97615  21.244  14.996  13.133
25191W        W97616   3.513   7.115   4.945
25192W        W97617  17.660  29.956   4.331
25193W        W97618   7.293  11.403  14.324
25194W        W97619  38.616   8.267   4.118
25195W        W97620  40.082  32.129  13.718
25196W        W97621   9.909  24.192  14.905
25197W        W97622  29.433   5.020  13.904
25198W        W97623   5.490  28.341   2.920
25199W        W97624  12.132  34.493   0.855
25200W        W97625  10.126  19.583  12.682
25201W        W97626  29.260  39.576   0.417
25202W        W97627  25.844  44.314  11.126
25203W        W97628  30.064   5.786  10.935
25204W        W97629  22.605  25.805  13.473
25205W        W97630  40.483  26.479   3.304
25206W        W97631  39.074   6.795   4.670
25207W        W97632  13.744  24.181  14.291
25208W        W97633  13.199  13.723  12.677
25209W        W97634  38.135  34.835   1.137
25210W        W97635  42.998  43.403  10.810
25211W        W97636  44.325  44.907  10.935
25212W        W97637  12.394  10.261   4.621
25213W        W97638  14.563  23.583   4.312
25214W        W97639  21.752  32.472   3.236
25215W        W97640  27.602  21.316  14.873
25216W        W97641   8.678  36.586   0.416
25217W        W97642  42.990  39.945   0.202
25218W        W97643  27.174  24.929   1.054
25219W        W97644  37.982  39.813   3.122
25220W        W97645  32.090  30.411  13.477
25221W        W97646  19.939   2.542   4.541
25222W        W97647  38.298  20.501  13.013
25223W        W97648  44.159  26.074  13.879
25224W        W97649  23.523  31.984   2.932
25225W        W97650  42.056  14.029   1.578
25226W        W97651  27.455  25.949  14.954
25227W        W97652  36.967  30.816   2.780
25228W        W97653   0.237   5.808  14.713
25229W        W97654  30.099  32.720   4.141
25230W        W97655  24.099  16.030  10.474
25231W        W97656   8.101  40.923  14.764
25232W        W97657  40.237  28.420   4.658
25233W        W97658  12.323   3.192   1.363
25234W        W97659  41.515  30.893   3.759
25235W        W97660  43.639  12.848  12.997
25236W        W97661  21.032   8.114  10.019
25237W        W97662  19.444  19.708  10.546
25238W        W97663  16.745  10.161  12.388
25239W        W97664   4.703  16.970   4.219
25240W        W97665  19.526  10.161   3.754
25241W        W97666   2.570   9.864  11.649
25242W        W97667  28.925  36.059  13.378
25243W        W97668  10.341  42.054   4.580
25244W        W97669  44.356  41.995   0.620
25245W        W97670   1.070  44.887  14.771
25246W        W97671  35.607  28.115   2.894
25247W        W97672  25.571  19.294   3.209
25248W        W97673   5.768  33.634   2.913
25249W        W97674  21.428   7.388   3.341
25250W        W97675  19.656  37.407  14.921
25251W        W97676  29.173  27.135  10.722
25252W        W97677   7.888  16.374   1.022
25253W        W97678  13.690  11.754   1.390
25254W        W97679  43.785   0.308  12.101
25255W        W97680  16.691  44.019  14.412
25256W        W97681   5.692   3.274  14.919
25257W        W97682  17.200   9.051  13.007
25258W        W97683  39.784   3.397   1.281
25259W        W97684  43.989  25.025  11.890
25260W        W97685  13.648  43.934   0.429
25261W        W97686  18.246  24.409   2.846
25262W        W97687  28.946  24.683   1.277
25263W        W97688  30.521  18.735   2.656
25264W        W97689  30.485  31.142  13.195
25265W        W97690   7.256  34.011  14.921
25266W        W97691  27.140  37.143  12.133
25267W        W97692  28.816  21.187   0.264
25268W        W97693   8.260  25.587   2.319
25269W        W97694  23.605   8.073   3.031
25270W        W97695   9.943  18.948   1.831
25271W        W97696   9.048  44.447   4.273
25272W        W97697  28.837  22.195   2.044
25273W        W97698  38.546  42.334   2.271
25274W        W97699  13.325  37.525   2.759
25275W        W97700  33.687  31.500  11.192
25276W        W97701   8.545   4.888  11.053
25277W        W97702  28.092  18.570  13.828
25278W        W97703   7.305  13.068  14.776
25279W        W97704  21.725  28.047   1.648
25280W        W97705  32.421   5.897   0.715
25281W        W97706  26.948  16.246  11.203
25282W        W97707   6.753  25.106   3.334
25283W        W97708  12.005   4.210   2.798
25284W        W97709  40.988  36.140   2.364
25285W        W97710  36.088  23.553   4.097
25286W        W97711  24.117  37.903   1.303
25287W        W97712   8.921   0.717   2.897
25288W        W97713  41.629  44.854   2.717
25289W        W97714  27.558  35.788   0.036
25290W        W97715  11.058   9.117  11.841
25291W        W97716  26.092  27.110  13.828
25292W        W97717  36.485  41.790  14.084
25293W        W97718   4.381  32.738  13.012
25294W        W97719   6.226  39.086   4.576
25295W        W97720   2.538  12.832  11.509
25296W        W97721   6.723  37.403   2.911
25297W        W97722  20.811  14.535  14.580
25298W        W97723  25.048  23.248  12.927
25299W        W97724  30.123  19.792  11.568
25300W        W97725  28.365   4.865  13.068
25301W        W97726   6.797  18.671   2.927
25302W        W97727  25.196  34.487  13.799
25303W        W97728  41.091  30.956  12.279
25304W        W97729   8.443  34.544   1.285
25305W        W97730  20.416   8.129  10.438
25306W        W97731  24.151   6.372  13.012
25307W        W97732  13.669  30.083  12.582
25308W        W97733  27.168  33.478   3.095
25309W        W97734  35.057  31.014   3.316
25310W        W97735  32.469   6.499   4.632
25311W        W97736  20.617  29.750  10.287
25312W        W97737   3.991  34.856   1.211
25313W        W97738   8.974   9.313  13.505
25314W        W97739  17.467  17.077   9.808
25315W        W97740  31.993  33.689  10.285
25316W        W97741   2.412  17.966  12.987
25317W        W97742   9.373   3.452  12.374
25318W        W97743  21.174   2.669   3.025
25319W        W97744  30.071   4.395  10.752
25320W        W97745  13.733  15.099  12.789
25321W        W97746  13.109   9.310   3.295
25322W        W97747  24.534  21.809   4.085
25323W        W97748  16.578  19.833   4.097
25324W        W97749  41.127  29.757  11.122
25325W        W97750   3.832  36.570  12.703
25326W        W97751  43.589  25.559   3.283
25327W        W97752  11.381  27.818  11.663
25328W        W97753  24.674  28.200  12.868
25329W        W97754  43.524  41.382   1.796
25330W        W97755  13.873  31.441  14.239
25331W        W97756  26.392  13.543   4.019
25332W        W97757   0.717  21.172  14.377
25333W        W97758  39.511  16.155  13.895
25334W        W97759  43.031  33.444   3.286
25335W        W97760  31.063  12.766  11.461
25336W        W97761  13.394   4.324  13.760
25337W        W97762   8.886  34.885  14.863
25338W        W97763  14.024  18.791  13.078
25339W        W97764  19.318  31.016   3.074
25340W        W97765   6.867  34.461  11.651
25341W        W97766  21.067  41.765   3.062
25342W        W97767  30.226  16.661   3.960
25343W        W97768  40.356  16.273  11.489
25344W        W97769  22.742  26.639  14.007
25345W        W97770  43.779  31.870  11.990
25346W        W97771   8.762  27.649   1.601
25347W        W97772   2.199  26.030  11.012
25348W        W97773  34.489  23.691   0.842
25349W        W97774  29.920  26.647  13.506
25350W        W97775  32.910  41.542   1.123
25351W        W97776  22.641  20.261  13.669
25352W        W97777  22.466  38.517  14.373
25353W        W97778   4.437   3.736  10.749
25354W        W97779  26.088  44.880  10.705
25355W        W97780  25.197  32.954   1.570
25356W        W97781  22.904  15.277   3.685
25357W        W97782  25.585  16.799   2.441
25358W        W97783  26.936  28.702  14.367
25359W        W97784  31.610   4.892  11.449
25360W        W97785   9.387  28.601  14.043
25361W        W97786   9.844  21.344   4.644
25362W        W97787  23.613  39.298  13.051
25363W        W97788  27.202  22.225   0.986
25364W        W97789  11.423  29.139   0.363
25365W        W97790  21.543   1.474  14.295
25366W        W97791  37.539  21.973  10.615
25367W        W97792  12.568  21.257   0.455
25368W        W97793  21.214   7.516   0.437
25369W        W97794  14.103  28.752  12.561
25370W        W97795   0.460   0.634   1.458
25371W        W97796  24.175   1.204   4.371
25372W        W97797  41.386  14.883   0.500
25373W        W97798   1.624  31.535   3.142
25374W        W97799   3.278  11.367   4.074
25375W        W97800  12.306  31.010  13.489
25376W        W97801  12.667  13.145  13.582
25377W        W97802  22.748   9.752  13.306
25378W        W97803  31.122  17.561  13.324
25379W        W97804  18.900  17.695  14.289
25380W        W97805  40.998  35.073  14.987
25381W        W97806  18.528  18.344   0.282
25382W        W97807  25.054   9.548  11.127
25383W        W97808   6.727  38.413  11.683
25384W        W97809   0.285   0.348  11.159
25385W        W97810  42.021  30.057   2.887
25386W        W97811  32.476  16.254  10.796
25387W        W97812  11.082  16.096   3.685
25388W        W97813   0.250  43.152   3.926
25389W        W97814   6.439  33.530  14.933
25390W        W97815  39.311  31.752   0.365
25391W        W97816  27.624  32.542  11.957
25392W        W97817  12.105  40.430  14.727
25393W        W97818  22.142  41.089   1.772
25394W        W97819  12.072   4.695   9.923
25395W        W97820  19.168   0.367   4.584
25396W        W97821  11.646  18.827  11.118
25397W        W97822  34.127  38.322  14.735
25398W        W97823  13.391  32.330   0.681
25399W        W97824  22.644   6.776  14.441
25400W        W97825  18.316   5.579  13.323
25401W        W97826  24.070  11.875  13.854
25402W        W97827  41.072  10.366  11.255
25403W        W97828  32.057  19.730   1.002
25404W        W97829  11.184  26.441  12.921
25405W        W97830  43.539  12.652   0.102
25406W        W97831   2.466  38.628   3.347
25407W        W97832  24.599  43.444  14.815
25408W        W97833  30.218   1.751   3.122
25409W        W97834  10.860  35.852   4.606
25410W        W97835  44.496   5.146  12.163
25411W        W97836  29.502  21.082   0.536
25412W        W97837  24.792   3.372   3.732
25413W        W97838  26.830  17.646  12.694
25414W        W97839   2.754  28.562  13.820
25415W        W97840  31.117  26.548  14.808
25416W        W97841  32.694  41.668  11.175
25417W        W97842  12.129  40.533   1.400
25418W        W97843  39.754  28.913   1.722
25419W        W97844  14.623   6.895  11.545
25420W        W97845  32.156   9.582  13.402
25421W        W97846  10.232   8.184   4.631
25422W        W97847  26.430  44.784  14.828
25423W        W97848  20.737  43.350   4.152
25424W        W97849   5.736   7.315  11.569
25425W        W97850  39.518   9.246  13.110
25426W        W97851  14.983  41.526  12.497
25427W        W97852   3.992  38.852   2.733
25428W        W97853  34.089  22.814  11.579
25429W        W97854  10.777  20.437  10.535
25430W        W97855  24.456  36.827   3.193
25431W        W97856  16.111  17.710  10.615
25432W        W97857  39.407  40.771  14.452
25433W        W97858  37.383   2.767  13.977
25434W        W97859  32.919   4.754  11.019
25435W        W97860  20.126  37.215   4.246
25436W        W97861   4.338  34.987   1.940
25437W        W97862  12.526   7.789   0.843
25438W        W97863  39.898  28.011  14.389
25439W        W97864   7.414   3.294  14.249
25440W        W97865  24.667  39.704   3.369
25441W        W97866  31.373  15.585   2.290
25442W        W97867  27.439  42.579   0.340
25443W        W97868  39.460   6.496   4.431
25444W        W97869  25.195  30.665   4.269
25445W        W97870  13.185   9.826   3.225
25446W        W97871  44.665   4.673  12.937
25447W        W97872  23.771  29.420  14.906
25448W        W97873  10.570  13.127  13.503
25449W        W97874  12.992  37.977   4.654
25450W        W97875  36.087  17.742   3.219
25451W        W97876  14.306  18.371   1.741
25452W        W97877  18.302  31.956   1.444
25453W        W97878  16.650  25.023   3.724
25454W        W97879  18.295  11.631  12.924
25455W        W97880  23.870  12.745   2.838
25456W        W97881  43.712  24.390   0.981
25457W        W97882  29.457  12.264   1.304
25458W        W97883  43.428  13.060  12.083
25459W        W97884  24.618  40.045  12.946
25460W        W97885  30.148  35.413  14.951
25461W        W97886   0.978  20.563  11.672
25462W        W97887   7.932   2.410   4.574
25463W        W97888   3.333  31.725   1.361
25464W        W97889  15.323  34.408  14.038
25465W        W97890  41.040  13.171   0.377
25466W        W97891  20.370  30.249  11.924
25467W        W97892   2.271   3.344   3.231
25468W        W97893  38.606   0.117  11.996
25469W        W97894  38.539  21.012   1.018
25470W        W97895  24.406  23.751   0.297
25471W        W97896  13.357  25.725  11.628
25472W        W97897  31.695  43.916  13.533
25473W        W97898  39.086  40.338  13.512
25474W        W97899  21.693  33.812   1.653
25475W        W97900  23.080   1.743   0.723
25476W        W97901   6.420  10.769  14.344
25477W        W97902  11.180  31.457   4.230
25478W        W97903  28.914  37.089   4.771
25479W        W97904  16.350  44.051  11.577
25480W        W97905  11.701  37.250   4.959
25481W        W97906  17.221  14.309   4.935
25482W        W97907  12.324  14.245  12.706
25483W        W97908  29.378  18.277  14.047
25484W        W97909  44.292  37.509   4.684
25485W        W97910  18.557   2.472  13.912
25486W        W97911  38.371  21.661  11.140
25487W        W97912  16.729  17.855  10.686
25488W        W97913   0.714  35.996  13.542
25489W        W97914  29.645  39.435   4.612
25490W        W97915  30.910  11.702  11.653
25491W        W97916   2.352  29.483  11.732
25492W        W97917   8.643  37.942   4.759
25493W        W97918  29.036  13.992  11.851
25494W        W97919  39.330   5.204   2.191
25495W        W97920  27.815  39.584  11.050
25496W        W97921   6.112   2.648  13.552
25497W        W97922   5.662  37.805  14.308
25498W        W97923   9.970  34.975   4.251
25499W        W97924  36.828  28.008   2.361
25500W        W97925   3.440   2.451  11.957
25501W        W97926  21.732  16.596   1.119
25502W        W97927  29.134   8.726   1.773
25503W        W97928  38.370  40.352  14.031
25504W        W97929  14.720  26.399  14.845
25505W        W97930   1.244  23.914  13.691
25506W        W97931  14.154   4.631   4.048
25507W        W97932  42.430  13.690   1.325
25508W        W97933  20.497  28.522   2.296
25509W        W97934   2.934   6.414  12.877
25510W        W97935  34.362  40.539   1.536
25511W        W97936  29.300  30.447   2.676
25512W        W97937  23.001   4.117   0.563
25513W        W97938  40.861   1.738   4.565
25514W        W97939  12.514  24.722  11.335
25515W        W97940  12.489  41.516  12.002
25516W        W97941  24.502   3.959   0.008
25517W        W97942  38.926   3.327  14.427
25518W        W97943  35.066  10.276  14.785
25519W        W97944  33.731  24.343  14.658
25520W        W97945  14.089  28.100  14.835
25521W        W97946  25.697  34.052  11.201
25522W        W97947  10.764   0.952  14.898
25523W        W97948  40.719  21.518   4.969
25524W        W97949  41.028  42.000   3.612
25525W        W97950  41.494   4.775   1.238
25526W        W97951  33.662   0.961   3.628
25527W        W97952  42.779  12.275   4.908
25528W        W97953  30.459   9.090   2.938
25529W        W97954   1.678  43.549   3.640
25530W        W97955  17.330  13.408   2.114
25531W        W97956  16.045  22.760  14.361
25532W        W97957  34.582  21.758   4.204
25533W        W97958   6.912   3.235  14.227
25534W        W97959   9.424  10.944   2.912
25535W        W97960  18.813   4.561  14.909
25536W        W97961  22.214  34.998   2.658
25537W        W97962  13.168  41.779   1.192
25538W        W97963  37.944  38.493  10.411
25539W        W97964  32.679   4.359   3.999
25540W        W97965  28.471  23.777  11.681
25541W        W97966  32.605   9.124  14.882
25542W        W97967  34.082  25.024   2.137
25543W        W97968  17.342  12.226  13.390
25544W        W97969  23.214   6.873  14.890
25545W        W97970   8.343   1.404   1.527
25546W        W97971  25.110   9.359  12.592
25547W        W97972  25.484  11.369  14.936
25548W        W97973  31.140   7.354  13.210
25549W        W97974  27.945  26.403  11.975
25550W        W97975  17.600   2.731  10.477
25551W        W97976  10.387  25.847   5.090
25552W        W97977  11.133  41.810  11.154
25553W        W97978  39.440  20.819  14.437
25554W        W97979  40.904   1.494  13.067
25555W        W97980  44.423  26.522   1.486
25556W        W97981   6.509  26.679   1.467
25557W        W97982  32.971  14.802  13.181
25558W        W97983   7.547  11.187  14.728
25559W        W97984  13.332   9.180   1.338
25560W        W97985  41.944  26.380  10.694
25561W        W97986   3.737  27.875  12.320
25562W        W97987   2.405  24.096   4.645
25563W        W97988  30.480  37.592  11.108
25564W        W97989   1.164  12.891   2.885
25565W        W97990  17.368  17.945   1.665
25566W        W97991  26.702   8.328   4.670
25567W        W97992   0.885  30.925  12.042
25568W        W97993  18.725  33.561   0.226
25569W        W97994  38.239  14.116   3.355
25570W        W97995  44.423   1.413  14.308
25571W        W97996   6.891  23.851  14.412
25572W        W97997  33.052  20.675  13.776
25573W        W97998  26.208  17.247   1.818
25574W        W97999  10.790  19.801  11.239
25575W        W98000  22.728   5.916   3.343
25576W        W98001  24.529   2.457  10.886
25577W        W98002  39.557  30.560  12.838
25578W        W98003   4.016  34.501  12.044
25579W        W98004   4.160  11.814   1.668
25580W        W98005  35.987  37.509  14.248
25581W        W98006  26.243  31.528  12.116
25582W        W98007  41.598  40.009   2.917
25583W        W98008  10.440  32.646  10.912
25584W        W98009   1.466  34.268   0.407
25585W        W98010  44.822  25.447  13.466
25586W        W98011  36.718  30.749  14.762
25587W        W98012  37.360  26.035  10.895
25588W        W98013  41.412  24.371  14.198
25589W        W98014  15.268  28.554  14.240
25590W        W98015  15.036   1.190  13.788
25591W        W98016  30.881  12.560   0.407
25592W        W98017  42.553  11.592   0.381
25593W        W98018  30.548  12.076   3.620
25594W        W98019  38.603  37.400   0.876
25595W        W98020  20.134  19.331   3.684
25596W        W98021   8.327   2.319   3.826
25597W        W98022   9.409  17.313  10.496
25598W        W98023   7.114   9.189  14.010
25599W        W98024  37.769  23.272  10.577
25600W        W98025   2.981  14.069  10.518
25601W        W98026  12.674  24.078   5.063
25602W        W98027  34.035   6.221   3.615
25603W        W98028  25.594  12.759   0.549
25604W        W98029  44.581   7.686   3.554
25605W        W98030  27.681  44.311  12.581
25606W        W98031  18.801  21.957  12.909
25607W        W98032  12.312  21.654   3.176
25608W        W98033  33.528   8.748   3.245
25609W        W98034  11.286  19.853  10.436
25610W        W98035  11.112  27.253   0.335
25611W        W98036  39.871   8.141   1.611
25612W        W98037  32.189  41.241   4.131
25613W        W98038  14.347  12.705  10.191
25614W        W98039  21.431  18.093  12.530
25615W        W98040  34.090  35.787  11.501
25616W        W98041  41.483  10.197  10.395
25617W        W98042  23.234  38.557  11.959
25618W        W98043   0.746  33.120  14.880
25619W        W98044  41.764  35.044  13.385
25620W        W98045   8.455  26.926   2.444
25621W        W98046  40.705   6.766  11.625
25622W        W98047  22.109  15.158  12.903
25623W        W98048  27.966  32.980  14.347
25624W        W98049  42.538  44.405  11.850
25625W        W98050  40.775  19.073  14.750
25626W        W98051  12.599  14.851   4.229
25627W        W98052  19.278  27.125  11.147
25628W        W98053  13.465   5.181   0.791
25629W        W98054  40.094  39.974   2.712
25630W        W98055  29.159   9.326  14.232
25631W        W98056  10.709  35.097  13.357
25632W        W98057  17.513  39.968   3.267
25633W        W98058  43.300  12.879   0.674
25634W        W98059  27.201   7.240  12.958
25635W        W98060  28.744  31.365  10.217
25636W        W98061  32.644  36.800  12.964
25637W        W98062   9.897   2.380  10.746
25638W        W98063  37.604  35.895   0.858
25639W        W98064  19.212  22.457   0.983
25640W        W98065  15.092  39.556  11.028
25641W        W98066  14.793  13.868  10.650
25642W        W98067  25.055   0.329   4.156
25643W        W98068  39.860   5.339  12.922
25644W        W98069  24.132   0.522  11.860
25645W        W98070  20.017   5.156  12.494
25646W        W98071  13.128  37.157  11.967
25647W        W98072  28.584   5.752   4.378
25648W        W98073   3.684  33.271  12.004
25649W        W98074   4.565  15.099  12.015
25650W        W98075  11.133  10.407  14.926
25651W        W98076  34.879  29.740  13.267
25652W        W98077  12.337   6.288  14.392
25653W        W98078  37.958  11.124  12.918
25654W        W98079  36.469  44.340  10.992
25655W        W98080  39.697  18.508  10.686
25656W        W98081  24.606  32.055  12.103
25657W        W98082  13.734   1.368  10.691
25658W        W98083   1.563  33.560  11.579
25659W        W98084  11.912  34.475   3.156
25660W        W98085  19.080  26.045  14.341
25661W        W98086  41.576  21.116  12.855
25662W        W98087  20.800  42.759   3.394
25663W        W98088  17.223   1.917   2.742
25664W        W98089   3.379  21.647   2.245
25665W        W98090  35.942  40.247  11.012
25666W        W98091  24.048  22.981  12.330
25667W        W98092   1.900  28.087  14.866
25668W        W98093  33.996  41.540   4.222
25669W        W98094  41.931  39.879   1.832
25670W        W98095   6.479  38.827  11.443
25671W        W98096  41.840  22.607   0.013
25672W        W98097   0.931   0.397   1.422
25673W        W98098  29.017  22.128   0.417
25674W        W98099  17.242  31.399  11.391
25675W        W98100  39.859  40.417   3.907
25676W        W98101   0.823   1.423   1.190
25677W        W98102  41.186  28.385  14.992
25678W        W98103  15.491  37.217   2.412
25679W        W98104  42.929  40.942   4.018
25680W        W98105   5.438  23.516  14.300
25681W        W98106  16.237  15.345  13.520
25682W        W98107  36.483  39.589   3.909
25683W        W98108  36.324   4.457   2.054
25684W        W98109  23.490  16.182   1.285
25685W        W98110  13.561  13.964   4.146
25686W        W98111  40.600   0.930   5.009
25687W        W98112  37.744  13.989   3.440
25688W        W98113  34.457  14.436   3.111
25689W        W98114  16.999  39.503  12.127
25690W        W98115   4.201  42.584  11.217
25691W        W98116   8.533  12.789   2.133
25692W        W98117  40.247  36.451  13.988
25693W        W98118  29.038  41.991  11.600
25694W        W98119  11.929  41.954  12.601
25695W        W98120  10.278  26.631   3.829
25696W        W98121   7.353   9.942  11.497
25697W        W98122  30.343  13.566   3.343
25698W        W98123   2.489  44.300   4.565
25699W        W98124  17.831  40.805  12.636
25700W        W98125   0.165   3.957   2.166
25701W        W98126   8.604  27.170   0.355
25702W        W98127  20.256  11.692  13.050
25703W        W98128  24.469  21.050  12.598
25704W        W98129  19.375  35.125   2.904
25705W        W98130  20.008  33.842   3.136
25706W        W98131  13.018  24.773  14.778
25707W        W98132  13.372  41.515   0.808
25708W        W98133  12.166  24.150   3.680
25709W        W98134  18.536  21.437  13.709
25710W        W98135  19.946  31.825  11.478
25711W        W98136  24.941  15.185   3.160
25712W        W98137  44.786  21.107   3.856
25713W        W98138   4.395  11.372   1.492
25714W        W98139  43.704  11.709   4.829
25715W        W98140  38.603   5.299   3.273
25716W        W98141  15.526  21.325  12.434
25717W        W98142  10.923  38.513   3.920
25718W        W98143  34.844  38.966   1.911
25719W        W98144  23.723   0.686  12.148
25720W        W98145  43.770  39.106   3.290
25721W        W98146  44.933   2.416  14.714
25722W        W98147  37.344  33.032  14.490
25723W        W98148   5.391  37.745  13.426
25724W        W98149  34.012   9.360  14.940
25725W        W98150  15.785   2.309   0.890
25726W        W98151  13.162  13.931  11.212
25727W        W98152  34.114  12.319   4.084
25728W        W98153  39.311  37.517   4.538
25729W        W98154  29.446  20.660  11.992
25730W        W98155  35.755  13.320  10.523
25731W        W98156   7.158  43.933   1.927
25732W        W98157  40.956  44.547  12.154
25733W        W98158  41.468  39.041   4.569
25734W        W98159   2.786   4.447   0.277
25735W        W98160  19.153   2.289   4.994
25736W        W98161   0.432  19.621  10.652
25737W        W98162  15.716   2.895  10.684
25738W        W98163  29.504  39.505  13.605
25739W        W98164  34.878  43.268   1.539
25740W        W98165   8.249  21.112   5.126
25741W        W98166  17.556  11.930   4.906
25742W        W98167   5.727  22.650   0.164
25743W        W98168  12.283  35.113  14.132
25744W        W98169  15.060   4.010  13.858
25745W        W98170  41.946  20.023  10.990
25746W        W98171  25.671  35.396   0.736
25747W        W98172  23.629  35.607  11.133
25748W        W98173  25.711  42.342   4.604
25749W        W98174  44.039   3.289   3.937
25750W        W98175  23.001  39.543   3.936
25751W        W98176  32.600  11.608   3.051
25752W        W98177  40.085  41.868   0.696
25753W        W98178  22.667   7.326   1.228
25754W        W98179  25.979   9.696   3.133
25755W        W98180   6.968  22.226  13.949
25756W        W98181  25.176  32.682  13.484
25757W        W98182  17.972  35.413   3.376
25758W        W98183   5.054  31.982   0.323
25759W        W98184  26.721  40.505  13.365
25760W        W98185  11.280  34.775   3.307
25761W        W98186  27.926  27.704  10.546
25762W        W98187  40.611   6.325   4.052
25763W        W98188  40.809  22.969   2.193
25764W        W98189  38.321  14.244  11.694
25765W        W98190  38.976  22.561   3.665
25766W        W98191  38.938  41.636   4.790
25767W        W98192  36.377  21.596  14.866
25768W        W98193  13.294   3.876   2.993
25769W        W98194  34.610   5.596   0.381
25770W        W98195  27.308  41.075  12.257
25771W        W98196  28.118  19.816  12.875
25772W        W98197  18.956  24.403  14.060
25773W        W98198  30.145  18.013   0.847
25774W        W98199  10.878  31.431   1.872
25775W        W98200  42.467  29.229  10.431
25776W        W98201  32.536  14.251   2.193
25777W        W98202  32.389  36.938   0.533
25778W        W98203  34.614   3.427  13.779
25779W        W98204  41.243  25.845  14.278
25780W        W98205  30.603  10.660  12.503
25781W        W98206  18.953  41.719   2.777
25782W        W98207  26.282  31.932   4.111
25783W        W98208   2.041  36.288   3.409
25784W        W98209  20.293   6.731   1.139
25785W        W98210  25.369   8.519   9.901
25786W        W98211  34.048  35.452   2.706
25787W        W98212   8.089  41.141   9.989
25788W        W98213  21.121  44.289  10.541
25789W        W98214  12.614  15.546   1.163
25790W        W98215   0.051   2.368  12.450
25791W        W98216  43.908  11.918  10.959
25792W        W98217  26.102  28.543   0.503
25793W        W98218  18.134  32.824  12.060
25794W        W98219   8.728  13.356  10.804
25795W        W98220   4.088   4.942   3.732
25796W        W98221  28.433  19.830   3.323
25797W        W98222  31.977  38.906  14.102
25798W        W98223   6.615  42.963   0.343
25799W        W98224  18.241   7.196   1.396
25800W        W98225  21.661  36.110  14.408
25801W        W98226   9.949  42.902   4.540
25802W        W98227  25.242   4.808   0.906
25803W        W98228  28.422  34.400   1.422
25804W        W98229   1.352  26.328   0.779
25805W        W98230  43.196  37.262  14.552
25806W        W98231  19.539   8.457  11.988
25807W        W98232  21.691  18.278   0.288
25808W        W98233  19.750  40.511  13.102
25809W        W98234  19.284  41.370  11.167
25810W        W98235  15.486   2.434   2.837
25811W        W98236  37.798  15.667   4.890
25812W        W98237  33.827   9.725   1.651
25813W        W98238  14.239  18.522  12.171
25814W        W98239  40.780  18.334   0.395
25815W        W98240  32.167  25.324  14.845
25816W        W98241  17.252  13.987   4.541
25817W        W98242  22.195  44.444   1.680
25818W        W98243  43.347  39.443   4.689
25819W        W98244  19.680  30.570  14.063
25820W        W98245  41.072  22.532   2.708
25821W        W98246  10.186  28.270   5.049
25822W        W98247  16.196  13.863   0.353
25823W        W98248  36.993  34.226  12.238
25824W        W98249  32.775  42.486  11.580
25825W        W98250  18.054  43.251  10.683
25826W        W98251  34.219  28.458  13.525
25827W        W98252  38.475  17.611   4.877
25828W        W98253  32.656  27.457  14.377
25829W        W98254   5.358   1.391  14.094
25830W        W98255  15.082  34.954  11.899
25831W        W98256  10.203  12.998   4.684
25832W        W98257  16.039  39.731   3.889
25833W        W98258   5.414  11.806  13.538
25834W        W98259  33.808   5.923  12.124
25835W        W98260  24.624  24.712   2.775
25836W        W98261  22.132  18.662   3.323
25837W        W98262  43.210  40.461   4.104
25838W        W98263  40.843   6.358  11.034
25839W        W98264  27.840  30.450  14.900
25840W        W98265  40.783  41.171  13.323
25841W        W98266   9.171  15.092   1.852
25842W        W98267  12.284  35.087   3.327
25843W        W98268  33.246  39.413   2.870
25844W        W98269  12.111  14.257  13.565
25845W        W98270  15.790  38.030  11.919
25846W        W98271  10.704  33.633   0.829
25847W        W98272  42.139   8.697   5.198
25848W        W98273  21.178  13.148  12.953
25849W        W98274   0.273   0.976  11.471
25850W        W98275  34.899  37.369   1.333
25851W        W98276  21.259   6.426  10.671
25852W        W98277  32.441  14.769   1.436
25853W        W98278  19.104  11.299   2.260
25854W        W98279  15.685  39.977  11.507
25855W        W98280  40.552  10.324  11.155
25856W        W98281  32.497  42.133   0.373
25857W        W98282  18.292   1.789   5.723
25858W        W98283   7.529  14.101  11.599
25859W        W98284   1.008  26.600   4.949
25860W        W98285   9.293  19.506   3.362
25861W        W98286  13.307   2.396   0.285
25862W        W98287   2.502  29.027  13.924
25863W        W98288  26.402  34.374  11.088
25864W        W98289   1.835   1.453  12.487
25865W        W98290  37.430  27.543   2.432
25866W        W98291  28.866  35.423  12.088
25867W        W98292  21.996   6.919  12.422
25868W        W98293  36.336  39.927   1.807
25869W        W98294   0.424   8.467   1.955
25870W        W98295  33.965  42.846   4.528
25871W        W98296  17.552   5.009  14.410
25872W        W98297  12.409   9.454   2.640
25873W        W98298   4.256   7.203   5.086
25874W        W98299   3.772  21.046   3.376
25875W        W98300  36.556   3.660   2.308
25876W        W98301  40.498  30.544   9.962
25877W        W98302  36.668  27.250  14.929
25878W        W98303  21.124   0.702   3.202
25879W        W98304  18.629  10.709  13.935
25880W        W98305  17.157  13.864  14.309
25881W        W98306  41.710  14.902  12.952
25882W        W98307   5.870  22.206  11.581
25883W        W98308  24.225  21.061   4.165
25884W        W98309  29.678   4.998   4.405
25885W        W98310  17.184  12.931   3.575
25886W        W98311  12.302   4.705   3.907
25887W        W98312   2.333   5.250  12.675
25888W        W98313  13.079   9.141   0.890
25889W        W98314  14.026   9.829   4.479
25890W        W98315  13.119  20.289   3.039
25891W        W98316  11.332   6.287   4.377
25892W        W98317  39.048   7.384   0.262
25893W        W98318  32.092  37.504  12.109
25894W        W98319  20.073  17.005   4.539
25895W        W98320  36.186  34.132  10.927
25896W        W98321  41.906  38.038   0.736
25897W        W98322  18.292  22.722   3.721
25898W        W98323  36.117  37.442   0.893
25899W        W98324  40.962  21.837  14.257
25900W        W98325  21.974  42.785   2.201
25901W        W98326   2.804  20.810  10.844
25902W        W98327  39.090  28.676   1.124
25903W        W98328  21.012   6.806   2.410
25904W        W98329   9.559   4.044  12.910
25905W        W98330  24.866  10.339   9.792
25906W        W98331  42.233  15.020  10.777
25907W        W98332   8.514  14.787  13.538
25908W        W98333  24.955  44.917   3.127
25909W        W98334   8.166  21.754   4.484
25910W        W98335  33.862  26.422   2.707
25911W        W98336  29.102  14.200  13.329
25912W        W98337  28.573  40.475  14.652
25913W        W98338  33.088   7.158  10.955
25914W        W98339   1.741  35.850   2.218
25915W        W98340   1.711  39.782  12.965
25916W        W98341  14.674  14.598   1.421
25917W        W98342  20.512  22.695  14.057
25918W        W98343  22.710  42.360   2.211
25919W        W98344  16.331  26.957  11.541
25920W        W98345  15.146  19.119   4.906
25921W        W98346  29.394  22.659   1.306
25922W        W98347  10.783  44.280   1.800
25923W        W98348   3.870   0.754  11.402
25924W        W98349  44.161  31.688   1.238
25925W        W98350  27.138  29.669   1.295
25926W        W98351   3.360   1.533   0.758
25927W        W98352   1.890  22.164   0.276
25928W        W98353  23.492  28.532  10.640
25929W        W98354  12.830   3.378   1.358
25930W        W98355  20.719  14.631  13.759
25931W        W98356  36.998  37.185   3.447
25932W        W98357  15.137  36.004   2.272
25933W        W98358  13.994  13.254   2.822
25934W        W98359  11.045  38.590  14.377
25935W        W98360   9.706  13.475  13.528
25936W        W98361  29.970  28.117   4.855
25937W        W98362  13.931  27.919   4.613
25938W        W98363  35.499  19.074   1.061
25939W        W98364  31.858  20.992  12.031
25940W        W98365  13.265  43.506   3.067
25941W        W98366  14.778  26.368   2.719
25942W        W98367  22.633   8.462  12.512
25943W        W98368  30.060   7.841  14.913
25944W        W98369  15.977  23.096   2.845
25945W        W98370  38.872  29.611  12.095
25946W        W98371  13.279  14.214  12.525
25947W        W98372  34.301   7.818  13.402
25948W        W98373  41.497  33.241   2.719
25949W        W98374  34.801  12.661  13.096
25950W        W98375   9.836   5.433  12.828
25951W        W98376  41.477  20.320   1.829
25952W        W98377  29.281  33.316   4.968
25953W        W98378  37.850  18.005   0.005
25954W        W98379  39.294   8.547  14.987
25955W        W98380  19.795  30.186   2.773
25956W        W98381   8.374  37.313  14.790
25957W        W98382  28.860  23.048  13.104
25958W        W98383  35.513  13.016   1.832
25959W        W98384  37.314   4.127  12.042
25960W        W98385  17.179   3.234   4.489
25961W        W98386   1.494  19.174   2.453
25962W        W98387  30.691  35.096   1.167
25963W        W98388  22.685   4.241  10.660
25964W        W98389  12.743  27.608  12.947
25965W        W98390  16.667   8.704   2.706
25966W        W98391  19.859   8.836  12.870
25967W        W98392  41.274  33.375   2.222
25968W        W98393  32.651   0.804  13.993
25969W        W98394  14.318  13.059  13.027
25970W        W98395  39.463   3.835  11.096
25971W        W98396  44.185   3.981  12.561
25972W        W98397  24.058  26.513   0.853
25973W        W98398  16.881  18.005   2.509
25974W        W98399   9.644  34.538  14.494
25975W        W98400  25.574   9.304  10.662
25976W        W98401  32.306  32.571  12.801
25977W        W98402  39.464  24.386   4.031
25978W        W98403  13.408  15.662   4.641
25979W        W98404  22.244  18.129   2.705
25980W        W98405  19.440  27.841   5.026
25981W        W98406  26.114  44.092   2.488
25982W        W98407  40.963  11.860  10.447
25983W        W98408   2.808  35.846  14.414
25984W        W98409   5.667   1.499   4.517
25985W        W98410  11.231  13.546  14.578
25986W        W98411  37.498  18.319  11.546
25987W        W98412  21.975  27.509  10.668
25988W        W98413  40.927  29.565  13.404
25989W        W98414   4.559  20.935  11.111
25990W        W98415  41.509   2.738  11.592
25991W        W98416  14.437  34.467   2.625
25992W        W98417  35.587  14.259   0.981
25993W        W98418  42.541  43.425   1.857
25994W        W98419   5.755  12.319   1.768
25995W        W98420   4.064  36.351   3.850
25996W        W98421  15.595  30.969  10.010
25997W        W98422  22.500   9.008   4.817
25998W        W98423  25.015  44.997   2.193
25999W        W98424  38.890  43.046  10.258
26000W        W98425  39.465  44.442  11.233
26001W        W98426  38.439   9.868   3.832
26002W        W98427  20.015  11.148  11.699
26003W        W98428  34.003  30.702  14.078
26004W        W98429   0.060  17.123  13.408
26005W        W98430  44.800  26.081   4.439
26006W        W98431   2.146   8.185  13.508
26007W        W98432  22.457  23.416   2.306
26008W        W98433   8.745   0.630  14.441
26009W        W98434  11.612  24.773   3.309
26010W        W98435  28.133  17.270  12.038
26011W        W98436  25.412  21.870  11.043
26012W        W98437  12.820  23.549  12.668
26013W        W98438  12.920   9.226  14.617
26014W        W98439  17.761  21.816  12.115
26015W        W98440  17.744   5.822  13.842
26016W        W98441  15.183  15.747   0.057
26017W        W98442  40.581   6.175  14.867
26018W        W98443  43.508  28.992  14.323
26019W        W98444  10.288  34.900   3.861
26020W        W98445  13.214  43.547   0.898
26021W        W98446  23.333  26.594   1.613
26022W        W98447  24.439  43.578  13.094
26023W        W98448  11.286   9.603  10.520
26024W        W98449   0.506  37.664  13.278
26025W        W98450   9.756  41.977   0.252
26026W        W98451   2.026  15.229   0.805
26027W        W98452   8.854  44.869   3.266
26028W        W98453   4.966   1.086   1.531
26029W        W98454  16.912  40.773  13.413
26030W        W98455  30.939   2.475  13.278
26031W        W98456  37.814   1.478  11.171
26032W        W98457   1.687  29.947   3.694
26033W        W98458  12.181  20.535   4.094
26034W        W98459  29.593  28.043   0.724
26035W        W98460  37.512  26.917   1.227
26036W        W98461  24.458   7.373  14.792
26037W        W98462   1.180  16.505   4.207
26038W        W98463  39.513  11.082   4.084
26039W        W98464  20.319  14.211   4.648
26040W        W98465  24.163   8.684   0.893
26041W        W98466  36.906   9.167  14.846
26042W        W98467  25.418   3.473  12.423
26043W        W98468  30.281   9.745   4.639
26044W        W98469  31.788  33.569   3.105
26045W        W98470  17.672   4.387  14.498
26046W        W98471  35.890  18.942  14.226
26047W        W98472  30.681  20.680   4.660
26048W        W98473  28.621  19.578   1.413
26049W        W98474  36.847  20.730   1.422
26050W        W98475  44.445  22.330  13.072
26051W        W98476  40.697  35.147   3.324
26052W        W98477  41.792   0.579  12.058
26053W        W98478   7.655  27.651   3.249
26054W        W98479  25.956  22.695  12.135
26055W        W98480  18.200  41.384   1.947
26056W        W98481  42.463   8.210   2.379
26057W        W98482   7.180  11.299  11.111
26058W        W98483  34.918   1.692  10.529
26059W        W98484   7.884  44.717   3.533
26060W        W98485  16.330  20.096  11.960
26061W        W98486  16.768  29.901   4.204
26062W        W98487  16.460  30.257   9.699
26063W        W98488   1.381  11.528  14.929
26064W        W98489   5.938  29.961   3.269
26065W        W98490  42.571  40.006  10.465
26066W        W98491  14.580  43.578  13.512
26067W        W98492  20.982   5.206   3.359
26068W        W98493  19.176  26.874  14.987
26069W        W98494  31.716  38.790   3.229
26070W        W98495  42.051  11.159   0.926
26071W        W98496   3.540  28.074   3.688
26072W        W98497   0.773  38.261  10.655
26073W        W98498  31.919  42.181   1.412
26074W        W98499   2.003   1.323   2.702
26075W        W98500  12.657  33.103  13.021
26076W        W98501  28.588  20.003   0.053
26077W        W98502   9.711  10.124   0.837
26078W        W98503  14.383  19.469   1.035
26079W        W98504  28.040  39.644   4.190
26080W        W98505  26.444   8.369  14.013
26081W        W98506  10.853  33.691  13.570
26082W        W98507  10.858  36.962  13.230
26083W        W98508  29.882   0.941   2.644
26084W        W98509  27.726  22.637   3.222
26085W        W98510  36.000  23.166  11.849
26086W        W98511  18.946  44.090  10.959
26087W        W98512  10.560  41.786  13.845
26088W        W98513  11.871  26.187  10.557
26089W        W98514  37.495  17.615   2.848
26090W        W98515  16.585  23.231   1.709
26091W        W98516  36.503  30.418  11.346
26092W        W98517  25.115  19.735   2.176
26093W        W98518  27.358  30.980   4.066
26094W        W98519   3.642  27.621   2.382
26095W        W98520  34.735  24.304  11.602
26096W        W98521   1.073  36.030   3.498
26097W        W98522  40.971   9.193   0.460
26098W        W98523  44.365  18.866   2.656
26099W        W98524  11.843  42.998  14.983
26100W        W98525   0.305  36.002   0.541
26101W        W98526  31.020  43.572   3.069
26102W        W98527  13.338   4.743  11.871
26103W        W98528  23.103  32.112   2.675
26104W        W98529  37.487   7.248   1.505
26105W        W98530  27.629   5.281  10.351
26106W        W98531  24.724  10.345   0.607
26107W        W98532  40.392   1.283   3.869
26108W        W98533  31.141  37.928   4.690
26109W        W98534   9.826   3.322   4.129
26110W        W98535  21.460  35.769  14.959
26111W        W98536   7.347  34.522   0.820
26112W        W98537  12.590  27.891   4.214
26113W        W98538  31.266  18.563   9.838
26114W        W98539   7.358   4.472  14.063
26115W        W98540  11.185   2.896   4.541
26116W        W98541  20.043  28.097  14.540
26117W        W98542  13.222  22.039   5.106
26118W        W98543  31.830  43.948  11.954
26119W        W98544  30.455   8.413  10.530
26120W        W98545  10.034  24.722   0.496
26121W        W98546  25.986  28.500  14.992
26122W        W98547  32.168   0.426  10.719
26123W        W98548  25.199  25.689  13.312
26124W        W98549  35.187  15.634   2.168
26125W        W98550   6.290   5.725   0.064
26126W        W98551  29.815  15.793  13.254
26127W        W98552   9.707  15.660   3.176
26128W        W98553   1.437  24.069  14.143
26129W        W98554  31.667  17.607   3.222
26130W        W98555  14.803  44.974   1.972
26131W        W98556   5.186  27.123  12.516
26132W        W98557  44.126   1.543   5.088
26133W        W98558  13.046   7.802   1.948
26134W        W98559   1.681   7.826  13.955
26135W        W98560  18.075   2.764  14.909
26136W        W98561   8.799   8.116   2.847
26137W        W98562   2.302  26.252   4.203
26138W        W98563  20.672  26.346   4.229
26139W        W98564  32.842  43.447  11.180
26140W        W98565  22.124  19.835   4.165
26141W        W98566  27.641  25.268  10.766
26142W        W98567  28.071  16.076   4.335
26143W        W98568  29.086  12.071   1.958
26144W        W98569  25.729  36.475   3.168
26145W        W98570  12.110  30.761   3.056
26146W        W98571  32.246   9.884   0.725
26147W        W98572  44.870  28.900  12.395
26148W        W98573  39.408  44.822  14.385
26149W        W98574   0.408   2.383   4.756
26150W        W98575  28.554  17.208  12.731
26151W        W98576  26.223  13.081  12.402
26152W        W98577   6.513  14.391  12.970
26153W        W98578  26.410  25.316  13.889
26154W        W98579  33.086   0.289  13.097
26155W        W98580  13.109  18.768   3.295
26156W        W98581  21.121  32.123  10.148
26157W        W98582  40.296  34.861  13.431
26158W        W98583  38.854  38.950   1.845
26159W        W98584   5.762  27.980   3.841
26160W        W98585  29.463  19.714   0.329
26161W        W98586  16.356   5.359  14.932
26162W        W98587  20.204   8.972  12.293
26163W        W98588   1.612   3.902  11.686
26164W        W98589  17.748  28.631   3.562
26165W        W98590  43.813   5.813   1.933
26166W        W98591  32.354   9.907   4.952
26167W        W98592  35.241  34.846  13.591
26168W        W98593  36.784  44.730   2.360
26169W        W98594   4.408  20.056   2.260
26170W        W98595  31.493  18.783   4.354
26171W        W98596  31.054  29.538   1.848
26172W        W98597   3.436  29.096   4.541
26173W        W98598  21.682  10.684   4.550
26174W        W98599   7.597  42.340  14.989
26175W        W98600  10.798   1.304   1.243
26176W        W98601   2.256  23.589   4.678
26177W        W98602   3.076  35.017  14.751
26178W        W98603  21.547  19.137   1.248
26179W        W98604  36.364   8.394  12.506
26180W        W98605  17.493  21.001   2.777
26181W        W98606  36.425  15.169  13.168
26182W        W98607   8.045  16.100  14.102
26183W        W98608   6.733  26.131   4.419
26184W        W98609  32.008  12.642  13.319
26185W        W98610  24.478  21.242   4.583
26186W        W98611  31.209  39.559  13.983
26187W        W98612  27.147   4.485   1.837
26188W        W98613  26.444   6.982  13.914
26189W        W98614  21.032  12.280   1.756
26190W        W98615  12.469  23.036   2.679
26191W        W98616  16.332  29.437  13.528
26192W        W98617  24.437  14.788   1.693
26193W        W98618  34.192  30.936  12.544
26194W        W98619  18.990  19.607  10.839
26195W        W98620  25.237  22.537   3.184
26196W        W98621  34.861   6.376   1.886
26197W        W98622   6.911  43.063  14.922
26198W        W98623  27.137  17.167   1.235
26199W        W98624  44.288  42.514   0.307
26200W        W98625  24.740   9.646   2.774
26201W        W98626  25.728  31.518   0.464
26202W        W98627   3.218  16.732  11.941
26203W        W98628   0.007   7.287   0.860
26204W        W98629  27.582  14.636  14.425
26205W        W98630  17.620  18.175   4.778
26206W        W98631  25.735  14.394  11.720
26207W        W98632   4.560  37.575  13.093
26208W        W98633  15.589  23.052  14.650
26209W        W98634  24.878  39.127   0.839
26210W        W98635  18.806  17.272  12.614
26211W        W98636  37.777   1.726  13.068
26212W        W98637  14.290  36.297   3.263
26213W        W98638  13.876  33.001  11.070
26214W        W98639   3.207  39.846  14.330
26215W        W98640  10.910  42.981  14.015
26216W        W98641   6.299  22.610   1.881
26217W        W98642   0.947  40.259   3.300
26218W        W98643  39.790  21.722  13.003
26219W        W98644  11.417  40.063  11.727
26220W        W98645  43.670   0.071   4.189
26221W        W98646  37.300  40.059   1.717
26222W        W98647   7.434  16.558   2.729
26223W        W98648  22.071  23.040  12.397
26224W        W98649  37.115  19.173   1.802
26225W        W98650  44.055  35.884  14.929
26226W        W98651  36.585  13.124  11.930
26227W        W98652  38.071  43.746  12.991
26228W        W98653  11.587  27.993   4.037
26229W        W98654  34.806  26.966  11.961
26230W        W98655  15.686  30.998  14.805
26231W        W98656  12.923   7.202  10.521
26232W        W98657  18.556  10.189   3.901
26233W        W98658  25.722  26.685   4.106
26234W        W98659  22.723  34.527   1.834
26235W        W98660   3.316  41.419   0.232
26236W        W98661  40.437  13.117   1.387
26237W        W98662   8.715  14.765   0.562
26238W        W98663  34.295  25.388   3.404
26239W        W98664  41.511  21.401  14.793
26240W        W98665  43.743  42.468  12.595
26241W        W98666   3.355  26.967   1.840
26242W        W98667  21.133  28.024   2.049
26243W        W98668  24.894  15.236  13.334
26244W        W98669  38.246  12.134   4.286
26245W        W98670   9.639  41.985   1.375
26246W        W98671   0.289  14.732   2.844
26247W        W98672  43.775  30.819  10.774
26248W        W98673  12.446  44.267   4.413
26249W        W98674  40.079  42.393  13.572
26250W        W98675   1.957  14.871   3.197
26251W        W98676   9.937  24.448   0.966
26252W        W98677  36.850  30.380   0.869
26253W        W98678  41.061  26.191  13.150
26254W        W98679  15.477  14.529  13.354
26255W        W98680  24.313  15.827   1.231
26256W        W98681  43.283  44.002   4.326
26257W        W98682  18.736  24.467   2.175
26258W        W98683  28.035   7.714   1.467
26259W        W98684  22.636  39.758  14.861
26260W        W98685  22.784   5.883   0.681
26261W        W98686  42.428  21.309   2.034
26262W        W98687  33.028  17.783   1.890
26263W        W98688  15.674  21.096   4.293
26264W        W98689  29.052   3.198  11.504
26265W        W98690  12.706   7.883   3.715
26266W        W98691  33.995  44.529  14.084
26267W        W98692  43.277  37.512   3.708
26268W        W98693  17.347   1.372   3.555
26269W        W98694   3.597  38.850  13.010
26270W        W98695   8.120  35.931  12.515
26271W        W98696  43.958  22.104  12.569
26272W        W98697  11.604  43.537   2.314
26273W        W98698   0.452  29.519  12.837
26274W        W98699  40.551  22.676   0.398
26275W        W98700  24.695   1.152   3.118
26276W        W98701   7.629  14.187   4.471
26277W        W98702  39.423  11.955   0.881
26278W        W98703  10.972  44.834  13.288
26279W        W98704  44.822  29.691   0.808
26280W        W98705   6.479   8.292  14.943
26281W        W98706  38.285   5.799  10.626
26282W        W98707   5.697  36.897  13.548
26283W        W98708  30.022  21.329  13.013
26284W        W98709   0.858   6.277  12.358
26285W        W98710  42.469  42.803   3.359
26286W        W98711   2.691  30.277  13.360
26287W        W98712  30.897  11.588   4.076
26288W        W98713  39.025  10.778  10.036
26289W        W98714  21.480  40.632  14.908
26290W        W98715  15.055   2.649  10.833
26291W        W98716  37.725  32.111   4.446
26292W        W98717  11.483   1.893   1.248
26293W        W98718   7.466  43.800   1.524
26294W        W98719  12.797  21.248  14.904
26295W        W98720  32.040  34.580   3.173
26296W        W98721  28.496  35.582   1.644
26297W        W98722   3.807  11.359  13.009
26298W        W98723   5.322  27.378   4.806
26299W        W98724   4.440  33.007  11.618
26300W        W98725  10.888  34.933   1.886
26301W        W98726  39.119   0.886   0.874
26302W        W98727  36.568  12.175  10.508
26303W        W98728   7.263  24.266   3.696
26304W        W98729   8.293  33.899   3.984
26305W        W98730   7.556  29.269   0.878
26306W        W98731  33.520  33.134  11.217
26307W        W98732   2.344  18.787  12.523
26308W        W98733  32.847  40.603  11.961
26309W        W98734  22.649   4.929   4.549
26310W        W98735  26.467  16.096  14.858
26311W        W98736  28.190  33.330   5.017
26312W        W98737   8.325  20.073  11.064
26313W        W98738  41.331   1.485  13.362
26314W        W98739   0.865  11.405  14.830
26315W        W98740  32.917  25.570   0.711
26316W        W98741   1.974  38.117   3.688
26317W        W98742  16.782  28.867   3.195
26318W        W98743  43.018   7.182  11.638
26319W        W98744  22.649  34.886   3.850
26320W        W98745  43.934  13.661   4.903
26321W        W98746  19.974   9.386   0.224
26322W        W98747  10.702  30.700  10.447
26323W        W98748  39.344  18.020  11.559
26324W        W98749   3.904  44.857  14.946
26325W        W98750  26.051  18.696   1.201
26326W        W98751   5.786  16.320  11.116
26327W        W98752   4.473   9.462   2.664
26328W        W98753   6.218   8.232   3.168
26329W        W98754  18.238  34.042  10.907
26330W        W98755  34.004   7.281  14.705
26331W        W98756  33.101  26.652  14.006
26332W        W98757  41.944  11.135  13.874
26333W        W98758  24.821   5.223   2.669
26334W        W98759  21.877  19.051   0.221
26335W        W98760  24.134  14.561   4.350
26336W        W98761  15.684  28.562   2.355
26337W        W98762  16.815  27.509  11.259
26338W        W98763  44.356  15.473  11.930
26339W        W98764  19.201  18.586  11.046
26340W        W98765   9.147  18.639   0.305
26341W        W98766  25.465   5.315  11.507
26342W        W98767  38.176   1.647  14.748
26343W        W98768  13.260  11.261   2.348
26344W        W98769  31.059  35.546   3.186
26345W        W98770  13.126  23.201  11.087
26346W        W98771  10.781  28.557  11.848
26347W        W98772   9.932   2.247  12.140
26348W        W98773  29.633  43.511   2.798
26349W        W98774  22.156  24.036   3.186
26350W        W98775  17.219  30.257   0.177
26351W        W98776   6.688  25.675   1.272
26352W        W98777  19.958  12.745  13.891
26353W        W98778  25.482  32.320   2.355
26354W        W98779  14.068  37.838  10.803
26355W        W98780   3.451   9.144  13.374
26356W        W98781  18.791  18.219   4.128
26357W        W98782   2.517  19.142  10.781
26358W        W98783  44.815  27.535  12.992
26359W        W98784  43.384  20.474   3.769
26360W        W98785  39.290   6.368  14.293
26361W        W98786  25.030  10.992   4.219
26362W        W98787  33.056  29.758   4.003
26363W        W98788  29.240  26.187   4.517
26364W        W98789  27.735  30.012  14.553
26365W        W98790  39.981  38.865  11.908
26366W        W98791  24.649  21.997  10.508
26367W        W98792  17.270  14.828  14.475
26368W        W98793  30.597  36.321   2.385
26369W        W98794  11.849   1.865  14.050
26370W        W98795  43.995  44.685  11.312
26371W        W98796  13.278  17.055   4.614
26372W        W98797  17.239  40.329  11.743
26373W        W98798  20.689  28.097   1.807
26374W        W98799   6.286  11.126   3.076
26375W        W98800  15.065  33.595  12.869
26376W        W98801  30.097  39.982  14.047
26377W        W98802  37.931   5.208   0.238
26378W        W98803  16.333  40.213  11.486
26379W        W98804  13.397  31.585   1.200
26380W        W98805  32.105  41.262  11.410
26381W        W98806  31.222  17.881   3.302
26382W        W98807   5.094   0.523  11.738
26383W        W98808  31.381  36.516  11.065
26384W        W98809  39.450   0.306  12.506
26385W        W98810  33.593  39.349  10.654
26386W        W98811  23.454  30.927  11.006
26387W        W98812  15.266  18.946  13.291
26388W        W98813  29.077   4.958   0.812
26389W        W98814  10.710  38.549  13.861
26390W        W98815   8.487  28.576  13.836
26391W        W98816  29.196  17.384  11.536
26392W        W98817  17.112   6.611  14.994
26393W        W98818   1.733   7.625   0.890
26394W        W98819  26.461   1.180  10.712
26395W        W98820   3.277  36.347  11.512
26396W        W98821  25.190  27.554  11.120
26397W        W98822  33.446  31.764   0.848
26398W        W98823  25.949  31.310   3.863
26399W        W98824  11.393  28.411  10.598
26400W        W98825  41.309  13.292  12.013
26401W        W98826  44.266   7.751   0.291
26402W        W98827   9.427  30.033   0.333
26403W        W98828  26.479   9.623   2.351
26404W        W98829  12.218  14.030  12.237
26405W        W98830  31.964  38.911  11.994
26406W        W98831  33.961   4.847   1.486
26407W        W98832   5.689  29.467  14.323
26408W        W98833   1.665  31.278  11.422
26409W        W98834  44.911  18.675   4.332
26410W        W98835  22.492   1.976   3.282
26411W        W98836  40.454  37.311   0.430
26412W        W98837   5.933   9.324  13.499
26413W        W98838  13.787  19.202  10.701
26414W        W98839  32.517   1.838   4.675
26415W        W98840   8.439   5.992  11.853
26416W        W98841  19.624  25.905   0.434
26417W        W98842  28.090  22.381  13.970
26418W        W98843  14.107  40.521   2.656
26419W        W98844  19.478   4.008   2.852
26420W        W98845  36.397  41.056  13.450
26421W        W98846   9.724   9.929   1.800
26422W        W98847  25.471  29.884  13.931
26423W        W98848  43.430  40.015  12.171
26424W        W98849  17.066  24.469   2.397
26425W        W98850   4.716   3.846   2.334
26426W        W98851  19.773  31.624   5.474
26427W        W98852  18.384  42.632  10.280
26428W        W98853  24.365  32.008   1.777
26429W        W98854  27.140  21.222   2.765
26430W        W98855  30.918  29.978   2.660
26431W        W98856   7.642  31.096   3.854
26432W        W98857  15.102  16.446   2.146
26433W        W98858  42.210   7.470  13.996
26434W        W98859  12.599  18.256  13.274
26435W        W98860  12.504  23.759  11.210
26436W        W98861  18.535  29.006  11.151
26437W        W98862   1.199  29.213  12.463
26438W        W98863  10.729   5.193  13.966
26439W        W98864   7.143  41.121   1.285
26440W        W98865   1.473  27.002  14.511
26441W        W98866   9.257  32.346   3.416
26442W        W98867  31.155  17.804  11.429
26443W        W98868   0.723  23.324   2.036
26444W        W98869  15.878  31.683  11.596
26445W        W98870  28.101  34.793   2.398
26446W        W98871   7.411   0.466  12.960
26447W        W98872  18.232  40.368   1.760
26448W        W98873  19.215  41.514  12.077
26449W        W98874  22.866  44.154   0.397
26450W        W98875  40.287   5.766   1.709
26451W        W98876  42.463  25.658   3.196
26452W        W98877  41.012  26.952  14.149
26453W        W98878  19.154  44.206   3.887
26454W        W98879  11.186   3.221   4.132
26455W        W98880  26.987  18.743   3.384
26456W        W98881  14.212  24.507   2.345
26457W        W98882   0.716   8.298  14.722
26458W        W98883  10.663  16.033  12.460
26459W        W98884  24.098   5.486   0.436
26460W        W98885  36.472  32.213   0.747
26461W        W98886   3.944  17.797   3.196
26462W        W98887   6.201  20.957   4.108
26463W        W98888  43.972  16.190   0.756
26464W        W98889  32.156  39.427  10.975
26465W        W98890  16.169   3.674  10.698
26466W        W98891   2.694   6.162  11.519
26467W        W98892  16.538   1.415   2.979
26468W        W98893  28.409  38.959  13.937
26469W        W98894  25.275  44.949  10.926
26470W        W98895  44.881  27.372   3.645
26471W        W98896  34.868  23.641   2.309
26472W        W98897  15.257  17.542   3.710
26473W        W98898  41.055  43.608   2.021
26474W        W98899   4.536   5.910  10.774
26475W        W98900  20.593  30.074   0.581
26476W        W98901  19.564  26.515  12.913
26477W        W98902  43.425   9.196  14.973
26478W        W98903  13.568   8.400   4.655
26479W        W98904  29.149  23.943   1.713
26480W        W98905  29.681  17.228  12.360
26481W        W98906   8.261  12.790  12.190
26482W        W98907   7.620  32.616   0.257
26483W        W98908  43.255  44.964   2.124
26484W        W98909   9.232   7.456  14.822
26485W        W98910  24.454  20.210  10.779
26486W        W98911  22.044   6.949   3.250
26487W        W98912  24.130  10.815  12.672
26488W        W98913  38.981  23.114   0.981
26489W        W98914  38.618  31.523  12.086
26490W        W98915  11.448  25.625  13.459
26491W        W98916   2.292   5.661   1.826
26492W        W98917  42.854   5.437  11.559
26493W        W98918   0.040  27.115  13.936
26494W        W98919   3.268  13.593  12.529
26495W        W98920   7.798  21.254   0.893
26496W        W98921  18.511  33.975  14.959
26497W        W98922  27.820   9.711   1.209
26498W        W98923  22.062  21.310   2.800
26499W        W98924  34.514  10.874  10.391
26500W        W98925  25.129  39.486   1.133
26501W        W98926  33.618  24.597  13.773
26502W        W98927  29.101  34.565   1.164
26503W        W98928  14.827  23.590   1.816
26504W        W98929  27.748  32.140   4.183
26505W        W98930  37.037  12.797   3.800
26506W        W98931  38.579  38.355  12.033
26507W        W98932  17.150  23.248  10.639
26508W        W98933  28.960   3.356   3.634
26509W        W98934  15.087  29.447  11.990
26510W        W98935  44.912   4.716  10.335
26511W        W98936  18.000  39.948   3.432
26512W        W98937  22.232  11.606   2.604
26513W        W98938   2.358  14.602  11.448
26514W        W98939   9.433  25.995  12.528
26515W        W98940  25.209  41.549   3.246
26516W        W98941  37.014   8.633   3.408
26517W        W98942  13.635  30.619  13.338
26518W        W98943  44.752  29.972  14.515
26519W        W98944   5.653  40.780   0.973
26520W        W98945  40.823   7.270   4.494
26521W        W98946  23.159  10.594   2.836
26522W        W98947   1.742  18.155  11.017
26523W        W98948  16.724   2.244  13.516
26524W        W98949  27.654   2.878   4.517
26525W        W98950  23.438  28.126  13.448
26526W        W98951  19.105  17.181   0.359
26527W        W98952  25.261  30.404   2.720
26528W        W98953  27.876   6.317   4.432
26529W        W98954  14.695  14.593   3.229
26530W        W98955  41.759  28.124  10.242
26531W        W98956  11.573   7.313   4.078
26532W        W98957  26.305  29.171   2.700
26533W        W98958  23.652   0.483   2.380
26534W        W98959  38.360  13.433  13.547
26535W        W98960  10.941  41.865   4.645
26536W        W98961  27.064  17.172   4.617
26537W        W98962  19.804  34.868  14.870
26538W        W98963  15.170   5.878  12.925
26539W        W98964  28.169  14.573   4.639
26540W        W98965  16.218  30.373  12.655
26541W        W98966  14.584  29.701   4.702
26542W        W98967  18.716   0.452   2.205
26543W        W98968  10.813  24.557   2.846
26544W        W98969  40.248  19.324   3.682
26545W        W98970  39.286   5.035  14.180
26546W        W98971  10.564  35.582   0.785
26547W        W98972  36.139  33.646  13.291
26548W        W98973   0.614  27.780  14.513
26549W        W98974  12.304   1.722  13.830
26550W        W98975  30.503  10.348   2.364
26551W        W98976   0.356  41.715  13.925
26552W        W98977   2.942  12.828  13.428
26553W        W98978  28.065   1.920   1.872
26554W        W98979   3.833  35.453   3.582
26555W        W98980  44.038  42.667   2.371
26556W        W98981  25.659  31.206  14.259
26557W        W98982  34.860  43.293  11.634
26558W        W98983  12.727  22.670  13.111
26559W        W98984  20.297  18.561  10.782
26560W        W98985  26.641  15.410   1.269
26561W        W98986  14.784   3.913  14.293
26562W        W98987  33.849  32.358   3.871
26563W        W98988  20.467  17.534   2.651
26564W        W98989  20.161   9.926   1.892
26565W        W98990  33.552  41.860   3.263
26566W        W98991   3.242   8.888   3.688
26567W        W98992  12.212  34.308  10.643
26568W        W98993   7.432  17.149  13.424
26569W        W98994  14.742   1.046  14.854
26570W        W98995   9.887  16.826   4.834
26571W        W98996  14.712  16.657  13.455
26572W        W98997   2.274   8.876  14.380
26573W        W98998   6.305   0.694  11.166
26574W        W98999  15.760  13.619  13.483
26575W        W99000   7.858  23.624  11.513
26576W        W99001   5.712   8.586   2.649
26577W        W99002  16.574  41.351  10.994
26578W        W99003  14.812  24.412  10.426
26579W        W99004  39.508  18.820  13.474
26580W        W99005  34.006  11.397   4.550
26581W        W99006   9.261  29.517   1.401
26582W        W99007  35.724  15.256   4.022
26583W        W99008   7.837  11.219   0.154
26584W        W99009  40.465  44.391   5.345
26585W        W99010  22.463  23.152  13.423
26586W        W99011  25.166  29.958   4.156
26587W        W99012  10.766   4.642  11.629
26588W        W99013  28.038   0.309   4.014
26589W        W99014  31.644  34.876   4.637
26590W        W99015  40.495  11.256  13.303
26591W        W99016  24.285   6.901  14.932
26592W        W99017  27.736  36.259  11.055
26593W        W99018  32.397  15.163   3.153
26594W        W99019  36.563   9.417  12.525
26595W        W99020   8.375  41.283  10.754
26596W        W99021  14.864  17.793   0.858
26597W        W99022   9.822   6.723   4.307
26598W        W99023   7.399  20.653  11.163
26599W        W99024  15.031  15.334   2.796
26600W        W99025  24.261  36.624   0.687
26601W        W99026   2.664   5.393   1.598
26602W        W99027  27.445  42.437  12.845
26603W        W99028  29.129  11.067  13.306
26604W        W99029  36.692  28.026  10.804
26605W        W99030  34.903   2.015  14.746
26606W        W99031  13.891  16.881   3.937
26607W        W99032  23.122  39.031  13.917
26608W        W99033  28.616  17.303  13.742
26609W        W99034  11.007  10.109   3.169
26610W        W99035  13.523  21.112   2.190
26611W        W99036  27.399  44.203  14.803
26612W        W99037   3.375  35.098   1.812
26613W        W99038  28.343  25.079   5.069
26614W        W99039   5.324  38.252  13.504
26615W        W99040  18.232  23.520  12.507
26616W        W99041   8.321  24.632  14.492
26617W        W99042  28.823  23.610  14.799
26618W        W99043  15.629   0.817   0.094
26619W        W99044  14.198  44.008   3.696
26620W        W99045   0.467   2.245   1.379
26621W        W99046   5.831  37.782   1.771
26622W        W99047  13.770  26.445   0.243
26623W        W99048   0.843  17.700  12.892
26624W        W99049   5.592   0.608  11.572
26625W        W99050  16.190  21.154   4.120
26626W        W99051  43.472  37.003  13.204
26627W        W99052  32.875   1.847  10.748
26628W        W99053  29.137  10.234  12.997
26629W        W99054  41.905  25.057  11.810
26630W        W99055  24.063  35.595  10.821
26631W        W99056  18.156  16.684   4.290
26632W        W99057  10.724   3.230   4.594
26633W        W99058  37.882   3.191  14.902
26634W        W99059  42.539   3.552  12.842
26635W        W99060  20.998  40.500  11.311
26636W        W99061   8.301  33.834   4.496
26637W        W99062  44.410  31.413   3.380
26638W        W99063   0.725  40.348   1.921
26639W        W99064  40.878  41.754   2.209
26640W        W99065  14.599  32.110  14.631
26641W        W99066  12.175  40.777  12.107
26642W        W99067   3.845  13.358  12.968
26643W        W99068  33.120   3.905   3.730
26644W        W99069  14.044  17.134   3.523
26645W        W99070  40.831  19.234  11.960
26646W        W99071   0.857  27.956   2.971
26647W        W99072  29.648  20.693   1.929
26648W        W99073   5.874  14.328   0.563
26649W        W99074  31.305  34.071   3.286
26650W        W99075  31.551  16.712   5.271
26651W        W99076   2.265  28.239   3.328
26652W        W99077  13.362   3.882   1.044
26653W        W99078  31.141  27.758  14.459
26654W        W99079   7.429  39.443   4.643
26655W        W99080  11.171  42.706   2.246
26656W        W99081  24.521  28.738   0.937
26657W        W99082  31.466  19.501   3.743
26658W        W99083  35.356  21.492   2.249
26659W        W99084   8.722  27.588  14.219
26660W        W99085  39.024   0.186  14.360
26661W        W99086   9.230  11.689   1.498
26662W        W99087  13.393  23.490   1.548
26663W        W99088  37.102   1.577   2.641
26664W        W99089  18.359  38.604   2.137
26665W        W99090  12.953  17.258  14.096
26666W        W99091  14.212  40.066   0.884
26667W        W99092  38.317  24.437  11.162
26668W        W99093  30.499  21.202   1.172
26669W        W99094  31.092  40.583  13.360
26670W        W99095  33.417  13.600  12.528
26671W        W99096   7.388  18.681  12.466
26672W        W99097  15.301   1.973   0.301
26673W        W99098  15.027  17.686  12.132
26674W        W99099  14.460  16.539   4.139
26675W        W99100  12.690  20.085  11.941
26676W        W99101  42.572  39.377   2.318
26677W        W99102  41.540  26.951  13.378
26678W        W99103   3.466   5.482  13.488
26679W        W99104  43.779  10.166   3.305
26680W        W99105  33.558  28.183   4.016
26681W        W99106  33.724  34.967  13.446
26682W        W99107  36.323  23.067   4.198
26683W        W99108  31.476  44.192   4.194
26684W        W99109  24.858  33.032  12.159
26685W        W99110  36.521  31.903  13.474
26686W        W99111  32.816  16.058   5.116
26687W        W99112  30.917  25.482   0.392
26688W        W99113  15.600  17.032   4.119
26689W        W99114  18.130   4.306  14.685
26690W        W99115  27.085   5.802   1.364
26691W        W99116  12.213  19.266   2.702
26692W        W99117  10.320  10.954   2.879
26693W        W99118  23.500  42.573   0.911
26694W        W99119  43.419   5.421  13.352
26695W        W99120   5.406  31.776   1.715
26696W        W99121   1.590  24.570  12.377
26697W        W99122  17.878  34.928   4.420
26698W        W99123  26.754  28.146  13.095
26699W        W99124  44.369  21.548  13.339
26700W        W99125  33.512   4.738   2.393
26701W        W99126  22.088  11.064  14.188
26702W        W99127  18.560  15.103  13.332
26703W        W99128  20.231  29.568  12.930
26704W        W99129   2.073  19.245  12.606
26705W        W99130  42.420  16.539  13.482
26706W        W99131  34.542   3.377   2.453
26707W        W99132  27.376   5.559  11.345
26708W        W99133  30.097  25.927  13.789
26709W        W99134  16.527  31.077   1.872
26710W        W99135  37.187  29.482  14.945
26711W        W99136  42.881   9.659   4.575
26712W        W99137  26.424  38.066   0.937
26713W        W99138  36.599  44.542   0.569
26714W        W99139  14.098  12.726   4.084
26715W        W99140  17.901  21.697   4.609
26716W        W99141  38.613  30.555   3.825
26717W        W99142  39.961  16.761  13.046
26718W        W99143  31.599  39.494   3.851
26719W        W99144  42.830  26.538   1.112
26720W        W99145  23.500  18.489  13.401
26721W        W99146  11.016  37.466  13.340
26722W        W99147  17.218  18.295  12.102
26723W        W99148  33.992  27.128   0.427
26724W        W99149  44.801  43.248  12.947
26725W        W99150   0.541   0.804  12.306
26726W        W99151   0.829  43.110   5.019
26727W        W99152   5.152  12.819   2.347
26728W        W99153  35.930  43.853  13.275
26729W        W99154   2.427  21.277   2.301
26730W        W99155  13.304   9.209  10.628
26731W        W99156  38.619  42.342  12.585
26732W        W99157  17.775  43.435  14.869
26733W        W99158  34.480   2.809   0.758
26734W        W99159   5.093  24.229   0.788
26735W        W99160  18.051  32.251   4.611
26736W        W99161  27.998  16.681  13.304
26737W        W99162   9.330  32.972  11.328
26738W        W99163  41.832   6.619  11.341
26739W        W99164  39.104  39.340   2.813
26740W        W99165  36.416  44.731  10.655
26741W        W99166  25.704   9.277   3.055
26742W        W99167  19.211  43.715   2.322
26743W        W99168  20.916  31.309   9.805
26744W        W99169  44.114  39.303  12.003
26745W        W99170  13.363  39.305   1.693
26746W        W99171   7.825  30.546  14.388
26747W        W99172  33.895  37.444  14.925
26748W        W99173   0.959  19.600  10.750
26749W        W99174  40.983  12.385  10.395
26750W        W99175   4.753  19.655  14.420
26751W        W99176  15.403  35.438   2.133
26752W        W99177  41.909  13.277   2.044
26753W        W99178  44.784  23.198   4.570
26754W        W99179   5.838  12.870  11.131
26755W        W99180   4.434  24.791  11.086
26756W        W99181  20.128   5.356   4.612
26757W        W99182  10.219  35.478   4.134
26758W        W99183  12.803  23.129  11.915
26759W        W99184   3.938  14.100   1.868
26760W        W99185  11.996  21.245  12.695
26761W        W99186  14.191  40.120   4.862
26762W        W99187  43.371  12.817   2.620
26763W        W99188   1.083  29.635   4.066
26764W        W99189  27.722  14.777   3.091
26765W        W99190  21.736  35.564  13.594
26766W        W99191   2.231  23.754  13.092
26767W        W99192  24.688  39.314   3.709
26768W        W99193  43.850  18.962   2.649
26769W        W99194  18.552  18.619  13.410
26770W        W99195  19.752   4.670  13.904
26771W        W99196  40.588  11.787   4.230
26772W        W99197  26.126  27.459  11.233
26773W        W99198  25.551  35.008   1.657
26774W        W99199  16.218  13.767  14.386
26775W        W99200  33.338   4.412  11.095
26776W        W99201  12.863  23.673   0.486
26777W        W99202  41.655  30.495   4.974
26778W        W99203   2.979  11.745  10.518
26779W        W99204  22.675  21.806   3.149
26780W        W99205   4.374  26.100   3.915
26781W        W99206  27.846  22.809   5.169
26782W        W99207  44.481  22.632   1.910
26783W        W99208   7.235   8.501   4.217
26784W        W99209  30.169  28.557  14.796
26785W        W99210  44.263  18.994  10.937
26786W        W99211   9.950  14.204   4.185
26787W        W99212   5.930  22.508  14.701
26788W        W99213  33.021   2.721   0.798
26789W        W99214  17.011   4.014  12.059
26790W        W99215  40.866   9.235   4.881
26791W        W99216  20.639   2.390  11.223
26792W        W99217   5.375  17.030  14.815
26793W        W99218  40.087   7.745  11.373
26794W        W99219  20.495  30.424  12.396
26795W        W99220   5.711  33.697   0.727
26796W        W99221  17.388  24.305  12.958
26797W        W99222  22.699  26.021   0.260
26798W        W99223  10.599  36.506  11.035
26799W        W99224  37.647  44.565   2.293
26800W        W99225   2.373  40.948   3.646
26801W        W99226  21.238  39.399   0.221
26802W        W99227  26.219  20.050  14.664
26803W        W99228  35.249  14.853   2.045
26804W        W99229  22.927  19.083   4.172
26805W        W99230  16.553   3.753   0.181
26806W        W99231  36.577   4.063  13.266
26807W        W99232  10.254  23.616  11.200
26808W        W99233   9.621  44.815   3.707
26809W        W99234  13.336  40.390  13.436
26810W        W99235  13.045  13.107   3.593
26811W        W99236   6.489   7.735   3.210
26812W        W99237  24.493  10.675   4.168
26813W        W99238  42.573  35.948   3.085
26814W        W99239  14.543  12.781   2.223
26815W        W99240  28.728   3.009  12.048
26816W        W99241  12.340  44.323  13.432
26817W        W99242  42.043  35.383   2.222
26818W        W99243  24.558  10.765   5.439
26819W        W99244  21.180  16.223   2.787
26820W        W99245  13.358  16.317   0.344
26821W        W99246  30.197  26.637   0.801
26822W        W99247  36.801  30.521  12.134
26823W        W99248  32.109  28.607  14.671
26824W        W99249   5.740  25.873   3.586
26825W        W99250  40.484  31.185  11.132
26826W        W99251  22.914  42.864  11.394
26827W        W99252  44.608   3.516  11.092
26828W        W99253   0.445  29.669   4.496
26829W        W99254   7.365  13.693  10.381
26830W        W99255  28.481  29.121  14.042
26831W        W99256  20.600  29.136   4.374
26832W        W99257   5.605  32.587  13.395
26833W        W99258   3.217  16.733  13.767
26834W        W99259  14.386  22.048  13.470
26835W        W99260  43.402  37.772  12.549
26836W        W99261  41.539   5.308   4.605
26837W        W99262  29.623   8.631   1.916
26838W        W99263  40.362  42.171  11.934
26839W        W99264   3.931   9.362  13.456
26840W        W99265  34.587  32.472   4.605
26841W        W99266  42.514  34.466   3.676
26842W        W99267  19.693   1.913   1.154
26843W        W99268  23.302  40.574   3.883
26844W        W99269  27.047   7.965  13.425
26845W        W99270  32.192   1.911   2.650
26846W        W99271  27.606  43.721  11.531
26847W        W99272  38.520  40.279   4.573
26848W        W99273  24.052   2.270   1.489
26849W        W99274   4.700  13.295  12.634
26850W        W99275  40.853  40.872  14.255
26851W        W99276  22.254  33.952  12.628
26852W        W99277  14.526   7.827  12.666
26853W        W99278  23.563  41.602  14.795
26854W        W99279  19.187  17.807  12.378
26855W        W99280  42.265  27.547  13.953
26856W        W99281  19.427  13.940   4.894
26857W        W99282  28.161  33.141   0.330
26858W        W99283   3.001  32.397  11.704
26859W        W99284   5.949   3.875  12.111
26860W        W99285  36.592  18.095  13.312
26861W        W99286  11.960  23.094   4.423
26862W        W99287   5.721  39.622  12.442
26863W        W99288  16.341  38.938   1.819
26864W        W99289  41.068  40.823  12.860
26865W        W99290  37.868  33.609   0.680
26866W        W99291  37.396   9.191  12.024
26867W        W99292  24.748  22.898   1.423
26868W        W99293  31.037   6.654   4.681
26869W        W99294   7.275   0.729  14.847
26870W        W99295   1.399  11.594   2.717
26871W        W99296   8.851  41.431  14.755
26872W        W99297   3.277  32.200   2.184
26873W        W99298  11.356  30.688  13.095
26874W        W99299   3.252  10.800   1.935
26875W        W99300   6.435   7.780   2.694
26876W        W99301   7.430   7.908  10.289
26877W        W99302  30.416  29.676   2.382
26878W        W99303  39.317  23.133   2.489
26879W        W99304  24.992  33.132   0.547
26880W        W99305  25.717  14.690   2.130
26881W        W99306  22.556   3.027  12.463
26882W        W99307   7.601  42.466  10.816
26883W        W99308  14.208  39.636   4.697
26884W        W99309  42.404  41.358  14.538
26885W        W99310  14.313  16.701   3.669
26886W        W99311   9.096  39.656  14.278
26887W        W99312   8.832  19.729  10.673
26888W        W99313   5.474  40.431   0.583
26889W        W99314  43.705  32.463   3.177
26890W        W99315  42.612  22.278  10.803
26891W        W99316   0.655  29.437  14.247
26892W        W99317  44.068   4.744   2.648
26893W        W99318   4.939   5.450   2.806
26894W        W99319   6.836   0.780  11.924
26895W        W99320  43.672  12.598  10.773
26896W        W99321   0.903   0.321  13.999
26897W        W99322  30.567  29.397   0.290
26898W        W99323  18.332  40.117   0.851
26899W        W99324  12.855  42.244   0.835
26900W        W99325  34.955  43.621   4.419
26901W        W99326  28.585  21.592  11.531
26902W        W99327   8.213  19.776  14.814
26903W        W99328  16.849  31.045   9.723
26904W        W99329  44.760   7.263  14.502
26905W        W99330  25.114  10.585  10.184
26906W        W99331   5.751   4.454   1.833
26907W        W99332  21.811  15.582  11.085
26908W        W99333  27.571  15.608  14.357
26909W        W99334  11.927  17.090  13.836
26910W        W99335  40.420  39.311   1.253
26911W        W99336  34.953  30.030   1.304
26912W        W99337  39.987  20.093  11.144
26913W        W99338   8.046  18.731   0.611
26914W        W99339   6.630  12.645  12.120
26915W        W99340  19.096   1.190   9.660
26916W        W99341  27.441  38.946  11.733
26917W        W99342  14.758  43.316  12.833
26918W        W99343  21.236   8.159   2.403
26919W        W99344  23.857   9.504  11.969
26920W        W99345   8.822  24.926  14.870
26921W        W99346  29.627   2.629   4.554
26922W        W99347   6.989   0.250  11.201
26923W        W99348  41.435   3.963  13.456
26924W        W99349  21.260  34.694  10.285
26925W        W99350  19.859  32.112   3.475
26926W        W99351  19.482   3.480  12.097
26927W        W99352  30.492  29.605  12.993
26928W        W99353  25.958  27.010   4.549
26929W        W99354  31.705  20.252  12.590
26930W        W99355  41.609  37.393   4.098
26931W        W99356   5.011   2.071  12.797
26932W        W99357   4.615  43.982  14.074
26933W        W99358   5.793  41.928  14.951
26934W        W99359  39.914  40.892   2.593
26935W        W99360  16.238  40.941  14.820
26936W        W99361  36.902   8.702   2.367
26937W        W99362  14.429  13.617  11.333
26938W        W99363  13.403  26.596  12.439
26939W        W99364  44.038  25.616   2.448
26940W        W99365   5.393  31.494   2.145
26941W        W99366  28.253  34.887   3.245
26942W        W99367  19.165  14.365  14.169
26943W        W99368  12.345  40.825   0.368
26944W        W99369  12.029  12.731  13.486
26945W        W99370  30.481  11.873   4.088
26946W        W99371   0.060   2.786   0.785
26947W        W99372  32.441   8.190  14.792
26948W        W99373  39.354  16.657   2.766
26949W        W99374  36.886  30.417  11.658
26950W        W99375  44.846  21.338  12.191
26951W        W99376   3.179  30.977  13.355
26952W        W99377   5.643  18.614  13.989
26953W        W99378  44.146  34.611  12.322
26954W        W99379  29.993  33.068  12.968
26955W        W99380  38.885  22.776   3.176
26956W        W99381   4.834   2.386  11.057
26957W        W99382  37.100  26.948  11.156
26958W        W99383   4.792   8.708   3.775
26959W        W99384  41.316  29.378  14.891
26960W        W99385  16.114  20.517  11.017
26961W        W99386  26.914   7.654   0.711
26962W        W99387  27.154  33.577   4.097
26963W        W99388  33.650  24.036   4.607
26964W        W99389  36.399  26.397   2.231
26965W        W99390  11.231   5.255  10.595
26966W        W99391  23.667  44.763   1.765
26967W        W99392  30.062  36.292   4.499
26968W        W99393   4.698  40.881  12.805
26969W        W99394  18.261  25.927   0.552
26970W        W99395   1.090   0.716   1.802
26971W        W99396  41.543   2.422   1.605
26972W        W99397  10.838  33.887   1.860
26973W        W99398  21.780  12.011  14.428
26974W        W99399  35.745  33.894  11.048
26975W        W99400  38.653   3.262  13.993
26976W        W99401  22.404  33.690  11.075
26977W        W99402   6.760  12.591   4.513
26978W        W99403  36.838   7.704   3.359
26979W        W99404   8.404  23.169   1.844
26980W        W99405  37.095  37.492   2.138
26981W        W99406  25.522  40.266   3.258
26982W        W99407   6.600  14.808  10.754
26983W        W99408  13.391  39.618   1.268
26984W        W99409  12.874  20.858   0.251
26985W        W99410  13.556  29.300   2.715
26986W        W99411  15.622  16.812   5.073
26987W        W99412   1.384  17.083  13.711
26988W        W99413  34.602  21.507  11.730
26989W        W99414   7.422  16.108  11.647
26990W        W99415  11.295   8.593  12.465
26991W        W99416   5.772  14.712   0.883
26992W        W99417  25.781  37.525   3.238
26993W        W99418  18.299   4.351   1.161
26994W        W99419  22.495  15.113   4.813
26995W        W99420  19.510   2.391   2.888
26996W        W99421  28.056  21.618  12.122
26997W        W99422  38.378  21.748   3.842
26998W        W99423  44.531  30.459  13.804
26999W        W99424   6.625  14.337  11.638
27000W        W99425  39.199  37.979  10.801
27001W        W99426  18.641  12.099   4.138
27002W        W99427  21.950  16.672  11.916
27003W        W99428  44.497  28.567  12.508
27004W        W99429  16.143  44.935   3.332
27005W        W99430  23.295   9.215  12.789
27006W        W99431  42.276  10.256   0.264
27007W        W99432  14.203  29.119   3.809
27008W        W99433  20.726  13.729   3.728
27009W        W99434  36.450  38.258  14.664
27010W        W99435   0.528  18.978  14.088
27011W        W99436   9.352  25.072   4.188
27012W        W99437  24.028  20.663  14.078
27013W        W99438  17.195  30.540  12.946
27014W        W99439  23.512  28.042  11.158
27015W        W99440  42.372  21.494  13.022
27016W        W99441  34.379  40.449   0.209
27017W        W99442  35.683  23.814   4.611
27018W        W99443  25.963  19.062  14.915
27019W        W99444  27.615   7.780   1.777
27020W        W99445  30.182   2.720  14.970
27021W        W99446   1.579  33.120   4.002
27022W        W99447  40.717  36.806   0.857
27023W        W99448  44.936  39.859  13.513
27024W        W99449  17.031  12.457   1.353
27025W        W99450   7.148  24.012  13.396
27026W        W99451  15.716   9.654   1.247
27027W        W99452   9.204  10.512   2.062
27028W        W99453  37.682  20.262   4.131
27029W        W99454  37.074  19.800  12.092
27030W        W99455  21.772   1.936  14.109
27031W        W99456  18.202  26.228  10.762
27032W        W99457  40.065  39.824  13.589
27033W        W99458  14.751  29.896   1.948
27034W        W99459  29.892  16.626   2.774
27035W        W99460   9.309   5.197   2.162
27036W        W99461  36.015  33.686   3.251
27037W        W99462  21.885   6.361  13.369
27038W        W99463  40.842  17.168  14.063
27039W        W99464  41.785  29.500  13.875
27040W        W99465   5.505  20.831  14.387
27041W        W99466  27.080  40.426   3.160
27042W        W99467  38.995  44.818   3.354
27043W        W99468  24.587  16.557  11.002
27044W        W99469  15.987  40.138  11.116
27045W        W99470  29.397  37.786  10.663
27046W        W99471   9.267  44.362  13.013
27047W        W99472  26.014  12.672  10.976
27048W        W99473  42.240  25.000   2.811
27049W        W99474  28.964  12.506   1.736
27050W        W99475   2.466   6.078   4.134
27051W        W99476   5.529  32.087   0.159
27052W        W99477  11.605  17.513   4.485
27053W        W99478  41.494  29.411  11.271
27054W        W99479  23.579  40.989  14.130
27055W        W99480  17.529   6.337  12.000
27056W        W99481  43.433  25.605  10.628
27057W        W99482  31.724  41.237   1.317
27058W        W99483   2.321  32.417   4.598
27059W        W99484   1.324  28.520   4.145
27060W        W99485  34.494   9.378  12.363
27061W        W99486  25.676  41.495   2.772
27062W        W99487  20.805  24.769  11.119
27063W        W99488   1.660  32.652   0.963
27064W        W99489  12.085   5.290  14.295
27065W        W99490  43.768   8.215  14.564
27066W        W99491  22.582  11.345  14.902
27067W        W99492  37.049   5.257  13.336
27068W        W99493  27.945   4.882   2.238
27069W        W99494  18.351  39.468   3.577
27070W        W99495  24.775  23.701  12.887
27071W        W99496  31.417  20.751   2.717
27072W        W99497  14.654  41.282  11.953
27073W        W99498  12.769   5.850   2.807
27074W        W99499   9.003  21.573   2.977
27075W        W99500  35.860   0.273   0.058
27076W        W99501  30.157  44.753   0.800
27077W        W99502  39.424   0.817   1.917
27078W        W99503  10.856  28.150   0.521
27079W        W99504  32.527  39.653  14.006
27080W        W99505  43.499  36.906  10.539
27081W        W99506  33.473  35.306   9.890
27082W        W99507  31.120  11.168  10.355
27083W        W99508  10.844  30.828  11.831
27084W        W99509   4.976  15.682  12.458
27085W        W99510  25.577  36.907   4.114
27086W        W99511  44.140  13.170  13.008
27087W        W99512  42.690   5.514   3.702
27088W        W99513  35.389   8.838   4.991
27089W        W99514   2.522  26.422  11.152
27090W        W99515  18.755   4.269  10.737
27091W        W99516   2.414  39.767   4.630
27092W        W99517  16.610  41.476   1.671
27093W        W99518  34.481  20.199  14.515
27094W        W99519  37.399   4.067   4.881
27095W        W99520  20.689  18.549  12.061
27096W        W99521  20.057  19.994  13.798
27097W        W99522   2.052  28.190   1.256
27098W        W99523  41.435  16.951   2.801
27099W        W99524   5.372  13.631   3.612
27100W        W99525  32.545   8.885   3.306
27101W        W99526  41.604  25.960   1.709
27102W        W99527  44.674  32.481   9.741
27103W        W99528   5.142  13.373   4.559
27104W        W99529  13.749  17.877  11.030
27105W        W99530  37.983   3.215   1.517
27106W        W99531  21.596  43.521  10.772
27107W        W99532  16.147  18.824  11.487
27108W        W99533  42.481  13.551  14.986
27109W        W99534  27.585  23.775  11.629
27110W        W99535  36.886  15.017   2.346
27111W        W99536   2.238  29.273  12.602
27112W        W99537  19.467  16.576   4.411
27113W        W99538  13.390  41.315  13.941
27114W        W99539  32.895  26.751  13.009
27115W        W99540   7.790   7.961   2.671
27116W        W99541  17.701   0.159  13.342
27117W        W99542  21.520  41.705   3.955
27118W        W99543  15.645   8.248   2.490
27119W        W99544  27.752  19.127  12.837
27120W        W99545  23.319  22.441  12.852
27121W        W99546  15.806  21.191  12.006
27122W        W99547  33.927   9.726   2.592
27123W        W99548  36.380  35.427   3.948
27124W        W99549  32.317  31.823   2.257
27125W        W99550  26.015  38.359   3.626
27126W        W99551  40.078  40.562   1.917
27127W        W99552   7.830  43.988   0.750
27128W        W99553   2.657  39.601   3.340
27129W        W99554   5.779   2.463  11.028
27130W        W99555   1.242  24.527  14.285
27131W        W99556  41.168  14.179  11.124
27132W        W99557  20.821  15.065   3.505
27133W        W99558  25.250  13.853  12.909
27134W        W99559  10.562  12.626  13.759
27135W        W99560  12.824   0.897  10.576
27136W        W99561  11.801   4.520   4.087
27137W        W99562  22.684  25.359  11.728
27138W        W99563  33.243   8.949  11.921
27139W        W99564   0.518   9.527   3.290
27140W        W99565  16.360  21.008   3.203
27141W        W99566  40.948  25.483  10.705
27142W        W99567  44.288  37.008   1.907
27143W        W99568  31.539   5.326  14.311
27144W        W99569  36.365   3.198  10.774
27145W        W99570   9.847  36.384   3.570
27146W        W99571  42.335   1.541  12.985
27147W        W99572  38.332   5.340  12.080
27148W        W99573   6.203  31.033  10.688
27149W        W99574   2.090   0.547   0.455
27150W        W99575  34.474  17.441   0.805
27151W        W99576   0.971  43.969   2.826
27152W        W99577  44.238  30.531   4.148
27153W        W99578  25.475  41.624  12.852
27154W        W99579  30.926  21.045   5.347
27155W        W99580  44.202   3.878   1.289
27156W        W99581  13.426   1.539   2.031
27157W        W99582  40.129   0.470  11.544
27158W        W99583   1.007  14.138   2.584
27159W        W99584  25.198  36.536   3.870
27160W        W99585  31.658   1.274  10.573
27161W        W99586  44.736  33.077   3.609
27162W        W99587   4.855  10.147  12.184
27163W        W99588   0.712  16.229   0.516
27164W        W99589  42.481  33.057   3.804
27165W        W99590  25.177  11.244  13.626
27166W        W99591  23.143  30.917  10.587
27167W        W99592   8.439  38.600  13.351
27168W        W99593  39.815  36.190  11.200
27169W        W99594  15.731  13.725   1.388
27170W        W99595  34.440  24.938   4.784
27171W        W99596  36.899  15.061  11.457
27172W        W99597  10.771  35.520  12.997
27173W        W99598   7.330  24.000   1.178
27174W        W99599  11.944  38.285   4.591
27175W        W99600  34.591   8.887   2.209
27176W        W99601  22.154  32.222   0.830
27177W        W99602  20.688   5.847   3.629
27178W        W99603  35.538  30.500  14.762
27179W        W99604   1.709   1.575   1.228
27180W        W99605   1.411  16.354   2.341
27181W        W99606  35.549  34.426   0.738
27182W        W99607  10.286  23.442   4.209
27183W        W99608  13.225  21.707  12.196
27184W        W99609  20.329  10.169  14.087
27185W        W99610  20.757  31.065   3.533
27186W        W99611  20.989  16.497  14.757
27187W        W99612  28.993  32.904  12.981
27188W        W99613  32.272  31.550  13.312
27189W        W99614   7.111  34.875   5.546
27190W        W99615  40.368  10.317  13.968
27191W        W99616  12.202  10.810   0.537
27192W        W99617  41.813  25.499  13.074
27193W        W99618  19.317  43.371  11.198
27194W        W99619  44.089  17.687  14.379
27195W        W99620  44.860  11.097  11.640
27196W        W99621  28.561  18.585   0.047
27197W        W99622  10.339  33.900   3.754
27198W        W99623  25.722  31.144  10.467
27199W        W99624   4.447  22.987  14.359
27200W        W99625  39.905  26.044  13.811
27201W        W99626  36.075  34.683  11.247
27202W        W99627  14.988  24.194  12.574
27203W        W99628  18.813  36.927   2.633
27204W        W99629  42.771  26.064   3.291
27205W        W99630  26.133   4.697  14.248
27206W        W99631  20.578  40.424   2.331
27207W        W99632  41.196  29.022  14.300
27208W        W99633  11.397  15.230  14.049
27209W        W99634  28.701  24.009   3.952
27210W        W99635  36.976  40.972   4.764
27211W        W99636  35.986  24.453   2.437
27212W        W99637  14.249  30.482   1.489
27213W        W99638  41.581  37.516  10.140
27214W        W99639   5.155  27.201   0.119
27215W        W99640  33.633  25.077   0.430
27216W        W99641  12.488  12.153  11.730
27217W        W99642  36.972  18.197   4.907
27218W        W99643  17.071  34.917   5.063
27219W        W99644  36.872  21.553  12.169
27220W        W99645  15.662  30.581  11.975
27221W        W99646   1.703  44.941  13.513
27222W        W99647  19.214  37.832   3.838
27223W        W99648   8.557   7.131  10.245
27224W        W99649  36.916  44.623   1.022
27225W        W99650  43.393   3.989  12.813
27226W        W99651  27.001  11.333  12.817
27227W        W99652  39.536  11.887   2.334
27228W        W99653  29.029   6.196   0.028
27229W        W99654   3.983  27.412   3.830
27230W        W99655  37.768  29.070   1.754
27231W        W99656  27.524  43.000  12.027
27232W        W99657   2.848  14.815   1.304
27233W        W99658  14.120  40.176  10.979
27234W        W99659  11.868   0.911  14.514
27235W        W99660  16.595  15.823  14.816
27236W        W99661  35.134  21.460   0.961
27237W        W99662  28.243  36.429   2.252
27238W        W99663  17.475   4.889   2.795
27239W        W99664   1.729  10.606   4.564
27240W        W99665  19.761   3.728  11.730
27241W        W99666  42.948  31.612  12.471
27242W        W99667   3.766  16.209  10.887
27243W        W99668   8.894   0.175   1.141
27244W        W99669   0.496  40.472   4.614
27245W        W99670  33.370  19.019   3.670
27246W        W99671  28.079  36.360   3.063
27247W        W99672  29.960  37.854   3.661
27248W        W99673  42.236   4.309   0.700
27249W        W99674  34.340  28.093  10.664
27250W        W99675   7.583  24.570  12.116
27251W        W99676  42.439  35.934   4.457
27252W        W99677  23.172  36.551  10.589
27253W        W99678  40.593   2.213   2.801
27254W        W99679  16.872  13.372  11.742
27255W        W99680  20.407   9.001   5.182
27256W        W99681  44.428   5.442   3.071
27257W        W99682  31.567  12.802  13.112
27258W        W99683  27.582  13.976  10.774
27259W        W99684  12.201  24.626  13.575
27260W        W99685   9.759  30.422  10.671
27261W        W99686  39.397   0.704   0.436
27262W        W99687  29.567  29.226  13.998
27263W        W99688  27.097  11.204   4.565
27264W        W99689   1.995  30.416  12.169
27265W        W99690  39.625   7.225  14.519
27266W        W99691  17.707  12.672   1.795
27267W        W99692  31.973  21.714   4.422
27268W        W99693  39.782   8.205  12.120
27269W        W99694  40.890  12.656   3.373
27270W        W99695  11.896  23.125   9.706
27271W        W99696  21.416   9.925  11.138
27272W        W99697   0.405  17.498  13.044
27273W        W99698  42.505  36.642  11.473
27274W        W99699   5.302  41.077   1.222
27275W        W99700  37.499  37.781  10.384
27276W        W99701  44.707  33.430  12.476
27277W        W99702  29.650   8.282  13.881
27278W        W99703  27.949  43.225   2.792
27279W        W99704  31.940   6.505   0.307
27280W        W99705  17.009  14.802   3.307
27281W        W99706  28.686  43.815  13.371
27282W        W99707   1.981  41.766   4.050
27283W        W99708  17.879   3.161  10.426
27284W        W99709   9.614  15.289  11.984
27285W        W99710  38.426  42.199  10.936
27286W        W99711  41.414  38.869   2.387
27287W        W99712  35.127  26.646  11.019
27288W        W99713  19.761  42.614  12.386
27289W        W99714  30.451  31.732  14.435
27290W        W99715   3.749  10.268  14.270
27291W        W99716  32.236   4.565   3.194
27292W        W99717  43.876  29.655   4.943
27293W        W99718  16.569  25.082  12.300
27294W        W99719  44.830   8.739   2.225
27295W        W99720  33.652  41.132   2.757
27296W        W99721  16.532  38.124  10.258
27297W        W99722  34.991  21.611   2.709
27298W        W99723  41.849  16.913  11.545
27299W        W99724  34.213  10.028   3.600
27300W        W99725  39.367   4.945   2.672
27301W        W99726  39.579  15.565   3.376
27302W        W99727   3.277  17.096  11.033
27303W        W99728   9.097  36.233  11.003
27304W        W99729  11.162  34.079   2.706
27305W        W99730  28.259  39.880   0.420
27306W        W99731  28.488   5.232   3.145
27307W        W99732  27.603   1.331   3.170
27308W        W99733  42.043  19.312   3.189
27309W        W99734   5.173  38.408   4.771
27310W        W99735  43.834  41.013   4.373
27311W        W99736  24.498  43.283   0.406
27312W        W99737  16.449  21.627  12.621
27313W        W99738  26.075  24.107   1.236
27314W        W99739  26.740  34.839   3.398
27315W        W99740  14.767  34.100   3.824
27316W        W99741  17.144  36.504   1.130
27317W        W99742  24.518  34.750  14.264
27318W        W99743  16.158  18.554   4.736
27319W        W99744   2.853  20.201   4.895
27320W        W99745  17.763  21.994  14.159
27321W        W99746  28.496  11.906   0.180
27322W        W99747  42.636  10.167   2.305
27323W        W99748  20.174  44.466   1.829
27324W        W99749   4.980   6.828  10.375
27325W        W99750   6.222   5.849   2.396
27326W        W99751  41.571  29.448   1.252
27327W        W99752  19.022   0.701  12.040
27328W        W99753  27.725  40.963   2.087
27329W        W99754  20.714   3.460  12.689
27330W        W99755  14.308  24.568  10.612
27331W        W99756  36.776  17.502  13.485
27332W        W99757   0.417   4.194   1.752
27333W        W99758   6.198  44.966   2.195
27334W        W99759  31.671  27.584   3.698
27335W        W99760   3.307   0.080  11.409
27336W        W99761  24.580   0.384  14.400
27337W        W99762  44.169  22.005  14.420
27338W        W99763  36.134   3.030   4.156
27339W        W99764  13.824  21.649   0.215
27340W        W99765   7.991  16.237  14.621
27341W        W99766   1.985  38.623  14.938
27342W        W99767   5.392  14.920  11.221
27343W        W99768   3.362   9.686   4.644
27344W        W99769  31.620  19.812   4.131
27345W        W99770   2.520   4.589  13.858
27346W        W99771  38.307   3.418   2.167
27347W        W99772  17.012  34.546   4.103
27348W        W99773   6.407  31.335  13.388
27349W        W99774  21.079  44.553  11.002
27350W        W99775  36.866  16.117   3.931
27351W        W99776  16.189  27.987   2.856
27352W        W99777  23.933  40.941   4.558
27353W        W99778  22.139   7.528   0.395
27354W        W99779  21.126  12.655  10.391
27355W        W99780  44.794  17.407  13.748
27356W        W99781  38.712   9.837  14.928
27357W        W99782  29.239  16.792   1.325
27358W        W99783  20.364  33.939   1.214
27359W        W99784  21.645  30.109   2.677
27360W        W99785  39.823   9.140  12.382
27361W        W99786  35.348  18.641   0.803
27362W        W99787  43.413  38.036   4.428
27363W        W99788  32.110  23.612   4.111
27364W        W99789   4.883  29.795   4.074
27365W        W99790   9.865  31.151  11.736
27366W        W99791   3.824  18.737  11.600
27367W        W99792  32.990   9.762   2.787
27368W        W99793  18.377  44.019   1.527
27369W        W99794   7.313  34.247  12.411
27370W        W99795  36.068   8.377   0.311
27371W        W99796  18.854  24.982   3.179
27372W        W99797  16.327  11.613   0.804
27373W        W99798   9.794   9.213   9.778
27374W        W99799   5.767  38.001   3.213
27375W        W99800  19.540  27.449   4.161
27376W        W99801   8.674  39.946  14.351
27377W        W99802  23.970  16.213  11.406
27378W        W99803  28.507   7.356   3.213
27379W        W99804  43.770   6.386  11.178
27380W        W99805  35.424  18.679   4.445
27381W        W99806  33.464  43.511   2.066
27382W        W99807   0.385  12.790  14.371
27383W        W99808  19.542   4.904  12.639
27384W        W99809   7.314  32.492   2.220
27385W        W99810  19.136  26.050   4.121
27386W        W99811  17.067  28.601   2.708
27387W        W99812   2.534  44.805  13.062
27388W        W99813  20.059   4.950   0.225
27389W        W99814  25.015  16.997  12.053
27390W        W99815  11.576  40.820  14.821
27391W        W99816  29.938  44.483   1.416
27392W        W99817  38.667   7.299  14.031
27393W        W99818  13.733   1.223   0.010
27394W        W99819   5.930  20.116  14.167
27395W        W99820  28.976  37.405   1.465
27396W        W99821  33.583  11.639  14.426
27397W        W99822  28.227   4.325  13.814
27398W        W99823   2.913   4.928  14.534
27399W        W99824  28.007  18.698   0.812
27400W        W99825   4.146   3.583   4.906
27401W        W99826  39.731  27.075   1.387
27402W        W99827  38.367  44.342  11.593
27403W        W99828  27.493  19.787   4.366
27404W        W99829   5.235  33.243   1.447
27405W        W99830  19.635  30.679  12.327
27406W        W99831  37.414   3.158  13.044
27407W        W99832   9.328   5.650   0.293
27408W        W99833  38.763  15.843  11.981
27409W        W99834  32.477  24.070   0.202
27410W        W99835   9.576  20.200  14.126
27411W        W99836  44.101  30.890  12.062
27412W        W99837   8.906   2.756   1.209
27413W        W99838  40.185   6.027   4.075
27414W        W99839  43.264   0.369   4.468
27415W        W99840  41.067  18.253  12.818
27416W        W99841  15.246  13.525   1.407
27417W        W99842  11.141  29.138   0.819
27418W        W99843  19.124  26.227  12.843
27419W        W99844  44.356   4.202  14.231
27420W        W99845  43.476   0.389  14.990
27421W        W99846   0.052  43.310  11.030
27422W        W99847  28.468   4.548   3.768
27423W        W99848  14.706  14.868   2.776
27424W        W99849  39.621  30.107  14.690
27425W        W99850   0.463  19.481  13.909
27426W        W99851  40.734   3.351   2.267
27427W        W99852  24.841  36.229   1.861
27428W        W99853  27.797  13.230   1.466
27429W        W99854  38.544   7.738   2.315
27430W        W99855  21.803  14.702  11.717
27431W        W99856  17.773  23.869  13.341
27432W        W99857  40.913  40.876   0.780
27433W        W99858  43.304  30.098  13.011
27434W        W99859   9.195  34.645  10.495
27435W        W99860  38.950  19.838  12.127
27436W        W99861  35.800  24.635   4.946
27437W        W99862  19.568   8.731   2.736
27438W        W99863  12.588  19.259  11.128
27439W        W99864   1.961  30.139  10.576
27440W        W99865  33.050  21.645  12.755
27441W        W99866  16.989  24.488   0.418
27442W        W99867  41.078  41.471  10.659
27443W        W99868  10.815  29.873   3.084
27444W        W99869   4.761  21.351  14.923
27445W        W99870  21.640  17.303  11.485
27446W        W99871  11.340  26.221   2.247
27447W        W99872  39.774  14.660  13.097
27448W        W99873  10.036  26.964  14.078
27449W        W99874  42.531  21.707  13.460
27450W        W99875  44.480  43.006  10.039
27451W        W99876  20.741  24.392  11.477
27452W        W99877  20.521  20.683   3.248
27453W        W99878  44.006  11.595   0.342
27454W        W99879  31.681  26.625  11.361
27455W        W99880  15.246  13.108  10.662
27456W        W99881   4.461  17.941  14.032
27457W        W99882   3.337  43.234   4.622
27458W        W99883  40.350  24.108  10.717
27459W        W99884  35.585  34.037  12.273
27460W        W99885  22.544   6.016   1.972
27461W        W99886   0.251   9.675   2.383
27462W        W99887  18.662  38.923   4.071
27463W        W99888  13.566  27.516   2.173
27464W        W99889   3.375  10.165   0.507
27465W        W99890  43.910  34.948  13.386
27466W        W99891  24.075   8.121   3.203
27467W        W99892   0.676   6.679   0.074
27468W        W99893   6.458   4.389  12.627
27469W        W99894  10.267  29.956  10.390
27470W        W99895  13.214  31.092   0.496
27471W        W99896  23.671  28.394  11.669
27472W        W99897  19.590  31.568   4.478
27473W        W99898  23.266   8.821  14.850
27474W        W99899  14.421  22.733   2.410
27475W        W99900  43.738  17.369  14.659
27476W        W99901  28.235   0.348  14.516
27477W        W99902  27.874  30.990   3.599
27478W        W99903   2.110   3.762  11.471
27479W        W99904  37.484  43.795   0.933
27480W        W99905   3.903   3.302   0.468
27481W        W99906  44.310  29.983  14.249
27482W        W99907  23.223  10.581   4.569
27483W        W99908  23.902  17.583   1.910
27484W        W99909  44.951   5.308   0.878
27485W        W99910  30.722   6.823  12.895
27486W        W99911  26.931  34.867   1.866
27487W        W99912  19.982  14.904  14.772
27488W        W99913  27.624  19.671  11.106
27489W        W99914  30.179  14.284   0.359
27490W        W99915  20.917  37.556   4.248
27491W        W99916  35.373   4.682  12.631
27492W        W99917  36.884  34.036   1.355
27493W        W99918   8.206  15.218  10.721
27494W        W99919  14.670  35.457   0.986
27495W        W99920  16.612  34.495   3.771
27496W        W99921  23.806  25.699   3.660
27497W        W99922  43.001  40.432   4.649
27498W        W99923  35.585  27.020   0.775
27499W        W99924  17.408   4.665  10.449
27500W        W99925  20.016  11.300   2.097
27501W        W99926  20.215  22.408  11.487
27502W        W99927  41.943   5.250   4.278
27503W        W99928  11.344  12.811  12.711
27504W        W99929  19.114  39.300  13.561
27505W        W99930  42.768   5.498   4.469
27506W        W99931  34.931  42.358   1.971
27507W        W99932  16.052  31.011  12.072
27508W        W99933   9.638  32.494   0.824
27509W        W99934  17.587   5.774   1.532
27510W        W99935  26.310  16.274  11.408
27511W        W99936  23.121  43.235  13.123
27512W        W99937  25.609  19.023  13.609
27513W        W99938  43.593  16.332   1.071
27514W        W99939  29.607  24.741   0.921
27515W        W99940  11.070  41.105   1.993
27516W        W99941  44.181  21.968  12.131
27517W        W99942  41.513  21.351   3.297
27518W        W99943  28.946  22.688  14.573
27519W        W99944  28.097  39.810   2.331
27520W        W99945  43.640   4.954   2.845
27521W        W99946   1.276   4.678   2.728
27522W        W99947  43.924  25.110  14.039
27523W        W99948  10.076  23.045  10.678
27524W        W99949  29.475   8.616  12.475
27525W        W99950  34.981  38.530   2.316
27526W        W99951   3.366   4.481   1.169
27527W        W99952  34.598   6.906   0.669
27528W        W99953   6.160  36.979  11.450
27529W        W99954   7.847  28.190   0.289
27530W        W99955  18.143  25.074   0.425
27531W        W99956   8.158  31.915  11.140
27532W        W99957  35.684  27.448  14.016
27533W        W99958  30.543  40.072   4.945
27534W        W99959  34.930  17.958  14.024
27535W        W99960  39.987  40.457   2.865
27536W        W99961  44.917   0.293   3.666
27537W        W99962  40.522  29.152   4.772
27538W        W99963   7.455  36.849   2.803
27539W        W99964   9.457  35.468   3.644
27540W        W99965   5.399  30.989   4.466
27541W        W99966  33.689   3.986   2.556
27542W        W99967  41.480  31.707  14.013
27543W        W99968  16.174  26.158  12.166
27544W        W99969  26.180  44.930   4.766
27545W        W99970  28.503  24.719  10.664
27546W        W99971  28.405  15.661   3.257
27547W        W99972   4.772  29.007   2.238
27548W        W99973  24.083  19.166  11.434
27549W        W99974  29.965   4.478   2.551
27550W        W99975  10.384  29.383  11.644
27551W        W99976  28.278  16.804  12.897
27552W        W99977  44.374  36.456  12.172
27553W        W99978   0.722  40.571   0.160
27554W        W99979  34.062   4.960  10.722
27555W        W99980  24.834  36.877  12.966
27556W        W99981  32.318  25.702   3.169
27557W        W99982   3.888  41.881  13.973
27558W        W99983  43.330  33.206   2.163
27559W        W99984  36.064   0.195  12.608
27560W        W99985  44.145  31.596  11.711
27561W        W99986   0.965  25.636   2.704
27562W        W99987  11.160  14.373   3.304
27563W        W99988  43.587  25.858   3.747
27564W        W99989  34.345  42.926  12.962
27565W        W99990  25.710   9.376   3.704
27566W        W99991  30.088  26.033   4.346
27567W        W99992  39.067  29.424  12.526
27568W        W99993  22.213  34.542  11.379
27569W        W99994  20.883  18.296   0.772
27570W        W99995  23.470   9.374   0.507
27571W        W99996   8.813   9.631   1.916
27572W        W99997  23.408   0.025  12.904
27573W        W99998  17.197   1.982  13.454
27574W        W99999   1.273  17.657   4.108
27575W        W    0   4.942  31.080  12.826
27576W        W    1  13.615   8.924   4.569
27577W        W    2  21.534  31.421  12.591
27578W        W    3   1.889  36.424  14.225
27579W        W    4  31.568  23.229   2.493
27580W        W    5  30.088   6.158  11.750
27581W        W    6  24.177  13.140   4.689
27582W        W    7  26.956  38.787   4.335
27583W        W    8  21.279  16.540   1.434
27584W        W    9  19.961  37.480  12.787
27585W        W   10  10.605  32.535   0.760
27586W        W   11   4.165   3.429  11.145
27587W        W   12   7.659   3.312   2.587
27588W        W   13  41.613  10.677   4.013
27589W        W   14  22.790  32.153  14.144
27590W        W   15   8.687   7.865  13.418
27591W        W   16  38.989  12.108  12.406
27592W        W   17  19.253   5.785   3.700
27593W        W   18  31.676  35.826  14.377
27594W        W   19   9.947  38.811   3.721
27595W        W   20  36.020  28.330   4.318
27596W        W   21  20.085  26.585   3.218
27597W        W   22  18.747  20.604  11.666
27598W        W   23  20.066  18.232  12.935
27599W        W   24  39.818  34.495  11.861
27600W        W   25  14.803  43.199   1.294
27601W        W   26  18.579  41.496   4.828
27602W        W   27   9.696  10.323   3.975
27603W        W   28  28.495   0.192  12.922
27604W        W   29  38.479   9.302   0.889
27605W        W   30  19.167  18.459   2.286
27606W        W   31  40.587  11.247  11.011
27607W        W   32   5.257   7.173   2.139
27608W        W   33  16.842  13.299   2.204
27609W        W   34   3.224  12.527  14.286
27610W        W   35   4.443  16.911  10.598
27611W        W   36   6.734  40.932   1.537
27612W        W   37  36.049   7.498   0.547
27613W        W   38  20.346  16.969   4.116
27614W        W   39  15.701  16.841  10.666
27615W        W   40  13.332  11.169   0.243
27616W        W   41  33.884  26.799   1.389
27617W        W   42  15.833  43.846   0.897
27618W        W   43  26.481  13.730   4.463
27619W        W   44   4.490  31.463   3.063
27620W        W   45  22.354   7.853   1.320
27621W        W   46  12.276   6.949  11.025
27622W        W   47   7.996  29.741   3.704
27623W        W   48   9.877   6.678   0.299
27624W        W   49   0.542  17.785   4.612
27625W        W   50  44.284   2.797   2.437
27626W        W   51  43.409  23.053   0.389
27627W        W   52  39.060   6.153  11.302
27628W        W   53  36.388  31.986   3.035
27629W        W   54   1.390  35.880  14.739
27630W        W   55  18.257  35.874  14.440
27631W        W   56  44.828  11.131   2.251
27632W        W   57  13.350  28.639  13.888
27633W        W   58  13.987  21.130  11.434
27634W        W   59  26.515  29.936   3.418
27635W        W   60  16.799   0.482   0.007
27636W        W   61  36.968  21.074   0.770
27637W        W   62  29.151  25.232   0.420
27638W        W   63  36.547  25.947  12.888
27639W        W   64  27.400  43.378   1.908
27640W        W   65  41.382  31.630   2.902
27641W        W   66  28.459  31.360   0.719
27642W        W   67  16.612  30.002   3.728
27643W        W   68   6.610  12.161   0.687
27644W        W   69  40.562   1.486   1.199
27645W        W   70  35.683  35.611   2.840
27646W        W   71  41.451  36.539   4.793
27647W        W   72  21.791  25.536   2.357
27648W        W   73  36.069   3.840  10.696
27649W        W   74   4.905  37.918   4.878
27650W        W   75   3.085   3.641  10.806
27651W        W   76  26.622  25.078   2.214
27652W        W   77  30.588   3.712   3.154
27653W        W   78  12.704  19.776  12.326
27654W        W   79  36.685  35.415   3.115
27655W        W   80  25.741   8.425   4.539
27656W        W   81  33.770  20.635   3.200
27657W        W   82  11.580  11.236  14.130
27658W        W   83   1.447  15.033   2.757
27659W        W   84  20.573   3.206   2.133
27660W        W   85  12.680   7.567   0.418
27661W        W   86  29.079  33.887  14.352
27662W        W   87  11.212  14.263  13.248
27663W        W   88   6.976  23.961  13.895
27664W        W   89  44.047  20.554  10.731
27665W        W   90  12.895  25.957   0.549
27666W        W   91  15.821  30.425   0.951
27667W        W   92  26.573  27.253  11.080
27668W        W   93   7.668  20.521   2.298
27669W        W   94  33.623  15.324   1.237
27670W        W   95  16.538  32.367   1.387
27671W        W   96  20.040  16.059   0.356
27672W        W   97  29.999  23.546   2.685
27673W        W   98  33.938   4.743   3.030
27674W        W   99  17.121  16.292  13.614
27675W        W  100   2.979  40.284  13.172
27676W        W  101  33.039  31.271  14.414
27677W        W  102  43.520  20.297  11.901
27678W        W  103  44.896  37.789  14.314
27679W        W  104   9.901   5.816  11.421
27680W        W  105  15.712  35.063  12.662
27681W        W  106  29.440  42.432  10.920
27682W        W  107  26.091  19.164  13.517
27683W        W  108  38.399  21.269  11.992
27684W        W  109  21.628  40.945  12.194
27685W        W  110  36.131  34.876   1.388
27686W        W  111  25.480   7.932  12.923
27687W        W  112  19.829  39.317  12.909
27688W        W  113  36.340  14.857   0.306
27689W        W  114  23.645  25.745  11.050
27690W        W  115  18.685   8.689   0.311
27691W        W  116  18.532  35.572  10.372
27692W        W  117  14.621  19.986   1.872
27693W        W  118  35.905  42.004  11.665
27694W        W  119   5.269  12.286   0.410
27695W        W  120  31.034  35.364   3.665
27696W        W  121  20.413   3.319   0.841
27697W        W  122  35.456  35.659   3.703
27698W        W  123  23.178  32.611   0.866
27699W        W  124  17.553  10.384   3.097
27700W        W  125   8.529  27.854   4.947
27701W        W  126  37.935  18.569   4.159
27702W        W  127  14.221   1.639  12.344
27703W        W  128  33.097  21.137   4.663
27704W        W  129   8.736  41.970  11.701
27705W        W  130  22.940  33.111   2.672
27706W        W  131   2.483  20.473  13.002
27707W        W  132  15.757   1.743   0.277
27708W        W  133  43.881  31.389   3.258
27709W        W  134  13.811  19.788   0.385
27710W        W  135  35.200  37.936   2.979
27711W        W  136  42.236  31.029  14.069
27712W        W  137  32.175  31.376  11.622
27713W        W  138  31.553  33.563  14.662
27714W        W  139  42.916  24.695   2.709
27715W        W  140  34.795   5.015  10.947
27716W        W  141  11.796   4.932  12.241
27717W        W  142  13.369  42.612  11.455
27718W        W  143   9.599  38.862  13.434
27719W        W  144  14.020  29.571   3.646
27720W        W  145  44.613  16.819   0.078
27721W        W  146  39.110  39.203  14.032
27722W        W  147  35.221  38.077  11.214
27723W        W  148  40.999  44.481   4.960
27724W        W  149  14.189  43.489   4.563
27725W        W  150  24.949   6.825  10.504
27726W        W  151   9.323  20.059  12.364
27727W        W  152  19.269  29.034   4.147
27728W        W  153   7.616   4.947  11.254
27729W        W  154  36.780  16.122   0.210
27730W        W  155  28.020  38.847   0.469
27731W        W  156  39.130  36.904  11.637
27732W        W  157  44.854  39.544   2.886
27733W        W  158  36.448  13.318  13.951
27734W        W  159   5.163  11.512   0.720
27735W        W  160  15.191  18.655  10.753
27736W        W  161  29.491  19.776  13.903
27737W        W  162  17.288  24.054   4.583
27738W        W  163   9.574  21.249   2.110
27739W        W  164  23.116  35.182  10.604
27740W        W  165  32.191  12.860   3.270
27741W        W  166   5.830   1.883  14.925
27742W        W  167  22.609  23.505  14.935
27743W        W  168  31.809  24.082   4.697
27744W        W  169  30.530  34.973  10.581
27745W        W  170  40.879  32.111  11.643
27746W        W  171  34.747  41.451   3.746
27747W        W  172  25.570  39.703   1.341
27748W        W  173  18.706  41.539   1.977
27749W        W  174  16.144  28.211   4.165
27750W        W  175  25.183  25.183  11.416
27751W        W  176  43.794  16.365   0.229
27752W        W  177  41.499   3.952   3.187
27753W        W  178  15.626  18.615  10.472
27754W        W  179  37.231  23.056   5.412
27755W        W  180   2.586   3.736  10.643
27756W        W  181  37.520   5.760   4.451
27757W        W  182   9.363  14.417   4.973
27758W        W  183   5.931  29.887  14.593
27759W        W  184  43.265  33.469  12.561
27760W        W  185  33.184   0.822   3.693
27761W        W  186  26.662   0.810  14.906
27762W        W  187   3.041  10.827  13.795
27763W        W  188  31.651  22.723   2.562
27764W        W  189  26.942  11.546   3.198
27765W        W  190  40.506  39.929  12.171
27766W        W  191  26.706  10.434  12.847
27767W        W  192  26.982  37.393   2.036
27768W        W  193  16.188  32.146  12.487
27769W        W  194  38.400  39.784  14.832
27770W        W  195  36.579  25.003  11.021
27771W        W  196  10.589  28.441   1.385
27772W        W  197  33.490  43.062   4.532
27773W        W  198   8.356  39.062   0.348
27774W        W  199  20.984  12.148   4.548
27775W        W  200   7.823  18.059  10.898
27776W        W  201   4.332  11.746   0.337
27777W        W  202  31.421  38.380  11.038
27778W        W  203  24.515   2.834   2.384
27779W        W  204  16.829  43.936   1.324
27780W        W  205  18.215  32.262   5.466
27781W        W  206   0.742  26.153  14.923
27782W        W  207  19.807  28.913  11.948
27783W        W  208  40.749  44.332   3.273
27784W        W  209  26.703   7.951  13.814
27785W        W  210  27.861  44.912   4.719
27786W        W  211  21.384   8.341   1.257
27787W        W  212  30.639  13.894  12.002
27788W        W  213  15.253   3.786   4.806
27789W        W  214  25.760   5.085   2.893
27790W        W  215  16.223  18.333  11.564
27791W        W  216  22.673  12.565  10.092
27792W        W  217  39.505   8.833  12.802
27793W        W  218  41.506  11.621  12.559
27794W        W  219  23.698  23.168   3.598
27795W        W  220  44.885  23.591  12.733
27796W        W  221  39.906  15.752   3.726
27797W        W  222   2.747  23.663   4.570
27798W        W  223  25.453  24.750  13.536
27799W        W  224  21.310  39.930   3.065
27800W        W  225   5.146  25.470   2.354
27801W        W  226  25.022   8.889  12.108
27802W        W  227  30.015   6.312   4.329
27803W        W  228  10.737  26.673   1.905
27804W        W  229  43.820  17.748  10.697
27805W        W  230  25.640  30.490   3.515
27806W        W  231  26.432  15.295   3.284
27807W        W  232  11.235  23.843   0.456
27808W        W  233   4.427  28.191   3.764
27809W        W  234  24.490  35.916   0.489
27810W        W  235   2.216   3.773   0.341
27811W        W  236  17.258  25.160  13.582
27812W        W  237  25.589  26.677   0.681
27813W        W  238  13.141  39.905  10.276
27814W        W  239  30.520  18.027   4.617
27815W        W  240  39.918  40.754  14.342
27816W        W  241  35.790  22.887   4.615
27817W        W  242  28.694  41.408   1.490
27818W        W  243  18.539   0.820   4.788
27819W        W  244   1.990  13.736   3.224
27820W        W  245  39.775  30.689  13.511
27821W        W  246   8.708  33.514   2.252
27822W        W  247   2.283  30.638  12.555
27823W        W  248  31.604  30.032   3.899
27824W        W  249  39.602  18.164  14.841
27825W        W  250  44.060  37.066  12.583
27826W        W  251   4.263   4.705   2.161
27827W        W  252  32.271   1.380  11.574
27828W        W  253  18.289  39.415   1.595
27829W        W  254   8.759  32.392  14.820
27830W        W  255  10.606  17.246  11.373
27831W        W  256  30.137  27.613  12.037
27832W        W  257  25.906  32.024   4.470
27833W        W  258   6.231   2.122   3.088
27834W        W  259  42.918  33.464   0.284
27835W        W  260  11.529   8.300  10.276
27836W        W  261  17.305   1.820  12.068
27837W        W  262  39.816  37.108   3.720
27838W        W  263  30.391  10.211   1.670
27839W        W  264   5.420  12.679   1.266
27840W        W  265  39.199  21.952   4.488
27841W        W  266  32.012   8.732  14.324
27842W        W  267   9.497   9.121   1.636
27843W        W  268   1.551  23.238  12.749
27844W        W  269  18.301   6.419   4.357
27845W        W  270  15.685   3.300   2.178
27846W        W  271   4.748  39.377  11.585
27847W        W  272  10.009  10.268  10.607
27848W        W  273  38.941  24.480  14.815
27849W        W  274   1.692  13.119  12.096
27850W        W  275  13.278   9.750  12.092
27851W        W  276   6.794   3.810  13.474
27852W        W  277  31.421   7.198   3.720
27853W        W  278  40.748  28.163  14.762
27854W        W  279  20.928  17.085   3.741
27855W        W  280   6.897  30.430   1.827
27856W        W  281  30.562  13.406   4.091
27857W        W  282  23.696  27.100  14.907
27858W        W  283  24.280  33.369  13.412
27859W        W  284  41.955  30.332   4.138
27860W        W  285  10.232  21.234   0.336
27861W        W  286  44.911  21.205   4.877
27862W        W  287   9.818   5.694   0.655
27863W        W  288  16.412  12.891  13.810
27864W        W  289  10.131  16.063  12.421
27865W        W  290  26.061  21.540  12.401
27866W        W  291  42.548  34.810  11.073
27867W        W  292  36.844  33.101   1.258
27868W        W  293  13.506  30.630   2.874
27869W        W  294  21.626   4.517   4.632
27870W        W  295   1.003  23.441  11.209
27871W        W  296  23.306  35.865   4.068
27872W        W  297  43.727   2.269  13.730
27873W        W  298  42.969  37.914  11.623
27874W        W  299  19.995  31.501   2.814
27875W        W  300  41.565  19.365  11.719
27876W        W  301  27.020   6.537   0.765
27877W        W  302   4.543  32.518   1.380
27878W        W  303  35.932  23.013  14.876
27879W        W  304  26.690  25.006  11.191
27880W        W  305  31.421  44.698  12.847
27881W        W  306   4.844  28.178   1.021
27882W        W  307   3.972  10.854   4.004
27883W        W  308  20.229  42.091  13.903
27884W        W  309  32.584  37.491   1.166
27885W        W  310  18.563  20.817  12.097
27886W        W  311  18.590  42.487  12.931
27887W        W  312  10.601  40.751   2.860
27888W        W  313  42.921  15.021  14.849
27889W        W  314   8.693  11.791  11.666
27890W        W  315   5.776   0.913  13.786
27891W        W  316   3.676  30.701   4.333
27892W        W  317   5.703  10.202  14.070
27893W        W  318   5.560  39.386  14.457
27894W        W  319  42.340  39.107  11.522
27895W        W  320   0.404   8.727   1.054
27896W        W  321   1.040  31.834  11.099
27897W        W  322  29.224  24.957   4.920
27898W        W  323  39.482  30.078   2.648
27899W        W  324  43.729  35.482  14.910
27900W        W  325  19.285   9.693  11.549
27901W        W  326  34.428  24.796  13.293
27902W        W  327  23.567   0.132   3.182
27903W        W  328   7.874   1.358  13.116
27904W        W  329   0.943  27.977  12.988
27905W        W  330  40.786   5.099   1.202
27906W        W  331   7.743  26.192   1.804
27907W        W  332   3.226   7.856  12.587
27908W        W  333  20.671  18.215  13.835
27909W        W  334  39.123   6.725  10.685
27910W        W  335  41.757  18.018   4.567
27911W        W  336  10.999  12.865  13.646
27912W        W  337   6.455  29.005  10.676
27913W        W  338  17.705   9.197   0.429
27914W        W  339  31.522  31.104  10.668
27915W        W  340  44.388  40.390   3.111
27916W        W  341  10.320  11.971   0.875
27917W        W  342  33.400  18.273  10.677
27918W        W  343  42.737  21.995  11.199
27919W        W  344   5.809  31.006  11.573
27920W        W  345   7.630   3.709   4.113
27921W        W  346  15.372  12.612  14.326
27922W        W  347  11.867  36.518   1.231
27923W        W  348  30.881  18.030   2.918
27924W        W  349  33.941   7.753  14.955
27925W        W  350  22.484  21.104  13.855
27926W        W  351  27.219  43.823   4.274
27927W        W  352   8.195   4.861   0.984
27928W        W  353  40.800   9.941  12.461
27929W        W  354  23.780  42.457   3.163
27930W        W  355  25.011  43.932   4.583
27931W        W  356   9.754   8.287  11.133
27932W        W  357  12.720  21.540   3.523
27933W        W  358  39.383   8.373  12.525
27934W        W  359  29.401  28.563  13.355
27935W        W  360  43.201  10.427   1.197
27936W        W  361   6.844  35.863   4.256
27937W        W  362  12.398   0.292   2.686
27938W        W  363   0.203   9.093  14.823
27939W        W  364  25.143  34.010  11.629
27940W        W  365  28.740  42.814  14.976
27941W        W  366  42.619   4.931   2.815
27942W        W  367  41.136  37.267   4.291
27943W        W  368  22.778   4.674  11.941
27944W        W  369  18.178   2.481   5.037
27945W        W  370  28.391  38.414  14.534
27946W        W  371  24.560  39.933   3.841
27947W        W  372  29.478  40.506  14.777
27948W        W  373  29.006  14.816  11.543
27949W        W  374   2.737  29.418  12.559
27950W        W  375  41.988  14.368  11.590
27951W        W  376   7.543  43.167  10.120
27952W        W  377  33.444  16.660  11.551
27953W        W  378   0.172  11.757  14.723
27954W        W  379   1.817  20.775  11.962
27955W        W  380  22.267  19.138  11.481
27956W        W  381  25.448  17.047   3.059
27957W        W  382   4.038  31.170  11.074
27958W        W  383  22.069  31.196   4.687
27959W        W  384  19.088   7.992  14.144
27960W        W  385  17.757  19.984  14.019
27961W        W  386  11.791  21.798   0.024
27962W        W  387  17.797   9.082   4.201
27963W        W  388  37.740  12.048   0.104
27964W        W  389  39.605  25.070  14.009
27965W        W  390  29.097  27.996  10.637
27966W        W  391  26.887  44.465  11.233
27967W        W  392  28.717  23.810   4.443
27968W        W  393  22.141  43.020   2.849
27969W        W  394  39.484  30.098   0.200
27970W        W  395  21.811   4.632  12.050
27971W        W  396   7.406  40.631   0.298
27972W        W  397  31.525   7.480  11.294
27973W        W  398  28.384  36.981  10.684
27974W        W  399   8.382   0.499  13.926
27975W        W  400  25.030  16.120   3.374
27976W        W  401  37.935  13.840   1.735
27977W        W  402  28.131  14.050  13.037
27978W        W  403  25.304  37.369  11.147
27979W        W  404  28.722  42.836  14.067
27980W        W  405  15.956  43.762   5.122
27981W        W  406   9.177  29.052  13.373
27982W        W  407   4.405  12.838  12.589
27983W        W  408  28.643  32.961   0.193
27984W        W  409   5.919  20.531  14.517
27985W        W  410  18.003  19.776  12.977
27986W        W  411  28.028  24.023  11.694
27987W        W  412  41.802  11.480   3.036
27988W        W  413  30.778  35.887  14.420
27989W        W  414  23.383   6.514   1.207
27990W        W  415  29.370   6.766   0.830
27991W        W  416  33.111   1.994  11.183
27992W        W  417  26.527  23.658  10.307
27993W        W  418  12.752  10.891   0.407
27994W        W  419   4.635  35.052  13.862
27995W        W  420   7.437  44.445  11.198
27996W        W  421  18.722  44.352  13.122
27997W        W  422   8.775  35.041   1.298
27998W        W  423   2.305  27.922  10.490
27999W        W  424  22.140  37.646   0.233
28000W        W  425   0.895  12.856  14.456
28001W        W  426  41.201  17.250  11.493
28002W        W  427   9.128  38.333   3.169
28003W        W  428  40.810  25.672   0.043
28004W        W  429  35.790  41.554  10.590
28005W        W  430   6.178   1.712  14.292
28006W        W  431  36.906   9.341   1.231
28007W        W  432  25.285  32.717   3.629
28008W        W  433  35.093  38.131  14.992
28009W        W  434  39.633  10.690   0.324
28010W        W  435  21.713  39.158  11.093
28011W        W  436   6.696  40.328  11.903
28012W        W  437   5.260  42.422   0.370
28013W        W  438  43.964  37.691  12.567
28014W        W  439   1.651  10.391   0.463
28015W        W  440  23.629   3.443  10.388
28016W        W  441   8.294   1.805   2.399
28017W        W  442  40.354   4.440  14.833
28018W        W  443  23.442   1.515   4.124
28019W        W  444  36.665  27.251   3.614
28020W        W  445  35.287  41.405   5.091
28021W        W  446  19.948  23.686   0.337
28022W        W  447  39.467   0.018   3.460
28023W        W  448  36.677  41.944   2.843
28024W        W  449  39.974  40.511  10.385
28025W        W  450  22.567   6.615   1.378
28026W        W  451  20.506  28.619   4.377
28027W        W  452  10.739   0.852  12.533
28028W        W  453   9.068  34.581   4.928
28029W        W  454  19.841  27.508   3.723
28030W        W  455   2.246   5.123   1.753
28031W        W  456  30.112   8.459  13.039
28032W        W  457  14.302  18.663  14.999
28033W        W  458  32.520   6.497  12.634
28034W        W  459  44.223  21.085   3.657
28035W        W  460  18.743  39.246  10.380
28036W        W  461   5.240  30.640  14.942
28037W        W  462  20.645  17.119   2.400
28038W        W  463  16.181  35.870  11.845
28039W        W  464  43.293  42.327  12.821
28040W        W  465   1.879  24.680  12.817
28041W        W  466  44.226  18.089  14.713
28042W        W  467   5.151  35.907   2.938
28043W        W  468  11.925  35.874   4.644
28044W        W  469  16.580   4.250  11.892
28045W        W  470  38.772  12.797   0.773
28046W        W  471   7.902  44.226   3.706
28047W        W  472   1.902  18.164   1.362
28048W        W  473  32.902  20.227   0.158
28049W        W  474  38.043  29.900  12.526
28050W        W  475  25.615  15.098   1.845
28051W        W  476  11.802  34.095  14.585
28052W        W  477   9.610  39.971   4.482
28053W        W  478  40.900  18.574   0.847
28054W        W  479   5.189  26.995   2.834
28055W        W  480  16.644  24.754   2.360
28056W        W  481  14.712   7.836  14.402
28057W        W  482  25.208   8.567   0.242
28058W        W  483  40.581  10.469  12.932
28059W        W  484  24.516  37.550   2.697
28060W        W  485   1.922   7.990   3.760
28061W        W  486  37.067   6.350   3.303
28062W        W  487  17.684  41.880   0.949
28063W        W  488  32.036  40.969  13.140
28064W        W  489  40.286  30.001  12.957
28065W        W  490  34.969  16.961   2.066
28066W        W  491  32.819   9.616  14.910
28067W        W  492   6.273  24.020   4.783
28068W        W  493  28.150  35.522  13.443
28069W        W  494   8.865  35.455   4.515
28070W        W  495   3.322  29.860   0.760
28071W        W  496   7.834  30.518   1.789
28072W        W  497   3.954  11.214   3.377
28073W        W  498  40.049   2.651   3.755
28074W        W  499  34.713   0.023   3.442
28075W        W  500  16.271  16.386  13.581
28076W        W  501  32.574  34.452   3.828
28077W        W  502  36.126   7.129   4.122
28078W        W  503   8.730   1.773   0.544
28079W        W  504  12.783  25.304   4.891
28080W        W  505   1.480  20.424  11.694
28081W        W  506   4.977  19.174  14.326
28082W        W  507  31.194  25.515   1.323
28083W        W  508   1.961   6.439  10.771
28084W        W  509  35.086  29.020   4.148
28085W        W  510  25.960  13.387   1.935
28086W        W  511  44.618  39.440   1.531
28087W        W  512  44.653  14.157   1.626
28088W        W  513  23.162  42.907   2.750
28089W        W  514   8.436  21.245  14.464
28090W        W  515  10.151  12.622  12.087
28091W        W  516  34.085  20.646  13.088
28092W        W  517   2.026  13.312  11.719
28093W        W  518  23.675   7.724   4.762
28094W        W  519   9.744  43.525   3.143
28095W        W  520  44.882  39.912   1.487
28096W        W  521  12.772  29.677   4.509
28097W        W  522  12.867   3.904  13.583
28098W        W  523  41.497  10.897   0.002
28099W        W  524   0.704  17.581  10.636
28100W        W  525  22.555  42.424   4.920
28101W        W  526   3.690  22.107   4.296
28102W        W  527  44.920  15.097   2.812
28103W        W  528  41.508  17.152  14.211
28104W        W  529   9.432   7.146  12.051
28105W        W  530  30.443   8.561  14.378
28106W        W  531  16.167   5.720  13.497
28107W        W  532   8.643  12.822   3.200
28108W        W  533  25.462  26.112  10.624
28109W        W  534  33.065  10.794   2.175
28110W        W  535  27.960  38.338   1.232
28111W        W  536  32.073  23.340  10.245
28112W        W  537  32.969  32.991  13.727
28113W        W  538  16.076  12.812  12.053
28114W        W  539  19.508  13.224  13.445
28115W        W  540  30.480   6.221   0.410
28116W        W  541  30.008  16.879   2.342
28117W        W  542   2.715   3.918  11.102
28118W        W  543  10.161  24.008  10.881
28119W        W  544  25.013  17.094   3.325
28120W        W  545  13.249   9.783  10.701
28121W        W  546  30.617   0.570   0.954
28122W        W  547  40.422  22.696  12.789
28123W        W  548  40.966  19.827   4.255
28124W        W  549  42.936   8.240   3.272
28125W        W  550  41.859   5.230  11.495
28126W        W  551  37.037  25.537   4.725
28127W        W  552  35.963  42.819   1.179
28128W        W  553  44.832  42.359   4.378
28129W        W  554  33.848  15.272  13.513
28130W        W  555  30.111  20.835  13.085
28131W        W  556   6.542  44.915   4.565
28132W        W  557  10.025   7.852  14.910
28133W        W  558  11.286  34.707  11.910
28134W        W  559  40.093  11.650   4.079
28135W        W  560  20.212  12.858   3.748
28136W        W  561  44.345  31.379   1.613
28137W        W  562   3.030  42.575  13.811
28138W        W  563   6.062  18.708  14.979
28139W        W  564   8.296  34.462   1.784
28140W        W  565   4.860  26.427   0.329
28141W        W  566  27.591  26.765   2.765
28142W        W  567  20.730  26.639  14.948
28143W        W  568  44.855  33.813   3.363
28144W        W  569  12.783  33.543   0.202
28145W        W  570   9.825   8.790   4.228
28146W        W  571   2.229   9.823  11.175
28147W        W  572  36.701  40.428   0.035
28148W        W  573  20.265  13.175   4.300
28149W        W  574   1.430  27.542   0.796
28150W        W  575  42.976  31.562  10.793
28151W        W  576  34.025  36.500  11.918
28152W        W  577  30.708  27.105  10.663
28153W        W  578  41.715  25.650  14.294
28154W        W  579  40.081   1.412   0.283
28155W        W  580  31.393  12.808  11.088
28156W        W  581  35.508  15.318   0.510
28157W        W  582  34.037  11.785  10.739
28158W        W  583  43.809   8.684  12.008
28159W        W  584  37.225  16.309  12.909
28160W        W  585  39.371  13.672  12.353
28161W        W  586  15.704  35.923  13.129
28162W        W  587  22.556  16.145  14.715
28163W        W  588   5.447  43.879   3.723
28164W        W  589   2.318  12.147  12.525
28165W        W  590  18.084   6.754  11.623
28166W        W  591  44.885  36.966  14.939
28167W        W  592   5.167  24.545   0.392
28168W        W  593   1.736  39.058   4.251
28169W        W  594  15.678   4.777  12.010
28170W        W  595  33.613   0.472  14.792
28171W        W  596  34.364  19.585  13.026
28172W        W  597  25.600   8.170   2.148
28173W        W  598  14.112  15.248   1.867
28174W        W  599   0.895  44.206  11.622
28175W        W  600  33.074  12.125   1.987
28176W        W  601  13.807  39.986  12.195
28177W        W  602  40.097  15.866  11.685
28178W        W  603  27.923  22.860   0.545
28179W        W  604  24.505  31.385  14.217
28180W        W  605  30.681  30.917  13.614
28181W        W  606  44.025  18.543  11.140
28182W        W  607  17.664  30.019  10.689
28183W        W  608   3.335  39.892   0.002
28184W        W  609  43.909  15.829  12.888
28185W        W  610  25.688  23.301  14.502
28186W        W  611  26.038  11.201   2.655
28187W        W  612   0.182   5.673  12.581
28188W        W  613  35.026  24.379   4.699
28189W        W  614  15.184  32.691  10.525
28190W        W  615  32.431  15.567  13.422
28191W        W  616  16.795   5.321   1.356
28192W        W  617  34.992  21.851   2.246
28193W        W  618   3.915  17.393  11.895
28194W        W  619  41.259   3.921   2.728
28195W        W  620  43.396  30.933   4.341
28196W        W  621   1.208  17.385   1.159
28197W        W  622  28.693   0.371  14.275
28198W        W  623  10.164   8.287  12.916
28199W        W  624   6.190  28.239   1.296
28200W        W  625  35.166  15.258   3.370
28201W        W  626  25.749  25.608   3.677
28202W        W  627  36.911   1.914  13.396
28203W        W  628   3.278  25.894   1.909
28204W        W  629  24.706   7.476  11.415
28205W        W  630  39.387  17.643  13.121
28206W        W  631  18.607  15.610  14.576
28207W        W  632  42.676  17.371   1.195
28208W        W  633  22.971  42.569   0.822
28209W        W  634   8.872   4.279   2.827
28210W        W  635  14.554  30.649  14.475
28211W        W  636  31.127   3.786   3.028
28212W        W  637  22.128  11.182  14.679
28213W        W  638   6.003   9.388   2.196
28214W        W  639  41.921  42.555  14.481
28215W        W  640  27.507  40.397  11.668
28216W        W  641  20.815   0.674   4.090
28217W        W  642   5.860   4.376  10.720
28218W        W  643  13.314   4.334   1.806
28219W        W  644  32.459  37.057  13.386
28220W        W  645  38.190  22.247   4.726
28221W        W  646  16.132  43.576  13.802
28222W        W  647  24.037   6.599   3.736
28223W        W  648  29.559  27.016  14.727
28224W        W  649  42.369  37.835   3.211
28225W        W  650  22.060   2.723   3.230
28226W        W  651  28.688  30.050  13.753
28227W        W  652  43.909  29.160   4.944
28228W        W  653  34.073  40.199  13.962
28229W        W  654   0.762  43.815   2.359
28230W        W  655  14.205   0.437   4.009
28231W        W  656   8.869  43.526  11.267
28232W        W  657  21.247  33.824  10.666
28233W        W  658  32.198  37.802   3.233
28234W        W  659   4.412   8.236   1.091
28235W        W  660  18.703  16.205   1.513
28236W        W  661  17.272  14.014   2.912
28237W        W  662  14.599   4.481   3.774
28238W        W  663  41.073  43.347  13.642
28239W        W  664  32.650  29.059  13.334
28240W        W  665  19.480   2.286   4.596
28241W        W  666  17.341  24.079   3.107
28242W        W  667  14.499  34.391  12.878
28243W        W  668  44.547  35.402   3.812
28244W        W  669  20.008  22.150  11.074
28245W        W  670   0.513  21.264  14.871
28246W        W  671  23.075  15.143  14.438
28247W        W  672  27.715  31.341  14.795
28248W        W  673  20.299  42.362   2.738
28249W        W  674   3.922  35.031   4.199
28250W        W  675  30.207  30.106   0.676
28251W        W  676  17.206  21.077  10.002
28252W        W  677  42.748  35.394  10.536
28253W        W  678  16.727  33.959  12.419
28254W        W  679  12.467  43.353   3.283
28255W        W  680  19.804  33.080   1.050
28256W        W  681  39.478  32.951  13.973
28257W        W  682  42.981  35.476  12.800
28258W        W  683  35.822  27.417   1.018
28259W        W  684  21.199  41.856   0.871
28260W        W  685   4.259  40.729  11.514
28261W        W  686  23.998  16.316   1.251
28262W        W  687  41.049  32.061   1.852
28263W        W  688  11.940  36.017   1.093
28264W        W  689   9.731  12.070  11.959
28265W        W  690  19.607  13.332  11.993
28266W        W  691  32.177   5.144  11.620
28267W        W  692   3.441  32.711   3.382
28268W        W  693  13.355  14.080  13.916
28269W        W  694   5.847  10.362   3.148
28270W        W  695  10.837   0.324  13.293
28271W        W  696   0.470  19.764   0.302
28272W        W  697   3.384  13.419   0.315
28273W        W  698   9.339  36.063   5.151
28274W        W  699  44.628   1.395   2.808
28275W        W  700  28.945  43.346   2.094
28276W        W  701   1.748  44.431   2.001
28277W        W  702  38.174  39.935  11.973
28278W        W  703  33.047  43.534  11.695
28279W        W  704  21.299  35.290  13.461
28280W        W  705  26.535  42.937   4.065
28281W        W  706  37.641  44.837  11.834
28282W        W  707  24.470  32.599   3.157
28283W        W  708  38.872  18.511   3.201
28284W        W  709   2.491   6.424  12.078
28285W        W  710  26.184  13.800   0.899
28286W        W  711  40.452  32.448   4.886
28287W        W  712   6.467  29.496  13.788
28288W        W  713  15.927  12.729   1.216
28289W        W  714  17.207  26.414   4.748
28290W        W  715  40.528  12.087  11.211
28291W        W  716  15.737  26.989  11.966
28292W        W  717   4.946  17.618   2.131
28293W        W  718   5.282  31.608  13.807
28294W        W  719  21.616  13.737  14.058
28295W        W  720   0.452  14.709   3.329
28296W        W  721  22.752  44.830  11.673
28297W        W  722   2.029   6.761   1.382
28298W        W  723  16.653   3.456   3.255
28299W        W  724  23.931  16.540  12.221
28300W        W  725  44.942   5.739   2.335
28301W        W  726  21.049   0.920  10.993
28302W        W  727  24.534  23.493   4.508
28303W        W  728   5.873  14.199  10.389
28304W        W  729  21.367   3.982  12.596
28305W        W  730  44.000  25.277  10.263
28306W        W  731  10.015  19.250   2.274
28307W        W  732  16.513  35.218   0.871
28308W        W  733  12.185   0.224  12.480
28309W        W  734  24.508  17.290   3.060
28310W        W  735  12.392   7.306  14.388
28311W        W  736  35.251   9.554   1.729
28312W        W  737  17.312  13.237   4.975
28313W        W  738  21.189  40.325  10.317
28314W        W  739  36.961  35.444   2.308
28315W        W  740  33.553  30.416   4.203
28316W        W  741  32.149  17.554  11.165
28317W        W  742  41.824   6.734   1.735
28318W        W  743  36.868  22.255   5.414
28319W        W  744   5.217   0.770   4.563
28320W        W  745   2.247  37.871  12.000
28321W        W  746  25.226  37.481  14.240
28322W        W  747  36.104  24.075  12.371
28323W        W  748  32.410  36.046  12.443
28324W        W  749   8.570  38.385  13.821
28325W        W  750  37.389  15.191  10.731
28326W        W  751  36.102  38.093   1.750
28327W        W  752   5.337   2.380   1.854
28328W        W  753   2.283  31.992  14.992
28329W        W  754   8.415  27.634   0.193
28330W        W  755  28.718  16.683  14.808
28331W        W  756   7.144  14.250  11.239
28332W        W  757  24.586   3.391   0.974
28333W        W  758  15.240  14.828   2.739
28334W        W  759  26.940  21.736  14.682
28335W        W  760  44.095  41.005   2.609
28336W        W  761   5.724  38.813  13.035
28337W        W  762   6.454  16.840  11.526
28338W        W  763   2.911   4.923   0.428
28339W        W  764   0.982  36.845  13.880
28340W        W  765  35.382  32.030   0.778
28341W        W  766   1.259   9.860  13.052
28342W        W  767   8.914  36.830   4.221
28343W        W  768  44.689  18.712  14.214
28344W        W  769  30.774   6.982  12.096
28345W        W  770  17.844  17.731   1.770
28346W        W  771   3.083  28.198  10.749
28347W        W  772   2.324  43.058   2.503
28348W        W  773  17.143  33.316   3.411
28349W        W  774  29.555  20.157  13.562
28350W        W  775  41.429   4.159   2.286
28351W        W  776   2.316  26.020   4.659
28352W        W  777  36.687  22.209  14.314
28353W        W  778  44.771   0.766   3.796
28354W        W  779   9.824  29.457  13.816
28355W        W  780   8.724   2.917   2.131
28356W        W  781  23.473  10.384  14.705
28357W        W  782  19.051   4.034  14.881
28358W        W  783   4.270   1.245  10.389
28359W        W  784  40.613   6.482   3.568
28360W        W  785  11.695  18.285   3.398
28361W        W  786   8.712   2.898  13.019
28362W        W  787  28.375  24.192   0.256
28363W        W  788  31.320   1.532   0.521
28364W        W  789   3.135  15.702  14.435
28365W        W  790  40.261   3.525   2.178
28366W        W  791  24.415   3.247  12.980
28367W        W  792  38.443  26.500   1.463
28368W        W  793  28.219  22.204  10.733
28369W        W  794  15.864  27.756   3.724
28370W        W  795  15.815  18.412  12.484
28371W        W  796  18.740  42.176   2.772
28372W        W  797   2.709  10.307  11.441
28373W        W  798  35.408  37.058   3.718
28374W        W  799  23.102  39.852  14.422
28375W        W  800   7.043  35.455  13.032
28376W        W  801  44.267  31.919  12.979
28377W        W  802  21.107  20.328   4.552
28378W        W  803   7.440   1.985   0.489
28379W        W  804  34.449   6.244   4.438
28380W        W  805  25.160  17.596  14.001
28381W        W  806  27.635   2.430   4.152
28382W        W  807   7.873  38.220  12.011
28383W        W  808  39.492  43.059   1.790
28384W        W  809  27.601  30.199  11.018
28385W        W  810  31.252  41.415   1.301
28386W        W  811  42.540  19.659  12.633
28387W        W  812   5.646  23.892  14.026
28388W        W  813   7.506  14.650  13.307
28389W        W  814   1.749   8.307   4.129
28390W        W  815  11.288  37.569   2.107
28391W        W  816  40.882  41.672   4.061
28392W        W  817  36.823   8.882   1.471
28393W        W  818  42.908   8.448  12.144
28394W        W  819   0.906  11.547   2.478
28395W        W  820  29.015  24.189   0.396
28396W        W  821   2.341  35.041  11.660
28397W        W  822  38.583  31.375   0.861
28398W        W  823  36.577  32.425   3.280
28399W        W  824  44.937  28.531   1.324
28400W        W  825  16.575  37.481   4.581
28401W        W  826  29.135   7.934   4.032
28402W        W  827  13.096  15.727   1.909
28403W        W  828  24.778  42.041   0.955
28404W        W  829  26.094   4.738  12.548
28405W        W  830   6.191   6.791   4.841
28406W        W  831  31.186  16.736  10.629
28407W        W  832  23.268  44.986  10.495
28408W        W  833   8.188   5.924   0.852
28409W        W  834   8.552  34.539  11.979
28410W        W  835  17.247  37.087   1.904
28411W        W  836   7.475  11.668  11.676
28412W        W  837  39.896  19.069  14.981
28413W        W  838  16.408   8.743  14.449
28414W        W  839   8.719  23.440   3.888
28415W        W  840  22.100  15.709   1.138
28416W        W  841  18.780  32.617   2.875
28417W        W  842  12.697  19.843   2.211
28418W        W  843  21.916  21.187  13.033
28419W        W  844  28.166  43.074  11.540
28420W        W  845  40.916  25.617   4.164
28421W        W  846  21.123  13.038   2.228
28422W        W  847  26.182  30.147  11.093
28423W        W  848  42.464  21.572   2.934
28424W        W  849  43.856  38.029  11.486
28425W        W  850  20.110  12.225   0.733
28426W        W  851  29.470  25.629  11.635
28427W        W  852  35.942  24.175  11.428
28428W        W  853  40.706  22.249   0.115
28429W        W  854  26.962  42.471  12.646
28430W        W  855  21.610  15.630  13.520
28431W        W  856  28.874  17.173   0.337
28432W        W  857  11.849  16.626  14.370
28433W        W  858  14.794  18.548   1.719
28434W        W  859  24.971   9.829   2.072
28435W        W  860   6.804   0.258   4.245
28436W        W  861   2.163  30.458  11.684
28437W        W  862   4.928  42.504  13.816
28438W        W  863  26.012  22.967   1.807
28439W        W  864   9.272  21.723   0.373
28440W        W  865  29.656  28.799  11.589
28441W        W  866  22.330  34.913   4.258
28442W        W  867  12.964  28.951   4.159
28443W        W  868  17.282   1.846  12.911
28444W        W  869  26.128  26.896  12.097
28445W        W  870  38.884  21.358  13.965
28446W        W  871   5.855  35.921   1.560
28447W        W  872  25.168  29.399   0.824
28448W        W  873  32.824   2.903  10.890
28449W        W  874   6.165  14.553   3.879
28450W        W  875  33.399  36.393  12.582
28451W        W  876   8.671  25.915   1.357
28452W        W  877  32.027  26.665  12.318
28453W        W  878  33.026  26.395   5.049
28454W        W  879  11.210  29.264  11.481
28455W        W  880  13.861  18.166  10.638
28456W        W  881  12.776  27.138  14.830
28457W        W  882   6.297  43.863   3.430
28458W        W  883  21.020  34.631   0.397
28459W        W  884  37.772  15.837  11.098
28460W        W  885  24.555  31.132   1.350
28461W        W  886  16.762  33.493  10.736
28462W        W  887  29.601   4.038   3.782
28463W        W  888   4.165   8.274   0.647
28464W        W  889  10.870   1.282  12.842
28465W        W  890  21.067  16.685  14.290
28466W        W  891  29.097  22.204   4.896
28467W        W  892  25.985  41.347   0.948
28468W        W  893  22.432  13.370   4.098
28469W        W  894  26.673  37.524   0.280
28470W        W  895   8.947  10.341  13.540
28471W        W  896  17.842  39.537   2.700
28472W        W  897  29.100  43.742   4.736
28473W        W  898  16.232  44.778   1.454
28474W        W  899  33.383  19.316   4.106
28475W        W  900  12.909  11.337   3.274
28476W        W  901  27.559  31.598   4.847
28477W        W  902   8.376  14.573  12.903
28478W        W  903  20.278  15.266   0.687
28479W        W  904  11.886  41.224   2.838
28480W        W  905   0.929  13.603  13.522
28481W        W  906   3.820   1.471  14.483
28482W        W  907   4.434  34.458  10.860
28483W        W  908  10.197  20.772  13.380
28484W        W  909  35.035   3.714   3.687
28485W        W  910   2.902   8.576  11.588
28486W        W  911   7.011  32.927   4.780
28487W        W  912  12.120  13.879  13.963
28488W        W  913  31.419   2.632  14.462
28489W        W  914  39.525  36.961   0.471
28490W        W  915   9.786  28.864  10.664
28491W        W  916  15.126  13.038   4.605
28492W        W  917  31.124  31.763   4.908
28493W        W  918  21.597  31.411   3.362
28494W        W  919  13.800  35.563   1.325
28495W        W  920  18.245  21.125   4.630
28496W        W  921  22.427  22.984  14.796
28497W        W  922   6.879  40.574  14.531
28498W        W  923  25.652  27.579  13.468
28499W        W  924  10.884  39.813  11.085
28500W        W  925  27.970  26.311   5.109
28501W        W  926  37.114   0.753   4.241
28502W        W  927   6.799  29.985  11.156
28503W        W  928  25.772  28.862  11.169
28504W        W  929   3.506   9.710  14.074
28505W        W  930  32.893  18.523   1.128
28506W        W  931  19.153   1.215  11.949
28507W        W  932  31.952  26.665   3.024
28508W        W  933   3.346  15.279   0.260
28509W        W  934  41.837  13.825  14.397
28510W        W  935  22.500  33.135   4.365
28511W        W  936   9.586   4.420  12.442
28512W        W  937  17.029  34.949  12.578
28513W        W  938  23.729  40.480  14.024
28514W        W  939  18.774  16.213  11.498
28515W        W  940  22.514  10.540   0.312
28516W        W  941  23.384  18.705  12.458
28517W        W  942  37.388   9.722  13.559
28518W        W  943  36.631   5.000  13.062
28519W        W  944  34.930  26.359  11.395
28520W        W  945  38.501  25.423   1.145
28521W        W  946  24.692  17.053   4.025
28522W        W  947   9.559  23.404   2.893
28523W        W  948   5.145  41.958  11.917
28524W        W  949  38.462  43.828   3.381
28525W        W  950  28.696  28.026  13.621
28526W        W  951  22.511   9.339  14.644
28527W        W  952  37.407  29.398   4.728
28528W        W  953  18.589  23.885  14.875
28529W        W  954  12.671   8.835  12.328
28530W        W  955   4.363   7.328  11.396
28531W        W  956  11.268  29.667   2.938
28532W        W  957   5.329  12.342   4.603
28533W        W  958  10.680   6.742   5.376
28534W        W  959  19.406   1.275  11.440
28535W        W  960   4.786  11.972  10.532
28536W        W  961  32.599  21.253   3.227
28537W        W  962   5.900  34.533   2.893
28538W        W  963  31.107  32.908   2.114
28539W        W  964  32.063  25.816  14.955
28540W        W  965   9.445  37.284   3.212
28541W        W  966   7.433   1.844   1.858
28542W        W  967  17.402  11.391   1.798
28543W        W  968  11.721   3.274   1.904
28544W        W  969   4.754   5.448   4.099
28545W        W  970  38.770   9.643   2.801
28546W        W  971  39.618  10.321  11.162
28547W        W  972  19.778  40.484   2.696
28548W        W  973  13.532  12.758   0.483
28549W        W  974  19.169  36.033  14.828
28550W        W  975  18.446  36.097  11.073
28551W        W  976  20.089   9.852   3.220
28552W        W  977  16.813  28.134   1.028
28553W        W  978  21.156  42.361   5.074
28554W        W  979  34.146  35.457  13.866
28555W        W  980  16.732   2.447   1.237
28556W        W  981  19.454  15.253  12.794
28557W        W  982  38.925   8.645   5.119
28558W        W  983   0.494  12.124   4.945
28559W        W  984  23.463  26.685  11.194
28560W        W  985  21.511  22.577   4.388
28561W        W  986  34.443   7.316  13.339
28562W        W  987   1.926   5.842  11.514
28563W        W  988  18.773  30.920   1.717
28564W        W  989  43.511  11.245   4.335
28565W        W  990  11.918  41.020  13.561
28566W        W  991   2.432  15.263   0.027
28567W        W  992   4.832   4.185  11.355
28568W        W  993  21.055  43.773  11.466
28569W        W  994  43.478  36.267   0.514
28570W        W  995  28.698  18.334   1.842
28571W        W  996  28.532  36.280  11.654
28572W        W  997  23.474  27.093   2.298
28573W        W  998  43.217   2.341   0.936
28574W        W  999   0.219  21.918  13.107
28575W        W 1000  14.052   9.189  12.034
28576W        W 1001  20.300  36.894   3.102
28577W        W 1002  19.800  28.395  13.386
28578W        W 1003  13.424   8.771   2.280
28579W        W 1004   0.246  43.781   2.285
28580W        W 1005  22.743  33.891   3.681
28581W        W 1006  21.187  40.602   3.791
28582W        W 1007  34.837  18.054  14.531
28583W        W 1008  25.736  15.482  13.578
28584W        W 1009  26.261  25.441   2.263
28585W        W 1010  22.636  23.992  10.351
28586W        W 1011  33.003  27.131   4.523
28587W        W 1012   8.582  17.885   0.323
28588W        W 1013  29.375  38.014   4.511
28589W        W 1014  10.424  37.922   0.416
28590W        W 1015  44.409   3.218  11.505
28591W        W 1016  31.509  38.051  11.723
28592W        W 1017  20.161  43.839  12.927
28593W        W 1018  31.032   2.189   4.693
28594W        W 1019  13.338  37.384  11.551
28595W        W 1020   1.853  20.116   2.138
28596W        W 1021  22.867  15.598  11.139
28597W        W 1022  25.354  42.593  12.472
28598W        W 1023   4.995   4.968   1.966
28599W        W 1024   6.353   8.758  13.745
28600W        W 1025  33.879  24.140  11.054
28601W        W 1026  21.519  11.394   2.907
28602W        W 1027  41.150  18.723   2.171
28603W        W 1028  33.100   1.995   2.678
28604W        W 1029  32.167   5.219   0.456
28605W        W 1030   5.990   7.951   0.274
28606W        W 1031  14.629  20.980   3.437
28607W        W 1032  12.407   7.235  11.884
28608W        W 1033   4.905  44.839  11.184
28609W        W 1034  31.657  17.161  11.990
28610W        W 1035   9.633  23.828   3.735
28611W        W 1036  31.084  18.247  10.214
28612W        W 1037  24.480  38.783   1.989
28613W        W 1038  10.119  18.324   2.142
28614W        W 1039  21.767  17.081   1.741
28615W        W 1040   2.227   6.092  13.818
28616W        W 1041  44.886  44.884   0.451
28617W        W 1042  21.696  40.552   2.847
28618W        W 1043  11.973  15.797  13.783
28619W        W 1044  24.443   9.323  11.029
28620W        W 1045  18.959  20.668  10.788
28621W        W 1046  19.055   6.734   1.830
28622W        W 1047  23.120   8.786  13.023
28623W        W 1048  18.111  39.770   3.898
28624W        W 1049   2.347  33.332  13.856
28625W        W 1050  14.637   2.352  14.018
28626W        W 1051  19.030  42.130   4.148
28627W        W 1052  30.956  35.715  12.471
28628W        W 1053  17.827  28.877   2.667
28629W        W 1054  17.645  36.128   3.713
28630W        W 1055  41.183  24.819  13.345
28631W        W 1056   0.909  27.208   4.262
28632W        W 1057  44.253  12.198  12.088
28633W        W 1058   4.057   1.348  13.539
28634W        W 1059   6.466  19.249  12.926
28635W        W 1060  23.482  32.075  12.596
28636W        W 1061   4.415   9.900  11.565
28637W        W 1062  38.681  42.961   4.137
28638W        W 1063  19.849  25.014   0.712
28639W        W 1064  21.473   7.994  11.992
28640W        W 1065  43.651  11.236  10.992
28641W        W 1066  13.435  35.758  11.060
28642W        W 1067  30.188   5.951   3.040
28643W        W 1068  16.850  18.525   2.499
28644W        W 1069  39.268  37.840   1.340
28645W        W 1070  21.652   3.030  11.518
28646W        W 1071  35.132   8.674   2.950
28647W        W 1072  14.694  31.733  13.406
28648W        W 1073   8.668   2.161  10.458
28649W        W 1074  44.920  15.119   3.685
28650W        W 1075  43.578  31.387  11.627
28651W        W 1076  17.432  39.544   1.600
28652W        W 1077  43.016  27.688  12.948
28653W        W 1078   4.697   5.017   0.927
28654W        W 1079   5.479  20.105  13.880
28655W        W 1080  44.740   9.266   0.268
28656W        W 1081  42.267  16.796   2.298
28657W        W 1082  20.736  33.762   2.636
28658W        W 1083  12.609  40.348  14.891
28659W        W 1084   1.738  32.539  12.052
28660W        W 1085  27.451  19.293   0.784
28661W        W 1086   6.947  29.964  10.655
28662W        W 1087  31.480   7.611  10.784
28663W        W 1088  15.231  31.654  10.691
28664W        W 1089  21.198   1.395   0.392
28665W        W 1090   0.759  23.240   0.060
28666W        W 1091  20.435  29.400   2.539
28667W        W 1092  17.773  27.040  11.851
28668W        W 1093  23.866  41.561   2.602
28669W        W 1094  43.528   1.534  14.955
28670W        W 1095  32.919   5.286   3.032
28671W        W 1096   0.294  35.053   0.892
28672W        W 1097  11.302  41.410  12.462
28673W        W 1098  33.493  16.734   5.134
28674W        W 1099  25.417  44.734  13.369
28675W        W 1100  32.851  23.850  11.986
28676W        W 1101  37.072  17.030   0.529
28677W        W 1102   2.807  15.346   1.264
28678W        W 1103  26.394  32.202   4.563
28679W        W 1104  40.466   4.692  13.952
28680W        W 1105  44.261  27.935  10.721
28681W        W 1106  18.755  22.712   1.678
28682W        W 1107  29.975  18.702  12.531
28683W        W 1108  44.504  19.804  13.881
28684W        W 1109  12.935  37.035  14.222
28685W        W 1110  15.456   2.698  11.625
28686W        W 1111  42.448  16.769   4.778
28687W        W 1112  24.064   2.058   5.012
28688W        W 1113  29.657  31.537   0.319
28689W        W 1114  31.269  37.828  12.130
28690W        W 1115   7.736  17.281   3.278
28691W        W 1116  43.526  10.724  12.025
28692W        W 1117  36.611  30.905  11.457
28693W        W 1118  17.241  31.291  12.362
28694W        W 1119  23.990  35.752  10.338
28695W        W 1120  33.708  42.924   0.721
28696W        W 1121  11.149   7.174   0.217
28697W        W 1122  22.259  34.684   5.092
28698W        W 1123  17.178  32.332   5.572
28699W        W 1124  35.277   1.899  12.946
28700W        W 1125  28.503  12.632  12.912
28701W        W 1126   9.742  34.484  14.999
28702W        W 1127  38.580  10.429   4.567
28703W        W 1128   5.397  25.574  14.301
28704W        W 1129  24.050  20.483  10.580
28705W        W 1130  23.944   4.859  12.601
28706W        W 1131   7.655  23.671   2.797
28707W        W 1132  28.545   1.796   1.427
28708W        W 1133  21.693   5.971  14.025
28709W        W 1134  14.122  26.937   0.918
28710W        W 1135  36.277   6.905  12.347
28711W        W 1136  20.181  38.516  13.357
28712W        W 1137  12.592  23.167  12.376
28713W        W 1138  18.871  11.539   2.675
28714W        W 1139   6.714  31.196   3.743
28715W        W 1140  17.760  28.621  10.617
28716W        W 1141  30.152  25.032  13.527
28717W        W 1142  26.387  23.667   4.488
28718W        W 1143  13.838   3.481   2.315
28719W        W 1144   6.434  16.463   4.202
28720W        W 1145   8.410  15.667  13.514
28721W        W 1146  34.602  21.121  12.564
28722W        W 1147  38.069  21.076   0.174
28723W        W 1148  39.426  13.369   2.484
28724W        W 1149  19.106  40.272  11.985
28725W        W 1150  40.412   8.230   2.351
28726W        W 1151   3.662  10.719  14.514
28727W        W 1152  13.177  30.097  12.473
28728W        W 1153  28.321   8.631   9.886
28729W        W 1154  22.563  42.767   3.569
28730W        W 1155  42.675  15.981   1.250
28731W        W 1156   8.885  17.554  11.635
28732W        W 1157   2.845   0.370   1.794
28733W        W 1158  13.017  13.831  13.643
28734W        W 1159  23.247  12.447   3.562
28735W        W 1160  11.457  13.064  11.014
28736W        W 1161  32.459  23.572   2.149
28737W        W 1162  43.934  30.927   1.224
28738W        W 1163  17.198  12.327  11.154
28739W        W 1164  18.234   4.413   0.164
28740W        W 1165  30.921  43.582  12.216
28741W        W 1166  23.198  27.219  14.953
28742W        W 1167  16.119  35.535   4.191
28743W        W 1168   7.722  25.777  11.642
28744W        W 1169  35.045  23.324  14.311
28745W        W 1170  22.894  13.427  13.391
28746W        W 1171  44.998  44.520  11.598
28747W        W 1172  42.473  31.857  11.121
28748W        W 1173  39.846   4.675  12.110
28749W        W 1174  11.780  21.998  11.885
28750W        W 1175  29.553   5.167   2.908
28751W        W 1176  35.801  16.872   3.196
28752W        W 1177  32.828  15.495  11.643
28753W        W 1178  33.431  12.797   9.851
28754W        W 1179  15.579  11.871  11.039
28755W        W 1180  34.881  20.702   1.442
28756W        W 1181  36.405  11.386  11.491
28757W        W 1182   4.376  30.622   3.784
28758W        W 1183   5.109  12.817   3.318
28759W        W 1184  12.868  25.219  13.236
28760W        W 1185  31.206  30.048  11.245
28761W        W 1186  25.448  43.395  14.366
28762W        W 1187  10.772  21.863   4.752
28763W        W 1188  35.646  41.849   3.382
28764W        W 1189   3.870  36.796  13.863
28765W        W 1190  29.257  41.839  13.358
28766W        W 1191  15.690  42.374  11.022
28767W        W 1192  15.838  29.037  14.719
28768W        W 1193  10.892   7.887  13.832
28769W        W 1194  13.098  27.661  10.518
28770W        W 1195  15.706   2.804   3.134
28771W        W 1196   8.408  38.361   0.619
28772W        W 1197  32.652  15.998   4.615
28773W        W 1198  41.515  43.356   1.955
28774W        W 1199  42.317  39.533   4.806
28775W        W 1200  23.184  33.391  11.144
28776W        W 1201  23.716  20.950   4.207
28777W        W 1202  41.677  18.887   0.364
28778W        W 1203  19.278  30.248   2.703
28779W        W 1204  43.052  11.584   3.250
28780W        W 1205  30.263  37.478   4.413
28781W        W 1206   4.393  40.075  13.858
28782W        W 1207   4.217  24.009  13.506
28783W        W 1208   5.747   7.781   2.115
28784W        W 1209  37.349  20.591   1.450
28785W        W 1210   2.580   5.096   5.033
28786W        W 1211  38.815  10.214   3.712
28787W        W 1212   0.728  34.899  14.669
28788W        W 1213  13.787  11.228   1.470
28789W        W 1214  22.583  17.494  12.865
28790W        W 1215   5.448  39.563   1.641
28791W        W 1216  32.143  29.025  13.379
28792W        W 1217  27.994  36.177   4.759
28793W        W 1218  27.245  15.705  12.414
28794W        W 1219   3.310  36.084   2.854
28795W        W 1220   0.237   1.029  13.755
28796W        W 1221   9.324  18.257  11.811
28797W        W 1222   3.829   5.933   4.537
28798W        W 1223   2.410  12.487   3.218
28799W        W 1224  33.511   1.463   2.250
28800W        W 1225  25.916  44.291   2.915
28801W        W 1226  15.822  29.876  14.243
28802W        W 1227   9.320  28.229   3.547
28803W        W 1228  39.419  15.190   0.467
28804W        W 1229   6.873   7.645   4.155
28805W        W 1230  37.897  21.542   4.705
28806W        W 1231  15.112   7.847  10.633
28807W        W 1232  11.442  39.826  13.859
28808W        W 1233   3.948  42.301   3.134
28809W        W 1234   7.260   5.375   4.042
28810W        W 1235   7.726   8.241   3.517
28811W        W 1236  19.915  18.487  13.456
28812W        W 1237  39.026   8.636   3.772
28813W        W 1238   1.164  15.729  12.403
28814W        W 1239  17.177   9.530  13.747
28815W        W 1240  23.809  34.608  12.892
28816W        W 1241   0.408  35.161  13.392
28817W        W 1242  38.358  19.376  11.663
28818W        W 1243  12.762  42.838  14.904
28819W        W 1244   7.418  31.906   0.393
28820W        W 1245  34.857  34.618   2.018
28821W        W 1246  19.825  17.670   1.044
28822W        W 1247  15.760   1.409  11.792
28823W        W 1248  23.017  14.712   0.463
28824W        W 1249  17.035  13.267  11.275
28825W        W 1250  33.500   6.658  13.476
28826W        W 1251  27.154  36.453   4.171
28827W        W 1252  44.489   6.225  13.005
28828W        W 1253   2.036   9.697  13.883
28829W        W 1254  12.401   7.173  10.561
28830W        W 1255  44.255  25.031  11.466
28831W        W 1256  34.144  14.747  14.225
28832W        W 1257  40.852  13.216   1.726
28833W        W 1258  21.545  40.145  13.479
28834W        W 1259  20.005  16.950  13.336
28835W        W 1260  20.530  43.783  13.590
28836W        W 1261  14.319   8.594   0.695
28837W        W 1262  39.983   6.868  14.365
28838W        W 1263   6.696   3.745  12.873
28839W        W 1264  27.466  32.375  13.735
28840W        W 1265   0.351  30.728  13.418
28841W        W 1266  24.702  26.429  11.499
28842W        W 1267  31.476  11.182  12.638
28843W        W 1268  19.088  44.519  13.473
28844W        W 1269  37.941  30.391  14.238
28845W        W 1270  10.551   3.928  10.555
28846W        W 1271  11.228  18.748   4.430
28847W        W 1272  26.913  25.955  11.988
28848W        W 1273  19.268  30.492  14.499
28849W        W 1274  30.432  15.323   2.209
28850W        W 1275  17.133  23.744  11.620
28851W        W 1276  21.678  11.794  14.969
28852W        W 1277  20.836   3.817  11.729
28853W        W 1278  38.790  29.095  11.173
28854W        W 1279  34.639  27.421   3.985
28855W        W 1280  24.744  13.807   0.803
28856W        W 1281  24.358  12.796  12.944
28857W        W 1282  20.265  26.903  10.969
28858W        W 1283  37.120  31.450   3.243
28859W        W 1284  36.833   8.822   4.636
28860W        W 1285  33.374  44.974  11.573
28861W        W 1286   3.943  14.388  11.948
28862W        W 1287  14.671  40.946  13.478
28863W        W 1288  22.517  14.281   3.716
28864W        W 1289  29.985  22.145  10.697
28865W        W 1290  32.923  34.547  14.322
28866W        W 1291  29.770  37.598  12.461
28867W        W 1292  27.588   7.979   4.477
28868W        W 1293  21.691  23.616   3.668
28869W        W 1294  30.463  37.089  13.929
28870W        W 1295  31.475   3.408   3.175
28871W        W 1296  23.745  41.481  10.672
28872W        W 1297  36.783   4.093   3.700
28873W        W 1298  22.141   0.309   1.621
28874W        W 1299  17.212  44.770  11.989
28875W        W 1300  28.343  14.994  11.096
28876W        W 1301  44.234  40.420   0.254
28877W        W 1302   0.478   2.814  14.046
28878W        W 1303   4.387   3.537  10.180
28879W        W 1304  21.632  15.804  14.431
28880W        W 1305  17.073  30.199   1.137
28881W        W 1306  38.033  21.131  11.143
28882W        W 1307  27.604  13.848   0.189
28883W        W 1308  11.265  16.573  12.896
28884W        W 1309  16.800  13.345   1.226
28885W        W 1310  43.104   5.247   3.594
28886W        W 1311  43.970  29.482  10.636
28887W        W 1312   5.457  41.380  13.157
28888W        W 1313  20.043   2.984  12.884
28889W        W 1314  10.041  33.449  13.086
28890W        W 1315  33.556  36.776   3.725
28891W        W 1316  32.519   5.242  12.016
28892W        W 1317  30.705  30.748   4.362
28893W        W 1318  29.640  30.214  12.378
28894W        W 1319  16.382  43.440   4.212
28895W        W 1320  38.990  13.637  11.920
28896W        W 1321  35.946   4.859   1.208
28897W        W 1322  16.148  10.665   3.488
28898W        W 1323  26.717  40.116  11.583
28899W        W 1324  41.618  41.770   4.902
28900W        W 1325  25.165   7.349   3.797
28901W        W 1326  33.604  39.120  14.310
28902W        W 1327  36.812  35.220   0.003
28903W        W 1328  40.469  14.239   3.843
28904W        W 1329  18.309  39.252   1.106
28905W        W 1330  35.887  23.062  13.793
28906W        W 1331   7.649  23.702  12.930
28907W        W 1332  28.636  39.979  11.135
28908W        W 1333  22.457  31.862  12.414
28909W        W 1334  24.169  28.584   4.197
28910W        W 1335  11.915   3.979   3.268
28911W        W 1336  32.841  38.845  12.148
28912W        W 1337  27.075  20.190   0.315
28913W        W 1338  18.226  24.949   1.905
28914W        W 1339   5.223  22.095  10.958
28915W        W 1340  40.209  31.581   3.654
28916W        W 1341  18.673  15.119   3.617
28917W        W 1342  14.333   3.186   1.323
28918W        W 1343  28.657  12.712   2.179
28919W        W 1344  32.482  12.097  11.649
28920W        W 1345   9.218  38.197   5.377
28921W        W 1346   5.817  31.184  14.677
28922W        W 1347   0.277  25.506   4.935
28923W        W 1348  42.735  10.301   4.680
28924W        W 1349  41.711  33.561  10.610
28925W        W 1350  35.059  44.399  10.830
28926W        W 1351  23.624  13.272   3.279
28927W        W 1352   3.878  42.753   1.856
28928W        W 1353  37.480  32.127  12.995
28929W        W 1354  41.362  23.375   1.924
28930W        W 1355  15.824   9.792   0.360
28931W        W 1356  21.411  33.383   1.829
28932W        W 1357  42.407  11.817  10.725
28933W        W 1358  13.151  43.341  11.633
28934W        W 1359  28.046  17.474   3.139
28935W        W 1360  35.955  10.236  11.666
28936W        W 1361  42.018   7.304  11.715
28937W        W 1362   0.860  14.787  11.035
28938W        W 1363  25.026  37.059   0.943
28939W        W 1364   6.414  15.292  11.618
28940W        W 1365  35.789  22.646  10.561
28941W        W 1366  14.798   5.506   0.287
28942W        W 1367  20.790   2.910   4.473
28943W        W 1368  40.847  37.215  11.919
28944W        W 1369  10.505  11.677  12.174
28945W        W 1370  38.325  43.696   1.881
28946W        W 1371   1.819  18.273   3.750
28947W        W 1372   4.943  19.318  12.051
28948W        W 1373   4.085  14.899  12.016
28949W        W 1374  28.854   6.291  12.248
28950W        W 1375   4.850   8.253   2.444
28951W        W 1376  41.366  18.347   0.958
28952W        W 1377   1.260  12.915  13.519
28953W        W 1378   6.132  11.210   0.864
28954W        W 1379  25.056  21.707  12.085
28955W        W 1380  41.026  35.217  11.444
28956W        W 1381  35.230  24.493   1.785
28957W        W 1382   9.149  21.980  11.634
28958W        W 1383  26.022  17.721   1.639
28959W        W 1384   0.563  17.190  13.423
28960W        W 1385  28.693  44.332  13.509
28961W        W 1386  35.533   1.311  11.819
28962W        W 1387  16.383  44.772  12.453
28963W        W 1388   1.147  18.757   3.514
28964W        W 1389   8.425  21.179   3.761
28965W        W 1390  21.681  27.300   3.620
28966W        W 1391   3.324   4.813   1.898
28967W        W 1392  21.653  36.541   4.278
28968W        W 1393  18.630  34.638   1.373
28969W        W 1394  33.342   0.902  14.971
28970W        W 1395   8.120  28.944   1.602
28971W        W 1396  16.291  35.667   1.691
28972W        W 1397  19.778  29.974   2.282
28973W        W 1398  40.346  43.531   2.367
28974W        W 1399   1.988  24.669  11.007
28975W        W 1400  26.791  20.697   0.890
28976W        W 1401  12.844  24.726  14.037
28977W        W 1402  33.416  14.261  14.361
28978W        W 1403  10.634  34.634   4.141
28979W        W 1404  29.264  30.989  14.398
28980W        W 1405  38.303  40.834  14.284
28981W        W 1406  32.372  24.622  11.585
28982W        W 1407   6.708  39.463   2.959
28983W        W 1408  12.676  25.039  12.676
28984W        W 1409  29.403   0.219   2.404
28985W        W 1410   6.133  11.348  13.931
28986W        W 1411  34.992  29.977  12.264
28987W        W 1412  20.780  13.739   3.199
28988W        W 1413  29.379  23.893  14.484
28989W        W 1414  29.126  26.480   3.752
28990W        W 1415  35.065  34.870  11.999
28991W        W 1416   3.725  25.589  11.084
28992W        W 1417  42.757  32.112  14.524
28993W        W 1418  24.113  21.358  12.360
28994W        W 1419  16.505  44.700   4.248
28995W        W 1420  21.030  20.165  12.417
28996W        W 1421  20.164  19.866   2.832
28997W        W 1422  15.624  20.841  12.594
28998W        W 1423  39.864  40.962   1.691
28999W        W 1424   3.781   1.896   0.774
29000W        W 1425   9.627  35.438  12.122
29001W        W 1426  31.752  12.376   0.361
29002W        W 1427  15.306  30.290  14.817
29003W        W 1428  29.404  14.001  11.285
29004W        W 1429  22.732  25.951   2.153
29005W        W 1430  42.574   4.305   0.284
29006W        W 1431  18.358  42.303  13.430
29007W        W 1432  40.502   3.260   1.793
29008W        W 1433  38.385  19.550   0.741
29009W        W 1434  20.949  25.549  12.905
29010W        W 1435  14.221  17.297  14.750
29011W        W 1436  39.411  43.517   2.607
29012W        W 1437   8.235  21.731  11.907
29013W        W 1438  37.185   5.308  11.429
29014W        W 1439  26.042  43.521   4.509
29015W        W 1440   1.917  43.673   4.103
29016W        W 1441  26.998  32.053   3.210
29017W        W 1442  41.512  34.981   0.906
29018W        W 1443  13.930  28.251   0.577
29019W        W 1444  40.422  29.576   3.299
29020W        W 1445   3.981  23.003   3.556
29021W        W 1446  38.420  38.571  13.419
29022W        W 1447   5.922   1.209   2.618
29023W        W 1448  38.798  23.998   2.177
29024W        W 1449  36.060  17.192  12.294
29025W        W 1450  20.110  11.749  13.537
29026W        W 1451  37.480  13.336  14.428
29027W        W 1452  15.120  19.643  13.872
29028W        W 1453   6.078   3.942   1.012
29029W        W 1454  44.991   7.674  14.805
29030W        W 1455  21.967  22.254  11.449
29031W        W 1456  11.469  34.501   3.728
29032W        W 1457   7.268  29.798   2.822
29033W        W 1458  32.918  42.560  13.510
29034W        W 1459  26.200  36.880   0.272
29035W        W 1460   7.746  10.418   1.779
29036W        W 1461  37.906  20.576   2.369
29037W        W 1462   9.083  21.247  10.582
29038W        W 1463  42.857   7.882   4.138
29039W        W 1464  44.697  10.960   0.213
29040W        W 1465  34.205  26.518   1.069
29041W        W 1466  11.413  28.882  12.401
29042W        W 1467  18.578   2.494   3.612
29043W        W 1468  15.247  21.848   2.677
29044W        W 1469  44.460  16.710   1.970
29045W        W 1470  36.183   5.200   1.502
29046W        W 1471  40.034  30.932  11.089
29047W        W 1472  15.230  16.951   2.131
29048W        W 1473  15.150  10.130   0.246
29049W        W 1474  44.187  36.690   2.325
29050W        W 1475  37.010  24.987   3.546
29051W        W 1476   6.513  15.328  12.843
29052W        W 1477  43.527   9.635  10.779
29053W        W 1478  29.274   2.899   3.649
29054W        W 1479  10.818  44.271  14.391
29055W        W 1480  32.100  18.297   4.610
29056W        W 1481  36.971  31.103   3.646
29057W        W 1482   6.007  19.162   0.221
29058W        W 1483  12.169   4.357  14.319
29059W        W 1484  17.937  42.927  12.792
29060W        W 1485   3.939  24.251   3.295
29061W        W 1486  16.710  31.855  13.013
29062W        W 1487  28.996  10.719   3.016
29063W        W 1488  37.987   1.771   4.065
29064W        W 1489  35.943   0.797   4.107
29065W        W 1490  26.207  44.790  13.077
29066W        W 1491   8.410   9.450  11.509
29067W        W 1492  34.475  25.682  13.461
29068W        W 1493  33.431  18.817  14.389
29069W        W 1494  15.758  17.335  10.428
29070W        W 1495  28.186  42.126   2.622
29071W        W 1496   5.539   1.238  10.723
29072W        W 1497  33.903  35.586  14.317
29073W        W 1498  41.155  41.824  12.028
29074W        W 1499  37.532  20.135  14.247
29075W        W 1500  18.240  14.139   4.824
29076W        W 1501   0.827  33.586  12.950
29077W        W 1502  20.443  25.666  12.769
29078W        W 1503  33.345  33.872   1.219
29079W        W 1504  42.910  25.777   0.453
29080W        W 1505  23.269  29.533   0.019
29081W        W 1506  20.156  17.244  11.862
29082W        W 1507  38.311  38.061   2.779
29083W        W 1508   9.507  32.569   1.317
29084W        W 1509   0.995  11.906  11.145
29085W        W 1510  24.322  16.216   0.845
29086W        W 1511  22.161   0.181  13.605
29087W        W 1512  11.383  21.769   3.231
29088W        W 1513  12.448  26.229   0.477
29089W        W 1514  14.918  35.916   2.748
29090W        W 1515  13.287   8.824   3.177
29091W        W 1516  39.949   9.123   3.724
29092W        W 1517  41.884  42.508   2.728
29093W        W 1518  32.240  19.232   1.074
29094W        W 1519  14.693  31.186  14.358
29095W        W 1520  43.629  12.568  12.098
29096W        W 1521  39.531  30.941  14.442
29097W        W 1522  29.599   4.931   0.814
29098W        W 1523  40.615  40.985   1.255
29099W        W 1524   3.551  16.789   0.684
29100W        W 1525   2.221   2.716  13.443
29101W        W 1526  16.744  44.489  14.613
29102W        W 1527  14.267  22.771  12.377
29103W        W 1528  42.951  20.087   1.671
29104W        W 1529  18.390  14.928   1.937
29105W        W 1530  29.160  39.862   0.003
29106W        W 1531  40.020  32.710  11.540
29107W        W 1532   5.438  40.070   1.578
29108W        W 1533  10.564  18.676   2.860
29109W        W 1534  41.051  41.863   1.729
29110W        W 1535   6.720   3.330  13.755
29111W        W 1536  10.618  40.973  13.529
29112W        W 1537  21.791  42.401  14.385
29113W        W 1538  24.658  13.215  12.519
29114W        W 1539  10.744   5.634  14.208
29115W        W 1540  25.605   2.370   3.226
29116W        W 1541  37.045  39.838   2.352
29117W        W 1542  17.370  18.836  11.219
29118W        W 1543  39.066  19.749  13.463
29119W        W 1544  15.786  22.165   0.470
29120W        W 1545  12.633   2.229  12.010
29121W        W 1546   9.625  25.834  10.727
29122W        W 1547  27.072  44.323   3.629
29123W        W 1548   5.393  28.744   3.859
29124W        W 1549  41.854  33.424   4.405
29125W        W 1550  22.210  28.395   4.866
29126W        W 1551  30.421  20.236   4.542
29127W        W 1552   5.931  26.908  13.000
29128W        W 1553   7.697   0.809  14.533
29129W        W 1554  24.905  10.238  11.525
29130W        W 1555  39.140  27.113  13.950
29131W        W 1556   0.469  25.193   3.132
29132W        W 1557  14.838   9.040   4.120
29133W        W 1558  18.398   4.903   0.769
29134W        W 1559   4.297  17.352  14.373
29135W        W 1560  12.708  30.422  11.088
29136W        W 1561  25.231  36.856  11.154
29137W        W 1562  13.485  22.936   2.767
29138W        W 1563  27.466  11.698   2.350
29139W        W 1564  44.410  19.288  13.023
29140W        W 1565  29.940  16.632  11.087
29141W        W 1566  13.002  44.764  12.141
29142W        W 1567   6.422  35.528  12.366
29143W        W 1568  15.594  13.639   2.289
29144W        W 1569  10.940  13.222   1.359
29145W        W 1570   9.764  13.105   3.426
29146W        W 1571  21.145   1.980   1.017
29147W        W 1572  23.024  24.267  12.555
29148W        W 1573   1.577  42.308   2.662
29149W        W 1574   5.412  37.821   3.605
29150W        W 1575  25.415  31.884   4.354
29151W        W 1576   5.482   1.074  13.329
29152W        W 1577  43.333  30.373  11.653
29153W        W 1578  10.934  39.026  12.344
29154W        W 1579   9.316  41.857   3.262
29155W        W 1580   5.893  17.836   0.654
29156W        W 1581  34.382  38.963  14.428
29157W        W 1582   2.482   0.954   5.143
29158W        W 1583   1.768  18.303  13.943
29159W        W 1584   9.734  33.031  13.438
29160W        W 1585  44.875  28.699  14.886
29161W        W 1586  14.841   3.692   1.537
29162W        W 1587  41.094   1.808  14.006
29163W        W 1588  26.251  20.889   4.539
29164W        W 1589   6.145   6.820  11.071
29165W        W 1590  25.227  22.543  11.523
29166W        W 1591  14.578  24.984  13.898
29167W        W 1592  35.676   2.845   4.851
29168W        W 1593  31.810  32.466   2.910
29169W        W 1594  43.228  14.601   2.285
29170W        W 1595  33.508  37.300  13.908
29171W        W 1596  16.679  37.957   4.383
29172W        W 1597   5.902  25.752  14.022
29173W        W 1598  24.337  39.303  12.330
29174W        W 1599  35.898  26.005  11.253
29175W        W 1600  12.077  21.114   0.417
29176W        W 1601  42.808   5.706   0.987
29177W        W 1602  39.276  42.842  11.816
29178W        W 1603   0.193   8.199  12.468
29179W        W 1604  16.125  31.930  13.445
29180W        W 1605  44.918  14.228   3.637
29181W        W 1606  28.620  43.429  12.710
29182W        W 1607  36.632  32.890  12.636
29183W        W 1608  35.442  30.330   0.287
29184W        W 1609  32.887   6.613  13.811
29185W        W 1610  27.891  40.054   3.877
29186W        W 1611   0.330  11.370  12.636
29187W        W 1612  17.726   5.106   0.715
29188W        W 1613   6.622  10.791  12.438
29189W        W 1614  13.237  36.114   2.194
29190W        W 1615   2.717  11.137   1.854
29191W        W 1616   7.385  36.153  10.164
29192W        W 1617   0.904  32.529  14.771
29193W        W 1618   5.693  35.770  11.473
29194W        W 1619  21.109   9.890   0.963
29195W        W 1620   8.793  35.695   2.755
29196W        W 1621  29.050  17.845  14.273
29197W        W 1622  24.777  39.326  14.245
29198W        W 1623  24.577  42.612  12.935
29199W        W 1624   2.981  15.242  12.382
29200W        W 1625   9.824  17.741   4.768
29201W        W 1626  41.259  13.894   4.191
29202W        W 1627  30.993   2.468  11.487
29203W        W 1628  32.137  33.613  12.404
29204W        W 1629   7.359  20.258   4.070
29205W        W 1630  36.041  18.252  12.045
29206W        W 1631   0.276  17.330   1.393
29207W        W 1632  32.046  11.717   4.562
29208W        W 1633   6.698  41.996  12.944
29209W        W 1634   9.189  33.686   2.398
29210W        W 1635   7.872  32.163  14.460
29211W        W 1636   0.982   7.352  14.774
29212W        W 1637  36.596  21.798  12.537
29213W        W 1638  22.708  32.044   3.730
29214W        W 1639   7.627   5.654   2.275
29215W        W 1640   3.941  33.978  10.843
29216W        W 1641  20.640   9.196   4.716
29217W        W 1642  32.414  20.282  13.538
29218W        W 1643   9.643  32.129  11.028
29219W        W 1644  11.698  15.868  11.121
29220W        W 1645   0.416  23.941   1.278
29221W        W 1646  26.161   2.950  10.895
29222W        W 1647   3.970  10.401   4.482
29223W        W 1648   1.026  36.620   1.777
29224W        W 1649  36.506   6.192   4.064
29225W        W 1650  19.778  35.932   2.254
29226W        W 1651  44.950  11.803   0.291
29227W        W 1652   6.841  37.290  10.660
29228W        W 1653  15.218   1.397   1.454
29229W        W 1654  16.754   7.308   3.097
29230W        W 1655  24.137  28.727  11.595
29231W        W 1656  27.570  14.123   0.957
29232W        W 1657  26.625   3.890  13.780
29233W        W 1658  36.940   2.204  14.998
29234W        W 1659  38.895   3.664   3.177
29235W        W 1660  33.260  17.111  13.964
29236W        W 1661  15.086  37.625   0.779
29237W        W 1662  40.433   4.980   4.768
29238W        W 1663  11.134  14.529  12.404
29239W        W 1664  22.651  31.403   4.084
29240W        W 1665   2.344  32.591  13.353
29241W        W 1666  18.356  17.161  13.940
29242W        W 1667  31.864  34.909   2.766
29243W        W 1668  30.228  11.285   2.236
29244W        W 1669  38.147  22.717  14.942
29245W        W 1670  14.345  36.545   0.217
29246W        W 1671  22.572  21.672   0.711
29247W        W 1672  37.840  28.356  14.929
29248W        W 1673  34.012   1.993   1.872
29249W        W 1674  10.493  25.537   0.886
29250W        W 1675   4.404   7.233   4.043
29251W        W 1676  24.689  12.872   4.463
29252W        W 1677  17.356   5.320   4.103
29253W        W 1678   7.496  32.262  13.596
29254W        W 1679  29.439  43.308  12.170
29255W        W 1680  13.623  34.817   2.401
29256W        W 1681  32.037  27.954  13.409
29257W        W 1682  21.686  32.130   2.723
29258W        W 1683  34.393   5.856  13.039
29259W        W 1684  22.257  27.927   1.575
29260W        W 1685  29.516  13.141  11.538
29261W        W 1686   5.995  33.644   2.453
29262W        W 1687  20.256  12.234   3.280
29263W        W 1688  13.344  38.572  13.877
29264W        W 1689  40.799  20.221  12.560
29265W        W 1690   6.944  14.629  14.081
29266W        W 1691  12.337  32.552  14.818
29267W        W 1692  18.010  18.163  11.197
29268W        W 1693  12.493  34.906  13.115
29269W        W 1694  20.687  20.221  12.001
29270W        W 1695   9.524  32.569  12.650
29271W        W 1696  26.867  28.353  10.300
29272W        W 1697   7.533  16.086  10.764
29273W        W 1698  12.274  18.926   0.569
29274W        W 1699  42.161   8.739  14.781
29275W        W 1700  30.632   9.787   1.878
29276W        W 1701  40.899   7.780  11.979
29277W        W 1702  31.347  25.614  14.439
29278W        W 1703  24.967   6.744   3.783
29279W        W 1704  15.228   3.164  11.678
29280W        W 1705  25.678   7.910   2.597
29281W        W 1706  38.902  27.983  10.444
29282W        W 1707   9.244  19.357  10.655
29283W        W 1708  43.399   8.796  11.702
29284W        W 1709   6.389  30.327   1.827
29285W        W 1710   7.804  24.755  11.680
29286W        W 1711   0.476  17.123   0.428
29287W        W 1712  44.094  24.835  10.555
29288W        W 1713  29.678   7.692   0.251
29289W        W 1714  14.192   2.159  12.492
29290W        W 1715  34.623  20.092   2.681
29291W        W 1716   2.753  25.614   2.747
29292W        W 1717  25.906   6.210  11.119
29293W        W 1718  38.827   2.809   4.747
29294W        W 1719  19.266   8.223  14.578
29295W        W 1720  40.619  22.079  12.134
29296W        W 1721  33.480  29.980  10.906
29297W        W 1722  37.013  14.108   0.372
29298W        W 1723  12.653  34.405  14.270
29299W        W 1724   9.370  28.193  12.286
29300W        W 1725  19.312   0.369   3.751
29301W        W 1726   2.695  32.493   3.726
29302W        W 1727  10.841  20.317   2.866
29303W        W 1728  11.825  36.204  12.788
29304W        W 1729  40.522  20.251   3.166
29305W        W 1730  17.657  35.153  13.839
29306W        W 1731   1.935   9.535   0.412
29307W        W 1732  19.234  15.165   2.421
29308W        W 1733  36.315   4.068   1.712
29309W        W 1734  21.198  43.755  10.535
29310W        W 1735   3.969  16.278  13.295
29311W        W 1736  43.299  44.624  12.486
29312W        W 1737   5.659   3.209   3.621
29313W        W 1738  40.846  36.852   4.125
29314W        W 1739  27.424  10.753  11.461
29315W        W 1740  18.594  14.106  11.084
29316W        W 1741  41.130  40.045  13.314
29317W        W 1742  19.593   0.263   3.298
29318W        W 1743  14.165  37.496  13.362
29319W        W 1744   7.758  36.131   4.601
29320W        W 1745  32.486  15.060  13.230
29321W        W 1746  21.186   6.982   3.815
29322W        W 1747   4.884  32.904  10.468
29323W        W 1748  43.064  39.159   0.751
29324W        W 1749  40.581  36.269  13.038
29325W        W 1750   0.579  40.419  11.063
29326W        W 1751  30.111  31.103   1.403
29327W        W 1752  42.277  34.612   3.201
29328W        W 1753  33.148  31.411  11.957
29329W        W 1754  20.976  42.523  11.244
29330W        W 1755  29.915  15.119   0.854
29331W        W 1756  11.446  41.501   0.970
29332W        W 1757   2.744  29.576  10.429
29333W        W 1758   6.768  22.095   4.395
29334W        W 1759  43.031  10.876   2.702
29335W        W 1760  20.255  25.953  11.036
29336W        W 1761  43.556  20.235  13.270
29337W        W 1762   3.458  28.828  14.172
29338W        W 1763   9.763  31.676   4.131
29339W        W 1764  29.625  22.155  11.445
29340W        W 1765   7.910  24.047  14.391
29341W        W 1766  17.819  38.486   1.512
29342W        W 1767   2.098  34.015   3.087
29343W        W 1768   6.390  40.434   4.691
29344W        W 1769  15.360   7.985  14.332
29345W        W 1770  34.518   3.336  14.871
29346W        W 1771  11.591  42.782   4.120
29347W        W 1772  10.381   6.202  13.358
29348W        W 1773  23.959   3.882   4.247
29349W        W 1774   1.350   8.887  11.466
29350W        W 1775   5.669  27.620  10.581
29351W        W 1776  24.267  30.535   0.866
29352W        W 1777  27.003  24.474   0.311
29353W        W 1778   7.865   5.365  11.424
29354W        W 1779  30.474  14.697   2.477
29355W        W 1780  16.536  24.153   5.003
29356W        W 1781   5.911  27.447  13.059
29357W        W 1782   2.427   1.325  14.796
29358W        W 1783  15.987  38.919   4.911
29359W        W 1784  23.500  13.788   3.423
29360W        W 1785   7.075  27.633  11.617
29361W        W 1786   1.197   7.901   2.259
29362W        W 1787  41.257  39.847  14.321
29363W        W 1788   3.906  18.161  12.933
29364W        W 1789  21.102  40.542   1.136
29365W        W 1790  36.858   0.457  11.435
29366W        W 1791  26.176  36.105  10.925
29367W        W 1792  33.997  19.891  11.212
29368W        W 1793  10.599  15.261  11.136
29369W        W 1794  20.763  40.487  13.035
29370W        W 1795  31.580  15.798   3.776
29371W        W 1796  15.576  21.742   1.831
29372W        W 1797  35.828  10.773  10.403
29373W        W 1798  24.259  18.029  13.862
29374W        W 1799  19.900   9.251   5.126
29375W        W 1800   9.819   9.661   4.497
29376W        W 1801  19.668  22.976   2.833
29377W        W 1802   5.628  26.150  12.493
29378W        W 1803  38.798  37.645  11.856
29379W        W 1804  17.403  25.573   0.839
29380W        W 1805  32.924  24.971  13.750
29381W        W 1806  10.290   6.988  12.428
29382W        W 1807  18.098  17.948   2.214
29383W        W 1808  11.968   4.483  12.054
29384W        W 1809  18.469  31.980  14.380
29385W        W 1810  11.363  13.069   4.130
29386W        W 1811  22.148  43.985   4.424
29387W        W 1812  26.231   8.095  14.467
29388W        W 1813  36.460  25.933  11.375
29389W        W 1814  22.602  26.946   1.276
29390W        W 1815   7.273  19.752  14.288
29391W        W 1816   6.756   9.027   4.639
29392W        W 1817  16.011  35.779  13.686
29393W        W 1818  44.309  37.956   3.613
29394W        W 1819  10.312  41.581   0.478
29395W        W 1820  14.600  18.769   0.842
29396W        W 1821   5.549  27.019   0.436
29397W        W 1822   8.250  36.000   4.493
29398W        W 1823  39.285   0.800  10.726
29399W        W 1824  32.940  17.622   1.375
29400W        W 1825  37.417  25.689  12.946
29401W        W 1826  38.472  24.889  11.994
29402W        W 1827  25.034  32.379   3.126
29403W        W 1828   1.983  11.889   2.855
29404W        W 1829  19.686   1.310  13.264
29405W        W 1830   0.206  25.991   4.748
29406W        W 1831  26.004  43.350  12.610
29407W        W 1832  19.705   1.456   1.457
29408W        W 1833  26.840  36.813  14.850
29409W        W 1834  22.775  25.608   1.350
29410W        W 1835   6.343  33.870  10.687
29411W        W 1836  24.103  35.191   3.586
29412W        W 1837  31.495  19.521   0.522
29413W        W 1838   1.403   0.317   1.631
29414W        W 1839  10.335  33.566   3.366
29415W        W 1840  29.174  42.219   2.688
29416W        W 1841  21.907   8.811   3.150
29417W        W 1842   6.261   3.500   2.802
29418W        W 1843  39.549   1.748  14.798
29419W        W 1844  35.710   1.248   0.798
29420W        W 1845  19.137  36.455  11.449
29421W        W 1846  39.237  21.279  14.481
29422W        W 1847  27.703  30.355   9.667
29423W        W 1848   1.564   0.516   4.563
29424W        W 1849   0.383  39.048  10.365
29425W        W 1850  24.418  25.348   4.353
29426W        W 1851  28.483  27.188  14.880
29427W        W 1852  11.431   6.471  10.981
29428W        W 1853  29.196   1.853  11.990
29429W        W 1854  22.019   1.879  12.909
29430W        W 1855   1.467  23.248   1.810
29431W        W 1856   6.185   7.928   3.588
29432W        W 1857  35.121  30.714   1.874
29433W        W 1858  15.159  28.364  11.109
29434W        W 1859  23.059   8.742   3.288
29435W        W 1860  18.097  35.342   2.883
29436W        W 1861   2.065  31.199   0.920
29437W        W 1862  28.468  10.972  14.485
29438W        W 1863  25.994  34.761   1.371
29439W        W 1864  23.826  42.119   0.919
29440W        W 1865  19.170   7.454  11.204
29441W        W 1866   8.546  33.746   0.731
29442W        W 1867  12.881   3.354   3.784
29443W        W 1868  39.250   7.554  14.822
29444W        W 1869  22.436  22.052  11.310
29445W        W 1870  14.045  16.865  12.838
29446W        W 1871  20.165  26.560  13.674
29447W        W 1872  21.249  21.779  12.441
29448W        W 1873  19.951  19.558  14.046
29449W        W 1874  41.364  24.811  14.449
29450W        W 1875   4.963  39.395  14.017
29451W        W 1876  24.550   5.718  11.132
29452W        W 1877  23.808  26.972   0.917
29453W        W 1878   6.345  27.182   4.594
29454W        W 1879  21.140  28.402   1.623
29455W        W 1880  40.834  39.349   0.924
29456W        W 1881  10.406  42.833   1.901
29457W        W 1882   8.370  43.722   4.081
29458W        W 1883   2.455  11.926  11.529
29459W        W 1884  13.952  11.336  14.394
29460W        W 1885  18.824   5.866   1.406
29461W        W 1886  13.806  40.553   3.832
29462W        W 1887  34.124  25.207  11.764
29463W        W 1888  42.256   6.843  13.256
29464W        W 1889  27.687  39.950  11.893
29465W        W 1890  42.941  27.479   4.772
29466W        W 1891   0.682  42.162   1.708
29467W        W 1892  15.221  14.612  10.803
29468W        W 1893  29.065   6.765  12.173
29469W        W 1894   7.167   7.284  11.075
29470W        W 1895  36.334  19.666   0.937
29471W        W 1896  42.533  34.149  12.894
29472W        W 1897  11.093   4.358  14.490
29473W        W 1898  36.520  20.345  11.546
29474W        W 1899  26.656  22.651   4.614
29475W        W 1900   3.993  41.901   0.365
29476W        W 1901  10.298   5.637  14.472
29477W        W 1902  18.809  39.746  12.880
29478W        W 1903  12.795   4.089   0.009
29479W        W 1904   7.716   8.444   4.001
29480W        W 1905  19.260  35.922   2.354
29481W        W 1906  37.958   8.391   3.597
29482W        W 1907   9.836  24.292   3.700
29483W        W 1908  31.961  42.773  11.079
29484W        W 1909  30.887   7.410   3.035
29485W        W 1910  11.188  12.505   3.547
29486W        W 1911  38.782  16.485  11.122
29487W        W 1912  34.748  15.166   3.675
29488W        W 1913  34.583  34.831  14.348
29489W        W 1914   8.781   9.601   1.406
29490W        W 1915   7.195   6.160  11.622
29491W        W 1916   2.744  25.847   0.750
29492W        W 1917  39.808  33.652  12.879
29493W        W 1918  34.775  38.420   2.844
29494W        W 1919  41.246  33.426  11.641
29495W        W 1920  18.585  37.802   3.379
29496W        W 1921   3.493  38.337  13.173
29497W        W 1922  19.129  23.528  10.304
29498W        W 1923  22.642  31.866  14.986
29499W        W 1924  41.472  17.355  12.223
29500W        W 1925  22.203  42.698  13.956
29501W        W 1926  14.660  15.510   1.159
29502W        W 1927  30.067  23.670  12.735
29503W        W 1928   8.336  11.599  14.040
29504W        W 1929  31.886  40.394  11.997
29505W        W 1930  21.705  37.620   3.274
29506W        W 1931  44.733   6.198   2.401
29507W        W 1932  34.892  13.581   1.428
29508W        W 1933  40.002  30.541   2.460
29509W        W 1934  29.700  15.191   1.362
29510W        W 1935  33.929  39.220  14.773
29511W        W 1936  24.138   1.828   2.928
29512W        W 1937  42.511  40.963  14.992
29513W        W 1938  21.028  14.369  12.523
29514W        W 1939  24.828  22.495  10.681
29515W        W 1940  31.043  26.626   2.753
29516W        W 1941   7.135  32.070  13.959
29517W        W 1942   6.023  30.224  14.995
29518W        W 1943   5.803  13.841   0.728
29519W        W 1944  40.469   0.047   1.159
29520W        W 1945  34.939  24.223   3.764
29521W        W 1946  16.217  25.522  10.892
29522W        W 1947  23.463   1.079   2.775
29523W        W 1948  24.642  16.653  12.996
29524W        W 1949  44.023   3.327  12.366
29525W        W 1950  20.949  21.716   2.241
29526W        W 1951  33.844   7.822   3.473
29527W        W 1952  25.508  21.975  11.955
29528W        W 1953  13.619  19.100   0.431
29529W        W 1954  11.428  40.662  13.619
29530W        W 1955  27.562  14.553  11.410
29531W        W 1956  35.100   0.837  14.269
29532W        W 1957   2.874   0.748   4.874
29533W        W 1958  15.248  16.205  11.540
29534W        W 1959  32.680  30.526  11.889
29535W        W 1960   8.778  33.226  11.995
29536W        W 1961  13.816  24.072  14.796
29537W        W 1962  15.858  44.946  11.178
29538W        W 1963  36.178  17.754  12.087
29539W        W 1964  36.681   4.794  12.110
29540W        W 1965  14.637  23.963  10.578
29541W        W 1966   5.407   7.341  12.861
29542W        W 1967  12.780  35.047   0.347
29543W        W 1968  42.552  33.025   4.418
29544W        W 1969   2.275   1.009   3.644
29545W        W 1970  14.883  25.342   5.272
29546W        W 1971  31.429  44.287  11.989
29547W        W 1972  15.517  39.518  13.895
29548W        W 1973  14.529  44.227  11.581
29549W        W 1974  14.075  35.104   1.300
29550W        W 1975  19.532  43.985   2.668
29551W        W 1976  10.732  13.221   3.339
29552W        W 1977   1.135  17.231   1.665
29553W        W 1978  37.886  43.454  13.493
29554W        W 1979  16.029  10.679  12.419
29555W        W 1980  19.202   7.358   1.492
29556W        W 1981  37.737   6.196   4.665
29557W        W 1982  43.395  23.444  14.007
29558W        W 1983  37.851  11.302   2.447
29559W        W 1984  39.132   6.895   3.778
29560W        W 1985  29.919   8.120  13.427
29561W        W 1986   9.255  43.831  11.178
29562W        W 1987  13.636  35.505   4.758
29563W        W 1988  36.650   7.922  13.904
29564W        W 1989   4.307   5.360  14.675
29565W        W 1990  42.890  17.652   2.673
29566W        W 1991  11.069  26.189   3.607
29567W        W 1992   0.682  37.745  12.795
29568W        W 1993  24.438  22.183   4.711
29569W        W 1994  43.331  31.143  10.744
29570W        W 1995  33.961   7.189  12.929
29571W        W 1996  44.779   2.827  13.921
29572W        W 1997  18.280  27.682  13.554
29573W        W 1998  34.459  28.770  12.101
29574W        W 1999   3.118  27.702   2.505
29575W        W 2000   9.248  38.429  11.088
29576W        W 2001  23.188  43.852   2.453
29577W        W 2002  22.251   6.808  13.473
29578W        W 2003  28.299  23.979  13.610
29579W        W 2004  32.560  14.059   4.654
29580W        W 2005  18.602   1.499   9.608
29581W        W 2006  18.245   4.924   2.278
29582W        W 2007  19.599  29.249  10.338
29583W        W 2008  35.505  15.037  13.157
29584W        W 2009  38.853  35.343  14.239
29585W        W 2010   3.249  38.453   2.910
29586W        W 2011  18.365   8.320   2.960
29587W        W 2012   2.385   7.156  10.790
29588W        W 2013  14.691  20.219  12.224
29589W        W 2014   1.986  11.323   1.378
29590W        W 2015  16.814  42.816  11.214
29591W        W 2016  24.061  35.399   0.477
29592W        W 2017  33.051  35.337  11.161
29593W        W 2018  11.251   1.644  11.965
29594W        W 2019  20.383  17.477   4.485
29595W        W 2020  35.577  16.183   2.778
29596W        W 2021   6.199  43.776   4.363
29597W        W 2022   2.733  24.877  14.309
29598W        W 2023  36.380  28.869  10.292
29599W        W 2024  14.068   2.322   3.647
29600W        W 2025  17.779  35.879  12.025
29601W        W 2026  18.253  38.786  11.912
29602W        W 2027   9.739  43.400   3.664
29603W        W 2028  17.496   2.330  12.900
29604W        W 2029  20.226   8.794   4.261
29605W        W 2030   8.334  14.905  12.055
29606W        W 2031   9.735  12.426  13.293
29607W        W 2032  44.473  22.177  12.534
29608W        W 2033  13.245  34.727  12.539
29609W        W 2034  39.777   0.228  11.812
29610W        W 2035  18.036  35.805  13.518
29611W        W 2036   7.604  42.978   1.360
29612W        W 2037  37.442   3.481   2.385
29613W        W 2038   2.844  29.507  10.939
29614W        W 2039  37.296  39.445   4.215
29615W        W 2040  15.563   5.192  12.964
29616W        W 2041  14.137   2.836  11.968
29617W        W 2042  30.605  34.552   0.892
29618W        W 2043  16.315  31.471  11.392
29619W        W 2044  27.633  23.620   1.198
29620W        W 2045   0.509   7.853   2.873
29621W        W 2046  34.129  36.593   2.165
29622W        W 2047  37.016  36.554  12.125
29623W        W 2048  34.977   9.348  12.582
29624W        W 2049  16.364  11.267   3.179
29625W        W 2050  42.989   1.249   1.232
29626W        W 2051  18.986  41.349   1.331
29627W        W 2052  36.412   8.918   1.158
29628W        W 2053  36.037  14.733  14.056
29629W        W 2054  35.555  44.738   3.631
29630W        W 2055  37.567   4.949  11.409
29631W        W 2056  38.367  27.710   4.553
29632W        W 2057  23.018  25.762   4.264
29633W        W 2058   0.931  29.556   1.336
29634W        W 2059   7.409  10.829  12.900
29635W        W 2060  18.582   6.831   3.221
29636W        W 2061  27.953   1.887   9.947
29637W        W 2062  37.274  10.515   2.718
29638W        W 2063  37.909   6.894  13.006
29639W        W 2064   5.714   7.601  11.103
29640W        W 2065  44.524   9.598  11.682
29641W        W 2066  22.355  33.433   2.638
29642W        W 2067  26.513  27.954   5.140
29643W        W 2068  11.078  29.069  13.346
29644W        W 2069  29.173  34.350  11.456
29645W        W 2070  18.160  30.109  14.917
29646W        W 2071   6.816  13.561  11.726
29647W        W 2072  40.440  14.305  14.907
29648W        W 2073  43.017  14.678   4.840
29649W        W 2074   3.753   2.390   0.431
29650W        W 2075  18.508  34.527  14.985
29651W        W 2076  41.033  22.375   4.102
29652W        W 2077  44.776  25.567  14.367
29653W        W 2078  19.650   6.372  10.651
29654W        W 2079  20.002  42.333   1.377
29655W        W 2080   6.187  44.272   0.432
29656W        W 2081  10.832   3.348  13.529
29657W        W 2082   5.054  35.243  11.140
29658W        W 2083  10.183  30.630   5.078
29659W        W 2084   6.351  37.833   0.026
29660W        W 2085   0.930   4.436  11.372
29661W        W 2086  11.827  39.463   0.306
29662W        W 2087   0.380  18.563   4.538
29663W        W 2088  36.599  25.788   3.630
29664W        W 2089   4.981   1.969   0.691
29665W        W 2090   2.540  44.902   1.805
29666W        W 2091   9.692  26.078   3.389
29667W        W 2092  20.232  37.179  13.875
29668W        W 2093  33.597   6.328   1.335
29669W        W 2094  17.079  19.711   0.524
29670W        W 2095  35.464   6.044  10.763
29671W        W 2096  40.935  21.199  14.829
29672W        W 2097  35.487  17.319   4.761
29673W        W 2098  18.908   7.209  11.644
29674W        W 2099  12.277  20.258  13.818
29675W        W 2100   6.241  31.421  12.902
29676W        W 2101  38.358  21.040   4.298
29677W        W 2102  14.822  11.921  13.869
29678W        W 2103   7.393   8.012  11.142
29679W        W 2104   3.425  25.814  13.119
29680W        W 2105  21.804  18.577  10.495
29681W        W 2106  22.731  12.235   4.160
29682W        W 2107   5.554  37.447   9.996
29683W        W 2108  22.734  41.324   1.465
29684W        W 2109  27.039  20.198  14.244
29685W        W 2110   5.223  39.963  13.716
29686W        W 2111  21.557   5.971  13.515
29687W        W 2112   7.006  11.205   2.033
29688W        W 2113   3.001  38.056  11.979
29689W        W 2114  13.610  21.245  11.089
29690W        W 2115  27.365  28.197   3.697
29691W        W 2116  15.366  23.022  11.400
29692W        W 2117  34.258  23.628   4.992
29693W        W 2118  14.354  20.602  14.470
29694W        W 2119   3.449  16.805   1.863
29695W        W 2120  28.191  43.519   4.251
29696W        W 2121   9.901  16.529  12.495
29697W        W 2122  36.674  20.183  12.009
29698W        W 2123  41.020   5.186   4.020
29699W        W 2124  13.188  20.056  13.323
29700W        W 2125  13.214   1.704  11.548
29701W        W 2126  20.061   9.295  14.423
29702W        W 2127  26.040  14.813  11.629
29703W        W 2128   7.857  23.274  13.216
29704W        W 2129   4.789   3.454  10.524
29705W        W 2130  26.146  43.422   1.989
29706W        W 2131  29.608   9.763   0.957
29707W        W 2132  23.031  38.154   2.299
29708W        W 2133  25.163  38.033  13.432
29709W        W 2134  40.479   9.738  11.746
29710W        W 2135  17.655  43.603  10.651
29711W        W 2136  16.680  17.148   2.474
29712W        W 2137   4.416  16.210  13.509
29713W        W 2138  39.474  34.353   3.207
29714W        W 2139  33.321  16.231   1.901
29715W        W 2140  21.610  43.780   3.770
29716W        W 2141   8.266   6.047   9.709
29717W        W 2142  15.076  41.030   1.380
29718W        W 2143  10.282  34.663   4.551
29719W        W 2144   6.166  13.506   2.974
29720W        W 2145  13.980  14.141  13.114
29721W        W 2146  23.720  39.497  14.051
29722W        W 2147  19.221   5.390   4.663
29723W        W 2148  31.420  24.422   4.608
29724W        W 2149  42.841  22.499  13.357
29725W        W 2150   5.701  23.541  14.748
29726W        W 2151  34.645   0.783   4.514
29727W        W 2152  19.126   4.889  12.007
29728W        W 2153  39.936  38.796   2.790
29729W        W 2154  18.682  20.265  13.651
29730W        W 2155  32.371  25.673  11.973
29731W        W 2156   5.786  43.939   1.801
29732W        W 2157   5.669  33.998  13.949
29733W        W 2158  32.610   7.632   3.824
29734W        W 2159  13.327  41.633  10.603
29735W        W 2160  16.334  43.894  12.484
29736W        W 2161  38.887   9.917   3.254
29737W        W 2162   5.908  17.651  11.841
29738W        W 2163  24.472  30.237   2.522
29739W        W 2164  33.612   5.435  12.957
29740W        W 2165  39.626  35.566   1.894
29741W        W 2166  26.085  20.193  12.094
29742W        W 2167  17.794  24.037   4.573
29743W        W 2168  27.106   1.802   0.946
29744W        W 2169  19.638  22.067  14.950
29745W        W 2170  33.126  23.873  11.544
29746W        W 2171  42.466  32.364  12.426
29747W        W 2172  20.049  33.749   2.549
29748W        W 2173  39.796  41.386  10.227
29749W        W 2174  18.325  19.816   3.728
29750W        W 2175   8.164   3.572   3.330
29751W        W 2176  29.521   0.342   3.341
29752W        W 2177  26.681  34.371   3.233
29753W        W 2178  11.196  29.808  11.608
29754W        W 2179  22.962  12.654   3.134
29755W        W 2180  37.631  10.797  12.509
29756W        W 2181  41.921   8.193  12.814
29757W        W 2182  30.893  35.935   1.079
29758W        W 2183  32.467  22.453   2.875
29759W        W 2184   6.115   6.648  12.984
29760W        W 2185  38.018  37.647   5.068
29761W        W 2186  29.519  21.985  13.121
29762W        W 2187   3.284  35.112   3.827
29763W        W 2188   8.468  20.746  11.654
29764W        W 2189  43.826  29.026   2.309
29765W        W 2190  27.215  17.223  12.038
29766W        W 2191   5.924   0.971   3.835
29767W        W 2192  18.825  23.633  14.449
29768W        W 2193  38.225  22.290   1.734
29769W        W 2194  34.672   6.723   4.522
29770W        W 2195   4.304  30.148   0.937
29771W        W 2196   6.210   9.592  11.270
29772W        W 2197   5.815  13.337   0.872
29773W        W 2198  33.211   5.651   2.173
29774W        W 2199  34.393   0.876   0.023
29775W        W 2200  42.395  32.962  13.274
29776W        W 2201  39.924  29.810   0.980
29777W        W 2202  38.128  12.867   2.805
29778W        W 2203  12.110  14.823   1.474
29779W        W 2204  28.867  41.934   3.684
29780W        W 2205  25.252  28.599   2.610
29781W        W 2206  10.939   8.178  12.505
29782W        W 2207  12.537  31.720   2.255
29783W        W 2208  24.128  19.230   0.956
29784W        W 2209  10.822  28.583  13.256
29785W        W 2210  43.549  16.936  12.192
29786W        W 2211   4.908  38.325   1.686
29787W        W 2212  18.270  43.454  11.901
29788W        W 2213  30.366  17.705   5.088
29789W        W 2214   0.015  33.172   2.202
29790W        W 2215  35.047  42.002  14.245
29791W        W 2216   5.204  28.992  14.864
29792W        W 2217   2.580   0.024  14.687
29793W        W 2218  25.029  36.595  10.771
29794W        W 2219   1.200  42.987   0.878
29795W        W 2220  11.780  23.561   5.179
29796W        W 2221  27.110  30.926   9.849
29797W        W 2222  25.557  32.182  13.087
29798W        W 2223  15.340  29.921   0.785
29799W        W 2224  24.577  44.411  14.331
29800W        W 2225  15.164  19.991   4.133
29801W        W 2226  11.458  10.837   3.740
29802W        W 2227  20.153  42.407   0.900
29803W        W 2228  28.943  24.316  10.487
29804W        W 2229   1.936   8.887  11.173
29805W        W 2230  14.704   7.073   3.191
29806W        W 2231  16.383  43.248   2.330
29807W        W 2232  38.083  22.748  12.666
29808W        W 2233  12.289  24.890  10.382
29809W        W 2234   7.237  33.685  13.372
29810W        W 2235   8.753  12.670  12.038
29811W        W 2236  20.147  39.949  10.706
29812W        W 2237  35.637   2.843   1.683
29813W        W 2238  15.355  39.036   4.295
29814W        W 2239  20.209  33.418   3.846
29815W        W 2240  11.448  10.822  12.863
29816W        W 2241  24.054  24.969   4.256
29817W        W 2242   2.362  20.157   0.574
29818W        W 2243  15.241  16.702  13.592
29819W        W 2244   0.068  10.332   1.798
29820W        W 2245  35.654  22.179  10.726
29821W        W 2246  14.039  33.064  13.383
29822W        W 2247  20.654  36.327   1.386
29823W        W 2248  38.492   0.749   1.760
29824W        W 2249   8.845  34.633  13.982
29825W        W 2250  38.349  39.233   4.171
29826W        W 2251  29.780  41.529   1.331
29827W        W 2252  36.188  35.524   2.980
29828W        W 2253   7.897   1.713  13.533
29829W        W 2254  43.905   3.040  11.159
29830W        W 2255  40.633  31.135  12.465
29831W        W 2256  35.306  12.688  14.301
29832W        W 2257  25.427  13.200  12.038
29833W        W 2258  34.971  10.867   1.767
29834W        W 2259  38.015  37.887   3.645
29835W        W 2260   1.981  29.340   4.287
29836W        W 2261  26.162   7.035  14.398
29837W        W 2262  40.070  30.949  14.295
29838W        W 2263  36.899   5.170  11.846
29839W        W 2264  22.664  32.114  11.999
29840W        W 2265   0.788  23.574  12.122
29841W        W 2266  23.469  43.478   0.705
29842W        W 2267   6.722   8.887  14.507
29843W        W 2268  20.370  13.991  10.060
29844W        W 2269  29.156   2.965   1.375
29845W        W 2270  12.138   4.735   4.941
29846W        W 2271   8.133  36.890   4.344
29847W        W 2272   1.219  43.284   3.651
29848W        W 2273   4.239  10.916  10.539
29849W        W 2274  12.431  37.016  14.351
29850W        W 2275   0.345  37.805   3.580
29851W        W 2276   4.630  41.336  14.467
29852W        W 2277   7.084   0.265  14.808
29853W        W 2278  37.414   0.379   4.524
29854W        W 2279   0.929  28.948   3.708
29855W        W 2280  18.113  44.993   2.662
29856W        W 2281   9.840  31.876  12.946
29857W        W 2282  42.837  39.384  14.763
29858W        W 2283  12.555   8.820  14.469
29859W        W 2284  23.007  11.602   0.434
29860W        W 2285  36.274  24.542   5.105
29861W        W 2286  24.223  38.871   2.439
29862W        W 2287  25.972  15.671   3.882
29863W        W 2288  41.253  22.510  11.967
29864W        W 2289  23.471  19.095  12.771
29865W        W 2290  25.390  42.273   4.046
29866W        W 2291  24.685   8.685   2.606
29867W        W 2292  37.876  30.468  13.369
29868W        W 2293  12.682  44.682  11.739
29869W        W 2294  43.816   9.734   3.637
29870W        W 2295   6.675   6.453   2.775
29871W        W 2296  41.607  22.274   4.229
29872W        W 2297  21.842   6.782   4.778
29873W        W 2298  33.827  28.910  14.425
29874W        W 2299   0.299  24.498   0.219
29875W        W 2300  32.340  24.162  11.288
29876W        W 2301  27.662  25.096   1.037
29877W        W 2302  10.670  30.718   1.358
29878W        W 2303  34.177  23.938  13.390
29879W        W 2304  17.283  40.662   3.888
29880W        W 2305  38.761  14.265  11.387
29881W        W 2306  41.676  40.981   0.446
29882W        W 2307  37.130  30.572   2.350
29883W        W 2308  13.795  40.252  14.378
29884W        W 2309  15.931  36.305  13.729
29885W        W 2310  16.123  12.808   2.083
29886W        W 2311  12.275  33.925  12.896
29887W        W 2312  22.520  38.379   2.143
29888W        W 2313   6.386  32.928  13.299
29889W        W 2314  16.324   7.102   0.254
29890W        W 2315  10.866  36.619   1.291
29891W        W 2316  35.981  21.152   0.724
29892W        W 2317   7.648  32.017  11.035
29893W        W 2318  34.382  41.419   1.525
29894W        W 2319  24.090   7.768   4.265
29895W        W 2320   4.308   0.489  11.524
29896W        W 2321  32.069  20.435  13.908
29897W        W 2322  41.474   1.834   4.250
29898W        W 2323  40.353   6.694   3.169
29899W        W 2324   6.220  27.724   1.227
29900W        W 2325  21.659  30.005  14.522
29901W        W 2326  43.923   4.825  14.358
29902W        W 2327  37.856  10.293  11.534
29903W        W 2328  28.059  29.117  10.682
29904W        W 2329   5.300  29.543   4.942
29905W        W 2330  18.764  39.908  11.173
29906W        W 2331   0.898  39.185  13.041
29907W        W 2332  11.673  10.376  11.327
29908W        W 2333  28.740  30.426  12.105
29909W        W 2334  12.843  19.304  14.432
29910W        W 2335  36.827  34.623  14.596
29911W        W 2336   2.138   0.882  14.051
29912W        W 2337  13.808  35.932   4.430
29913W        W 2338  25.449  10.231   1.337
29914W        W 2339   2.851  17.798  10.976
29915W        W 2340   5.681  20.053   3.246
29916W        W 2341  43.048  41.001   3.519
29917W        W 2342  18.783  34.308  14.006
29918W        W 2343  28.406  29.483  13.419
29919W        W 2344  22.550  10.774  13.500
29920W        W 2345   5.905  15.735  12.846
29921W        W 2346  20.678  13.835  10.728
29922W        W 2347  17.308  35.146   1.271
29923W        W 2348  28.447  41.955  13.974
29924W        W 2349  17.510  29.142  10.530
29925W        W 2350   7.909  40.642  12.511
29926W        W 2351  20.717   5.370  14.601
29927W        W 2352   8.228  33.350   3.160
29928W        W 2353  41.443  39.825   1.206
29929W        W 2354  13.717  32.435  13.359
29930W        W 2355   5.321  18.273  11.192
29931W        W 2356  23.925  10.415  11.430
29932W        W 2357  16.613  42.055   1.435
29933W        W 2358   4.946  28.741   4.156
29934W        W 2359   8.204  37.815  14.438
29935W        W 2360  20.702  18.794   2.270
29936W        W 2361  19.161  38.369  13.434
29937W        W 2362  39.356  34.628   3.647
29938W        W 2363   9.619  11.234   3.431
29939W        W 2364  37.784  15.340  11.084
29940W        W 2365  23.214  20.135   4.584
29941W        W 2366  23.677   9.030  12.032
29942W        W 2367  43.286  39.883   2.373
29943W        W 2368  38.317  41.524   1.440
29944W        W 2369  13.286  25.623   1.304
29945W        W 2370  22.462   7.495   3.374
29946W        W 2371   9.235  32.790  10.583
29947W        W 2372  16.278  23.520  11.166
29948W        W 2373  27.981  22.370   0.367
29949W        W 2374  37.918  26.452   3.636
29950W        W 2375  21.521  41.679  11.533
29951W        W 2376  42.520   6.266  14.047
29952W        W 2377  33.435  12.477   1.892
29953W        W 2378  14.757   4.381   3.195
29954W        W 2379   7.275  32.276   0.959
29955W        W 2380   9.143  36.126   2.439
29956W        W 2381   8.198  14.744   4.556
29957W        W 2382   5.805  20.464  10.739
29958W        W 2383  25.073  26.584   0.808
29959W        W 2384  33.191  44.853  12.446
29960W        W 2385  30.487  41.060  12.828
29961W        W 2386  39.047  28.086   4.549
29962W        W 2387  18.291  36.314   1.848
29963W        W 2388  19.605  10.426   4.204
29964W        W 2389  28.610  38.100  11.034
29965W        W 2390   7.856  35.834   4.182
29966W        W 2391  41.390  35.498  12.313
29967W        W 2392  42.187  19.584  10.682
29968W        W 2393  12.731  17.820   1.297
29969W        W 2394  38.033   6.407   0.917
29970W        W 2395  29.588   4.069   2.383
29971W        W 2396   9.727  38.822  14.396
29972W        W 2397  25.686  11.652  12.124
29973W        W 2398   4.282  42.347   1.414
29974W        W 2399  28.458  12.415   1.779
29975W        W 2400  23.704  41.993  14.480
29976W        W 2401   8.742   9.675  13.811
29977W        W 2402   6.369  25.141  13.053
29978W        W 2403  44.240  40.061   2.626
29979W        W 2404   9.211  19.739   1.818
29980W        W 2405  10.294  15.563  12.994
29981W        W 2406  13.420   0.844  14.220
29982W        W 2407  23.758  17.012  13.271
29983W        W 2408  35.914   1.990  11.758
29984W        W 2409  10.677  42.912   2.342
29985W        W 2410  25.699   9.896  14.663
29986W        W 2411  17.550   1.455   2.280
29987W        W 2412  12.830   7.658   2.798
29988W        W 2413  13.407  33.000  14.000
29989W        W 2414  20.206  31.155   3.149
29990W        W 2415   1.477  23.196  11.196
29991W        W 2416   4.022  27.918   2.702
29992W        W 2417  35.898  44.625  11.464
29993W        W 2418  41.605  31.906   0.909
29994W        W 2419   7.795  27.429  13.902
29995W        W 2420   8.095  17.100   0.133
29996W        W 2421  24.074  33.832  11.065
29997W        W 2422   7.745  17.658   4.819
29998W        W 2423  23.531  13.359  14.545
29999W        W 2424  37.248  26.560  13.007
30000W        W 2425  41.966  10.746   2.230
30001W        W 2426   4.194  30.155   3.633
30002W        W 2427  35.782  23.474   2.210
30003W        W 2428  33.932   5.470  11.380
30004W        W 2429  26.488  18.305  14.426
30005W        W 2430   8.199   2.463  11.160
30006W        W 2431  22.316   3.895   4.217
30007W        W 2432   6.458   7.132  13.958
30008W        W 2433  28.722  42.356   1.722
30009W        W 2434  20.008  16.295   1.268
30010W        W 2435  38.063  23.604   5.147
30011W        W 2436   3.741  11.580   1.958
30012W        W 2437  17.705   9.676   1.418
30013W        W 2438  38.031  32.675  11.422
30014W        W 2439  30.865  13.784  12.666
30015W        W 2440  16.217  37.310   3.168
30016W        W 2441   3.024  21.095   1.489
30017W        W 2442   5.755  23.016  14.816
30018W        W 2443   8.223  29.560   4.145
30019W        W 2444   4.249  43.343  10.669
30020W        W 2445  10.438   6.448   4.177
30021W        W 2446  28.680  16.182  13.297
30022W        W 2447  12.178  26.490  12.159
30023W        W 2448  17.689  25.747   2.449
30024W        W 2449   6.993  44.527  12.436
30025W        W 2450  39.392  39.610   0.308
30026W        W 2451  40.493  21.081   0.190
30027W        W 2452  16.423  19.086  11.129
30028W        W 2453  28.536   1.711  14.391
30029W        W 2454   9.194  30.780  12.485
30030W        W 2455  20.347  10.193  11.482
30031W        W 2456  13.513   7.206   3.686
30032W        W 2457  43.498  42.604  11.035
30033W        W 2458  21.959   4.925   3.227
30034W        W 2459  26.140   0.691   0.723
30035W        W 2460  31.912   4.707   3.694
30036W        W 2461  16.320  10.654   2.055
30037W        W 2462  37.277  26.209   5.219
30038W        W 2463  18.644  11.090  12.182
30039W        W 2464   7.073  40.123  10.604
30040W        W 2465  35.328  25.691   0.817
30041W        W 2466  35.437  32.018  14.927
30042W        W 2467   9.243   4.905  14.874
30043W        W 2468  17.287  13.509   1.326
30044W        W 2469   8.734  19.487   1.878
30045W        W 2470  44.708  11.210   1.371
30046W        W 2471  14.061  29.439   0.858
30047W        W 2472  17.388  21.652   3.778
30048W        W 2473  30.428  30.138   2.599
30049W        W 2474   0.396  43.992  14.758
30050W        W 2475  44.209  14.772  11.178
30051W        W 2476  14.647   7.140  12.810
30052W        W 2477  16.488  13.157  13.359
30053W        W 2478  20.287  41.410   2.906
30054W        W 2479  18.198  25.644   4.221
30055W        W 2480   9.118  25.470  10.669
30056W        W 2481  27.705   0.023  12.007
30057W        W 2482   8.979  31.444   2.886
30058W        W 2483  14.235  40.284  12.382
30059W        W 2484   3.489  17.149  11.850
30060W        W 2485  23.745  20.722  10.907
30061W        W 2486  25.883   7.976  11.426
30062W        W 2487  20.095  32.009   5.049
30063W        W 2488  40.021   2.300   0.307
30064W        W 2489  37.976  24.929   3.838
30065W        W 2490   4.214  12.333  13.946
30066W        W 2491  13.250  30.865  12.019
30067W        W 2492   8.760  44.327  14.354
30068W        W 2493  21.834   3.409   1.997
30069W        W 2494  15.716  12.678   3.773
30070W        W 2495  42.779  34.507  10.681
30071W        W 2496  18.673   0.353  10.518
30072W        W 2497  22.555   1.462  14.022
30073W        W 2498  42.963  36.300   3.649
30074W        W 2499  15.283  35.307  14.839
30075W        W 2500  18.551  23.149   4.195
30076W        W 2501  19.760  25.572  13.867
30077W        W 2502   3.214  32.382   4.480
30078W        W 2503  23.255   3.403   1.945
30079W        W 2504   5.127  20.570   0.767
30080W        W 2505  39.524  28.532  13.177
30081W        W 2506   8.162  23.536   0.280
30082W        W 2507   5.266  35.337   3.814
30083W        W 2508  30.079   4.050   2.156
30084W        W 2509  18.185  19.318   4.581
30085W        W 2510  28.587  20.683  12.907
30086W        W 2511  22.956  21.371   0.897
30087W        W 2512  20.632  44.794   4.422
30088W        W 2513  36.259  40.322   3.197
30089W        W 2514  41.371   0.779  13.618
30090W        W 2515  14.807  13.894  11.575
30091W        W 2516  19.196   7.910   1.430
30092W        W 2517   6.649  33.407   4.573
30093W        W 2518  11.353  36.465  11.755
30094W        W 2519   8.839   5.696  10.180
30095W        W 2520  30.218  27.414   4.337
30096W        W 2521  36.869  18.810  14.825
30097W        W 2522  36.692  17.740  11.140
30098W        W 2523  20.018   0.372   4.307
30099W        W 2524  14.113  15.732   1.691
30100W        W 2525  36.485  43.874   0.813
30101W        W 2526  22.313  19.039   0.513
30102W        W 2527   2.233   0.961  13.568
30103W        W 2528  14.276  22.892   3.700
30104W        W 2529  11.769  27.096   1.830
30105W        W 2530  42.144  40.946  11.461
30106W        W 2531   5.892  12.204   4.611
30107W        W 2532  44.799   9.177   1.892
30108W        W 2533   4.561  18.667   4.585
30109W        W 2534  11.699  14.365  13.032
30110W        W 2535  42.952  42.751   0.930
30111W        W 2536  40.070  17.417   4.339
30112W        W 2537  27.951   5.656  10.163
30113W        W 2538  32.831  27.506  11.157
30114W        W 2539  25.502  40.117  12.150
30115W        W 2540  41.766   4.668   1.820
30116W        W 2541  17.542  42.543  10.673
30117W        W 2542  40.997  22.949   0.329
30118W        W 2543  23.196  18.259  11.142
30119W        W 2544  32.644  30.728  13.778
30120W        W 2545  37.995  43.543   2.818
30121W        W 2546  43.466  30.500   1.447
30122W        W 2547   8.515  41.496  11.656
30123W        W 2548  32.079  13.376  12.775
30124W        W 2549  32.108  24.053  10.478
30125W        W 2550  27.060   9.503  14.795
30126W        W 2551   0.820  17.273  14.889
30127W        W 2552  27.703  12.309   2.823
30128W        W 2553  41.062   2.431   2.782
30129W        W 2554  39.469  23.493   1.637
30130W        W 2555  29.344  29.246   4.941
30131W        W 2556   1.150  39.079   1.789
30132W        W 2557  27.294   8.166  13.023
30133W        W 2558   2.744  18.806   4.058
30134W        W 2559  40.548  38.343  14.495
30135W        W 2560  11.382  36.647   1.360
30136W        W 2561  21.308  10.747  13.028
30137W        W 2562  21.130  11.437  14.868
30138W        W 2563  40.038  13.196   0.600
30139W        W 2564  43.297  12.327   0.439
30140W        W 2565  18.734  14.644  13.125
30141W        W 2566   5.754  31.659  11.268
30142W        W 2567   9.300  35.236   5.475
30143W        W 2568  39.902   2.297  11.177
30144W        W 2569  25.096  27.466   1.918
30145W        W 2570  26.661  16.349   4.206
30146W        W 2571  10.180  33.074  10.149
30147W        W 2572  25.659  29.218  11.538
30148W        W 2573  39.101  28.464  11.227
30149W        W 2574  11.741  13.890  10.364
30150W        W 2575   7.716  18.486   0.255
30151W        W 2576   1.838  23.615  11.987
30152W        W 2577  20.951  27.138  12.171
30153W        W 2578   4.402  31.382  13.727
30154W        W 2579  37.478   3.473   0.063
30155W        W 2580  16.049  24.721  13.006
30156W        W 2581  35.452  41.217  14.279
30157W        W 2582  19.712  23.477   2.862
30158W        W 2583  36.453  19.153   0.428
30159W        W 2584   6.626  26.410  11.594
30160W        W 2585  10.165   2.287   2.806
30161W        W 2586   7.847  11.363  14.276
30162W        W 2587   1.049  12.858  14.973
30163W        W 2588   5.752  34.815  14.643
30164W        W 2589  33.364  40.727   0.904
30165W        W 2590  13.784  20.334   1.821
30166W        W 2591  42.899  41.068  11.913
30167W        W 2592  16.741   3.061   4.646
30168W        W 2593  26.951   0.255  14.004
30169W        W 2594  12.622  32.852   1.819
30170W        W 2595  12.645  24.448  13.320
30171W        W 2596  24.123  33.642   3.673
30172W        W 2597  27.291   6.267   1.160
30173W        W 2598  21.556  16.229   4.353
30174W        W 2599  34.906   0.272   0.661
30175W        W 2600   7.785  27.102  14.447
30176W        W 2601  42.203  16.205   2.265
30177W        W 2602  36.130  13.766   1.952
30178W        W 2603  16.116   6.805   2.894
30179W        W 2604  17.501   9.116  12.035
30180W        W 2605  37.079   3.409  12.155
30181W        W 2606   1.906  27.477  11.944
30182W        W 2607   0.378  22.376  12.920
30183W        W 2608   1.241   0.127  11.863
30184W        W 2609   9.104  29.247  14.417
30185W        W 2610  20.673  25.230   3.401
30186W        W 2611  39.398  11.638  10.668
30187W        W 2612   1.448  25.452   4.412
30188W        W 2613  41.472  41.147  10.529
30189W        W 2614  32.072   6.520   3.781
30190W        W 2615  41.545   0.847  14.106
30191W        W 2616  12.325  12.783   0.686
30192W        W 2617  41.950   7.821  14.301
30193W        W 2618  20.798  23.914  12.309
30194W        W 2619  27.250   6.700  11.268
30195W        W 2620  29.655   4.326   4.213
30196W        W 2621  31.087   9.620   2.339
30197W        W 2622   9.238  35.942   1.981
30198W        W 2623   6.007  21.776   3.515
30199W        W 2624  18.116  17.241   0.812
30200W        W 2625   6.333  21.564  12.962
30201W        W 2626  15.556  44.214   4.304
30202W        W 2627  29.676  40.403   0.717
30203W        W 2628  36.275  31.974   2.523
30204W        W 2629  37.690  18.388   0.818
30205W        W 2630   9.792  39.346  14.513
30206W        W 2631  42.576  33.079  10.733
30207W        W 2632  25.915  39.072  13.948
30208W        W 2633  13.375  41.956  14.384
30209W        W 2634  30.394  11.794  11.704
30210W        W 2635  37.123  13.139  12.869
30211W        W 2636  37.196  23.323   9.702
30212W        W 2637  22.961  37.414   9.775
30213W        W 2638  37.151  30.828  11.490
30214W        W 2639  10.441   4.817   3.418
30215W        W 2640  25.684  18.618   3.408
30216W        W 2641  26.209  18.636  14.717
30217W        W 2642  26.801  23.987   4.117
30218W        W 2643  17.352  44.221  11.026
30219W        W 2644  12.608  22.596   3.709
30220W        W 2645  34.289   6.240   0.890
30221W        W 2646  31.618   5.881  13.516
30222W        W 2647  34.541  28.142   4.576
30223W        W 2648  34.813   2.998   2.183
30224W        W 2649  26.201  44.027  11.377
30225W        W 2650  44.254   6.922  13.858
30226W        W 2651  16.459  31.055   4.541
30227W        W 2652  26.153  40.620  11.119
30228W        W 2653  29.166  23.004   0.419
30229W        W 2654  30.895  44.048  13.954
30230W        W 2655  18.600   5.320   2.286
30231W        W 2656  35.292  13.625  14.867
30232W        W 2657  44.271  19.641  10.353
30233W        W 2658  31.664  29.602   3.250
30234W        W 2659  22.580  21.715  11.680
30235W        W 2660  24.221  27.344  12.978
30236W        W 2661  30.136  43.264   4.151
30237W        W 2662  37.172  19.258  13.833
30238W        W 2663  33.499   8.223   2.124
30239W        W 2664  19.330  13.549  11.190
30240W        W 2665   4.939  27.069  12.044
30241W        W 2666  27.847  29.939  12.177
30242W        W 2667  36.955  22.087  12.078
30243W        W 2668  25.942   3.261  14.729
30244W        W 2669  15.258  16.912   0.803
30245W        W 2670  24.160  10.160   0.803
30246W        W 2671  17.664  19.051   3.639
30247W        W 2672   3.411  20.672  12.801
30248W        W 2673  30.124  22.822  14.908
30249W        W 2674   7.270  40.120   1.340
30250W        W 2675  17.212  30.196   4.139
30251W        W 2676  22.735  40.356  12.038
30252W        W 2677  28.934  16.032   4.359
30253W        W 2678  32.219   8.153  13.371
30254W        W 2679  16.851  17.513  12.375
30255W        W 2680   9.813  10.725   4.292
30256W        W 2681  37.871  14.651   4.068
30257W        W 2682  14.360   6.474   0.261
30258W        W 2683  32.041  22.068  10.156
30259W        W 2684   5.142   1.295  14.948
30260W        W 2685  43.885  32.106  11.538
30261W        W 2686  32.611   7.112  11.814
30262W        W 2687   4.856  41.114   0.371
30263W        W 2688  16.258  35.243   1.388
30264W        W 2689  31.622  10.471   1.234
30265W        W 2690  11.123   0.841  13.466
30266W        W 2691  22.215  17.742  14.386
30267W        W 2692   5.726  43.894   1.271
30268W        W 2693   9.299  20.563  11.055
30269W        W 2694  34.595  30.189  14.546
30270W        W 2695   8.845  28.654  13.440
30271W        W 2696  23.225  34.518  13.752
30272W        W 2697  38.816  38.603  14.624
30273W        W 2698  26.212  26.904  11.207
30274W        W 2699  23.371  15.651  11.211
30275W        W 2700  17.960   0.358  11.332
30276W        W 2701  30.680  14.804   2.938
30277W        W 2702  36.279  11.759   4.476
30278W        W 2703  26.497  38.904   0.304
30279W        W 2704  22.211  16.657   1.353
30280W        W 2705  20.700  28.445  13.392
30281W        W 2706  31.051  18.819  10.626
30282W        W 2707  29.210  36.189  13.798
30283W        W 2708   8.686  37.108   1.961
30284W        W 2709   9.149  41.031   1.937
30285W        W 2710  25.046   8.260   1.402
30286W        W 2711  11.137   8.300  11.499
30287W        W 2712  34.175  18.393   1.806
30288W        W 2713   3.823  13.541   3.190
30289W        W 2714  29.575  26.531  12.861
30290W        W 2715  11.113   1.344  11.561
30291W        W 2716  25.032  27.416  10.658
30292W        W 2717  23.544  40.033   2.115
30293W        W 2718  34.133  42.853  13.524
30294W        W 2719  39.818  11.726  14.492
30295W        W 2720  42.380   3.392   1.247
30296W        W 2721  40.340  31.100   4.520
30297W        W 2722  36.941  23.601  13.167
30298W        W 2723  32.945  10.737   4.023
30299W        W 2724   9.838   5.934  11.916
30300W        W 2725   9.301  39.363   2.221
30301W        W 2726  16.285  40.170  14.111
30302W        W 2727  20.382  17.453   3.846
30303W        W 2728  25.568  28.735   4.296
30304W        W 2729  12.730  25.125  11.683
30305W        W 2730  25.579  35.492   3.230
30306W        W 2731   1.832  22.147  11.661
30307W        W 2732  17.012  28.170  11.074
30308W        W 2733  17.663  25.231   0.376
30309W        W 2734  17.068   7.598  13.273
30310W        W 2735  18.978  30.612   3.123
30311W        W 2736  11.602  38.332   0.861
30312W        W 2737  19.212  36.915  13.993
30313W        W 2738  13.014   2.808   3.972
30314W        W 2739  38.608   2.663   1.260
30315W        W 2740   3.679  16.201   4.186
30316W        W 2741  24.527  25.542   0.247
30317W        W 2742   1.876  17.159  10.827
30318W        W 2743   8.990  30.363   0.384
30319W        W 2744  12.995  11.042  13.565
30320W        W 2745  35.137  22.828   1.047
30321W        W 2746  21.695  22.745   1.524
30322W        W 2747   8.453  29.886  14.506
30323W        W 2748  25.967  38.988   4.897
30324W        W 2749  35.774  40.336  13.054
30325W        W 2750  18.389  21.610   4.764
30326W        W 2751  24.762  30.343   4.878
30327W        W 2752  35.194  37.784   4.210
30328W        W 2753  40.904   7.834  14.905
30329W        W 2754  32.162  35.120   4.838
30330W        W 2755   6.064   1.860  13.804
30331W        W 2756  11.149  18.848   4.930
30332W        W 2757  31.558  42.588  12.328
30333W        W 2758   7.454   9.083   3.398
30334W        W 2759  10.204  21.262  13.566
30335W        W 2760  29.631  24.199  13.301
30336W        W 2761  27.041  25.123  14.563
30337W        W 2762  44.879  41.998   0.857
30338W        W 2763   9.804  44.226   0.874
30339W        W 2764  21.644  20.945   3.987
30340W        W 2765   3.958  27.138  12.934
30341W        W 2766  11.600  34.009  11.580
30342W        W 2767  11.463   0.823  10.745
30343W        W 2768   8.778  43.767   2.235
30344W        W 2769   2.982  12.103  12.187
30345W        W 2770  21.428   6.970  14.767
30346W        W 2771  21.761   7.278   2.903
30347W        W 2772  22.247  42.994  12.944
30348W        W 2773  19.174  34.135  11.082
30349W        W 2774   7.765  45.000   3.124
30350W        W 2775   5.913  30.973   2.080
30351W        W 2776   3.720  17.149  13.279
30352W        W 2777  10.371  30.164  13.255
30353W        W 2778   6.159   8.477   0.305
30354W        W 2779  15.295   9.947  11.468
30355W        W 2780   8.187   5.786   4.180
30356W        W 2781   0.539  35.397  10.680
30357W        W 2782  21.951   0.285   0.236
30358W        W 2783  39.874  30.597   3.916
30359W        W 2784  26.194   0.978  11.493
30360W        W 2785  34.181   8.220  12.975
30361W        W 2786  16.187  27.604  12.518
30362W        W 2787  29.626  33.735   4.970
30363W        W 2788  22.006   8.722  10.113
30364W        W 2789  39.969   6.170  11.130
30365W        W 2790  38.956  29.204   0.180
30366W        W 2791  10.895  42.917  11.561
30367W        W 2792  37.476  43.034  10.848
30368W        W 2793   6.380  26.325  11.001
30369W        W 2794  10.840  40.088  14.871
30370W        W 2795  44.289  39.902   0.270
30371W        W 2796  34.032  36.604   0.304
30372W        W 2797  44.359  13.309   3.729
30373W        W 2798   8.922  11.150   2.770
30374W        W 2799   8.890  32.938  11.586
30375W        W 2800   5.931  22.387   1.128
30376W        W 2801  15.593  44.763   0.787
30377W        W 2802   4.230  44.329   0.348
30378W        W 2803   5.655  11.188  13.864
30379W        W 2804   2.249  17.597  13.422
30380W        W 2805   7.828  21.471   1.349
30381W        W 2806   0.328   8.666   4.392
30382W        W 2807  28.449  43.108  10.499
30383W        W 2808   5.798  29.557   3.610
30384W        W 2809  25.672  41.917  10.673
30385W        W 2810  38.315  30.377   3.375
30386W        W 2811   7.639  30.485  10.252
30387W        W 2812  39.264  29.402   1.838
30388W        W 2813   1.788  42.945  11.803
30389W        W 2814  10.756  44.378   1.262
30390W        W 2815  32.665  14.619   2.930
30391W        W 2816  24.114  31.639   4.066
30392W        W 2817  40.234  10.237   1.308
30393W        W 2818  29.605   5.116   3.905
30394W        W 2819  28.149   5.728   1.255
30395W        W 2820  10.831  18.131  11.040
30396W        W 2821  43.338  44.881  11.579
30397W        W 2822  37.473  32.969   0.479
30398W        W 2823  28.216  30.571  10.119
30399W        W 2824  40.306  30.915   3.225
30400W        W 2825  34.139  30.544  11.146
30401W        W 2826  38.085  25.174  11.861
30402W        W 2827  44.729  22.076   4.294
30403W        W 2828   4.148  13.779  14.343
30404W        W 2829  43.037  34.745   4.131
30405W        W 2830   0.991  42.335  11.339
30406W        W 2831   2.803  20.663   4.603
30407W        W 2832  28.393  37.775   2.777
30408W        W 2833  41.799  33.343   2.218
30409W        W 2834  36.596  17.726   0.439
30410W        W 2835  39.981   8.627  12.893
30411W        W 2836  26.137  31.771   5.343
30412W        W 2837  27.222  30.724  11.139
30413W        W 2838   6.967  39.883  14.833
30414W        W 2839  19.957  41.823  13.538
30415W        W 2840  32.482  18.198   1.243
30416W        W 2841  18.824   6.044  12.900
30417W        W 2842  25.712  39.064   2.323
30418W        W 2843   1.217   5.868   0.926
30419W        W 2844  39.977  24.190   3.994
30420W        W 2845   5.395  13.140  13.181
30421W        W 2846  35.607  20.973  11.136
30422W        W 2847  33.831  36.461   4.548
30423W        W 2848  12.719  32.867  13.488
30424W        W 2849   2.965   1.831  12.156
30425W        W 2850  24.675  12.929   2.927
30426W        W 2851   7.638  41.862  14.771
30427W        W 2852  24.229  33.671   2.768
30428W        W 2853  23.092  16.074  10.955
30429W        W 2854   5.107  12.119   1.796
30430W        W 2855  19.224   8.179   3.218
30431W        W 2856  42.267  22.591   0.334
30432W        W 2857  30.638  31.821   2.729
30433W        W 2858  16.555  23.552   1.314
30434W        W 2859  21.174  28.533   3.253
30435W        W 2860  21.876   2.551  14.148
30436W        W 2861  30.863   7.170  14.440
30437W        W 2862  18.522  41.273   1.073
30438W        W 2863  27.009   2.438   2.619
30439W        W 2864  27.633  27.557   2.579
30440W        W 2865  18.155  35.682   4.160
30441W        W 2866  11.842   3.047  11.372
30442W        W 2867   1.922  32.630  11.594
30443W        W 2868  32.899  16.708  12.886
30444W        W 2869  42.588   1.137  14.937
30445W        W 2870  15.918  11.295   0.866
30446W        W 2871   0.003  18.122   0.382
30447W        W 2872   1.850  40.211   1.348
30448W        W 2873  22.633  16.668   2.375
30449W        W 2874   2.831   2.855   4.285
30450W        W 2875  34.236  22.009   2.845
30451W        W 2876  44.965   4.355  12.644
30452W        W 2877  40.397   5.695  11.622
30453W        W 2878  44.984  19.574   0.324
30454W        W 2879  10.603  40.961  14.979
30455W        W 2880   0.450  13.365  14.364
30456W        W 2881  28.414  38.507   2.165
30457W        W 2882  32.924  44.436   2.384
30458W        W 2883  31.830  18.031   4.257
30459W        W 2884  14.218   0.419  10.554
30460W        W 2885   6.251  25.378   1.315
30461W        W 2886  31.833  22.625   3.533
30462W        W 2887  39.471   1.338   3.726
30463W        W 2888  43.151  33.533   0.963
30464W        W 2889  41.050  10.536  13.232
30465W        W 2890  18.534  10.258   1.510
30466W        W 2891  13.173  41.555   4.604
30467W        W 2892  11.693  37.885  14.655
30468W        W 2893  33.997  34.220  10.600
30469W        W 2894  25.977  14.329  12.184
30470W        W 2895  43.053   3.705   3.222
30471W        W 2896   8.339   3.156  13.313
30472W        W 2897  41.886  36.851   3.700
30473W        W 2898  30.876  31.959  12.922
30474W        W 2899  40.950  29.549   3.392
30475W        W 2900  37.987  19.986   5.049
30476W        W 2901  34.343  13.084  11.051
30477W        W 2902  42.423  11.583  11.187
30478W        W 2903  28.705  42.964  10.948
30479W        W 2904  36.806   7.411   4.678
30480W        W 2905  30.733  40.137   4.455
30481W        W 2906  12.829  36.465  10.993
30482W        W 2907  16.323  29.636  14.341
30483W        W 2908  34.770  27.904   4.119
30484W        W 2909  35.585  35.789  13.387
30485W        W 2910  35.505  28.463  11.218
30486W        W 2911  18.211   4.411  11.498
30487W        W 2912   9.305  10.619   4.151
30488W        W 2913  20.057  25.612  12.440
30489W        W 2914   3.953  42.853  10.718
30490W        W 2915  40.014  20.085   1.437
30491W        W 2916  10.110  13.248  11.370
30492W        W 2917  18.272  31.954  11.742
30493W        W 2918  16.976  16.844  10.999
30494W        W 2919  28.412  35.936   2.909
30495W        W 2920  34.785  24.416   0.362
30496W        W 2921  14.574   2.203   3.765
30497W        W 2922   1.442  43.516  14.074
30498W        W 2923  36.015  36.460   1.263
30499W        W 2924  14.674  34.099  12.495
30500W        W 2925   0.333  44.298  14.348
30501W        W 2926  15.611  15.565   0.828
30502W        W 2927   8.396   7.628  10.221
30503W        W 2928  12.380  23.860  13.898
30504W        W 2929  22.651  27.500   0.541
30505W        W 2930  19.315   1.389   0.653
30506W        W 2931  23.145  12.815   1.568
30507W        W 2932   7.950  19.151  12.901
30508W        W 2933   4.842  26.684   0.811
30509W        W 2934   9.613  34.603   0.494
30510W        W 2935  28.005  17.148   5.168
30511W        W 2936  30.881  24.432  13.251
30512W        W 2937  41.827  26.096   4.133
30513W        W 2938  12.218  13.621  11.525
30514W        W 2939  15.190  13.063  14.544
30515W        W 2940  23.123  13.435  14.046
30516W        W 2941  10.769  11.132   2.704
30517W        W 2942   9.985  19.804  11.895
30518W        W 2943  38.122  44.044  14.732
30519W        W 2944  40.758  34.872  13.220
30520W        W 2945   3.425  21.593  12.319
30521W        W 2946  29.223  26.632  14.532
30522W        W 2947  31.923  36.046   4.927
30523W        W 2948  10.180  42.380   0.034
30524W        W 2949  36.316   7.402   2.808
30525W        W 2950  42.897  37.599  12.093
30526W        W 2951  44.586  25.599  13.019
30527W        W 2952  35.078  35.921   0.609
30528W        W 2953   6.893   7.701   0.324
30529W        W 2954  37.502   8.146  11.129
30530W        W 2955  26.459  20.503  12.955
30531W        W 2956  14.422   0.901  14.465
30532W        W 2957  32.405  27.977   0.910
30533W        W 2958  23.790   5.203  13.393
30534W        W 2959  31.099  22.203   0.090
30535W        W 2960   5.414   0.737  10.789
30536W        W 2961   9.838  41.749  14.355
30537W        W 2962  24.222   2.389  12.939
30538W        W 2963  38.614  24.198  13.874
30539W        W 2964   3.792  29.126  13.392
30540W        W 2965   1.499  11.654   4.108
30541W        W 2966   4.432  24.084   1.531
30542W        W 2967  40.282  28.536   4.141
30543W        W 2968  34.515  42.456  10.854
30544W        W 2969   4.050  16.123  10.381
30545W        W 2970  12.835  35.526   4.143
30546W        W 2971  36.440  31.974   3.564
30547W        W 2972  38.958  34.815  10.110
30548W        W 2973  36.366   6.012  10.497
30549W        W 2974  22.066  18.175   3.191
30550W        W 2975  20.153  30.142   3.172
30551W        W 2976  16.834  22.280   0.968
30552W        W 2977  26.002  10.409  10.125
30553W        W 2978  21.009  19.566  14.039
30554W        W 2979   5.133  25.779  10.534
30555W        W 2980  30.087  39.990   0.457
30556W        W 2981   0.980  19.590   5.025
30557W        W 2982  35.473  31.579  14.316
30558W        W 2983   1.260  16.131  14.249
30559W        W 2984   7.582   5.720  14.342
30560W        W 2985  27.598  22.148  13.842
30561W        W 2986  19.086   6.039   2.284
30562W        W 2987  28.708  15.694   1.875
30563W        W 2988  27.089  31.778   3.645
30564W        W 2989  32.733  30.467  14.238
30565W        W 2990  18.559  32.259  11.295
30566W        W 2991  36.427  26.016  14.871
30567W        W 2992  44.401  29.393   3.732
30568W        W 2993  43.904  40.004  11.591
30569W        W 2994   0.501  25.590   2.452
30570W        W 2995  15.768   3.774   3.960
30571W        W 2996   2.858  31.850  13.462
30572W        W 2997  35.834   2.760  13.400
30573W        W 2998  15.787  15.611   4.735
30574W        W 2999  24.554  13.628  10.594
30575W        W 3000  18.899  42.926   1.796
30576W        W 3001  18.861  35.128  13.293
30577W        W 3002  22.251  29.610   4.160
30578W        W 3003  20.754   0.312   3.114
30579W        W 3004   1.744  35.730   4.478
30580W        W 3005   7.923  16.057  11.589
30581W        W 3006  41.994  11.360  10.393
30582W        W 3007  33.606  30.919  13.397
30583W        W 3008  22.471  18.831   3.966
30584W        W 3009  20.280  36.391  14.388
30585W        W 3010  16.590  18.216   2.867
30586W        W 3011  30.706  11.237  13.051
30587W        W 3012  35.436   6.648  12.903
30588W        W 3013  24.667  10.542   2.843
30589W        W 3014  25.762  31.521  11.959
30590W        W 3015  37.540   7.335  14.806
30591W        W 3016  10.188  15.436  10.202
30592W        W 3017  41.478  31.627  10.577
30593W        W 3018  29.202  43.619  14.751
30594W        W 3019   0.472   8.876  12.998
30595W        W 3020  34.572   0.878  11.696
30596W        W 3021  28.533  43.035   4.640
30597W        W 3022  33.419  24.040  14.939
30598W        W 3023  19.473  30.546  11.366
30599W        W 3024  19.498  30.071  13.950
30600W        W 3025  40.991   6.681  13.993
30601W        W 3026  17.836  27.117  13.015
30602W        W 3027  17.481   8.434   2.074
30603W        W 3028  26.298  18.346  11.843
30604W        W 3029  18.498  30.902  11.998
30605W        W 3030  44.992   1.982   1.336
30606W        W 3031  38.152  12.765   4.848
30607W        W 3032  11.309   9.147  12.458
30608W        W 3033  17.197  11.562  11.599
30609W        W 3034   8.264  11.658  13.512
30610W        W 3035  28.242  21.720  11.020
30611W        W 3036  28.572  14.652  12.544
30612W        W 3037  23.714   5.373   2.663
30613W        W 3038  14.550  40.576  14.836
30614W        W 3039   8.165  11.445   2.253
30615W        W 3040   3.021   1.807  13.056
30616W        W 3041  40.732  20.327  13.052
30617W        W 3042   1.324  16.600  13.983
30618W        W 3043  23.797  11.128  10.202
30619W        W 3044  43.613  27.998   0.848
30620W        W 3045  44.477  39.101  14.866
30621W        W 3046  22.545  15.165   0.062
30622W        W 3047  22.717  34.894  14.992
30623W        W 3048   7.094  11.249  12.968
30624W        W 3049   5.303  22.187   2.435
30625W        W 3050  40.887  29.079   3.594
30626W        W 3051  33.006  11.723   4.305
30627W        W 3052   0.284   1.041   4.795
30628W        W 3053  30.918  26.899  12.888
30629W        W 3054  38.643   4.374  11.620
30630W        W 3055  15.841  13.494   0.437
30631W        W 3056  41.785   1.638  13.558
30632W        W 3057  14.183  42.787  11.421
30633W        W 3058  37.873  36.852   3.645
30634W        W 3059   5.734  26.459  11.664
30635W        W 3060   3.492  11.279  11.187
30636W        W 3061   0.580  37.972   4.534
30637W        W 3062  36.002   2.169  14.924
30638W        W 3063  18.789  11.258   1.368
30639W        W 3064  15.400   9.691  13.587
30640W        W 3065   5.421  15.715   4.292
30641W        W 3066  12.375  37.556   2.610
30642W        W 3067  12.186   9.200   3.365
30643W        W 3068  11.245  37.971   1.431
30644W        W 3069   3.372  40.426   0.953
30645W        W 3070  39.132  39.322  11.847
30646W        W 3071  26.361   7.663  11.418
30647W        W 3072   7.311  38.063  14.412
30648W        W 3073  21.703  43.300   4.648
30649W        W 3074  19.598  16.302   3.672
30650W        W 3075   0.671   0.727   4.969
30651W        W 3076  25.178  44.743  14.238
30652W        W 3077  21.307  20.595  12.501
30653W        W 3078   4.492  35.127   4.215
30654W        W 3079  16.855  33.842  13.461
30655W        W 3080   0.348  43.439   3.480
30656W        W 3081   8.189  18.765  10.473
30657W        W 3082  42.967  19.540   3.589
30658W        W 3083  36.520  44.692  11.998
30659W        W 3084   2.440  37.932   4.486
30660W        W 3085   7.453  39.506  11.157
30661W        W 3086   3.236  25.165  14.225
30662W        W 3087  25.737  32.775   2.399
30663W        W 3088   9.592   7.104   0.426
30664W        W 3089  17.245   1.435  11.732
30665W        W 3090  21.728  44.914  14.425
30666W        W 3091  11.644   6.411  12.692
30667W        W 3092  32.928  18.970   3.956
30668W        W 3093  26.223  32.055   0.879
30669W        W 3094  42.898  18.346  11.511
30670W        W 3095  20.735  32.351   2.684
30671W        W 3096   9.303   1.816  14.385
30672W        W 3097   0.976  34.880  12.536
30673W        W 3098  11.380  32.152  10.550
30674W        W 3099   0.808  29.983  12.077
30675W        W 3100  32.661  30.079   2.448
30676W        W 3101   6.853  24.214  12.426
30677W        W 3102   7.934   7.799  14.555
30678W        W 3103   1.326   1.564  11.502
30679W        W 3104  24.600  42.464  11.374
30680W        W 3105  31.653   1.232  12.964
30681W        W 3106  19.531  32.141   1.770
30682W        W 3107  23.583  13.627   4.241
30683W        W 3108   5.336  12.183  11.733
30684W        W 3109   3.788  18.615   0.828
30685W        W 3110  31.921  27.860   3.327
30686W        W 3111  25.922  16.104  14.828
30687W        W 3112  21.148  35.583   4.483
30688W        W 3113  42.075   9.256   2.229
30689W        W 3114  33.539  27.263   2.390
30690W        W 3115  37.725  20.616  14.018
30691W        W 3116   9.314  25.007   0.414
30692W        W 3117  44.445  44.106  14.405
30693W        W 3118  41.311   9.565  13.589
30694W        W 3119  41.254  20.235   4.141
30695W        W 3120   6.855  21.018   1.407
30696W        W 3121  16.654   6.363  14.900
30697W        W 3122  17.227   2.463   0.452
30698W        W 3123  29.534   7.263  10.616
30699W        W 3124  15.141  21.524  14.155
30700W        W 3125  38.528  12.361  10.599
30701W        W 3126  18.404  34.944  13.466
30702W        W 3127  23.009  37.096   2.222
30703W        W 3128  25.496   0.696  11.613
30704W        W 3129  17.203   4.600  12.362
30705W        W 3130   1.038  34.600   1.674
30706W        W 3131   7.338   9.966  12.790
30707W        W 3132  21.167   0.885  10.499
30708W        W 3133  42.572  17.666   4.304
30709W        W 3134  30.533   2.687   3.911
30710W        W 3135  17.277  29.133  11.371
30711W        W 3136  25.489   6.412   3.709
30712W        W 3137  29.100  16.872   3.314
30713W        W 3138   9.780   0.560   1.076
30714W        W 3139  24.492  13.829  13.870
30715W        W 3140  31.197  21.687  13.342
30716W        W 3141  24.605  39.478  10.484
30717W        W 3142  29.084  42.044   1.265
30718W        W 3143  24.390  41.401  12.928
30719W        W 3144  38.820  21.577   4.664
30720W        W 3145  26.397  44.546   1.805
30721W        W 3146  32.005   6.790  10.984
30722W        W 3147  43.892  28.487  10.485
30723W        W 3148  18.952  41.902  14.039
30724W        W 3149  15.656   4.252   4.873
30725W        W 3150  14.159   2.285   2.279
30726W        W 3151  26.355  32.245   5.396
30727W        W 3152  44.337   0.768  12.909
30728W        W 3153  20.842   9.272  13.018
30729W        W 3154  19.425  17.793  11.549
30730W        W 3155  17.757   8.743   1.382
30731W        W 3156  22.798  21.122   0.462
30732W        W 3157  38.579  33.152   4.141
30733W        W 3158  19.296  29.929   0.801
30734W        W 3159  39.269  41.711  14.442
30735W        W 3160  43.841  16.064   3.160
30736W        W 3161   6.850  37.482  14.937
30737W        W 3162  10.898  22.550   1.340
30738W        W 3163  15.037  37.116  13.466
30739W        W 3164  41.960   0.830   3.670
30740W        W 3165  16.231  34.337   0.067
30741W        W 3166  40.030  43.774   1.644
30742W        W 3167   1.850  37.378  11.291
30743W        W 3168  16.811   0.236  13.340
30744W        W 3169  35.850   4.031  12.811
30745W        W 3170   4.599   2.673  11.554
30746W        W 3171  41.241  44.356   4.515
30747W        W 3172   2.412  24.602   1.045
30748W        W 3173  18.553   4.526  13.003
30749W        W 3174  28.038  22.546  14.486
30750W        W 3175   8.224  21.687  14.243
30751W        W 3176  18.737  39.883   0.625
30752W        W 3177  17.303  18.500  13.884
30753W        W 3178  25.181  11.202   1.487
30754W        W 3179  27.972  28.002   4.947
30755W        W 3180   6.766  38.086  10.234
30756W        W 3181   4.126   9.083  13.874
30757W        W 3182  33.598   5.210  10.718
30758W        W 3183  16.752  15.335   2.097
30759W        W 3184   0.982   8.374   2.234
30760W        W 3185  21.817  18.316  11.018
30761W        W 3186  44.813   2.726  13.428
30762W        W 3187   8.899  30.665   0.813
30763W        W 3188  18.269  11.476   1.860
30764W        W 3189  14.457  36.804  12.053
30765W        W 3190  23.167  11.242  11.911
30766W        W 3191   3.965   3.962   0.822
30767W        W 3192  38.984   8.760   1.053
30768W        W 3193  12.431  32.187  11.512
30769W        W 3194  41.713  36.030   9.995
30770W        W 3195   9.143  31.612   1.188
30771W        W 3196  15.064  33.325  12.402
30772W        W 3197  41.937  23.529   0.163
30773W        W 3198   1.404  26.568   2.301
30774W        W 3199  41.851  29.915  11.587
30775W        W 3200  42.942  15.905  13.793
30776W        W 3201  38.940  28.085  13.812
30777W        W 3202  21.240  24.922   4.168
30778W        W 3203  25.482   0.493   0.886
30779W        W 3204  16.791  29.779  14.130
30780W        W 3205  32.380  14.754  14.015
30781W        W 3206  38.273   9.864   4.729
30782W        W 3207  33.595  18.139  12.012
30783W        W 3208   7.857   3.490   5.089
30784W        W 3209  35.650  41.117  12.402
30785W        W 3210  11.770  34.424   4.190
30786W        W 3211   3.289  40.659  11.802
30787W        W 3212   1.170  28.527  13.016
30788W        W 3213  18.621  31.594   5.050
30789W        W 3214  37.787  42.675  13.006
30790W        W 3215  15.409  19.099  12.831
30791W        W 3216  43.037   5.738   0.515
30792W        W 3217  16.843   5.353  13.960
30793W        W 3218  22.110   0.262  13.094
30794W        W 3219  28.883  42.438   2.236
30795W        W 3220  43.413  39.458  13.007
30796W        W 3221  29.499  20.981   1.035
30797W        W 3222  40.399  28.162  11.541
30798W        W 3223  42.546  24.738  12.326
30799W        W 3224  12.127  23.631  11.542
30800W        W 3225   8.666  15.843  11.106
30801W        W 3226   0.070   8.893  11.953
30802W        W 3227   7.260  12.935  13.457
30803W        W 3228  39.279  19.010  11.748
30804W        W 3229  31.705  13.304  13.174
30805W        W 3230  26.839  15.658   4.138
30806W        W 3231  41.854  21.520  13.035
30807W        W 3232   6.403  28.246  13.058
30808W        W 3233  19.790  16.057   1.684
30809W        W 3234  37.104   8.106  10.819
30810W        W 3235  43.056   4.349   0.043
30811W        W 3236  32.105   0.459   0.844
30812W        W 3237  43.382  18.146   1.848
30813W        W 3238  23.996  11.711   4.846
30814W        W 3239   7.615  32.091   4.727
30815W        W 3240  36.468   8.889   2.664
30816W        W 3241  32.921  41.476   4.822
30817W        W 3242   5.954  23.760   3.201
30818W        W 3243   7.423  33.661  10.777
30819W        W 3244  21.548   1.401  13.786
30820W        W 3245  14.825  31.090   1.190
30821W        W 3246  14.286  42.424  14.625
30822W        W 3247   8.915  41.744  12.533
30823W        W 3248  38.274  40.221  13.534
30824W        W 3249   6.492  28.938   0.608
30825W        W 3250  31.283  19.924  12.745
30826W        W 3251  37.161  30.143  12.065
30827W        W 3252  25.873   3.830  12.947
30828W        W 3253   0.238  26.001   2.685
30829W        W 3254   5.929  40.591   0.385
30830W        W 3255   3.821  21.233  10.663
30831W        W 3256  40.441  28.175   0.666
30832W        W 3257  14.416  27.866   3.311
30833W        W 3258  20.447  41.865   0.271
30834W        W 3259  14.530  25.966   1.623
30835W        W 3260   9.879  37.430  11.094
30836W        W 3261  20.991  37.955   1.854
30837W        W 3262  29.010  30.999   4.331
30838W        W 3263  37.882  15.064  10.655
30839W        W 3264  26.717  22.351   3.345
30840W        W 3265  29.487  13.381   3.401
30841W        W 3266  23.763  11.395  11.055
30842W        W 3267  26.578  25.305   4.696
30843W        W 3268  23.751  44.447   4.478
30844W        W 3269  27.043  22.513  14.288
30845W        W 3270  25.706  26.635   0.160
30846W        W 3271  32.068  37.909   4.567
30847W        W 3272  18.664  30.629   2.712
30848W        W 3273  34.357  32.531  12.863
30849W        W 3274   1.339  20.814  14.280
30850W        W 3275  39.350   4.947  12.047
30851W        W 3276  27.004  25.037   1.857
30852W        W 3277  43.340  26.446   0.906
30853W        W 3278   2.999  19.801   1.973
30854W        W 3279   4.524  36.621   0.819
30855W        W 3280  25.694  23.085  14.995
30856W        W 3281   3.699  25.238   1.521
30857W        W 3282  35.550   1.784  12.063
30858W        W 3283   9.552   3.053   3.780
30859W        W 3284   9.287  16.261   3.997
30860W        W 3285  23.674   2.949   3.664
30861W        W 3286  34.335  13.824   4.666
30862W        W 3287  40.733  20.510  11.572
30863W        W 3288  22.133  33.257   3.456
30864W        W 3289  26.157  24.263  13.946
30865W        W 3290  25.324   9.197   3.370
30866W        W 3291  35.365  42.802  12.903
30867W        W 3292   2.067  23.012   0.648
30868W        W 3293   7.923  20.172   0.966
30869W        W 3294  43.848  43.495  13.950
30870W        W 3295   1.710  21.089   3.105
30871W        W 3296   9.612   5.198   5.525
30872W        W 3297   5.943  36.540   2.294
30873W        W 3298  11.719  27.996   0.267
30874W        W 3299  23.757  18.468  11.258
30875W        W 3300  35.578   8.630   2.679
30876W        W 3301  17.203   0.723   0.866
30877W        W 3302  30.012  39.021   3.153
30878W        W 3303  19.604  26.999  11.528
30879W        W 3304  24.013  29.875  12.500
30880W        W 3305  19.638   3.888  14.789
30881W        W 3306  37.487   5.677  14.042
30882W        W 3307  27.740  35.664  14.575
30883W        W 3308  35.966  27.664  13.031
30884W        W 3309   2.331   1.509   4.431
30885W        W 3310  21.171  13.853  13.781
30886W        W 3311  38.996  19.164  13.985
30887W        W 3312  11.769  30.194   4.664
30888W        W 3313  26.055  24.435   4.645
30889W        W 3314  14.017   8.738   3.779
30890W        W 3315   9.735   5.330  13.891
30891W        W 3316  42.352  40.515  12.613
30892W        W 3317  15.750  36.845   0.715
30893W        W 3318   9.225   1.214   0.284
30894W        W 3319  20.174   1.292   3.874
30895W        W 3320  34.832   9.841  14.922
30896W        W 3321  40.599  10.149  12.037
30897W        W 3322  34.030  42.394  10.997
30898W        W 3323  26.053   8.394   1.213
30899W        W 3324  13.364  35.954  12.802
30900W        W 3325  39.837  32.527   3.172
30901W        W 3326  34.804  38.924   4.802
30902W        W 3327  33.990  10.798  13.575
30903W        W 3328  13.732   3.959  10.402
30904W        W 3329   3.551  10.100   4.416
30905W        W 3330   7.648  18.738   2.951
30906W        W 3331  22.490  39.777   2.417
30907W        W 3332  21.577  13.620  13.552
30908W        W 3333  42.924  34.663   2.758
30909W        W 3334  10.121   3.310  12.387
30910W        W 3335   6.412  40.918  12.662
30911W        W 3336  19.708  14.213   1.374
30912W        W 3337  21.071  42.588  12.007
30913W        W 3338  11.238   2.357   4.467
30914W        W 3339  38.463  20.761  11.053
30915W        W 3340   3.139   4.853   0.896
30916W        W 3341  38.104  40.241   2.837
30917W        W 3342  30.578  32.684  11.019
30918W        W 3343   7.925  35.431   2.701
30919W        W 3344  37.098  36.026  10.403
30920W        W 3345  23.125  39.567  14.842
30921W        W 3346  31.894  22.378  12.925
30922W        W 3347   4.037  23.236  14.104
30923W        W 3348   5.962  29.526  13.772
30924W        W 3349  34.527  27.458   3.476
30925W        W 3350  26.794  34.117  14.929
30926W        W 3351  28.553  13.985  11.710
30927W        W 3352  12.387   9.724   3.678
30928W        W 3353  38.930  29.625   2.166
30929W        W 3354   2.041  25.937   0.298
30930W        W 3355  18.281  19.974   0.951
30931W        W 3356  21.908   2.731  11.114
30932W        W 3357  38.619  23.481  12.010
30933W        W 3358  35.426  40.297   0.344
30934W        W 3359   2.831  42.248  14.196
30935W        W 3360  11.087  12.702   1.298
30936W        W 3361  22.068  13.679  13.748
30937W        W 3362   8.661  14.001  11.686
30938W        W 3363  30.898   2.009  13.519
30939W        W 3364  40.771  16.606   2.236
30940W        W 3365  14.926  34.872   4.551
30941W        W 3366   2.447  35.181  13.538
30942W        W 3367  31.561  26.693   2.598
30943W        W 3368   6.309   7.616  10.669
30944W        W 3369  40.643  39.474   4.916
30945W        W 3370  11.280  44.803  10.689
30946W        W 3371   4.234  32.713   4.629
30947W        W 3372   7.097  41.460   3.715
30948W        W 3373  33.844  28.844  12.656
30949W        W 3374  36.209   0.072  10.043
30950W        W 3375  28.577  30.380   3.642
30951W        W 3376  30.950  20.822  14.442
30952W        W 3377   6.186  24.614   2.340
30953W        W 3378  33.132  12.757   4.632
30954W        W 3379  22.146  20.777   4.049
30955W        W 3380  43.223  23.525   1.299
30956W        W 3381  22.520  42.460  14.911
30957W        W 3382   9.436  32.512   4.951
30958W        W 3383  37.555  31.630   1.648
30959W        W 3384   7.410  28.769   0.829
30960W        W 3385  13.607   7.870  11.640
30961W        W 3386  38.076  20.113   1.445
30962W        W 3387   8.898   8.133   5.047
30963W        W 3388   7.666  27.031  11.100
30964W        W 3389  37.596  26.541  13.942
30965W        W 3390  44.660  30.131   4.188
30966W        W 3391  12.123  18.045   3.246
30967W        W 3392  26.163  35.199  13.452
30968W        W 3393  14.749  22.676   4.595
30969W        W 3394  35.973  32.915   2.842
30970W        W 3395  22.504  31.256  13.781
30971W        W 3396  26.672  41.008  13.405
30972W        W 3397  42.808  21.288   1.313
30973W        W 3398  29.942  18.589  12.033
30974W        W 3399  25.532   4.959  12.488
30975W        W 3400  16.708  20.204  13.696
30976W        W 3401  13.232  11.576   3.802
30977W        W 3402  13.341   4.475  12.876
30978W        W 3403  19.831  18.527   1.410
30979W        W 3404  42.331  44.418   4.402
30980W        W 3405  20.976  28.996   3.037
30981W        W 3406  31.681  37.845   3.172
30982W        W 3407   4.184  28.621   2.219
30983W        W 3408  31.684  26.170   3.838
30984W        W 3409  36.810  21.767  13.047
30985W        W 3410  25.000  42.783  10.719
30986W        W 3411  29.039  10.205  10.961
30987W        W 3412   0.461  20.022  13.053
30988W        W 3413  38.406  14.685   4.211
30989W        W 3414  41.029  32.550   3.561
30990W        W 3415  23.458   0.911   3.717
30991W        W 3416  29.553  33.216  14.804
30992W        W 3417  14.841  10.255   4.541
30993W        W 3418  12.319  26.546  11.660
30994W        W 3419   9.793  21.558   1.743
30995W        W 3420  26.498  33.067   3.032
30996W        W 3421  14.310  23.575   3.140
30997W        W 3422  38.393  38.056  13.520
30998W        W 3423  10.117  24.984  10.728
30999W        W 3424  29.698  30.769   5.108
31000W        W 3425  22.307  41.039  14.912
31001W        W 3426  29.852  16.587   3.620
31002W        W 3427  40.049  31.958   1.292
31003W        W 3428  42.005  12.371   1.641
31004W        W 3429  44.018   1.271  10.771
31005W        W 3430   5.203  44.408   4.869
31006W        W 3431  18.051   6.325  12.999
31007W        W 3432   1.670  13.652   0.044
31008W        W 3433  34.151  40.981   1.377
31009W        W 3434   7.526  22.852  12.557
31010W        W 3435  22.272   8.375   9.808
31011W        W 3436  16.518   4.286  12.965
31012W        W 3437  36.015  31.613   1.153
31013W        W 3438  34.502  25.490  11.567
31014W        W 3439   8.143  31.155  14.983
31015W        W 3440  27.573  20.052   0.109
31016W        W 3441  16.489  15.862  12.960
31017W        W 3442  19.667  15.768  13.021
31018W        W 3443  24.393  23.730   2.401
31019W        W 3444  17.316  12.877  12.964
31020W        W 3445  30.384   1.902  13.486
31021W        W 3446   4.342  38.030  14.336
31022W        W 3447  14.112  12.346   4.730
31023W        W 3448  37.580  25.703   2.112
31024W        W 3449  42.988  36.155   4.515
31025W        W 3450  28.701  27.323   0.896
31026W        W 3451  30.230  44.467   2.391
31027W        W 3452  24.167  36.971   3.605
31028W        W 3453  34.442  16.321   0.447
31029W        W 3454  15.232   9.603   0.349
31030W        W 3455   2.956   6.374   2.804
31031W        W 3456  28.280  31.034  10.321
31032W        W 3457   5.721  15.170  12.122
31033W        W 3458   4.613  19.850  10.725
31034W        W 3459  28.075  42.354  12.637
31035W        W 3460  35.008  35.676   2.349
31036W        W 3461  35.111  35.921  10.691
31037W        W 3462  20.505   6.636   2.149
31038W        W 3463  37.467  18.658   2.342
31039W        W 3464   5.179  28.019  14.512
31040W        W 3465  15.886   6.787   2.084
31041W        W 3466  12.720   6.627   0.543
31042W        W 3467  31.074  40.471  11.573
31043W        W 3468  19.044   2.743  13.939
31044W        W 3469  24.174  40.164   4.107
31045W        W 3470   4.803   1.824  10.181
31046W        W 3471  32.905  41.982  12.596
31047W        W 3472  17.266   2.753  11.676
31048W        W 3473  26.474   2.266   0.958
31049W        W 3474  36.776  42.797  10.720
31050W        W 3475  38.536   8.215  14.109
31051W        W 3476  40.181  32.119   3.184
31052W        W 3477  44.979  13.129  14.435
31053W        W 3478  12.443  39.237  11.938
31054W        W 3479  30.517  29.922   0.274
31055W        W 3480  29.260   4.538  13.901
31056W        W 3481  40.425  44.066   1.471
31057W        W 3482   7.813   7.073  13.540
31058W        W 3483  26.533  12.188   0.246
31059W        W 3484   4.920  11.847  14.427
31060W        W 3485  38.370   4.222   0.764
31061W        W 3486  38.301  37.136  12.526
31062W        W 3487  12.692  23.098   4.975
31063W        W 3488  23.987  10.810   0.376
31064W        W 3489  39.930  38.016   4.401
31065W        W 3490  29.088   9.793   0.972
31066W        W 3491  19.272  20.842  13.501
31067W        W 3492   0.934   0.964   4.106
31068W        W 3493  38.858  28.591   4.588
31069W        W 3494  28.425  24.435   3.891
31070W        W 3495  13.095   8.207  14.883
31071W        W 3496  24.591  35.954   4.431
31072W        W 3497  15.173  22.967   1.315
31073W        W 3498  14.237  26.593  14.806
31074W        W 3499  40.742  14.131   0.286
31075W        W 3500  17.282   9.961  12.935
31076W        W 3501  44.270   0.852   0.051
31077W        W 3502  30.992  44.574   3.437
31078W        W 3503  17.705  30.212  10.221
31079W        W 3504  35.317   6.154  14.788
31080W        W 3505  13.657  24.456   5.561
31081W        W 3506  28.613  10.660  14.894
31082W        W 3507   6.184  38.248  13.766
31083W        W 3508  33.447  14.331   4.495
31084W        W 3509   1.288   2.429  12.145
31085W        W 3510   2.546  32.068  14.540
31086W        W 3511  34.369  22.100   4.684
31087W        W 3512  33.151  25.802   2.106
31088W        W 3513  39.493  31.603  13.667
31089W        W 3514  44.004   5.619   3.304
31090W        W 3515  24.560  27.733   2.364
31091W        W 3516  19.177   6.470  11.067
31092W        W 3517   1.028   1.992  12.329
31093W        W 3518  37.461   5.915   2.915
31094W        W 3519  41.265  11.311  12.900
31095W        W 3520  44.859  20.699  11.072
31096W        W 3521  22.326   9.459   4.076
31097W        W 3522  12.395  33.518   4.868
31098W        W 3523  36.556  33.842  14.633
31099W        W 3524  15.237   3.791   2.742
31100W        W 3525  32.513   6.622   4.084
31101W        W 3526   0.369  22.898   1.271
31102W        W 3527  15.858  43.800   4.246
31103W        W 3528  18.234  43.920   3.596
31104W        W 3529  30.844  39.128  12.011
31105W        W 3530  23.302  36.369  14.962
31106W        W 3531   8.670  43.796  14.353
31107W        W 3532   9.377  36.034   4.185
31108W        W 3533  14.645  22.333   5.748
31109W        W 3534  27.029  31.047   1.643
31110W        W 3535  26.214  22.032  11.564
31111W        W 3536  29.954   9.164  13.876
31112W        W 3537  44.423  13.856  11.612
31113W        W 3538  34.280  22.613   4.595
31114W        W 3539  31.668  15.362  10.208
31115W        W 3540  27.925  22.118  11.129
31116W        W 3541   9.103  36.336  14.517
31117W        W 3542  19.584  18.148   0.279
31118W        W 3543  16.649  20.679   1.858
31119W        W 3544  24.016   3.058   2.358
31120W        W 3545  19.613  21.953   0.487
31121W        W 3546   6.673  38.090  13.729
31122W        W 3547  30.668  22.821  14.858
31123W        W 3548  33.078   6.400  10.958
31124W        W 3549  10.415  43.633   0.449
31125W        W 3550  29.004  34.303   2.215
31126W        W 3551  43.901  12.189  12.455
31127W        W 3552  38.371   1.188  12.437
31128W        W 3553   8.638  43.790  13.403
31129W        W 3554  33.442   0.274   2.939
31130W        W 3555  23.468  34.282   0.553
31131W        W 3556   3.945  18.985  11.165
31132W        W 3557  35.119   6.239   2.330
31133W        W 3558  37.486  35.711   2.952
31134W        W 3559   7.789  29.572   2.153
31135W        W 3560  32.702   4.825  10.550
31136W        W 3561  17.570  44.723  12.973
31137W        W 3562  20.993  24.233   4.669
31138W        W 3563  31.827  25.006   2.812
31139W        W 3564  15.736   2.337  11.378
31140W        W 3565  44.914   9.861   0.821
31141W        W 3566  38.326  12.537   1.882
31142W        W 3567  14.754   2.588   0.069
31143W        W 3568   9.410   7.719   4.104
31144W        W 3569  24.654  23.625  13.807
31145W        W 3570  29.998   9.546  13.152
31146W        W 3571  33.690  16.180   3.837
31147W        W 3572  10.135  42.211  12.845
31148W        W 3573  36.634  11.759  13.063
31149W        W 3574   3.910  15.054   3.381
31150W        W 3575  21.235  20.037   1.459
31151W        W 3576  33.012   6.117  13.760
31152W        W 3577   9.746  42.065  12.119
31153W        W 3578   6.171  43.445   3.692
31154W        W 3579  13.722  41.535   4.619
31155W        W 3580  37.942  17.832  13.351
31156W        W 3581  15.174   5.415  10.704
31157W        W 3582  20.637   8.842  14.800
31158W        W 3583  43.451  27.288   2.396
31159W        W 3584  40.868  31.665  13.506
31160W        W 3585  33.980  33.843   3.863
31161W        W 3586   4.741  15.104   2.827
31162W        W 3587   3.789  18.076   0.377
31163W        W 3588   6.428   1.185   2.748
31164W        W 3589   5.880  35.581  13.846
31165W        W 3590  25.679  41.040   0.261
31166W        W 3591   9.644  12.664  13.890
31167W        W 3592  27.564  40.426  12.180
31168W        W 3593  10.836  14.149   1.426
31169W        W 3594  23.562  13.809  12.075
31170W        W 3595  23.585  29.428   2.732
31171W        W 3596  17.099   4.989  11.933
31172W        W 3597   3.349  36.946   1.323
31173W        W 3598  33.915   0.668   2.379
31174W        W 3599  34.110   4.776  13.991
31175W        W 3600  34.292  28.694  10.750
31176W        W 3601   8.223   0.058   1.449
31177W        W 3602  32.220  18.546  12.738
31178W        W 3603  13.639   9.430   4.414
31179W        W 3604  35.477  24.232   4.913
31180W        W 3605  23.193  28.248  13.884
31181W        W 3606   8.789   1.655  10.338
31182W        W 3607  26.180   4.711  13.364
31183W        W 3608  29.988   9.378   2.816
31184W        W 3609  14.036  30.998   4.676
31185W        W 3610  29.959  32.918  12.447
31186W        W 3611   7.852  19.864  11.182
31187W        W 3612  41.051  15.647  13.175
31188W        W 3613  21.267  42.339  14.327
31189W        W 3614  14.604   5.459  10.699
31190W        W 3615  26.720  19.595  13.939
31191W        W 3616   3.465  29.530   2.600
31192W        W 3617   5.420   2.157  13.113
31193W        W 3618   9.288  20.019   0.939
31194W        W 3619  44.973  14.608   0.463
31195W        W 3620  35.889   0.244   3.247
31196W        W 3621  32.494  39.995   0.073
31197W        W 3622   9.749  36.887   3.362
31198W        W 3623  18.702  32.091  10.594
31199W        W 3624   4.441   2.695  13.928
31200W        W 3625   2.323  38.428   2.702
31201W        W 3626  19.809   1.322   3.387
31202W        W 3627  34.814  33.557  11.164
31203W        W 3628  42.519  37.703   0.083
31204W        W 3629   0.233  10.793  11.449
31205W        W 3630  10.854  27.229   0.827
31206W        W 3631  44.184  39.860  12.845
31207W        W 3632  23.800  40.826   0.000
31208W        W 3633   9.390  13.721   4.355
31209W        W 3634  23.226  20.500  13.379
31210W        W 3635  26.578  37.495  10.254
31211W        W 3636  22.135  29.663  11.121
31212W        W 3637  11.586  43.927  13.182
31213W        W 3638   2.120  36.586   3.830
31214W        W 3639  36.441   7.425  13.369
31215W        W 3640  38.288  31.501   0.443
31216W        W 3641  27.195  23.285   1.319
31217W        W 3642  42.007  35.810   5.130
31218W        W 3643  33.903  38.749  14.538
31219W        W 3644  33.130  32.046  10.751
31220W        W 3645  23.701   7.423   4.345
31221W        W 3646   8.710  34.117  11.150
31222W        W 3647  24.201  42.319  10.367
31223W        W 3648  39.228  12.571   1.852
31224W        W 3649   8.896  26.356   3.785
31225W        W 3650   9.030  36.939   9.756
31226W        W 3651  39.879   7.623   1.729
31227W        W 3652  37.938  23.277   4.127
31228W        W 3653  34.130  32.259  14.822
31229W        W 3654  32.990  41.477   1.626
31230W        W 3655  25.442  43.255   2.266
31231W        W 3656  27.802  44.893   3.817
31232W        W 3657  19.548  24.240   2.403
31233W        W 3658  11.173  17.054   1.381
31234W        W 3659  24.524  37.297   5.018
31235W        W 3660  21.469  13.330   5.109
31236W        W 3661  21.715  35.718   0.411
31237W        W 3662  39.450  30.922  13.175
31238W        W 3663  32.311   1.263   2.720
31239W        W 3664  19.462  21.558   0.812
31240W        W 3665  21.700  41.020  10.796
31241W        W 3666  14.145  29.936   4.519
31242W        W 3667  37.634  39.559   1.927
31243W        W 3668  44.199  29.451  11.972
31244W        W 3669  19.331  40.916  13.784
31245W        W 3670  36.407   3.093  13.467
31246W        W 3671  22.898  34.425  12.897
31247W        W 3672  20.722  38.347  14.886
31248W        W 3673  43.847  37.103   2.703
31249W        W 3674  11.191  28.125   0.028
31250W        W 3675  43.468  23.614  10.766
31251W        W 3676  23.011  34.096   1.928
31252W        W 3677  16.096  10.596  12.922
31253W        W 3678   9.864  29.661  14.505
31254W        W 3679  18.141  44.341  11.854
31255W        W 3680  36.247  10.387  10.726
31256W        W 3681   8.838  23.310  11.141
31257W        W 3682  33.016   2.425   4.041
31258W        W 3683   6.977  14.333   4.163
31259W        W 3684  43.516  26.136  13.305
31260W        W 3685   9.272  32.044   2.139
31261W        W 3686  16.085  38.418  13.019
31262W        W 3687  25.299  21.628   4.708
31263W        W 3688  31.147   6.778  10.922
31264W        W 3689  38.598  18.111   3.620
31265W        W 3690  19.720  11.906   0.857
31266W        W 3691  19.616  43.253   3.396
31267W        W 3692   1.947  26.479   1.609
31268W        W 3693   6.815  19.679  11.204
31269W        W 3694   7.376  44.273   0.688
31270W        W 3695  10.812  27.727   2.790
31271W        W 3696   5.134   5.768  11.979
31272W        W 3697   3.275  38.387  11.497
31273W        W 3698   2.192  37.336   3.266
31274W        W 3699  16.357  13.860   2.049
31275W        W 3700  24.002  40.916   1.400
31276W        W 3701   4.209  34.739  11.623
31277W        W 3702  18.294  28.229  10.744
31278W        W 3703   4.138  11.709  14.869
31279W        W 3704   2.868  10.371  12.885
31280W        W 3705   6.193  20.686  12.833
31281W        W 3706  36.222  28.045  11.638
31282W        W 3707   4.705  34.086  13.976
31283W        W 3708   6.850   4.505  13.923
31284W        W 3709  31.869  39.052   3.662
31285W        W 3710  21.827   8.672  13.418
31286W        W 3711  36.496  40.762  11.683
31287W        W 3712  23.362  35.131  11.060
31288W        W 3713   2.046  12.850   1.990
31289W        W 3714   0.686  43.684  11.545
31290W        W 3715  14.132   1.883   0.532
31291W        W 3716   4.641  38.092   4.231
31292W        W 3717  37.649   3.255  13.879
31293W        W 3718   4.465  27.207   2.175
31294W        W 3719  24.455  23.381   3.219
31295W        W 3720  16.764   1.872   1.298
31296W        W 3721  32.872  12.918   5.074
31297W        W 3722   4.387  30.842  12.934
31298W        W 3723  26.667  22.066  10.612
31299W        W 3724   6.473  28.016  12.578
31300W        W 3725   2.891  16.315  10.774
31301W        W 3726  27.610   5.281  10.976
31302W        W 3727  38.280  14.197   1.965
31303W        W 3728  32.467  44.395  10.749
31304W        W 3729   1.979  21.148   3.562
31305W        W 3730   8.288  34.899   2.570
31306W        W 3731  34.499   3.583   0.345
31307W        W 3732  11.392   4.779   0.922
31308W        W 3733   6.444  30.777  12.180
31309W        W 3734  31.905  30.984  11.820
31310W        W 3735  43.658  34.339  14.739
31311W        W 3736  25.631  43.926  13.050
31312W        W 3737  22.863  44.921   2.697
31313W        W 3738  30.095  23.670   4.086
31314W        W 3739  34.473   6.487   3.659
31315W        W 3740  28.941   3.960   1.844
31316W        W 3741  39.547  25.174   2.367
31317W        W 3742  10.127  21.306  14.473
31318W        W 3743  42.818  42.141   2.924
31319W        W 3744  21.664  34.615   0.917
31320W        W 3745  12.832  20.375  11.550
31321W        W 3746   2.825  31.578   0.354
31322W        W 3747  35.645  18.564   2.369
31323W        W 3748  41.350   1.783   3.347
31324W        W 3749  19.561  11.973   4.186
31325W        W 3750  33.946  26.822  10.507
31326W        W 3751  42.748  16.345   4.872
31327W        W 3752  27.041  42.258   0.369
31328W        W 3753  34.876  32.925   4.558
31329W        W 3754  36.873  31.132  13.488
31330W        W 3755  39.498  41.397  10.644
31331W        W 3756  39.812  12.407  12.981
31332W        W 3757  14.147  22.309  12.621
31333W        W 3758  40.236   3.429  10.725
31334W        W 3759  17.107   7.461   2.234
31335W        W 3760   3.366  17.256   0.483
31336W        W 3761  13.437  25.079   3.270
31337W        W 3762  14.396  13.793  13.897
31338W        W 3763  16.070  39.224   2.165
31339W        W 3764  10.695  18.883  14.549
31340W        W 3765  21.211  27.609   2.803
31341W        W 3766  29.072  23.728  13.789
31342W        W 3767  35.701  37.611   0.469
31343W        W 3768   1.720  24.475  11.461
31344W        W 3769   7.903  26.527  12.322
31345W        W 3770  21.606  31.193  13.430
31346W        W 3771  35.564  29.100   4.784
31347W        W 3772  40.357  25.658  11.025
31348W        W 3773   8.785  18.322   0.508
31349W        W 3774  19.223  24.608   2.232
31350W        W 3775   4.344   0.616  14.789
31351W        W 3776  31.638  41.505  13.491
31352W        W 3777  27.991   7.489  12.008
31353W        W 3778  41.864  15.559   3.608
31354W        W 3779   2.926   8.291   2.808
31355W        W 3780  38.990  37.559  12.849
31356W        W 3781  25.767   9.393  12.965
31357W        W 3782  37.918  41.735   3.235
31358W        W 3783  31.844  38.014   1.409
31359W        W 3784   0.504  40.453  12.626
31360W        W 3785  39.523   2.016  13.043
31361W        W 3786  28.482  28.041   1.266
31362W        W 3787  35.027  11.201  11.518
31363W        W 3788   0.897   6.460   2.517
31364W        W 3789   9.750  28.900  14.893
31365W        W 3790  32.251  15.630  14.855
31366W        W 3791  33.333  31.732  13.523
31367W        W 3792  44.943  32.483  11.444
31368W        W 3793   4.129  20.243  13.296
31369W        W 3794   6.801   7.133   1.168
31370W        W 3795   6.201   2.946   4.090
31371W        W 3796  43.507  43.328   0.737
31372W        W 3797  20.125   0.557  10.706
31373W        W 3798  21.676  15.728  11.572
31374W        W 3799  42.043  24.150  12.438
31375W        W 3800   1.257  30.398  11.516
31376W        W 3801  30.864  17.846   4.962
31377W        W 3802  15.884  36.452  14.224
31378W        W 3803   1.638  10.397  12.035
31379W        W 3804  42.583  11.832   3.348
31380W        W 3805  40.783   6.130   3.239
31381W        W 3806  38.796  44.717   2.876
31382W        W 3807  42.574   9.676  11.156
31383W        W 3808  19.623   1.465  13.748
31384W        W 3809   2.917  27.624  13.396
31385W        W 3810  12.325  28.871  11.861
31386W        W 3811   6.825  32.864   1.030
31387W        W 3812  42.979  44.841  11.079
31388W        W 3813  16.349  11.304  13.635
31389W        W 3814   6.083  29.560   0.824
31390W        W 3815  37.038  21.108   2.243
31391W        W 3816   1.462  25.822   0.759
31392W        W 3817  31.813  40.965  13.594
31393W        W 3818   7.492  20.229  14.311
31394W        W 3819  44.394  42.398  14.798
31395W        W 3820   9.827   1.351  12.106
31396W        W 3821  18.248   4.068  14.261
31397W        W 3822  29.530  34.306   2.267
31398W        W 3823  39.506  26.337  14.920
31399W        W 3824  24.568  20.814   2.256
31400W        W 3825   5.391  27.448  12.154
31401W        W 3826  30.096  41.829  11.493
31402W        W 3827  30.061  31.692  10.500
31403W        W 3828  10.814  15.272   1.278
31404W        W 3829  19.745  25.022   3.740
31405W        W 3830  31.901  18.993   1.397
31406W        W 3831   4.280  23.132   1.394
31407W        W 3832  20.286  28.011   3.098
31408W        W 3833  38.482  38.838  12.940
31409W        W 3834  12.713  28.178   4.651
31410W        W 3835  35.596  29.480   1.355
31411W        W 3836  10.640  19.194   4.959
31412W        W 3837  11.165  32.956   1.156
31413W        W 3838  44.321   7.916  12.509
31414W        W 3839  23.007  38.845  12.420
31415W        W 3840   1.524  32.149   2.781
31416W        W 3841  23.428  36.955   3.127
31417W        W 3842  14.820  41.682  14.240
31418W        W 3843  35.000  21.292   0.418
31419W        W 3844  11.204   8.065   5.027
31420W        W 3845  12.900   5.032  12.013
31421W        W 3846  33.631  43.714   3.347
31422W        W 3847   9.676  16.166   2.341
31423W        W 3848   5.531   3.725  13.895
31424W        W 3849   5.420  24.972   1.746
31425W        W 3850  14.643   8.749  14.391
31426W        W 3851  31.611  34.913   3.226
31427W        W 3852  27.926  41.881   3.567
31428W        W 3853  39.814  19.327   0.444
31429W        W 3854   9.220  12.404  14.295
31430W        W 3855  42.879   2.718   0.182
31431W        W 3856  15.423  11.422   0.773
31432W        W 3857   6.377  37.752   2.764
31433W        W 3858   1.346  17.128  10.981
31434W        W 3859  18.588   6.310   3.146
31435W        W 3860   9.982   7.795  13.515
31436W        W 3861  15.119  32.914   1.426
31437W        W 3862  18.733  10.214   1.980
31438W        W 3863  39.184  19.835   2.009
31439W        W 3864  16.156  36.683   4.922
31440W        W 3865   9.684   5.951  12.854
31441W        W 3866  23.604  17.297  10.640
31442W        W 3867   4.000   3.894  10.959
31443W        W 3868  20.926  31.256  14.368
31444W        W 3869  12.089   3.739   1.394
31445W        W 3870   4.717  30.410  10.857
31446W        W 3871  36.660  28.138   3.664
31447W        W 3872  30.363  21.964  12.026
31448W        W 3873  43.228  18.279   0.916
31449W        W 3874  10.998  22.476  11.356
31450W        W 3875  30.918  34.490   4.345
31451W        W 3876  33.699   7.169  12.427
31452W        W 3877  16.599  40.349   4.492
31453W        W 3878  36.808  16.532  12.603
31454W        W 3879   4.432  39.482  13.113
31455W        W 3880  18.126  26.425   2.797
31456W        W 3881  12.524   7.854   2.024
31457W        W 3882  34.659  21.110  12.053
31458W        W 3883  15.876  28.296  13.904
31459W        W 3884   8.329  39.799   4.502
31460W        W 3885  22.149  10.753  14.991
31461W        W 3886  11.051  18.257  13.445
31462W        W 3887  18.065  41.537   0.971
31463W        W 3888  42.591  33.191   4.926
31464W        W 3889  34.949  23.080   0.172
31465W        W 3890  42.403  22.882  11.956
31466W        W 3891  24.078  21.905  12.173
31467W        W 3892  24.213  15.187  12.045
31468W        W 3893  26.599  12.555   1.021
31469W        W 3894  27.083  27.236  14.783
31470W        W 3895  13.340  18.104  10.681
31471W        W 3896  17.080  12.971   4.613
31472W        W 3897  41.795  30.934   3.340
31473W        W 3898  27.674   5.614   3.344
31474W        W 3899   1.369  16.231  11.181
31475W        W 3900  19.555  35.725   1.410
31476W        W 3901  39.419  38.061  11.983
31477W        W 3902  34.724  34.451   3.762
31478W        W 3903   0.894  22.588  14.660
31479W        W 3904  20.093  12.356  14.230
31480W        W 3905   4.605  43.000  12.131
31481W        W 3906  43.021  28.471  10.738
31482W        W 3907  23.048   9.703   0.451
31483W        W 3908  30.100  34.832  13.391
31484W        W 3909  33.676   0.187  11.183
31485W        W 3910  21.608  11.240  14.739
31486W        W 3911  31.081  31.602   0.407
31487W        W 3912  44.425  24.194   3.182
31488W        W 3913  42.897  28.676   4.557
31489W        W 3914   6.691  39.795  11.512
31490W        W 3915   4.292  21.302  11.430
31491W        W 3916  41.903  22.615   4.608
31492W        W 3917  40.718  17.561   2.944
31493W        W 3918  27.198  31.072  10.331
31494W        W 3919  20.138   6.969   2.001
31495W        W 3920  21.773  32.590   4.623
31496W        W 3921   2.346  28.573  11.458
31497W        W 3922   8.647  26.745  12.991
31498W        W 3923  31.068  19.016   2.685
31499W        W 3924  42.963  14.722   2.754
31500W        W 3925  41.778  42.070  14.448
31501W        W 3926  28.609  36.540   3.728
31502W        W 3927  30.533   9.578   3.744
31503W        W 3928   4.995  17.212  10.554
31504W        W 3929  44.437   8.126   4.513
31505W        W 3930   0.672   9.354  13.124
31506W        W 3931  37.442  33.859   2.474
31507W        W 3932  27.370  10.274  13.577
31508W        W 3933  17.188   7.306   0.868
31509W        W 3934  43.893   0.226  12.995
31510W        W 3935  18.454   3.875   2.405
31511W        W 3936  25.950  19.295  14.002
31512W        W 3937  14.213  10.880   4.790
31513W        W 3938  32.582   9.174   4.624
31514W        W 3939  26.495  12.694  10.815
31515W        W 3940  13.592  10.715   3.192
31516W        W 3941  25.154  25.332   2.348
31517W        W 3942   1.917  38.407   0.446
31518W        W 3943   6.228   0.884  14.053
31519W        W 3944  21.562  27.054   2.661
31520W        W 3945  24.816  41.590   3.646
31521W        W 3946   1.224  10.587  14.917
31522W        W 3947  20.328   7.217  12.466
31523W        W 3948   5.340   4.690  14.719
31524W        W 3949  21.189  12.798   2.679
31525W        W 3950  13.301  38.335   4.098
31526W        W 3951  15.362  37.952  11.665
31527W        W 3952  28.902  42.054   3.169
31528W        W 3953  44.504  35.968   2.876
31529W        W 3954  40.421  25.419   4.099
31530W        W 3955  43.502  12.672   4.051
31531W        W 3956  44.139  40.376   3.752
31532W        W 3957  25.762   8.228  13.292
31533W        W 3958  29.754   9.218   2.374
31534W        W 3959   4.485  19.316   0.228
31535W        W 3960  19.730  26.971   4.329
31536W        W 3961  32.239  29.600  13.110
31537W        W 3962  24.744  38.025   2.354
31538W        W 3963  11.833   2.099   0.491
31539W        W 3964  18.037   7.786   0.774
31540W        W 3965  22.551   3.474  13.427
31541W        W 3966  19.488  19.685  13.824
31542W        W 3967  14.895  28.773  13.233
31543W        W 3968  35.403  34.038   1.948
31544W        W 3969  39.329  29.053   1.449
31545W        W 3970  29.063  25.517   0.882
31546W        W 3971   3.059  11.832   2.859
31547W        W 3972  35.893  13.351   0.524
31548W        W 3973   3.146   9.809   0.801
31549W        W 3974   0.414  39.090  10.868
31550W        W 3975  43.758  33.653  12.553
31551W        W 3976  23.215  16.488  10.649
31552W        W 3977   4.326  25.343   2.738
31553W        W 3978  37.358  25.547  12.060
31554W        W 3979  12.628  37.104  11.772
31555W        W 3980  33.590  20.578  11.821
31556W        W 3981  20.300  33.099   0.842
31557W        W 3982  26.146  10.301   1.849
31558W        W 3983  44.312  37.521  13.356
31559W        W 3984  35.371  16.142   1.742
31560W        W 3985  42.247  39.848   4.244
31561W        W 3986  10.223  27.158   3.649
31562W        W 3987   6.407  25.604  14.492
31563W        W 3988  22.033  33.984   3.369
31564W        W 3989  37.108  12.619   0.008
31565W        W 3990  24.495   2.202   2.235
31566W        W 3991  30.931  15.342  13.032
31567W        W 3992  36.291   4.507   1.433
31568W        W 3993  30.621   7.971  11.567
31569W        W 3994  14.113  30.551  10.951
31570W        W 3995  33.863  21.554   0.748
31571W        W 3996  44.921  37.314   0.853
31572W        W 3997  20.598   8.401  14.507
31573W        W 3998   3.929   4.532  11.479
31574W        W 3999  14.212  41.053   1.097
31575W        W 4000   2.669   8.013   0.888
31576W        W 4001   6.061   2.326   2.206
31577W        W 4002   1.512  14.783   2.292
31578W        W 4003  24.693  42.645   9.885
31579W        W 4004  38.402   3.781   4.112
31580W        W 4005  22.954  37.339   4.100
31581W        W 4006  26.101   9.587  14.753
31582W        W 4007  27.152  22.550  13.403
31583W        W 4008  25.514  32.422   0.460
31584W        W 4009  10.779  43.436  13.783
31585W        W 4010  35.943   0.979   2.112
31586W        W 4011  20.711  21.687  10.774
31587W        W 4012  26.580  36.609   2.402
31588W        W 4013  25.378  14.398   4.954
31589W        W 4014  30.859  24.048  11.068
31590W        W 4015  15.216  33.479   0.194
31591W        W 4016  43.739  43.585   4.117
31592W        W 4017  40.112  23.633  10.706
31593W        W 4018  40.781  25.637   4.671
31594W        W 4019  21.987  14.648  11.252
31595W        W 4020  29.087  24.684   2.172
31596W        W 4021   4.270  16.323  14.408
31597W        W 4022  15.998   1.503  13.969
31598W        W 4023  20.127  37.631  14.805
31599W        W 4024  27.419  42.218   2.368
31600W        W 4025  16.323  24.625  12.554
31601W        W 4026  44.988  25.684   0.801
31602W        W 4027  34.192  34.409  11.078
31603W        W 4028  11.852  36.296  10.689
31604W        W 4029  18.469  15.789  11.595
31605W        W 4030  29.531  29.418  12.828
31606W        W 4031   7.746  38.829  13.774
31607W        W 4032  14.770  37.427  10.649
31608W        W 4033  35.539  20.226  13.490
31609W        W 4034  21.012  27.123   4.205
31610W        W 4035  26.753  30.646  13.434
31611W        W 4036  18.047  23.531  13.023
31612W        W 4037  16.493   2.441  13.074
31613W        W 4038  42.221  33.492  10.766
31614W        W 4039  36.106   8.338  11.108
31615W        W 4040  27.592   3.827   0.467
31616W        W 4041  40.738  42.934   1.008
31617W        W 4042   8.644   6.328  11.396
31618W        W 4043  17.583  32.359  10.590
31619W        W 4044  10.715  22.476   0.342
31620W        W 4045  42.877   7.427  11.192
31621W        W 4046  21.255  25.218   3.253
31622W        W 4047  43.445  37.136  11.393
31623W        W 4048   8.735  31.954   1.342
31624W        W 4049   4.451   5.263   2.693
31625W        W 4050  21.155  42.872   2.748
31626W        W 4051  34.923   6.349   0.748
31627W        W 4052  11.241  11.302   1.883
31628W        W 4053   8.209  26.005  10.594
31629W        W 4054  44.313   9.213   3.768
31630W        W 4055  25.359   1.719   0.255
31631W        W 4056   5.398  16.106   3.326
31632W        W 4057   5.808  40.892   1.983
31633W        W 4058  41.904  40.498   0.437
31634W        W 4059  12.732  27.273  12.539
31635W        W 4060  42.858  18.276  14.291
31636W        W 4061  21.852  31.945   3.194
31637W        W 4062  27.921  31.645   3.415
31638W        W 4063  21.732  21.778  12.137
31639W        W 4064  10.239   2.614  12.008
31640W        W 4065  21.913  37.416   4.129
31641W        W 4066   0.410  19.996   0.799
31642W        W 4067  18.074  22.201  13.249
31643W        W 4068  21.637  10.971   9.798
31644W        W 4069  38.851  23.754  13.637
31645W        W 4070  40.809  42.151   0.322
31646W        W 4071  43.036  40.142  13.584
31647W        W 4072  29.943  28.778   1.954
31648W        W 4073   0.384  39.476   0.766
31649W        W 4074  43.805  37.003  13.977
31650W        W 4075  29.707  42.832  11.106
31651W        W 4076  40.831   1.374  13.928
31652W        W 4077  19.096   2.669   3.426
31653W        W 4078  17.851  23.621   1.903
31654W        W 4079   8.452  18.221  11.955
31655W        W 4080  33.058  42.338  13.056
31656W        W 4081   1.471   6.308  14.786
31657W        W 4082  38.091  18.794   1.114
31658W        W 4083   6.162   7.654  11.512
31659W        W 4084  24.493   3.209   2.765
31660W        W 4085   7.393  27.078   3.626
31661W        W 4086  43.069  18.306   2.248
31662W        W 4087   8.406  18.864  12.567
31663W        W 4088  41.018  39.558   1.377
31664W        W 4089  38.944  42.942   1.675
31665W        W 4090  19.474  42.738   2.701
31666W        W 4091  42.351  11.562   3.730
31667W        W 4092  39.240  44.379   4.161
31668W        W 4093  40.109  28.754   2.782
31669W        W 4094  36.784  12.695  12.948
31670W        W 4095  12.700  33.492   1.175
31671W        W 4096  23.274  22.399  14.519
31672W        W 4097  36.901  30.696  11.068
31673W        W 4098   3.272  34.530  12.500
31674W        W 4099  15.232  28.858   2.346
31675W        W 4100  12.848  15.045  10.812
31676W        W 4101  27.961  31.940   4.629
31677W        W 4102  22.055   8.384   1.850
31678W        W 4103  42.703  34.734  12.371
31679W        W 4104  34.103   4.269   4.345
31680W        W 4105  16.208  36.332   0.149
31681W        W 4106  19.759  14.269   0.482
31682W        W 4107  27.915  25.958  11.195
31683W        W 4108  13.890   2.985  14.396
31684W        W 4109  14.646  38.910  12.313
31685W        W 4110  37.032  37.330  10.975
31686W        W 4111  34.326   2.188  14.013
31687W        W 4112  16.189  26.186   3.847
31688W        W 4113   6.142  24.031   0.897
31689W        W 4114  39.659  37.022   3.222
31690W        W 4115  40.054  29.821  14.002
31691W        W 4116  18.380  31.283   3.267
31692W        W 4117  20.993  38.835   3.782
31693W        W 4118  38.783  29.802   2.844
31694W        W 4119  29.302  18.340   4.209
31695W        W 4120  41.669   1.157  14.578
31696W        W 4121  41.868   1.313   3.400
31697W        W 4122   0.914  44.158   1.967
31698W        W 4123  41.602   0.537  12.531
31699W        W 4124   5.129  43.980   0.430
31700W        W 4125   1.321  17.050  14.758
31701W        W 4126  12.775  31.004  10.774
31702W        W 4127   5.266   5.355  13.004
31703W        W 4128  24.149  44.156  11.704
31704W        W 4129  22.662  23.159   0.902
31705W        W 4130  38.961  21.193  10.697
31706W        W 4131  12.896  40.739  13.583
31707W        W 4132  27.182  29.141  14.440
31708W        W 4133  41.381  13.304   1.924
31709W        W 4134  22.191  16.759   1.900
31710W        W 4135  17.087  31.943   3.238
31711W        W 4136  18.723   6.138   5.078
31712W        W 4137  43.383   5.917  13.417
31713W        W 4138  20.159  40.704   3.226
31714W        W 4139  37.132   3.176   1.340
31715W        W 4140  13.163  20.680   3.819
31716W        W 4141  32.482  26.636  14.739
31717W        W 4142   4.427  23.533  13.384
31718W        W 4143   1.289  35.027  12.897
31719W        W 4144  14.396  18.068  10.859
31720W        W 4145  39.513  18.838  11.111
31721W        W 4146  31.182  35.411  11.549
31722W        W 4147  44.774  13.538  11.102
31723W        W 4148  19.673  39.439   4.074
31724W        W 4149  15.656  18.654  13.492
31725W        W 4150  25.707  10.893  13.969
31726W        W 4151  23.191  30.024  11.840
31727W        W 4152  36.631  25.247  13.616
31728W        W 4153  38.033  36.985   4.673
31729W        W 4154  11.643  33.697  11.160
31730W        W 4155  35.890  20.529  13.199
31731W        W 4156  16.158   4.153  10.450
31732W        W 4157  32.610  14.356  11.101
31733W        W 4158  33.146   0.388  10.427
31734W        W 4159  36.284  29.311   1.771
31735W        W 4160  42.132  32.857  14.087
31736W        W 4161  19.696  25.255   1.619
31737W        W 4162  11.221  31.665  10.670
31738W        W 4163  14.327  37.399  11.836
31739W        W 4164  40.864  23.498   2.165
31740W        W 4165  39.094  19.459   1.642
31741W        W 4166  34.041  22.685   2.307
31742W        W 4167  12.223  41.537  14.998
31743W        W 4168   0.751  15.005   2.332
31744W        W 4169  10.103  18.809   3.057
31745W        W 4170  26.741   5.909  12.994
31746W        W 4171  44.728  31.756  10.913
31747W        W 4172   6.194  30.477  11.511
31748W        W 4173  30.121  20.298  11.784
31749W        W 4174  42.285  41.613   1.307
31750W        W 4175   2.700  28.686  11.997
31751W        W 4176  43.038  22.545   0.802
31752W        W 4177  10.209  15.810   0.749
31753W        W 4178   8.505  38.498   3.789
31754W        W 4179  39.960  35.231   3.919
31755W        W 4180   3.257  15.829   3.611
31756W        W 4181  39.913  22.208  10.743
31757W        W 4182   2.514  23.955   2.244
31758W        W 4183  33.500  25.607   0.403
31759W        W 4184  36.436  44.500  11.503
31760W        W 4185  30.233   8.008  14.395
31761W        W 4186  32.041  42.341  12.453
31762W        W 4187   6.853  31.994   1.113
31763W        W 4188   0.209  42.528  10.451
31764W        W 4189  11.660  10.172  12.328
31765W        W 4190   8.878  27.492  11.260
31766W        W 4191  19.779  38.318  14.840
31767W        W 4192  33.812  28.905   0.783
31768W        W 4193  35.032   7.430  13.928
31769W        W 4194  32.302  31.181  12.099
31770W        W 4195  30.549  19.220  13.931
31771W        W 4196  37.876  43.954   0.364
31772W        W 4197  27.053   7.447  13.422
31773W        W 4198  30.367   2.103   4.020
31774W        W 4199  33.475  43.489   2.572
31775W        W 4200  31.402  37.883  10.772
31776W        W 4201   2.553   0.368   4.733
31777W        W 4202  34.149  24.625  14.428
31778W        W 4203   8.410  35.151   5.220
31779W        W 4204  27.487  18.078   4.318
31780W        W 4205   3.812  37.492   0.076
31781W        W 4206  10.426  44.039   1.515
31782W        W 4207  11.936  35.913  12.005
31783W        W 4208  11.225   5.754   1.206
31784W        W 4209  11.706  26.050   1.605
31785W        W 4210  21.693  18.401   2.394
31786W        W 4211  38.779  19.265  14.859
31787W        W 4212  24.194  22.760   0.862
31788W        W 4213  26.068  27.232   1.177
31789W        W 4214  36.362  38.704  12.942
31790W        W 4215   4.364  42.085  14.013
31791W        W 4216  34.564  23.675   5.430
31792W        W 4217  32.453  25.736  12.880
31793W        W 4218  25.312   1.672  14.323
31794W        W 4219   4.024   0.374   2.973
31795W        W 4220  31.781  30.647  13.823
31796W        W 4221  24.149  32.214   4.731
31797W        W 4222  38.953  10.658   2.351
31798W        W 4223  43.489  44.895   3.055
31799W        W 4224  33.499  30.133  13.782
31800W        W 4225  25.888  39.760  14.874
31801W        W 4226  22.745  38.441  11.746
31802W        W 4227  42.996  24.054   3.251
31803W        W 4228   8.723   3.786  12.880
31804W        W 4229  21.688  34.996   2.495
31805W        W 4230  44.269   5.446  12.489
31806W        W 4231  31.400  38.862  12.787
31807W        W 4232  14.261  19.063  12.167
31808W        W 4233   9.628  37.842  13.500
31809W        W 4234   0.278   1.501   5.002
31810W        W 4235  27.038  12.726  14.023
31811W        W 4236  40.572  27.099  11.917
31812W        W 4237   1.045  23.976  14.463
31813W        W 4238   1.081  40.381  14.853
31814W        W 4239   9.806  37.121   4.701
31815W        W 4240   4.340   9.004   0.288
31816W        W 4241  37.569   5.039  13.142
31817W        W 4242  35.873  30.202  12.527
31818W        W 4243  18.598   3.339  14.478
31819W        W 4244  37.121  22.713   3.158
31820W        W 4245  16.642  30.859  12.987
31821W        W 4246  15.083  20.748   3.620
31822W        W 4247  30.509  29.611  14.825
31823W        W 4248  31.017  39.652  10.552
31824W        W 4249  20.683  14.184   2.460
31825W        W 4250  30.881  31.732  11.799
31826W        W 4251  32.926  23.640   0.703
31827W        W 4252   6.762   5.928   0.286
31828W        W 4253  44.321  18.501  10.724
31829W        W 4254  36.377  36.675  14.782
31830W        W 4255   9.782  38.579   1.025
31831W        W 4256  16.720  38.853  11.407
31832W        W 4257   2.826  30.839  14.672
31833W        W 4258  44.968   6.344  13.128
31834W        W 4259  44.341  20.796  11.078
31835W        W 4260  43.073  41.276  13.415
31836W        W 4261  14.357  41.990  12.682
31837W        W 4262   5.684  35.047   2.221
31838W        W 4263  21.002  22.803  12.521
31839W        W 4264  29.623   2.418  11.615
31840W        W 4265  18.285  20.628   4.338
31841W        W 4266  11.341  25.472  10.683
31842W        W 4267  21.456  44.025   0.380
31843W        W 4268  39.120  22.445  14.788
31844W        W 4269  33.219  21.151  12.871
31845W        W 4270  32.442   6.914   5.024
31846W        W 4271  44.535  11.427   4.359
31847W        W 4272  30.664  33.515  11.253
31848W        W 4273  17.762  31.977  10.941
31849W        W 4274  21.036  11.722   9.909
31850W        W 4275  29.049   3.933  12.108
31851W        W 4276   4.852   9.100  12.009
31852W        W 4277  42.694  39.972  12.945
31853W        W 4278  41.889   6.868  14.554
31854W        W 4279   9.422  43.508  14.364
31855W        W 4280   3.687   1.714   4.568
31856W        W 4281  10.378  15.386   1.510
31857W        W 4282  12.013  16.516  10.981
31858W        W 4283  24.606  15.392  12.455
31859W        W 4284  13.993   8.228  11.167
31860W        W 4285  34.958  39.445  13.960
31861W        W 4286   9.632  40.471   0.511
31862W        W 4287  25.081   5.685   3.825
31863W        W 4288  29.157   6.929  14.470
31864W        W 4289  43.781  37.566   0.336
31865W        W 4290  31.955  32.622  11.583
31866W        W 4291   7.919  10.297   4.607
31867W        W 4292   0.412   5.623   3.249
31868W        W 4293   3.640  13.124   0.924
31869W        W 4294  34.904  12.663   0.106
31870W        W 4295  19.572   8.799  11.552
31871W        W 4296  36.083  21.717  14.018
31872W        W 4297   5.856  28.917   4.310
31873W        W 4298  23.710  39.098  11.372
31874W        W 4299  20.159  10.944  11.136
31875W        W 4300   2.674   4.415   3.630
31876W        W 4301  32.971  15.032   4.154
31877W        W 4302  29.189  33.029  13.501
31878W        W 4303   0.278  23.286   2.929
31879W        W 4304  25.709  17.082  12.425
31880W        W 4305  19.667  14.154  13.585
31881W        W 4306   7.744  18.047   3.873
31882W        W 4307  11.326  13.581  11.010
31883W        W 4308  36.038  32.355  12.023
31884W        W 4309  43.292  10.230   4.308
31885W        W 4310  10.470   1.893  13.362
31886W        W 4311  32.980  27.742  12.972
31887W        W 4312  35.783  25.203   2.160
31888W        W 4313  28.435  38.107   3.734
31889W        W 4314  32.384  27.766  12.423
31890W        W 4315  15.474  13.420  12.024
31891W        W 4316  23.475   4.268  10.975
31892W        W 4317  11.776  27.464   3.147
31893W        W 4318   5.178  27.686   3.153
31894W        W 4319  35.464  12.324  14.616
31895W        W 4320   6.670   1.807   3.125
31896W        W 4321  10.743  21.458  12.662
31897W        W 4322  27.263  13.143   1.362
31898W        W 4323  44.724  32.287   3.138
31899W        W 4324   4.807  23.770   1.800
31900W        W 4325  20.215   8.473   4.704
31901W        W 4326  29.951   7.076  13.371
31902W        W 4327   9.878  28.857  12.580
31903W        W 4328  36.578   8.297   5.027
31904W        W 4329  35.599  14.958   3.573
31905W        W 4330  21.974  34.439  14.225
31906W        W 4331  29.977  34.663   0.242
31907W        W 4332  29.935  28.438   0.688
31908W        W 4333  15.008  28.553  11.579
31909W        W 4334   4.089  28.520  10.744
31910W        W 4335  30.479  34.591   0.389
31911W        W 4336   7.966  30.534  13.884
31912W        W 4337  18.243   1.334   3.294
31913W        W 4338   8.089  15.968   1.335
31914W        W 4339  26.732  41.871  13.345
31915W        W 4340  22.316  22.237   2.855
31916W        W 4341  40.420  38.863  12.178
31917W        W 4342  42.773  44.016   1.803
31918W        W 4343  32.901  36.373   2.942
31919W        W 4344  35.063   1.932  11.929
31920W        W 4345  14.316  27.660   0.381
31921W        W 4346  36.295  24.625   2.856
31922W        W 4347  40.056  27.650   3.714
31923W        W 4348   6.699   1.237   0.457
31924W        W 4349  25.956  44.886   0.358
31925W        W 4350   4.741  31.958   1.322
31926W        W 4351   0.716  12.684  11.566
31927W        W 4352  42.078  10.196  12.839
31928W        W 4353  17.357  38.276  12.446
31929W        W 4354   4.322   9.537  14.428
31930W        W 4355  38.930  11.899  14.951
31931W        W 4356  34.283  42.310   0.368
31932W        W 4357  23.076  15.018  11.665
31933W        W 4358   8.821   9.351   9.883
31934W        W 4359  38.137  14.691   1.701
31935W        W 4360  35.923  43.570   3.109
31936W        W 4361  12.350   7.666  14.763
31937W        W 4362  22.878  22.703  14.395
31938W        W 4363  14.208   2.345   0.780
31939W        W 4364  40.642  30.116  14.688
31940W        W 4365  29.140  36.546   0.369
31941W        W 4366  33.200  25.702  10.738
31942W        W 4367  43.893  44.626  10.807
31943W        W 4368  39.780  21.024   0.667
31944W        W 4369  38.093  41.553   3.700
31945W        W 4370  31.976   2.239  11.483
31946W        W 4371  37.844  16.669  14.532
31947W        W 4372  12.049  32.526  11.581
31948W        W 4373  33.037  44.744   3.575
31949W        W 4374  15.420  19.116   4.231
31950W        W 4375  23.049  19.058  14.369
31951W        W 4376  17.274  40.582   1.732
31952W        W 4377  31.688  18.164   0.851
31953W        W 4378  13.161  35.886   0.214
31954W        W 4379   1.941  35.028  10.735
31955W        W 4380  38.065  29.502   4.417
31956W        W 4381  29.024   7.080   2.578
31957W        W 4382   7.628  15.822  11.205
31958W        W 4383  20.725  26.130  10.924
31959W        W 4384  23.999   1.749  11.276
31960W        W 4385  10.898  39.410  11.973
31961W        W 4386  25.320  11.678   3.673
31962W        W 4387  20.574   6.279   1.188
31963W        W 4388  20.065   3.992  12.063
31964W        W 4389  31.356   7.628   2.903
31965W        W 4390  37.353  36.216  12.325
31966W        W 4391  16.065  15.085   1.612
31967W        W 4392  22.438  37.670  13.592
31968W        W 4393  34.502   0.831  11.197
31969W        W 4394  32.174  18.677   0.432
31970W        W 4395  22.150  31.465   4.252
31971W        W 4396  14.224  25.119  11.954
31972W        W 4397  33.984  31.867  14.508
31973W        W 4398  37.903  37.976   1.021
31974W        W 4399  40.285  22.775  11.892
31975W        W 4400   1.003  27.183   0.848
31976W        W 4401  35.757  40.377   3.267
31977W        W 4402  29.962  12.692  10.615
31978W        W 4403  34.711  18.211   3.600
31979W        W 4404  29.556  25.068  14.206
31980W        W 4405  22.175  29.151   2.789
31981W        W 4406  10.662   9.986  14.875
31982W        W 4407  32.202  22.172  12.544
31983W        W 4408   1.668   6.921  14.029
31984W        W 4409  21.035  37.941  10.896
31985W        W 4410   6.119  23.788  13.009
31986W        W 4411  15.314  14.058  11.658
31987W        W 4412  21.984  21.835   2.785
31988W        W 4413   3.511  18.708  14.851
31989W        W 4414  44.505  40.266  13.484
31990W        W 4415  26.555   0.159  10.697
31991W        W 4416  26.529  13.064  10.457
31992W        W 4417  37.285  26.005   3.183
31993W        W 4418   8.617  16.797   1.238
31994W        W 4419  41.189  41.042   3.432
31995W        W 4420  14.677   5.440  13.468
31996W        W 4421  32.411   8.140  11.976
31997W        W 4422  19.587   3.434   9.892
31998W        W 4423  15.323  25.272  13.002
31999W        W 4424   4.941  43.923   3.731
32000W        W 4425  26.035  37.867  12.859
32001W        W 4426  34.848  16.545  14.235
32002W        W 4427  39.859  20.750   0.253
32003W        W 4428   0.075  30.399  11.927
32004W        W 4429  11.728  34.921   4.613
32005W        W 4430   1.824  22.608   4.195
32006W        W 4431   6.285  40.690  14.791
32007W        W 4432  40.374  11.996   3.813
32008W        W 4433  14.221   4.786  13.231
32009W        W 4434   2.890  39.473  14.014
32010W        W 4435  38.128  38.874  10.720
32011W        W 4436  18.296  16.738   0.764
32012W        W 4437   4.109  10.527   2.152
32013W        W 4438  25.900  28.488  13.521
32014W        W 4439  28.974  17.487   1.718
32015W        W 4440  33.676  11.342   4.139
32016W        W 4441  28.207  43.893   4.608
32017W        W 4442  25.877   8.793  11.919
32018W        W 4443   0.275  34.811   2.851
32019W        W 4444  10.888  44.475  11.517
32020W        W 4445  37.317   9.098   2.668
32021W        W 4446  29.091  12.802   2.781
32022W        W 4447   1.169   9.048   3.434
32023W        W 4448  21.149  32.502  10.977
32024W        W 4449  14.221  27.626  11.963
32025W        W 4450  43.208  12.218   4.611
32026W        W 4451  27.013  20.006   1.342
32027W        W 4452  38.298  14.706  13.811
32028W        W 4453  35.071   9.808  11.090
32029W        W 4454  22.806   8.254   1.150
32030W        W 4455  30.254   2.962   3.545
32031W        W 4456  32.474  13.593  10.702
32032W        W 4457  36.791   7.328  10.804
32033W        W 4458  24.496  40.174  13.468
32034W        W 4459  35.619  40.595  12.380
32035W        W 4460   7.943  43.644  11.046
32036W        W 4461  31.083   2.927   2.629
32037W        W 4462  33.387  31.448   0.474
32038W        W 4463  23.785  21.561  12.995
32039W        W 4464  35.929  30.673  14.464
32040W        W 4465  26.455  25.464   1.338
32041W        W 4466  42.193  13.245   1.474
32042W        W 4467   5.585   8.097   2.527
32043W        W 4468  30.768  31.988   1.148
32044W        W 4469  37.903  34.889   2.698
32045W        W 4470  40.635  11.119   1.018
32046W        W 4471  16.569   1.020   3.764
32047W        W 4472  22.612   9.771  11.385
32048W        W 4473  28.915  33.602  11.996
32049W        W 4474  14.005  35.358  14.235
32050W        W 4475  26.594  40.731   3.279
32051W        W 4476  22.226   5.989   0.205
32052W        W 4477  44.502  34.356  14.479
32053W        W 4478   0.037  11.630   2.318
32054W        W 4479  27.420  16.558   1.425
32055W        W 4480  21.799  17.618   2.868
32056W        W 4481  19.307  37.023  11.140
32057W        W 4482  27.515  43.156  14.558
32058W        W 4483   5.402  27.119   2.166
32059W        W 4484  44.473  41.445   4.379
32060W        W 4485  10.065  22.073  12.656
32061W        W 4486  22.907   8.176   5.107
32062W        W 4487  28.587  31.610  10.678
32063W        W 4488   5.752  40.112  12.531
32064W        W 4489  33.367   6.557   3.769
32065W        W 4490   7.902  33.771   1.127
32066W        W 4491  18.277   9.605   0.992
32067W        W 4492  41.908   7.638  10.413
32068W        W 4493   5.657  21.745  12.439
32069W        W 4494   6.642   3.720  10.728
32070W        W 4495  34.347  19.317  12.547
32071W        W 4496  15.617  29.033  13.275
32072W        W 4497   3.273  36.634  14.486
32073W        W 4498  18.251  24.182  10.496
32074W        W 4499  42.697   4.086  14.782
32075W        W 4500  19.598  30.819   0.267
32076W        W 4501  43.853  11.651   3.775
32077W        W 4502  14.221   8.268  10.712
32078W        W 4503  19.445   2.256   0.841
32079W        W 4504  21.253  15.352   2.805
32080W        W 4505  31.792   0.722  13.145
32081W        W 4506  35.708   3.729   4.607
32082W        W 4507  24.913  37.351  13.278
32083W        W 4508  30.540   6.414   4.105
32084W        W 4509  12.175  30.883  12.466
32085W        W 4510  16.202  23.710  14.325
32086W        W 4511  39.966  28.131   4.296
32087W        W 4512   0.319  40.752   2.356
32088W        W 4513   3.237   1.422  12.435
32089W        W 4514  40.334  19.085   4.129
32090W        W 4515  27.062  41.982   3.195
32091W        W 4516  43.490  35.940   0.017
32092W        W 4517  37.222  34.887  14.843
32093W        W 4518  25.098  43.431   1.922
32094W        W 4519  15.667  39.221  14.386
32095W        W 4520  34.490  17.797   3.836
32096W        W 4521  39.769   5.689  11.982
32097W        W 4522  35.072   7.240   0.316
32098W        W 4523   8.759  34.929   3.642
32099W        W 4524  10.621  32.983   4.452
32100W        W 4525  14.237   8.683  14.760
32101W        W 4526   7.512  37.864   0.701
32102W        W 4527  44.201  39.368  13.454
32103W        W 4528  19.034   5.656  11.560
32104W        W 4529  33.715  20.289  13.043
32105W        W 4530   7.736  40.301   3.727
32106W        W 4531  13.231   5.820   3.884
32107W        W 4532  16.328  38.355   1.227
32108W        W 4533  33.549  29.726   0.171
32109W        W 4534   2.766  23.801  11.099
32110W        W 4535  24.609  10.173   1.089
32111W        W 4536  15.550   7.849  11.412
32112W        W 4537  35.074  12.251   1.469
32113W        W 4538   8.357  12.321   0.342
32114W        W 4539  19.099  39.368   2.200
32115W        W 4540  23.466  16.232   4.613
32116W        W 4541  39.455   0.545  13.151
32117W        W 4542   6.618  30.909   3.218
32118W        W 4543   8.384  40.901   0.810
32119W        W 4544  15.152  24.161   2.659
32120W        W 4545  26.561  30.978   5.392
32121W        W 4546   7.704  42.962   0.447
32122W        W 4547  41.486  37.278   2.893
32123W        W 4548  18.078  38.948   1.490
32124W        W 4549  17.360  30.025   0.749
32125W        W 4550  39.985  39.902   4.632
32126W        W 4551  41.531  43.915   4.685
32127W        W 4552   7.836  33.923   0.126
32128W        W 4553  33.411  37.331   0.632
32129W        W 4554   9.412  42.055  14.246
32130W        W 4555  10.807  22.272   3.700
32131W        W 4556  23.681   6.270  10.740
32132W        W 4557  39.167  31.981  10.792
32133W        W 4558  28.574  10.898   0.374
32134W        W 4559  31.035  39.328   1.536
32135W        W 4560   5.271  38.568  13.106
32136W        W 4561  36.777   6.866   4.069
32137W        W 4562  33.812  15.669   4.336
32138W        W 4563  39.037  15.605   2.684
32139W        W 4564  13.113   7.807   0.268
32140W        W 4565  12.608  31.863   2.769
32141W        W 4566  31.930  18.681   1.811
32142W        W 4567  43.490   3.755   2.939
32143W        W 4568  20.241  36.414  13.490
32144W        W 4569  43.716   7.215  14.471
32145W        W 4570  33.012  36.466  11.628
32146W        W 4571  30.141  32.184  14.408
32147W        W 4572  20.049  41.710   3.272
32148W        W 4573  42.255   1.027  12.858
32149W        W 4574  26.140  13.143  14.025
32150W        W 4575   6.772  21.701  14.090
32151W        W 4576   9.272  35.994  12.945
32152W        W 4577  20.274  33.955  11.966
32153W        W 4578  27.141  14.613  12.367
32154W        W 4579  43.799  18.060   1.492
32155W        W 4580  29.244   9.209  13.297
32156W        W 4581   0.192   0.052   2.272
32157W        W 4582  21.465  32.650   3.668
32158W        W 4583  39.993  11.593   2.349
32159W        W 4584   5.544  18.023  12.465
32160W        W 4585  25.209  34.478   4.441
32161W        W 4586  24.145  30.250   4.062
32162W        W 4587  20.020  39.874  13.048
32163W        W 4588  25.557   3.327   4.917
32164W        W 4589  36.507   9.952  14.934
32165W        W 4590   6.834  37.920  14.223
32166W        W 4591   4.838  44.783  13.570
32167W        W 4592  24.033  32.988  11.574
32168W        W 4593   3.998  16.577  14.935
32169W        W 4594   5.282  35.971   0.337
32170W        W 4595  29.420  21.219  11.496
32171W        W 4596  23.415   1.797  10.643
32172W        W 4597  34.400  22.477  11.347
32173W        W 4598  41.395  32.392   0.296
32174W        W 4599  19.062   0.504   2.773
32175W        W 4600   7.208  24.417   1.508
32176W        W 4601  26.504  28.371  12.019
32177W        W 4602   8.594   6.242   1.763
32178W        W 4603  37.008  33.136   0.293
32179W        W 4604  29.025  40.428   5.035
32180W        W 4605  11.263  29.785  12.940
32181W        W 4606  32.554  35.497   2.616
32182W        W 4607  14.270  44.267  12.026
32183W        W 4608  25.195  10.849  13.998
32184W        W 4609  31.639  11.219   0.702
32185W        W 4610  25.560  18.928   0.854
32186W        W 4611  13.701  15.233  14.852
32187W        W 4612  11.448  38.963   0.009
32188W        W 4613  42.299  19.748  12.199
32189W        W 4614  17.929  31.907   9.935
32190W        W 4615  15.721  28.695  12.066
32191W        W 4616  39.456  42.155  12.493
32192W        W 4617  40.805  27.149   2.338
32193W        W 4618  15.887  28.371   4.719
32194W        W 4619   3.177  40.070   1.448
32195W        W 4620  44.764  37.790   0.262
32196W        W 4621  36.283  20.517   3.257
32197W        W 4622  27.242  40.376  13.961
32198W        W 4623  43.547  28.270  12.178
32199W        W 4624  43.062  12.697  14.189
32200W        W 4625  30.739  12.183  14.060
32201W        W 4626  19.732  44.089   0.738
32202W        W 4627  23.498  30.144   2.455
32203W        W 4628  38.554  27.698  13.864
32204W        W 4629   6.015  25.201   0.886
32205W        W 4630  29.948  36.552   4.070
32206W        W 4631  15.541   9.213  11.484
32207W        W 4632  12.285   7.879  14.279
32208W        W 4633   0.444  19.297   1.375
32209W        W 4634  20.453  26.517   5.185
32210W        W 4635  35.961  28.984   0.756
32211W        W 4636  13.394  30.360  14.816
32212W        W 4637  44.422  26.805   4.153
32213W        W 4638  29.871  28.963  14.995
32214W        W 4639  30.923  37.018   3.699
32215W        W 4640  17.593  38.957  13.607
32216W        W 4641  40.075   6.187  14.925
32217W        W 4642  20.211  41.925   1.093
32218W        W 4643  42.251  27.423   3.717
32219W        W 4644  26.435   6.810  11.636
32220W        W 4645  11.699  13.292  12.383
32221W        W 4646  24.723  11.287   5.662
32222W        W 4647  29.413  28.668   1.913
32223W        W 4648  12.747  25.783   4.666
32224W        W 4649  11.410   1.990   1.753
32225W        W 4650  22.719   9.259   0.558
32226W        W 4651  26.415   4.205  12.506
32227W        W 4652  25.212  16.161  11.625
32228W        W 4653   7.412  24.739  12.979
32229W        W 4654  24.725  40.407   2.214
32230W        W 4655  36.849   3.231   3.613
32231W        W 4656  15.725  12.859  11.270
32232W        W 4657  24.386  25.166   3.885
32233W        W 4658  15.716  12.883   2.780
32234W        W 4659  24.531  22.222   2.047
32235W        W 4660   1.180  15.260   1.441
32236W        W 4661  10.305  42.546   3.621
32237W        W 4662  27.979   6.432  12.867
32238W        W 4663  22.357  14.454  12.214
32239W        W 4664  43.277  41.766   2.095
32240W        W 4665  12.089  24.509   2.848
32241W        W 4666   0.617   1.431   3.603
32242W        W 4667  33.956   6.032   4.174
32243W        W 4668   3.614  20.661   0.716
32244W        W 4669  20.000  27.059   1.326
32245W        W 4670  14.357  11.762   2.737
32246W        W 4671  19.180   0.819   5.496
32247W        W 4672  42.232  34.600  14.040
32248W        W 4673   1.232  29.936   2.284
32249W        W 4674  19.719  44.044  12.067
32250W        W 4675  44.781  19.445  14.853
32251W        W 4676  12.885   6.544   1.492
32252W        W 4677   2.952  30.438  14.357
32253W        W 4678  27.104  40.784   0.404
32254W        W 4679  35.486  23.297   5.310
32255W        W 4680  26.471  39.068   2.733
32256W        W 4681   4.187  25.671  10.901
32257W        W 4682  21.745  34.480   4.693
32258W        W 4683  34.844  29.425  12.464
32259W        W 4684   9.184  13.313   0.206
32260W        W 4685  42.315  38.857   4.179
32261W        W 4686  21.479  41.419   0.856
32262W        W 4687  27.419  25.990  11.855
32263W        W 4688  36.371  41.447   3.491
32264W        W 4689  11.596  34.753   1.402
32265W        W 4690   3.005  24.023   0.152
32266W        W 4691  43.540  19.583   4.976
32267W        W 4692   6.715  29.537  14.251
32268W        W 4693  19.188  29.919   1.729
32269W        W 4694  14.116  35.545   4.545
32270W        W 4695  31.152  20.515  12.389
32271W        W 4696  14.960   3.115   0.010
32272W        W 4697  27.045  17.281   3.082
32273W        W 4698   9.187  19.565  12.558
32274W        W 4699  23.094  29.916  11.030
32275W        W 4700  38.832  42.612  11.631
32276W        W 4701   4.319   2.390  11.190
32277W        W 4702  26.656  18.537   2.941
32278W        W 4703  19.714  19.466   4.871
32279W        W 4704  31.088  26.920   4.228
32280W        W 4705  39.073   4.862   4.641
32281W        W 4706  44.672  33.330  11.196
32282W        W 4707  16.206   8.399  10.866
32283W        W 4708  28.695  31.063   1.927
32284W        W 4709  29.788  30.514  14.943
32285W        W 4710  25.880  20.634   2.856
32286W        W 4711   5.442  17.259  12.423
32287W        W 4712   3.245  35.368  12.823
32288W        W 4713  35.199  36.093   3.831
32289W        W 4714  18.181  11.360   3.813
32290W        W 4715  38.199  23.515  14.494
32291W        W 4716  25.141  29.250  11.621
32292W        W 4717  13.574  21.197   0.432
32293W        W 4718  25.543  38.417  13.364
32294W        W 4719   3.888  37.989  12.538
32295W        W 4720  22.775   1.062  13.725
32296W        W 4721  29.397  23.072   1.789
32297W        W 4722  10.651   2.191  11.574
32298W        W 4723   3.514   6.591   2.225
32299W        W 4724  39.839  42.836   1.161
32300W        W 4725   6.525   5.248   0.757
32301W        W 4726   0.127  30.697   4.629
32302W        W 4727   3.920  28.062   4.629
32303W        W 4728  33.122  15.104  11.467
32304W        W 4729   3.651  15.674  14.472
32305W        W 4730  38.868   8.925   2.067
32306W        W 4731   9.576   8.092  11.589
32307W        W 4732  37.511  14.725  10.905
32308W        W 4733   4.915  19.875  13.717
32309W        W 4734  25.974  12.706  11.558
32310W        W 4735  26.026  29.701  14.573
32311W        W 4736  36.987  31.197  14.910
32312W        W 4737  41.034  44.938  11.391
32313W        W 4738  29.064  34.474  12.818
32314W        W 4739  33.049  43.628  14.385
32315W        W 4740  40.905  23.609   3.648
32316W        W 4741  44.758  15.313  10.632
32317W        W 4742  30.778  19.052  13.065
32318W        W 4743   4.420  20.220  12.859
32319W        W 4744  22.184   8.897  13.046
32320W        W 4745  34.029  24.453   0.909
32321W        W 4746  26.503  29.230  13.741
32322W        W 4747  23.340  12.136   2.473
32323W        W 4748   7.268   8.907  14.955
32324W        W 4749   5.436   1.316   2.782
32325W        W 4750  33.402  24.233   4.177
32326W        W 4751  23.953   5.834   4.278
32327W        W 4752  32.905  24.504   1.883
32328W        W 4753  39.418  32.214   2.726
32329W        W 4754   8.383  13.208   4.465
32330W        W 4755   4.890  32.868  13.706
32331W        W 4756  33.929  42.209  12.523
32332W        W 4757  20.585  44.349   1.431
32333W        W 4758  32.176   4.246   0.258
32334W        W 4759  28.946   0.329   0.822
32335W        W 4760   9.642  30.698  12.760
32336W        W 4761  36.453  33.000   4.632
32337W        W 4762  34.488  32.389  10.683
32338W        W 4763  16.631  28.166  10.650
32339W        W 4764  34.564   6.137   0.433
32340W        W 4765  25.186  14.128  12.469
32341W        W 4766   7.890  39.065  14.248
32342W        W 4767   0.563  18.688  12.097
32343W        W 4768  41.228  21.911   1.999
32344W        W 4769   2.961  31.260  14.973
32345W        W 4770  29.445  38.030   2.437
32346W        W 4771  11.369  24.426   2.178
32347W        W 4772  15.010  42.914   4.578
32348W        W 4773  39.101  14.200   0.957
32349W        W 4774  21.620  26.507  13.598
32350W        W 4775  20.346  37.596   9.614
32351W        W 4776  31.059  18.732   3.717
32352W        W 4777  34.064  29.157  13.033
32353W        W 4778  31.539  20.620   1.274
32354W        W 4779  10.586  24.111  13.793
32355W        W 4780   1.378  27.988  14.889
32356W        W 4781  43.471  26.959   2.805
32357W        W 4782  42.879   9.446   1.833
32358W        W 4783   0.861  32.398  13.765
32359W        W 4784  20.309   3.638  13.355
32360W        W 4785  27.025  34.233   0.372
32361W        W 4786  27.499  40.871   1.145
32362W        W 4787   0.643   2.470   2.489
32363W        W 4788   2.287  14.530   3.753
32364W        W 4789   7.855  13.472  11.239
32365W        W 4790  21.765   7.547  11.900
32366W        W 4791  34.418  29.957   1.288
32367W        W 4792  43.818  30.319  10.861
32368W        W 4793  39.512  28.466   0.887
32369W        W 4794  17.262  32.629   9.703
32370W        W 4795   7.799   9.149   2.231
32371W        W 4796  13.792  40.926   3.476
32372W        W 4797  31.044  42.293  11.188
32373W        W 4798  13.361  20.132  11.647
32374W        W 4799   2.836  33.002   1.320
32375W        W 4800  24.340  29.129   3.623
32376W        W 4801  42.372  13.348   4.629
32377W        W 4802  31.991  43.459  10.708
32378W        W 4803  19.005  16.061  10.431
32379W        W 4804  15.077  15.368  13.799
32380W        W 4805  44.844  12.273  13.890
32381W        W 4806   2.558  32.881  10.863
32382W        W 4807  26.077  21.986  14.366
32383W        W 4808  15.162  17.144  12.824
32384W        W 4809  20.884  44.868  13.313
32385W        W 4810  13.925  42.023   4.147
32386W        W 4811  37.345  38.115   0.393
32387W        W 4812  19.144  11.145  14.326
32388W        W 4813  14.585  26.480   0.482
32389W        W 4814  32.931   6.828   3.765
32390W        W 4815  40.334  18.817   3.200
32391W        W 4816  17.853   1.003   3.621
32392W        W 4817  24.924  19.309  14.004
32393W        W 4818  17.535  23.659  13.905
32394W        W 4819  28.593  32.998   2.311
32395W        W 4820  19.062  23.134   1.809
32396W        W 4821  40.834  31.906  12.119
32397W        W 4822  22.158  23.802   1.644
32398W        W 4823  10.022  32.471  14.883
32399W        W 4824  37.303  40.011   4.422
32400W        W 4825  44.470  13.911   2.069
32401W        W 4826  34.543   4.721  12.370
32402W        W 4827   3.349  43.803   2.866
32403W        W 4828  39.795  34.844  13.638
32404W        W 4829  44.419  14.818  10.699
32405W        W 4830   1.471  16.823  11.640
32406W        W 4831  37.954  18.598  11.591
32407W        W 4832  30.400  28.542   2.121
32408W        W 4833  37.364  27.118   3.183
32409W        W 4834   5.933   2.744   3.643
32410W        W 4835  13.281  39.813  11.151
32411W        W 4836   2.719   1.471   2.296
32412W        W 4837  31.003  41.049  13.102
32413W        W 4838   0.521  30.957  13.861
32414W        W 4839   1.437  13.369   3.618
32415W        W 4840  24.497  38.942  14.546
32416W        W 4841  17.634   8.225   4.618
32417W        W 4842  35.816  26.439  14.440
32418W        W 4843  34.003  39.041  12.570
32419W        W 4844  41.852  21.037  12.408
32420W        W 4845  34.579  23.932   0.373
32421W        W 4846  28.629  24.251  12.790
32422W        W 4847   5.215  15.304  11.539
32423W        W 4848  41.227  12.747  10.951
32424W        W 4849  37.064  20.738   4.612
32425W        W 4850  35.867  25.107   9.697
32426W        W 4851   5.432   9.443   2.792
32427W        W 4852  28.863  27.103  11.143
32428W        W 4853   5.994   4.838   3.177
32429W        W 4854  43.891   5.341   4.293
32430W        W 4855  39.076  39.072  10.949
32431W        W 4856   3.104  21.533  11.907
32432W        W 4857  24.164  12.236   3.626
32433W        W 4858  35.767  16.901  14.436
32434W        W 4859  20.104   2.359   3.711
32435W        W 4860  30.611  27.257  13.741
32436W        W 4861  15.282  36.889  10.960
32437W        W 4862  23.241   1.685  14.742
32438W        W 4863  17.121  38.391  11.967
32439W        W 4864  11.857  43.400  13.131
32440W        W 4865  17.671   7.430   0.782
32441W        W 4866  32.538  17.782   1.634
32442W        W 4867  19.444  18.290  11.647
32443W        W 4868  13.627   0.747   0.201
32444W        W 4869  23.825  28.944  12.002
32445W        W 4870  31.057  33.428  14.730
32446W        W 4871  28.579  11.286  12.736
32447W        W 4872  27.496  33.916  10.736
32448W        W 4873  18.771   6.650   0.371
32449W        W 4874  35.666   3.887   3.884
32450W        W 4875  42.160   0.245  11.180
32451W        W 4876  26.938   8.352  12.416
32452W        W 4877   2.269   2.630   3.146
32453W        W 4878   2.706  44.876   3.362
32454W        W 4879  29.829  17.721   0.032
32455W        W 4880  37.468  16.252   1.246
32456W        W 4881  40.366  18.554   4.066
32457W        W 4882  40.349  17.514   0.301
32458W        W 4883   7.322   5.214  12.616
32459W        W 4884   1.022  14.824   4.154
32460W        W 4885  24.884  39.506   2.391
32461W        W 4886  24.183  12.837  14.581
32462W        W 4887  13.319  40.408  14.518
32463W        W 4888  37.073  25.542   3.273
32464W        W 4889   7.749   0.723   0.050
32465W        W 4890  24.100  43.274   1.682
32466W        W 4891  19.841  10.098  11.433
32467W        W 4892  19.418  10.200   4.616
32468W        W 4893   6.294  30.185  14.329
32469W        W 4894  38.057  39.373   2.835
32470W        W 4895  37.329  41.914   0.423
32471W        W 4896  37.308  26.106  14.003
32472W        W 4897  32.585  14.641  13.526
32473W        W 4898   4.834  14.229  12.068
32474W        W 4899  33.125  35.487  10.677
32475W        W 4900  31.905   2.266  11.979
32476W        W 4901  39.075   1.877  12.751
32477W        W 4902  31.030  17.222   0.149
32478W        W 4903  28.692  34.190  14.152
32479W        W 4904  38.525  35.393   2.281
32480W        W 4905  22.273  17.182   1.637
32481W        W 4906  44.937  34.890  10.569
32482W        W 4907  43.328  17.003  14.459
32483W        W 4908  22.934  29.549   3.827
32484W        W 4909  35.979  15.963   0.920
32485W        W 4910  17.231  19.168  10.838
32486W        W 4911  41.345  22.124  11.299
32487W        W 4912  20.641  16.140  13.438
32488W        W 4913  29.176  34.023  14.835
32489W        W 4914  26.615   3.710   3.656
32490W        W 4915   2.793  42.925  12.137
32491W        W 4916  41.818  25.327   2.844
32492W        W 4917  15.255   7.798   3.379
32493W        W 4918   0.509   6.936   1.462
32494W        W 4919   0.923  37.504  11.694
32495W        W 4920   9.887  15.797  12.782
32496W        W 4921   6.166  26.791  13.972
32497W        W 4922  13.208  18.629  11.318
32498W        W 4923  30.715   0.460   2.853
32499W        W 4924  29.716  36.342   3.636
32500W        W 4925  18.220  25.440   3.728
32501W        W 4926   9.391  35.059  13.409
32502W        W 4927  33.053   6.309   1.454
32503W        W 4928   3.693  35.737  11.995
32504W        W 4929  19.749  18.251   1.868
32505W        W 4930  38.085  10.810   3.720
32506W        W 4931  40.417  32.686   1.471
32507W        W 4932  25.542  34.910   1.137
32508W        W 4933   8.126  42.273   0.898
32509W        W 4934  24.993  10.613   0.271
32510W        W 4935  15.112  27.591   4.384
32511W        W 4936  32.988  28.633  11.030
32512W        W 4937  22.086  39.430  13.313
32513W        W 4938  10.734  11.923   2.924
32514W        W 4939  18.916   2.761   2.334
32515W        W 4940  18.686  16.623  13.431
32516W        W 4941  18.027  38.340  12.103
32517W        W 4942   3.243  31.000  12.184
32518W        W 4943   2.049  18.670  13.731
32519W        W 4944  23.080   7.585  14.427
32520W        W 4945  21.509  22.268   3.165
32521W        W 4946   5.513  26.511   2.840
32522W        W 4947  14.930  16.393   2.941
32523W        W 4948  32.442  10.377   0.749
32524W        W 4949   1.273  30.676   4.697
32525W        W 4950  12.063  18.098  14.475
32526W        W 4951  28.718  17.626  10.786
32527W        W 4952  28.446  11.106  11.034
32528W        W 4953  11.420  17.259  13.717
32529W        W 4954  27.063  18.514   3.857
32530W        W 4955   3.298  43.836  12.517
32531W        W 4956  42.997  26.256  13.905
32532W        W 4957  32.108  36.030  14.637
32533W        W 4958  27.977  33.246  11.697
32534W        W 4959  32.802  43.738  13.005
32535W        W 4960   8.247   4.514  13.018
32536W        W 4961  15.344  24.587  13.781
32537W        W 4962   1.351  20.915  11.815
32538W        W 4963  13.774  35.117   3.620
32539W        W 4964  23.138  39.520  12.966
32540W        W 4965  13.094   2.434  11.918
32541W        W 4966  24.678  33.865   4.607
32542W        W 4967  22.135  41.328  12.407
32543W        W 4968  31.734   0.728   1.309
32544W        W 4969  43.879  18.643   4.750
32545W        W 4970  39.549  20.191   3.607
32546W        W 4971   7.223  26.115   4.640
32547W        W 4972   1.794   0.029   1.422
32548W        W 4973   9.193  25.641  14.569
32549W        W 4974  38.116   1.561  13.710
32550W        W 4975   3.885  20.665   4.732
32551W        W 4976  14.414  41.420  11.467
32552W        W 4977   4.117   7.827   0.912
32553W        W 4978  15.126  39.062   0.376
32554W        W 4979  41.792  27.413  13.252
32555W        W 4980  23.724  15.201   0.654
32556W        W 4981  19.212  43.985   3.127
32557W        W 4982  33.272  14.367   3.655
32558W        W 4983  35.612  34.540  14.928
32559W        W 4984  34.129  17.128  14.496
32560W        W 4985  19.759  30.123  10.170
32561W        W 4986  34.319   5.151  13.652
32562W        W 4987   2.898   5.687  13.803
32563W        W 4988  27.397   4.175   3.237
32564W        W 4989  34.124  16.979  11.907
32565W        W 4990   5.779  34.347   4.232
32566W        W 4991   7.960  34.464   2.653
32567W        W 4992  21.541  38.391   0.423
32568W        W 4993  14.131   6.631   0.807
32569W        W 4994  39.893  27.438   4.591
32570W        W 4995  30.797   5.418   2.410
32571W        W 4996   8.010  25.747   1.910
32572W        W 4997  26.472  15.206  14.814
32573W        W 4998   1.726  22.948  14.883
32574W        W 4999  40.825  38.340  14.930
32575W        W 5000  22.114  42.211   4.633
32576W        W 5001   2.922  17.645   1.988
32577W        W 5002   6.719  20.302  14.787
32578W        W 5003  15.144  22.064  12.880
32579W        W 5004   2.994  14.617  12.947
32580W        W 5005  31.080   6.192   3.903
32581W        W 5006  37.972  16.441   3.798
32582W        W 5007  39.276  12.093   4.116
32583W        W 5008  26.723  29.031   3.664
32584W        W 5009  14.230  28.945  13.045
32585W        W 5010  31.357  36.982  12.350
32586W        W 5011  21.664  12.211   1.136
32587W        W 5012  31.613  44.550   1.634
32588W        W 5013  11.636  25.722   3.288
32589W        W 5014  29.142  41.666  14.169
32590W        W 5015   2.841  32.743   2.812
32591W        W 5016  39.534  30.038  11.208
32592W        W 5017  37.830   4.435   4.116
32593W        W 5018  13.648  29.554   4.391
32594W        W 5019  39.594   7.652   1.292
32595W        W 5020  23.156   4.217   2.357
32596W        W 5021  14.535  37.142  13.501
32597W        W 5022   2.023  13.710  10.489
32598W        W 5023  34.397  28.334  13.051
32599W        W 5024  44.774   8.930   3.654
32600W        W 5025  34.521  36.550   0.541
32601W        W 5026  25.124  27.414   4.052
32602W        W 5027  16.189  30.092  10.951
32603W        W 5028   5.420  16.987   2.601
32604W        W 5029  27.092   9.608   0.688
32605W        W 5030   1.700   0.220  11.051
32606W        W 5031  22.761  11.725  13.509
32607W        W 5032  21.458  36.940  12.384
32608W        W 5033  33.660  37.649   0.327
32609W        W 5034  31.014   0.129   3.206
32610W        W 5035  41.143   7.193   4.091
32611W        W 5036   6.962  20.626   1.880
32612W        W 5037  44.467  21.209   2.626
32613W        W 5038  20.799   0.207  11.948
32614W        W 5039  43.308  31.577  12.035
32615W        W 5040  18.164  29.569   1.743
32616W        W 5041  32.472  18.095   5.524
32617W        W 5042  44.965  37.561  11.187
32618W        W 5043  17.097  22.190   2.418
32619W        W 5044   5.620  22.404  13.511
32620W        W 5045  10.099  19.008  14.988
32621W        W 5046  30.874  20.083  12.303
32622W        W 5047  32.303   5.637  12.289
32623W        W 5048  35.321  44.726   0.409
32624W        W 5049  27.467  19.802  12.518
32625W        W 5050  25.598   8.915   4.676
32626W        W 5051  12.375  36.876   3.255
32627W        W 5052  19.779  13.121   2.013
32628W        W 5053  24.622  34.072   2.675
32629W        W 5054  16.727  30.156  11.011
32630W        W 5055  20.503  29.171  13.851
32631W        W 5056   5.163  38.043  13.018
32632W        W 5057   4.470  23.323   2.713
32633W        W 5058  39.597   9.481  14.679
32634W        W 5059   8.338  37.029   4.800
32635W        W 5060  31.949   6.285   2.917
32636W        W 5061   1.937  16.812   3.094
32637W        W 5062  18.113  30.476   1.954
32638W        W 5063   3.137   8.259   0.902
32639W        W 5064  41.498   9.584   4.234
32640W        W 5065  15.258   6.691   2.624
32641W        W 5066   4.316  22.153   1.402
32642W        W 5067  40.399  26.133  10.777
32643W        W 5068  16.870  43.855   3.820
32644W        W 5069  39.863  31.452   1.241
32645W        W 5070  26.131  22.685  13.152
32646W        W 5071  23.648  36.932   3.587
32647W        W 5072  35.414   4.467   3.193
32648W        W 5073  28.965  14.331  14.170
32649W        W 5074  35.097  20.076   0.290
32650W        W 5075   7.250  13.937  13.559
32651W        W 5076   9.810  12.677   4.711
32652W        W 5077  43.315  38.873   3.297
32653W        W 5078  39.995   7.599  13.341
32654W        W 5079   7.177  17.581  13.523
32655W        W 5080  30.052  30.267   3.871
32656W        W 5081  35.440  26.411   3.243
32657W        W 5082  32.846  25.545   4.998
32658W        W 5083   0.368  21.730  13.567
32659W        W 5084  42.480  38.514   2.745
32660W        W 5085  22.527  13.652  14.359
32661W        W 5086  31.081  32.691  11.706
32662W        W 5087  30.831  25.731  14.502
32663W        W 5088  29.952   0.969   4.056
32664W        W 5089  23.108  24.658  11.604
32665W        W 5090   9.347  20.539   4.171
32666W        W 5091  36.841  33.427   2.006
32667W        W 5092  42.937  13.790   4.034
32668W        W 5093   5.329  32.138   3.826
32669W        W 5094  40.877  35.615   2.388
32670W        W 5095  15.188   2.847   1.427
32671W        W 5096  32.534  42.401  14.296
32672W        W 5097  15.002  13.755  12.058
32673W        W 5098  36.127   8.280  14.466
32674W        W 5099  10.923   7.683   4.228
32675W        W 5100  19.257  23.817   4.165
32676W        W 5101   8.637   0.752  13.544
32677W        W 5102   6.617  28.919   4.024
32678W        W 5103   1.226  17.758   2.831
32679W        W 5104   8.993  16.782  12.879
32680W        W 5105  11.839   1.012   1.442
32681W        W 5106  17.263   7.953  11.159
32682W        W 5107  33.172   8.704   0.760
32683W        W 5108  32.622   2.515   3.717
32684W        W 5109  41.327  42.258  11.070
32685W        W 5110   9.338  31.751  10.785
32686W        W 5111  20.750  27.875   2.826
32687W        W 5112  44.033   8.320  13.209
32688W        W 5113  38.764  25.232  13.438
32689W        W 5114  31.343   9.334  12.709
32690W        W 5115  15.588   2.320  13.986
32691W        W 5116  26.246  31.706   4.674
32692W        W 5117  41.028  41.834  12.950
32693W        W 5118  10.949  22.512  13.467
32694W        W 5119  21.668   8.822   1.298
32695W        W 5120  32.249  42.042   0.837
32696W        W 5121   4.414   3.343  12.961
32697W        W 5122  18.673  30.953  11.516
32698W        W 5123   9.139   3.694   3.286
32699W        W 5124  30.817  34.917   5.049
32700W        W 5125   7.722  12.905   0.328
32701W        W 5126  23.619   0.951  13.045
32702W        W 5127  41.962   6.409   3.400
32703W        W 5128  34.487   1.728   2.561
32704W        W 5129   0.271  23.387  13.923
32705W        W 5130   5.909  12.789  14.985
32706W        W 5131  25.234  23.059   3.567
32707W        W 5132  12.051  33.999   4.402
32708W        W 5133  35.092  35.827   1.156
32709W        W 5134  12.763  27.671   4.657
32710W        W 5135  18.214  30.651   2.963
32711W        W 5136  40.457  27.183  14.870
32712W        W 5137   4.738  32.522   4.782
32713W        W 5138  31.128   8.709   0.007
32714W        W 5139  18.230  39.344  14.412
32715W        W 5140  33.411   5.399   3.087
32716W        W 5141  18.365  33.160  12.565
32717W        W 5142  28.322  44.410   2.176
32718W        W 5143   0.099  36.973  13.849
32719W        W 5144  16.221  11.799   3.044
32720W        W 5145  22.272  41.425   3.636
32721W        W 5146  16.200   2.372   4.381
32722W        W 5147  28.946  43.222   0.721
32723W        W 5148   5.328  12.637   1.845
32724W        W 5149  41.463  19.742   1.011
32725W        W 5150  29.223  36.535   1.400
32726W        W 5151   4.060   1.826  12.961
32727W        W 5152  18.163  16.723  12.878
32728W        W 5153  20.488  25.415   4.341
32729W        W 5154  39.408  33.301   1.283
32730W        W 5155  29.631  28.227  13.766
32731W        W 5156  41.805  14.727  10.682
32732W        W 5157   3.952   6.847   4.852
32733W        W 5158   7.668  37.129   4.565
32734W        W 5159  35.566  19.376  12.898
32735W        W 5160  21.136  29.497  13.112
32736W        W 5161   8.894   6.757  11.598
32737W        W 5162  18.997  14.719  14.512
32738W        W 5163  27.677  17.180  13.844
32739W        W 5164   3.113  11.874   4.043
32740W        W 5165  12.653  27.635   2.679
32741W        W 5166   2.656   8.245  12.527
32742W        W 5167  11.816  43.680  10.033
32743W        W 5168  21.142  17.225  10.641
32744W        W 5169   1.737   7.665  12.548
32745W        W 5170  38.592  28.543  11.189
32746W        W 5171  33.064  30.617   3.453
32747W        W 5172   4.552  18.395  12.343
32748W        W 5173  20.463   2.300   0.832
32749W        W 5174  19.289  42.879  12.525
32750W        W 5175   4.400  14.074   3.343
32751W        W 5176  10.301  28.651   4.098
32752W        W 5177  27.929  42.354   0.364
32753W        W 5178  23.627  29.636   1.485
32754W        W 5179  14.235  42.461   4.414
32755W        W 5180  35.171  14.686  10.818
32756W        W 5181  15.036  42.198   2.670
32757W        W 5182  41.335  41.892   3.169
32758W        W 5183  42.312  44.420  13.433
32759W        W 5184  17.806  37.424   2.127
32760W        W 5185  24.149  12.138  13.384
32761W        W 5186  16.141  24.348  13.349
32762W        W 5187  39.303   5.412   0.454
32763W        W 5188  30.279  18.241   5.018
32764W        W 5189  29.008  25.380   3.192
32765W        W 5190   4.520  16.874  11.488
32766W        W 5191  26.132  27.635   3.350
32767W        W 5192  35.492  13.934   2.709
32768W        W 5193   9.355   3.286   0.622
32769W        W 5194  29.599  29.794   4.921
32770W        W 5195   2.436  19.257   3.301
32771W        W 5196  42.971  10.599  14.985
32772W        W 5197  20.711  11.107  11.980
32773W        W 5198  17.714  29.940  11.198
32774W        W 5199  40.955  21.264   0.353
32775W        W 5200  42.390   4.530  12.865
32776W        W 5201  20.623  30.065   2.894
32777W        W 5202  41.931  22.946   1.385
32778W        W 5203  25.574  22.202   1.863
32779W        W 5204  42.064  37.431  11.590
32780W        W 5205  10.428   0.078  14.197
32781W        W 5206  23.737  36.572  14.029
32782W        W 5207  42.842  25.568  14.426
32783W        W 5208  32.389  15.641   2.460
32784W        W 5209  43.283  26.515   1.415
32785W        W 5210  44.963  10.685  13.883
32786W        W 5211  26.757  30.918   1.184
32787W        W 5212  37.357  40.231  12.107
32788W        W 5213  29.680  40.582   0.245
32789W        W 5214  37.681  15.194  13.542
32790W        W 5215  23.414  20.697  11.835
32791W        W 5216  37.791  36.767   2.312
32792W        W 5217  41.508  13.791   4.676
32793W        W 5218  33.503   5.228  12.504
32794W        W 5219  28.412  39.069   0.022
32795W        W 5220  28.791  23.614  10.867
32796W        W 5221   5.832  22.141  13.932
32797W        W 5222  12.786  41.303  13.461
32798W        W 5223  27.295  26.031   1.753
32799W        W 5224   8.147  44.344   3.285
32800W        W 5225  10.880   6.766   2.178
32801W        W 5226  37.333  14.225  13.548
32802W        W 5227   1.524  16.074   0.912
32803W        W 5228  26.008   3.821   2.297
32804W        W 5229  20.097  12.247  13.729
32805W        W 5230  13.176   5.806  11.763
32806W        W 5231   4.219  14.127  13.815
32807W        W 5232  15.984   5.191  13.901
32808W        W 5233   6.538  32.081   3.744
32809W        W 5234  43.377  11.942  13.448
32810W        W 5235  11.888  15.094  12.441
32811W        W 5236   5.128  21.120   1.527
32812W        W 5237  27.386   8.449  11.186
32813W        W 5238  40.740  44.941  13.774
32814W        W 5239  40.857   8.430  14.919
32815W        W 5240  11.278  36.159  14.601
32816W        W 5241  38.900  19.060   2.427
32817W        W 5242  36.990  16.705   3.281
32818W        W 5243   3.759  13.604   0.739
32819W        W 5244  28.032   2.275   3.643
32820W        W 5245  36.104   0.723   0.153
32821W        W 5246   9.027  41.728   4.186
32822W        W 5247  33.994  17.595   3.745
32823W        W 5248  17.019  41.867  11.244
32824W        W 5249  12.254  20.631   1.254
32825W        W 5250  39.972   0.469   2.341
32826W        W 5251  19.318  27.608   3.719
32827W        W 5252   9.821  35.028  14.467
32828W        W 5253  30.464  26.667  10.753
32829W        W 5254  33.855   3.660   4.198
32830W        W 5255   4.952   2.937  14.562
32831W        W 5256  14.325  23.107  11.980
32832W        W 5257  38.896  33.290   2.110
32833W        W 5258   7.425   3.307  13.116
32834W        W 5259   4.270  20.795   4.106
32835W        W 5260  32.927  12.176  12.624
32836W        W 5261  28.450  28.792  14.512
32837W        W 5262  20.619  43.985   3.197
32838W        W 5263  42.974  32.509   1.699
32839W        W 5264   3.007  20.120  11.674
32840W        W 5265   3.227  35.102  13.233
32841W        W 5266  42.613   4.061   1.475
32842W        W 5267  41.133  24.148  12.403
32843W        W 5268  27.523  37.147  10.443
32844W        W 5269  37.084  27.937  12.497
32845W        W 5270  19.489  30.237  13.039
32846W        W 5271  41.896  27.564  11.780
32847W        W 5272   9.407  25.685   0.839
32848W        W 5273  12.353   3.830  14.307
32849W        W 5274  36.931   1.942  14.539
32850W        W 5275  23.009   1.385   0.292
32851W        W 5276  31.951  25.961  11.723
32852W        W 5277  36.515  17.140  11.587
32853W        W 5278  35.187  44.212   1.032
32854W        W 5279  21.669  11.819  12.493
32855W        W 5280  11.892  42.016  13.373
32856W        W 5281  27.066   3.410   3.615
32857W        W 5282  12.586  13.855   2.431
32858W        W 5283  36.605   2.918  11.148
32859W        W 5284  36.180  35.392  14.894
32860W        W 5285  14.389  38.157  11.701
32861W        W 5286  11.618  21.182  11.239
32862W        W 5287   7.320  19.254   0.440
32863W        W 5288  40.804  18.224  10.705
32864W        W 5289  35.933  11.453  14.710
32865W        W 5290   1.222  33.948   2.268
32866W        W 5291  29.836   4.172   1.692
32867W        W 5292   2.474  41.321  11.174
32868W        W 5293  40.271  11.229  11.436
32869W        W 5294  17.777  20.051   1.739
32870W        W 5295  37.489  10.174  13.294
32871W        W 5296  26.027  23.185  11.975
32872W        W 5297  13.019   0.198  12.430
32873W        W 5298  41.074  33.952  12.890
32874W        W 5299  34.488  16.677   0.064
32875W        W 5300  32.392   6.775  13.510
32876W        W 5301  19.309   8.262  12.438
32877W        W 5302  22.644  25.000  12.083
32878W        W 5303  26.116  44.045  12.345
32879W        W 5304  19.795  31.102  12.648
32880W        W 5305  12.904  44.725   0.226
32881W        W 5306   8.137  29.545  12.358
32882W        W 5307  20.070   7.199   1.012
32883W        W 5308  34.416  16.207   2.201
32884W        W 5309  10.050  42.017  13.896
32885W        W 5310   3.197   8.785   0.846
32886W        W 5311  23.107  23.700  14.080
32887W        W 5312  41.823  39.636  13.125
32888W        W 5313  15.814  42.365   2.369
32889W        W 5314  14.777  34.556  11.512
32890W        W 5315   9.692  21.820   1.267
32891W        W 5316  13.842  10.160   1.349
32892W        W 5317  38.400  27.461   1.220
32893W        W 5318  44.925  35.997   3.169
32894W        W 5319   5.785   6.198   0.804
32895W        W 5320  31.593   7.222   1.826
32896W        W 5321  22.979  12.846  10.403
32897W        W 5322  30.365  38.976  12.008
32898W        W 5323   9.308   1.908  10.536
32899W        W 5324  25.031  12.339   3.213
32900W        W 5325  33.807  15.178   2.426
32901W        W 5326  41.012  34.374  13.235
32902W        W 5327  35.004  12.118   2.740
32903W        W 5328  11.866   7.704  14.556
32904W        W 5329  22.627  35.515   0.357
32905W        W 5330   2.430  16.176  11.082
32906W        W 5331  27.238  12.734  12.929
32907W        W 5332  29.843  37.085  12.329
32908W        W 5333  39.110  43.532  10.551
32909W        W 5334   7.280  24.482  12.539
32910W        W 5335  30.994  10.143   2.468
32911W        W 5336   8.478  27.520  12.109
32912W        W 5337  27.533  35.452   1.893
32913W        W 5338  20.402  12.772  13.627
32914W        W 5339   4.193  20.647  13.946
32915W        W 5340  36.991   4.874   4.483
32916W        W 5341  10.660  39.996   1.833
32917W        W 5342  33.756   3.252  11.148
32918W        W 5343  29.455  21.129  13.614
32919W        W 5344  43.322  22.827  14.312
32920W        W 5345  40.379  17.861  13.164
32921W        W 5346  19.153  36.825   0.461
32922W        W 5347   2.739  20.140   1.699
32923W        W 5348  37.596  35.533  11.121
32924W        W 5349  36.606  20.160   0.307
32925W        W 5350   3.733  31.582   0.721
32926W        W 5351  15.143  15.710  11.631
32927W        W 5352  44.409  44.368  14.878
32928W        W 5353  17.021  21.990  11.029
32929W        W 5354  27.384  35.534  12.942
32930W        W 5355  17.055  38.575   1.035
32931W        W 5356   7.290  12.751   2.278
32932W        W 5357  13.949  33.743  10.526
32933W        W 5358  18.127  37.086  13.085
32934W        W 5359  36.513  33.308   0.306
32935W        W 5360  30.718  11.617  14.754
32936W        W 5361   2.758   6.938  11.126
32937W        W 5362   1.783   3.388  11.717
32938W        W 5363   9.364  24.126   0.510
32939W        W 5364  27.686  15.529   3.712
32940W        W 5365  29.681   4.767  13.470
32941W        W 5366  25.559  44.284   3.287
32942W        W 5367  36.972  22.138  12.586
32943W        W 5368  23.026  25.429  12.933
32944W        W 5369  30.147  10.734   3.777
32945W        W 5370  28.545  41.489  13.749
32946W        W 5371  21.999  21.208   0.871
32947W        W 5372  15.862   5.386  11.234
32948W        W 5373  16.869  28.625  13.310
32949W        W 5374  43.668   3.310  14.369
32950W        W 5375  26.718  37.054  11.518
32951W        W 5376  23.191  31.869   4.601
32952W        W 5377  28.372  19.594  10.697
32953W        W 5378  38.263   1.745  11.084
32954W        W 5379  21.250   0.341   1.765
32955W        W 5380  44.967   6.747  12.420
32956W        W 5381   6.086  35.545  11.212
32957W        W 5382  35.024  10.846  13.586
32958W        W 5383  25.863  22.067   1.419
32959W        W 5384  14.135  38.862   3.862
32960W        W 5385  35.983   5.556  11.502
32961W        W 5386   2.382  41.199   2.725
32962W        W 5387  27.947  36.817   3.269
32963W        W 5388   6.216  35.667  13.462
32964W        W 5389  41.037  15.629  13.676
32965W        W 5390  41.936   3.745   3.759
32966W        W 5391  20.938  44.782   3.190
32967W        W 5392  38.752  32.187   4.604
32968W        W 5393   5.881  13.651  13.847
32969W        W 5394  39.321  22.318   1.884
32970W        W 5395   0.860  41.126   3.674
32971W        W 5396  18.033  12.135  12.805
32972W        W 5397  11.710  41.203   9.871
32973W        W 5398  40.350   6.267   2.330
32974W        W 5399  11.592  18.615   2.781
32975W        W 5400  35.143   6.407  13.875
32976W        W 5401  34.079  24.626  14.940
32977W        W 5402   5.165  17.282  12.877
32978W        W 5403  29.569  32.076  11.515
32979W        W 5404  15.186   5.134  14.291
32980W        W 5405  16.738   9.461   3.207
32981W        W 5406  16.867  24.801  11.096
32982W        W 5407   1.991  42.370  14.579
32983W        W 5408  28.155  11.057   4.766
32984W        W 5409  10.311   4.308  11.109
32985W        W 5410  37.366  23.621  12.865
32986W        W 5411  17.194  16.369  11.110
32987W        W 5412  38.922  17.061   1.132
32988W        W 5413   5.869   2.498  12.616
32989W        W 5414  36.145   4.628  14.834
32990W        W 5415  35.258   4.829   2.292
32991W        W 5416   7.217  42.792   2.220
32992W        W 5417  36.025  22.702   1.908
32993W        W 5418  43.316  38.336   0.427
32994W        W 5419   3.323  13.353  12.978
32995W        W 5420  19.706  37.468   1.054
32996W        W 5421  30.920  24.670  13.702
32997W        W 5422   6.182  17.108  11.157
32998W        W 5423   0.413  30.228   1.847
32999W        W 5424  38.773  16.130   4.137
33000W        W 5425  30.104  30.502  14.530
33001W        W 5426  24.073  31.894   9.951
33002W        W 5427  13.231  34.546   3.920
33003W        W 5428  14.641  25.120  10.886
33004W        W 5429  12.544  32.711  11.603
33005W        W 5430  22.208  17.823  11.202
33006W        W 5431  15.547  35.140   2.593
33007W        W 5432   8.073   1.017   3.629
33008W        W 5433  24.074   7.618   1.811
33009W        W 5434  29.575  36.050   5.142
33010W        W 5435  24.764  15.770  10.563
33011W        W 5436  26.902  30.730  14.999
33012W        W 5437  12.371  14.327  14.015
33013W        W 5438  41.307  43.553   1.501
33014W        W 5439  14.898  44.012  12.401
33015W        W 5440   3.888   6.611  10.662
33016W        W 5441  39.405  22.596   4.893
33017W        W 5442  13.015  20.551  13.340
33018W        W 5443   4.494  32.423   4.280
33019W        W 5444  26.376   8.146  11.200
33020W        W 5445  27.733  20.788  12.519
33021W        W 5446   6.830   4.452   3.660
33022W        W 5447  26.591  41.461  13.611
33023W        W 5448  26.552   0.935  12.042
33024W        W 5449  17.353  15.849   4.050
33025W        W 5450  14.314  40.260   3.056
33026W        W 5451  13.673  19.633   3.185
33027W        W 5452  12.173  11.961   1.245
33028W        W 5453  14.659  24.969   4.423
33029W        W 5454  10.493  15.163   0.462
33030W        W 5455  36.877  24.604   3.192
33031W        W 5456   7.579  26.807  11.552
33032W        W 5457  13.235  20.277   0.142
33033W        W 5458  30.139  32.673   0.271
33034W        W 5459  21.033  43.274  12.844
33035W        W 5460  20.799  34.637  10.530
33036W        W 5461  37.865  20.069   4.560
33037W        W 5462  30.099  31.268   3.769
33038W        W 5463  22.162  27.489   4.288
33039W        W 5464  23.236  32.917   2.257
33040W        W 5465  29.049  14.108   4.162
33041W        W 5466  11.814  15.194  14.799
33042W        W 5467   2.150  34.102   2.538
33043W        W 5468  32.638  39.119  12.536
33044W        W 5469  12.055  26.552   0.437
33045W        W 5470   1.280  15.920   3.691
33046W        W 5471  20.255   0.438   0.865
33047W        W 5472  13.728  36.542   3.682
33048W        W 5473   5.476  43.807   0.807
33049W        W 5474  38.012  41.182  10.223
33050W        W 5475   8.173  29.472  14.377
33051W        W 5476  37.400  18.626   1.803
33052W        W 5477   2.825  31.674   4.636
33053W        W 5478   6.287  37.998  12.405
33054W        W 5479   1.821   2.435  12.823
33055W        W 5480  13.696  16.092  11.547
33056W        W 5481   9.016  26.269  12.585
33057W        W 5482  39.049  31.566  13.124
33058W        W 5483  34.618  11.176  13.723
33059W        W 5484   1.768   9.161  11.586
33060W        W 5485  16.400  17.707   1.814
33061W        W 5486  21.235   7.269  10.670
33062W        W 5487  10.881  38.778  11.003
33063W        W 5488  19.016  22.459   4.630
33064W        W 5489  10.725  34.200   0.922
33065W        W 5490  40.816  39.213  13.511
33066W        W 5491   5.826  13.907   3.290
33067W        W 5492  19.202  38.916   2.392
33068W        W 5493  16.226  32.568   1.784
33069W        W 5494   0.733  20.102   1.803
33070W        W 5495  14.498  23.019   2.891
33071W        W 5496  24.895  40.366  12.516
33072W        W 5497  28.078   7.877   4.623
33073W        W 5498   6.764  37.799  12.315
33074W        W 5499   8.386  31.661  10.750
33075W        W 5500  27.315   2.535   3.772
33076W        W 5501  28.302  24.120  14.435
33077W        W 5502  14.749  40.400   1.320
33078W        W 5503  37.774  31.379   3.802
33079W        W 5504  13.988  35.860   4.945
33080W        W 5505  39.258  17.816  12.009
33081W        W 5506  15.101  18.227   1.396
33082W        W 5507  11.681  10.739  14.075
33083W        W 5508  31.582  41.587  14.282
33084W        W 5509  31.500   1.664   4.653
33085W        W 5510   9.953  18.198   0.225
33086W        W 5511   9.198  39.351   3.226
33087W        W 5512  35.424  33.538   4.239
33088W        W 5513  27.616   1.569   0.210
33089W        W 5514  39.463   6.746  14.604
33090W        W 5515  11.090   6.780   3.703
33091W        W 5516  23.367  30.903   4.025
33092W        W 5517  10.755  15.081   1.760
33093W        W 5518  33.802   3.224   3.655
33094W        W 5519  32.382  42.006   1.672
33095W        W 5520  16.124   5.536  14.447
33096W        W 5521  27.586  27.996  12.504
33097W        W 5522  26.734  37.941   3.182
33098W        W 5523   4.983  33.583   1.772
33099W        W 5524  18.558  12.456  13.468
33100W        W 5525   0.700  44.649  12.610
33101W        W 5526   7.581  42.924  14.181
33102W        W 5527   2.268  28.745   3.389
33103W        W 5528   9.867   9.424   1.773
33104W        W 5529   9.824  18.723  14.549
33105W        W 5530   6.780  20.308  12.025
33106W        W 5531   3.087   7.185   0.211
33107W        W 5532  29.140  15.197  13.736
33108W        W 5533   3.103  15.218   3.784
33109W        W 5534   6.768  41.181  12.406
33110W        W 5535  22.098   7.735   4.500
33111W        W 5536  23.794  12.264  11.200
33112W        W 5537  33.718  39.574   2.773
33113W        W 5538  34.328  33.909   4.845
33114W        W 5539  13.426  19.532   0.637
33115W        W 5540  12.790  26.543   4.100
33116W        W 5541  27.358  32.377   1.405
33117W        W 5542  15.206  10.107   4.128
33118W        W 5543  36.077  34.859  14.464
33119W        W 5544  23.518  41.945   2.713
33120W        W 5545  22.005  17.140  13.271
33121W        W 5546  43.769  25.314   2.843
33122W        W 5547   7.094  16.884  12.125
33123W        W 5548  20.257   6.676  14.337
33124W        W 5549   2.391  26.757   1.941
33125W        W 5550   8.114  22.005   3.939
33126W        W 5551   3.472  34.870  12.839
33127W        W 5552  23.930  15.031  11.597
33128W        W 5553  35.227  38.419   1.775
33129W        W 5554   7.401  42.781  12.004
33130W        W 5555   9.443   8.152  14.354
33131W        W 5556  18.565  27.682   2.321
33132W        W 5557  33.980  36.933  14.886
33133W        W 5558  12.350  30.579  14.837
33134W        W 5559  22.680  29.164  12.078
33135W        W 5560  10.706  18.065  10.549
33136W        W 5561  12.215  12.457   1.114
33137W        W 5562  20.349  40.334  14.995
33138W        W 5563  30.081  30.592   1.350
33139W        W 5564  31.085  39.356   0.523
33140W        W 5565  20.117   9.969   2.419
33141W        W 5566  17.964   0.574   0.439
33142W        W 5567  40.433  44.969   1.659
33143W        W 5568  31.173  32.272   5.083
33144W        W 5569   9.556   2.128   0.225
33145W        W 5570   8.396  10.045   3.224
33146W        W 5571  16.827  35.778  13.820
33147W        W 5572  20.561   3.212   4.129
33148W        W 5573  43.278  43.412  12.965
33149W        W 5574   0.901  21.242  12.428
33150W        W 5575  17.409   6.774   2.551
33151W        W 5576  12.303  37.714  11.114
33152W        W 5577  39.417  18.338  11.155
33153W        W 5578   3.529  12.255  11.548
33154W        W 5579  35.463  36.556   0.422
33155W        W 5580  41.005  26.431   3.760
33156W        W 5581   4.221  39.028  14.410
33157W        W 5582   3.781   1.654   3.183
33158W        W 5583  39.392   2.684   2.403
33159W        W 5584  13.674  39.414  10.529
33160W        W 5585  12.806  20.597  14.323
33161W        W 5586   5.186  35.119   1.017
33162W        W 5587  24.963  11.543   1.154
33163W        W 5588  44.709  26.958   1.291
33164W        W 5589  42.202   0.790   3.205
33165W        W 5590  41.526  19.747  13.470
33166W        W 5591  18.645  17.726   3.884
33167W        W 5592  25.587  37.521  14.630
33168W        W 5593  36.937  24.474   1.361
33169W        W 5594  39.992  14.077  13.338
33170W        W 5595  32.372  19.042   1.638
33171W        W 5596  31.654   6.101  10.687
33172W        W 5597  15.767   8.192   3.971
33173W        W 5598  17.654  41.864   1.466
33174W        W 5599   3.416  29.640   1.401
33175W        W 5600  30.558  28.571  12.929
33176W        W 5601  11.778   5.817   2.895
33177W        W 5602  38.341  40.354   2.360
33178W        W 5603  20.955  35.896   3.638
33179W        W 5604  30.398  38.600  11.067
33180W        W 5605   5.463  20.588   2.580
33181W        W 5606  38.018  44.290  13.044
33182W        W 5607   2.451   7.123  11.573
33183W        W 5608  17.300  40.320  13.371
33184W        W 5609  37.443   7.289  13.829
33185W        W 5610   9.587  30.966  13.535
33186W        W 5611  17.719  18.619  12.993
33187W        W 5612  32.142  14.434  11.280
33188W        W 5613   6.110  12.037   0.829
33189W        W 5614  44.150   1.866  14.374
33190W        W 5615  22.274  37.440   1.611
33191W        W 5616   9.355  39.494   2.742
33192W        W 5617  38.349  43.879  14.285
33193W        W 5618  29.887   8.251   3.618
33194W        W 5619  33.447   8.188  10.603
33195W        W 5620  24.574  11.867   1.277
33196W        W 5621   6.104   4.678  12.369
33197W        W 5622  16.528   3.996   0.939
33198W        W 5623  41.305  40.460  11.646
33199W        W 5624  42.240  30.042   0.039
33200W        W 5625  38.130  26.449  10.809
33201W        W 5626   6.749   3.215   2.792
33202W        W 5627   0.994  27.024   0.262
33203W        W 5628  34.948  35.417  10.640
33204W        W 5629  34.599  13.849   1.772
33205W        W 5630   9.571  27.119  13.967
33206W        W 5631  11.387  24.132   1.730
33207W        W 5632  11.422  44.571   2.677
33208W        W 5633  20.209  27.083   2.214
33209W        W 5634  40.217  18.358   2.359
33210W        W 5635  15.282  28.131  10.627
33211W        W 5636  17.132  30.911  10.131
33212W        W 5637  26.499  38.879   1.883
33213W        W 5638  41.076   0.469  10.670
33214W        W 5639  32.025  42.037   4.692
33215W        W 5640  11.452   5.392  11.891
33216W        W 5641  23.134   3.377   1.029
33217W        W 5642  41.980  21.044   1.928
33218W        W 5643  24.174  22.039  14.539
33219W        W 5644  21.515  32.007   4.273
33220W        W 5645   6.826  21.640   4.150
33221W        W 5646  42.909  41.625   2.907
33222W        W 5647   5.038  20.242   4.107
33223W        W 5648   8.525  24.201  12.108
33224W        W 5649  36.640   2.284  13.129
33225W        W 5650   5.707   7.369   3.914
33226W        W 5651   0.190  15.131  14.262
33227W        W 5652   1.216  34.060   0.909
33228W        W 5653  24.268  40.406  13.081
33229W        W 5654  43.745  15.203   1.594
33230W        W 5655  18.991  22.508   2.429
33231W        W 5656  35.407  14.177  10.864
33232W        W 5657  27.580  43.914  13.921
33233W        W 5658  24.104  44.521   1.538
33234W        W 5659  37.366  34.090   1.986
33235W        W 5660  21.812   4.125   1.379
33236W        W 5661  43.362  14.153  11.154
33237W        W 5662  44.365  29.230   2.215
33238W        W 5663  19.842   5.332  11.967
33239W        W 5664  37.504  23.714   2.889
33240W        W 5665  26.788   6.759   0.359
33241W        W 5666   5.529  35.016  13.638
33242W        W 5667   1.803  30.920   1.796
33243W        W 5668   9.797  30.073  12.002
33244W        W 5669  27.793  42.719  11.489
33245W        W 5670  36.345   6.304   2.693
33246W        W 5671   9.223   4.816   1.344
33247W        W 5672  18.955  31.284   4.190
33248W        W 5673  22.179  43.230   3.749
33249W        W 5674  44.379  31.380   0.302
33250W        W 5675  39.905   8.245   2.506
33251W        W 5676  21.272  36.065   3.268
33252W        W 5677  15.150  21.756   4.683
33253W        W 5678   7.664  23.070  14.021
33254W        W 5679   3.067  32.014   0.463
33255W        W 5680  26.189   9.114  12.828
33256W        W 5681  41.190  42.962   0.781
33257W        W 5682  17.303  22.884   3.924
33258W        W 5683   3.246  26.443   1.857
33259W        W 5684  12.098  28.622   0.732
33260W        W 5685   3.793  12.622  13.749
33261W        W 5686  36.089  14.566   2.366
33262W        W 5687  22.278  14.484  12.939
33263W        W 5688  44.835  21.172   4.376
33264W        W 5689  12.831  30.051  14.356
33265W        W 5690  31.904  29.011   4.306
33266W        W 5691  29.433  13.896  10.393
33267W        W 5692  17.022   3.494  10.061
33268W        W 5693   2.484  19.507  11.157
33269W        W 5694  32.569  34.522   1.434
33270W        W 5695  35.980  17.140   0.150
33271W        W 5696  14.858   6.673   1.199
33272W        W 5697   5.304   1.862   1.824
33273W        W 5698  31.518  39.994   4.019
33274W        W 5699  10.130  36.021  11.478
33275W        W 5700  13.678  13.547   1.575
33276W        W 5701   6.212  41.534  11.372
33277W        W 5702  40.108  28.085   3.377
33278W        W 5703  18.333  44.743   0.747
33279W        W 5704  40.971  36.377  12.526
33280W        W 5705  11.235  35.687  10.980
33281W        W 5706  42.525  21.158  11.416
33282W        W 5707  39.094  27.980  11.471
33283W        W 5708  22.247  21.257  14.883
33284W        W 5709   1.500  35.134   2.889
33285W        W 5710  10.357  33.828   2.130
33286W        W 5711  22.760   6.462   4.770
33287W        W 5712  18.172   6.392   3.442
33288W        W 5713  43.941  23.843  10.613
33289W        W 5714   5.468   8.377  12.085
33290W        W 5715  18.278   0.728   3.805
33291W        W 5716  40.013  38.103   3.902
33292W        W 5717  24.527  36.057   2.687
33293W        W 5718   5.414   3.951  13.427
33294W        W 5719  29.850  29.042  14.489
33295W        W 5720   1.308   3.360   0.665
33296W        W 5721   2.277   0.114   2.283
33297W        W 5722  15.581   0.291   2.376
33298W        W 5723  37.620  26.145  14.444
33299W        W 5724  36.196  31.091   4.114
33300W        W 5725  26.010  36.413   1.742
33301W        W 5726  10.694  28.210   1.856
33302W        W 5727   7.684  40.881   4.483
33303W        W 5728   0.373  16.690  13.436
33304W        W 5729  11.045  21.270   1.251
33305W        W 5730  41.016  44.471  14.033
33306W        W 5731  44.480  25.719   3.252
33307W        W 5732  11.491  23.011   0.484
33308W        W 5733   7.389  41.705  13.887
33309W        W 5734  20.350  19.117   4.123
33310W        W 5735  40.121   4.452  14.346
33311W        W 5736  20.992  27.412   3.324
33312W        W 5737  31.638  26.460  14.825
33313W        W 5738  29.677  42.025   3.680
33314W        W 5739  38.492  23.981   1.739
33315W        W 5740  42.215  17.264   1.353
33316W        W 5741  37.428  28.421   2.271
33317W        W 5742  41.080  33.276   3.366
33318W        W 5743  19.349  44.889  11.566
33319W        W 5744  31.882  29.596   3.785
33320W        W 5745   1.373  22.065  13.173
33321W        W 5746   3.422  29.110   1.463
33322W        W 5747  41.306  34.641  14.170
33323W        W 5748   5.505   7.650  13.463
33324W        W 5749  41.400  22.227  13.586
33325W        W 5750  33.049  16.572  10.618
33326W        W 5751  25.645  10.220  11.071
33327W        W 5752  25.143  16.755  14.886
33328W        W 5753  11.436  10.079   1.446
33329W        W 5754  19.925  19.638  10.774
33330W        W 5755   9.100  25.389   1.345
33331W        W 5756  34.554  15.102  10.668
33332W        W 5757  43.602  12.238  14.771
33333W        W 5758   3.217  17.864   3.724
33334W        W 5759  35.830  29.186  14.376
33335W        W 5760  11.577  33.465  13.217
33336W        W 5761  11.811  11.034   2.255
33337W        W 5762  18.108  34.215   4.198
33338W        W 5763  27.870  42.799  12.459
33339W        W 5764   3.315   1.140  10.478
33340W        W 5765  11.351  27.499   3.423
33341W        W 5766  29.093  34.035  13.128
33342W        W 5767  41.855  21.626   4.865
33343W        W 5768   1.396  18.908  14.549
33344W        W 5769  40.309  35.046  12.937
33345W        W 5770   7.619  31.886  13.958
33346W        W 5771  42.097   5.458  14.880
33347W        W 5772  16.759   2.853   5.118
33348W        W 5773  36.472  23.980   1.935
33349W        W 5774  25.806  24.260  11.423
33350W        W 5775  42.038   4.377   4.611
33351W        W 5776   4.355  44.015   2.365
33352W        W 5777  44.273  38.892   1.352
33353W        W 5778  44.195  34.587   0.345
33354W        W 5779  18.155  14.014  13.876
33355W        W 5780  41.442   9.909   4.624
33356W        W 5781  34.862  28.549  12.353
33357W        W 5782   8.402  36.871  14.012
33358W        W 5783  16.953  25.185   2.709
33359W        W 5784  26.066   2.318  14.648
33360W        W 5785  39.076  24.007   0.859
33361W        W 5786  17.125   4.720  13.775
33362W        W 5787   8.283  18.160  11.477
33363W        W 5788  15.294   9.848  11.969
33364W        W 5789  17.047  14.278   4.127
33365W        W 5790   7.488  43.719   2.292
33366W        W 5791  40.015  28.268  11.156
33367W        W 5792  38.927  37.173  12.009
33368W        W 5793  16.320  12.163   0.342
33369W        W 5794  28.045  30.743   0.903
33370W        W 5795  34.412  35.547  10.312
33371W        W 5796  37.450  34.986  11.188
33372W        W 5797  15.857  14.312  14.068
33373W        W 5798   0.472  21.037   0.746
33374W        W 5799  43.268  12.319   2.860
33375W        W 5800  15.273  26.328   1.475
33376W        W 5801  26.666  28.396  14.669
33377W        W 5802   3.147  21.239   4.164
33378W        W 5803   2.660  44.459  13.468
33379W        W 5804  14.630   7.314   3.660
33380W        W 5805  16.073  40.402   2.741
33381W        W 5806  19.410  35.820  13.433
33382W        W 5807  27.813  34.484   3.349
33383W        W 5808  21.300  41.043   2.256
33384W        W 5809  33.096  39.979   4.760
33385W        W 5810   3.973  21.690   4.125
33386W        W 5811  31.626  16.222   2.786
33387W        W 5812  22.659  16.166  13.772
33388W        W 5813   6.668  14.159   4.530
33389W        W 5814  30.739  24.591  11.106
33390W        W 5815  28.225  20.627  12.526
33391W        W 5816  41.351   0.502  12.987
33392W        W 5817   1.505  42.866   1.303
33393W        W 5818  12.699   5.375   0.004
33394W        W 5819   1.669  39.629  11.112
33395W        W 5820  40.739  19.277   3.843
33396W        W 5821  33.641   4.154  13.441
33397W        W 5822   4.643  28.497  10.521
33398W        W 5823  29.699   2.284  11.134
33399W        W 5824  10.352  40.873  11.525
33400W        W 5825  38.142  42.326   4.645
33401W        W 5826   9.647  24.521  11.489
33402W        W 5827  15.470  21.680  11.477
33403W        W 5828  18.981  13.967   0.301
33404W        W 5829  27.090  37.397   2.576
33405W        W 5830   5.214  11.559   1.750
33406W        W 5831   9.145  25.789  12.910
33407W        W 5832  44.410  35.047   0.188
33408W        W 5833  20.357  42.979  10.586
33409W        W 5834  35.565  25.710   4.579
33410W        W 5835  36.535  38.823   2.750
33411W        W 5836  37.418  17.374   4.577
33412W        W 5837  32.888  41.905  14.924
33413W        W 5838  20.584   6.781  13.939
33414W        W 5839  39.333  30.446  14.377
33415W        W 5840  32.696   1.946   0.287
33416W        W 5841   6.203  22.090   0.808
33417W        W 5842   3.134  41.353   3.276
33418W        W 5843   8.294   0.573   2.339
33419W        W 5844  10.324  17.197   1.139
33420W        W 5845  38.876  42.465   4.156
33421W        W 5846  41.235  26.967   0.552
33422W        W 5847  38.584  20.278  10.775
33423W        W 5848  41.426   1.571   0.928
33424W        W 5849  37.284  30.627  11.937
33425W        W 5850  44.288  16.299   4.194
33426W        W 5851  38.442  26.689   2.802
33427W        W 5852  19.919  21.709  10.211
33428W        W 5853  12.182   0.197  12.987
33429W        W 5854  30.308  18.538  11.020
33430W        W 5855   0.277  22.666  14.523
33431W        W 5856  28.900   7.360   1.665
33432W        W 5857  22.178  13.827   1.733
33433W        W 5858  42.745   3.297  13.252
33434W        W 5859  28.972  38.507  13.480
33435W        W 5860  15.643  38.785   3.927
33436W        W 5861  35.063  26.859   0.645
33437W        W 5862  16.966  40.432  12.966
33438W        W 5863   5.898  37.069   3.617
33439W        W 5864  25.575   1.460   0.719
33440W        W 5865  20.546  19.512   1.779
33441W        W 5866   6.918   1.258  14.511
33442W        W 5867   3.665  15.878  10.113
33443W        W 5868   7.754  13.639   2.394
33444W        W 5869  37.466  22.849  10.422
33445W        W 5870  25.823  32.429  11.043
33446W        W 5871  39.875   8.185  12.629
33447W        W 5872  41.536  24.118  11.564
33448W        W 5873  14.476  43.322   4.123
33449W        W 5874  11.780   5.857   4.361
33450W        W 5875  32.035  29.987  14.385
33451W        W 5876  22.527  26.610  14.485
33452W        W 5877   6.607  31.065  12.972
33453W        W 5878  39.404  20.218   1.240
33454W        W 5879  37.032   7.545  13.975
33455W        W 5880  44.536   6.857  14.285
33456W        W 5881  19.892  11.726   2.401
33457W        W 5882  38.121   9.179  12.850
33458W        W 5883  11.751  44.559  11.405
33459W        W 5884   9.213  12.839  11.112
33460W        W 5885   3.858   5.603   3.198
33461W        W 5886  11.136   9.626  11.970
33462W        W 5887  10.563  43.846   2.003
33463W        W 5888  18.671  12.116  11.679
33464W        W 5889  32.181  33.091  12.479
33465W        W 5890   3.951  13.400   3.696
33466W        W 5891  23.254  24.944   2.739
33467W        W 5892  44.428  17.185  12.805
33468W        W 5893   8.916   7.205   1.852
33469W        W 5894  32.982  19.644  12.614
33470W        W 5895  44.463  13.523   1.716
33471W        W 5896  44.257  34.366  10.284
33472W        W 5897  36.865  38.021   1.305
33473W        W 5898  13.121   0.790  13.809
33474W        W 5899  17.397  12.583  11.569
33475W        W 5900  27.604  22.416  14.782
33476W        W 5901  35.118  27.457   4.125
33477W        W 5902  34.583  17.761   1.742
33478W        W 5903   5.478  19.793   4.139
33479W        W 5904  40.105  26.576   2.397
33480W        W 5905  12.675  44.207   4.913
33481W        W 5906  31.069   9.543   3.653
33482W        W 5907  34.473  38.055  13.391
33483W        W 5908  11.186   5.400   4.346
33484W        W 5909  29.210   8.843   1.272
33485W        W 5910  31.573  24.233   0.272
33486W        W 5911   6.667  17.038  14.284
33487W        W 5912  32.493  24.069  13.481
33488W        W 5913  33.969  43.008   3.149
33489W        W 5914  30.978   2.950  10.609
33490W        W 5915   4.769  24.628   2.424
33491W        W 5916   3.939  14.251  14.223
33492W        W 5917   7.936  16.637   3.800
33493W        W 5918   5.360   8.243   4.355
33494W        W 5919  32.141  37.926  14.417
33495W        W 5920  34.500  24.429  10.019
33496W        W 5921  40.462  20.545  13.948
33497W        W 5922  24.048  44.430   1.030
33498W        W 5923  25.629  15.205   1.319
33499W        W 5924  30.212   4.756  13.414
33500W        W 5925  41.804  12.077   2.079
33501W        W 5926   0.910  10.924  10.906
33502W        W 5927   8.343  15.867   0.327
33503W        W 5928  29.714   0.286   1.996
33504W        W 5929  39.106  24.578  11.653
33505W        W 5930  23.968  12.625   1.597
33506W        W 5931   4.518  10.866   2.263
33507W        W 5932  23.528  33.006   2.708
33508W        W 5933  40.999  12.848   2.895
33509W        W 5934  35.313   5.501   0.478
33510W        W 5935  27.011  11.857  14.303
33511W        W 5936  17.493  32.564   2.214
33512W        W 5937  28.058  27.894   1.741
33513W        W 5938  17.256  42.469   0.564
33514W        W 5939  27.568  31.181   4.499
33515W        W 5940  10.454  28.755  10.904
33516W        W 5941  37.061   1.158  12.988
33517W        W 5942  33.417  42.103  12.615
33518W        W 5943  40.030  38.616   2.298
33519W        W 5944  14.818  42.126  12.423
33520W        W 5945   9.277  42.137  13.732
33521W        W 5946  42.003  43.484  10.561
33522W        W 5947   8.915  16.272  14.144
33523W        W 5948  27.516   8.891  13.481
33524W        W 5949  42.610  33.436  13.332
33525W        W 5950  27.980  11.158   1.402
33526W        W 5951  33.800  12.840  12.786
33527W        W 5952   6.665  35.643  11.908
33528W        W 5953  42.356   8.954   3.391
33529W        W 5954  28.437  19.863  12.456
33530W        W 5955  39.890  26.894  11.482
33531W        W 5956  42.395   3.684  11.969
33532W        W 5957   2.209   9.496  11.590
33533W        W 5958  42.841   9.111   1.457
33534W        W 5959  34.893  37.089   3.812
33535W        W 5960  25.321  16.718  12.487
33536W        W 5961  23.729   7.180   2.552
33537W        W 5962  37.980  12.948   1.329
33538W        W 5963  41.621  39.628  11.963
33539W        W 5964  17.240  39.090  11.982
33540W        W 5965  15.699  15.836  14.922
33541W        W 5966  11.656  37.063   4.090
33542W        W 5967  22.658  25.496  13.878
33543W        W 5968  25.789  10.928   4.930
33544W        W 5969  29.132  31.588   3.196
33545W        W 5970  12.127  14.303   0.774
33546W        W 5971  37.310  33.022   9.797
33547W        W 5972  21.112  29.324   0.338
33548W        W 5973  26.447  20.201   0.145
33549W        W 5974   2.052   4.393   4.178
33550W        W 5975  33.632  20.164   2.453
33551W        W 5976   8.989  36.450  12.919
33552W        W 5977  39.913   8.097   3.822
33553W        W 5978   7.633   2.271  14.384
33554W        W 5979  14.107  24.742  10.154
33555W        W 5980  30.081  16.107   1.133
33556W        W 5981  29.334  17.894   0.104
33557W        W 5982   2.218  34.511   3.235
33558W        W 5983   9.262  40.568   2.742
33559W        W 5984  24.705  28.497   4.416
33560W        W 5985  36.834  38.785  11.954
33561W        W 5986  34.400  17.805  13.400
33562W        W 5987  43.230  23.207   3.542
33563W        W 5988  36.569  14.465   2.768
33564W        W 5989  12.780  34.926   3.442
33565W        W 5990   4.200   1.361   4.870
33566W        W 5991  19.560  44.532   2.665
33567W        W 5992  29.005  35.924  14.613
33568W        W 5993  33.611  43.048  12.353
33569W        W 5994   5.443  24.695   4.154
33570W        W 5995  41.910   6.704  14.062
33571W        W 5996   6.242   8.852  10.854
33572W        W 5997  20.232   0.900  13.972
33573W        W 5998  40.636   0.022  10.087
33574W        W 5999  43.423  19.102   4.193
33575W        W 6000  28.985  26.702   2.378
33576W        W 6001  42.397  32.096   4.884
33577W        W 6002  30.987   2.301   3.265
33578W        W 6003  32.580  22.124  12.041
33579W        W 6004   0.008  28.793   3.691
33580W        W 6005  28.155  17.218   1.368
33581W        W 6006  36.438   9.670  11.184
33582W        W 6007  42.337  21.817   3.373
33583W        W 6008  39.154  14.297  11.721
33584W        W 6009   0.436  11.819   3.232
33585W        W 6010  18.589  15.106   4.493
33586W        W 6011   5.189  19.236   3.211
33587W        W 6012  34.886  37.120  12.557
33588W        W 6013   1.776  44.224  12.998
33589W        W 6014  38.941  23.776   4.634
33590W        W 6015  13.593   2.509  13.062
33591W        W 6016  20.959  37.031  14.995
33592W        W 6017   9.130   1.137  11.060
33593W        W 6018  10.721  25.026  14.999
33594W        W 6019  24.261  22.439   0.461
33595W        W 6020   9.039  41.480  11.642
33596W        W 6021   7.164  39.045   1.784
33597W        W 6022  15.627  42.330  12.848
33598W        W 6023   3.840  19.020   4.476
33599W        W 6024  21.533  14.196   3.185
33600W        W 6025  18.119  10.260  12.910
33601W        W 6026  37.050  16.526   0.521
33602W        W 6027  33.731  23.692  13.529
33603W        W 6028  17.124  40.022   4.529
33604W        W 6029  31.790  28.437   1.617
33605W        W 6030  34.424  41.868   2.915
33606W        W 6031  31.227   2.214   1.239
33607W        W 6032  35.844   2.918   0.252
33608W        W 6033  22.677   5.596   1.654
33609W        W 6034  30.603   1.462  14.215
33610W        W 6035   6.092  31.970   5.137
33611W        W 6036  27.917  44.879  13.415
33612W        W 6037   6.003   9.263   0.389
33613W        W 6038  32.625  14.306   1.242
33614W        W 6039  11.822  26.697   5.159
33615W        W 6040  27.463   9.322   1.407
33616W        W 6041  15.719  38.626   3.119
33617W        W 6042  10.313  38.710  10.856
33618W        W 6043  10.644   6.492  11.509
33619W        W 6044  19.564  35.993  13.906
33620W        W 6045  42.373  22.062  11.556
33621W        W 6046  13.733  36.436   1.695
33622W        W 6047   4.806  30.302   1.035
33623W        W 6048  42.394  33.159  13.744
33624W        W 6049   1.172   1.239   1.716
33625W        W 6050   9.143   6.202   4.149
33626W        W 6051  20.259  16.379  11.566
33627W        W 6052  10.917  44.811  11.906
33628W        W 6053  44.986  41.373  11.195
33629W        W 6054   4.361  24.829   2.726
33630W        W 6055   8.291  31.811  13.590
33631W        W 6056   4.340  31.497  12.399
33632W        W 6057   4.707  13.229   1.667
33633W        W 6058  36.328  33.630  11.097
33634W        W 6059   5.898  38.266   4.251
33635W        W 6060  25.517  16.687   1.942
33636W        W 6061  21.190  20.767  11.619
33637W        W 6062  38.874  31.496   1.710
33638W        W 6063  40.924  26.015  11.561
33639W        W 6064  39.142  34.094   4.125
33640W        W 6065  14.749  16.394   1.271
33641W        W 6066   8.759  17.582   1.226
33642W        W 6067  36.481   7.214   2.353
33643W        W 6068  24.230  13.093  11.685
33644W        W 6069  11.087  40.513   0.080
33645W        W 6070  37.458   7.428   1.997
33646W        W 6071  23.620   9.255   1.994
33647W        W 6072  18.741  34.605   4.594
33648W        W 6073  14.222  41.057   2.693
33649W        W 6074  39.830   5.660  13.775
33650W        W 6075   3.079  39.620   3.655
33651W        W 6076   3.487  16.840  11.455
33652W        W 6077  20.737  10.663   2.349
33653W        W 6078  34.365  13.335  12.359
33654W        W 6079  24.572  16.255  10.585
33655W        W 6080   7.413  44.300  13.564
33656W        W 6081  40.035  35.979  13.746
33657W        W 6082  32.667   4.965   3.379
33658W        W 6083  15.032   0.331   2.348
33659W        W 6084  12.215  43.733  11.609
33660W        W 6085  16.600  21.776  12.160
33661W        W 6086  39.032  42.096  12.788
33662W        W 6087   1.676  43.901   0.750
33663W        W 6088  37.532  40.946   3.023
33664W        W 6089  40.025  43.957  12.353
33665W        W 6090   4.342  21.618  12.359
33666W        W 6091   9.027  30.712  10.289
33667W        W 6092  27.690  44.862  12.936
33668W        W 6093  39.600  22.527  13.389
33669W        W 6094  37.043  39.642  14.261
33670W        W 6095   6.863  17.250   3.737
33671W        W 6096  21.523  28.312  10.410
33672W        W 6097  25.107  26.684  12.557
33673W        W 6098  31.622   4.887  12.362
33674W        W 6099  31.741   4.939   4.910
33675W        W 6100  38.805   9.373   3.231
33676W        W 6101  10.377  26.393  13.090
33677W        W 6102  39.731   7.680  14.742
33678W        W 6103  34.335  18.308  13.350
33679W        W 6104   4.401  11.938   4.562
33680W        W 6105  25.718  15.839   2.092
33681W        W 6106  37.065  12.550  12.536
33682W        W 6107  23.206  22.638  11.279
33683W        W 6108  30.506  27.529   3.654
33684W        W 6109  30.896   4.760  14.314
33685W        W 6110  30.947  38.136  11.859
33686W        W 6111  23.070   0.274   1.764
33687W        W 6112  10.620  12.840  12.024
33688W        W 6113  28.109  38.517   2.860
33689W        W 6114  13.581  38.456  14.320
33690W        W 6115  11.538  25.180  13.101
33691W        W 6116  44.747  44.834   0.954
33692W        W 6117  17.729  25.524   3.913
33693W        W 6118   2.239  31.607   4.036
33694W        W 6119   9.676  10.766   1.345
33695W        W 6120  18.852  28.041   4.545
33696W        W 6121  43.342   0.381   2.843
33697W        W 6122  10.234  22.278  10.175
33698W        W 6123  40.444   6.858  14.089
33699W        W 6124  16.289  14.285  13.051
33700W        W 6125  11.261  19.785  12.157
33701W        W 6126  16.241  23.725   0.720
33702W        W 6127   2.790  30.029  11.029
33703W        W 6128  13.834  30.613   1.218
33704W        W 6129  33.142  32.570   4.579
33705W        W 6130  39.404  28.750   0.491
33706W        W 6131   7.755  43.470   0.721
33707W        W 6132  40.519  25.635  11.521
33708W        W 6133  39.055   5.808  13.017
33709W        W 6134  41.844  40.734   1.361
33710W        W 6135   0.074  40.922   1.844
33711W        W 6136  37.377  24.146  11.096
33712W        W 6137  24.730  30.536  12.406
33713W        W 6138  29.949   2.933   0.387
33714W        W 6139  36.208  35.946   2.695
33715W        W 6140  36.895  15.388  13.956
33716W        W 6141  34.384  18.304  12.494
33717W        W 6142  35.421  26.714   4.629
33718W        W 6143   3.747  13.712   2.695
33719W        W 6144   0.266   0.251   0.312
33720W        W 6145  28.669  24.606   2.465
33721W        W 6146  19.547  12.730  14.214
33722W        W 6147  36.558  13.867   0.363
33723W        W 6148  37.106  35.224  11.979
33724W        W 6149  11.323   2.114  11.053
33725W        W 6150  21.646  26.495   3.890
33726W        W 6151  34.398  38.769   1.611
33727W        W 6152  34.955  28.339  13.330
33728W        W 6153  21.526  11.346   3.748
33729W        W 6154  11.603  20.245   1.852
33730W        W 6155   0.525  31.168   4.150
33731W        W 6156   5.654  39.917   0.708
33732W        W 6157  25.451  29.129   2.852
33733W        W 6158  23.149  15.816   4.773
33734W        W 6159  27.965   9.236   1.393
33735W        W 6160  38.693   1.512  14.754
33736W        W 6161  33.368  27.011   1.390
33737W        W 6162  40.381  40.413  13.105
33738W        W 6163  15.875  24.131  14.320
33739W        W 6164   0.449  34.934  10.433
33740W        W 6165  22.950  20.625   1.395
33741W        W 6166   1.942  26.972  14.161
33742W        W 6167  12.313  37.330  12.098
33743W        W 6168   3.417  35.606   3.828
33744W        W 6169   5.804  20.543  11.701
33745W        W 6170   4.461   6.458  13.575
33746W        W 6171   4.695  38.806  14.444
33747W        W 6172  11.232  26.727   2.247
33748W        W 6173  40.350   2.977  13.474
33749W        W 6174  21.196  26.617  10.631
33750W        W 6175  13.100   1.756   0.875
33751W        W 6176   2.513   2.265  13.384
33752W        W 6177   2.188   8.871   3.644
33753W        W 6178  33.885  12.226   0.448
33754W        W 6179  25.792  10.120   3.366
33755W        W 6180  25.120  43.840  12.982
33756W        W 6181  13.765  11.444   0.961
33757W        W 6182  24.990  11.832   3.314
33758W        W 6183  27.602  32.976  10.332
33759W        W 6184  25.148  39.057  13.944
33760W        W 6185  33.436  30.650  11.444
33761W        W 6186  14.182  39.182  12.382
33762W        W 6187  40.157  19.227   1.931
33763W        W 6188  42.680  10.183  12.696
33764W        W 6189  36.508  24.182  13.135
33765W        W 6190  34.486   0.234   0.380
33766W        W 6191   8.046  14.616  13.319
33767W        W 6192  27.522  44.715  11.588
33768W        W 6193   0.182  40.448   4.189
33769W        W 6194  13.127  18.523  14.899
33770W        W 6195  22.985  43.493   3.213
33771W        W 6196  37.503   0.373   1.859
33772W        W 6197   2.479  42.997   3.966
33773W        W 6198   7.363  10.809   0.792
33774W        W 6199  31.038  40.419   4.148
33775W        W 6200  17.543  15.313   1.762
33776W        W 6201  32.888  23.674   3.058
33777W        W 6202  13.612  35.707  12.363
33778W        W 6203  10.480   6.931   3.373
33779W        W 6204   0.910  10.213  10.201
33780W        W 6205  40.471  16.615   2.727
33781W        W 6206  11.760   4.787   4.559
33782W        W 6207  31.817  20.539  11.702
33783W        W 6208  19.795  23.348  13.779
33784W        W 6209  11.194  10.151  12.075
33785W        W 6210   8.937  27.608   0.630
33786W        W 6211  15.802  20.088  10.922
33787W        W 6212  27.343  44.375  13.915
33788W        W 6213  19.212  40.424   4.595
33789W        W 6214   2.216  30.614   4.273
33790W        W 6215  31.462  29.066  11.117
33791W        W 6216  35.076  25.847   4.516
33792W        W 6217  20.496   0.904   3.731
33793W        W 6218  32.999  26.115  12.470
33794W        W 6219  41.990   6.564   0.889
33795W        W 6220  28.744   9.781   2.370
33796W        W 6221   8.401  43.928   3.120
33797W        W 6222  36.639  12.276  11.442
33798W        W 6223  41.063  21.507   3.018
33799W        W 6224  11.348  30.926  12.529
33800W        W 6225   5.776  15.615  13.978
33801W        W 6226  35.942  33.169  13.920
33802W        W 6227  33.563  30.046   2.913
33803W        W 6228  38.957  28.739  13.786
33804W        W 6229  16.065  42.502   0.927
33805W        W 6230  12.331   1.203   2.196
33806W        W 6231  29.927   4.290   3.383
33807W        W 6232  33.494   1.008  13.494
33808W        W 6233   2.358  40.946  10.764
33809W        W 6234   0.856   5.728  10.154
33810W        W 6235  28.472   3.912   0.514
33811W        W 6236  25.908   0.524  14.860
33812W        W 6237  29.367   5.631   2.805
33813W        W 6238  23.730   9.593  12.884
33814W        W 6239  33.152  23.068   4.179
33815W        W 6240   0.739  37.455   4.581
33816W        W 6241  28.351  32.565   5.417
33817W        W 6242  19.125  17.293  13.473
33818W        W 6243  33.480  23.347  12.894
33819W        W 6244  20.012  12.793   0.030
33820W        W 6245  10.224  11.780  12.581
33821W        W 6246  35.479  23.129  14.585
33822W        W 6247  42.939   7.419  14.695
33823W        W 6248  29.639  30.602   3.704
33824W        W 6249  24.225   2.003  13.301
33825W        W 6250  33.782  22.753   4.686
33826W        W 6251   4.253  32.636   3.867
33827W        W 6252   1.561   8.116   0.886
33828W        W 6253  34.341  34.643  11.863
33829W        W 6254   1.406  11.363   2.248
33830W        W 6255  29.626  44.720  12.130
33831W        W 6256  20.323   0.396  13.030
33832W        W 6257  44.282  10.799  14.451
33833W        W 6258  44.597  17.773  14.525
33834W        W 6259   8.994  37.840   9.404
33835W        W 6260  35.498  20.306  12.936
33836W        W 6261  41.849  26.215  12.454
33837W        W 6262  18.283  21.061  11.719
33838W        W 6263  38.830  39.914   1.731
33839W        W 6264  38.507  25.504   1.653
33840W        W 6265  13.547  30.830   0.850
33841W        W 6266   0.712  42.865  14.141
33842W        W 6267  26.206  12.312  10.613
33843W        W 6268  13.600  13.137  14.317
33844W        W 6269   3.195  43.021   3.287
33845W        W 6270   6.935  43.584   3.220
33846W        W 6271  16.046   1.516   4.991
33847W        W 6272  21.513  14.203   3.711
33848W        W 6273  39.657  14.726  10.664
33849W        W 6274  22.219  22.209   4.527
33850W        W 6275  30.148  21.260   1.787
33851W        W 6276  19.326  28.001  12.100
33852W        W 6277  36.548  26.741   3.656
33853W        W 6278   1.108  22.206  13.589
33854W        W 6279  37.448  16.875  11.521
33855W        W 6280   2.305  17.555   0.234
33856W        W 6281  44.464  37.797   2.067
33857W        W 6282  38.720   6.315  14.437
33858W        W 6283  24.828  17.300  11.406
33859W        W 6284  37.849   4.196  12.889
33860W        W 6285   4.125  31.124   1.321
33861W        W 6286  22.645  34.464  10.034
33862W        W 6287   5.749   2.261  13.584
33863W        W 6288  43.958  33.070   4.752
33864W        W 6289  18.168  40.470  14.512
33865W        W 6290  40.749  17.685   1.950
33866W        W 6291  26.393   8.745  10.426
33867W        W 6292  42.059  20.678   0.809
33868W        W 6293  36.448   3.181  12.410
33869W        W 6294  38.933  43.234   1.229
33870W        W 6295   1.789  10.477   2.694
33871W        W 6296  30.681  34.785  11.033
33872W        W 6297  30.031  34.126  13.899
33873W        W 6298  41.049  10.022  13.334
33874W        W 6299  40.498  23.214   1.391
33875W        W 6300   8.225   5.993  12.871
33876W        W 6301  33.583  16.358  14.468
33877W        W 6302  24.130  18.565  11.616
33878W        W 6303  14.670  17.147   1.462
33879W        W 6304  30.054  17.652   2.553
33880W        W 6305  26.904  39.598  12.793
33881W        W 6306  44.159  26.948  10.687
33882W        W 6307  16.461   5.023  14.011
33883W        W 6308  12.275   9.395   1.136
33884W        W 6309   4.401  42.950   1.451
33885W        W 6310  42.404  39.586   3.842
33886W        W 6311  20.309   6.212   1.924
33887W        W 6312  12.967   9.817  11.123
33888W        W 6313   4.648  42.281   1.041
33889W        W 6314  15.745  14.790   3.649
33890W        W 6315   6.158  15.279  13.198
33891W        W 6316  11.727  43.217   0.934
33892W        W 6317  42.733   4.921  11.541
33893W        W 6318  35.059   5.771  10.212
33894W        W 6319  13.750   2.308   4.094
33895W        W 6320  37.461  30.976   3.697
33896W        W 6321  28.272  19.550   2.888
33897W        W 6322   0.499  19.680   3.271
33898W        W 6323  14.902  23.176  10.144
33899W        W 6324  19.954  23.091   3.258
33900W        W 6325  13.355  22.186  10.231
33901W        W 6326  20.385   2.838  13.848
33902W        W 6327   2.830  16.092   4.557
33903W        W 6328  13.070  20.391  12.802
33904W        W 6329  43.955   5.365   2.858
33905W        W 6330  31.019  35.389   4.184
33906W        W 6331  15.122  29.960  11.174
33907W        W 6332   5.914  26.066  12.927
33908W        W 6333  44.436  21.152  14.135
33909W        W 6334   2.895  44.700   2.912
33910W        W 6335  43.464  43.494   3.616
33911W        W 6336  19.295  26.483   3.834
33912W        W 6337  17.793  22.062   1.678
33913W        W 6338  40.783  28.356   4.617
33914W        W 6339  37.387  44.296   3.623
33915W        W 6340  15.313  43.916   0.744
33916W        W 6341  15.156  21.705   0.940
33917W        W 6342  42.641  14.906   0.281
33918W        W 6343  28.205  18.480   2.977
33919W        W 6344  39.144  42.265   5.428
33920W        W 6345  32.399  14.602  10.687
33921W        W 6346  27.174  11.358  14.190
33922W        W 6347  15.849  20.203  14.858
33923W        W 6348  42.406  42.497   2.852
33924W        W 6349  28.878   8.405   4.998
33925W        W 6350   5.191   2.867   1.725
33926W        W 6351   8.918  36.313   5.019
33927W        W 6352  24.343  30.058  11.682
33928W        W 6353   3.076  10.986   1.486
33929W        W 6354  17.254  29.517   2.821
33930W        W 6355  25.954  22.719   5.283
33931W        W 6356  18.603  28.139  11.536
33932W        W 6357  14.914  40.396  10.727
33933W        W 6358  20.290   3.002   4.575
33934W        W 6359  15.285  32.088  12.853
33935W        W 6360  39.655  16.875  12.618
33936W        W 6361   4.855  10.644  10.984
33937W        W 6362  17.058  31.975   4.620
33938W        W 6363  27.641   0.363   4.910
33939W        W 6364  23.137  38.058  13.933
33940W        W 6365  18.592   2.396   9.990
33941W        W 6366  43.585  18.710  12.807
33942W        W 6367  30.919  38.424   4.817
33943W        W 6368   6.413  11.799  14.418
33944W        W 6369  40.436   6.704  12.458
33945W        W 6370  12.103  40.730   0.826
33946W        W 6371  41.975  29.578  12.495
33947W        W 6372  27.897  26.210   3.917
33948W        W 6373  14.593  29.828  11.145
33949W        W 6374  23.494  24.059  10.937
33950W        W 6375  11.750  35.719  12.617
33951W        W 6376  12.344   7.970  13.752
33952W        W 6377  14.240  21.349  14.869
33953W        W 6378   3.615  26.336   4.361
33954W        W 6379   3.183  28.707   0.222
33955W        W 6380  40.549  35.075  11.605
33956W        W 6381  22.640  40.903   1.831
33957W        W 6382  28.807   9.812  12.746
33958W        W 6383  31.418   2.913   4.394
33959W        W 6384  19.637  14.310  12.039
33960W        W 6385  12.232  25.158  14.352
33961W        W 6386   1.981   3.431  14.949
33962W        W 6387  37.657  44.576  10.500
33963W        W 6388  35.020  16.057   3.965
33964W        W 6389  41.694  27.137   0.414
33965W        W 6390   4.959  34.444   4.701
33966W        W 6391  26.428  22.073  13.101
33967W        W 6392  16.526  22.009  13.846
33968W        W 6393  40.451  42.385  10.265
33969W        W 6394  41.895  26.200   2.321
33970W        W 6395  38.932  43.686   1.476
33971W        W 6396   5.425  41.494   1.746
33972W        W 6397  38.335  27.582   2.558
33973W        W 6398  14.436  15.704   3.668
33974W        W 6399   6.621  21.983  11.195
33975W        W 6400  25.236  40.274   2.267
33976W        W 6401  25.723   2.800   4.615
33977W        W 6402   0.816   6.185   1.595
33978W        W 6403  40.925  10.233  10.770
33979W        W 6404  35.028  44.722   3.714
33980W        W 6405  12.383  43.362   4.163
33981W        W 6406  39.756  18.646  12.953
33982W        W 6407  37.923  12.563   3.160
33983W        W 6408  12.852  32.180  11.213
33984W        W 6409  35.390   8.435  11.634
33985W        W 6410  35.317  25.490   4.129
33986W        W 6411  43.435  24.530   1.814
33987W        W 6412  15.307  37.154   0.766
33988W        W 6413  31.517  15.765  11.049
33989W        W 6414  31.635  11.652  12.470
33990W        W 6415  40.731  23.211  13.734
33991W        W 6416  37.648  10.333  14.260
33992W        W 6417  30.443  34.760  11.657
33993W        W 6418  20.220   4.332   4.549
33994W        W 6419  21.643  21.594  13.226
33995W        W 6420  20.071   0.281   2.285
33996W        W 6421  37.841  29.179  12.901
33997W        W 6422  42.344  10.006  14.401
33998W        W 6423  27.529  35.818  12.492
33999W        W 6424  41.924  18.943  13.571
34000W        W 6425  25.485  41.534  13.884
34001W        W 6426  26.511  26.475   1.348
34002W        W 6427  41.150  31.577  13.082
34003W        W 6428  11.382  23.460   4.248
34004W        W 6429  27.756  23.711   0.665
34005W        W 6430   1.719  26.698   0.775
34006W        W 6431  11.329  15.654   0.387
34007W        W 6432  36.462  39.856  11.082
34008W        W 6433  38.758  21.032   1.920
34009W        W 6434  37.656  42.219  10.778
34010W        W 6435   4.905  30.533   1.497
34011W        W 6436  24.469  35.593   1.382
34012W        W 6437  16.596  23.102  14.852
34013W        W 6438   3.785   5.103   4.155
34014W        W 6439  25.559  44.355   4.688
34015W        W 6440  29.227   3.238  13.000
34016W        W 6441  24.596   2.835   3.810
34017W        W 6442  38.264  12.832   0.895
34018W        W 6443  16.703  43.396  12.796
34019W        W 6444  11.428   7.638  14.273
34020W        W 6445  18.745   6.161   0.222
34021W        W 6446   6.836  11.568  11.900
34022W        W 6447  41.853  40.583   5.301
34023W        W 6448  11.622  17.202   2.588
34024W        W 6449  38.767  21.589   0.311
34025W        W 6450  35.905  41.266  13.461
34026W        W 6451  34.791  17.416   4.201
34027W        W 6452  14.169  12.451  11.149
34028W        W 6453  29.315   8.736   4.978
34029W        W 6454  27.970  11.669  13.263
34030W        W 6455  37.792  28.036   4.922
34031W        W 6456  29.977  18.209  10.140
34032W        W 6457   4.669  32.162   2.220
34033W        W 6458  14.790  38.811  12.801
34034W        W 6459  39.955  31.691  13.450
34035W        W 6460  32.384  37.627  12.523
34036W        W 6461  42.827  26.527   1.635
34037W        W 6462  28.529  17.035   2.356
34038W        W 6463  39.952   6.633   3.587
34039W        W 6464  35.432   1.974  13.443
34040W        W 6465  11.763  13.781   4.415
34041W        W 6466  24.714  31.036   0.106
34042W        W 6467  27.561  44.412   1.698
34043W        W 6468  33.962   3.984  12.498
34044W        W 6469  42.821   8.598   3.725
34045W        W 6470  21.922  43.938   2.871
34046W        W 6471  32.411  32.384  10.685
34047W        W 6472  10.601  20.288   1.925
34048W        W 6473   4.821  16.168  11.062
34049W        W 6474   1.757  39.613   0.080
34050W        W 6475  31.182   8.198   0.254
34051W        W 6476  24.515  19.002  11.690
34052W        W 6477  12.302   4.742   2.417
34053W        W 6478  44.504  40.627  13.872
34054W        W 6479   7.256  22.803   3.856
34055W        W 6480  24.991  28.090  11.207
34056W        W 6481  26.699  27.983   2.165
34057W        W 6482  25.429   0.753   1.371
34058W        W 6483  10.930  15.044  12.499
34059W        W 6484  19.363  27.189  13.120
34060W        W 6485  43.912  22.097  13.814
34061W        W 6486  44.506   9.226   0.995
34062W        W 6487  36.414   6.389  11.462
34063W        W 6488   8.400  16.276   1.640
34064W        W 6489  25.930  26.085   0.955
34065W        W 6490  27.577  16.631  14.538
34066W        W 6491  43.307  34.565  10.682
34067W        W 6492  37.920  42.987   0.793
34068W        W 6493  13.300  23.031   4.591
34069W        W 6494  43.730  24.359  14.545
34070W        W 6495  30.131  28.531  13.847
34071W        W 6496  19.752  39.296  12.400
34072W        W 6497  15.731  44.484   4.718
34073W        W 6498  42.519   1.689  12.503
34074W        W 6499  26.900   7.401   2.865
34075W        W 6500  18.951  10.243   4.785
34076W        W 6501  18.092  16.540  14.736
34077W        W 6502  30.514  42.950   2.048
34078W        W 6503   6.778  22.091   3.309
34079W        W 6504  27.081  24.622  14.821
34080W        W 6505  40.489   1.653   1.938
34081W        W 6506  25.501  27.416   2.257
34082W        W 6507   2.499  36.007   4.385
34083W        W 6508  12.388  10.591  13.017
34084W        W 6509   4.520   6.332  11.574
34085W        W 6510  25.070  13.529   1.710
34086W        W 6511   8.450   2.400  13.873
34087W        W 6512  44.423  28.343  13.782
34088W        W 6513  43.344  31.433   1.695
34089W        W 6514   8.053   2.256   2.358
34090W        W 6515  13.936  10.860   2.839
34091W        W 6516  10.228  14.359  11.970
34092W        W 6517   8.707  21.525   1.259
34093W        W 6518  23.764   1.429   1.443
34094W        W 6519  36.064  29.178  12.861
34095W        W 6520  35.411  23.566  12.563
34096W        W 6521  38.930  21.284   0.754
34097W        W 6522  29.575  36.202  11.434
34098W        W 6523  18.377   7.354  10.770
34099W        W 6524  39.590   2.977  11.141
34100W        W 6525  43.405  27.027   0.621
34101W        W 6526  20.042  14.727   0.528
34102W        W 6527  12.258   1.547   0.799
34103W        W 6528  39.922  12.115   0.895
34104W        W 6529  36.471  26.117  13.376
34105W        W 6530  12.687  29.369   4.032
34106W        W 6531  41.998   2.898  11.573
34107W        W 6532  30.703  15.436   1.166
34108W        W 6533  19.065  43.026  14.797
34109W        W 6534  30.114  10.686  14.819
34110W        W 6535  38.409   1.483   3.992
34111W        W 6536  20.862  15.682  12.148
34112W        W 6537  21.639  25.266   4.154
34113W        W 6538  21.530  14.841  13.972
34114W        W 6539   8.947  43.445  11.767
34115W        W 6540  30.528  29.830   1.196
34116W        W 6541   3.832  19.203  10.727
34117W        W 6542  36.427  44.814   1.267
34118W        W 6543  24.304  10.353   0.324
34119W        W 6544  42.439   9.802  12.026
34120W        W 6545  37.826   3.392   0.504
34121W        W 6546  44.278  39.414   4.927
34122W        W 6547  42.106  22.529  11.550
34123W        W 6548  16.611  17.905   4.238
34124W        W 6549  14.861  31.164   3.621
34125W        W 6550  16.642   7.356  13.433
34126W        W 6551  40.544  12.230   2.588
34127W        W 6552  14.866   4.576  10.786
34128W        W 6553  11.716  36.479   0.720
34129W        W 6554  43.609  24.662  10.699
34130W        W 6555  44.177  12.813  11.682
34131W        W 6556  11.137  41.935   2.903
34132W        W 6557  34.270  15.759  13.326
34133W        W 6558  17.408  25.002   1.357
34134W        W 6559  25.595  27.011   1.324
34135W        W 6560  13.613  22.038  12.368
34136W        W 6561  16.765  18.355  10.822
34137W        W 6562  18.096   0.298  10.496
34138W        W 6563  26.471  31.653  11.176
34139W        W 6564  38.129  34.380   1.866
34140W        W 6565  15.132  32.518   3.343
34141W        W 6566  41.726  34.054  14.616
34142W        W 6567  20.476  23.109  11.242
34143W        W 6568  38.367  31.070  12.059
34144W        W 6569  20.557  39.369   3.027
34145W        W 6570  17.580  39.810  13.302
34146W        W 6571  39.098  31.881  10.263
34147W        W 6572  18.842  29.602  14.353
34148W        W 6573  30.921  12.837   2.698
34149W        W 6574  30.189  27.116  10.711
34150W        W 6575  16.611   1.814   2.396
34151W        W 6576   0.180  22.168  14.565
34152W        W 6577   8.507   0.520  13.038
34153W        W 6578   7.374  36.826  11.666
34154W        W 6579   8.214  17.941  13.699
34155W        W 6580  43.016  32.383   0.641
34156W        W 6581  18.465  36.651   2.911
34157W        W 6582  40.639  19.012   2.013
34158W        W 6583  29.984   1.206  14.802
34159W        W 6584  42.368  28.434  12.482
34160W        W 6585  35.376  24.884  12.545
34161W        W 6586  14.748   9.897  13.071
34162W        W 6587  31.626   9.426   2.297
34163W        W 6588  35.439   4.511   4.657
34164W        W 6589  37.017  40.929   3.117
34165W        W 6590  19.209  39.106  14.523
34166W        W 6591  20.090  30.421   1.776
34167W        W 6592   5.872  31.788  12.613
34168W        W 6593  12.073  42.013  14.758
34169W        W 6594  17.237   1.457  14.471
34170W        W 6595  12.268  24.278  14.302
34171W        W 6596  31.940  23.807  14.833
34172W        W 6597  27.957  28.863   1.711
34173W        W 6598  13.024  27.123  11.336
34174W        W 6599  24.655  15.038  11.199
34175W        W 6600   9.923  10.201   2.701
34176W        W 6601  27.559  22.090   3.889
34177W        W 6602  44.273  30.356   4.698
34178W        W 6603  11.840  33.010   2.430
34179W        W 6604  32.324   8.686   4.575
34180W        W 6605  15.922  25.537   1.739
34181W        W 6606  42.448  23.060   0.485
34182W        W 6607   0.716  16.523   3.174
34183W        W 6608  34.714  42.781   1.765
34184W        W 6609  10.890  17.151  13.571
34185W        W 6610  43.955  29.287   1.872
34186W        W 6611   7.612  12.605  14.902
34187W        W 6612  20.562   4.449  13.443
34188W        W 6613   6.178  15.727   3.206
34189W        W 6614  41.474  25.471  12.387
34190W        W 6615   5.718  39.295  10.777
34191W        W 6616   3.913  44.890  13.343
34192W        W 6617  12.632  44.314   1.740
34193W        W 6618   2.004  25.621   2.154
34194W        W 6619  12.464  43.986   3.828
34195W        W 6620  37.259   1.693  11.216
34196W        W 6621   2.394  14.836  10.424
34197W        W 6622   4.551  34.531   1.810
34198W        W 6623  15.365  40.374   0.202
34199W        W 6624  36.873  10.403   3.782
34200W        W 6625  25.549  20.506  13.049
34201W        W 6626  31.199   8.744   9.940
34202W        W 6627  17.680  33.606   2.786
34203W        W 6628  29.517  10.198  11.733
34204W        W 6629  13.770  25.604   1.599
34205W        W 6630  44.787   6.331   0.918
34206W        W 6631  35.866  36.419  10.774
34207W        W 6632  14.001  13.303   1.906
34208W        W 6633  24.748  16.082   1.894
34209W        W 6634   9.125  39.083   4.824
34210W        W 6635  30.491  26.438  11.207
34211W        W 6636  22.157  20.569  14.366
34212W        W 6637  25.018  39.906   4.108
34213W        W 6638  21.398  35.233  12.236
34214W        W 6639  19.151  24.267   2.787
34215W        W 6640   2.490   6.201  14.779
34216W        W 6641   7.634  39.459   1.409
34217W        W 6642   6.714   6.980  11.617
34218W        W 6643  19.019  17.069   2.179
34219W        W 6644  41.769  38.585  10.551
34220W        W 6645  41.848  44.627   4.566
34221W        W 6646  30.715  20.680  12.583
34222W        W 6647  31.691  28.174  11.000
34223W        W 6648  21.243  37.365   3.274
34224W        W 6649   6.922  16.872  12.612
34225W        W 6650  24.835  36.931   2.381
34226W        W 6651  14.897  37.421   1.739
34227W        W 6652  17.802  29.837   5.015
34228W        W 6653  44.861  20.527  14.037
34229W        W 6654  32.395  43.116  11.072
34230W        W 6655  36.911  14.197  11.423
34231W        W 6656  20.638  32.379  12.184
34232W        W 6657  44.058  43.893  13.013
34233W        W 6658  21.599  23.301  14.695
34234W        W 6659  12.692  42.548  14.475
34235W        W 6660   6.727   1.535   3.561
34236W        W 6661  44.780  41.826  14.389
34237W        W 6662  30.657  31.501   4.799
34238W        W 6663  41.292  27.155  14.566
34239W        W 6664  42.821   2.864   4.435
34240W        W 6665  32.554  37.132  11.212
34241W        W 6666   2.183   0.723  11.073
34242W        W 6667  35.627  20.574  11.483
34243W        W 6668  30.868  25.265  11.921
34244W        W 6669  42.995  26.079  14.490
34245W        W 6670  19.080  19.076  10.923
34246W        W 6671  15.484  27.690  13.972
34247W        W 6672  18.244  39.684  14.027
34248W        W 6673   0.032  25.226   3.637
34249W        W 6674  24.135   6.144  10.167
34250W        W 6675  25.482  21.276  11.560
34251W        W 6676   9.644  27.714   1.761
34252W        W 6677  33.704  40.619   2.876
34253W        W 6678  26.097  32.458   0.199
34254W        W 6679  22.486   9.746  13.762
34255W        W 6680  34.306  25.654   0.832
34256W        W 6681  32.413   9.271   1.687
34257W        W 6682  29.624  23.212   2.295
34258W        W 6683   6.781  34.150   1.637
34259W        W 6684   1.287  40.268  11.726
34260W        W 6685  36.521  21.879  10.645
34261W        W 6686  37.851  13.853   1.209
34262W        W 6687  40.009   3.497  12.865
34263W        W 6688  13.193   5.252   1.248
34264W        W 6689  18.255  21.825   1.934
34265W        W 6690  14.559  14.650   0.917
34266W        W 6691   6.244  25.959  13.640
34267W        W 6692  37.597  12.109  12.209
34268W        W 6693  29.913   9.174   3.735
34269W        W 6694  17.876   0.848  14.600
34270W        W 6695  10.379  11.578  14.487
34271W        W 6696  17.095  19.106  14.735
34272W        W 6697  13.545  27.084   4.651
34273W        W 6698   3.945  17.860  12.082
34274W        W 6699  19.250  32.079  13.460
34275W        W 6700   1.310  32.190  12.026
34276W        W 6701  23.356   4.975   2.796
34277W        W 6702  23.547  18.098   1.657
34278W        W 6703  43.469   4.185  11.782
34279W        W 6704  15.126  36.444   4.764
34280W        W 6705   1.574  26.081  11.902
34281W        W 6706  17.221  17.276  12.037
34282W        W 6707  24.800  11.283  12.028
34283W        W 6708  42.759   5.264  12.510
34284W        W 6709  31.872  44.059   0.347
34285W        W 6710  16.233  17.153  12.036
34286W        W 6711   9.754   3.784  11.623
34287W        W 6712   6.403  23.445  12.649
34288W        W 6713   0.475  41.363  11.329
34289W        W 6714   6.481  44.313   1.719
34290W        W 6715  11.193  11.086  13.543
34291W        W 6716  26.981   6.334  14.747
34292W        W 6717  40.460  26.065  11.797
34293W        W 6718  40.950  26.533   5.092
34294W        W 6719  23.501  22.922   3.117
34295W        W 6720  30.863  21.167  10.715
34296W        W 6721  16.130  18.688   1.197
34297W        W 6722   5.798   9.889   1.690
34298W        W 6723  32.464  43.857   1.273
34299W        W 6724  39.368   1.381   0.943
34300W        W 6725  24.910  37.033  11.582
34301W        W 6726   9.466  40.952  14.261
34302W        W 6727  32.737   3.375  11.087
34303W        W 6728  26.185  10.098  14.719
34304W        W 6729  22.048   2.859  12.451
34305W        W 6730  44.904   4.844  14.305
34306W        W 6731   9.672  25.465   2.148
34307W        W 6732  34.788  36.782   2.741
34308W        W 6733   3.984   9.927   3.640
34309W        W 6734   6.313  30.022   4.774
34310W        W 6735  43.254  27.857  14.277
34311W        W 6736   3.772   8.864   3.788
34312W        W 6737  32.918  13.326  10.864
34313W        W 6738  18.670  24.310   5.122
34314W        W 6739  12.812  30.463   1.420
34315W        W 6740  34.944  26.506   3.217
34316W        W 6741  38.866   7.494  11.378
34317W        W 6742  23.477   3.896  13.918
34318W        W 6743  32.791  38.350  11.591
34319W        W 6744  23.045  24.641  14.603
34320W        W 6745  41.015   0.318   3.201
34321W        W 6746  14.773  22.756   3.699
34322W        W 6747  29.953  37.864   2.833
34323W        W 6748  41.023  15.084  13.855
34324W        W 6749  24.605  21.255   1.774
34325W        W 6750   1.878   6.963  10.811
34326W        W 6751  33.943  43.827  10.700
34327W        W 6752  28.555  11.945   2.649
34328W        W 6753  30.822  14.939   0.498
34329W        W 6754   8.173  13.229   0.270
34330W        W 6755   9.926  15.111   1.492
34331W        W 6756  21.167   9.265  10.186
34332W        W 6757  20.528  11.222   2.266
34333W        W 6758  17.534  10.235  14.828
34334W        W 6759   6.326  14.517  12.027
34335W        W 6760  43.185   1.753  13.273
34336W        W 6761  31.621  10.174   4.182
34337W        W 6762  31.651  12.609  12.623
34338W        W 6763  41.019  24.199   0.975
34339W        W 6764  41.964  41.273  12.838
34340W        W 6765   2.201   3.882   4.227
34341W        W 6766  29.151  24.183   3.781
34342W        W 6767   5.715  41.932  13.963
34343W        W 6768   9.682   0.067   1.196
34344W        W 6769  21.100   3.210   4.721
34345W        W 6770  20.175  40.835   4.531
34346W        W 6771   7.836  26.836  10.647
34347W        W 6772  14.196  24.076  11.274
34348W        W 6773  12.836  14.575  11.888
34349W        W 6774  16.255   9.752   3.299
34350W        W 6775   7.403  41.498   0.034
34351W        W 6776  10.462   4.006   0.269
34352W        W 6777  28.177  12.440   0.888
34353W        W 6778   5.303  32.186  10.563
34354W        W 6779  38.879   3.182  12.026
34355W        W 6780  26.074  10.212   0.609
34356W        W 6781   2.378  21.810   2.273
34357W        W 6782  35.193  37.355   0.448
34358W        W 6783  30.461  18.316  14.895
34359W        W 6784  19.564   5.843   4.117
34360W        W 6785  11.860  29.107   0.944
34361W        W 6786  29.043  22.065  12.926
34362W        W 6787   4.269  38.392   3.573
34363W        W 6788  20.993  21.654   0.950
34364W        W 6789   8.945  11.802   2.215
34365W        W 6790  18.881  31.917  12.824
34366W        W 6791  33.087  36.506   0.335
34367W        W 6792   8.603  32.074   3.310
34368W        W 6793  35.520  19.564  12.019
34369W        W 6794  37.080  34.990   4.777
34370W        W 6795   3.693   0.726   3.701
34371W        W 6796  27.675  14.376  10.398
34372W        W 6797  43.797  20.782   3.673
34373W        W 6798  13.094  18.740  13.022
34374W        W 6799   3.737  34.652   3.185
34375W        W 6800  14.791   3.714  12.876
34376W        W 6801  27.495   9.390   4.209
34377W        W 6802  16.503  34.810  11.511
34378W        W 6803  37.546  29.666   1.988
34379W        W 6804  29.481  26.079  14.427
34380W        W 6805  10.430   7.495   1.772
34381W        W 6806  23.837  27.198  12.632
34382W        W 6807  32.024  28.265  12.949
34383W        W 6808  13.102  37.472  10.781
34384W        W 6809  42.805   9.237  11.058
34385W        W 6810  28.224  40.312   3.191
34386W        W 6811  30.133   6.227  12.261
34387W        W 6812   4.240  25.118   0.047
34388W        W 6813  26.201  17.609  14.015
34389W        W 6814  23.040   8.613   2.291
34390W        W 6815  31.167  41.992   4.452
34391W        W 6816   4.379  33.085  10.656
34392W        W 6817   2.786   5.739   4.542
34393W        W 6818  42.657   1.453  14.468
34394W        W 6819  32.459  32.151  13.050
34395W        W 6820  41.016  34.987  11.902
34396W        W 6821  26.667  20.045  12.904
34397W        W 6822  23.101   4.495  14.047
34398W        W 6823  33.188  21.675  13.236
34399W        W 6824  21.208  37.429  13.644
34400W        W 6825  27.530  25.934   3.684
34401W        W 6826  22.359  31.031  11.877
34402W        W 6827  22.839  23.805  12.641
34403W        W 6828  37.526  16.161  14.233
34404W        W 6829  25.614  42.293  11.557
34405W        W 6830  29.361  10.571  14.357
34406W        W 6831  10.568   2.974   2.738
34407W        W 6832   6.568   3.667  14.969
34408W        W 6833  18.393  20.560   3.497
34409W        W 6834   6.259  10.331  11.661
34410W        W 6835  38.394  37.469   2.223
34411W        W 6836   8.359  11.767   3.494
34412W        W 6837   9.819   3.456   0.771
34413W        W 6838  35.518  32.376   0.322
34414W        W 6839  30.751  10.252   4.566
34415W        W 6840   1.054  38.954  11.037
34416W        W 6841  21.052   8.922   0.907
34417W        W 6842   1.192   5.832   4.633
34418W        W 6843  40.353  36.797   4.294
34419W        W 6844  43.718  14.622   0.787
34420W        W 6845  39.244   4.684   2.240
34421W        W 6846   4.599  40.926  10.187
34422W        W 6847   8.041   0.924  11.972
34423W        W 6848   1.956  31.807   4.518
34424W        W 6849  26.499  37.733  14.262
34425W        W 6850  29.027  40.786  13.790
34426W        W 6851   6.561  30.705   3.678
34427W        W 6852   2.940  21.274  10.158
34428W        W 6853  35.128  43.663  14.878
34429W        W 6854  32.155  23.999   3.752
34430W        W 6855  27.868  25.238   4.897
34431W        W 6856   9.475  19.754  13.853
34432W        W 6857   9.429   3.246  13.056
34433W        W 6858  29.392  18.077  14.586
34434W        W 6859  14.674  38.815  14.759
34435W        W 6860  32.371  33.335  10.434
34436W        W 6861  44.508   2.947  14.362
34437W        W 6862  27.623  18.568  14.507
34438W        W 6863  24.192   8.911  12.429
34439W        W 6864  42.791   7.008   2.690
34440W        W 6865  34.393   3.166  12.588
34441W        W 6866  31.934   7.693  10.352
34442W        W 6867  39.971  12.200   4.668
34443W        W 6868   1.371  27.815   3.165
34444W        W 6869   3.929  31.837  12.507
34445W        W 6870  26.725   0.559   0.376
34446W        W 6871   8.351  17.839   2.759
34447W        W 6872   7.172  11.666  10.748
34448W        W 6873  42.594  42.766   4.770
34449W        W 6874  21.729  29.610  14.942
34450W        W 6875  27.743  30.125   1.851
34451W        W 6876  34.928  16.388   4.851
34452W        W 6877  21.459   6.475   4.595
34453W        W 6878  22.028  21.046  10.540
34454W        W 6879  35.320  38.946   0.924
34455W        W 6880   6.887  19.866  15.000
34456W        W 6881  32.523  11.700   2.231
34457W        W 6882  35.287  36.513   4.709
34458W        W 6883  28.291  16.261   1.521
34459W        W 6884   6.950  21.734   1.791
34460W        W 6885  13.733  27.140  14.420
34461W        W 6886  26.880  35.640  12.982
34462W        W 6887  25.579  39.375  14.741
34463W        W 6888  16.015  29.508   4.455
34464W        W 6889  28.281  24.678   0.414
34465W        W 6890  33.492  37.212   5.170
34466W        W 6891  38.523  40.773   2.696
34467W        W 6892  22.551  42.600  11.050
34468W        W 6893  38.437  24.925  10.945
34469W        W 6894  21.090   8.858   3.674
34470W        W 6895   3.670  29.917  12.942
34471W        W 6896   5.213  39.020   2.187
34472W        W 6897   9.871   4.842  12.519
34473W        W 6898  16.226   2.631   3.127
34474W        W 6899  29.955  22.658  10.735
34475W        W 6900   4.673   4.335   0.371
34476W        W 6901   8.400  38.329  11.524
34477W        W 6902  30.557  18.694  10.578
34478W        W 6903   2.189  14.393   1.872
34479W        W 6904  19.386  13.958   2.860
34480W        W 6905  32.210  33.922  13.063
34481W        W 6906  25.238  41.903  13.591
34482W        W 6907   1.770  15.620   4.640
34483W        W 6908  33.120  15.338   2.890
34484W        W 6909  37.161   1.939   0.394
34485W        W 6910  13.761  40.883   2.456
34486W        W 6911  28.706  25.985   0.550
34487W        W 6912  24.715  24.136  13.136
34488W        W 6913   9.227  22.304   4.482
34489W        W 6914   4.330  35.959  11.169
34490W        W 6915   7.134  23.484   1.496
34491W        W 6916  13.605  13.181   0.204
34492W        W 6917  38.891   4.208  13.071
34493W        W 6918  44.709   5.417   1.328
34494W        W 6919  24.638  27.677  12.807
34495W        W 6920  40.377  15.972  10.534
34496W        W 6921  14.988  31.669  12.974
34497W        W 6922  43.419  37.526  14.959
34498W        W 6923  11.576  12.322   0.089
34499W        W 6924   3.510  14.915   3.758
34500W        W 6925  30.610  29.829   1.711
34501W        W 6926  19.205  20.303   1.765
34502W        W 6927  36.430  34.125   1.813
34503W        W 6928  32.138  27.315  14.990
34504W        W 6929  21.591  13.282  14.291
34505W        W 6930  40.780   8.796  13.863
34506W        W 6931  11.805  25.392  12.475
34507W        W 6932   7.534  15.244  12.928
34508W        W 6933  27.647  10.398   1.830
34509W        W 6934  31.373  30.716   2.012
34510W        W 6935   4.973  19.728   4.144
34511W        W 6936  27.023   6.020   0.776
34512W        W 6937   5.588  21.301   9.576
34513W        W 6938  14.341  35.459  12.902
34514W        W 6939  23.295  33.613   4.690
34515W        W 6940   0.467   6.162   4.123
34516W        W 6941  10.159   8.961   1.386
34517W        W 6942  31.826  29.856   0.059
34518W        W 6943  15.415  37.444   1.706
34519W        W 6944  22.258  14.565   3.350
34520W        W 6945   9.821  38.574  11.350
34521W        W 6946  31.858  31.591   4.911
34522W        W 6947  13.371  36.317  14.267
34523W        W 6948   1.454  42.046  12.934
34524W        W 6949  18.353   7.212  11.629
34525W        W 6950   3.714  11.861  13.091
34526W        W 6951  20.549  15.079  11.473
34527W        W 6952  27.561  10.657  13.317
34528W        W 6953  29.602  13.396  13.363
34529W        W 6954  20.021  35.331  10.691
34530W        W 6955  37.905  11.423  13.519
34531W        W 6956  40.402  17.360  13.262
34532W        W 6957  44.745  29.555  13.554
34533W        W 6958   8.408  44.039  12.929
34534W        W 6959   2.478  23.070   2.845
34535W        W 6960  31.876  43.260  11.158
34536W        W 6961   5.606  29.126   1.815
34537W        W 6962   6.359  39.694   1.803
34538W        W 6963  43.026   3.895  10.617
34539W        W 6964  38.608   5.491   2.304
34540W        W 6965  23.464   4.447   2.019
34541W        W 6966  40.006  44.473   3.886
34542W        W 6967  40.283  18.693  12.882
34543W        W 6968   7.821   4.274  14.235
34544W        W 6969  19.220   0.924  12.553
34545W        W 6970  42.938   2.272  10.732
34546W        W 6971   9.126  12.738   4.206
34547W        W 6972  28.689  28.988  13.579
34548W        W 6973  29.278  37.322  10.458
34549W        W 6974   6.938  40.456   0.404
34550W        W 6975  44.034  17.270  10.807
34551W        W 6976  20.231  18.192   1.658
34552W        W 6977  24.277  11.699  14.973
34553W        W 6978   6.955  41.015  13.131
34554W        W 6979  37.072  24.956  11.934
34555W        W 6980   5.260   8.666   4.043
34556W        W 6981  23.689  33.266   0.427
34557W        W 6982  13.824  33.763  14.756
34558W        W 6983  10.614  41.297  13.073
34559W        W 6984  25.901  40.837  11.549
34560W        W 6985  13.872   7.393  11.599
34561W        W 6986  25.006   7.719  10.752
34562W        W 6987  44.878  22.780  11.106
34563W        W 6988  26.959   0.022   1.357
34564W        W 6989   0.955  29.501  11.147
34565W        W 6990  34.841  37.274   3.338
34566W        W 6991  44.326   3.322   2.441
34567W        W 6992  32.698  43.935   3.891
34568W        W 6993   3.508  33.807  11.073
34569W        W 6994  14.634  38.874   0.258
34570W        W 6995  29.525  30.856   4.590
34571W        W 6996   9.426  39.007  14.814
34572W        W 6997   5.235  32.853   4.717
34573W        W 6998  24.655   8.098  13.317
34574W        W 6999  26.878  28.841  13.867
34575W        W 7000  15.821  29.944   4.263
34576W        W 7001  35.655  44.794   3.123
34577W        W 7002  13.330   0.741  13.349
34578W        W 7003  11.344   7.222  13.336
34579W        W 7004   9.984  27.421  13.808
34580W        W 7005  28.950  31.899   2.780
34581W        W 7006   4.954  11.444   3.338
34582W        W 7007  42.639  26.678   3.979
34583W        W 7008  14.816   9.899   1.630
34584W        W 7009  27.558  34.045  11.243
34585W        W 7010  30.704  31.855  10.747
34586W        W 7011  21.201  42.394  12.491
34587W        W 7012  31.382   0.717  13.571
34588W        W 7013  42.830  39.461  13.031
34589W        W 7014  30.980  22.685  10.694
34590W        W 7015  40.359  33.574  13.099
34591W        W 7016  31.594  26.984  10.598
34592W        W 7017  32.389  34.798   1.849
34593W        W 7018  17.082  25.100  12.486
34594W        W 7019   4.240  31.883   2.203
34595W        W 7020  19.622  14.565  14.909
34596W        W 7021  30.754  41.351   1.355
34597W        W 7022  14.230  26.484  13.090
34598W        W 7023  29.080  15.591   4.603
34599W        W 7024  40.036  42.386  14.964
34600W        W 7025   1.276   6.098  11.719
34601W        W 7026  30.003  41.833   0.853
34602W        W 7027  13.154  11.835  11.424
34603W        W 7028  44.340  32.079  10.749
34604W        W 7029  18.302  28.952  12.042
34605W        W 7030   1.807   1.727  11.251
34606W        W 7031   5.440   8.171   3.869
34607W        W 7032   5.813  11.201   2.838
34608W        W 7033  32.157  15.337   0.300
34609W        W 7034  10.947  43.265   0.448
34610W        W 7035  13.243  35.612   2.404
34611W        W 7036  19.541  17.652   0.072
34612W        W 7037  18.672  29.519   2.767
34613W        W 7038   3.933   7.334   4.675
34614W        W 7039  13.883  39.842  14.041
34615W        W 7040   7.146   7.699   1.898
34616W        W 7041  31.075  41.578  12.920
34617W        W 7042  33.661  32.079  12.994
34618W        W 7043  40.004  18.046   0.903
34619W        W 7044   8.141   0.234  11.521
34620W        W 7045  16.494   2.396   2.682
34621W        W 7046  40.315   9.230  12.533
34622W        W 7047  21.141  38.071   2.754
34623W        W 7048  20.228  12.435  11.923
34624W        W 7049  39.746  14.497   2.366
34625W        W 7050  15.774  11.377   1.844
34626W        W 7051  27.097   7.336   3.879
34627W        W 7052  12.731   1.481  13.291
34628W        W 7053  27.369  29.665  13.431
34629W        W 7054   5.662  14.874  14.585
34630W        W 7055  27.594   1.860   1.635
34631W        W 7056  31.822  35.371  12.470
34632W        W 7057   4.464  12.775   1.418
34633W        W 7058  16.766   0.343  12.400
34634W        W 7059  44.917  42.764   2.439
34635W        W 7060  29.681  29.192   1.167
34636W        W 7061  44.042  20.286  11.773
34637W        W 7062  22.998  10.685   0.272
34638W        W 7063   3.221  19.770   1.015
34639W        W 7064  16.027  10.551   4.930
34640W        W 7065  31.069  11.822  13.894
34641W        W 7066  30.048  12.862   2.317
34642W        W 7067  35.161  23.056  12.549
34643W        W 7068   3.480  26.387   2.653
34644W        W 7069  35.605   1.993   3.722
34645W        W 7070  30.249  22.122  13.571
34646W        W 7071  15.585  18.878  12.399
34647W        W 7072   1.363  24.109  11.359
34648W        W 7073  32.838  19.055  14.844
34649W        W 7074   8.835  19.185  10.935
34650W        W 7075  20.659  26.718   2.034
34651W        W 7076  21.566  39.038   1.995
34652W        W 7077  25.617  23.476  13.994
34653W        W 7078   8.582  18.443   0.006
34654W        W 7079  39.101  41.155  13.000
34655W        W 7080   5.998  37.385   2.927
34656W        W 7081  26.428  26.725  13.858
34657W        W 7082  31.267  18.224   5.041
34658W        W 7083   0.469  14.534   4.564
34659W        W 7084  44.553  12.222   1.920
34660W        W 7085  44.893  29.224  10.509
34661W        W 7086  36.849   3.849   3.229
34662W        W 7087  30.384  44.766  11.516
34663W        W 7088  37.040   3.843   2.308
34664W        W 7089  23.730  21.001  13.816
34665W        W 7090  33.109  11.384  14.374
34666W        W 7091  29.192  20.680   2.645
34667W        W 7092  16.296   7.676   3.438
34668W        W 7093  14.550  31.912   0.879
34669W        W 7094  41.980  28.961   2.918
34670W        W 7095  18.099  23.025  12.333
34671W        W 7096  15.691  36.033  11.591
34672W        W 7097  35.750  22.393   4.684
34673W        W 7098  33.568  27.887   1.299
34674W        W 7099   6.720  11.441   1.667
34675W        W 7100  23.046  35.969   4.509
34676W        W 7101   0.893   4.057   0.457
34677W        W 7102   3.921  42.875  13.082
34678W        W 7103  28.499  34.938  13.205
34679W        W 7104  43.234  18.584  13.745
34680W        W 7105   5.711  35.433   1.861
34681W        W 7106  38.968  13.306   4.175
34682W        W 7107  38.804  29.618  11.243
34683W        W 7108  22.798   4.158  14.449
34684W        W 7109   0.316  28.396  14.962
34685W        W 7110   9.349  22.958  13.626
34686W        W 7111  26.235   2.475  12.890
34687W        W 7112  19.303  21.248   1.897
34688W        W 7113   4.101   9.663  10.662
34689W        W 7114  38.084  13.328   0.952
34690W        W 7115  25.958   7.477   4.177
34691W        W 7116  18.966  23.529  13.938
34692W        W 7117  26.970  15.219  14.996
34693W        W 7118  21.404  37.723  13.257
34694W        W 7119   5.686   6.714  11.963
34695W        W 7120  42.012  21.107   3.396
34696W        W 7121  39.357  19.233   2.608
34697W        W 7122   5.445  39.265   2.598
34698W        W 7123   5.824  20.428   2.217
34699W        W 7124  18.631  40.736   1.772
34700W        W 7125  43.196  19.739  10.803
34701W        W 7126   9.660  32.628   2.736
34702W        W 7127  35.018  26.907   1.546
34703W        W 7128  35.669  22.557   3.267
34704W        W 7129  16.956  28.883  13.927
34705W        W 7130  19.727  26.059  12.126
34706W        W 7131  23.718  24.453  12.334
34707W        W 7132   7.782   1.941   0.890
34708W        W 7133  17.059  17.091  12.578
34709W        W 7134  18.448  41.878  14.226
34710W        W 7135  26.542  17.299  14.482
34711W        W 7136   9.821   5.246   0.349
34712W        W 7137  15.110   8.299   4.746
34713W        W 7138  36.096  27.524   4.101
34714W        W 7139  19.847   7.073  13.360
34715W        W 7140  17.573   9.070   4.753
34716W        W 7141   2.013   5.912   0.508
34717W        W 7142   8.295  28.328  14.317
34718W        W 7143  42.404  24.558   0.429
34719W        W 7144   2.253  37.094   2.312
34720W        W 7145  28.111   2.211  10.752
34721W        W 7146  41.369  22.801   0.696
34722W        W 7147  32.848  40.862  13.566
34723W        W 7148   1.952  34.547   2.786
34724W        W 7149  33.633  12.330  13.819
34725W        W 7150  10.230  19.995   1.170
34726W        W 7151   0.468  22.580   1.673
34727W        W 7152   2.772  18.861  11.148
34728W        W 7153  36.365  29.117   3.683
34729W        W 7154  15.451  25.066   2.804
34730W        W 7155  42.230  29.233   3.295
34731W        W 7156  23.197  17.717  11.099
34732W        W 7157  31.909  39.819  10.377
34733W        W 7158  22.609   7.973  11.019
34734W        W 7159   9.663  33.999  14.835
34735W        W 7160  16.950  26.726   3.306
34736W        W 7161  18.744  22.898   2.157
34737W        W 7162  42.512   3.296   2.681
34738W        W 7163  27.538  21.133  13.992
34739W        W 7164  41.190  37.689   2.776
34740W        W 7165  36.314  44.386  14.916
34741W        W 7166  16.197  12.768   2.576
34742W        W 7167  30.401  24.403  10.734
34743W        W 7168  36.222  23.367  10.588
34744W        W 7169  36.033  32.831  14.319
34745W        W 7170   7.537  31.228   4.335
34746W        W 7171  26.947  20.674   3.812
34747W        W 7172  27.028  38.317   4.163
34748W        W 7173  22.143  36.892   1.349
34749W        W 7174  38.032  31.156  10.651
34750W        W 7175   2.399   3.197  14.710
34751W        W 7176  34.316  40.118  14.768
34752W        W 7177   0.822  28.741   4.187
34753W        W 7178  15.313  20.140  11.892
34754W        W 7179  22.189  28.420  12.021
34755W        W 7180  41.272  18.790  14.429
34756W        W 7181  13.484   1.424   0.997
34757W        W 7182  40.274  35.351  11.076
34758W        W 7183  24.620  16.098   3.686
34759W        W 7184  32.373  22.021   2.635
34760W        W 7185   1.113  26.160   1.245
34761W        W 7186  34.385  23.569  12.498
34762W        W 7187   6.419   0.860  10.680
34763W        W 7188  37.594  19.701   4.809
34764W        W 7189  31.721  42.432   3.770
34765W        W 7190   4.346  24.252   2.963
34766W        W 7191  19.029   9.250   3.763
34767W        W 7192   6.466  34.916   2.490
34768W        W 7193   4.163  39.552  14.471
34769W        W 7194  42.912  42.656   2.866
34770W        W 7195   3.259  37.114  14.213
34771W        W 7196  21.250   6.776  12.950
34772W        W 7197  36.549  10.922  11.673
34773W        W 7198  41.869  23.434   0.680
34774W        W 7199  12.774  39.102  11.103
34775W        W 7200  15.297  29.160  10.767
34776W        W 7201  23.204  31.424  11.195
34777W        W 7202   8.854  42.032   4.582
34778W        W 7203  25.160  42.419   3.617
34779W        W 7204  33.523  21.502   1.792
34780W        W 7205  27.218   1.349   3.800
34781W        W 7206  19.557  35.502  12.305
34782W        W 7207   5.224  26.482  11.181
34783W        W 7208  25.013  39.637  10.788
34784W        W 7209  35.322  36.477  12.933
34785W        W 7210  43.245   6.666   2.709
34786W        W 7211  17.629   8.286  11.241
34787W        W 7212  15.152  25.290  11.042
34788W        W 7213  27.170  39.889  13.710
34789W        W 7214  22.273  23.201   3.607
34790W        W 7215   7.870  39.576   4.323
34791W        W 7216  12.246   3.406  10.485
34792W        W 7217  37.371   4.661   3.048
34793W        W 7218  43.047  17.374   4.490
34794W        W 7219  23.886  24.286   1.924
34795W        W 7220   0.934  24.704  13.875
34796W        W 7221   4.017  22.045  14.990
34797W        W 7222  17.806   4.633   4.618
34798W        W 7223  18.714  11.192   1.917
34799W        W 7224   9.180  31.946  14.182
34800W        W 7225  12.497   5.371  12.048
34801W        W 7226  17.332  43.935   2.940
34802W        W 7227  27.740   9.362  14.476
34803W        W 7228  44.760  37.126  12.110
34804W        W 7229   2.611  10.081   4.769
34805W        W 7230  42.344  21.217   1.533
34806W        W 7231  16.915  31.086   1.490
34807W        W 7232  26.030  32.844  14.815
34808W        W 7233  30.590  25.638   0.007
34809W        W 7234  21.959  18.688   3.788
34810W        W 7235   4.865  40.799   1.345
34811W        W 7236   9.001  28.463   2.455
34812W        W 7237  42.506  43.971  13.871
34813W        W 7238  25.957  43.082  12.114
34814W        W 7239  40.410   1.925   4.773
34815W        W 7240  29.726   4.187   2.908
34816W        W 7241  23.081  41.566  14.978
34817W        W 7242  36.903  20.593   0.292
34818W        W 7243   6.005  39.940  12.055
34819W        W 7244  13.494  35.471   1.783
34820W        W 7245  34.801  11.942   5.089
34821W        W 7246  43.779  12.088  11.958
34822W        W 7247   6.417  39.578   1.315
34823W        W 7248  13.752  38.835   1.573
34824W        W 7249   3.733  25.907  10.680
34825W        W 7250  17.796  21.607   0.367
34826W        W 7251  22.590  40.735  12.401
34827W        W 7252  32.667  37.981  14.454
34828W        W 7253  21.647  23.358  12.439
34829W        W 7254   0.415  22.878  13.799
34830W        W 7255  20.119  44.283   0.472
34831W        W 7256  13.657  11.651   0.482
34832W        W 7257  12.822  37.125   1.680
34833W        W 7258  22.313   6.736   2.343
34834W        W 7259  10.499  41.877   0.867
34835W        W 7260  31.466  32.407  11.479
34836W        W 7261  14.767  33.123   3.336
34837W        W 7262  19.626   1.330   3.864
34838W        W 7263  10.881  36.876  10.860
34839W        W 7264  27.943  26.535   0.595
34840W        W 7265  20.792  10.277  12.442
34841W        W 7266  30.463   7.806  11.090
34842W        W 7267   0.413  37.084   0.767
34843W        W 7268  40.671  22.041   0.589
34844W        W 7269  11.641  33.703   0.796
34845W        W 7270  10.362  21.483   0.793
34846W        W 7271  24.076   0.200  11.070
34847W        W 7272   9.060   3.678   0.498
34848W        W 7273   5.959  21.171  12.936
34849W        W 7274  24.525  40.891  13.992
34850W        W 7275  29.195   5.829  11.577
34851W        W 7276   1.205   7.218  13.391
34852W        W 7277   7.449  12.421  14.377
34853W        W 7278   5.194  19.839   3.375
34854W        W 7279  23.468  43.020  13.989
34855W        W 7280  20.117  19.119   0.183
34856W        W 7281  20.204  13.153   3.337
34857W        W 7282  37.303  20.599  10.376
34858W        W 7283  33.396   1.866  10.722
34859W        W 7284  41.916  16.856  14.054
34860W        W 7285  18.153  40.897   1.784
34861W        W 7286  22.553   0.308  11.611
34862W        W 7287  25.504  32.252  10.672
34863W        W 7288   7.682  39.138   2.340
34864W        W 7289  20.143  40.162   2.287
34865W        W 7290  22.138  37.035   0.842
34866W        W 7291  14.105  22.347  14.715
34867W        W 7292  17.336  12.652   4.336
34868W        W 7293  13.698  40.605   1.346
34869W        W 7294  41.915   2.871  14.214
34870W        W 7295   7.697  40.575  14.864
34871W        W 7296  33.423  23.192   0.854
34872W        W 7297  39.080  41.986   3.916
34873W        W 7298  44.685  24.805   3.576
34874W        W 7299  10.849  41.631  14.270
34875W        W 7300  39.778   0.247  10.243
34876W        W 7301  19.225  41.553   1.785
34877W        W 7302  14.423   3.314  12.412
34878W        W 7303  26.195   1.752  11.876
34879W        W 7304  13.143  11.434  14.845
34880W        W 7305  35.671  19.746  11.556
34881W        W 7306  15.894  23.717  13.911
34882W        W 7307  38.357  39.006   1.778
34883W        W 7308  44.057  17.752   3.227
34884W        W 7309  15.195  26.124  14.902
34885W        W 7310  27.842  10.894  12.988
34886W        W 7311  42.523  27.070  10.850
34887W        W 7312  25.247   3.410   3.417
34888W        W 7313  31.549  31.398   2.716
34889W        W 7314  27.764  26.897   2.284
34890W        W 7315  20.775  33.619   4.639
34891W        W 7316  20.646  43.185   0.858
34892W        W 7317  21.337  43.049  11.943
34893W        W 7318  34.305  19.949   4.644
34894W        W 7319  16.339  16.202   2.625
34895W        W 7320  12.970  41.995   4.413
34896W        W 7321  18.521  18.090   5.114
34897W        W 7322  43.333   8.211  13.238
34898W        W 7323  36.456   6.297   9.953
34899W        W 7324  13.436  26.840  13.689
34900W        W 7325   0.459  11.294   3.929
34901W        W 7326   2.253  40.047  14.449
34902W        W 7327   8.233   4.030   1.636
34903W        W 7328  23.196  35.500  14.901
34904W        W 7329   8.346   8.673  12.083
34905W        W 7330   5.514   1.838   0.378
34906W        W 7331  44.349  10.813   2.423
34907W        W 7332  25.552  32.955   1.214
34908W        W 7333  15.269  30.679   4.189
34909W        W 7334  35.004  41.817  13.424
34910W        W 7335  13.114  14.191  12.050
34911W        W 7336  35.724   2.805   3.217
34912W        W 7337  44.219  32.367  11.190
34913W        W 7338  13.769  36.063  11.997
34914W        W 7339  28.621  26.321   0.968
34915W        W 7340  17.143  36.897   2.402
34916W        W 7341   1.284  29.624  10.722
34917W        W 7342  24.933  40.947  12.341
34918W        W 7343  39.069  15.607   1.236
34919W        W 7344  23.792  33.495  14.971
34920W        W 7345   5.923   8.603  11.189
34921W        W 7346  24.851  22.402   1.315
34922W        W 7347  40.560  40.114   0.739
34923W        W 7348  38.779  31.155  12.947
34924W        W 7349   8.745  10.807  12.615
34925W        W 7350  19.796  32.096   5.718
34926W        W 7351  38.412  11.248  13.549
34927W        W 7352  20.605  32.377  11.686
34928W        W 7353  13.594   6.358   4.693
34929W        W 7354  39.382  26.109   2.321
34930W        W 7355   6.905   6.801   1.593
34931W        W 7356  20.504  22.993   4.182
34932W        W 7357  19.682  19.981   2.948
34933W        W 7358  24.532   9.623  13.408
34934W        W 7359  17.432  39.916   2.746
34935W        W 7360   1.387  22.869   4.074
34936W        W 7361  37.651  20.705   1.909
34937W        W 7362   5.323   7.253   1.120
34938W        W 7363   9.639  11.849  10.689
34939W        W 7364  11.726  12.419   4.240
34940W        W 7365   4.749  19.013   2.214
34941W        W 7366  27.983  21.595   4.584
34942W        W 7367   2.397  17.142   1.003
34943W        W 7368  27.132  18.120   4.699
34944W        W 7369   8.956  20.216  10.854
34945W        W 7370  25.014  33.377  11.034
34946W        W 7371   1.486  40.498   2.300
34947W        W 7372  30.213  34.315  11.519
34948W        W 7373  34.483  16.828  12.364
34949W        W 7374  44.478  34.379   4.584
34950W        W 7375  36.406  31.381  13.500
34951W        W 7376  12.579   1.188   2.651
34952W        W 7377  38.930  14.741   2.036
34953W        W 7378  25.204  34.874  11.474
34954W        W 7379   7.779   9.353   4.715
34955W        W 7380   3.219  29.136  11.030
34956W        W 7381  41.393  41.903   2.180
34957W        W 7382  25.065   9.091   5.399
34958W        W 7383  44.831  23.716   4.530
34959W        W 7384   1.460  19.074  11.873
34960W        W 7385  10.752  17.944   2.418
34961W        W 7386  22.912  17.790   1.769
34962W        W 7387  16.555  18.906   2.325
34963W        W 7388  14.186  23.633   0.820
34964W        W 7389  44.260   9.421   2.773
34965W        W 7390  18.588  25.247   2.793
34966W        W 7391  23.157  34.683   3.697
34967W        W 7392  15.147  13.612   3.361
34968W        W 7393   0.559  22.028   0.482
34969W        W 7394  30.885   4.777   3.567
34970W        W 7395  23.689  31.239  14.975
34971W        W 7396  40.884  34.499   0.121
34972W        W 7397  10.894  40.873   4.696
34973W        W 7398  33.636  25.323  12.485
34974W        W 7399  34.029  39.974  12.164
34975W        W 7400  25.129  40.413   4.159
34976W        W 7401   8.253  24.437  11.625
34977W        W 7402  15.019  21.261  10.703
34978W        W 7403   6.249  42.696  10.618
34979W        W 7404   9.862  39.264   2.902
34980W        W 7405  25.139  33.808  14.929
34981W        W 7406  22.745  13.155   1.721
34982W        W 7407  36.192  15.661   1.747
34983W        W 7408  21.708  22.128  14.013
34984W        W 7409  16.575   7.169  12.936
34985W        W 7410  42.382  42.586   1.297
34986W        W 7411  11.439   7.870  13.022
34987W        W 7412  16.284  37.531  12.054
34988W        W 7413  40.428  35.591   1.158
34989W        W 7414  19.206   4.327   3.659
34990W        W 7415  27.973  12.423  11.107
34991W        W 7416  34.443  43.489   3.742
34992W        W 7417  43.325   8.900   4.646
34993W        W 7418  40.370  44.439  11.105
34994W        W 7419   9.719  16.820  11.213
34995W        W 7420  38.243  25.421   0.697
34996W        W 7421   4.834   0.607   1.291
34997W        W 7422  38.944   2.527   0.532
34998W        W 7423   3.407  11.295   1.172
34999W        W 7424  14.726   1.384   4.411
35000W        W 7425  11.654   2.734  13.346
35001W        W 7426  31.463  13.129   0.795
35002W        W 7427  30.136  22.058   4.137
35003W        W 7428   9.405  12.872   2.683
35004W        W 7429  29.474  21.258  10.625
35005W        W 7430  40.930  44.147  12.483
35006W        W 7431  17.617  38.300  10.988
35007W        W 7432  16.773  26.646  10.617
35008W        W 7433  36.488  23.728  10.817
35009W        W 7434  31.523  40.818  11.892
35010W        W 7435  24.133  14.785   2.693
35011W        W 7436   3.028  42.367  11.595
35012W        W 7437   6.271  41.456   4.603
35013W        W 7438  34.653  43.981  12.499
35014W        W 7439  42.221  38.565  11.451
35015W        W 7440  14.315  19.629  13.422
35016W        W 7441  37.369  24.614   4.412
35017W        W 7442  29.973   5.866  13.882
35018W        W 7443  20.614   9.632   4.123
35019W        W 7444  32.739  44.109   1.636
35020W        W 7445   3.207  41.624  12.100
35021W        W 7446  12.104  38.282  11.943
35022W        W 7447   9.409  38.379  13.522
35023W        W 7448  31.844  24.505  10.472
35024W        W 7449   5.990  16.847   1.515
35025W        W 7450  29.069  31.438  10.615
35026W        W 7451  29.020  41.035   1.373
35027W        W 7452   1.675   4.061   4.079
35028W        W 7453  31.052  19.847  14.405
35029W        W 7454  12.341  26.421   0.010
35030W        W 7455  35.353  12.597  13.802
35031W        W 7456  43.454  27.101  13.692
35032W        W 7457  29.275  27.361   1.465
35033W        W 7458  19.468   6.781   0.750
35034W        W 7459  28.088  26.644   2.628
35035W        W 7460  33.625  17.960   9.854
35036W        W 7461   2.460  31.176   3.184
35037W        W 7462  30.631   4.946   0.838
35038W        W 7463  35.380   0.445  12.961
35039W        W 7464   8.279  27.282  14.376
35040W        W 7465  31.344  24.166  12.342
35041W        W 7466  33.343  39.333   4.258
35042W        W 7467  13.669   3.468  14.302
35043W        W 7468  14.682  27.452  11.725
35044W        W 7469  26.569  35.998  12.294
35045W        W 7470  15.486  22.747   9.860
35046W        W 7471   8.976  37.791   5.147
35047W        W 7472  11.834   5.659   4.849
35048W        W 7473   7.203  12.865   3.813
35049W        W 7474  11.100  15.643   2.383
35050W        W 7475   2.274  37.012   1.222
35051W        W 7476  27.564  11.057  11.046
35052W        W 7477  26.132   6.921   3.322
35053W        W 7478   9.168   9.368  10.982
35054W        W 7479  44.145  23.542   0.083
35055W        W 7480   2.542  13.328  11.682
35056W        W 7481  31.020  28.733   1.319
35057W        W 7482   9.469  26.660   5.077
35058W        W 7483  43.115  23.670  14.496
35059W        W 7484   5.939  42.473  11.600
35060W        W 7485  12.814  11.404   4.082
35061W        W 7486  15.291   9.904  14.450
35062W        W 7487  42.378  27.088   1.331
35063W        W 7488  35.479  12.822  12.434
35064W        W 7489   9.177  36.429   4.560
35065W        W 7490  15.323  39.878   1.898
35066W        W 7491   8.677  27.521  13.642
35067W        W 7492  34.550  15.312   0.427
35068W        W 7493  39.966  13.595   2.265
35069W        W 7494  30.206  25.309  10.530
35070W        W 7495  21.195  43.834   2.362
35071W        W 7496  30.633  33.960  11.584
35072W        W 7497  23.500   7.195   4.812
35073W        W 7498  28.676  41.821  14.415
35074W        W 7499   4.560  38.846  11.087
35075W        W 7500   6.713   5.098   2.161
35076W        W 7501  11.906  36.438  11.173
35077W        W 7502   0.500  13.377   4.597
35078W        W 7503  27.033  44.525  12.543
35079W        W 7504   8.748  31.217  11.230
35080W        W 7505   1.709  43.358  12.980
35081W        W 7506  11.937  37.977   0.639
35082W        W 7507   4.849  41.273  10.685
35083W        W 7508  18.853   1.340   0.433
35084W        W 7509  21.795  31.751   0.333
35085W        W 7510  36.452  39.017  10.583
35086W        W 7511   9.822   6.658   2.932
35087W        W 7512  35.200  13.308  13.513
35088W        W 7513  40.800  43.305   4.582
35089W        W 7514  30.068   2.448  10.330
35090W        W 7515  13.677   2.706   2.727
35091W        W 7516   3.168   8.823  13.051
35092W        W 7517  29.026  14.941  14.582
35093W        W 7518   2.916  22.179   4.796
35094W        W 7519   2.733  11.209  10.697
35095W        W 7520  42.351  20.918  14.228
35096W        W 7521  18.360   6.161   2.694
35097W        W 7522  16.139  34.670   4.719
35098W        W 7523  42.804  25.679   1.695
35099W        W 7524  40.900  17.499   3.413
35100W        W 7525  13.325  42.024   0.768
35101W        W 7526  10.269   2.465   4.886
35102W        W 7527   8.425  17.633  11.379
35103W        W 7528  26.610  18.803   3.764
35104W        W 7529   9.172  42.901  14.451
35105W        W 7530  41.884  12.078   0.744
35106W        W 7531   3.926  30.994   2.304
35107W        W 7532   0.377  28.431   0.935
35108W        W 7533  19.224   4.521   2.168
35109W        W 7534  35.517  10.081  11.087
35110W        W 7535  42.213  44.394  10.888
35111W        W 7536  11.348   8.069   0.442
35112W        W 7537  28.985  37.106  13.954
35113W        W 7538  35.561  36.299  13.387
35114W        W 7539  35.345  26.159   3.661
35115W        W 7540  34.256  29.780  13.868
35116W        W 7541  17.335  26.001  13.328
35117W        W 7542  16.848  19.598   4.492
35118W        W 7543  21.683   7.818   0.340
35119W        W 7544   6.232  19.752   0.765
35120W        W 7545  40.075   6.674   1.218
35121W        W 7546  28.085  28.146   0.845
35122W        W 7547  19.242  34.750  13.301
35123W        W 7548   1.228   1.566  12.087
35124W        W 7549  12.687   1.843   0.077
35125W        W 7550  11.279  11.594  13.554
35126W        W 7551  11.982  31.938  11.515
35127W        W 7552   4.326  40.111   0.797
35128W        W 7553  33.944  17.116  12.864
35129W        W 7554  10.302  43.345  11.056
35130W        W 7555   3.701  10.652   0.016
35131W        W 7556  37.015  29.684  11.144
35132W        W 7557  20.496  18.835  11.678
35133W        W 7558  35.110  10.710  14.473
35134W        W 7559  40.114  35.414   1.831
35135W        W 7560   8.157   9.741   4.054
35136W        W 7561  40.396  42.293   0.666
35137W        W 7562  25.139  15.233   2.097
35138W        W 7563  16.995   6.334  14.048
35139W        W 7564  16.295  23.203   0.805
35140W        W 7565  33.810  37.077   2.702
35141W        W 7566  44.975  25.034  12.037
35142W        W 7567  43.515  15.607   1.328
35143W        W 7568  17.492  14.614   3.269
35144W        W 7569  10.608  29.727   4.691
35145W        W 7570  33.974  19.749   5.180
35146W        W 7571  13.427  42.071  10.326
35147W        W 7572   4.738  11.303   3.803
35148W        W 7573  33.354  10.122  10.906
35149W        W 7574  26.604  37.050   2.149
35150W        W 7575  36.802   4.509  14.476
35151W        W 7576  14.337   9.734  11.776
35152W        W 7577  42.519  22.592   0.767
35153W        W 7578  17.708  11.111  14.374
35154W        W 7579   9.229  24.150   3.345
35155W        W 7580   1.970  36.519   2.948
35156W        W 7581  37.344  33.524  12.145
35157W        W 7582  19.995  11.337  13.870
35158W        W 7583  41.292   5.746   1.480
35159W        W 7584   2.982  37.991   2.807
35160W        W 7585  34.479  17.770   4.350
35161W        W 7586  24.945  35.692   0.309
35162W        W 7587  19.345   5.123  10.720
35163W        W 7588  38.100   6.794  11.567
35164W        W 7589  14.218  40.540  11.384
35165W        W 7590  19.867  38.583  12.941
35166W        W 7591   0.035  21.232   0.985
35167W        W 7592  35.529  18.535  14.798
35168W        W 7593   8.855  14.336  12.027
35169W        W 7594  32.309  36.942  14.263
35170W        W 7595  10.844   0.878   0.443
35171W        W 7596  40.386  19.199  13.445
35172W        W 7597  33.859  25.110  14.522
35173W        W 7598  31.577  42.484  13.739
35174W        W 7599   2.498   6.117  13.018
35175W        W 7600   5.427  36.364   0.683
35176W        W 7601  33.069  20.107  12.295
35177W        W 7602   5.908   4.038  11.152
35178W        W 7603   4.676  29.959   3.618
35179W        W 7604   0.713   1.321   4.657
35180W        W 7605  26.130  27.164   1.767
35181W        W 7606  20.166  29.828   0.781
35182W        W 7607   7.921   5.467   1.903
35183W        W 7608  18.443  28.280  14.836
35184W        W 7609  31.886  13.879   0.432
35185W        W 7610  23.129  32.357  11.127
35186W        W 7611  13.606  29.248   1.500
35187W        W 7612  23.956  24.534  11.041
35188W        W 7613   3.192   5.302   1.767
35189W        W 7614  12.644  24.705   3.291
35190W        W 7615  20.649   2.677   3.254
35191W        W 7616  16.734   5.915   4.763
35192W        W 7617  30.011  41.700   2.718
35193W        W 7618  20.208  29.853   9.648
35194W        W 7619  30.151  26.192   0.453
35195W        W 7620  23.648  36.066  14.149
35196W        W 7621  36.026  11.123  11.702
35197W        W 7622  40.408   2.449  11.215
35198W        W 7623  25.526  30.356  13.031
35199W        W 7624  39.978   1.447   2.021
35200W        W 7625  28.449  25.434  11.019
35201W        W 7626   2.676   9.505  13.012
35202W        W 7627   9.801  39.778   2.812
35203W        W 7628  23.582  17.202  11.523
35204W        W 7629  42.620  26.697   9.971
35205W        W 7630   6.575  15.786   5.001
35206W        W 7631  25.211  13.659  12.016
35207W        W 7632  37.848  28.685  13.847
35208W        W 7633  37.063  36.993  12.587
35209W        W 7634  31.607   8.984  10.984
35210W        W 7635  18.562  19.002   0.001
35211W        W 7636  41.743  22.033  12.970
35212W        W 7637  36.420  21.275  12.141
35213W        W 7638  18.268  32.234   9.708
35214W        W 7639   0.516  18.833  11.157
35215W        W 7640  12.263  38.717  14.342
35216W        W 7641  15.798  13.605   4.556
35217W        W 7642  35.422  15.682   2.756
35218W        W 7643  27.020  40.839   0.922
35219W        W 7644  36.378   0.830   3.822
35220W        W 7645  40.312  33.287  13.581
35221W        W 7646  23.547   5.312  14.396
35222W        W 7647  18.683   3.296  13.540
35223W        W 7648  25.081  32.830  12.580
35224W        W 7649   5.642  44.165   0.468
35225W        W 7650  24.172  37.181  10.674
35226W        W 7651  32.134   6.133  12.600
35227W        W 7652   1.389  37.137  11.201
35228W        W 7653  43.351   0.049   0.371
35229W        W 7654   5.335  23.696   3.917
35230W        W 7655  36.319  14.301   3.241
35231W        W 7656  27.386   8.883   4.100
35232W        W 7657  20.089  33.838  11.501
35233W        W 7658  11.835   8.552   4.078
35234W        W 7659  23.921  26.728  11.405
35235W        W 7660   3.938  43.639  14.725
35236W        W 7661  13.077  13.070   2.745
35237W        W 7662  16.719  25.538   3.898
35238W        W 7663   1.747  41.660  11.806
35239W        W 7664  44.542   6.614  13.355
35240W        W 7665  21.099  43.191   3.189
35241W        W 7666   1.473  29.058   0.814
35242W        W 7667  13.029  39.359  14.515
35243W        W 7668  23.656  40.112  11.740
35244W        W 7669  14.929  24.252   0.379
35245W        W 7670  35.369   9.712   2.601
35246W        W 7671  14.097   6.947   0.391
35247W        W 7672   6.515   0.779   3.076
35248W        W 7673   9.565  34.339  12.823
35249W        W 7674  24.617  33.575   2.302
35250W        W 7675  12.080  34.662  13.348
35251W        W 7676  24.991  41.056  14.743
35252W        W 7677  44.444  43.530   3.763
35253W        W 7678  26.177  35.483   0.660
35254W        W 7679  31.381  24.088   1.396
35255W        W 7680   8.306  37.913  13.911
35256W        W 7681  31.913  41.988  13.426
35257W        W 7682  39.856  35.339  12.900
35258W        W 7683  16.332   5.674   2.408
35259W        W 7684   3.790  11.174  14.293
35260W        W 7685  12.354  42.066   4.951
35261W        W 7686   2.911  35.473   2.786
35262W        W 7687   0.962  32.100   4.176
35263W        W 7688  18.358  40.056   2.172
35264W        W 7689  24.160  16.627   1.657
35265W        W 7690  23.573  22.668  14.847
35266W        W 7691   7.791  24.782  13.394
35267W        W 7692  11.779  18.095  10.631
35268W        W 7693  40.279  34.506  13.042
35269W        W 7694  15.139  14.261  12.096
35270W        W 7695  40.941  34.163  12.361
35271W        W 7696   9.478  44.220  10.944
35272W        W 7697   0.993  35.889   1.109
35273W        W 7698  12.810  37.194  13.189
35274W        W 7699  29.317   9.927  12.611
35275W        W 7700  38.355   9.250  11.046
35276W        W 7701   1.312  38.285   4.434
35277W        W 7702  11.757   9.235   1.951
35278W        W 7703   4.977   5.293  12.033
35279W        W 7704  27.622  25.377   2.977
35280W        W 7705  21.763  41.875   0.851
35281W        W 7706  11.308  17.600  14.511
35282W        W 7707  34.915  24.617   1.404
35283W        W 7708  19.033  24.682   4.604
35284W        W 7709  18.565  28.477   0.362
35285W        W 7710  24.255  29.542   3.259
35286W        W 7711  37.565  12.193  11.608
35287W        W 7712  13.331  11.398  11.662
35288W        W 7713  23.186  22.215  10.643
35289W        W 7714   5.261  32.902  14.570
35290W        W 7715  16.568  22.230  11.939
35291W        W 7716  28.087  10.165  11.121
35292W        W 7717  38.817   9.573  14.416
35293W        W 7718  20.259  25.755   3.751
35294W        W 7719   6.790  28.711   3.560
35295W        W 7720  18.036  22.178  13.758
35296W        W 7721  32.504  27.194   4.365
35297W        W 7722   8.111   3.093   2.749
35298W        W 7723  11.849  27.558  12.366
35299W        W 7724   9.441  23.254  14.534
35300W        W 7725  24.468  11.213   3.875
35301W        W 7726  18.991  30.054  13.776
35302W        W 7727  41.902  12.692  10.746
35303W        W 7728   3.104  39.499   2.625
35304W        W 7729  20.018   8.776   0.790
35305W        W 7730   7.347  33.503   3.844
35306W        W 7731  20.107  36.311   1.809
35307W        W 7732  42.551  19.084  14.244
35308W        W 7733  35.753   4.425   1.417
35309W        W 7734  16.762   7.804  11.150
35310W        W 7735  20.682  33.195   3.881
35311W        W 7736  32.131  22.263  14.918
35312W        W 7737   4.877  40.214   4.124
35313W        W 7738  38.500  22.755  11.845
35314W        W 7739  31.557   5.139  12.802
35315W        W 7740  30.054   1.925   4.397
35316W        W 7741  44.962  13.480  12.866
35317W        W 7742  16.978  40.306   1.348
35318W        W 7743   7.322  32.381  11.977
35319W        W 7744  20.984   6.175   0.820
35320W        W 7745  36.646  32.412   4.824
35321W        W 7746  12.219  17.822  14.029
35322W        W 7747   3.814  41.964   4.545
35323W        W 7748  42.133  39.053   5.010
35324W        W 7749  16.096  22.592   1.103
35325W        W 7750  19.385  10.410  12.584
35326W        W 7751   2.557  36.189   2.115
35327W        W 7752  23.987   3.553  12.988
35328W        W 7753   5.811  13.115  12.877
35329W        W 7754  26.084  10.837  10.735
35330W        W 7755  13.260   0.335  14.048
35331W        W 7756  34.240   6.387   0.115
35332W        W 7757  24.888  36.794   5.203
35333W        W 7758  27.497  14.580   1.277
35334W        W 7759  42.368  40.497  11.615
35335W        W 7760  44.094  13.337   3.270
35336W        W 7761  19.269  39.894   4.580
35337W        W 7762   5.919  42.981   3.744
35338W        W 7763  13.737  22.655   0.703
35339W        W 7764  26.499  19.053  14.837
35340W        W 7765   4.050   1.960   0.330
35341W        W 7766   6.756   2.964  11.558
35342W        W 7767   2.832  23.527   2.111
35343W        W 7768   9.158  10.007   3.338
35344W        W 7769  20.106  31.507   5.099
35345W        W 7770  22.823  42.029  14.960
35346W        W 7771  12.024  25.600  12.035
35347W        W 7772  11.909   9.161   4.620
35348W        W 7773  39.435  20.235   4.496
35349W        W 7774   1.963  35.507  14.272
35350W        W 7775  17.103  29.235   0.336
35351W        W 7776  26.000  35.848   3.758
35352W        W 7777  40.995  34.951   0.943
35353W        W 7778  26.733  40.018  12.128
35354W        W 7779  33.718  31.981  14.956
35355W        W 7780  29.714  24.385  12.088
35356W        W 7781   1.359  10.600   1.866
35357W        W 7782   5.859   1.319  12.791
35358W        W 7783  13.031   9.932  14.812
35359W        W 7784  35.177  34.109   0.546
35360W        W 7785  16.213  29.355   1.287
35361W        W 7786   0.757  42.746  13.019
35362W        W 7787  17.247   7.371  12.411
35363W        W 7788  34.539  10.753  11.920
35364W        W 7789   9.864  30.248   2.790
35365W        W 7790  27.493  28.615   1.778
35366W        W 7791  30.095  20.612   1.161
35367W        W 7792  34.642   2.307   0.700
35368W        W 7793  29.581   3.249  12.143
35369W        W 7794  28.266  11.897  11.985
35370W        W 7795  36.840   9.766  13.433
35371W        W 7796  21.035   6.914  11.922
35372W        W 7797  14.961  31.864   0.559
35373W        W 7798   9.426  14.205   4.157
35374W        W 7799  18.566   3.496  12.124
35375W        W 7800  14.885  23.728   0.424
35376W        W 7801  22.560  34.134   2.608
35377W        W 7802  41.547  19.510  14.910
35378W        W 7803  28.479   0.075   0.757
35379W        W 7804   2.424  32.442   1.703
35380W        W 7805  10.374  16.759   1.961
35381W        W 7806  24.963  12.906  13.392
35382W        W 7807   1.671  31.745   3.632
35383W        W 7808  18.615  39.808   4.038
35384W        W 7809  15.031  41.056   0.502
35385W        W 7810  36.902  24.341   4.160
35386W        W 7811   5.867  43.394   0.582
35387W        W 7812  32.456   5.279   1.761
35388W        W 7813  24.302   2.827   4.696
35389W        W 7814  41.932   5.870   2.255
35390W        W 7815  38.042  36.105  13.585
35391W        W 7816  41.473  41.602  14.925
35392W        W 7817   6.411   5.135  13.537
35393W        W 7818   1.426   1.778  13.914
35394W        W 7819  15.803  42.398   0.444
35395W        W 7820   0.060  34.413   1.656
35396W        W 7821   7.666   8.360   3.008
35397W        W 7822  22.607  15.144  12.185
35398W        W 7823  13.378   2.109  12.172
35399W        W 7824   2.987  11.774  13.353
35400W        W 7825  20.669   6.632   0.822
35401W        W 7826  20.294  21.492  14.831
35402W        W 7827   7.413  33.845   0.408
35403W        W 7828  12.751  33.971   4.829
35404W        W 7829  23.543  39.327   0.908
35405W        W 7830   9.441  25.001  13.994
35406W        W 7831  20.719  21.739  13.982
35407W        W 7832  20.712  23.709  14.160
35408W        W 7833  32.318  25.216   2.806
35409W        W 7834   8.717   8.868  13.338
35410W        W 7835  18.621   3.022  14.008
35411W        W 7836   5.304   5.770   2.482
35412W        W 7837   6.482  44.370   4.106
35413W        W 7838  14.265   3.865   2.715
35414W        W 7839  14.330  33.864   3.683
35415W        W 7840  27.955   9.374  10.888
35416W        W 7841  32.403  13.592   0.464
35417W        W 7842  28.268  39.771   5.162
35418W        W 7843  31.038  26.102   2.918
35419W        W 7844  44.468  19.261  13.888
35420W        W 7845  34.527   8.658  13.576
35421W        W 7846   0.468  43.955  13.275
35422W        W 7847  10.697  10.680  13.811
35423W        W 7848  41.109  32.581  12.346
35424W        W 7849  38.941  42.116   4.978
35425W        W 7850  43.052   8.624   1.653
35426W        W 7851  13.400  44.779   2.256
35427W        W 7852  21.633  24.905   4.535
35428W        W 7853  19.021  16.235   3.261
35429W        W 7854  24.457  35.076  13.432
35430W        W 7855  27.121  33.155  10.263
35431W        W 7856  27.940   2.069  12.451
35432W        W 7857  22.593  10.140   0.731
35433W        W 7858   0.883  36.155  14.707
35434W        W 7859  26.760  17.118   0.314
35435W        W 7860  18.551  35.324  11.628
35436W        W 7861  31.079  29.770   4.189
35437W        W 7862   2.484  13.946  10.698
35438W        W 7863  35.635   8.212   3.705
35439W        W 7864  42.773  44.302   0.004
35440W        W 7865  30.853  14.534  11.987
35441W        W 7866  30.236  32.019   1.226
35442W        W 7867   7.738   7.784   0.069
35443W        W 7868   1.900  27.016  11.704
35444W        W 7869  23.000   0.876   2.894
35445W        W 7870  37.457   8.651  14.658
35446W        W 7871  13.153  18.230  13.088
35447W        W 7872   5.775  19.418   2.232
35448W        W 7873  16.839  25.609  14.308
35449W        W 7874  34.903  37.194  14.921
35450W        W 7875  25.596  22.533  13.939
35451W        W 7876  41.566  32.106   2.942
35452W        W 7877  44.526  15.170  11.068
35453W        W 7878  12.661  42.019  13.918
35454W        W 7879  12.205   4.351   0.695
35455W        W 7880  29.452  38.629  14.405
35456W        W 7881  35.936  38.886  14.484
35457W        W 7882  25.187  40.076  13.888
35458W        W 7883  30.083  36.104   0.695
35459W        W 7884  20.735  31.560  13.740
35460W        W 7885  21.747  23.024  12.836
35461W        W 7886  11.127  28.913   3.129
35462W        W 7887  32.454  25.530  14.298
35463W        W 7888  14.370  24.054   3.301
35464W        W 7889  43.025  44.152   2.286
35465W        W 7890  18.679   5.306   4.214
35466W        W 7891  38.424   1.246  11.099
35467W        W 7892  26.299   9.782   1.836
35468W        W 7893  19.134  14.884  12.586
35469W        W 7894  33.975  31.035   3.669
35470W        W 7895  21.971  24.826   1.927
35471W        W 7896  16.791   5.742   2.687
35472W        W 7897  16.980  28.159   1.787
35473W        W 7898  14.280  14.130   3.800
35474W        W 7899  34.398  39.860  11.818
35475W        W 7900  35.969  30.181   1.576
35476W        W 7901  18.938  35.860   0.253
35477W        W 7902  32.224  14.457   4.626
35478W        W 7903  22.435   1.991  10.258
35479W        W 7904  18.105  15.405  11.486
35480W        W 7905  17.535  17.974  13.815
35481W        W 7906  22.980  28.621   1.029
35482W        W 7907  13.680   1.900   1.444
35483W        W 7908  40.998   8.409   4.640
35484W        W 7909  44.807  35.628  14.620
35485W        W 7910   3.465   3.410   1.895
35486W        W 7911  35.836  26.196   3.801
35487W        W 7912  38.301  33.014  13.068
35488W        W 7913  17.217  10.117   4.694
35489W        W 7914  17.682   6.931  14.380
35490W        W 7915   5.353  41.600  11.589
35491W        W 7916  30.980  35.473   0.221
35492W        W 7917  44.956  19.139  11.627
35493W        W 7918  40.300   0.812   3.667
35494W        W 7919  39.334   7.878  14.447
35495W        W 7920   2.494  39.252   2.312
35496W        W 7921   3.927  36.366  13.190
35497W        W 7922  36.219  17.184   3.885
35498W        W 7923   8.872  36.138  12.205
35499W        W 7924  44.806  15.618   1.031
35500W        W 7925  25.166  42.123   1.290
35501W        W 7926  42.690  18.200   3.088
35502W        W 7927  35.372   8.265   1.160
35503W        W 7928   1.244  13.796   2.276
35504W        W 7929  40.507  37.394   2.677
35505W        W 7930  18.731  21.186  12.426
35506W        W 7931  29.637  44.794   4.059
35507W        W 7932  32.517   8.349   3.251
35508W        W 7933  32.982  40.282   4.088
35509W        W 7934   6.185  22.088   2.635
35510W        W 7935   0.058  28.053  11.391
35511W        W 7936  15.621  33.132  14.527
35512W        W 7937  41.849  14.103   0.724
35513W        W 7938  41.870   5.195   0.288
35514W        W 7939   7.904  43.737   4.315
35515W        W 7940   1.316   4.290  13.435
35516W        W 7941  21.622   8.286   4.676
35517W        W 7942  28.612  15.363   4.522
35518W        W 7943  24.700  10.685  14.087
35519W        W 7944   2.741  12.763  14.364
35520W        W 7945  11.729   6.621   1.012
35521W        W 7946   3.883  25.917  12.430
35522W        W 7947  19.236  10.091   9.949
35523W        W 7948  20.209  25.456   0.076
35524W        W 7949  18.196   6.798  14.284
35525W        W 7950  16.297   9.087   4.653
35526W        W 7951  34.431   7.241  11.346
35527W        W 7952  24.055  29.679   2.774
35528W        W 7953  17.872   7.709   2.638
35529W        W 7954  31.519  38.551  10.559
35530W        W 7955  34.852  30.859  10.224
35531W        W 7956  12.482  33.841  10.535
35532W        W 7957  23.425  16.119  14.822
35533W        W 7958  10.450  22.907   2.633
35534W        W 7959  41.537  39.891   2.160
35535W        W 7960   3.847  40.908   1.276
35536W        W 7961  16.742  32.464   9.735
35537W        W 7962  24.233  18.537  13.889
35538W        W 7963   2.751  13.613  13.847
35539W        W 7964  41.333   8.307  14.650
35540W        W 7965  18.775  41.785  11.948
35541W        W 7966  22.491  31.052   0.579
35542W        W 7967   4.899  25.507  14.470
35543W        W 7968   2.390  44.594  11.516
35544W        W 7969  21.060  17.256   4.703
35545W        W 7970  41.677  17.416  11.645
35546W        W 7971  37.372   5.561  13.053
35547W        W 7972  27.171  16.850  12.674
35548W        W 7973  44.808   3.697  12.905
35549W        W 7974  33.864  26.088  14.954
35550W        W 7975  23.028   9.088  14.458
35551W        W 7976  21.029   2.349  14.610
35552W        W 7977  42.158   1.857  10.861
35553W        W 7978   5.501   9.395  10.692
35554W        W 7979   5.886   7.535  12.952
35555W        W 7980  31.978   6.956  13.998
35556W        W 7981  33.959  43.075  14.024
35557W        W 7982  44.884  19.063   2.688
35558W        W 7983   2.760  11.233   3.346
35559W        W 7984  17.496   2.829   4.495
35560W        W 7985  16.299  10.161  14.377
35561W        W 7986   5.713  23.737   2.181
35562W        W 7987  38.153  10.753   1.328
35563W        W 7988   0.300   3.894   2.662
35564W        W 7989  15.162  31.964  11.099
35565W        W 7990  12.552  43.817   0.239
35566W        W 7991  17.057   8.899  12.108
35567W        W 7992  15.501  12.108  12.940
35568W        W 7993  24.597  16.320   3.137
35569W        W 7994   9.338  36.994   4.523
35570W        W 7995  24.720  14.271   1.045
35571W        W 7996  37.285  36.420   4.103
35572W        W 7997   0.412   8.668   4.906
35573W        W 7998  42.211  21.106  14.725
35574W        W 7999  17.140  14.506   1.259
35575W        W 8000  32.629  29.996   3.386
35576W        W 8001  37.058  37.847  11.107
35577W        W 8002   5.373  13.359   2.318
35578W        W 8003  44.354  19.364  11.319
35579W        W 8004   2.472  13.664   4.581
35580W        W 8005  10.856  32.407   0.298
35581W        W 8006  24.703  15.544  11.125
35582W        W 8007  13.757   8.314   3.687
35583W        W 8008  27.303  32.604  11.558
35584W        W 8009   5.348  19.600  13.629
35585W        W 8010  38.439  38.474   2.050
35586W        W 8011  27.499  33.038  13.814
35587W        W 8012  13.611  33.259   4.538
35588W        W 8013  44.374  37.032  14.779
35589W        W 8014  13.246  11.852  12.434
35590W        W 8015  11.592   7.323  10.132
35591W        W 8016  43.944  27.624  12.526
35592W        W 8017  31.981  40.770   4.163
35593W        W 8018  36.473  23.989   4.195
35594W        W 8019  43.283  16.924   2.431
35595W        W 8020  23.996  37.119  12.048
35596W        W 8021  37.319  12.569   3.436
35597W        W 8022   0.296  33.509  10.663
35598W        W 8023  16.216   1.354  10.986
35599W        W 8024  23.602  37.088   0.372
35600W        W 8025   1.728   3.329  12.719
35601W        W 8026  31.404  27.448  14.794
35602W        W 8027  43.197  27.116  14.735
35603W        W 8028  14.637  11.039  14.962
35604W        W 8029  29.818   8.394  11.233
35605W        W 8030  10.079  28.675   0.658
35606W        W 8031  16.799  26.028   3.284
35607W        W 8032  21.294  21.448   9.988
35608W        W 8033  37.002  27.602   2.104
35609W        W 8034  28.593   9.641   1.901
35610W        W 8035  35.150   0.447  12.425
35611W        W 8036  43.441  41.347  11.714
35612W        W 8037   3.803  12.322   2.657
35613W        W 8038  18.787  21.015  13.811
35614W        W 8039  31.966  20.005  11.445
35615W        W 8040  40.283  21.956   0.208
35616W        W 8041   8.385  27.530  11.148
35617W        W 8042  38.501  23.621  14.914
35618W        W 8043  13.615  30.649   4.624
35619W        W 8044  23.681  41.994   4.489
35620W        W 8045   4.911  30.249   4.491
35621W        W 8046  39.380   4.371   1.648
35622W        W 8047  43.470  43.022   0.220
35623W        W 8048  11.875  33.441  11.547
35624W        W 8049  26.616   3.219   3.793
35625W        W 8050  31.193  17.708   0.287
35626W        W 8051  28.050  44.335  10.933
35627W        W 8052  41.236  22.172   4.563
35628W        W 8053   8.694  21.529   0.395
35629W        W 8054  16.352  27.996   2.385
35630W        W 8055   9.652  17.709   0.435
35631W        W 8056  20.633  25.345  14.347
35632W        W 8057  20.542  17.687   3.140
35633W        W 8058  13.137  29.325   4.670
35634W        W 8059   7.373   1.245   1.283
35635W        W 8060   5.689  34.938  10.709
35636W        W 8061  42.287  10.319  12.379
35637W        W 8062  41.407  28.241   2.701
35638W        W 8063   9.137  19.576  14.785
35639W        W 8064  27.276  41.563  13.023
35640W        W 8065  42.166  15.197   4.195
35641W        W 8066  27.166  23.179  14.558
35642W        W 8067  33.979   4.990  12.659
35643W        W 8068  39.356  35.155   3.622
35644W        W 8069   7.714   0.713   0.564
35645W        W 8070   3.987  15.264  12.357
35646W        W 8071  18.901   5.002   0.722
35647W        W 8072   1.787  20.639  14.453
35648W        W 8073   1.364  42.734   0.388
35649W        W 8074   1.305   5.214  13.593
35650W        W 8075  37.039  40.570  14.109
35651W        W 8076  20.335  24.151   1.275
35652W        W 8077  12.078  20.107  14.275
35653W        W 8078  27.752  35.467   2.938
35654W        W 8079   1.607   3.915   3.122
35655W        W 8080  18.828  20.264   3.001
35656W        W 8081  17.305   7.950   1.344
35657W        W 8082  23.348  39.211  12.615
35658W        W 8083   9.578  12.385   0.903
35659W        W 8084  22.233  30.908  14.429
35660W        W 8085  40.817  40.573  12.516
35661W        W 8086   8.362  24.314   3.850
35662W        W 8087  40.000  36.356   4.195
35663W        W 8088  37.564  39.937  13.032
35664W        W 8089  14.053  27.342   3.993
35665W        W 8090  12.299  20.699   3.067
35666W        W 8091  30.581   4.959  14.972
35667W        W 8092  17.133  29.156  10.862
35668W        W 8093  20.230   7.534   1.376
35669W        W 8094  24.625  27.510  13.309
35670W        W 8095  35.657   2.288   0.411
35671W        W 8096  44.375   0.286   2.359
35672W        W 8097  18.981  40.911   2.718
35673W        W 8098  11.110  23.666   1.832
35674W        W 8099  17.528  24.535   4.537
35675W        W 8100  17.943  32.401  10.074
35676W        W 8101  29.654  17.813   0.525
35677W        W 8102   9.451  12.893   1.011
35678W        W 8103  34.008  41.347   2.452
35679W        W 8104  36.079  23.672   2.604
35680W        W 8105  33.834  14.421   0.890
35681W        W 8106   2.464  34.698   1.884
35682W        W 8107  44.689  14.616  11.098
35683W        W 8108   0.739   3.297   3.245
35684W        W 8109  15.565  39.437  11.195
35685W        W 8110  17.294  10.755  14.927
35686W        W 8111   1.608   4.270  13.009
35687W        W 8112  26.752  36.155   2.240
35688W        W 8113  37.837  32.090  14.381
35689W        W 8114   2.662  29.471   2.307
35690W        W 8115   6.430  43.382   3.231
35691W        W 8116  39.042  33.880   2.899
35692W        W 8117   0.687  26.658   0.063
35693W        W 8118  28.049  38.424  11.032
35694W        W 8119   2.750  11.758   3.297
35695W        W 8120   4.548   2.205   5.423
35696W        W 8121  44.028  10.492   0.805
35697W        W 8122  24.908  24.154  10.868
35698W        W 8123   4.287  12.997   3.639
35699W        W 8124   2.401  18.067   0.087
35700W        W 8125   0.809   5.472   4.770
35701W        W 8126   7.511  15.658   1.433
35702W        W 8127   0.708   8.805  10.215
35703W        W 8128  20.957  22.860  13.860
35704W        W 8129  33.116   0.337   0.942
35705W        W 8130  10.387   6.738   2.365
35706W        W 8131   6.409   3.232   4.527
35707W        W 8132  40.859   8.389   1.358
35708W        W 8133   1.442  36.804  14.829
35709W        W 8134  29.215  31.375   4.037
35710W        W 8135  11.602  32.852  11.483
35711W        W 8136   2.778  34.102  14.084
35712W        W 8137  20.817  20.247   3.321
35713W        W 8138   1.912   5.797  14.103
35714W        W 8139  27.990  13.682  10.625
35715W        W 8140   6.409  17.334   2.692
35716W        W 8141   0.863  27.728  14.014
35717W        W 8142   9.724  16.415   3.774
35718W        W 8143  20.473  17.066  13.542
35719W        W 8144  43.301  10.379  13.313
35720W        W 8145  40.318  13.326  13.467
35721W        W 8146  24.344   8.385  10.145
35722W        W 8147  34.017  40.351   0.594
35723W        W 8148   9.498  37.881  10.557
35724W        W 8149  41.223   8.178   0.724
35725W        W 8150  26.112  44.537  12.466
35726W        W 8151   6.268  18.719  12.729
35727W        W 8152  32.617   2.374  12.420
35728W        W 8153   0.596  26.635   3.526
35729W        W 8154   7.473  17.718  11.687
35730W        W 8155  18.321  13.699   3.703
35731W        W 8156   0.607  30.917   3.704
35732W        W 8157  32.436  39.197   1.957
35733W        W 8158  32.022   5.435   2.674
35734W        W 8159  23.306  16.667   3.793
35735W        W 8160  12.580  32.055   1.245
35736W        W 8161  39.512  43.546   4.294
35737W        W 8162  29.507  13.878  12.078
35738W        W 8163   7.879   4.804  12.779
35739W        W 8164   6.829  24.472   0.593
35740W        W 8165   0.616   0.958  11.832
35741W        W 8166  29.159   4.964   2.198
35742W        W 8167  27.367  10.316   1.384
35743W        W 8168  20.591   6.740   3.146
35744W        W 8169  28.487  38.493  13.134
35745W        W 8170  30.932  29.429   0.903
35746W        W 8171  26.399  10.651  12.501
35747W        W 8172  40.866  29.833   0.760
35748W        W 8173  23.065  25.295   4.037
35749W        W 8174  42.790  36.411  10.601
35750W        W 8175  18.703  36.840   1.586
35751W        W 8176   5.319   0.199   4.593
35752W        W 8177  18.612  24.152  12.662
35753W        W 8178  27.439  38.003  10.331
35754W        W 8179  11.904  35.485   3.299
35755W        W 8180  28.200  33.481   5.527
35756W        W 8181   0.548  27.838   3.356
35757W        W 8182  24.785  42.740   4.726
35758W        W 8183  25.751  17.370   2.819
35759W        W 8184  25.324   1.919   4.536
35760W        W 8185  38.528  22.004   0.511
35761W        W 8186  27.976  12.348   1.921
35762W        W 8187  12.936  37.955   4.152
35763W        W 8188   8.856  32.133   1.857
35764W        W 8189  33.334  25.813  14.021
35765W        W 8190  35.559  42.498  10.791
35766W        W 8191  35.272  41.568  10.588
35767W        W 8192  17.792  23.375  13.499
35768W        W 8193  30.620  24.056  10.375
35769W        W 8194  11.222  31.802   3.212
35770W        W 8195  36.596  43.398   4.835
35771W        W 8196  35.995  43.323  13.400
35772W        W 8197  22.577  19.493  11.271
35773W        W 8198  33.527  21.884  12.347
35774W        W 8199   9.069  24.606   3.098
35775W        W 8200  23.573  39.711  12.695
35776W        W 8201  31.521  40.351   4.816
35777W        W 8202   6.207   6.656  14.919
35778W        W 8203  31.315  14.772   4.773
35779W        W 8204   3.659  32.631   4.603
35780W        W 8205  28.530  29.213   2.641
35781W        W 8206  34.928  32.668  11.552
35782W        W 8207   5.348  33.959   4.046
35783W        W 8208  42.262   7.463  14.526
35784W        W 8209  35.803  37.506  10.736
35785W        W 8210   3.301  12.175  14.648
35786W        W 8211  10.655  13.783  14.247
35787W        W 8212   6.322  18.756  11.683
35788W        W 8213  10.000  44.682  14.866
35789W        W 8214  30.338  31.360   2.753
35790W        W 8215  26.733  42.375   1.895
35791W        W 8216  40.562  21.299  12.849
35792W        W 8217  28.706  40.391   3.433
35793W        W 8218  31.525  33.847   4.201
35794W        W 8219  21.480  25.992  12.966
35795W        W 8220   5.399  29.590  12.103
35796W        W 8221  32.060  21.149  10.198
35797W        W 8222  13.555  12.311   4.581
35798W        W 8223  37.133   0.356   0.354
35799W        W 8224  13.185  14.017   1.730
35800W        W 8225   8.845   3.025  13.510
35801W        W 8226  31.457  16.757   2.611
35802W        W 8227   5.295  36.144  10.844
35803W        W 8228  37.952  22.002   2.298
35804W        W 8229   3.336  31.467  10.837
35805W        W 8230  44.799  30.195   4.691
35806W        W 8231  44.443  37.452   1.192
35807W        W 8232  10.738  41.774   3.763
35808W        W 8233  30.409  39.801   1.672
35809W        W 8234  32.908  41.935   2.919
35810W        W 8235  17.726  15.282  11.828
35811W        W 8236  41.037   7.352  12.730
35812W        W 8237  11.645  21.317   4.552
35813W        W 8238  30.512   3.388  14.519
35814W        W 8239  25.987  16.097  12.325
35815W        W 8240   6.619  44.635  10.405
35816W        W 8241   3.396  41.736  12.837
35817W        W 8242  22.585  41.407   3.221
35818W        W 8243  43.952  38.312   0.872
35819W        W 8244  36.768  28.025   4.619
35820W        W 8245  25.011  40.165  10.757
35821W        W 8246  19.622  15.205   4.834
35822W        W 8247   9.768  39.633   1.973
35823W        W 8248  19.656  33.043   4.568
35824W        W 8249  16.835  24.962   3.158
35825W        W 8250  38.624  26.164   0.436
35826W        W 8251  15.307  32.256  14.663
35827W        W 8252  40.645  24.188   1.325
35828W        W 8253  35.326  13.217   4.161
35829W        W 8254  25.297  14.359   2.215
35830W        W 8255  23.996  16.558   2.130
35831W        W 8256  15.291  27.416   0.379
35832W        W 8257  40.374  10.530   3.369
35833W        W 8258  35.179  36.009  14.549
35834W        W 8259  43.768  13.869   3.963
35835W        W 8260   1.718  24.942  13.542
35836W        W 8261  42.041   8.201   0.410
35837W        W 8262  41.571  20.697  13.536
35838W        W 8263  12.785   7.447  14.933
35839W        W 8264  27.019  38.823   1.930
35840W        W 8265  10.651  28.210  14.400
35841W        W 8266  25.184  21.200  11.950
35842W        W 8267   4.307  44.017  14.950
35843W        W 8268  18.443   1.301  11.583
35844W        W 8269   1.461  39.837  14.608
35845W        W 8270  29.444  29.486   2.596
35846W        W 8271  16.581  12.597  11.911
35847W        W 8272  35.352  22.231   2.198
35848W        W 8273  43.957  41.017   4.898
35849W        W 8274  39.058  42.311  11.995
35850W        W 8275  32.628  43.464   0.354
35851W        W 8276  12.418  23.778   5.440
35852W        W 8277  17.671  43.444   2.542
35853W        W 8278  27.605  19.710   3.770
35854W        W 8279   4.905  13.789  12.773
35855W        W 8280  36.377  10.402  12.663
35856W        W 8281   1.026  18.097   4.158
35857W        W 8282   6.696  39.469  14.948
35858W        W 8283  35.076  11.769   2.326
35859W        W 8284  22.597  26.592  13.350
35860W        W 8285  26.384  20.504   3.717
35861W        W 8286  27.999  43.105  13.743
35862W        W 8287   7.880  26.889   3.682
35863W        W 8288  44.462  34.997  12.474
35864W        W 8289  36.707   9.302   4.505
35865W        W 8290  10.287   2.610  14.995
35866W        W 8291  20.136  10.741  10.653
35867W        W 8292  10.897  36.111   3.651
35868W        W 8293   6.030  14.711   4.377
35869W        W 8294  42.703   4.717   1.893
35870W        W 8295   4.270  38.430  11.142
35871W        W 8296  15.364   8.228   4.291
35872W        W 8297   2.075   3.752  10.566
35873W        W 8298  32.686  44.014  14.351
35874W        W 8299   3.758   4.240   3.325
35875W        W 8300  22.622  13.597  11.100
35876W        W 8301  10.295  16.871   2.943
35877W        W 8302   8.877   2.761   3.085
35878W        W 8303  42.759  12.851  10.536
35879W        W 8304   8.981  24.116  13.760
35880W        W 8305   5.593   5.402  13.996
35881W        W 8306   8.791  16.805   2.258
35882W        W 8307  18.827  29.201   0.237
35883W        W 8308  38.349  40.685  10.908
35884W        W 8309  23.964  33.946   4.099
35885W        W 8310  39.112   7.566   2.319
35886W        W 8311  14.548  36.607  12.515
35887W        W 8312  34.482   1.512   3.884
35888W        W 8313   7.352  30.719   1.797
35889W        W 8314   6.861  31.686   3.823
35890W        W 8315  29.938  22.782   4.613
35891W        W 8316  32.090  40.019   1.811
35892W        W 8317  44.631  21.712   0.343
35893W        W 8318   5.040  28.495  14.353
35894W        W 8319  33.434  22.675  11.015
35895W        W 8320  10.575   4.210  13.391
35896W        W 8321  44.880   2.880  12.577
35897W        W 8322  14.635  19.341  12.461
35898W        W 8323  26.554  42.534  13.924
35899W        W 8324  28.714  26.559  12.824
35900W        W 8325  39.637  13.678  13.197
35901W        W 8326  34.472   5.281  13.172
35902W        W 8327  10.061  22.192   3.120
35903W        W 8328  25.515   0.685  10.679
35904W        W 8329   6.748   3.540  12.398
35905W        W 8330  18.220  14.210   3.782
35906W        W 8331   0.047  30.632  13.018
35907W        W 8332  29.026  21.389  13.680
35908W        W 8333  41.893  32.987  13.631
35909W        W 8334  42.924  29.149   1.786
35910W        W 8335   4.021  17.970  10.232
35911W        W 8336  26.777  39.840   0.718
35912W        W 8337  41.495  30.055  10.648
35913W        W 8338  29.824  41.375  11.561
35914W        W 8339  20.989  31.269   0.755
35915W        W 8340   1.509  25.189   1.324
35916W        W 8341  16.909  28.931   0.885
35917W        W 8342  13.163  32.948   2.469
35918W        W 8343  22.868   4.895  13.804
35919W        W 8344  13.535  39.385  14.647
35920W        W 8345  21.342  15.320   4.223
35921W        W 8346  21.850  41.502   2.564
35922W        W 8347  35.070  33.654   3.265
35923W        W 8348   7.749  17.598  13.484
35924W        W 8349  30.669  26.164   0.393
35925W        W 8350  26.702  26.327   4.521
35926W        W 8351   0.276  17.620  10.922
35927W        W 8352  11.886  25.569   1.405
35928W        W 8353  43.862  37.096   4.149
35929W        W 8354  33.922  40.810   0.378
35930W        W 8355  37.371  15.340  14.919
35931W        W 8356  21.996  26.757  11.144
35932W        W 8357  14.111  11.394   4.659
35933W        W 8358  37.218  23.658   4.569
35934W        W 8359  37.028  14.094   4.597
35935W        W 8360  29.972  30.417   3.265
35936W        W 8361  31.451  21.970  12.959
35937W        W 8362  38.394  34.784  12.016
35938W        W 8363  24.917  10.374  14.433
35939W        W 8364  35.414  24.714   4.554
35940W        W 8365   6.351  34.289   1.959
35941W        W 8366  28.461  26.780   4.201
35942W        W 8367   4.230  32.136  12.089
35943W        W 8368  27.653  25.632   1.748
35944W        W 8369  35.652  44.917  12.440
35945W        W 8370  30.880  16.560   3.437
35946W        W 8371  32.439   7.117  10.456
35947W        W 8372  37.099  37.722   1.650
35948W        W 8373  30.065  37.072   4.114
35949W        W 8374   1.986  29.932  14.905
35950W        W 8375  13.045  37.086   2.173
35951W        W 8376  16.088  40.971   2.063
35952W        W 8377   5.613  29.309   0.925
35953W        W 8378  41.862  37.979  12.442
35954W        W 8379   4.674   6.356  10.555
35955W        W 8380  26.125  40.487  13.071
35956W        W 8381   1.746  11.372   0.913
35957W        W 8382  39.996  29.300  13.915
35958W        W 8383  24.171   1.427  14.380
35959W        W 8384  39.331  30.580   3.285
35960W        W 8385  18.894  14.051   0.832
35961W        W 8386  16.604  36.559   1.253
35962W        W 8387   3.364  14.352   2.928
35963W        W 8388   8.659  28.120  13.435
35964W        W 8389  13.073  37.419   4.168
35965W        W 8390  43.712  24.197   4.181
35966W        W 8391  12.267  24.297   1.189
35967W        W 8392  27.480  43.494  11.080
35968W        W 8393  40.793  40.948   3.089
35969W        W 8394  26.076  12.875  14.455
35970W        W 8395   6.877  23.584   4.760
35971W        W 8396   3.445  31.296  14.619
35972W        W 8397  27.869   7.629   0.933
35973W        W 8398  17.695   2.781   2.643
35974W        W 8399  40.042  42.475  11.690
35975W        W 8400  29.354  14.524  12.939
35976W        W 8401  17.740   3.265  12.679
35977W        W 8402   2.970  27.173   3.736
35978W        W 8403  22.051  31.525   1.270
35979W        W 8404   8.460  42.221   3.714
35980W        W 8405  28.009  25.685  12.486
35981W        W 8406  18.491  38.827  11.151
35982W        W 8407  25.274   3.952   0.383
35983W        W 8408  18.485   5.455   1.404
35984W        W 8409  23.932  14.906  14.971
35985W        W 8410  15.317  35.146   4.291
35986W        W 8411   6.793  18.010   0.219
35987W        W 8412  24.603   6.319  10.442
35988W        W 8413  33.417  33.071   3.517
35989W        W 8414   3.183   3.262  13.740
35990W        W 8415   5.180  19.469   3.712
35991W        W 8416  19.929  37.737   4.298
35992W        W 8417  44.922  27.718   4.143
35993W        W 8418  20.137  33.016   0.285
35994W        W 8419  43.804  21.034   1.786
35995W        W 8420  12.039   8.390   1.413
35996W        W 8421   7.755  14.496   3.596
35997W        W 8422  32.961  44.896  14.759
35998W        W 8423  39.028  30.460  12.004
35999W        W 8424  34.447  19.776  14.241
36000W        W 8425   2.438  40.440  10.922
36001W        W 8426  34.413   4.670   1.317
36002W        W 8427   2.796  35.584   1.242
36003W        W 8428  22.180  42.294   2.176
36004W        W 8429  30.086  24.044   2.721
36005W        W 8430  18.166  42.087   4.567
36006W        W 8431  39.755  16.258   0.188
36007W        W 8432  35.005  20.376  13.757
36008W        W 8433  40.030   4.889  11.670
36009W        W 8434  36.183  28.715   4.864
36010W        W 8435  32.829  16.733   5.669
36011W        W 8436  14.674  42.700  11.261
36012W        W 8437  35.089  32.405  14.911
36013W        W 8438  11.941  25.504  13.320
36014W        W 8439  31.108  38.549  13.360
36015W        W 8440  26.741  32.206  14.963
36016W        W 8441  24.656  17.199   1.726
36017W        W 8442  30.956  18.478   0.919
36018W        W 8443  27.667  14.179   2.405
36019W        W 8444  15.558   2.918   2.647
36020W        W 8445  25.273  26.950   4.195
36021W        W 8446  23.526  14.609   2.672
36022W        W 8447  43.841  13.116   1.361
36023W        W 8448  28.510  27.875   2.195
36024W        W 8449  43.107   6.840   1.406
36025W        W 8450  43.607   9.737  11.300
36026W        W 8451  43.598   7.354  12.738
36027W        W 8452  29.998   0.859   5.050
36028W        W 8453  44.302  20.871   0.348
36029W        W 8454   0.769  29.145   2.349
36030W        W 8455  21.819  43.522   4.190
36031W        W 8456  36.990   1.181  14.829
36032W        W 8457  41.001  34.050  10.470
36033W        W 8458  24.775  38.308  12.114
36034W        W 8459  38.048  36.676   3.168
36035W        W 8460  30.107  17.728  13.106
36036W        W 8461  18.266  26.864  13.124
36037W        W 8462   2.644  39.389   3.823
36038W        W 8463  42.937  43.003  12.972
36039W        W 8464  22.242  43.484  12.251
36040W        W 8465  38.947  26.517   3.092
36041W        W 8466  40.792   1.692  11.887
36042W        W 8467  11.266  44.844  14.264
36043W        W 8468  43.215   6.384  13.555
36044W        W 8469  18.689  12.234  13.932
36045W        W 8470  35.204  43.975   4.068
36046W        W 8471   4.161  39.579  10.780
36047W        W 8472  19.061  34.641  11.112
36048W        W 8473  10.169  22.535  14.032
36049W        W 8474  12.612  25.660  14.237
36050W        W 8475  40.856   8.645  10.745
36051W        W 8476  16.560  36.064  14.748
36052W        W 8477  44.008   2.430  12.387
36053W        W 8478   4.223  42.008   0.945
36054W        W 8479  15.146  18.113  12.403
36055W        W 8480   7.823  23.137  12.211
36056W        W 8481   5.749  41.370   2.153
36057W        W 8482  13.684  18.941  12.689
36058W        W 8483  24.286  27.251   3.606
36059W        W 8484  40.134  13.980   0.958
36060W        W 8485  31.658  19.961   0.755
36061W        W 8486  27.054  42.806   3.765
36062W        W 8487  10.447   1.903  14.819
36063W        W 8488  22.610   8.830   5.280
36064W        W 8489   3.292  20.446  12.025
36065W        W 8490  21.585   2.325  12.919
36066W        W 8491  17.613   6.340  10.627
36067W        W 8492  17.538  40.571  12.062
36068W        W 8493   7.156  21.096   3.177
36069W        W 8494  31.454  14.340  12.409
36070W        W 8495  24.637   7.184   1.197
36071W        W 8496  23.519  35.165   1.306
36072W        W 8497  16.624  32.899  12.821
36073W        W 8498  21.301  24.175  14.444
36074W        W 8499  43.150  17.508   1.271
36075W        W 8500  18.359  37.294  13.536
36076W        W 8501  41.830  35.941   2.287
36077W        W 8502  26.945  43.389   4.204
36078W        W 8503  40.109  20.563  13.368
36079W        W 8504  36.714   0.254   1.206
36080W        W 8505  36.157  24.144   0.370
36081W        W 8506   1.927  41.576  14.943
36082W        W 8507   8.839  39.533  10.465
36083W        W 8508   2.910  39.823  11.575
36084W        W 8509  36.369  30.286  12.296
36085W        W 8510   9.888  19.723   1.522
36086W        W 8511   4.271  15.147   4.834
36087W        W 8512   0.205  21.659   1.265
36088W        W 8513  25.006  23.220   1.138
36089W        W 8514   4.519  40.730   0.336
36090W        W 8515   3.891  34.931  14.493
36091W        W 8516   7.949  33.868  13.128
36092W        W 8517  31.670  13.652  12.785
36093W        W 8518  34.182  23.661  12.035
36094W        W 8519   6.910  35.037   4.605
36095W        W 8520  23.424  31.679  13.456
36096W        W 8521   3.229   1.718   2.843
36097W        W 8522  26.319   3.816  11.178
36098W        W 8523  20.940  10.407   1.874
36099W        W 8524  23.244  35.298  12.885
36100W        W 8525  44.483  23.638   3.198
36101W        W 8526  30.252   3.434   2.846
36102W        W 8527  22.199   7.541  14.457
36103W        W 8528   2.051   2.035  12.060
36104W        W 8529  30.504  15.598  13.650
36105W        W 8530   3.778  23.721  14.010
36106W        W 8531  12.716   6.206  14.053
36107W        W 8532  29.736   3.267  11.182
36108W        W 8533   5.348  18.862   2.734
36109W        W 8534   9.803   6.781   4.819
36110W        W 8535  43.759  21.116   1.255
36111W        W 8536  41.756  21.472  10.228
36112W        W 8537  16.525   7.739  10.695
36113W        W 8538  44.504   9.632   0.580
36114W        W 8539  26.606   7.206   4.770
36115W        W 8540  29.220  20.743  11.472
36116W        W 8541  10.256  39.342  13.808
36117W        W 8542   6.432   1.686  11.093
36118W        W 8543   2.682   6.310   3.243
36119W        W 8544   2.865   7.978  12.962
36120W        W 8545  33.080  41.976  10.977
36121W        W 8546  16.657  24.095   3.626
36122W        W 8547  16.225  27.605   1.744
36123W        W 8548   5.453  20.372  11.118
36124W        W 8549  20.974  41.803   2.560
36125W        W 8550   0.477  27.766  11.995
36126W        W 8551  13.788   0.711   3.887
36127W        W 8552  26.640  10.934  12.863
36128W        W 8553  23.649   9.352  10.608
36129W        W 8554   3.820  29.643  10.632
36130W        W 8555   5.486   3.703   3.512
36131W        W 8556   5.580  23.215  13.473
36132W        W 8557  11.699  11.757  14.315
36133W        W 8558  40.849  43.452  10.648
36134W        W 8559   6.581  44.306   3.599
36135W        W 8560  37.728  43.918  13.344
36136W        W 8561  19.562  33.887   4.157
36137W        W 8562   3.215  21.540  12.789
36138W        W 8563  33.070   1.231   4.011
36139W        W 8564   5.460  43.710   2.427
36140W        W 8565  30.758  33.144  14.394
36141W        W 8566  44.419  24.083  13.790
36142W        W 8567  21.467  39.661  11.943
36143W        W 8568  13.131   7.300   0.364
36144W        W 8569  21.756  20.202  11.108
36145W        W 8570  14.084  41.496   2.974
36146W        W 8571   1.405  37.572  12.877
36147W        W 8572  11.792  23.541   4.661
36148W        W 8573  26.506  29.915  14.719
36149W        W 8574  44.488  28.822  12.045
36150W        W 8575  26.170   4.618   4.795
36151W        W 8576  40.500  24.908   2.384
36152W        W 8577  34.548  25.761   0.402
36153W        W 8578  42.762  17.879   1.359
36154W        W 8579  42.339  37.497   0.522
36155W        W 8580   0.304  38.049  11.545
36156W        W 8581  10.221  35.462  13.747
36157W        W 8582  32.366  28.859  14.259
36158W        W 8583  27.893  33.439  12.977
36159W        W 8584  30.958  31.894  11.253
36160W        W 8585  17.059  11.691   0.361
36161W        W 8586   1.682  26.439   3.715
36162W        W 8587  14.765  36.360  12.081
36163W        W 8588   9.723  28.239   4.766
36164W        W 8589  26.764  38.803  10.414
36165W        W 8590   2.201  10.205  11.544
36166W        W 8591   7.828  43.941   0.242
36167W        W 8592   4.408  17.801   1.798
36168W        W 8593  25.743  31.984  14.410
36169W        W 8594  28.896  24.605   4.095
36170W        W 8595  31.477  39.781  13.059
36171W        W 8596  35.760  43.122   3.298
36172W        W 8597  40.887  31.496  10.561
36173W        W 8598  21.306  19.865   0.544
36174W        W 8599  32.004   6.018  12.108
36175W        W 8600  28.762  24.139  14.941
36176W        W 8601  16.280  29.616   0.845
36177W        W 8602  29.513  14.856  11.980
36178W        W 8603  29.688  30.972   0.222
36179W        W 8604  12.244  27.658  10.831
36180W        W 8605   5.143  22.708   0.826
36181W        W 8606   7.853  28.441  14.838
36182W        W 8607  36.933  29.001   1.577
36183W        W 8608  40.750  11.223   0.518
36184W        W 8609  25.630   5.701  12.022
36185W        W 8610  31.538  33.970   4.717
36186W        W 8611  10.892  13.540   0.394
36187W        W 8612  23.241  20.992  10.987
36188W        W 8613   7.344  36.332   2.684
36189W        W 8614  27.944  19.253   0.033
36190W        W 8615   9.214  44.238  12.355
36191W        W 8616  25.484  35.319  11.557
36192W        W 8617  40.875  12.221  13.841
36193W        W 8618  13.662  16.705   2.270
36194W        W 8619  21.196  16.768   2.848
36195W        W 8620  25.114  26.207   3.657
36196W        W 8621  33.434  31.155   2.745
36197W        W 8622  32.173  13.147  13.304
36198W        W 8623   3.428  28.117  11.150
36199W        W 8624   9.181  23.171   3.193
36200W        W 8625  31.343  43.375  12.442
36201W        W 8626  38.090  31.630   2.300
36202W        W 8627  20.986  19.300  12.438
36203W        W 8628  20.152  10.564   4.675
36204W        W 8629  20.678  34.486  14.327
36205W        W 8630  28.486  42.860   1.931
36206W        W 8631  27.573  38.103   4.745
36207W        W 8632  28.502  42.054   2.108
36208W        W 8633  28.593  40.510   3.921
36209W        W 8634  10.269  25.436   3.328
36210W        W 8635  24.589  18.836  10.765
36211W        W 8636  16.482  23.204   2.760
36212W        W 8637  26.522  24.599   0.426
36213W        W 8638  21.389  24.974   2.235
36214W        W 8639  22.770   5.193  11.186
36215W        W 8640  26.081   2.431   3.051
36216W        W 8641  11.148   8.783   0.207
36217W        W 8642  27.650  24.482  13.777
36218W        W 8643   7.334  39.077   2.713
36219W        W 8644  24.687  24.533   4.688
36220W        W 8645  38.583   9.687   1.243
36221W        W 8646  43.796   8.878   2.159
36222W        W 8647   0.383  13.322   0.260
36223W        W 8648  35.648  30.624   2.308
36224W        W 8649  44.394  41.400   0.276
36225W        W 8650  27.610  19.054   4.583
36226W        W 8651  20.637  21.043  12.391
36227W        W 8652  22.270  20.243   3.837
36228W        W 8653  20.260   3.157  14.250
36229W        W 8654  34.881  22.697  11.258
36230W        W 8655  32.131  28.123   1.382
36231W        W 8656  33.884  12.049   3.703
36232W        W 8657   6.242  30.492   4.581
36233W        W 8658  39.175  14.655  10.793
36234W        W 8659  14.879  11.740   2.680
36235W        W 8660   1.410  35.486   2.306
36236W        W 8661  44.900  20.086   2.372
36237W        W 8662  14.071  16.174   1.985
36238W        W 8663  42.010  22.878  10.700
36239W        W 8664  13.891  27.001  13.926
36240W        W 8665  32.528   2.457   2.204
36241W        W 8666  13.441  37.252  11.087
36242W        W 8667   8.113  25.156  13.591
36243W        W 8668  39.286  22.431   3.051
36244W        W 8669  15.715   9.595  14.420
36245W        W 8670  22.114  44.777   0.240
36246W        W 8671  25.750  23.039   3.568
36247W        W 8672  37.593  10.424   2.235
36248W        W 8673  26.227  18.298  13.490
36249W        W 8674  30.727   6.732  10.620
36250W        W 8675  24.509  40.484   3.206
36251W        W 8676   7.846   0.388  13.216
36252W        W 8677  12.429   8.996  11.908
36253W        W 8678  31.056   7.684  11.425
36254W        W 8679  35.925   8.732  14.837
36255W        W 8680  30.162  26.104  11.974
36256W        W 8681  18.092  30.181  10.932
36257W        W 8682   6.219  12.542  10.976
36258W        W 8683  15.275  40.101   4.271
36259W        W 8684   9.907  22.650   3.296
36260W        W 8685  26.120   4.043  14.978
36261W        W 8686  21.745  15.255  10.659
36262W        W 8687  20.962  36.057   0.012
36263W        W 8688  44.951  44.291  11.144
36264W        W 8689   0.983  40.983   0.292
36265W        W 8690  35.081  18.357   4.190
36266W        W 8691  17.909   5.217   4.893
36267W        W 8692  26.930  13.238  12.953
36268W        W 8693  17.860  26.149   0.282
36269W        W 8694  39.543   5.809   2.254
36270W        W 8695   1.974  43.864  13.307
36271W        W 8696  33.351  38.898  10.734
36272W        W 8697  18.105  42.967   2.162
36273W        W 8698  39.550  26.353  14.015
36274W        W 8699   5.547  13.627  14.863
36275W        W 8700  38.074   5.044  11.742
36276W        W 8701  18.725  27.608  14.321
36277W        W 8702  22.814  23.320   4.296
36278W        W 8703  15.196   9.589   4.123
36279W        W 8704  31.084  27.973   0.403
36280W        W 8705  16.846   1.200  13.808
36281W        W 8706  10.597  41.715  11.057
36282W        W 8707  42.443  33.886  13.520
36283W        W 8708   1.963  31.932   2.280
36284W        W 8709  40.985  43.351  13.087
36285W        W 8710  30.626   8.413  13.924
36286W        W 8711  15.296   1.806   5.024
36287W        W 8712   7.772   5.012  12.277
36288W        W 8713   1.890  37.128  12.592
36289W        W 8714  28.121  40.826  11.595
36290W        W 8715  16.657  24.040   1.569
36291W        W 8716   5.293  37.009   0.212
36292W        W 8717  32.160   3.817   2.824
36293W        W 8718  36.481  44.893  11.160
36294W        W 8719   2.424   9.413   3.292
36295W        W 8720  34.103  23.237  10.871
36296W        W 8721   4.044  39.586   3.203
36297W        W 8722  22.713   8.128  10.520
36298W        W 8723  14.904  13.756  12.934
36299W        W 8724  16.295  41.051   0.771
36300W        W 8725  17.594  10.806  13.057
36301W        W 8726  24.994  41.501  11.082
36302W        W 8727  11.938   0.003  13.555
36303W        W 8728  15.981   1.257   3.189
36304W        W 8729  32.542  17.352   1.996
36305W        W 8730  11.113   7.112   3.178
36306W        W 8731  11.708  20.736   1.684
36307W        W 8732  43.348  37.362   2.192
36308W        W 8733  24.546   2.357   0.204
36309W        W 8734  32.705  34.462   0.094
36310W        W 8735  36.151  39.968  13.923
36311W        W 8736  44.069  15.080  12.888
36312W        W 8737  36.965  13.224  10.631
36313W        W 8738  29.997  20.561  10.386
36314W        W 8739   6.700   9.940   4.186
36315W        W 8740  33.635   7.772  14.193
36316W        W 8741   4.694   9.751   3.522
36317W        W 8742  35.943  26.952   1.699
36318W        W 8743   7.879   4.477  12.374
36319W        W 8744  18.716  13.112   1.804
36320W        W 8745  10.522  37.333  13.397
36321W        W 8746   0.441  40.767  11.940
36322W        W 8747   0.970  42.800   0.047
36323W        W 8748  11.194  38.800  11.970
36324W        W 8749  34.380  11.726  12.441
36325W        W 8750  33.810   7.992  13.292
36326W        W 8751   2.968  36.600  12.828
36327W        W 8752  18.856   6.296  13.378
36328W        W 8753  12.401  42.056   1.733
36329W        W 8754   8.515  15.985  13.917
36330W        W 8755  11.618  19.853  11.303
36331W        W 8756  27.150  37.987   1.407
36332W        W 8757  21.203  27.942   0.022
36333W        W 8758  44.961  13.909  13.794
36334W        W 8759  19.465  13.822  12.079
36335W        W 8760   4.627  32.658   2.359
36336W        W 8761   2.272  10.377   1.364
36337W        W 8762  24.446  31.453   0.966
36338W        W 8763  36.001  19.305   0.179
36339W        W 8764  30.389  26.704  12.040
36340W        W 8765  23.958  29.998   3.188
36341W        W 8766  32.117  26.382  11.452
36342W        W 8767   4.077  25.267   1.850
36343W        W 8768   8.321  13.184  13.412
36344W        W 8769  17.513  18.602   2.800
36345W        W 8770   8.381  26.262   0.457
36346W        W 8771  15.944  32.367   0.397
36347W        W 8772  20.618  22.662   0.429
36348W        W 8773   3.320  36.609   2.860
36349W        W 8774   3.535  12.783  14.722
36350W        W 8775  39.800   8.602   0.707
36351W        W 8776  16.083  24.947  10.743
36352W        W 8777   0.756   9.643   2.439
36353W        W 8778  30.497  23.253  13.510
36354W        W 8779  25.740   3.944   1.740
36355W        W 8780  42.955  25.232   1.906
36356W        W 8781   8.975  38.843  11.263
36357W        W 8782  17.664  27.523  13.915
36358W        W 8783  14.790  28.110  14.993
36359W        W 8784  34.328  27.668  10.972
36360W        W 8785  29.407   1.335  14.045
36361W        W 8786  24.074  12.253  12.042
36362W        W 8787   2.227  11.311  10.659
36363W        W 8788  11.940  38.313  14.432
36364W        W 8789   8.467  36.987   3.958
36365W        W 8790  40.649  14.173  11.215
36366W        W 8791  13.306  29.841   3.603
36367W        W 8792  38.890  15.203  11.529
36368W        W 8793   7.315   6.818   5.005
36369W        W 8794  23.650  34.585  14.390
36370W        W 8795  40.828  17.604  11.509
36371W        W 8796  41.161   6.900   0.844
36372W        W 8797  12.557   6.297  11.503
36373W        W 8798   1.487  33.350   0.049
36374W        W 8799  42.644   6.967  12.356
36375W        W 8800  28.228  31.552  10.316
36376W        W 8801  22.786  29.958   1.229
36377W        W 8802  20.275  33.938   0.333
36378W        W 8803  23.081   2.868  13.280
36379W        W 8804   9.556   1.289   2.907
36380W        W 8805  12.350  25.465   1.684
36381W        W 8806  17.330  16.065  14.580
36382W        W 8807  22.527  37.829   2.710
36383W        W 8808  34.859  10.605  10.690
36384W        W 8809   7.923   2.182   0.452
36385W        W 8810  18.260  37.084   0.830
36386W        W 8811  30.048  15.348  13.439
36387W        W 8812  16.545  44.554  11.716
36388W        W 8813  14.163  38.511  14.392
36389W        W 8814  30.876  16.274   0.872
36390W        W 8815  20.028  17.842   4.308
36391W        W 8816  16.213  30.215   4.021
36392W        W 8817  39.567  26.424  12.125
36393W        W 8818   5.904  29.809  12.117
36394W        W 8819  18.074  19.259   3.373
36395W        W 8820  20.257  28.779  12.163
36396W        W 8821   3.675   8.937   0.893
36397W        W 8822   8.333  40.729  12.783
36398W        W 8823  32.156  20.694   0.079
36399W        W 8824  20.185   6.926   2.510
36400W        W 8825  31.171   1.689  11.193
36401W        W 8826  19.105  14.145  11.834
36402W        W 8827  43.274   3.687   0.415
36403W        W 8828  15.115  15.777   4.256
36404W        W 8829  26.084  29.104   1.716
36405W        W 8830  17.704  12.245  13.787
36406W        W 8831  12.316  17.063   0.477
36407W        W 8832  11.560  23.479   0.779
36408W        W 8833  18.565   2.980  11.014
36409W        W 8834  11.861  29.644   3.469
36410W        W 8835   0.437  35.191   2.200
36411W        W 8836  20.786  14.219   4.949
36412W        W 8837  40.046  31.402  14.978
36413W        W 8838  39.136  40.360  10.486
36414W        W 8839  42.240  32.352  11.105
36415W        W 8840  12.084  13.417   5.158
36416W        W 8841  27.504   4.857  12.363
36417W        W 8842  35.948   1.213   0.315
36418W        W 8843   4.913   0.254  13.350
36419W        W 8844   9.804  18.305  12.475
36420W        W 8845   5.848  28.477   4.602
36421W        W 8846  14.764  35.793  11.091
36422W        W 8847   1.535  14.412  11.451
36423W        W 8848  33.115  11.738  11.851
36424W        W 8849  15.335  37.776   0.339
36425W        W 8850  24.000  37.053   0.702
36426W        W 8851  24.608  44.235   2.274
36427W        W 8852  25.687  40.442   2.781
36428W        W 8853  32.156  28.247  12.113
36429W        W 8854  23.474  30.244   3.318
36430W        W 8855  23.291  10.748   0.919
36431W        W 8856  34.099  32.105  12.669
36432W        W 8857  11.425  33.450   3.934
36433W        W 8858   2.225  38.534   3.813
36434W        W 8859   7.321  34.466  12.881
36435W        W 8860  35.039   0.939   3.115
36436W        W 8861  35.155  31.596  12.914
36437W        W 8862  33.951  37.667  12.569
36438W        W 8863  11.177  35.570   2.838
36439W        W 8864  15.861  23.005   4.342
36440W        W 8865  36.925  13.644   3.552
36441W        W 8866  17.703  33.103   1.563
36442W        W 8867  38.149  24.570  10.630
36443W        W 8868  40.570  12.187   0.337
36444W        W 8869  30.233  21.096  13.936
36445W        W 8870   5.090  16.247   4.654
36446W        W 8871  20.190  33.000   3.262
36447W        W 8872   7.383   9.560  12.427
36448W        W 8873  36.537   0.744  12.152
36449W        W 8874   3.229  16.892  12.766
36450W        W 8875  16.526  10.170   2.165
36451W        W 8876  21.542  41.781   4.681
36452W        W 8877  28.226   4.793   3.308
36453W        W 8878  25.043   0.857   2.866
36454W        W 8879  42.916  39.719   4.162
36455W        W 8880   9.951  25.514  10.982
36456W        W 8881  41.914  28.408  11.531
36457W        W 8882  42.728  14.826  12.947
36458W        W 8883  34.964   4.466  10.916
36459W        W 8884  40.929  12.782  14.435
36460W        W 8885  16.395  16.795  14.648
36461W        W 8886  16.302  22.702   2.772
36462W        W 8887  19.799   2.223   3.275
36463W        W 8888  10.151  31.636  13.300
36464W        W 8889  41.371  16.110   3.237
36465W        W 8890  25.113  12.750  12.021
36466W        W 8891  29.084  26.586   0.972
36467W        W 8892  23.972   4.324  11.097
36468W        W 8893  21.176  38.715   2.215
36469W        W 8894  13.214  35.464  12.955
36470W        W 8895  39.552  35.333  12.457
36471W        W 8896  34.015  38.583   2.291
36472W        W 8897  41.991  11.384   1.405
36473W        W 8898  31.297   0.887  13.098
36474W        W 8899   4.024  40.351  13.127
36475W        W 8900  16.804  43.686  14.779
36476W        W 8901  17.390  17.429   1.783
36477W        W 8902  16.840  15.752   4.089
36478W        W 8903  40.590  19.774  14.976
36479W        W 8904  27.007  39.895   4.424
36480W        W 8905  10.382   1.566  12.003
36481W        W 8906  34.507  17.717  11.372
36482W        W 8907  31.602  37.918  14.464
36483W        W 8908  29.438  28.173   1.750
36484W        W 8909  44.712  26.745   0.804
36485W        W 8910  17.724  17.958   3.519
36486W        W 8911   7.792  35.183   3.141
36487W        W 8912  44.513  18.003  10.757
36488W        W 8913  29.115  31.565  13.083
36489W        W 8914  11.596  13.743  14.888
36490W        W 8915  34.534  21.556  13.299
36491W        W 8916  34.692  38.569  12.065
36492W        W 8917  33.106  10.897  10.753
36493W        W 8918  24.942  43.776   1.542
36494W        W 8919  44.699  42.450   1.689
36495W        W 8920   6.762   5.324  10.846
36496W        W 8921  16.233  28.213  14.378
36497W        W 8922  35.711  33.579  13.566
36498W        W 8923  41.307  39.490  11.569
36499W        W 8924  39.612   9.947   1.689
36500W        W 8925  14.528  22.031   4.763
36501W        W 8926   5.667  15.645   3.325
36502W        W 8927  21.570  39.022   0.057
36503W        W 8928   2.778   3.665   0.361
36504W        W 8929  33.157   2.966  12.335
36505W        W 8930  43.832   5.127  12.478
36506W        W 8931  14.202   4.859   4.507
36507W        W 8932   4.725  30.142   2.785
36508W        W 8933  29.409   7.367  13.929
36509W        W 8934  40.399  31.381  13.458
36510W        W 8935  35.089   3.387  14.364
36511W        W 8936  10.137  40.806  11.987
36512W        W 8937   7.421  21.113   3.653
36513W        W 8938  19.615  23.996   1.025
36514W        W 8939  12.103  12.554  12.990
36515W        W 8940  34.420  33.616   2.331
36516W        W 8941  19.014   6.020  13.796
36517W        W 8942  43.691   0.349  13.460
36518W        W 8943  31.012   7.715   0.211
36519W        W 8944   4.607  39.154   3.540
36520W        W 8945   4.722   6.148  13.917
36521W        W 8946   9.871  18.071  10.549
36522W        W 8947  33.156  41.915  12.162
36523W        W 8948  41.078  36.392   4.309
36524W        W 8949  22.973  32.456  13.761
36525W        W 8950  36.808   6.634   0.986
36526W        W 8951  39.985   5.404  11.596
36527W        W 8952  13.717   8.127  13.791
36528W        W 8953  16.676  33.631   1.799
36529W        W 8954  31.179  13.774  11.185
36530W        W 8955  11.843   1.218   4.348
36531W        W 8956  28.257  31.095  12.959
36532W        W 8957  25.230  21.588   3.331
36533W        W 8958  15.591  20.275   1.730
36534W        W 8959  42.918   0.344   0.317
36535W        W 8960  28.713  42.968   2.377
36536W        W 8961  25.040   1.712   1.735
36537W        W 8962  33.963  14.340  14.563
36538W        W 8963  31.471  26.141   0.708
36539W        W 8964  38.064   9.229  13.350
36540W        W 8965  25.479   1.479  14.778
36541W        W 8966  36.142   2.392  13.081
36542W        W 8967  26.017  27.612   1.511
36543W        W 8968   5.220   0.115  11.480
36544W        W 8969   6.953  21.124  14.282
36545W        W 8970  15.203  31.200  12.859
36546W        W 8971  12.623  32.484  13.898
36547W        W 8972  38.496  16.930  11.140
36548W        W 8973  22.149  22.051  14.304
36549W        W 8974  20.684  16.714  11.519
36550W        W 8975  11.107  38.843  13.936
36551W        W 8976  29.162  32.798   5.049
36552W        W 8977  18.548   0.395  11.435
36553W        W 8978  39.412  24.404   1.888
36554W        W 8979   2.658  24.239  12.311
36555W        W 8980  34.642  16.253   3.629
36556W        W 8981  10.318   9.652   4.651
36557W        W 8982   5.940  10.334   9.816
36558W        W 8983  38.041  40.941   1.012
36559W        W 8984  43.324   4.873  13.144
36560W        W 8985  23.029  24.261  14.104
36561W        W 8986  12.627  24.148  12.026
36562W        W 8987  26.931   6.345   3.890
36563W        W 8988  22.790  39.399  11.594
36564W        W 8989   6.492   6.191  11.710
36565W        W 8990  43.805  16.776   1.186
36566W        W 8991  35.041  28.854  13.122
36567W        W 8992  28.689  18.980   3.729
36568W        W 8993  13.146  42.131  12.615
36569W        W 8994  24.534  16.701   0.966
36570W        W 8995  17.327  24.872   0.484
36571W        W 8996  21.761  42.966  13.186
36572W        W 8997  27.464  15.837  11.434
36573W        W 8998  29.327  20.065   1.242
36574W        W 8999  27.624  40.005   2.272
36575W        W 9000  21.070   0.831   1.040
36576W        W 9001  26.555  17.801  14.397
36577W        W 9002  37.051  16.655   4.353
36578W        W 9003  36.026  18.771  12.038
36579W        W 9004  16.984  21.748  14.999
36580W        W 9005   1.667   9.310   4.938
36581W        W 9006  35.577  13.515   1.901
36582W        W 9007  36.797  34.971   2.290
36583W        W 9008  37.049  36.528   2.742
36584W        W 9009   1.150   5.114  14.597
36585W        W 9010  43.547   0.686  12.456
36586W        W 9011  20.662   8.807  12.790
36587W        W 9012  31.686  16.546  10.684
36588W        W 9013  24.553  16.175  13.773
36589W        W 9014  30.928  39.574  13.548
36590W        W 9015  13.895  44.786   2.389
36591W        W 9016  29.190  24.955  11.222
36592W        W 9017  11.656  32.485  13.105
36593W        W 9018  41.741  29.104  10.937
36594W        W 9019  18.148  21.698  13.911
36595W        W 9020  32.945   6.396  11.911
36596W        W 9021  34.321   7.181   2.287
36597W        W 9022  28.505   4.325   4.299
36598W        W 9023  37.551  42.757  11.841
36599W        W 9024  41.710  42.271   3.197
36600W        W 9025   3.871  34.018   0.966
36601W        W 9026   2.011  35.862  11.157
36602W        W 9027  33.922  32.632   1.260
36603W        W 9028  20.531  12.744   3.307
36604W        W 9029  20.271  23.997   2.879
36605W        W 9030  30.185  41.758  10.655
36606W        W 9031  14.695  19.226  13.427
36607W        W 9032   3.288  22.725   0.019
36608W        W 9033  17.352  10.434   1.866
36609W        W 9034  22.776  19.519  12.506
36610W        W 9035  11.112   3.470   0.623
36611W        W 9036   2.366  42.810   4.848
36612W        W 9037  44.750   8.386  11.186
36613W        W 9038  11.764  23.084  11.587
36614W        W 9039  28.988  18.209  12.916
36615W        W 9040   0.170  14.375  12.879
36616W        W 9041  28.199   5.459   1.677
36617W        W 9042  11.556   2.397   1.412
36618W        W 9043   8.621  20.606  12.939
36619W        W 9044   5.139  32.528  12.523
36620W        W 9045   4.624   8.944   5.107
36621W        W 9046  39.969  24.590  12.909
36622W        W 9047  19.662  33.922  10.339
36623W        W 9048   6.673  32.203   0.258
36624W        W 9049  33.746  14.012  12.480
36625W        W 9050   3.261  12.549  12.517
36626W        W 9051  44.944  18.307   3.697
36627W        W 9052  44.954  14.819  10.697
36628W        W 9053  44.768  19.311   3.793
36629W        W 9054  29.689  37.379  10.772
36630W        W 9055   0.657  23.049  12.456
36631W        W 9056   5.709  21.683  11.612
36632W        W 9057  12.777  26.604  14.725
36633W        W 9058  22.907  12.824   3.622
36634W        W 9059  43.440  31.676  10.645
36635W        W 9060  19.828  38.543  13.871
36636W        W 9061  30.632  10.308  11.153
36637W        W 9062  20.475  37.941   1.908
36638W        W 9063  20.935  33.449  13.271
36639W        W 9064  18.022  37.838  14.413
36640W        W 9065  42.961   0.285  10.794
36641W        W 9066  11.308  29.553  12.090
36642W        W 9067  42.541  36.220  13.091
36643W        W 9068  16.231  18.512  13.780
36644W        W 9069  31.210  37.488   4.969
36645W        W 9070  31.522   2.965   2.903
36646W        W 9071  38.326  21.249   4.804
36647W        W 9072  10.712  18.769   4.613
36648W        W 9073  21.038  14.733  14.135
36649W        W 9074  43.370  14.466  13.209
36650W        W 9075  20.631  30.665  12.829
36651W        W 9076  42.581  10.967   1.935
36652W        W 9077   1.747  13.713   2.168
36653W        W 9078  42.542  11.863  12.615
36654W        W 9079  43.372  21.705   0.843
36655W        W 9080  11.145  15.781   3.277
36656W        W 9081  39.185  21.006   2.896
36657W        W 9082  34.588  12.916   0.892
36658W        W 9083  10.862  16.329   1.321
36659W        W 9084  10.237   7.482  14.326
36660W        W 9085   8.302   5.335  11.161
36661W        W 9086  16.212  35.574   3.185
36662W        W 9087  39.940  32.379  10.714
36663W        W 9088   3.813  35.275  12.232
36664W        W 9089   4.188  26.620  11.723
36665W        W 9090   4.776  35.348  10.688
36666W        W 9091   9.894  41.907   1.831
36667W        W 9092  18.416  13.359  14.295
36668W        W 9093   1.550  33.338   1.567
36669W        W 9094   8.405  19.705   0.306
36670W        W 9095  21.981   2.257  13.744
36671W        W 9096  25.592  16.977   4.614
36672W        W 9097   7.278  32.022   2.454
36673W        W 9098  39.648   8.657   4.560
36674W        W 9099  11.083  10.072   5.017
36675W        W 9100  22.199   3.137  10.827
36676W        W 9101   5.001   2.682   1.287
36677W        W 9102  42.064  14.043  11.196
36678W        W 9103  19.366   1.100  10.813
36679W        W 9104  37.436  15.635  14.103
36680W        W 9105   6.393   7.362   0.733
36681W        W 9106   5.620  28.003  13.008
36682W        W 9107  30.055  11.931   2.767
36683W        W 9108   2.959   4.228  12.369
36684W        W 9109   6.130  18.730  10.738
36685W        W 9110  15.688  31.653  13.396
36686W        W 9111  36.647  11.798  11.266
36687W        W 9112  13.341  16.062   2.312
36688W        W 9113  44.066   2.898   1.002
36689W        W 9114  16.545  10.911  12.974
36690W        W 9115  41.908   8.544   2.997
36691W        W 9116  21.596  23.455  14.179
36692W        W 9117   7.841  38.570   2.232
36693W        W 9118  39.964   8.849   4.197
36694W        W 9119  34.013   2.152  13.597
36695W        W 9120  20.915  30.262  12.641
36696W        W 9121  15.691  18.303   5.222
36697W        W 9122  36.891   1.283   0.358
36698W        W 9123   5.629   0.436   0.866
36699W        W 9124  15.786  29.323   1.845
36700W        W 9125  14.194   9.663  14.474
36701W        W 9126   8.312   1.486  12.856
36702W        W 9127  38.238  25.095   9.544
36703W        W 9128  31.584  12.611   2.376
36704W        W 9129  19.037  23.263  10.738
36705W        W 9130   4.957  25.781  11.642
36706W        W 9131   1.671   2.490  10.604
36707W        W 9132   9.882  41.597   2.256
36708W        W 9133  27.075   5.345   4.567
36709W        W 9134   4.356  24.681  12.858
36710W        W 9135   2.399  38.619   1.753
36711W        W 9136  22.505  30.001   0.780
36712W        W 9137  28.029  40.653  12.393
36713W        W 9138   2.382  11.477   2.148
36714W        W 9139  14.802  44.759   0.286
36715W        W 9140  35.432  23.209  13.568
36716W        W 9141  14.372  11.198  13.136
36717W        W 9142  18.954  23.610   1.592
36718W        W 9143  26.176   4.397  10.956
36719W        W 9144  38.652  28.449   2.847
36720W        W 9145  20.061   4.225   1.400
36721W        W 9146   4.279   7.648  14.077
36722W        W 9147  31.678  28.852  11.554
36723W        W 9148  19.659   7.923   4.200
36724W        W 9149  17.822   9.924   0.969
36725W        W 9150  34.917   5.662   4.573
36726W        W 9151  40.581   1.037   0.938
36727W        W 9152  11.065  42.957  14.513
36728W        W 9153  15.862  37.442   1.970
36729W        W 9154  15.288  32.493   4.714
36730W        W 9155  40.406  29.952   3.679
36731W        W 9156  35.879  42.907   2.480
36732W        W 9157  13.758  37.143  12.978
36733W        W 9158  31.047  10.677  11.128
36734W        W 9159   4.446  20.635  14.393
36735W        W 9160  41.008  39.785  10.665
36736W        W 9161  32.400   1.252  13.880
36737W        W 9162  23.978  27.399  13.945
36738W        W 9163  30.022  35.427   4.009
36739W        W 9164  30.903  10.209  10.360
36740W        W 9165  44.529  19.274   0.287
36741W        W 9166   6.664  28.058   4.307
36742W        W 9167   4.791  22.852  13.755
36743W        W 9168  22.470  18.666  11.443
36744W        W 9169  24.852  10.450   5.075
36745W        W 9170  16.336   3.487   1.960
36746W        W 9171  18.292   1.760   3.672
36747W        W 9172  13.367   8.217   1.915
36748W        W 9173  27.990  44.241   2.565
36749W        W 9174  11.597  40.396   3.893
36750W        W 9175  19.369  26.046   4.678
36751W        W 9176  18.293  38.300  11.651
36752W        W 9177  20.466  16.345  12.437
36753W        W 9178  30.173  33.436   3.247
36754W        W 9179   6.702  20.687  13.028
36755W        W 9180  29.347  30.233  14.825
36756W        W 9181  34.370  14.625   4.029
36757W        W 9182  42.428  24.660   4.276
36758W        W 9183  43.448  29.917  12.212
36759W        W 9184  29.039   7.920  11.252
36760W        W 9185  24.570  10.026   4.948
36761W        W 9186  24.395  36.004  14.416
36762W        W 9187  19.039   8.718  12.427
36763W        W 9188  24.269  38.402  12.610
36764W        W 9189  24.169  28.175   0.324
36765W        W 9190  39.273   0.915   3.984
36766W        W 9191   3.764   0.800   4.814
36767W        W 9192  16.208  21.535  11.928
36768W        W 9193  39.041  42.771   2.568
36769W        W 9194  43.560  41.930   1.693
36770W        W 9195   9.868  37.138   2.377
36771W        W 9196  33.045  17.506  12.501
36772W        W 9197   5.788  20.697  13.137
36773W        W 9198  31.116  26.234  11.911
36774W        W 9199  43.218  11.843   1.714
36775W        W 9200  19.022  15.324   3.282
36776W        W 9201  14.800  17.763  14.324
36777W        W 9202  25.641  33.734  14.120
36778W        W 9203  36.756   5.642  11.766
36779W        W 9204  38.978  22.546  10.216
36780W        W 9205  22.689  18.325   2.213
36781W        W 9206   1.188  41.459   4.428
36782W        W 9207  24.182  18.691   1.675
36783W        W 9208  31.273   6.918  12.097
36784W        W 9209  25.616  22.441  13.060
36785W        W 9210  39.314  38.418   3.307
36786W        W 9211  43.404  26.928   1.130
36787W        W 9212  41.781  20.110   4.458
36788W        W 9213  26.542   1.469  12.139
36789W        W 9214  29.860   8.345   0.885
36790W        W 9215  10.002   2.842   3.915
36791W        W 9216  15.768  24.427   2.959
36792W        W 9217  41.956  43.941  10.904
36793W        W 9218  13.348  32.104  10.660
36794W        W 9219  43.415   8.829   2.585
36795W        W 9220  40.923  21.118   3.639
36796W        W 9221  23.544  28.545  12.170
36797W        W 9222  19.017  20.586  13.888
36798W        W 9223  32.506  39.070  14.824
36799W        W 9224  44.864  28.451  11.144
36800W        W 9225  26.549  12.172  10.951
36801W        W 9226  11.605  22.246   3.337
36802W        W 9227  34.427  36.116   1.350
36803W        W 9228  34.051   8.715   3.387
36804W        W 9229  25.711   4.480   1.718
36805W        W 9230  33.957  16.133   0.436
36806W        W 9231  36.091  20.039  11.465
36807W        W 9232  35.785   7.618   3.315
36808W        W 9233   3.837  41.348   0.403
36809W        W 9234  31.912  38.298   4.907
36810W        W 9235  44.816  30.021   2.494
36811W        W 9236   9.078  35.653  14.489
36812W        W 9237  34.173  23.525   1.234
36813W        W 9238  25.040  38.935  14.477
36814W        W 9239  23.561  44.040   4.200
36815W        W 9240   3.094  29.406  13.636
36816W        W 9241  14.782   6.642  12.773
36817W        W 9242  10.582   1.354  12.438
36818W        W 9243  31.186  31.188  14.290
36819W        W 9244  35.467   3.304   1.520
36820W        W 9245  35.503  35.524  12.915
36821W        W 9246  35.435  38.880  10.673
36822W        W 9247   0.879  11.767  12.408
36823W        W 9248  11.263  12.087   2.818
36824W        W 9249  33.311  34.335   4.329
36825W        W 9250  38.896  35.447   3.598
36826W        W 9251  30.543  35.002   4.628
36827W        W 9252   7.607  33.506   0.784
36828W        W 9253  41.985  25.145   3.760
36829W        W 9254  18.015   9.660   0.528
36830W        W 9255  17.087  36.174   5.389
36831W        W 9256  34.301  19.885   1.100
36832W        W 9257  22.329  15.216  10.668
36833W        W 9258  21.751  20.142   3.288
36834W        W 9259  29.174   7.652  11.675
36835W        W 9260  36.542  34.047  12.390
36836W        W 9261  12.759  35.563   0.378
36837W        W 9262  24.271  42.296   3.119
36838W        W 9263  38.073  31.686  11.952
36839W        W 9264  43.601  31.038  14.954
36840W        W 9265  27.976  38.784  10.687
36841W        W 9266  20.062  40.130   1.331
36842W        W 9267   1.581  11.373  13.312
36843W        W 9268  43.458  33.691  13.000
36844W        W 9269   9.781   3.815   3.982
36845W        W 9270  38.752   8.242  13.338
36846W        W 9271  40.111  12.269  10.626
36847W        W 9272   6.963  41.756   2.864
36848W        W 9273  25.693  29.876   4.878
36849W        W 9274  32.840   6.333  11.413
36850W        W 9275  30.505   0.344   3.303
36851W        W 9276  26.943  24.193   2.658
36852W        W 9277  28.711   0.293  13.387
36853W        W 9278   6.935  11.744   0.696
36854W        W 9279  38.048  21.967   1.368
36855W        W 9280   0.984   9.043   4.110
36856W        W 9281  20.371  37.802   5.129
36857W        W 9282  30.140  15.327  11.515
36858W        W 9283  34.036  33.981   2.417
36859W        W 9284   3.401  19.582  14.068
36860W        W 9285   2.716  23.950   1.764
36861W        W 9286  29.690   6.948  13.790
36862W        W 9287  23.094  34.065  12.544
36863W        W 9288  11.223  20.302  12.093
36864W        W 9289  18.590  18.176   3.094
36865W        W 9290  25.241   4.901   2.817
36866W        W 9291   7.098  15.751  11.104
36867W        W 9292  30.671  11.981  12.472
36868W        W 9293   1.941  22.730   2.040
36869W        W 9294  31.288  16.776   1.690
36870W        W 9295   7.697  29.197   1.818
36871W        W 9296  36.749  16.177   4.436
36872W        W 9297  10.262  20.219  13.403
36873W        W 9298  24.525  32.755  14.254
36874W        W 9299  25.225   9.358  12.081
36875W        W 9300  30.346   3.696  12.026
36876W        W 9301  21.661  32.433   0.826
36877W        W 9302  40.550   9.790   1.180
36878W        W 9303  37.193  34.364  14.893
36879W        W 9304  35.600  38.390  10.710
36880W        W 9305   4.881   7.675  12.658
36881W        W 9306  44.761   1.142   3.307
36882W        W 9307   0.959  20.911   2.225
36883W        W 9308   1.803  18.956   1.737
36884W        W 9309  32.039   4.957  12.076
36885W        W 9310   6.143  18.653   2.234
36886W        W 9311  36.510  24.609   0.282
36887W        W 9312  40.457  19.831   4.698
36888W        W 9313  26.166   5.331  10.675
36889W        W 9314   6.687  39.283  11.601
36890W        W 9315   8.742  33.661   1.644
36891W        W 9316  26.489   3.320  11.076
36892W        W 9317  36.466  28.435   1.280
36893W        W 9318  32.854   9.020  14.424
36894W        W 9319  28.700  23.250   0.434
36895W        W 9320  24.376   2.054   0.887
36896W        W 9321   9.074   4.493  13.771
36897W        W 9322   4.402  36.158  10.697
36898W        W 9323   9.877  41.816  12.547
36899W        W 9324  29.464  32.956  14.362
36900W        W 9325  15.305  12.653   0.428
36901W        W 9326  21.643   9.623  14.815
36902W        W 9327  25.991  41.420  13.984
36903W        W 9328  22.789  39.416  13.885
36904W        W 9329  44.228  27.371   1.414
36905W        W 9330  41.088  22.044   0.921
36906W        W 9331  42.518  19.175  10.597
36907W        W 9332  23.919  40.762  13.256
36908W        W 9333  19.649   4.967  13.498
36909W        W 9334  40.557  21.225  10.692
36910W        W 9335  16.592  43.453  13.297
36911W        W 9336   8.749   8.160  11.154
36912W        W 9337  25.046  17.118  10.579
36913W        W 9338  30.326   2.412   0.974
36914W        W 9339  17.849  12.223   4.075
36915W        W 9340  40.332  18.521  12.410
36916W        W 9341  28.162  44.845  10.832
36917W        W 9342  17.352  20.790   3.976
36918W        W 9343  27.481  21.004   0.643
36919W        W 9344   7.714   2.463   0.844
36920W        W 9345  21.255  21.160   3.690
36921W        W 9346  41.425  42.538   4.817
36922W        W 9347  10.394  41.406  14.424
36923W        W 9348  29.132  36.520  13.410
36924W        W 9349   3.417   4.783   0.454
36925W        W 9350   3.798  18.710   2.783
36926W        W 9351  43.426   1.328  14.476
36927W        W 9352  34.864  17.997  12.537
36928W        W 9353  44.149  23.008  12.460
36929W        W 9354  32.891  22.148   0.378
36930W        W 9355  39.855  13.058  11.213
36931W        W 9356   4.840  42.334  11.707
36932W        W 9357  42.636  35.432   2.379
36933W        W 9358  39.022  41.884  12.313
36934W        W 9359   9.424  35.387  12.614
36935W        W 9360  38.743  15.689   0.836
36936W        W 9361  41.627  42.218   0.772
36937W        W 9362  29.457  23.334   3.806
36938W        W 9363  27.607  39.534   1.017
36939W        W 9364  19.231  33.068   4.854
36940W        W 9365  30.970  41.936  13.572
36941W        W 9366   6.315  36.023  11.033
36942W        W 9367  21.533  25.984   2.416
36943W        W 9368  13.134  44.543  11.094
36944W        W 9369  16.610   8.861  14.008
36945W        W 9370  35.132   2.644  13.955
36946W        W 9371   6.679  30.247  13.467
36947W        W 9372  42.810  24.536  14.485
36948W        W 9373  32.587  31.009   4.311
36949W        W 9374  33.353   1.412  14.446
36950W        W 9375  32.998  34.303   3.573
36951W        W 9376  37.853  16.767   1.892
36952W        W 9377  34.969   6.423  12.994
36953W        W 9378  30.624  31.539  13.511
36954W        W 9379   1.764  15.286   2.197
36955W        W 9380  31.033  19.234   0.346
36956W        W 9381   0.523  28.608   2.835
36957W        W 9382   3.911  26.011   3.383
36958W        W 9383  12.164  27.251  10.504
36959W        W 9384  12.681  38.033   1.239
36960W        W 9385  13.453   8.674  11.863
36961W        W 9386  34.175  18.313   3.213
36962W        W 9387  38.376  18.359   1.180
36963W        W 9388  31.878  40.252  13.936
36964W        W 9389  24.440   9.853  12.058
36965W        W 9390  43.611  26.341  11.136
36966W        W 9391  34.415  21.135  14.149
36967W        W 9392   6.904  31.813  11.830
36968W        W 9393   8.745  40.388   4.547
36969W        W 9394  10.514  42.935  10.801
36970W        W 9395  31.411  33.053  14.930
36971W        W 9396  15.012   4.866   1.316
36972W        W 9397  16.344  22.994   1.323
36973W        W 9398   9.169  18.703  12.043
36974W        W 9399  38.061   3.815  12.046
36975W        W 9400  43.435  10.733   4.301
36976W        W 9401  20.319  37.707   2.659
36977W        W 9402  26.720  16.072   3.754
36978W        W 9403  40.058  35.026   3.049
36979W        W 9404  35.570  40.982  14.835
36980W        W 9405  21.541  20.740   4.843
36981W        W 9406  34.951  37.787  10.634
36982W        W 9407  18.673   3.546  14.004
36983W        W 9408   2.781  44.330   1.335
36984W        W 9409  34.445   2.300   3.423
36985W        W 9410  28.213  27.065  10.429
36986W        W 9411  23.841  15.743   0.518
36987W        W 9412  40.475   9.913   1.674
36988W        W 9413  20.240  30.222   1.109
36989W        W 9414  25.904  34.521   3.598
36990W        W 9415   3.905  18.699  10.673
36991W        W 9416  40.971  32.409  10.667
36992W        W 9417  33.411  39.041   0.327
36993W        W 9418  39.760  10.403   1.485
36994W        W 9419  13.260  39.389  12.511
36995W        W 9420  44.549  24.555  10.663
36996W        W 9421  29.888  15.181   4.212
36997W        W 9422  33.880  12.073  11.737
36998W        W 9423  19.216  35.056   3.813
36999W        W 9424   9.535   7.527  13.590
37000W        W 9425  11.182  43.220   2.290
37001W        W 9426   2.017  12.870  11.447
37002W        W 9427  41.668   1.822  10.647
37003W        W 9428  17.460   0.706   0.425
37004W        W 9429  19.786  39.814   1.007
37005W        W 9430  35.258  30.082  14.864
37006W        W 9431  33.756  15.187  12.082
37007W        W 9432  22.813  35.414   1.201
37008W        W 9433  42.563  21.973   2.050
37009W        W 9434   7.600  22.984   1.386
37010W        W 9435  14.087  32.330  13.898
37011W        W 9436   2.190  28.228   2.401
37012W        W 9437  32.860  11.244   1.380
37013W        W 9438  34.343  44.647   1.570
37014W        W 9439   5.757   8.329  11.620
37015W        W 9440  25.130  41.411  13.447
37016W        W 9441   3.152  44.301  13.422
37017W        W 9442  10.653   3.971   1.230
37018W        W 9443  28.203  26.184  12.445
37019W        W 9444  39.938   0.045   1.792
37020W        W 9445  20.850   7.928   3.774
37021W        W 9446  42.424  31.343  12.379
37022W        W 9447  13.317  20.812  13.732
37023W        W 9448   5.620  41.509  14.252
37024W        W 9449  40.566   1.365   0.133
37025W        W 9450  13.944  16.010   3.317
37026W        W 9451   3.879   2.856   4.366
37027W        W 9452  28.607   7.092  11.147
37028W        W 9453   7.985  20.242   3.803
37029W        W 9454  40.421  35.668  10.656
37030W        W 9455   5.269  33.209  12.080
37031W        W 9456  16.759  10.155  11.874
37032W        W 9457  12.520  39.839   4.552
37033W        W 9458   5.742  25.941  11.549
37034W        W 9459  40.483  25.061   1.892
37035W        W 9460   0.220  29.232  12.238
37036W        W 9461   4.488  35.957  14.712
37037W        W 9462  11.858   2.947   0.706
37038W        W 9463  32.056   4.649  11.607
37039W        W 9464  44.375  11.636  12.988
37040W        W 9465  17.316  38.379   1.435
37041W        W 9466  22.513  18.013  10.160
37042W        W 9467   9.030  32.318  13.275
37043W        W 9468  14.695  26.715  12.345
37044W        W 9469  41.269  14.774   2.294
37045W        W 9470   8.823  28.971   0.307
37046W        W 9471  14.739  26.432   1.737
37047W        W 9472   7.832  34.930  11.159
37048W        W 9473   5.198  35.941  13.678
37049W        W 9474   6.176  19.039  14.557
37050W        W 9475  43.279  37.946   3.434
37051W        W 9476   4.687  43.361  14.291
37052W        W 9477   1.423  32.199  11.076
37053W        W 9478   4.675  22.360   1.712
37054W        W 9479  31.685  17.068   1.872
37055W        W 9480   2.941  30.990  11.503
37056W        W 9481   2.674  12.126  13.096
37057W        W 9482  24.516   7.095  11.153
37058W        W 9483   2.311   9.818  14.402
37059W        W 9484   8.814  20.681   3.240
37060W        W 9485   5.428  31.085  12.560
37061W        W 9486   0.701   6.411   0.761
37062W        W 9487  31.036   7.597   4.821
37063W        W 9488  38.598  20.780  12.092
37064W        W 9489  41.311   6.411   0.228
37065W        W 9490   4.260  39.028   4.341
37066W        W 9491  28.460  33.997   5.680
37067W        W 9492  14.590   4.571  14.860
37068W        W 9493  33.603  18.007  11.085
37069W        W 9494  37.819  27.482  12.020
37070W        W 9495  29.921  11.437   2.752
37071W        W 9496  39.800  43.817  13.314
37072W        W 9497  35.377  14.205  12.364
37073W        W 9498  25.102   7.752   2.835
37074W        W 9499   7.070  11.121  13.947
37075W        W 9500  28.144  25.101  10.754
37076W        W 9501   9.923  20.702  14.954
37077W        W 9502  11.154   7.871   0.895
37078W        W 9503  21.239   0.395  14.465
37079W        W 9504  31.156  33.561  10.226
37080W        W 9505   3.479  23.043   1.768
37081W        W 9506  23.914  34.163  12.025
37082W        W 9507   9.609  19.065  12.019
37083W        W 9508  20.102  32.310   4.610
37084W        W 9509  15.858  18.227   3.257
37085W        W 9510  41.930  28.399   3.160
37086W        W 9511  39.076  32.497   3.669
37087W        W 9512  22.789  14.339  12.994
37088W        W 9513  22.092  29.930   1.871
37089W        W 9514  30.676   8.402   0.231
37090W        W 9515  18.019  31.827   1.897
37091W        W 9516  14.051  26.069   4.194
37092W        W 9517   9.771  26.425   4.666
37093W        W 9518  29.626  31.648   4.867
37094W        W 9519  20.227  23.369  11.641
37095W        W 9520  23.771  19.559   4.135
37096W        W 9521  30.979  41.015  14.090
37097W        W 9522   3.481  27.368  12.993
37098W        W 9523  12.670  20.611   4.662
37099W        W 9524  40.814  20.736   2.408
37100W        W 9525  32.386  11.410  13.855
37101W        W 9526  39.780  26.100   3.277
37102W        W 9527   7.249  29.397  14.236
37103W        W 9528  21.406  35.504   1.707
37104W        W 9529  31.501   3.708   2.341
37105W        W 9530  17.703  18.525   3.487
37106W        W 9531  16.923  21.628   4.650
37107W        W 9532  28.459  32.351  12.519
37108W        W 9533  10.803   1.367  11.106
37109W        W 9534  22.550  16.101   4.684
37110W        W 9535  12.695   1.757   0.573
37111W        W 9536  13.713  17.070  11.586
37112W        W 9537  10.199  17.622   1.385
37113W        W 9538  38.145  41.337  13.009
37114W        W 9539  43.250  11.863  14.881
37115W        W 9540  36.870   1.336  11.092
37116W        W 9541   5.281  28.471  14.829
37117W        W 9542  34.504  12.718   3.246
37118W        W 9543  30.499  40.536   4.684
37119W        W 9544   6.687  15.590   3.247
37120W        W 9545   5.383  37.561   0.585
37121W        W 9546  38.850  28.123  12.961
37122W        W 9547  24.443  12.119  14.157
37123W        W 9548   9.382  44.710  11.047
37124W        W 9549  13.883  44.352  13.366
37125W        W 9550  26.571  19.747  14.907
37126W        W 9551  38.440  41.795   1.009
37127W        W 9552  15.873   4.700   4.710
37128W        W 9553   9.648  12.787   4.215
37129W        W 9554  20.627  12.622  11.116
37130W        W 9555  25.695  29.404   1.493
37131W        W 9556  13.623   8.369  14.954
37132W        W 9557  34.995  33.365  13.087
37133W        W 9558  38.259  32.940  10.357
37134W        W 9559  14.379  41.082  13.888
37135W        W 9560  30.206  38.883  13.433
37136W        W 9561  25.731  35.507   2.610
37137W        W 9562  24.084  33.973  14.984
37138W        W 9563  36.105  27.189   0.668
37139W        W 9564  23.578  23.187  14.861
37140W        W 9565  11.352  11.831   0.961
37141W        W 9566  15.740  26.471  12.081
37142W        W 9567  37.869  17.682   1.061
37143W        W 9568  22.557  41.536  14.967
37144W        W 9569   8.358  41.538   3.437
37145W        W 9570  37.848  35.043   3.604
37146W        W 9571  19.381   8.453   2.291
37147W        W 9572  41.068  21.919  13.386
37148W        W 9573  34.069  44.298   0.452
37149W        W 9574  22.553  12.032   2.606
37150W        W 9575  39.870  34.858  13.130
37151W        W 9576   9.809  33.553   1.233
37152W        W 9577  39.735  12.740   1.859
37153W        W 9578  25.528  39.806   3.024
37154W        W 9579   7.779   3.152   1.628
37155W        W 9580  11.931   1.860  12.496
37156W        W 9581  29.493  19.962  12.532
37157W        W 9582  42.044  40.919   3.801
37158W        W 9583  10.722  17.395   1.403
37159W        W 9584  19.660   1.002   0.646
37160W        W 9585  40.522   5.888  10.359
37161W        W 9586   5.251  19.528   4.531
37162W        W 9587  22.238  11.665   0.856
37163W        W 9588  23.328  28.457   1.403
37164W        W 9589  18.694  25.933  12.979
37165W        W 9590  29.556  33.882   1.904
37166W        W 9591  20.224   1.842   0.946
37167W        W 9592   5.835  38.446  13.411
37168W        W 9593  30.691  16.819   4.254
37169W        W 9594  35.477  29.201   3.789
37170W        W 9595  38.316  20.159  14.988
37171W        W 9596  35.830  19.921  13.862
37172W        W 9597  13.200   3.606  10.974
37173W        W 9598   9.774  18.084   2.468
37174W        W 9599  14.235  15.160   0.364
37175W        W 9600  42.242   6.416  10.685
37176W        W 9601  30.656  36.909  14.371
37177W        W 9602  17.738  33.616  11.875
37178W        W 9603   8.002   5.751   1.495
37179W        W 9604  14.709  24.241   1.406
37180W        W 9605  35.392  20.171   1.959
37181W        W 9606  19.179  33.277  11.529
37182W        W 9607  16.886  25.360  11.995
37183W        W 9608  37.861   8.420  13.951
37184W        W 9609  12.243  31.600   1.840
37185W        W 9610  39.038   4.019  13.549
37186W        W 9611  34.396  36.400  10.720
37187W        W 9612   5.896  18.581   2.688
37188W        W 9613  10.805  16.790   0.003
37189W        W 9614  13.590  21.590  14.204
37190W        W 9615  21.056  42.530   4.605
37191W        W 9616   9.383  31.094   0.007
37192W        W 9617  18.771  12.211   3.040
37193W        W 9618  12.081  40.066   3.050
37194W        W 9619  31.728  35.543   0.933
37195W        W 9620  34.764  14.721  13.458
37196W        W 9621  44.901  38.367   4.334
37197W        W 9622   5.411  23.194  11.130
37198W        W 9623  39.475  31.224   4.044
37199W        W 9624  22.709  23.890  14.324
37200W        W 9625  37.519  22.930   2.319
37201W        W 9626  31.950  28.597   1.164
37202W        W 9627  18.601  15.038  11.868
37203W        W 9628  26.136  23.985  14.983
37204W        W 9629  12.653  34.477   0.752
37205W        W 9630   2.983   6.596  11.493
37206W        W 9631  30.447   4.683  14.555
37207W        W 9632  34.610   2.752  13.950
37208W        W 9633  30.834   3.816   4.473
37209W        W 9634  40.785   0.352   1.660
37210W        W 9635  21.277   3.287   1.399
37211W        W 9636  33.768   4.716  14.772
37212W        W 9637   8.261  30.619   2.306
37213W        W 9638  15.336  11.647   1.783
37214W        W 9639  20.005  30.245  12.393
37215W        W 9640   7.448  35.993   1.385
37216W        W 9641  33.093   3.261  12.824
37217W        W 9642  28.021  30.897   5.101
37218W        W 9643  29.720  43.820   4.020
37219W        W 9644  29.665  44.951   0.718
37220W        W 9645   6.492  10.381   3.578
37221W        W 9646  33.348  21.542   0.783
37222W        W 9647  31.225  37.397   0.976
37223W        W 9648   0.919  33.804  13.401
37224W        W 9649  42.857  29.992  10.933
37225W        W 9650  10.255   2.322  13.560
37226W        W 9651   5.217  27.662   0.373
37227W        W 9652   0.731  16.795  12.488
37228W        W 9653  18.811  44.610   0.934
37229W        W 9654   4.720  13.681   9.783
37230W        W 9655  33.102   5.966  11.677
37231W        W 9656  39.993  26.071   2.376
37232W        W 9657  13.974  37.970   1.894
37233W        W 9658  33.348  40.980   2.269
37234W        W 9659  14.682  23.247  14.241
37235W        W 9660  12.512  27.477   1.188
37236W        W 9661  41.373  21.286   2.686
37237W        W 9662  20.207  35.294  13.020
37238W        W 9663  40.519  33.675  12.199
37239W        W 9664  24.198  31.144   3.886
37240W        W 9665  35.636  23.113   1.489
37241W        W 9666  30.122  14.321  13.998
37242W        W 9667  18.610  20.184  10.414
37243W        W 9668  44.518   9.274  13.471
37244W        W 9669  38.102  24.488   3.156
37245W        W 9670  22.487   9.409  11.022
37246W        W 9671   5.637  36.183   1.139
37247W        W 9672   0.978  34.535   0.906
37248W        W 9673  26.456  37.014  13.041
37249W        W 9674  17.644  16.390   2.905
37250W        W 9675  20.088  33.704  13.506
37251W        W 9676  13.862  11.777  13.986
37252W        W 9677  31.507  39.189  14.884
37253W        W 9678   4.174  32.386   2.282
37254W        W 9679  17.181  28.129  10.596
37255W        W 9680  27.242  43.874  11.862
37256W        W 9681  37.914  38.442  14.758
37257W        W 9682  15.663   4.257  12.017
37258W        W 9683  14.100  29.187  11.538
37259W        W 9684   3.884  33.665  12.281
37260W        W 9685  12.773  30.171  13.391
37261W        W 9686   5.379  31.582   3.609
37262W        W 9687  15.316  30.696  12.757
37263W        W 9688  44.505  23.035  14.355
37264W        W 9689  23.094  21.684  10.784
37265W        W 9690  13.339   0.488   3.987
37266W        W 9691  27.186  15.361   3.766
37267W        W 9692  12.300  12.919  13.889
37268W        W 9693   0.429  33.590   0.824
37269W        W 9694   6.206  29.656  14.226
37270W        W 9695  32.061  39.525   3.634
37271W        W 9696  19.074  36.601   2.309
37272W        W 9697  19.783   0.814  12.534
37273W        W 9698  42.378  37.317   3.250
37274W        W 9699  26.064  14.933  14.382
37275W        W 9700  28.372  22.881   0.320
37276W        W 9701  37.575  31.963   3.787
37277W        W 9702  31.712   4.232   3.725
37278W        W 9703  21.996  25.688   1.896
37279W        W 9704  30.547  44.193   1.628
37280W        W 9705   2.175  12.783   2.852
37281W        W 9706  33.167  28.580   1.886
37282W        W 9707  22.600  37.856   2.199
37283W        W 9708   0.072   4.178  13.661
37284W        W 9709   1.948   4.899  14.285
37285W        W 9710  14.168  37.719   2.843
37286W        W 9711   0.038  20.360   4.238
37287W        W 9712  36.093  38.817  14.977
37288W        W 9713   8.256   2.185  11.604
37289W        W 9714  24.146  21.555   0.725
37290W        W 9715  40.473   8.455   0.406
37291W        W 9716  43.902  11.241   4.664
37292W        W 9717  40.362  32.759  11.916
37293W        W 9718  18.651  12.991   3.607
37294W        W 9719  38.585  25.561  10.224
37295W        W 9720  38.584  26.689   3.709
37296W        W 9721  35.585  26.023   0.510
37297W        W 9722  11.307   7.632   3.261
37298W        W 9723   5.062  18.578   4.528
37299W        W 9724  13.673  29.464   2.198
37300W        W 9725  43.417  29.865  11.567
37301W        W 9726   5.496  10.432  13.500
37302W        W 9727  30.574  21.562   1.716
37303W        W 9728  10.103   4.350  12.474
37304W        W 9729  18.529  10.723   3.190
37305W        W 9730  17.780  37.014   3.698
37306W        W 9731  37.941  27.741   3.664
37307W        W 9732   3.309   9.716   4.106
37308W        W 9733   6.146  31.548  14.851
37309W        W 9734  30.696  30.191  11.192
37310W        W 9735   8.682  36.204   2.645
37311W        W 9736  22.988  43.221  14.098
37312W        W 9737  18.999  22.916   0.860
37313W        W 9738   1.718  40.412   2.736
37314W        W 9739  28.434   9.369   3.643
37315W        W 9740  28.417  40.584   1.002
37316W        W 9741  42.875  28.762   2.738
37317W        W 9742  23.544  29.509  13.536
37318W        W 9743   6.913   7.370  13.514
37319W        W 9744   1.423  14.791  11.781
37320W        W 9745  15.273  15.789   1.723
37321W        W 9746  16.860  20.055  10.589
37322W        W 9747  19.896  30.661   2.487
37323W        W 9748  41.902  27.212   4.057
37324W        W 9749   5.254  25.520   1.199
37325W        W 9750  11.228  10.692   2.644
37326W        W 9751  42.323  33.436   1.436
37327W        W 9752   0.196   4.254  14.529
37328W        W 9753  43.550  35.940  12.153
37329W        W 9754  22.507  35.812  10.157
37330W        W 9755  25.684   3.062  11.131
37331W        W 9756  29.198  34.982  12.039
37332W        W 9757   6.170  34.842  11.566
37333W        W 9758  23.570   8.525  10.044
37334W        W 9759  14.272   2.792   0.005
37335W        W 9760  15.290   8.243  14.794
37336W        W 9761   6.353  28.978   0.069
37337W        W 9762   3.920  41.372   3.722
37338W        W 9763   9.165  35.935  10.605
37339W        W 9764  30.285  36.797  12.502
37340W        W 9765  32.368  10.730   4.389
37341W        W 9766  30.558  37.942  14.510
37342W        W 9767   8.122   5.247   4.203
37343W        W 9768  39.565  30.310   1.831
37344W        W 9769   1.022  21.876   4.065
37345W        W 9770   7.321  17.330   2.265
37346W        W 9771   7.532  40.822  11.162
37347W        W 9772  14.854   8.913  10.720
37348W        W 9773  22.554  33.131   3.019
37349W        W 9774  41.573   8.417  11.012
37350W        W 9775  20.149  32.025   4.212
37351W        W 9776   2.813  14.616  11.675
37352W        W 9777  18.678  43.704   2.817
37353W        W 9778  31.762  43.599   0.051
37354W        W 9779  12.259  34.859   4.792
37355W        W 9780   1.949  21.392   2.141
37356W        W 9781  20.444   9.571  13.102
37357W        W 9782  36.331  20.765   1.429
37358W        W 9783  44.157  29.975   3.318
37359W        W 9784  38.898  30.944  13.404
37360W        W 9785  40.082  25.145   0.302
37361W        W 9786   4.034   8.400   3.483
37362W        W 9787   7.005  39.570  13.911
37363W        W 9788  38.722  35.081   4.954
37364W        W 9789  18.790  34.332  10.788
37365W        W 9790  34.480  10.799   3.700
37366W        W 9791  35.635  18.232   0.952
37367W        W 9792   4.909  26.328   1.535
37368W        W 9793  40.971  31.467  13.977
37369W        W 9794   9.918  27.671   0.460
37370W        W 9795  39.719  11.419   3.712
37371W        W 9796  36.806  42.000   4.658
37372W        W 9797  41.008  13.369  12.850
37373W        W 9798   4.207  34.220  13.933
37374W        W 9799  25.454  37.495   1.886
37375W        W 9800  10.070  11.906  13.877
37376W        W 9801   6.450  31.904  11.499
37377W        W 9802  37.329  21.783   0.206
37378W        W 9803  22.806   3.412   3.660
37379W        W 9804  17.694  33.952   4.026
37380W        W 9805  43.997  13.172   4.698
37381W        W 9806  40.478   3.269  12.885
37382W        W 9807  43.801  41.761   2.236
37383W        W 9808  26.620  11.321   4.352
37384W        W 9809   3.249  37.461  13.410
37385W        W 9810  35.589  37.302   0.872
37386W        W 9811  44.964  24.573   4.060
37387W        W 9812  17.072  38.132   1.881
37388W        W 9813  10.102   7.250   0.364
37389W        W 9814  39.599  34.108  11.581
37390W        W 9815  24.158  29.387  12.434
37391W        W 9816  34.747  19.581   2.794
37392W        W 9817  43.720   9.821   2.222
37393W        W 9818  35.113  19.817  14.487
37394W        W 9819  33.560  13.509   1.784
37395W        W 9820  27.477   2.258  11.582
37396W        W 9821  10.402   6.174   4.643
37397W        W 9822  28.204  29.109   4.373
37398W        W 9823  20.618  23.431  12.479
37399W        W 9824  29.248  32.446   0.267
37400W        W 9825   6.301  42.532  14.395
37401W        W 9826   7.701   9.978  11.083
37402W        W 9827  29.431  41.925   2.091
37403W        W 9828  39.113  17.672  12.606
37404W        W 9829  37.290  42.479   2.378
37405W        W 9830  26.823  13.861   2.308
37406W        W 9831  34.836  36.641  10.949
37407W        W 9832   9.959  11.249   1.958
37408W        W 9833  42.467  14.043  10.870
37409W        W 9834  22.069  44.461  14.827
37410W        W 9835  25.704   1.599   1.384
37411W        W 9836  18.572  27.153   1.164
37412W        W 9837   5.466  38.462   0.412
37413W        W 9838  19.065  16.590   1.375
37414W        W 9839  40.765  12.706   1.844
37415W        W 9840  30.123  19.978   2.225
37416W        W 9841  39.754  17.758  11.782
37417W        W 9842  40.738   0.153   0.690
37418W        W 9843  40.045  21.310  12.843
37419W        W 9844   1.351  30.694   1.822
37420W        W 9845  31.093   5.960   0.136
37421W        W 9846  33.190  32.477   0.534
37422W        W 9847  27.438  24.167   0.262
37423W        W 9848  17.138  30.719   3.253
37424W        W 9849  16.214  20.178   4.384
37425W        W 9850  41.639  25.222  10.433
37426W        W 9851  13.123   0.482   0.556
37427W        W 9852  19.191  41.917   3.200
37428W        W 9853  15.711   1.974  13.591
37429W        W 9854  17.689  23.264  12.583
37430W        W 9855  42.578  29.038   3.658
37431W        W 9856  40.826  27.275   0.627
37432W        W 9857  26.606  22.525  14.967
37433W        W 9858  16.215  37.323   0.323
37434W        W 9859  43.057   1.745  13.770
37435W        W 9860  11.859  13.419   0.233
37436W        W 9861  37.445  24.675  13.936
37437W        W 9862   1.526  36.531   1.746
37438W        W 9863  27.616  20.621  10.731
37439W        W 9864  33.098  33.915   0.765
37440W        W 9865  38.803  21.052  13.546
37441W        W 9866  33.168  24.671   1.248
37442W        W 9867  44.310  36.491   4.640
37443W        W 9868  18.585   4.029  13.070
37444W        W 9869  25.294  23.145   1.656
37445W        W 9870  27.896  28.645   3.285
37446W        W 9871  38.771  39.596   1.301
37447W        W 9872  35.638  31.134   2.512
37448W        W 9873  39.365  27.838   3.690
37449W        W 9874  16.677  16.553  11.984
37450W        W 9875  31.164   6.981  14.054
37451W        W 9876   2.314  12.948  10.733
37452W        W 9877  14.010  31.036   0.715
37453W        W 9878  13.657  12.320   2.639
37454W        W 9879   8.864  44.598  14.810
37455W        W 9880   5.370  35.500  12.404
37456W        W 9881  13.531   6.440  11.576
37457W        W 9882  27.499   5.417  11.848
37458W        W 9883  31.367  24.579   1.849
37459W        W 9884  23.967   7.942   3.778
37460W        W 9885  18.189  27.148  12.161
37461W        W 9886  25.610  32.005   1.383
37462W        W 9887  12.206   4.257  11.366
37463W        W 9888  21.569   6.916   4.199
37464W        W 9889  27.451   1.386   1.808
37465W        W 9890  25.216  27.032  14.885
37466W        W 9891  37.082   8.434   0.311
37467W        W 9892  36.156   1.294   4.099
37468W        W 9893  11.701  23.176  11.083
37469W        W 9894  41.698  13.934   0.268
37470W        W 9895   2.859  42.825  12.645
37471W        W 9896  16.280  28.613  10.594
37472W        W 9897  28.693  31.385   4.079
37473W        W 9898  26.260  39.288   4.087
37474W        W 9899  26.771  18.729  13.096
37475W        W 9900  27.758   7.262  11.596
37476W        W 9901   7.407   1.828  13.406
37477W        W 9902  37.955  30.939   3.572
37478W        W 9903   1.134   9.576  14.813
37479W        W 9904  30.682  13.097  11.540
37480W        W 9905   5.240   7.587  11.773
37481W        W 9906  26.192  34.598  14.415
37482W        W 9907   6.847   8.188   4.052
37483W        W 9908  29.860  22.138   1.918
37484W        W 9909  23.587  17.645  14.441
37485W        W 9910  12.235   7.826   0.393
37486W        W 9911  41.463   5.812  13.475
37487W        W 9912   5.197  11.175   1.129
37488W        W 9913  28.193  16.850  11.125
37489W        W 9914  10.238  23.847  13.483
37490W        W 9915  20.635   7.123   2.232
37491W        W 9916  11.583  44.070   2.328
37492W        W 9917   9.619  15.191   4.099
37493W        W 9918  21.299  13.791  10.680
37494W        W 9919  33.649  14.727   1.315
37495W        W 9920   4.416   7.416  11.950
37496W        W 9921  35.804  30.661   2.824
37497W        W 9922  38.823  14.222  12.597
37498W        W 9923  39.067  23.154   1.483
37499W        W 9924  18.713   0.887   0.217
37500W        W 9925  19.552  38.530   4.502
37501W        W 9926   3.944   6.478   2.962
37502W        W 9927  38.623  27.957  13.403
37503W        W 9928  27.454  44.248  10.644
37504W        W 9929  32.773  29.968   1.233
37505W        W 9930  27.472  36.025  10.567
37506W        W 9931  25.171  23.451   4.333
37507W        W 9932  12.417   3.774   3.232
37508W        W 9933  13.190  16.511  12.595
37509W        W 9934  15.011  43.062   4.093
37510W        W 9935  35.946  29.492  10.719
37511W        W 9936   9.059  12.770   1.889
37512W        W 9937  17.006  34.525  14.332
37513W        W 9938   5.326   6.210   1.709
37514W        W 9939   4.905  16.391  12.439
37515W        W 9940  32.944  14.242   2.687
37516W        W 9941  39.031  14.920   2.773
37517W        W 9942  25.441  12.167   1.777
37518W        W 9943   2.576  36.931  11.618
37519W        W 9944  22.168  24.390   0.004
37520W        W 9945  40.337  15.295   4.627
37521W        W 9946   2.024  31.053  12.789
37522W        W 9947  37.370  42.023  11.911
37523W        W 9948  24.155  30.911   3.376
37524W        W 9949   8.083  19.345   1.221
37525W        W 9950  28.136   0.881  10.188
37526W        W 9951  35.982   6.434  11.188
37527W        W 9952  15.163  23.871   5.453
37528W        W 9953  12.430  40.998  13.650
37529W        W 9954  38.893  19.487  14.391
37530W        W 9955  44.732  10.225  12.986
37531W        W 9956  29.605   9.672  14.977
37532W        W 9957  31.013   1.819   3.435
37533W        W 9958  32.320  25.156  12.070
37534W        W 9959  41.491  28.015  14.807
37535W        W 9960  20.274  15.051   0.188
37536W        W 9961  24.655  14.049   2.911
37537W        W 9962   1.470  25.439  13.870
37538W        W 9963   7.655  15.491   2.416
37539W        W 9964  26.162  11.238  12.045
37540W        W 9965   4.404   8.845  14.798
37541W        W 9966  28.996   2.743   0.709
37542W        W 9967  12.027  12.378  14.800
37543W        W 9968  35.815   8.604  13.540
37544W        W 9969  23.581  12.851  13.390
37545W        W 9970  34.390  16.566   1.234
37546W        W 9971  24.048  13.663  10.411
37547W        W 9972  16.771  32.536   0.951
37548W        W 9973  18.725  27.894   0.695
37549W        W 9974  17.511  27.489  11.926
37550W        W 9975  37.467  41.080  10.606
37551W        W 9976  22.051   7.865   1.747
37552W        W 9977  25.255  38.660   3.643
37553W        W 9978  18.577  30.449  11.372
37554W        W 9979   8.854  13.588   3.665
37555W        W 9980  20.546  13.352   2.964
37556W        W 9981  10.876  44.393  10.590
37557W        W 9982  43.927  16.351  10.595
37558W        W 9983  36.297  11.758   0.431
37559W        W 9984   4.498  22.537   3.266
37560W        W 9985  40.493   1.205  13.239
37561W        W 9986  15.822  30.985  10.589
37562W        W 9987  16.150  32.871  11.135
37563W        W 9988  40.516  34.710   2.359
37564W        W 9989  42.824  25.727  13.058
37565W        W 9990  30.370  13.274  14.455
37566W        W 9991  21.263  23.526   0.319
37567W        W 9992   3.756   4.837  11.117
37568W        W 9993   0.047  20.095   0.268
37569W        W 9994   6.209   3.707   4.520
37570W        W 9995  35.336  32.525   1.358
37571W        W 9996  24.742  37.554  12.349
37572W        W 9997  20.119  10.000  14.532
37573W        W 9998   5.690  21.837   2.524
37574W        W 9999  16.194  19.127   0.831
37575W        W10000  22.106  10.233  11.050
37576W        W10001  36.696  43.731  11.632
37577W        W10002  13.141  31.645  14.221
37578W        W10003  43.206  19.347   2.732
37579W        W10004  35.283  15.761   1.312
37580W        W10005  32.911  33.846  11.102
37581W        W10006  28.893  35.677   1.965
37582W        W10007  23.562  18.877   1.434
37583W        W10008   9.472   7.320  11.202
37584W        W10009  39.823  18.311   3.177
37585W        W10010  13.120   4.421  11.518
37586W        W10011   4.868   8.316   3.271
37587W        W10012  44.893  22.209   3.791
37588W        W10013  22.072  38.643  12.365
37589W        W10014  17.672  13.394   2.544
37590W        W10015   5.987  43.948   0.801
37591W        W10016  36.060  18.099   4.425
37592W        W10017  41.090  13.054  12.454
37593W        W10018   9.636  34.393   1.809
37594W        W10019  31.713  20.339   2.769
37595W        W10020  39.241  15.577  10.236
37596W        W10021  25.691  29.770  11.571
37597W        W10022   2.897  11.535   4.386
37598W        W10023  38.559  34.415  12.846
37599W        W10024  22.094   3.195   4.718
37600W        W10025  42.048  16.148  12.803
37601W        W10026  36.156  41.241   9.739
37602W        W10027  10.401  12.470   1.751
37603W        W10028  42.319  43.464  13.004
37604W        W10029  19.620  40.532   2.133
37605W        W10030   1.365  20.526  12.182
37606W        W10031  14.993   3.407   3.613
37607W        W10032  32.968   6.875  12.111
37608W        W10033  16.940  12.202   3.459
37609W        W10034  30.544  44.371  13.295
37610W        W10035  41.375  18.833   1.706
37611W        W10036  32.864  39.316  11.938
37612W        W10037  29.927  14.148  12.011
37613W        W10038  37.447   7.962  13.429
37614W        W10039  18.281   9.063   3.257
37615W        W10040  42.508  16.177  13.059
37616W        W10041   6.721  29.779   4.513
37617W        W10042  20.071   2.704   0.964
37618W        W10043  11.727   2.402   0.920
37619W        W10044  30.051   2.425  11.900
37620W        W10045  44.600  18.809   2.207
37621W        W10046   6.814   2.545  12.496
37622W        W10047  44.288  28.436   2.732
37623W        W10048  36.967  32.498   4.126
37624W        W10049  38.321  43.356   3.555
37625W        W10050  37.411  11.230  13.372
37626W        W10051  35.884  37.260  14.934
37627W        W10052   3.699  11.354   4.747
37628W        W10053  26.904  27.402  11.902
37629W        W10054  36.314  21.195  11.643
37630W        W10055  41.913  32.254   2.584
37631W        W10056  24.124  23.113  13.621
37632W        W10057  19.600  35.342  14.737
37633W        W10058   1.391  37.026   1.859
37634W        W10059  13.105   6.795   0.223
37635W        W10060  20.787  34.432  11.587
37636W        W10061  35.146   2.754   1.858
37637W        W10062  31.686  31.579  11.536
37638W        W10063  25.939  32.282   2.596
37639W        W10064  28.156   9.965  10.249
37640W        W10065   8.559   8.640  10.982
37641W        W10066  38.069  23.951  12.834
37642W        W10067  18.246  21.122  14.029
37643W        W10068  20.165  28.783   0.851
37644W        W10069  31.288  33.079  12.000
37645W        W10070  33.978  23.640  11.582
37646W        W10071  11.285  30.728   2.317
37647W        W10072  23.566  38.811   0.925
37648W        W10073  42.324  23.025   0.998
37649W        W10074  14.556  17.333   4.956
37650W        W10075   1.411  21.957   3.722
37651W        W10076  36.367  39.241  13.860
37652W        W10077  20.583  24.942   2.632
37653W        W10078   5.328  12.622  12.521
37654W        W10079  24.649  23.589   0.731
37655W        W10080  23.699  12.703  13.878
37656W        W10081  29.587   5.846   0.714
37657W        W10082  12.607  15.653  11.075
37658W        W10083  38.039  25.287  10.189
37659W        W10084  33.915  21.924  10.708
37660W        W10085   8.705  42.474  13.937
37661W        W10086  29.462  14.246  11.719
37662W        W10087  22.521  24.988  14.574
37663W        W10088  19.154  12.725   3.636
37664W        W10089  13.820  15.744  12.084
37665W        W10090  14.215  43.825   4.180
37666W        W10091  42.518  27.175  11.359
37667W        W10092   3.958   6.462   1.921
37668W        W10093   3.003   2.845  10.672
37669W        W10094  14.503  11.271  12.618
37670W        W10095  24.546   5.276   3.257
37671W        W10096  24.671   5.398   3.749
37672W        W10097  28.681  42.668  11.392
37673W        W10098  30.077  27.049   3.612
37674W        W10099  15.296  27.683   1.315
37675W        W10100  31.208  42.316   3.679
37676W        W10101  34.013  31.652   0.871
37677W        W10102  34.763  28.392  10.711
37678W        W10103  14.282  13.525   5.010
37679W        W10104  22.326  12.774  14.274
37680W        W10105  32.141  13.734  11.095
37681W        W10106  37.856  11.679   3.618
37682W        W10107  10.573  21.058  14.425
37683W        W10108   7.152   2.860  13.959
37684W        W10109  21.184   9.067   4.673
37685W        W10110  17.179   6.805  14.520
37686W        W10111  44.033  43.534  14.804
37687W        W10112  28.570  23.187  10.644
37688W        W10113  31.153  42.851   0.768
37689W        W10114  25.155  40.431   1.242
37690W        W10115  20.617  34.155   3.652
37691W        W10116  19.511  31.494  11.642
37692W        W10117  43.394  42.850   1.719
37693W        W10118  26.676  18.117  12.101
37694W        W10119  29.172   2.463   0.252
37695W        W10120  26.684   6.510  13.832
37696W        W10121  40.444  37.959  11.692
37697W        W10122   0.438  28.467   1.452
37698W        W10123   0.078   3.618  10.131
37699W        W10124  14.768  12.762   3.783
37700W        W10125   0.300  38.865   1.572
37701W        W10126  25.827  19.764  14.458
37702W        W10127   3.814  32.946   0.788
37703W        W10128  17.530   1.720   3.221
37704W        W10129  28.211  39.910   2.853
37705W        W10130  24.508  39.526  12.796
37706W        W10131  12.399   1.707  12.358
37707W        W10132  33.147  14.784  14.403
37708W        W10133  35.274  14.744  13.541
37709W        W10134   6.476   3.484  14.224
37710W        W10135   2.562  12.026  13.587
37711W        W10136  15.998  26.792  12.906
37712W        W10137  28.911  18.162  13.873
37713W        W10138   9.969  44.939  14.356
37714W        W10139  12.644  12.160   1.033
37715W        W10140  33.896  37.319   1.773
37716W        W10141   1.970  15.381   0.268
37717W        W10142  29.656  34.129   4.266
37718W        W10143  19.144  27.152   0.443
37719W        W10144  32.053  19.276   4.579
37720W        W10145   9.776  24.655  14.654
37721W        W10146  37.881  13.356  13.789
37722W        W10147  14.719  40.397   4.330
37723W        W10148  10.663  30.200  10.626
37724W        W10149  20.335   4.898  14.751
37725W        W10150  40.381  23.624  11.488
37726W        W10151  26.059   2.224   0.641
37727W        W10152  16.416  44.927   1.913
37728W        W10153  21.670   0.275   2.871
37729W        W10154  27.163  19.037   4.998
37730W        W10155  17.152  24.928   3.555
37731W        W10156  31.095   6.792   3.712
37732W        W10157  20.315  43.731  10.897
37733W        W10158  22.065  12.626   2.563
37734W        W10159  20.964  12.592   0.851
37735W        W10160  17.730  44.534  14.010
37736W        W10161  33.685   8.308   0.308
37737W        W10162  21.885  40.341  13.845
37738W        W10163   5.997  34.632   4.759
37739W        W10164  14.280   0.349  14.818
37740W        W10165  13.433  10.988  11.366
37741W        W10166   5.416  16.339   2.838
37742W        W10167   0.199  15.190   3.244
37743W        W10168  32.595  21.061   1.743
37744W        W10169  19.151  42.811   2.256
37745W        W10170  37.896  42.036   3.640
37746W        W10171  11.561  29.975   3.699
37747W        W10172  31.850   2.716  11.701
37748W        W10173   2.712   1.300   1.464
37749W        W10174   2.477  23.098  11.925
37750W        W10175  25.478  42.040   1.744
37751W        W10176  12.625  15.081   1.923
37752W        W10177  36.106  26.021  11.727
37753W        W10178  16.110  13.250   3.696
37754W        W10179  19.239  32.206   1.333
37755W        W10180  28.044  32.030  12.544
37756W        W10181  16.233  23.237  12.937
37757W        W10182   3.392  32.411  12.064
37758W        W10183  38.831  30.489   3.358
37759W        W10184   1.229  14.527   1.811
37760W        W10185  28.509   5.200   2.623
37761W        W10186  13.135  40.271  12.954
37762W        W10187  38.424  43.238  14.900
37763W        W10188  26.687   2.029  14.435
37764W        W10189   1.257  33.955  14.518
37765W        W10190  31.697   9.711  10.096
37766W        W10191  16.885  25.592   0.837
37767W        W10192   0.962   4.729   3.225
37768W        W10193   1.236   7.918   0.368
37769W        W10194  15.147  22.124  11.413
37770W        W10195  18.537  37.540   0.743
37771W        W10196  30.873   0.632   0.425
37772W        W10197  30.189  16.602   0.969
37773W        W10198  39.327  12.412   2.340
37774W        W10199  37.499  20.737   2.832
37775W        W10200   5.768  27.698   0.953
37776W        W10201  36.494  34.540   9.693
37777W        W10202   5.969  11.263  14.915
37778W        W10203  35.376  36.124  12.070
37779W        W10204  23.219  31.857   1.315
37780W        W10205  27.145  13.050   2.775
37781W        W10206  21.630  17.444   3.351
37782W        W10207  16.710  13.625  13.362
37783W        W10208   8.273  32.918  14.593
37784W        W10209  14.753  32.419  12.322
37785W        W10210  35.881  31.010  12.833
37786W        W10211   4.231  13.200   0.668
37787W        W10212  20.492  33.423  12.169
37788W        W10213  28.164   5.996   1.701
37789W        W10214  43.912  31.522  11.262
37790W        W10215   1.796   8.218   1.361
37791W        W10216  14.289  33.241  11.353
37792W        W10217  23.186  25.514  11.084
37793W        W10218   9.171   1.743  11.645
37794W        W10219   4.196  42.983   4.068
37795W        W10220  38.571  44.550   1.385
37796W        W10221  11.578  25.956   0.602
37797W        W10222  40.939  34.428   4.059
37798W        W10223  24.330  15.567  10.333
37799W        W10224  31.658   9.379  14.120
37800W        W10225  19.975  23.771   1.358
37801W        W10226  22.270   0.488  14.811
37802W        W10227   1.032  11.062   3.265
37803W        W10228  35.842  21.073   1.636
37804W        W10229  20.047   8.051  13.608
37805W        W10230  19.246  16.334   0.798
37806W        W10231  20.140  27.779  14.953
37807W        W10232  37.972   7.843   0.403
37808W        W10233  42.876   3.824  12.035
37809W        W10234   2.569  15.305  14.142
37810W        W10235  37.814   6.895   4.169
37811W        W10236  36.399  19.134   2.743
37812W        W10237  39.415  33.580  13.211
37813W        W10238  42.814  33.727  12.425
37814W        W10239  18.362  26.127   4.768
37815W        W10240  32.390   4.864  13.409
37816W        W10241  11.636  14.608  11.620
37817W        W10242  40.302   8.029  10.478
37818W        W10243   7.978  13.429   3.695
37819W        W10244  17.073  18.568  13.420
37820W        W10245  42.425  14.155  14.023
37821W        W10246   3.427   8.326   2.663
37822W        W10247  28.927   1.201  11.136
37823W        W10248  22.648  15.801  10.148
37824W        W10249  27.187   1.499   2.374
37825W        W10250  14.561  19.711  13.873
37826W        W10251  42.027   6.900   1.292
37827W        W10252  10.072   5.693  10.784
37828W        W10253  11.426   2.483  10.672
37829W        W10254   6.218   4.352   3.138
37830W        W10255  43.736  41.914   4.618
37831W        W10256  32.005   0.739  13.631
37832W        W10257  11.173  13.613   2.822
37833W        W10258  39.017  13.261   0.712
37834W        W10259  41.507  30.417   3.512
37835W        W10260  43.055  41.609  11.094
37836W        W10261  37.813  16.195   0.269
37837W        W10262  30.153  29.116   4.579
37838W        W10263   9.153  28.528  10.679
37839W        W10264  32.047   2.514  14.806
37840W        W10265  19.553  40.151  11.729
37841W        W10266   7.906  12.668   3.559
37842W        W10267  38.923  29.496  14.312
37843W        W10268  25.735  33.298   2.242
37844W        W10269  40.109  26.373  13.380
37845W        W10270   2.006  26.882   3.676
37846W        W10271  28.313  38.286  12.303
37847W        W10272   0.166  34.298   0.307
37848W        W10273  10.097  41.392  11.632
37849W        W10274  32.838   7.779  11.570
37850W        W10275  20.730  11.095  14.994
37851W        W10276  26.457   2.770   1.830
37852W        W10277   2.264  33.661   0.475
37853W        W10278  17.325  11.339   3.339
37854W        W10279   3.358  24.680   4.104
37855W        W10280  15.209  26.103   2.771
37856W        W10281   8.182  31.285   0.958
37857W        W10282  17.073  12.670  13.364
37858W        W10283  44.802  31.128   3.750
37859W        W10284   8.259  35.875  10.659
37860W        W10285  18.811  17.781  12.734
37861W        W10286   4.846   8.632   0.021
37862W        W10287  36.028  29.087   4.488
37863W        W10288  10.589  41.373  11.870
37864W        W10289  14.785  38.341  14.641
37865W        W10290  25.267   5.662   0.586
37866W        W10291  30.656  34.043   1.082
37867W        W10292   1.629  22.645   0.778
37868W        W10293  34.776  21.248   4.184
37869W        W10294  42.911  35.441   1.719
37870W        W10295  33.322  34.914  11.231
37871W        W10296  20.132  32.303  11.468
37872W        W10297   0.413  18.084   3.708
37873W        W10298  44.324  15.847   0.966
37874W        W10299  38.057  23.058   3.269
37875W        W10300  14.147  35.846  12.608
37876W        W10301   9.394   6.015   2.322
37877W        W10302  21.989   6.683   3.692
37878W        W10303  23.820  19.314  13.085
37879W        W10304  37.067  31.492  10.636
37880W        W10305  29.653  38.586   0.764
37881W        W10306   3.359  10.392  12.055
37882W        W10307  41.359  26.311  14.083
37883W        W10308   9.654  26.119   3.970
37884W        W10309   5.368  21.169   3.821
37885W        W10310  11.412  17.462  13.107
37886W        W10311  28.860  43.851  13.858
37887W        W10312  39.614   7.351  12.598
37888W        W10313  20.221  38.648   2.341
37889W        W10314  42.531  11.069   2.769
37890W        W10315  44.584  42.005   1.427
37891W        W10316  38.440  32.486  11.177
37892W        W10317  12.588   9.405   3.115
37893W        W10318  26.236  36.155   5.055
37894W        W10319   6.672  42.397  10.479
37895W        W10320  23.789   4.755   1.746
37896W        W10321  18.080   4.800  12.870
37897W        W10322  28.002  21.344  13.923
37898W        W10323  18.744  32.365  13.089
37899W        W10324  15.879  44.998   2.699
37900W        W10325   0.542  16.675   0.776
37901W        W10326   5.292   7.871  13.888
37902W        W10327  36.335  27.943  13.810
37903W        W10328  32.058   3.987   0.712
37904W        W10329   8.308  28.110   0.002
37905W        W10330  18.182  31.178  13.567
37906W        W10331  26.629  37.988  13.280
37907W        W10332  33.847  15.354  14.489
37908W        W10333   2.088  24.662   0.235
37909W        W10334   2.193  12.324   3.660
37910W        W10335  22.194  14.831   3.968
37911W        W10336  28.252   6.333   3.356
37912W        W10337   6.446  43.749   0.952
37913W        W10338  24.412  26.973   4.594
37914W        W10339  44.912   5.309  14.862
37915W        W10340  27.839  30.402  11.884
37916W        W10341   8.312   8.879   1.324
37917W        W10342   2.565  43.710  11.182
37918W        W10343  11.245  11.585   1.409
37919W        W10344  13.212  30.737  13.855
37920W        W10345  41.703  43.477  10.967
37921W        W10346  21.182  13.987   4.689
37922W        W10347  17.518  12.836  10.714
37923W        W10348  42.769  35.891  10.706
37924W        W10349  33.541  26.220  12.011
37925W        W10350  34.121  32.114   1.724
37926W        W10351   4.813  21.663  10.648
37927W        W10352  19.789  36.108   3.214
37928W        W10353   0.077  12.216   1.234
37929W        W10354  37.962  38.373   3.862
37930W        W10355  35.339  10.849  11.714
37931W        W10356  39.921  41.034  11.488
37932W        W10357  41.579  36.435   3.784
37933W        W10358  35.985  16.432   0.726
37934W        W10359  24.587  32.111  14.949
37935W        W10360  22.450  11.872   4.391
37936W        W10361  15.597   6.150  13.942
37937W        W10362  33.512  10.296   5.235
37938W        W10363  44.708  14.077  14.678
37939W        W10364  30.152  25.778  11.101
37940W        W10365  18.145  34.311   3.236
37941W        W10366  24.129   5.158   1.683
37942W        W10367  44.819   4.832  12.475
37943W        W10368   7.914   0.870   2.503
37944W        W10369  13.100   1.814  10.107
37945W        W10370   9.467   2.707  10.867
37946W        W10371  13.645   3.290   0.988
37947W        W10372  43.904  31.534   1.851
37948W        W10373  32.825  42.823  13.054
37949W        W10374   3.458  29.458  12.821
37950W        W10375  28.356  32.702  13.363
37951W        W10376  23.562   0.730   0.779
37952W        W10377  31.953  28.686   3.584
37953W        W10378   8.944  20.689  14.761
37954W        W10379  19.108  12.827   4.169
37955W        W10380   1.426   1.032  11.480
37956W        W10381  37.572   4.023   1.410
37957W        W10382  32.520   6.257   3.706
37958W        W10383  28.845  34.181  13.562
37959W        W10384  39.014  32.915  11.928
37960W        W10385  42.293  41.857  14.433
37961W        W10386  16.835   2.448  11.503
37962W        W10387   2.311  29.992  11.853
37963W        W10388  40.449   5.959  13.031
37964W        W10389   8.832  37.471   0.844
37965W        W10390  11.757   0.991  12.939
37966W        W10391   2.820  32.954   2.339
37967W        W10392   6.451  37.504  12.616
37968W        W10393  35.315  12.590  12.915
37969W        W10394   1.498   1.291   2.627
37970W        W10395  24.163  28.432   3.219
37971W        W10396  41.851  43.696   0.601
37972W        W10397  41.432   8.463  11.490
37973W        W10398  17.071  19.402  12.881
37974W        W10399   2.445  19.779   3.266
37975W        W10400  18.117   9.808  12.062
37976W        W10401  16.116  21.547   0.024
37977W        W10402  24.616  30.961  12.153
37978W        W10403  35.356  23.511   3.740
37979W        W10404   7.403  22.777   3.360
37980W        W10405   4.293  10.031   4.268
37981W        W10406  15.819  27.525  10.879
37982W        W10407  42.711   7.722   3.652
37983W        W10408  21.677  24.853   3.243
37984W        W10409  22.781   8.385  13.000
37985W        W10410  38.144  28.143   3.367
37986W        W10411   5.753   6.758  13.782
37987W        W10412  24.796  41.790   3.034
37988W        W10413   3.642   9.302   4.060
37989W        W10414  18.701  11.348   4.862
37990W        W10415   2.651  30.341  14.765
37991W        W10416  11.801  24.518   4.637
37992W        W10417  10.310  12.839   2.160
37993W        W10418  44.431  39.782  13.625
37994W        W10419  11.750  12.675  10.827
37995W        W10420   2.877  42.256  11.124
37996W        W10421   6.517   9.321   0.517
37997W        W10422   2.446  35.875   0.347
37998W        W10423  30.507  25.012   4.008
37999W        W10424  23.396   5.448   3.079
38000W        W10425  39.926  32.616   1.667
38001W        W10426  25.194   8.291  11.683
38002W        W10427  35.205  33.854   1.474
38003W        W10428  28.637  30.724   3.283
38004W        W10429  43.939  30.808  13.492
38005W        W10430  22.490   3.488   4.540
38006W        W10431  16.637  17.240   3.804
38007W        W10432  22.230  35.368   4.495
38008W        W10433   3.920  31.925  11.543
38009W        W10434  30.835  36.320  11.300
38010W        W10435   2.331   0.416   1.848
38011W        W10436  20.587  14.960  12.362
38012W        W10437  31.163   3.808  13.433
38013W        W10438  24.252   1.290   2.834
38014W        W10439  43.510  38.020   0.879
38015W        W10440   9.991  26.778  11.005
38016W        W10441  42.932  11.411   4.859
38017W        W10442  28.595  39.598  10.771
38018W        W10443  35.390  26.851   0.237
38019W        W10444   6.914   3.285  10.726
38020W        W10445   5.772  27.977   1.426
38021W        W10446  40.765  28.034  12.945
38022W        W10447  26.969  29.470   3.824
38023W        W10448  37.289  12.163  14.820
38024W        W10449  40.041  41.962  13.281
38025W        W10450   3.701  17.904  13.361
38026W        W10451  37.369   7.376  12.512
38027W        W10452   0.964   3.412   1.894
38028W        W10453  25.477  44.538   2.836
38029W        W10454  41.316  38.894   0.500
38030W        W10455  39.353   2.404  11.987
38031W        W10456  31.013   3.466  10.633
38032W        W10457  44.527   8.759   0.262
38033W        W10458  31.014  12.436  11.061
38034W        W10459  43.587  23.461   0.912
38035W        W10460   3.433   7.305   2.856
38036W        W10461  10.669  34.236   2.848
38037W        W10462  23.206  35.515  13.485
38038W        W10463  34.129  15.793   2.110
38039W        W10464  23.435  28.662  13.671
38040W        W10465  29.623  31.096   1.642
38041W        W10466  22.179  18.253  11.964
38042W        W10467  40.035  28.776  11.024
38043W        W10468  19.222  44.450  14.809
38044W        W10469  34.373  17.716  14.469
38045W        W10470  37.152  24.983   1.304
38046W        W10471  23.574  38.405   3.683
38047W        W10472  11.787  34.309  10.342
38048W        W10473  11.441  24.983  10.530
38049W        W10474   5.472  41.869  12.323
38050W        W10475  15.713  13.017  14.398
38051W        W10476  40.842  41.628   0.271
38052W        W10477  12.222   1.678   2.320
38053W        W10478  41.266  25.701  14.787
38054W        W10479  42.079  27.172  11.104
38055W        W10480   7.720   4.704   9.932
38056W        W10481  27.741  31.013   2.235
38057W        W10482   6.243  35.938   0.544
38058W        W10483  32.011   9.309   0.378
38059W        W10484  39.176  44.917  13.935
38060W        W10485   5.542  12.820  11.569
38061W        W10486   0.959   5.645   2.382
38062W        W10487  44.663  44.700  11.249
38063W        W10488  16.375   1.492  11.482
38064W        W10489  30.496  12.585   0.048
38065W        W10490  34.347  21.072   1.669
38066W        W10491  12.566  12.478   2.345
38067W        W10492  21.163  34.023   2.794
38068W        W10493  31.620  22.304  11.472
38069W        W10494  31.035  13.107  13.751
38070W        W10495  32.181  16.987   2.002
38071W        W10496  41.626  14.904  11.122
38072W        W10497  39.222  36.952   0.904
38073W        W10498  29.545  19.472   4.549
38074W        W10499   0.753   5.093  10.951
38075W        W10500   6.837  14.103   2.432
38076W        W10501  15.256  26.751   4.936
38077W        W10502  15.777  33.075  10.801
38078W        W10503  13.174  36.832  12.415
38079W        W10504  44.259  10.066  12.956
38080W        W10505   2.284   0.439  12.878
38081W        W10506   2.869  44.966   3.871
38082W        W10507  41.906  15.697  12.571
38083W        W10508  12.887  30.860   3.665
38084W        W10509  17.024  21.789   0.867
38085W        W10510  28.468  40.521   4.463
38086W        W10511  30.298  42.047  11.058
38087W        W10512  16.732  29.777  11.882
38088W        W10513  41.486  43.257   3.729
38089W        W10514  37.552  25.086   4.160
38090W        W10515  17.315   4.775   0.783
38091W        W10516  38.051  34.128   0.015
38092W        W10517  14.434  18.947  13.869
38093W        W10518   9.790  30.836   4.792
38094W        W10519   2.775   4.685  12.555
38095W        W10520  38.941   0.472  14.797
38096W        W10521  33.958   5.520   4.239
38097W        W10522  38.046  21.242   0.674
38098W        W10523  28.238  25.768  12.940
38099W        W10524  28.569  34.546   4.025
38100W        W10525  20.339   5.453   3.776
38101W        W10526  44.365   1.837   4.187
38102W        W10527   5.912   5.243   0.916
38103W        W10528  32.699  24.228  11.659
38104W        W10529  18.364  42.914   0.737
38105W        W10530  28.437   0.707   2.232
38106W        W10531  15.700   0.980   2.060
38107W        W10532   7.263  36.062  14.965
38108W        W10533  17.630  34.473   4.356
38109W        W10534  27.493  25.124   4.375
38110W        W10535   8.243  27.479  10.637
38111W        W10536  37.772  21.033  12.090
38112W        W10537  36.751   9.105   0.778
38113W        W10538   3.490  33.517  12.604
38114W        W10539  14.214  30.699   2.392
38115W        W10540  18.533  35.878  12.507
38116W        W10541  22.750   8.257   0.634
38117W        W10542  41.390   1.902  14.946
38118W        W10543   4.264   0.678   0.761
38119W        W10544  42.266  17.753   1.253
38120W        W10545  41.370   8.754  10.659
38121W        W10546  12.801  10.607   4.564
38122W        W10547  10.684   8.404   2.806
38123W        W10548  40.202  35.059  13.886
38124W        W10549  21.751   8.439  13.907
38125W        W10550  16.160  42.488   3.338
38126W        W10551  14.749  17.657   1.333
38127W        W10552   2.530  14.833   2.131
38128W        W10553  30.625  44.024   0.755
38129W        W10554   8.684  38.055   3.333
38130W        W10555  26.130  39.448  11.909
38131W        W10556  26.137  30.251  12.098
38132W        W10557  27.997  10.171   1.431
38133W        W10558  44.936  11.387  14.992
38134W        W10559  17.044  36.780   4.747
38135W        W10560   4.756  34.400  13.207
38136W        W10561   1.884  36.592  11.415
38137W        W10562  31.091  25.977  12.376
38138W        W10563  40.584  17.277   4.583
38139W        W10564  32.570  43.121   1.800
38140W        W10565  19.594  14.724   4.603
38141W        W10566   6.654  18.995  12.495
38142W        W10567  42.394  20.021  10.515
38143W        W10568  41.113  39.288   3.608
38144W        W10569  28.544  24.286   4.401
38145W        W10570   2.030  18.636   2.357
38146W        W10571  20.613   6.315  14.496
38147W        W10572  16.065  33.456  12.536
38148W        W10573  42.400  18.070  10.747
38149W        W10574  22.683  16.814   1.492
38150W        W10575  24.625  39.284  13.748
38151W        W10576  28.499   5.686   2.887
38152W        W10577  16.538  35.436  14.473
38153W        W10578  18.311   3.627  13.392
38154W        W10579   6.203  15.574   4.658
38155W        W10580   2.946   2.370   0.985
38156W        W10581  33.468  35.854  14.400
38157W        W10582  17.867   1.400  14.329
38158W        W10583  28.357  38.807   0.882
38159W        W10584   4.221  27.465  14.965
38160W        W10585  33.521  44.163  11.045
38161W        W10586  10.308  36.315   3.280
38162W        W10587  12.336  32.677   2.771
38163W        W10588  21.560  39.762   4.636
38164W        W10589  33.162   0.957   1.373
38165W        W10590   5.855  20.005  10.453
38166W        W10591  31.790  10.085   5.248
38167W        W10592  35.964   9.728  11.828
38168W        W10593  15.106  27.197   1.214
38169W        W10594  33.594  38.739  11.627
38170W        W10595  11.248   6.720   9.626
38171W        W10596  36.905  11.268   0.586
38172W        W10597  34.657  12.584  10.749
38173W        W10598  27.632  18.892   2.752
38174W        W10599  23.208   5.620   1.346
38175W        W10600  17.038   5.700  10.604
38176W        W10601   5.955   8.764   5.002
38177W        W10602  14.139   7.418  13.947
38178W        W10603  37.306  41.090  13.350
38179W        W10604  37.441  37.508  11.241
38180W        W10605  16.863  40.684  11.685
38181W        W10606   8.787  37.008  11.077
38182W        W10607  27.055  33.991  13.535
38183W        W10608  23.572  40.014  14.205
38184W        W10609  27.069  38.354   1.744
38185W        W10610   4.726  17.080   1.434
38186W        W10611  22.040  38.630   0.281
38187W        W10612  25.730   3.935   0.621
38188W        W10613  36.801  22.543  11.885
38189W        W10614   1.352   9.348   2.942
38190W        W10615  34.531   3.389   1.938
38191W        W10616  29.411  19.255   1.665
38192W        W10617  12.291  44.355  10.892
38193W        W10618  20.762  12.209   3.350
38194W        W10619  18.774  18.019  14.849
38195W        W10620   6.096  29.447   3.196
38196W        W10621  32.977  15.868   3.756
38197W        W10622  35.190  18.141  14.903
38198W        W10623   4.198  44.488   1.441
38199W        W10624  12.684   7.385   3.916
38200W        W10625  11.416  14.716  13.408
38201W        W10626   4.833  12.372   2.637
38202W        W10627  12.131   2.212  13.786
38203W        W10628  19.190  21.746   1.806
38204W        W10629   6.270  33.415  13.498
38205W        W10630  17.709  41.833   0.411
38206W        W10631  26.826  44.570   4.008
38207W        W10632  11.385  44.719   2.176
38208W        W10633   1.426  12.472   3.077
38209W        W10634   2.531  35.901  11.057
38210W        W10635  15.121  18.379  14.564
38211W        W10636  15.262  25.218   0.455
38212W        W10637  26.454  18.331  13.022
38213W        W10638   5.202  22.762   3.744
38214W        W10639   4.929  39.598  11.169
38215W        W10640  31.562  35.951   3.568
38216W        W10641   3.627  10.270   3.511
38217W        W10642  16.753  40.277  13.407
38218W        W10643  40.030  38.349  12.332
38219W        W10644  41.227  20.817  11.574
38220W        W10645  42.429  15.687  14.550
38221W        W10646  18.722   4.380   3.450
38222W        W10647  20.546  27.489   2.487
38223W        W10648   9.164  10.374   5.025
38224W        W10649  16.547   6.357   4.579
38225W        W10650   3.609  30.975   0.345
38226W        W10651  33.087  44.256   3.732
38227W        W10652  37.911  24.751   4.303
38228W        W10653   6.188   7.247   1.725
38229W        W10654   6.665  39.934   0.285
38230W        W10655  30.380  11.867   2.226
38231W        W10656  37.399  10.163   1.297
38232W        W10657  31.674  37.584  11.800
38233W        W10658  44.514  37.840  10.916
38234W        W10659  37.363  12.080   1.977
38235W        W10660   2.483   1.887  10.706
38236W        W10661  30.327   5.228   2.524
38237W        W10662  43.006  34.945   3.257
38238W        W10663  25.962  33.228   1.349
38239W        W10664   6.218  18.017  11.146
38240W        W10665   7.178  27.070   2.698
38241W        W10666   4.802  41.849  12.837
38242W        W10667  19.778  35.665  12.733
38243W        W10668  26.727  20.662   3.357
38244W        W10669  19.119  43.509  13.524
38245W        W10670  27.011  22.764   3.682
38246W        W10671  13.382  31.600  10.744
38247W        W10672  30.430  28.144   0.805
38248W        W10673  35.695  16.795  11.539
38249W        W10674   5.565  10.609   0.344
38250W        W10675  10.632   5.422  11.479
38251W        W10676  32.413  38.617   2.127
38252W        W10677   8.197  34.253  12.873
38253W        W10678   6.376   4.137   3.585
38254W        W10679  19.723  43.532  12.952
38255W        W10680  37.525  22.388   3.200
38256W        W10681   1.219  29.557  13.978
38257W        W10682  24.577   4.740  11.084
38258W        W10683   0.837  11.212  13.831
38259W        W10684   8.784  10.783   4.357
38260W        W10685  37.654  18.548   1.311
38261W        W10686  22.541   5.861   4.143
38262W        W10687  25.641  39.896   4.017
38263W        W10688  34.334  39.970   0.827
38264W        W10689  44.336  41.145   0.787
38265W        W10690  22.133   5.880   3.219
38266W        W10691  19.986  36.907  13.495
38267W        W10692  22.090  34.079  13.435
38268W        W10693  36.004   0.013   4.497
38269W        W10694   4.421  35.658   2.333
38270W        W10695  26.895  19.591  10.551
38271W        W10696  34.096   2.565   2.689
38272W        W10697  33.981  36.891  13.869
38273W        W10698   9.227  12.993  13.774
38274W        W10699  21.713  40.074   2.101
38275W        W10700  32.930   0.915   1.839
38276W        W10701   3.004  20.221  13.924
38277W        W10702  14.730  19.035   3.381
38278W        W10703  23.270  20.213   0.479
38279W        W10704   2.203   3.743   1.434
38280W        W10705  34.878  22.486  14.344
38281W        W10706   0.373  39.303  11.869
38282W        W10707  35.769  17.275   0.915
38283W        W10708  26.601  28.949  14.715
38284W        W10709  42.526   2.417   0.414
38285W        W10710  16.650  18.862  13.425
38286W        W10711  23.231  28.086  10.713
38287W        W10712   4.381  17.557  11.996
38288W        W10713   1.211  33.457   1.205
38289W        W10714  14.207  18.202   0.467
38290W        W10715  31.571   6.670  13.862
38291W        W10716  27.726  20.992   1.140
38292W        W10717  17.695   6.716  13.022
38293W        W10718  42.536  28.207   4.160
38294W        W10719  27.708  23.529  12.074
38295W        W10720   0.241   0.976  14.763
38296W        W10721  31.969  43.095   0.099
38297W        W10722  37.051   9.215   2.259
38298W        W10723  32.450  32.289   1.261
38299W        W10724  29.554  20.136  14.534
38300W        W10725  22.785  16.795  13.918
38301W        W10726  23.193  36.797   0.227
38302W        W10727  35.682  11.531   0.752
38303W        W10728  34.087  12.164  14.024
38304W        W10729  27.498  22.770  13.028
38305W        W10730  20.702  27.519  10.471
38306W        W10731  16.874  27.968  14.056
38307W        W10732   1.821  39.845  14.242
38308W        W10733  27.935  37.754  10.464
38309W        W10734  25.752  30.871   2.118
38310W        W10735  30.215  19.859  14.818
38311W        W10736   8.164   8.342   3.192
38312W        W10737  37.065  42.057   0.841
38313W        W10738  11.279  17.953  13.113
38314W        W10739  36.765  11.324   3.860
38315W        W10740  34.895  42.442   3.490
38316W        W10741  13.793  17.933  14.716
38317W        W10742   1.922  17.960   0.868
38318W        W10743  16.287  36.319   3.880
38319W        W10744  40.822  22.512   4.555
38320W        W10745   8.381   6.881   0.231
38321W        W10746  34.153  24.065   4.709
38322W        W10747   4.208  22.727  12.553
38323W        W10748  22.526  29.513   1.200
38324W        W10749   1.002  15.207  13.893
38325W        W10750  19.325  16.013   1.896
38326W        W10751  23.588   2.206   1.771
38327W        W10752  43.950  31.379   2.344
38328W        W10753  12.200  26.467   1.924
38329W        W10754  13.834  15.152   0.927
38330W        W10755   4.778  38.313  14.316
38331W        W10756  30.491  38.186   0.845
38332W        W10757  42.357  29.689  11.601
38333W        W10758   3.404  39.780  10.097
38334W        W10759   0.867  30.406  11.168
38335W        W10760  26.587  34.804  10.858
38336W        W10761  12.304  18.477  12.627
38337W        W10762  28.899  21.197  11.465
38338W        W10763  17.199  30.726   4.123
38339W        W10764  28.901  13.671  12.621
38340W        W10765  19.717  20.954   0.385
38341W        W10766  38.002  23.171  10.144
38342W        W10767  21.517  27.948  11.957
38343W        W10768  23.966  29.063   0.286
38344W        W10769  36.856   1.488  12.001
38345W        W10770  39.067  43.819   1.008
38346W        W10771  38.309  40.936   1.738
38347W        W10772   3.841   6.476   4.513
38348W        W10773  25.648  38.546   3.283
38349W        W10774  17.376  41.714   2.798
38350W        W10775  27.672  16.843   2.745
38351W        W10776  36.006  21.622  14.517
38352W        W10777  12.070   2.718   1.330
38353W        W10778   6.449  35.087   0.336
38354W        W10779  29.366  31.126  13.084
38355W        W10780   8.899  26.555  12.022
38356W        W10781   7.365  41.606   1.415
38357W        W10782  32.818  20.627  12.904
38358W        W10783  15.498  22.229   9.936
38359W        W10784  20.034  42.305   3.182
38360W        W10785  24.608   6.263  10.961
38361W        W10786  10.169  35.801  10.598
38362W        W10787  27.922  20.079   0.670
38363W        W10788  42.481  22.506   3.698
38364W        W10789  43.200   1.193  13.806
38365W        W10790  14.343  20.243  11.848
38366W        W10791  36.778   4.336  11.876
38367W        W10792  16.546   8.898   3.661
38368W        W10793  43.887  28.861  11.096
38369W        W10794  25.138  18.434   5.072
38370W        W10795  26.171  25.574   4.030
38371W        W10796   6.340  13.608   1.460
38372W        W10797  15.226  25.794  13.040
38373W        W10798  24.967  36.711   1.910
38374W        W10799  25.843   7.534   1.585
38375W        W10800  24.838   5.694   2.955
38376W        W10801  20.499   9.831   5.463
38377W        W10802  34.623  35.974  11.501
38378W        W10803  24.575  33.417   4.870
38379W        W10804   3.698   5.943  14.283
38380W        W10805   0.976  11.691   0.306
38381W        W10806  18.197  10.206   4.273
38382W        W10807   1.188  42.115   0.998
38383W        W10808  42.608  22.062   2.793
38384W        W10809   3.814   8.352   3.017
38385W        W10810  11.101  37.059  14.872
38386W        W10811   5.383  14.428   3.320
38387W        W10812  33.545  29.424  14.275
38388W        W10813   0.272  10.845   2.287
38389W        W10814   4.179  38.264   4.089
38390W        W10815   8.509  43.084   1.798
38391W        W10816   3.714  29.750  12.015
38392W        W10817  19.493  26.434  10.947
38393W        W10818   7.887  28.496  12.520
38394W        W10819  10.511  40.061  10.804
38395W        W10820  25.054  37.472  14.730
38396W        W10821  41.543  35.973   0.036
38397W        W10822  18.190  24.145  10.999
38398W        W10823   3.309  42.710   4.615
38399W        W10824  42.396   0.412   1.534
38400W        W10825  22.479   2.528  12.495
38401W        W10826  34.332  38.417   4.390
38402W        W10827   7.308  36.065   3.406
38403W        W10828  13.763  35.912   1.704
38404W        W10829  36.437  17.671  14.616
38405W        W10830  39.239   2.899  12.837
38406W        W10831  25.151  37.583   0.912
38407W        W10832   1.067  25.536   4.097
38408W        W10833  34.158  21.828  14.825
38409W        W10834   5.719  11.698  13.948
38410W        W10835  10.247  10.833  12.455
38411W        W10836  25.693  12.715   0.025
38412W        W10837  31.292  32.961  11.136
38413W        W10838  30.876  21.998  13.862
38414W        W10839  23.802  23.123  11.426
38415W        W10840  28.701  21.189  12.988
38416W        W10841  10.793  36.570   3.372
38417W        W10842  28.452  35.924  13.508
38418W        W10843   8.752  15.272  13.352
38419W        W10844  38.295  23.039  13.206
38420W        W10845  24.435  29.990   2.974
38421W        W10846  34.613  26.256   4.897
38422W        W10847  22.587   8.893   3.395
38423W        W10848  16.850  32.844   2.222
38424W        W10849   5.660   1.408   0.100
38425W        W10850  40.512  16.136   9.902
38426W        W10851  17.401  15.886  13.801
38427W        W10852  26.038  19.100   3.316
38428W        W10853  41.319   1.969   4.731
38429W        W10854   5.934   8.602  12.047
38430W        W10855   6.486  34.850   3.673
38431W        W10856  16.479  41.737  13.495
38432W        W10857  32.141  35.932  10.701
38433W        W10858  44.004  18.972  13.017
38434W        W10859  25.702  44.803  14.244
38435W        W10860  19.580  11.608   1.544
38436W        W10861  26.591   7.567   3.282
38437W        W10862  26.168  23.951   2.100
38438W        W10863  25.298  22.780   1.288
38439W        W10864  35.576  24.485  13.980
38440W        W10865  13.162  17.819   1.924
38441W        W10866   1.815  15.659   9.989
38442W        W10867  25.036  42.760   1.417
38443W        W10868   0.764  26.273   3.860
38444W        W10869  38.436  27.277  11.468
38445W        W10870  42.543  29.247   0.379
38446W        W10871  40.532  13.721   3.671
38447W        W10872  30.647   2.882  13.389
38448W        W10873   1.420  25.666   4.895
38449W        W10874  44.947   5.620  10.712
38450W        W10875  30.158  16.749  14.880
38451W        W10876   0.028  13.254   1.005
38452W        W10877  40.958  30.963   4.556
38453W        W10878  42.175  15.783  11.566
38454W        W10879  42.376  23.792  14.852
38455W        W10880  27.303  33.198   1.181
38456W        W10881  34.677  32.992  12.896
38457W        W10882  22.471  15.528   1.986
38458W        W10883   9.233  21.586   1.277
38459W        W10884  33.535  22.120  11.856
38460W        W10885  25.134  41.640  10.069
38461W        W10886  41.272  29.144  12.984
38462W        W10887   4.917  26.533  12.149
38463W        W10888   5.659  34.971  14.150
38464W        W10889  10.550  40.838   3.374
38465W        W10890  43.456  19.521   3.403
38466W        W10891  38.113  13.253  11.010
38467W        W10892  24.130  44.269   2.038
38468W        W10893  17.578  22.268  12.362
38469W        W10894  38.280  28.948  11.129
38470W        W10895  42.662  22.689   1.241
38471W        W10896   2.445  35.708  13.530
38472W        W10897  30.576   8.822   1.482
38473W        W10898  39.834  20.096  12.584
38474W        W10899  41.903  16.793   3.093
38475W        W10900   8.176   3.046  12.513
38476W        W10901  16.177  18.563   1.695
38477W        W10902  20.624  10.444  13.273
38478W        W10903  40.904  14.794  14.326
38479W        W10904   8.610  10.618  10.392
38480W        W10905  39.497  23.946   2.777
38481W        W10906   8.976  38.655  10.276
38482W        W10907  14.740   3.734  12.365
38483W        W10908  36.360   7.130  14.272
38484W        W10909  36.242   4.935   2.219
38485W        W10910  28.719  35.034   4.077
38486W        W10911  40.492  25.998   1.699
38487W        W10912  41.824  14.646  12.067
38488W        W10913  28.056   5.706   2.106
38489W        W10914  10.804  25.060   1.879
38490W        W10915  29.138  34.013   9.948
38491W        W10916  22.103   7.422  12.282
38492W        W10917  13.498  13.361   2.763
38493W        W10918  44.193  36.984   4.652
38494W        W10919  30.946  11.090   0.919
38495W        W10920  21.297  28.940  12.176
38496W        W10921  35.574  23.601  14.979
38497W        W10922  11.083  13.854   3.308
38498W        W10923   6.779  25.994   1.970
38499W        W10924  24.593  21.226  13.523
38500W        W10925  26.560  14.908   2.189
38501W        W10926  29.218  21.707   3.299
38502W        W10927  38.069  12.252  12.432
38503W        W10928  36.013  33.166   3.278
38504W        W10929  33.253  38.060   1.863
38505W        W10930  33.447  10.721   0.412
38506W        W10931  39.293  21.671  13.836
38507W        W10932  18.635  17.739   3.345
38508W        W10933  34.634  14.246   4.711
38509W        W10934  35.649   6.838   4.858
38510W        W10935   7.870  14.168  11.998
38511W        W10936   3.920  11.679  14.394
38512W        W10937  33.005  35.655  14.274
38513W        W10938  15.585  39.835   0.235
38514W        W10939  40.219  10.161   3.689
38515W        W10940  13.346  41.389  14.904
38516W        W10941  10.798  16.376   2.238
38517W        W10942  19.071  28.049  13.477
38518W        W10943  29.971   8.700  11.668
38519W        W10944  44.883   8.799  11.442
38520W        W10945  12.865  25.734  10.623
38521W        W10946   4.248  44.531   2.393
38522W        W10947  37.617  25.619   3.041
38523W        W10948  25.052   9.272  10.696
38524W        W10949  19.055  40.112   4.145
38525W        W10950  20.979  44.721  14.863
38526W        W10951  15.261  26.084  12.594
38527W        W10952   0.810   5.957  13.363
38528W        W10953  37.067   8.416  12.147
38529W        W10954  10.282  12.414   0.538
38530W        W10955  43.511   4.598  13.910
38531W        W10956  19.017   2.396  10.279
38532W        W10957  25.938  43.709   1.184
38533W        W10958   8.186  30.554   4.439
38534W        W10959  22.475   5.342   0.957
38535W        W10960  26.789  14.756  14.834
38536W        W10961  30.019   9.351   0.312
38537W        W10962  38.970  31.512  10.981
38538W        W10963  12.987  12.852  10.610
38539W        W10964  25.510  23.062   2.128
38540W        W10965  36.599  25.383   2.337
38541W        W10966  28.683  27.977  10.286
38542W        W10967   1.079  28.322  12.565
38543W        W10968  37.459   7.888  12.484
38544W        W10969   4.638  33.956  12.945
38545W        W10970  23.983  28.934  11.152
38546W        W10971  40.588   7.175  10.738
38547W        W10972  25.442   7.187  14.732
38548W        W10973  29.515  17.591  14.482
38549W        W10974  24.303   0.416  12.866
38550W        W10975   3.239  43.805   0.927
38551W        W10976   1.019   4.670  11.852
38552W        W10977  27.088  35.093  13.590
38553W        W10978   9.366  34.841   0.099
38554W        W10979  23.519  36.469  14.501
38555W        W10980  12.099  14.860   4.171
38556W        W10981  19.240   8.466   4.579
38557W        W10982  29.627  13.356   4.309
38558W        W10983  21.348  42.122   3.322
38559W        W10984  35.032  32.356   3.615
38560W        W10985   7.369  20.019   2.685
38561W        W10986  33.119  18.505   4.121
38562W        W10987  25.691  18.033  14.751
38563W        W10988  32.079   7.572   3.284
38564W        W10989  21.548   8.935  10.217
38565W        W10990  18.350  44.489   4.307
38566W        W10991  26.574  30.265  12.386
38567W        W10992  32.682   0.433  10.673
38568W        W10993  42.743  12.274  12.941
38569W        W10994   5.347  24.875   3.669
38570W        W10995  32.814  25.349  12.046
38571W        W10996  11.234  22.082   4.604
38572W        W10997   7.778  39.563  14.223
38573W        W10998  40.381   0.193  14.473
38574W        W10999   5.528  44.336   4.422
38575W        W11000  37.987  39.808  12.686
38576W        W11001  29.092  17.297  10.653
38577W        W11002  27.374  35.849   2.809
38578W        W11003  19.810   5.333  10.686
38579W        W11004  44.017   4.376   1.362
38580W        W11005   7.456  13.805   4.790
38581W        W11006  43.754   7.890  11.507
38582W        W11007  20.126   4.718   2.665
38583W        W11008  43.375  42.764  14.747
38584W        W11009  38.435   2.494   0.011
38585W        W11010  22.145   4.177   0.680
38586W        W11011  25.377  25.244   3.651
38587W        W11012  28.527  16.685   1.777
38588W        W11013  14.666  13.600   3.164
38589W        W11014  18.087   2.627  12.096
38590W        W11015  31.425  19.209  12.462
38591W        W11016  39.269  24.979  13.423
38592W        W11017   7.320  28.699  12.916
38593W        W11018  16.847  19.685   1.811
38594W        W11019   7.179  17.684   1.840
38595W        W11020  27.236  22.025  14.359
38596W        W11021   2.702  28.160  14.418
38597W        W11022   2.384  14.588   1.282
38598W        W11023  44.933  11.884  14.263
38599W        W11024  19.097   6.639  11.569
38600W        W11025  29.534  43.255   3.341
38601W        W11026  41.574  15.792  14.928
38602W        W11027   9.984  23.468   3.793
38603W        W11028  11.829  22.440   2.922
38604W        W11029  19.046  37.845   1.827
38605W        W11030   1.197  42.299   3.995
38606W        W11031  34.895  25.464  12.245
38607W        W11032  17.347   4.692  11.474
38608W        W11033   3.605  11.098   0.277
38609W        W11034  43.494  11.462   0.800
38610W        W11035  30.891  12.561  14.372
38611W        W11036  24.136   6.272  14.052
38612W        W11037   7.736   4.775  14.370
38613W        W11038  29.081  29.144   0.549
38614W        W11039  35.315  36.421  10.738
38615W        W11040  40.810  33.542  10.498
38616W        W11041  26.139   2.055  11.465
38617W        W11042   4.202   0.822   3.687
38618W        W11043  41.588  38.490  13.351
38619W        W11044  11.889  31.569   1.470
38620W        W11045  30.625  19.262  10.558
38621W        W11046  38.436  28.571   2.394
38622W        W11047  43.455  35.412   4.554
38623W        W11048  40.989  13.184   2.243
38624W        W11049  12.651  24.887  13.595
38625W        W11050   6.888  42.737   2.642
38626W        W11051  22.523  22.277  12.551
38627W        W11052  41.145  30.441   4.961
38628W        W11053  38.875   0.978  11.085
38629W        W11054  28.574  19.088  12.843
38630W        W11055  23.990  19.551   3.662
38631W        W11056  27.506  27.045   3.879
38632W        W11057  34.898  34.423  13.768
38633W        W11058   1.727   4.969   0.669
38634W        W11059   0.826   5.543   2.894
38635W        W11060  17.587  36.258   4.515
38636W        W11061   0.804   2.836   3.725
38637W        W11062  14.729  44.224  12.879
38638W        W11063   0.918  40.746   4.589
38639W        W11064  40.081  37.652  11.467
38640W        W11065  27.922  14.067   0.509
38641W        W11066  21.261  10.223   4.226
38642W        W11067   2.305   7.784   4.624
38643W        W11068   2.707  34.406  11.616
38644W        W11069  33.511  38.591  12.125
38645W        W11070  43.775  18.102  11.083
38646W        W11071   8.753  24.967   2.878
38647W        W11072   4.881  12.001  13.591
38648W        W11073  41.457  38.153   2.761
38649W        W11074   9.723  23.727  14.673
38650W        W11075   4.176  29.582  11.847
38651W        W11076  32.016   1.630  14.512
38652W        W11077  19.981   9.631   2.782
38653W        W11078  22.973  33.614  13.413
38654W        W11079  22.291  26.202  13.494
38655W        W11080  17.198  24.694  14.522
38656W        W11081  40.518  41.841   1.810
38657W        W11082  20.035  11.927  11.181
38658W        W11083  41.519  23.429  12.175
38659W        W11084  10.861  25.674  10.614
38660W        W11085  38.049   7.924  10.851
38661W        W11086  10.647   7.226   0.249
38662W        W11087  32.645  21.039  13.852
38663W        W11088  25.691  22.945  12.975
38664W        W11089  26.054  12.803  10.487
38665W        W11090  16.614   9.240   1.875
38666W        W11091  20.686   2.757  12.969
38667W        W11092  13.724  25.131   2.440
38668W        W11093  14.594  34.430  14.524
38669W        W11094  38.537  33.617  13.935
38670W        W11095   5.018   1.799   4.370
38671W        W11096  25.788  35.504  11.935
38672W        W11097  14.430  34.267   5.061
38673W        W11098  14.029  41.099   4.419
38674W        W11099   9.924  24.308   2.821
38675W        W11100  13.615  15.484  14.393
38676W        W11101  41.704  26.692  12.647
38677W        W11102  30.662  38.184  12.306
38678W        W11103  36.853  42.367  11.999
38679W        W11104  44.930  11.076  11.102
38680W        W11105  21.489  31.435  10.703
38681W        W11106  23.473  33.824  12.935
38682W        W11107  29.528  33.413   2.238
38683W        W11108   9.103   1.516   2.990
38684W        W11109  17.766  21.454   2.702
38685W        W11110  39.987  38.575   0.394
38686W        W11111   3.263  19.689   1.528
38687W        W11112  43.886  11.635  14.438
38688W        W11113  44.378  31.857  11.266
38689W        W11114  32.978   4.781  11.912
38690W        W11115  20.597  15.416   4.643
38691W        W11116   5.253  40.021   4.984
38692W        W11117   8.752  12.335   4.194
38693W        W11118  25.228   8.749   1.374
38694W        W11119   1.346   0.364  14.793
38695W        W11120  13.813  41.486   2.242
38696W        W11121  13.507  18.033  12.356
38697W        W11122  13.810  18.690  14.314
38698W        W11123   2.524  29.004  11.639
38699W        W11124  34.912  23.810  14.478
38700W        W11125   8.630  34.433  14.884
38701W        W11126   1.360  26.642   0.360
38702W        W11127  39.857  38.107  12.768
38703W        W11128  28.857  24.561  14.605
38704W        W11129  41.943  18.115   1.453
38705W        W11130  20.322   0.672  13.499
38706W        W11131  22.221  13.611   4.760
38707W        W11132  26.970  17.670  12.183
38708W        W11133   4.945  24.048   0.287
38709W        W11134  28.847  10.622  14.401
38710W        W11135  13.129  37.954  11.493
38711W        W11136  14.821  17.722   2.197
38712W        W11137  23.480  19.999   4.139
38713W        W11138  32.169  20.204  14.854
38714W        W11139  37.846   6.412  14.824
38715W        W11140   2.422   9.301   0.416
38716W        W11141  37.379  15.416  12.653
38717W        W11142  23.211  39.833  10.512
38718W        W11143  11.524  17.015   4.575
38719W        W11144   8.404  36.504   0.975
38720W        W11145   9.687   0.254   2.086
38721W        W11146  43.331   6.227  11.439
38722W        W11147  12.067  10.267   3.675
38723W        W11148  44.101  43.279  14.359
38724W        W11149   0.545   2.316  11.518
38725W        W11150   4.477  12.327  11.170
38726W        W11151   5.470  41.604   1.227
38727W        W11152  37.743  21.210   2.819
38728W        W11153  35.143  41.050   1.758
38729W        W11154  43.687  25.160  10.675
38730W        W11155  35.045  12.081  14.802
38731W        W11156  44.530  44.513   3.686
38732W        W11157   9.344  40.806  11.203
38733W        W11158  27.848  11.819  12.754
38734W        W11159  43.856  43.509  11.889
38735W        W11160  25.069  12.068  12.988
38736W        W11161  36.020  28.648   0.335
38737W        W11162  19.545  34.244   0.481
38738W        W11163   0.281  42.241  13.948
38739W        W11164  27.001   9.624   3.142
38740W        W11165  30.188  16.278  12.419
38741W        W11166  34.952  37.082  11.175
38742W        W11167  34.618   6.539  10.770
38743W        W11168  41.390  29.169  13.832
38744W        W11169  35.880  27.124   3.277
38745W        W11170   4.396  31.188   3.589
38746W        W11171  26.500  31.070   1.709
38747W        W11172  32.589  15.183  10.633
38748W        W11173  23.020  14.135   3.648
38749W        W11174   5.769   3.883  14.517
38750W        W11175   1.674  11.334  12.389
38751W        W11176  29.608  34.020  13.205
38752W        W11177   1.503  29.502  11.160
38753W        W11178  17.558  25.717   0.312
38754W        W11179  34.481  35.877   3.276
38755W        W11180  19.260  28.069  11.165
38756W        W11181  10.329  17.384   3.081
38757W        W11182  24.433  20.552   2.851
38758W        W11183  31.049   7.822  14.671
38759W        W11184  16.656  14.489   3.143
38760W        W11185  32.548  16.667  11.243
38761W        W11186  26.065  32.320   1.527
38762W        W11187   3.007  24.473   1.785
38763W        W11188  21.730   7.331  14.518
38764W        W11189  44.753  20.579   3.704
38765W        W11190  41.107  29.046   0.274
38766W        W11191  44.700   4.643   1.807
38767W        W11192  35.605   6.150   2.176
38768W        W11193  35.381  42.052  12.468
38769W        W11194  40.521  33.136   0.007
38770W        W11195  37.121  13.237   2.650
38771W        W11196   3.989   5.244  10.865
38772W        W11197  28.508  10.214   1.181
38773W        W11198  25.662  17.802  11.986
38774W        W11199  30.682  11.201  11.786
38775W        W11200  33.529   5.012  12.043
38776W        W11201  31.404  40.535   2.778
38777W        W11202  11.384   6.338  13.475
38778W        W11203  15.117  40.233   3.786
38779W        W11204  23.503  37.386  13.002
38780W        W11205  17.562  29.549   1.966
38781W        W11206  24.683   1.792   1.352
38782W        W11207  44.799  31.356  14.421
38783W        W11208  14.648  24.985   3.414
38784W        W11209  20.075  32.598   4.191
38785W        W11210  43.026  37.810  10.654
38786W        W11211  32.209  16.425   0.600
38787W        W11212  35.820  42.914  14.802
38788W        W11213  38.393  30.529   4.329
38789W        W11214  14.299  30.418   0.975
38790W        W11215  37.010  40.070  13.954
38791W        W11216  37.225  26.694  14.898
38792W        W11217  27.436  36.929  14.859
38793W        W11218  24.238   8.591   0.021
38794W        W11219  43.589  38.981  10.951
38795W        W11220  13.609  12.590   4.114
38796W        W11221  34.474  33.440  11.510
38797W        W11222   8.726  41.951   0.490
38798W        W11223  35.041  19.795  12.036
38799W        W11224  13.355   1.376  10.335
38800W        W11225  17.273   8.861  14.862
38801W        W11226  29.374  16.996   0.323
38802W        W11227  23.142   6.576  14.473
38803W        W11228  36.049  16.934   0.647
38804W        W11229  41.030   7.588  11.486
38805W        W11230   4.776  26.962   4.343
38806W        W11231  10.167  28.418  14.385
38807W        W11232  16.592  35.444   4.429
38808W        W11233  23.549  16.557  13.445
38809W        W11234  21.128  22.601   3.541
38810W        W11235  40.417  28.082  14.362
38811W        W11236  31.233  29.614  14.411
38812W        W11237  22.215   5.683   4.518
38813W        W11238   0.970  28.908   2.777
38814W        W11239  13.828   5.764  13.397
38815W        W11240  35.257  11.176  12.369
38816W        W11241  37.050  32.931   3.227
38817W        W11242  39.739  14.294  10.986
38818W        W11243   7.595  21.992  13.383
38819W        W11244  15.144  30.204  12.577
38820W        W11245  16.094  32.650   4.276
38821W        W11246  33.141  26.244  11.627
38822W        W11247  44.324   0.956  14.039
38823W        W11248  29.679  39.897   2.145
38824W        W11249  10.906   2.978  11.982
38825W        W11250   5.814  20.503   1.298
38826W        W11251  27.152  28.267  14.741
38827W        W11252  34.832  23.185  12.969
38828W        W11253   4.984  37.928  12.083
38829W        W11254  23.042   9.208   3.551
38830W        W11255  23.040  18.793   3.679
38831W        W11256   9.532  33.430  12.988
38832W        W11257  19.093  44.798  13.040
38833W        W11258  44.289  11.167  13.866
38834W        W11259  17.668  19.789   2.238
38835W        W11260  17.635  42.855   1.861
38836W        W11261   2.964  28.972  14.824
38837W        W11262  15.221  41.660  13.498
38838W        W11263  19.664  44.243   3.101
38839W        W11264  44.881  43.451  12.101
38840W        W11265  31.824  22.030  13.297
38841W        W11266   2.399  16.970   3.770
38842W        W11267  38.875   7.861  14.997
38843W        W11268  13.313  44.338  10.660
38844W        W11269  31.714  23.243   0.514
38845W        W11270  39.969  27.239   0.940
38846W        W11271  25.552  10.830  11.467
38847W        W11272   6.358  21.586   2.796
38848W        W11273  30.960  33.474   1.717
38849W        W11274   2.953  19.361  14.306
38850W        W11275  22.930  27.060   4.532
38851W        W11276   4.345  24.594   0.872
38852W        W11277  12.715   1.237   1.853
38853W        W11278  11.586  10.145   1.951
38854W        W11279  18.728   9.372  11.069
38855W        W11280  44.375  35.918   4.644
38856W        W11281  19.188  26.924   2.275
38857W        W11282  41.165   9.804  14.869
38858W        W11283  31.387  27.674  13.367
38859W        W11284   5.700  37.578  13.843
38860W        W11285  10.740  16.474   3.659
38861W        W11286  37.994  13.798   2.477
38862W        W11287   4.011  27.574  14.481
38863W        W11288   6.226  42.855   3.341
38864W        W11289   1.442  22.550  13.377
38865W        W11290  31.758   1.245  11.639
38866W        W11291  42.472  12.213  11.631
38867W        W11292  20.172   6.468  10.604
38868W        W11293  15.952   9.879   1.746
38869W        W11294  34.498  36.900  14.770
38870W        W11295  10.549  39.449   4.898
38871W        W11296  21.818   4.807   0.126
38872W        W11297  21.627  38.060  13.574
38873W        W11298  42.653  28.559  12.067
38874W        W11299  38.856  39.019   3.639
38875W        W11300  17.840  26.959  11.292
38876W        W11301  19.713  31.868   2.600
38877W        W11302  39.254   5.782   0.821
38878W        W11303  41.370  38.472   0.165
38879W        W11304  24.739  11.520  13.485
38880W        W11305  26.412   1.140   2.836
38881W        W11306  27.684  30.725   3.165
38882W        W11307   1.225   8.244   3.304
38883W        W11308  14.065  15.526  10.825
38884W        W11309  31.812   9.268   4.080
38885W        W11310   9.822   9.360   3.241
38886W        W11311  22.481  15.056   3.185
38887W        W11312  35.384   6.733   3.493
38888W        W11313   9.919  44.993   1.647
38889W        W11314   3.290   0.655  14.486
38890W        W11315  19.182  22.977   2.418
38891W        W11316  21.123  10.212   5.101
38892W        W11317  23.169  26.605   3.425
38893W        W11318  25.555   6.409   4.590
38894W        W11319  20.065  29.451   3.932
38895W        W11320  40.264   0.396   3.945
38896W        W11321  16.688  31.521   2.105
38897W        W11322  34.805  25.811   0.901
38898W        W11323  23.994  13.776  14.010
38899W        W11324  40.563  32.213   4.208
38900W        W11325  28.006  23.759   3.163
38901W        W11326  42.922  11.680  12.186
38902W        W11327  28.462  35.575   0.729
38903W        W11328  35.621  15.656  11.898
38904W        W11329  14.528  18.202  11.891
38905W        W11330  28.994  16.077  12.008
38906W        W11331   4.156  42.882  14.478
38907W        W11332  36.404  23.069   3.157
38908W        W11333  27.401   6.277   4.168
38909W        W11334  29.943  33.602  12.039
38910W        W11335  20.948  24.181  14.075
38911W        W11336  37.525   4.831  10.509
38912W        W11337   2.801  37.860   1.374
38913W        W11338  33.181  36.274  14.836
38914W        W11339  37.982  33.167   4.638
38915W        W11340   1.952  30.913  14.924
38916W        W11341  21.581   8.150   1.723
38917W        W11342  26.742  39.800  14.489
38918W        W11343   1.780  24.094  12.154
38919W        W11344  11.512  39.935   1.543
38920W        W11345  21.190   8.056   4.889
38921W        W11346   8.314   6.404   4.992
38922W        W11347   7.704  43.436   0.199
38923W        W11348  21.947  35.845   2.746
38924W        W11349   4.647  19.663   1.001
38925W        W11350  29.431  33.054  10.709
38926W        W11351   7.698  20.663   3.737
38927W        W11352  40.811  14.394   3.482
38928W        W11353  39.990  27.648  12.893
38929W        W11354  36.148  17.430   0.553
38930W        W11355  15.584  16.644   2.313
38931W        W11356  24.765  34.672  13.083
38932W        W11357  20.134  39.657   2.339
38933W        W11358  42.433   1.196  11.201
38934W        W11359  18.551  23.614   1.275
38935W        W11360  37.626  29.711  10.777
38936W        W11361   6.169  27.820  14.348
38937W        W11362  21.661  23.796  14.580
38938W        W11363  37.311  28.180   3.097
38939W        W11364  11.510  44.894  13.326
38940W        W11365  19.505  25.950  13.092
38941W        W11366  35.880  42.015   2.228
38942W        W11367  37.736  40.891  13.560
38943W        W11368  12.700  20.041  13.563
38944W        W11369  27.985  41.325   9.929
38945W        W11370  20.053   3.348  11.510
38946W        W11371   0.692  43.915  10.682
38947W        W11372  24.686  12.385   1.272
38948W        W11373   7.341  32.936  12.938
38949W        W11374  16.350   4.872  11.555
38950W        W11375  37.862  38.917   3.770
38951W        W11376  31.346  28.685  11.936
38952W        W11377  16.298  43.823   0.683
38953W        W11378  36.157  22.137  13.339
38954W        W11379  11.657  10.430  14.980
38955W        W11380  12.238  40.663  11.155
38956W        W11381  21.000  14.557   2.306
38957W        W11382  13.641  24.307  10.763
38958W        W11383  10.343  31.631   3.645
38959W        W11384  33.671  29.018   2.143
38960W        W11385  36.778   2.767  11.594
38961W        W11386  30.895  28.015   1.831
38962W        W11387  21.011   5.877  11.693
38963W        W11388  13.664   7.819  13.359
38964W        W11389  37.974  42.513  13.893
38965W        W11390  30.110   5.815  14.830
38966W        W11391  42.602  12.269   4.383
38967W        W11392   3.609  36.137  12.490
38968W        W11393  14.225   9.657  12.277
38969W        W11394  37.602   2.982   1.254
38970W        W11395   5.646  24.420  11.545
38971W        W11396  36.171  34.170   3.163
38972W        W11397   2.983  13.052  11.657
38973W        W11398  10.482  22.458   4.058
38974W        W11399  37.204   5.393   2.242
38975W        W11400  21.505  36.118  13.921
38976W        W11401  10.817  40.312   2.717
38977W        W11402  20.550  25.465  10.669
38978W        W11403   9.397   3.477   1.101
38979W        W11404  41.747   4.770  11.750
38980W        W11405  17.053  41.804   3.206
38981W        W11406   1.603  20.249   2.778
38982W        W11407  17.704  40.270  14.451
38983W        W11408  25.565  44.965   0.980
38984W        W11409   2.989  24.567  12.593
38985W        W11410  36.941  40.782   1.403
38986W        W11411  17.021  38.323   4.558
38987W        W11412  35.176  44.314  12.923
38988W        W11413  15.771  17.637   1.382
38989W        W11414  18.080  28.861   3.148
38990W        W11415  26.481   5.139   2.241
38991W        W11416  17.170  41.878  11.724
38992W        W11417  38.889  14.868   4.229
38993W        W11418  24.658  19.089  14.498
38994W        W11419  14.278  28.257   2.347
38995W        W11420  34.897  35.119   4.535
38996W        W11421  20.869  22.723   5.006
38997W        W11422  14.072   3.976   2.237
38998W        W11423   8.772  31.465   1.498
38999W        W11424  27.635   1.721   3.524
39000W        W11425   2.341   5.588  13.092
39001W        W11426  41.289  30.016   3.257
39002W        W11427  13.283   1.136   3.369
39003W        W11428   7.977   8.677   2.191
39004W        W11429   2.249  38.446  13.855
39005W        W11430   2.444   4.025   2.729
39006W        W11431  37.444  15.771  14.583
39007W        W11432  42.225  15.133   3.284
39008W        W11433  14.788  44.512  14.269
39009W        W11434  33.426  26.544   0.436
39010W        W11435  18.544  22.731   0.195
39011W        W11436  16.720  29.568  13.122
39012W        W11437  41.454  19.302  12.597
39013W        W11438   9.292  33.442  10.345
39014W        W11439  28.696  13.109   1.197
39015W        W11440   7.437   6.667  14.429
39016W        W11441  13.658  12.200  13.729
39017W        W11442   1.650  37.347   4.107
39018W        W11443  39.910   2.423  14.352
39019W        W11444  42.340  41.479  12.530
39020W        W11445  25.142  19.628  12.753
39021W        W11446   6.218  35.038   0.802
39022W        W11447  38.958  15.197  13.775
39023W        W11448  24.372  28.570  11.155
39024W        W11449  36.742   6.377  14.313
39025W        W11450  12.603  15.977   1.943
39026W        W11451  41.836  22.067  10.365
39027W        W11452  15.423  33.866   2.609
39028W        W11453  38.567   1.480  12.852
39029W        W11454  16.122   7.988  13.921
39030W        W11455  13.136  43.155   2.583
39031W        W11456  16.764   4.341  13.446
39032W        W11457   2.371  14.988   2.900
39033W        W11458  43.108   7.113  14.301
39034W        W11459  31.965  28.791  12.948
39035W        W11460   9.753  29.675   3.889
39036W        W11461  25.562  14.486  12.427
39037W        W11462  10.918  20.253   3.708
39038W        W11463  15.600  33.187   5.017
39039W        W11464  12.674  42.121  11.215
39040W        W11465   5.240   7.433  12.377
39041W        W11466  37.909   0.234   3.691
39042W        W11467   9.229  15.170   3.225
39043W        W11468  16.909  21.060  12.541
39044W        W11469  41.540  20.134  11.982
39045W        W11470  19.980  24.931  11.363
39046W        W11471  31.655   3.939  14.813
39047W        W11472  32.689   5.377   1.321
39048W        W11473   9.153  16.703   3.182
39049W        W11474  31.970  44.347  12.813
39050W        W11475  34.763  13.825   4.355
39051W        W11476   0.838  32.539  12.879
39052W        W11477   1.945  12.229   1.298
39053W        W11478   0.454   9.125   0.741
39054W        W11479   3.783  23.552   2.655
39055W        W11480  44.949  31.068   1.509
39056W        W11481   9.003  10.802  11.264
39057W        W11482  38.499  23.048  12.286
39058W        W11483  29.349  22.158   1.937
39059W        W11484  28.379  19.236   4.568
39060W        W11485   4.287  19.353   4.638
39061W        W11486  44.498   1.805  13.969
39062W        W11487  21.113  26.411   1.294
39063W        W11488  32.121  39.304   0.504
39064W        W11489  16.254   8.247  14.340
39065W        W11490   3.444  34.585  10.633
39066W        W11491   3.505   4.154  13.669
39067W        W11492  41.980  33.942  11.527
39068W        W11493  40.466   2.877   4.830
39069W        W11494  23.218  23.592  10.898
39070W        W11495   3.657  44.609   5.081
39071W        W11496   4.613  31.633   4.814
39072W        W11497  19.780  26.538   4.632
39073W        W11498  20.312  30.783  10.720
39074W        W11499   1.983  44.395   0.041
39075W        W11500   3.957  24.177  14.316
39076W        W11501   1.752  17.805  13.429
39077W        W11502  43.032  44.897   3.635
39078W        W11503  10.324  32.472   1.494
39079W        W11504  38.248  15.055  12.426
39080W        W11505  44.146  26.889   1.289
39081W        W11506  19.738  27.486   1.026
39082W        W11507  12.531  20.997  14.506
39083W        W11508  27.088  17.363  10.254
39084W        W11509  10.209  38.865  11.575
39085W        W11510  32.050  40.500  13.512
39086W        W11511   8.923  29.066   4.808
39087W        W11512   9.285  36.820  12.422
39088W        W11513  35.976  20.401  13.719
39089W        W11514   1.943   3.015  14.552
39090W        W11515   1.834  18.635   5.043
39091W        W11516  12.446  35.965   1.208
39092W        W11517  37.989  31.119   2.248
39093W        W11518   5.191  42.998  14.555
39094W        W11519  35.534  24.903   1.792
39095W        W11520   9.635  27.946   3.244
39096W        W11521  21.539  28.165  10.908
39097W        W11522  32.153  37.424  14.323
39098W        W11523  36.910   5.758  13.196
39099W        W11524  26.935  24.159  12.087
39100W        W11525  27.961  16.023   0.402
39101W        W11526   5.277  23.785  14.973
39102W        W11527  24.493  37.243  13.903
39103W        W11528  32.401   9.349  11.443
39104W        W11529  25.246  42.070   3.206
39105W        W11530  27.713  32.636   2.385
39106W        W11531   9.101  18.403   1.251
39107W        W11532   1.737   8.169   3.283
39108W        W11533   1.420   6.303   0.713
39109W        W11534  44.416  42.978  13.560
39110W        W11535  31.187  39.332   4.137
39111W        W11536  33.879  14.194   1.882
39112W        W11537  38.597  15.163   0.916
39113W        W11538  38.544   9.455  12.942
39114W        W11539  27.525  18.781  12.521
39115W        W11540  43.341   6.667   1.865
39116W        W11541  11.313  12.584   4.015
39117W        W11542  36.842   0.282  14.920
39118W        W11543  41.843  18.953  11.110
39119W        W11544  18.512  36.508   3.648
39120W        W11545   5.241  23.515   0.458
39121W        W11546  42.698  28.915   3.191
39122W        W11547   9.433  15.103   0.745
39123W        W11548  24.415  34.135  12.155
39124W        W11549   8.901  30.652  14.209
39125W        W11550  24.528   6.738  10.781
39126W        W11551  44.469   9.739   0.077
39127W        W11552   0.130   0.939   0.934
39128W        W11553  22.485  10.875   4.181
39129W        W11554  16.608  21.309   4.405
39130W        W11555   3.350  13.311  11.427
39131W        W11556   5.758  17.816   1.145
39132W        W11557  42.007  16.505   2.668
39133W        W11558  20.576  27.975   0.747
39134W        W11559   3.193  43.964  11.604
39135W        W11560   2.500  26.760  12.958
39136W        W11561  36.523  23.120   4.666
39137W        W11562   0.323   3.057  12.286
39138W        W11563   9.689  44.139  14.085
39139W        W11564   6.336  43.191  10.724
39140W        W11565  16.256   9.397   4.221
39141W        W11566  14.192  39.353   3.109
39142W        W11567   0.368  16.518   4.701
39143W        W11568  22.706  20.397   4.554
39144W        W11569  18.243  20.279   1.798
39145W        W11570  36.339  32.478   2.326
39146W        W11571  21.513   9.408   3.728
39147W        W11572   0.014  40.463  11.970
39148W        W11573   9.784   0.408  13.468
39149W        W11574  15.741  13.761  11.724
39150W        W11575  18.258  38.613  12.489
39151W        W11576  28.651  34.327   3.569
39152W        W11577  18.049   7.485  13.371
39153W        W11578  29.632  22.490   3.333
39154W        W11579  38.618  22.560  14.850
39155W        W11580  35.189   6.594  14.485
39156W        W11581  13.213  30.151   1.750
39157W        W11582  41.562  10.835  11.838
39158W        W11583  37.976   1.011  11.069
39159W        W11584   0.727   6.190   0.285
39160W        W11585  16.310  13.593   4.627
39161W        W11586   3.139  42.327   5.127
39162W        W11587  28.902  34.699  14.891
39163W        W11588   6.666  15.071  12.024
39164W        W11589  12.303  13.798   0.730
39165W        W11590   7.476  38.024   9.803
39166W        W11591   1.477   2.627   3.135
39167W        W11592  33.682  26.893   2.810
39168W        W11593  12.068   9.273  10.937
39169W        W11594  21.847  33.576   2.716
39170W        W11595  26.487  43.383  10.886
39171W        W11596   5.222  37.248  14.129
39172W        W11597  22.178  42.890  10.794
39173W        W11598  28.109  29.131  12.644
39174W        W11599  12.459   4.595  13.928
39175W        W11600  21.986  15.793  13.207
39176W        W11601  44.208  32.030   3.204
39177W        W11602  44.751  36.636   4.399
39178W        W11603  39.362   9.620  13.412
39179W        W11604  15.569  37.973  13.626
39180W        W11605  32.907  16.082   3.279
39181W        W11606  28.929  40.384   4.309
39182W        W11607  22.607  20.614  14.054
39183W        W11608  14.687   7.156   1.223
39184W        W11609  44.936  38.372   3.306
39185W        W11610  27.042  35.663  12.008
39186W        W11611  16.109  41.786   4.694
39187W        W11612  13.259  18.188   5.020
39188W        W11613  26.873  15.863  13.232
39189W        W11614   2.457  42.910   1.513
39190W        W11615  38.480   3.004  10.448
39191W        W11616   8.224  32.396  11.847
39192W        W11617   2.768  32.586  11.281
39193W        W11618  15.935   2.887   0.240
39194W        W11619  31.701  44.945   3.730
39195W        W11620  28.395  13.921   0.327
39196W        W11621  21.428  40.675  11.075
39197W        W11622   3.931  30.133   3.162
39198W        W11623  16.998  11.912  10.317
39199W        W11624  21.528  33.877   4.086
39200W        W11625  21.212  39.843  10.098
39201W        W11626  44.859  18.624   3.311
39202W        W11627  10.672  14.145   4.693
39203W        W11628  32.698   2.370   2.683
39204W        W11629  43.784  20.141  10.916
39205W        W11630  26.672  27.123  10.580
39206W        W11631   1.981  10.050   0.243
39207W        W11632  22.642  43.791  14.602
39208W        W11633   0.731  40.442   4.167
39209W        W11634  13.109  37.521  14.096
39210W        W11635  32.652  29.926   4.745
39211W        W11636  30.188  30.077  12.501
39212W        W11637  12.370  37.276   5.111
39213W        W11638  18.763   8.953   1.423
39214W        W11639  26.929  30.522  10.723
39215W        W11640  33.707  21.656  14.518
39216W        W11641  27.220  30.107   1.885
39217W        W11642  18.875   7.546  12.968
39218W        W11643   7.250  10.787   4.690
39219W        W11644  44.736  43.875   2.273
39220W        W11645  30.818  29.702  11.111
39221W        W11646  27.254   8.862   1.174
39222W        W11647  17.124   0.778  13.987
39223W        W11648  25.783  24.716   0.881
39224W        W11649  32.086  42.109  11.563
39225W        W11650  18.831  20.630   0.419
39226W        W11651  27.113  34.456  11.427
39227W        W11652  36.062  11.652  14.237
39228W        W11653  26.244  36.788  12.016
39229W        W11654  21.635   1.093  10.391
39230W        W11655  42.800  34.897  11.890
39231W        W11656  44.757  32.013   0.625
39232W        W11657  39.537  41.510   0.235
39233W        W11658  19.327  20.448  12.506
39234W        W11659  44.880  14.252  12.411
39235W        W11660  12.545  17.520   4.009
39236W        W11661  31.188  15.780   1.849
39237W        W11662  12.826   2.167   2.829
39238W        W11663  18.537   4.821   0.269
39239W        W11664  42.337  32.534  13.724
39240W        W11665   2.012   5.107  12.259
39241W        W11666  14.334  22.193   1.203
39242W        W11667   8.232  14.222   0.195
39243W        W11668  39.282  28.634   4.903
39244W        W11669  34.090  41.311  14.859
39245W        W11670  31.136  10.683  10.598
39246W        W11671   1.553  18.090   4.178
39247W        W11672  30.690  44.326  11.385
39248W        W11673   0.301  26.386   1.375
39249W        W11674  21.485  25.236  14.248
39250W        W11675  23.965  34.423   2.244
39251W        W11676  37.538  27.090   2.178
39252W        W11677  19.601   0.303   0.026
39253W        W11678   6.336  34.803   1.977
39254W        W11679  22.715   7.932  11.930
39255W        W11680  10.841   3.905   3.278
39256W        W11681  13.199  16.346  14.470
39257W        W11682  21.248  28.875   1.762
39258W        W11683  26.680   5.315  10.810
39259W        W11684  14.498  18.641  12.945
39260W        W11685  38.617  41.915  10.565
39261W        W11686   4.191  19.796   3.831
39262W        W11687  32.110  16.239  13.070
39263W        W11688  15.809   6.841   3.769
39264W        W11689   7.899  25.956   4.721
39265W        W11690  22.681  42.702  12.403
39266W        W11691  41.506  34.048   4.288
39267W        W11692  38.354  21.768  12.046
39268W        W11693  35.112  25.014  12.060
39269W        W11694   9.299  34.570   2.276
39270W        W11695  22.063  12.572   3.096
39271W        W11696  43.978  19.460   2.561
39272W        W11697  37.308  39.968   3.879
39273W        W11698   2.145  38.584  14.389
39274W        W11699   5.085  37.491  11.025
39275W        W11700  27.489  38.456  11.943
39276W        W11701  40.719  37.440   4.030
39277W        W11702  20.846  38.306  13.076
39278W        W11703   8.769   8.716   1.538
39279W        W11704  17.939   1.819   9.751
39280W        W11705   9.698  14.213   1.983
39281W        W11706  40.097   8.850  14.208
39282W        W11707  29.608  16.606  12.545
39283W        W11708  16.247  36.083   2.980
39284W        W11709  12.832  30.735   0.970
39285W        W11710  36.581  42.249  14.839
39286W        W11711  38.877   7.733   1.885
39287W        W11712  24.247  22.228   4.217
39288W        W11713  42.611  10.695   2.401
39289W        W11714  30.432  21.828   2.657
39290W        W11715  32.641   0.435  12.532
39291W        W11716  19.924  18.673   4.732
39292W        W11717  40.261  10.831  13.835
39293W        W11718  18.530  25.930   1.311
39294W        W11719   2.391  30.588   0.409
39295W        W11720   3.446  14.675  11.150
39296W        W11721   3.258  35.721   2.472
39297W        W11722  29.511  13.248   0.161
39298W        W11723   1.165   5.167   3.422
39299W        W11724  39.044  24.549   5.742
39300W        W11725  11.819   8.433   3.254
39301W        W11726  22.888  44.256  12.517
39302W        W11727  42.088  36.678  11.139
39303W        W11728   8.901  38.377  11.488
39304W        W11729  34.291  21.107   1.154
39305W        W11730  17.185  40.968  12.013
39306W        W11731  44.240  43.772   0.718
39307W        W11732  16.202  36.093   2.413
39308W        W11733   9.641  44.789  13.924
39309W        W11734   1.303  37.077  12.768
39310W        W11735   7.484  26.538   4.345
39311W        W11736  10.836   9.476   5.591
39312W        W11737  25.248  22.586  14.330
39313W        W11738  13.860  30.916  10.602
39314W        W11739  36.959   7.418   0.466
39315W        W11740   0.222  23.104   0.308
39316W        W11741   6.731   6.601   1.104
39317W        W11742  44.336  17.219   5.094
39318W        W11743  42.049   1.724  10.282
39319W        W11744  20.856   6.434   0.409
39320W        W11745   4.293  21.991  10.855
39321W        W11746  14.175   7.425  12.005
39322W        W11747  27.965   1.596  12.693
39323W        W11748  27.956  30.940  13.364
39324W        W11749   6.966  21.035   4.587
39325W        W11750  21.994  34.583  13.308
39326W        W11751  41.793   5.668  11.741
39327W        W11752  18.758  15.940  12.906
39328W        W11753  30.448  31.911  12.034
39329W        W11754   9.836  34.468  11.831
39330W        W11755  23.187  16.155  13.075
39331W        W11756  30.984   3.540  11.420
39332W        W11757  13.314   2.947  13.050
39333W        W11758  38.488  23.602   0.442
39334W        W11759  19.178  27.096   3.639
39335W        W11760  36.338   3.600  13.366
39336W        W11761  32.567  10.227   2.095
39337W        W11762  26.021  37.021  12.437
39338W        W11763  40.529   2.318  12.914
39339W        W11764  21.118   5.733  11.213
39340W        W11765  44.196  37.925   3.046
39341W        W11766  38.336  18.500   3.820
39342W        W11767  39.746  15.715  13.782
39343W        W11768  28.080  25.076  13.069
39344W        W11769   3.416   6.223  10.653
39345W        W11770  34.445  33.591   3.802
39346W        W11771  23.889   9.670   0.805
39347W        W11772  38.067  20.232  10.637
39348W        W11773  12.591   3.131  12.651
39349W        W11774  28.462  41.736   2.922
39350W        W11775   6.852  16.707   2.124
39351W        W11776  31.319  21.825  11.147
39352W        W11777  42.036  39.112  11.104
39353W        W11778   6.905  23.055  10.507
39354W        W11779  27.719   4.257  13.858
39355W        W11780  21.512  14.230   1.294
39356W        W11781   8.948  20.405   3.658
39357W        W11782  24.717  21.991   2.858
39358W        W11783   6.866  38.976   2.927
39359W        W11784  38.903   4.353   0.707
39360W        W11785  33.904  32.011  14.019
39361W        W11786  30.959  40.769  11.195
39362W        W11787   5.920  21.131  14.407
39363W        W11788   1.191  42.973  11.165
39364W        W11789  18.258  34.165  12.346
39365W        W11790  30.841  15.275   3.088
39366W        W11791  12.964  31.515   2.639
39367W        W11792  34.565  22.744   2.332
39368W        W11793  11.093  33.460  14.138
39369W        W11794  12.737   0.870  14.928
39370W        W11795  38.924   3.520   2.685
39371W        W11796  44.694  16.523   3.306
39372W        W11797  26.295   5.724  13.284
39373W        W11798   2.871  44.410   0.261
39374W        W11799  11.756   6.207   0.686
39375W        W11800  27.406  28.391  11.177
39376W        W11801  42.349  33.464  12.404
39377W        W11802  25.899  29.233  12.877
39378W        W11803  32.060  28.514  10.817
39379W        W11804   1.742  20.637  14.988
39380W        W11805  40.836   5.655  13.157
39381W        W11806  31.009  21.199   1.840
39382W        W11807   6.620  33.011  12.374
39383W        W11808   9.540  26.743   0.389
39384W        W11809  34.306  38.898  11.950
39385W        W11810   7.664   3.210  11.114
39386W        W11811  30.922   8.300  14.784
39387W        W11812  22.194  26.479  10.682
39388W        W11813  43.848  12.675  12.569
39389W        W11814  25.326  38.320  11.134
39390W        W11815  23.123  23.457  11.924
39391W        W11816  28.919  37.831   2.812
39392W        W11817  32.180  15.419  12.010
39393W        W11818  28.456  42.102   4.769
39394W        W11819  38.962  28.951   0.689
39395W        W11820   5.032  10.846   2.489
39396W        W11821   5.287  38.385   3.664
39397W        W11822  40.683  24.027   3.440
39398W        W11823  32.676  23.767   1.169
39399W        W11824  32.067  31.997   4.649
39400W        W11825  12.715   8.226   1.039
39401W        W11826  43.691   4.777   1.703
39402W        W11827  10.911  32.021   3.572
39403W        W11828   6.043  35.015  13.571
39404W        W11829  11.257  25.590   0.409
39405W        W11830  15.098  31.300   2.382
39406W        W11831  21.740  37.166   0.313
39407W        W11832  30.696  15.720  14.990
39408W        W11833  17.659  42.734   0.354
39409W        W11834   0.517  25.722   0.791
39410W        W11835  20.526  10.060  12.922
39411W        W11836  28.027  10.298   3.758
39412W        W11837  28.560  14.121  11.229
39413W        W11838  32.084  24.431   2.308
39414W        W11839  37.769  12.799  10.807
39415W        W11840  39.341   6.263  13.319
39416W        W11841   1.534  15.069  13.051
39417W        W11842  25.174  24.340   4.734
39418W        W11843   8.383   2.627   2.933
39419W        W11844  15.749   5.835   0.374
39420W        W11845   9.384  12.430   4.542
39421W        W11846  12.783  17.131   2.516
39422W        W11847  11.856  44.408  10.549
39423W        W11848  23.469   3.710  13.438
39424W        W11849  13.364  36.423  13.137
39425W        W11850  30.959  20.721   2.930
39426W        W11851  16.195   8.468  14.810
39427W        W11852  43.060   9.114   2.305
39428W        W11853  40.943  30.507  14.485
39429W        W11854  28.893  44.256   4.072
39430W        W11855   8.165   2.805  12.984
39431W        W11856  10.687   8.741  13.556
39432W        W11857  21.623  20.569  14.272
39433W        W11858   4.789  30.559  14.220
39434W        W11859  37.954  33.133   1.360
39435W        W11860  16.395   3.176  14.478
39436W        W11861   9.311  40.498  14.048
39437W        W11862  33.368   8.967   4.085
39438W        W11863   9.173   4.341   0.791
39439W        W11864   7.922  25.993  13.947
39440W        W11865  14.378  40.949   4.780
39441W        W11866  23.588   0.245   1.543
39442W        W11867   0.751   8.050   3.274
39443W        W11868  11.873  23.557   4.145
39444W        W11869  11.781  25.715  10.320
39445W        W11870   0.294  15.284  13.345
39446W        W11871   4.430   7.189  14.829
39447W        W11872  38.510  19.072  12.916
39448W        W11873  10.539   2.138   3.181
39449W        W11874   9.661  30.666   4.301
39450W        W11875   4.513  21.122  12.281
39451W        W11876  40.472  37.826  14.485
39452W        W11877  20.483   4.540   1.573
39453W        W11878  36.561  37.328   0.621
39454W        W11879  32.012  42.936  13.755
39455W        W11880  15.369  35.650   2.623
39456W        W11881  21.777  25.418   4.629
39457W        W11882  34.643  25.106   4.342
39458W        W11883  26.546  20.719   2.187
39459W        W11884   6.074  11.224  13.032
39460W        W11885  36.397  34.353  14.418
39461W        W11886  26.952  33.030  12.436
39462W        W11887  44.015   9.360  13.410
39463W        W11888  44.084  24.772  13.057
39464W        W11889  43.821   4.713  13.413
39465W        W11890  26.207   7.930   2.395
39466W        W11891   7.226  22.174   0.759
39467W        W11892  26.315  41.401  10.402
39468W        W11893  25.761  34.927   3.902
39469W        W11894  14.429  29.463   0.023
39470W        W11895  25.555  21.360   3.005
39471W        W11896  35.352   5.867   1.360
39472W        W11897  43.188   7.288   1.110
39473W        W11898  24.481  28.191   2.112
39474W        W11899  24.698   0.516  12.542
39475W        W11900  28.619   8.769   0.106
39476W        W11901  17.194  17.832  11.171
39477W        W11902  19.497  21.866  14.486
39478W        W11903  42.431   7.406   3.955
39479W        W11904  34.282  39.232   1.768
39480W        W11905  44.567   7.921  14.913
39481W        W11906  44.689  35.012   4.165
39482W        W11907   4.486  44.469  11.558
39483W        W11908  21.240  32.513  10.459
39484W        W11909   3.956  28.129  10.421
39485W        W11910   9.226  43.325  14.787
39486W        W11911  14.132   5.668   0.459
39487W        W11912   5.733  43.110   4.513
39488W        W11913  43.766   9.015  13.770
39489W        W11914   0.861  16.394  13.399
39490W        W11915  37.470  18.334  11.016
39491W        W11916  40.947  26.236   2.471
39492W        W11917  33.353  38.872  13.054
39493W        W11918   6.809   5.409  13.323
39494W        W11919  42.581  24.764  12.860
39495W        W11920  33.383  40.054  13.209
39496W        W11921  31.659   1.820   0.040
39497W        W11922   6.872  17.151   2.860
39498W        W11923   6.370   3.044   0.560
39499W        W11924  40.791  40.057  14.283
39500W        W11925   3.326  25.148  10.609
39501W        W11926  37.960  35.952  12.874
39502W        W11927   1.865  41.326  14.490
39503W        W11928  31.524  34.441  11.643
39504W        W11929  20.251  32.012  11.894
39505W        W11930   3.817  11.486   2.464
39506W        W11931  17.382  11.813  12.010
39507W        W11932  14.971   8.120  11.904
39508W        W11933  41.749   9.070  10.470
39509W        W11934   9.736  44.486  11.559
39510W        W11935  12.292   2.299  13.293
39511W        W11936  40.069   4.052   0.350
39512W        W11937  43.276  12.270   1.420
39513W        W11938  14.123  42.194   3.679
39514W        W11939  41.964  37.637   1.644
39515W        W11940  17.840   4.513   1.399
39516W        W11941  39.826  35.353   3.354
39517W        W11942  30.537  16.826   3.073
39518W        W11943  12.209  16.235   0.805
39519W        W11944  41.909  14.342   1.187
39520W        W11945  17.714   5.731   2.416
39521W        W11946  14.313   3.770  12.657
39522W        W11947  30.642  29.359   1.474
39523W        W11948  42.051  42.320  14.915
39524W        W11949   5.171   1.270   3.682
39525W        W11950  12.199  42.396  10.547
39526W        W11951  34.614   5.920  11.585
39527W        W11952  39.437  28.050   2.863
39528W        W11953  44.494   8.954  13.920
39529W        W11954  43.489  11.819   0.365
39530W        W11955  31.149  21.472   2.267
39531W        W11956  22.184  14.202   0.973
39532W        W11957  17.667  36.929   0.924
39533W        W11958   3.360   9.870   1.795
39534W        W11959   8.372  27.912   4.436
39535W        W11960   1.293  10.637  14.398
39536W        W11961  35.577  23.318  11.113
39537W        W11962   6.280  11.662  14.913
39538W        W11963  12.116  29.358   1.794
39539W        W11964   5.206  30.112   1.870
39540W        W11965  23.230  31.340   1.389
39541W        W11966  13.066  13.893   3.241
39542W        W11967   4.194   3.245   2.514
39543W        W11968  14.102  25.622  13.548
39544W        W11969  30.528   8.758  12.828
39545W        W11970   3.114  17.757  11.869
39546W        W11971   1.294  20.566  14.745
39547W        W11972   8.140  20.252  13.730
39548W        W11973  19.296  12.900   1.919
39549W        W11974   9.281  30.412  13.016
39550W        W11975  43.922  22.849  13.447
39551W        W11976  10.679   4.455  10.642
39552W        W11977  35.139   1.371  12.630
39553W        W11978  25.993  38.753   1.933
39554W        W11979  13.099  35.648  12.479
39555W        W11980  43.923  33.605   4.809
39556W        W11981  10.826  18.724  13.299
39557W        W11982  39.963  17.184  13.451
39558W        W11983  14.211   5.461  13.262
39559W        W11984  29.208   6.867  13.942
39560W        W11985  34.627  40.756   4.222
39561W        W11986  28.452   3.720   1.505
39562W        W11987  10.266   2.490  10.043
39563W        W11988  24.088  34.876  14.526
39564W        W11989  28.447  17.650  14.982
39565W        W11990  26.922   4.257  12.478
39566W        W11991   1.490  23.277  12.200
39567W        W11992  40.006  13.857  11.607
39568W        W11993   6.740  37.098  12.890
39569W        W11994  35.160  29.878   0.329
39570W        W11995  21.982   1.710   1.394
39571W        W11996  26.923  12.737   1.386
39572W        W11997  34.002  29.130  10.692
39573W        W11998  15.343  29.761  14.905
39574W        W11999  22.415  44.778  13.098
39575W        W12000  30.514   2.431  12.642
39576W        W12001  14.568  12.823   0.387
39577W        W12002  37.401  14.807   3.365
39578W        W12003   1.476  28.622  11.254
39579W        W12004   8.946  29.909   1.284
39580W        W12005  23.490  13.821   0.465
39581W        W12006  22.705  39.361   1.869
39582W        W12007   2.038  42.700   4.019
39583W        W12008  37.294   6.424  14.244
39584W        W12009  16.550  20.521  11.637
39585W        W12010  19.045  14.712   2.558
39586W        W12011  43.594  12.662   1.261
39587W        W12012  20.221  38.934   0.470
39588W        W12013   8.886  16.241  13.618
39589W        W12014   5.091  26.042  12.080
39590W        W12015  28.267  30.681  10.991
39591W        W12016  42.378  26.470   0.776
39592W        W12017  27.029  35.414   4.097
39593W        W12018  33.014  25.787  13.435
39594W        W12019  29.128  39.286   3.516
39595W        W12020  36.604  20.955  10.827
39596W        W12021  19.182   6.342   0.551
39597W        W12022  23.513  43.417   3.264
39598W        W12023   9.367  31.902   0.137
39599W        W12024  15.749  39.719  14.329
39600W        W12025  31.516  35.813   3.072
39601W        W12026   8.334  25.025   2.518
39602W        W12027  40.291  13.157   2.982
39603W        W12028   6.648   7.222   3.292
39604W        W12029   0.719  43.872   0.627
39605W        W12030   7.373  19.304   1.871
39606W        W12031   7.307  14.799   1.800
39607W        W12032  14.653  16.147  13.321
39608W        W12033  40.543  38.864   3.641
39609W        W12034  28.426  31.701   4.764
39610W        W12035  37.935  11.837  10.741
39611W        W12036  23.650  32.027   1.044
39612W        W12037   6.463  44.431  12.643
39613W        W12038  35.002  42.317  13.571
39614W        W12039  22.722  19.033  11.710
39615W        W12040  32.653  34.521  11.621
39616W        W12041   6.006  30.706  11.928
39617W        W12042  22.690  15.159   2.309
39618W        W12043  39.779  26.058   3.790
39619W        W12044  29.526   4.957  11.147
39620W        W12045  26.838  29.108   2.753
39621W        W12046  34.067  37.374  12.991
39622W        W12047  19.772  11.224   4.375
39623W        W12048  43.339  41.333   2.828
39624W        W12049  35.952  44.250  11.113
39625W        W12050   6.650  28.989  13.804
39626W        W12051  33.100  39.985   1.206
39627W        W12052  35.943  20.598  11.092
39628W        W12053  24.666  33.411   4.335
39629W        W12054   2.831  21.297   0.435
39630W        W12055  30.454   6.506   5.097
39631W        W12056  26.490  32.853  11.467
39632W        W12057   0.434  22.087  11.607
39633W        W12058   2.342  19.717  12.638
39634W        W12059  25.172   3.695   1.773
39635W        W12060   6.898  39.320  14.342
39636W        W12061  27.614   4.310   4.041
39637W        W12062  33.439  16.555  13.962
39638W        W12063  27.022  42.535  14.913
39639W        W12064   5.364  13.590   1.676
39640W        W12065  35.720  38.459   1.738
39641W        W12066  25.733  13.213   0.328
39642W        W12067  40.838  43.889  10.374
39643W        W12068  40.049  44.458  12.506
39644W        W12069  36.499   6.986   4.474
39645W        W12070  37.054  19.931   3.602
39646W        W12071  30.264  22.819   3.779
39647W        W12072  31.448   1.471   4.159
39648W        W12073  19.289   0.195   1.423
39649W        W12074   2.002  10.874  13.093
39650W        W12075  13.954  40.914  12.973
39651W        W12076   6.204  34.277   3.274
39652W        W12077  18.674  18.711   2.358
39653W        W12078   1.711  13.120   1.623
39654W        W12079  14.601  40.848   0.284
39655W        W12080  39.086  41.563   1.890
39656W        W12081   9.032   7.788   0.570
39657W        W12082  16.250  37.887  11.603
39658W        W12083  28.120  15.917   0.914
39659W        W12084  21.384   6.169   4.155
39660W        W12085  38.945   5.128   3.624
39661W        W12086  35.821   7.842  11.492
39662W        W12087  43.385  24.982   3.788
39663W        W12088  39.283  11.813   4.545
39664W        W12089   9.558   3.207   1.608
39665W        W12090  20.634   9.906  11.792
39666W        W12091  18.060  44.532  14.456
39667W        W12092  41.384   2.409  14.848
39668W        W12093   2.914   0.346  10.649
39669W        W12094  10.186  29.913   1.552
39670W        W12095  16.733  17.074  12.128
39671W        W12096   0.244  39.443  14.382
39672W        W12097   1.777  35.963  14.408
39673W        W12098  38.778  43.370   3.808
39674W        W12099   2.923  40.557   3.224
39675W        W12100   7.777  11.957  11.991
39676W        W12101  31.473  12.612   3.733
39677W        W12102  10.301   7.519  12.295
39678W        W12103  27.774  21.629  13.055
39679W        W12104  29.516  37.545   1.317
39680W        W12105  42.048  10.729   4.776
39681W        W12106  32.418  31.428   3.655
39682W        W12107  40.076  40.893   4.592
39683W        W12108  14.627  36.610   3.514
39684W        W12109  17.562  14.778  10.389
39685W        W12110  25.607   4.252  12.960
39686W        W12111  21.988   9.663   3.205
39687W        W12112  15.342  36.409  11.193
39688W        W12113  10.840  18.027  13.848
39689W        W12114   0.008  16.185  10.652
39690W        W12115  17.530  18.374   1.112
39691W        W12116  37.127  21.619   1.908
39692W        W12117   2.731  35.126  13.091
39693W        W12118  21.803  10.840  11.160
39694W        W12119  19.903  30.512  11.074
39695W        W12120  20.446  12.387   3.733
39696W        W12121  41.497  35.406   2.179
39697W        W12122  17.266  17.570  14.911
39698W        W12123  26.947  12.443  11.155
39699W        W12124  12.701  37.869  14.798
39700W        W12125   8.793  33.404   3.738
39701W        W12126  12.300  23.324   4.713
39702W        W12127  20.281  43.823  12.396
39703W        W12128   8.478  26.143  14.955
39704W        W12129  39.515  20.673  11.653
39705W        W12130   2.124  31.466  11.526
39706W        W12131   4.861   9.292   3.375
39707W        W12132  37.384  29.369   2.402
39708W        W12133  15.117  11.680   1.322
39709W        W12134  34.585  33.455   4.826
39710W        W12135   4.793  32.477   3.838
39711W        W12136   1.484  13.329  13.761
39712W        W12137   5.774  20.580  14.003
39713W        W12138   5.628  14.152  11.442
39714W        W12139  40.846  42.933  12.148
39715W        W12140  34.159   0.970   4.557
39716W        W12141  14.236  20.458   4.166
39717W        W12142  13.751  38.579   2.497
39718W        W12143   1.676  24.190   2.102
39719W        W12144   5.721   3.815   1.450
39720W        W12145  38.720  44.452  11.246
39721W        W12146  41.778  35.955  13.444
39722W        W12147  16.559  39.363   2.139
39723W        W12148  29.827  16.104   1.616
39724W        W12149  17.557  37.385   1.120
39725W        W12150  18.086  11.376   1.275
39726W        W12151  10.259  12.403  11.256
39727W        W12152  24.161  43.215  14.621
39728W        W12153  38.457  18.773   3.405
39729W        W12154  15.003  43.565   0.967
39730W        W12155  28.857  33.633   2.742
39731W        W12156   5.466  24.185   4.084
39732W        W12157  21.373  44.538  14.578
39733W        W12158  27.489   6.991   4.911
39734W        W12159   3.336  40.919   1.115
39735W        W12160  16.743  19.708  14.681
39736W        W12161  33.935   9.283  11.146
39737W        W12162   7.295  28.914   4.665
39738W        W12163   2.371  25.569   1.307
39739W        W12164   3.820  12.931  13.319
39740W        W12165  23.652  44.561  12.813
39741W        W12166  30.449  18.127  13.062
39742W        W12167  23.305  29.633  14.009
39743W        W12168  32.388  21.543   0.935
39744W        W12169   2.489   6.617  11.587
39745W        W12170  31.530  32.915  10.678
39746W        W12171  38.524  36.125   4.304
39747W        W12172  16.182  12.301  12.066
39748W        W12173  36.956  30.383  12.974
39749W        W12174  20.971   0.318  14.026
39750W        W12175  29.132  24.888   3.303
39751W        W12176  37.409  28.904  13.972
39752W        W12177  43.776   0.417   4.586
39753W        W12178  34.933  30.250   4.892
39754W        W12179  18.331   2.772  13.001
39755W        W12180  30.055  32.895   2.745
39756W        W12181   0.763  34.951   1.186
39757W        W12182  35.460  38.679   1.365
39758W        W12183   8.469  37.940   2.845
39759W        W12184  34.430  44.951   1.981
39760W        W12185  21.237  32.323   2.566
39761W        W12186   8.508  12.320  12.913
39762W        W12187  39.160   4.518  13.420
39763W        W12188   2.913  23.928  11.957
39764W        W12189  24.594   5.885   3.964
39765W        W12190  25.658  43.641   4.121
39766W        W12191   0.650   0.995   0.927
39767W        W12192  37.759  23.891   1.313
39768W        W12193  28.121  24.501  11.865
39769W        W12194  39.453  18.513  13.880
39770W        W12195   8.316   1.384   0.497
39771W        W12196  16.953  34.122  11.962
39772W        W12197   1.825  21.128  13.446
39773W        W12198  17.358   1.900  11.140
39774W        W12199   6.620   4.970  13.074
39775W        W12200  13.151  39.756  12.881
39776W        W12201   6.155  35.539  14.306
39777W        W12202  15.055   6.736   0.349
39778W        W12203  12.705  13.714  11.439
39779W        W12204  42.028  32.112  13.421
39780W        W12205  22.123   9.692   0.055
39781W        W12206  11.869  43.764  13.989
39782W        W12207  17.621   3.774   1.720
39783W        W12208   6.240  20.748  10.731
39784W        W12209  10.202  15.849   1.271
39785W        W12210  41.882   3.003   4.918
39786W        W12211  30.572  23.101  12.071
39787W        W12212  40.332   6.224   0.397
39788W        W12213   8.619  44.766  10.831
39789W        W12214  31.608   6.719   3.655
39790W        W12215  23.781  27.191   3.597
39791W        W12216  10.211  38.250   0.798
39792W        W12217  44.236  44.937   4.173
39793W        W12218  10.764  19.058  10.539
39794W        W12219   3.770  25.458  12.056
39795W        W12220  18.545  19.326   3.160
39796W        W12221  13.247  20.167   1.618
39797W        W12222  26.616  35.309  10.945
39798W        W12223   3.534  27.288  12.106
39799W        W12224  21.248  23.090   3.753
39800W        W12225   3.775   9.188   1.721
39801W        W12226   3.356  30.866   1.733
39802W        W12227  25.919  12.271   1.593
39803W        W12228  34.819  37.358  11.623
39804W        W12229   5.841  26.599   0.224
39805W        W12230   0.706   1.358  14.119
39806W        W12231  33.992  34.950  13.883
39807W        W12232  16.268  10.239  12.573
39808W        W12233   6.600  15.879  14.161
39809W        W12234  22.298  12.765   4.946
39810W        W12235  32.878  33.608   4.607
39811W        W12236  38.296  10.115  11.392
39812W        W12237   6.093  24.245   3.306
39813W        W12238  11.865   3.044  10.422
39814W        W12239  17.475  36.652  14.834
39815W        W12240  17.788  15.908   2.753
39816W        W12241  23.650  43.759  14.394
39817W        W12242  40.865  41.616  11.618
39818W        W12243  25.795  27.042   3.669
39819W        W12244  21.761   6.944  12.910
39820W        W12245  13.711  29.146  14.587
39821W        W12246   0.258  26.519  11.226
39822W        W12247  30.962  33.947   2.954
39823W        W12248  26.261  37.446   3.126
39824W        W12249  24.166  26.525   1.907
39825W        W12250   8.489  10.336  13.277
39826W        W12251  35.061  21.555   1.812
39827W        W12252  14.780   5.968  10.479
39828W        W12253  17.289   5.985  10.145
39829W        W12254  24.017  17.340   1.035
39830W        W12255   0.971  15.108  13.064
39831W        W12256  25.134  35.179  14.853
39832W        W12257   8.336  16.818   2.848
39833W        W12258  21.298  22.682   1.171
39834W        W12259  34.095   2.008   2.775
39835W        W12260  10.163  12.011   5.063
39836W        W12261  14.148   5.829  11.570
39837W        W12262  26.683  18.077  10.724
39838W        W12263   9.247   2.810  12.871
39839W        W12264  29.602  33.699  14.009
39840W        W12265   4.122  38.071  13.003
39841W        W12266  12.546   2.417  11.050
39842W        W12267  37.980  22.259  12.397
39843W        W12268   1.964  19.174  12.098
39844W        W12269   5.392  40.760   2.259
39845W        W12270  30.060  13.346  12.625
39846W        W12271  20.007   0.883   3.586
39847W        W12272   7.280   6.258   1.814
39848W        W12273  23.287   9.177   3.087
39849W        W12274  34.864  11.073  14.209
39850W        W12275   5.810  43.298   2.444
39851W        W12276   7.445   4.155   1.719
39852W        W12277  23.587  13.702   1.992
39853W        W12278  33.849  11.215  12.054
39854W        W12279  29.641  22.388  14.848
39855W        W12280  41.582  37.179   5.378
39856W        W12281  24.953   1.498  14.822
39857W        W12282  16.034   2.889   0.833
39858W        W12283  35.382   4.511   0.372
39859W        W12284   0.390  15.436   1.743
39860W        W12285  43.555  15.600   2.351
39861W        W12286  37.073  41.597  11.041
39862W        W12287   0.032   2.871  14.400
39863W        W12288  21.579  33.073   4.792
39864W        W12289  22.520  38.856   1.436
39865W        W12290  44.085  27.240  11.102
39866W        W12291  23.036  33.836   3.260
39867W        W12292  18.385  17.248  12.042
39868W        W12293  38.693  28.051   0.817
39869W        W12294  27.473  12.733  14.291
39870W        W12295   6.719  32.471   1.354
39871W        W12296  16.524   0.799   1.360
39872W        W12297   0.419   6.274  14.882
39873W        W12298  13.386  30.369  12.929
39874W        W12299   4.146   5.884  12.238
39875W        W12300  35.405   7.199  14.932
39876W        W12301  26.585  40.338  10.638
39877W        W12302  32.659  17.182   3.660
39878W        W12303  30.688  36.395  14.325
39879W        W12304  36.247  29.879  12.647
39880W        W12305  12.086  31.624  10.916
39881W        W12306  36.887  26.880   3.281
39882W        W12307  18.472   1.940  13.806
39883W        W12308  35.144  26.410   1.933
39884W        W12309  27.108  44.899   0.444
39885W        W12310  15.254   8.910   0.928
39886W        W12311  10.339  34.487   3.196
39887W        W12312  21.736   6.023   4.512
39888W        W12313  32.592  35.247  12.981
39889W        W12314  33.211  42.874  10.495
39890W        W12315   9.268  33.569  12.544
39891W        W12316   6.861   5.681  10.472
39892W        W12317   1.364  16.126  12.058
39893W        W12318  30.212  11.070  10.795
39894W        W12319  40.257  12.963   2.457
39895W        W12320  19.363  34.865   3.346
39896W        W12321  29.027   9.316  12.835
39897W        W12322  18.249   4.040   4.155
39898W        W12323  28.132  15.057   0.367
39899W        W12324   2.944  38.806  11.488
39900W        W12325  10.668  39.044  13.721
39901W        W12326  27.362   0.341  12.207
39902W        W12327   0.459  11.817   0.208
39903W        W12328   3.983   5.433   3.678
39904W        W12329  42.000  38.880  14.229
39905W        W12330  19.129  43.052   0.350
39906W        W12331  10.082  21.017   4.336
39907W        W12332  23.117   5.717  13.288
39908W        W12333  14.413   5.681  10.248
39909W        W12334  40.880   0.863  11.828
39910W        W12335  25.301  24.008   0.568
39911W        W12336   9.455  31.641   2.895
39912W        W12337  28.470  32.905  14.212
39913W        W12338  10.394  39.954  14.007
39914W        W12339   0.720  19.786   1.359
39915W        W12340  10.222  36.881   2.632
39916W        W12341  12.323   0.171  14.942
39917W        W12342  30.116  19.731   0.695
39918W        W12343   5.294  41.078  11.475
39919W        W12344   7.174  33.186   3.006
39920W        W12345  16.367   7.725   2.935
39921W        W12346  29.460  39.599   2.504
39922W        W12347  41.387  32.068  13.072
39923W        W12348   1.963   1.809  13.960
39924W        W12349   0.760  12.790  13.931
39925W        W12350  12.842   1.375  14.945
39926W        W12351  15.254   6.174   2.644
39927W        W12352  29.456  20.110   2.970
39928W        W12353  25.677  12.103   3.796
39929W        W12354  36.271  15.661  12.534
39930W        W12355  41.833   2.161  14.900
39931W        W12356  26.429  19.825   2.914
39932W        W12357   3.544  31.888   0.205
39933W        W12358  38.422  37.537  10.733
39934W        W12359  12.437   6.350   1.310
39935W        W12360  36.462  36.440   4.875
39936W        W12361   2.873  36.268   0.793
39937W        W12362  41.836  38.879  11.539
39938W        W12363   2.019  35.121   2.785
39939W        W12364  44.532   8.918   4.139
39940W        W12365  20.512  33.106  13.873
39941W        W12366  33.171  27.106  14.870
39942W        W12367  17.284  29.971   4.677
39943W        W12368  41.082  40.523  12.095
39944W        W12369  27.710  28.065   2.727
39945W        W12370  30.849   6.463   1.822
39946W        W12371  33.233  17.657   5.181
39947W        W12372  32.799  13.382   2.196
39948W        W12373  18.695   8.131  13.445
39949W        W12374  38.954  37.202  14.230
39950W        W12375  33.832   6.502  14.311
39951W        W12376  14.877   1.320   0.869
39952W        W12377  19.129  10.311   2.476
39953W        W12378   8.898  14.104   2.876
39954W        W12379  20.491  19.463  12.372
39955W        W12380  27.113  18.737   2.628
39956W        W12381   9.336   1.193  12.032
39957W        W12382  41.788  12.884  10.262
39958W        W12383   9.225  11.889   3.764
39959W        W12384  28.030   9.482   2.271
39960W        W12385  27.411  18.139   1.313
39961W        W12386  39.439  11.723   1.361
39962W        W12387  31.103  27.331  13.097
39963W        W12388  41.138  34.943   4.611
39964W        W12389  10.803  15.529   3.840
39965W        W12390  11.654  40.404   4.505
39966W        W12391  42.464  24.244   3.314
39967W        W12392  10.809  16.767  14.484
39968W        W12393  43.431  33.714  12.143
39969W        W12394  43.289  37.864   2.913
39970W        W12395  25.980   2.363   1.121
39971W        W12396  25.246  41.373   2.226
39972W        W12397  15.442  12.611   1.349
39973W        W12398   5.696  15.100   4.260
39974W        W12399  12.575  27.787   0.447
39975W        W12400  34.501  15.227  12.628
39976W        W12401  28.164  31.459   3.012
39977W        W12402  28.460  44.079  10.599
39978W        W12403  35.575   6.906  14.562
39979W        W12404  13.941  28.586   1.928
39980W        W12405  19.457  19.921  14.915
39981W        W12406  16.541  41.504  12.410
39982W        W12407  40.616   5.813   2.130
39983W        W12408  19.702  22.152  13.973
39984W        W12409  40.502  21.027   1.797
39985W        W12410  26.923  14.390  14.050
39986W        W12411  35.526   7.971  14.444
39987W        W12412   2.703  41.049   3.257
39988W        W12413  11.798   4.983  13.299
39989W        W12414   3.919   7.463   4.167
39990W        W12415  42.025  40.755   2.282
39991W        W12416  43.925  40.569   2.850
39992W        W12417  15.212   4.638   3.130
39993W        W12418  16.598  40.841  12.103
39994W        W12419  13.257  34.530  10.634
39995W        W12420  22.442  34.127   4.048
39996W        W12421  12.281   4.012   1.831
39997W        W12422  34.461  42.802   4.502
39998W        W12423   2.404  38.054   3.978
39999W        W12424  38.498  44.676  10.216
40000W        W12425  30.092  17.110  14.495
40001W        W12426  21.684  29.986   3.235
40002W        W12427   5.924  22.579  14.198
40003W        W12428  16.555   2.921   5.996
40004W        W12429  39.886   5.919  10.694
40005W        W12430   3.861   2.676   4.864
40006W        W12431  40.284   8.680   0.854
40007W        W12432   2.223  21.585   3.725
40008W        W12433   9.961  12.091   1.803
40009W        W12434  37.457  29.903   0.468
40010W        W12435  27.050  40.380  11.947
40011W        W12436  13.268  21.171  12.809
40012W        W12437  30.973  12.399   3.686
40013W        W12438  20.208   8.542   3.786
40014W        W12439  18.256  19.155   1.408
40015W        W12440  15.541  44.605   2.710
40016W        W12441  36.355  15.828  11.282
40017W        W12442  40.385  22.130  12.621
40018W        W12443  17.484   7.754   4.788
40019W        W12444  40.985  14.081   0.770
40020W        W12445   0.408  40.935  14.957
40021W        W12446   6.825  29.226   3.650
40022W        W12447  25.231  41.939   0.728
40023W        W12448  11.641   3.566  12.199
40024W        W12449  26.477  11.409   1.290
40025W        W12450  40.935  37.731  12.886
40026W        W12451   2.637  33.164  12.989
40027W        W12452  16.070  29.917  13.522
40028W        W12453  13.054   8.971  11.051
40029W        W12454  11.133  23.863   1.355
40030W        W12455  19.330  25.450   0.893
40031W        W12456  25.468  43.490  12.805
40032W        W12457  34.960  27.137  10.972
40033W        W12458  10.817  19.458   4.093
40034W        W12459  32.053  40.682   5.052
40035W        W12460   4.899  41.374  13.049
40036W        W12461  36.612   7.869   1.322
40037W        W12462  12.803  24.751   9.724
40038W        W12463  15.173  44.695   3.094
40039W        W12464  15.234  42.103   4.219
40040W        W12465   5.746  13.185   2.952
40041W        W12466  21.410  37.551   4.146
40042W        W12467  12.382  14.051  13.162
40043W        W12468  12.149  10.910  13.390
40044W        W12469  25.586  40.919  10.610
40045W        W12470   4.084  19.638   1.983
40046W        W12471  29.082  43.522   3.386
40047W        W12472  44.509  24.797   4.073
40048W        W12473  34.920  30.597   0.908
40049W        W12474  25.068  29.596  10.763
40050W        W12475   5.559  14.557   2.250
40051W        W12476  21.549   8.690   1.787
40052W        W12477   0.386  11.518   0.667
40053W        W12478  36.013  33.361  14.442
40054W        W12479   1.047  17.659   1.942
40055W        W12480  21.574   0.240  14.012
40056W        W12481  25.867   1.794   4.494
40057W        W12482  27.259  31.337  11.712
40058W        W12483   6.688  18.044   3.229
40059W        W12484  21.696  21.125   4.487
40060W        W12485   1.949   1.214  11.054
40061W        W12486  27.503  30.720   2.629
40062W        W12487   6.337  17.648  13.796
40063W        W12488  42.574  37.879   0.813
40064W        W12489  28.202   5.615  14.956
40065W        W12490  31.055  23.767  12.467
40066W        W12491  18.227   6.382   0.433
40067W        W12492   3.892  21.606  11.547
40068W        W12493  36.047  13.324  14.586
40069W        W12494  36.601  25.178   0.312
40070W        W12495  38.576   7.359   4.173
40071W        W12496  19.013  10.877   3.237
40072W        W12497  25.680  10.384   2.929
40073W        W12498   8.256  38.585   0.163
40074W        W12499  11.178   8.721  14.698
40075W        W12500   2.765  43.285  12.867
40076W        W12501   2.717  18.234   3.810
40077W        W12502  14.344  25.942   0.873
40078W        W12503  43.339  17.703  13.174
40079W        W12504  25.455  15.168   3.285
40080W        W12505  17.572   6.013   3.819
40081W        W12506  12.796  21.109   1.863
40082W        W12507  32.095  20.694  13.428
40083W        W12508  28.119  25.638   2.190
40084W        W12509  14.216   4.269  12.928
40085W        W12510  18.542   4.091  14.911
40086W        W12511   9.326  27.251  13.079
40087W        W12512   5.442  22.104  12.766
40088W        W12513  31.822  39.033  13.615
40089W        W12514  28.401  29.979   5.113
40090W        W12515  23.557  11.631   1.339
40091W        W12516   2.011  12.581   4.165
40092W        W12517  34.603  10.665  14.505
40093W        W12518  36.837  36.917   1.338
40094W        W12519  16.789  31.186  12.063
40095W        W12520  24.469  40.046   4.869
40096W        W12521  33.486  35.056  13.898
40097W        W12522   2.648  27.243   4.159
40098W        W12523   3.280   1.823  13.498
40099W        W12524   0.402   1.143   1.373
40100W        W12525  16.804  23.258   0.930
40101W        W12526  41.137  25.951   2.856
40102W        W12527  40.383  35.376   0.075
40103W        W12528   9.792  12.284   4.251
40104W        W12529   6.504   9.948   1.432
40105W        W12530  20.002  36.959  12.545
40106W        W12531   0.998  27.609   5.128
40107W        W12532  33.928  29.567  10.968
40108W        W12533  28.683  20.903  12.442
40109W        W12534  15.724   1.437   1.375
40110W        W12535  41.557  34.465   1.779
40111W        W12536   0.443   6.288   4.632
40112W        W12537  19.609  37.119   1.915
40113W        W12538  15.655  41.800   4.909
40114W        W12539  33.456  38.542   1.278
40115W        W12540  12.294  16.962  12.932
40116W        W12541  16.267  26.932   2.819
40117W        W12542  19.738  19.923   0.365
40118W        W12543  24.254  37.056   4.102
40119W        W12544   6.895   8.238  12.179
40120W        W12545  22.144  17.459  12.087
40121W        W12546  36.485  16.375   3.188
40122W        W12547  25.572  28.045  12.568
40123W        W12548  20.205  15.049   1.824
40124W        W12549  12.463  10.817  11.748
40125W        W12550  41.130  35.809   3.595
40126W        W12551   7.703  26.346  10.761
40127W        W12552   5.328   7.752   1.173
40128W        W12553  35.315  30.922  10.991
40129W        W12554  14.551  17.575  10.762
40130W        W12555  35.073  35.299   1.330
40131W        W12556   0.681  37.560  12.146
40132W        W12557  14.616   2.787   1.472
40133W        W12558   8.635   1.415  11.652
40134W        W12559  29.458  17.373   4.389
40135W        W12560  32.930   8.678  14.827
40136W        W12561  43.814  36.678   0.643
40137W        W12562  44.248  43.783   4.161
40138W        W12563  15.796  40.755  14.338
40139W        W12564  33.116  28.654   0.965
40140W        W12565  11.275  44.281  14.931
40141W        W12566   2.867  30.860   4.249
40142W        W12567  22.334  43.050   4.734
40143W        W12568  40.777  42.799   5.127
40144W        W12569  23.140   1.997   3.688
40145W        W12570  22.717  26.715   4.205
40146W        W12571  38.057   3.123  10.945
40147W        W12572   7.216  27.958  12.001
40148W        W12573  19.120  25.551   1.887
40149W        W12574  36.592   9.724  14.314
40150W        W12575  41.391  12.201   2.387
40151W        W12576  36.616   1.928   5.065
40152W        W12577  27.265  13.223   4.604
40153W        W12578  40.172  37.344  14.035
40154W        W12579  11.450  36.137  13.167
40155W        W12580   1.382  33.422   2.171
40156W        W12581   3.345  25.139  14.724
40157W        W12582   1.308   2.511   0.269
40158W        W12583  37.973   0.439  11.003
40159W        W12584  26.240  34.844  13.078
40160W        W12585  32.182  27.782  10.202
40161W        W12586  22.741  43.532  12.897
40162W        W12587  28.153   5.915   4.648
40163W        W12588  31.712  35.374  11.579
40164W        W12589   4.129   5.386  12.429
40165W        W12590  35.256  17.149   1.075
40166W        W12591  29.426  43.047   2.883
40167W        W12592  32.441  34.353   0.961
40168W        W12593  11.950  23.653  10.246
40169W        W12594  23.009  14.875   2.752
40170W        W12595  17.526   7.937   0.796
40171W        W12596  25.463  12.833   2.409
40172W        W12597  23.741   0.909  10.659
40173W        W12598  32.659  19.997   4.131
40174W        W12599  27.973  37.363   3.805
40175W        W12600  22.915  37.506   0.888
40176W        W12601   9.314  31.935   1.628
40177W        W12602  17.549   1.965   2.349
40178W        W12603  32.355  12.190  10.858
40179W        W12604  19.554  30.058  14.519
40180W        W12605  32.190  16.254   4.578
40181W        W12606   6.673  44.921  12.491
40182W        W12607  13.539  14.699   0.888
40183W        W12608   3.374  29.580   3.563
40184W        W12609  24.039  27.358   0.278
40185W        W12610  16.220  34.106  10.373
40186W        W12611  30.540  41.603  12.835
40187W        W12612   1.689  20.101  12.068
40188W        W12613  39.015  34.311  13.062
40189W        W12614  30.873  33.688  13.026
40190W        W12615   5.231  29.412  13.454
40191W        W12616   6.387  34.050   0.337
40192W        W12617  11.730  10.815   1.340
40193W        W12618   1.044   1.696  11.016
40194W        W12619  18.061   9.862  14.030
40195W        W12620  27.178  19.696   0.971
40196W        W12621  41.913   3.588  14.707
40197W        W12622  24.690  27.229   0.811
40198W        W12623  33.938   2.701   0.812
40199W        W12624  18.523  19.587   0.703
40200W        W12625  40.577  22.021  13.370
40201W        W12626  44.928  32.039   2.696
40202W        W12627  33.873   4.854   2.017
40203W        W12628  36.219  36.246   1.828
40204W        W12629   4.515  20.335  11.654
40205W        W12630   5.682  14.272   3.739
40206W        W12631   3.357  44.325   4.675
40207W        W12632  13.254   5.853   2.420
40208W        W12633  12.223   7.649  10.468
40209W        W12634  40.516  11.117   2.675
40210W        W12635   2.704  41.777  11.120
40211W        W12636  28.594  38.889  14.450
40212W        W12637  33.038  19.215   4.857
40213W        W12638  17.199  12.816  11.158
40214W        W12639  26.753  22.501   2.252
40215W        W12640   7.841  41.516   1.230
40216W        W12641  38.611  20.162   2.743
40217W        W12642  40.238  26.955   1.448
40218W        W12643   0.615  30.443  14.869
40219W        W12644  42.754  13.535  12.118
40220W        W12645  25.968  26.040   4.241
40221W        W12646   8.909  14.322   4.180
40222W        W12647  30.950   1.660   4.802
40223W        W12648  22.201  43.259  10.393
40224W        W12649  14.843  42.655  13.422
40225W        W12650  11.636  42.260   0.322
40226W        W12651   9.291  35.556   5.048
40227W        W12652  24.113  25.444   0.918
40228W        W12653  33.485   0.024   2.148
40229W        W12654  31.555   4.623   2.222
40230W        W12655  31.467  29.358  11.549
40231W        W12656  37.169  18.234   2.284
40232W        W12657  21.199  21.949  13.876
40233W        W12658  35.443  14.212   3.194
40234W        W12659  43.923  40.257  12.111
40235W        W12660   5.566  35.413  12.877
40236W        W12661   4.244   6.137   3.184
40237W        W12662  27.695   8.388  13.524
40238W        W12663   1.599  16.692  11.118
40239W        W12664  26.888  37.931   2.700
40240W        W12665  35.817  36.405   4.581
40241W        W12666  39.876  12.303  13.493
40242W        W12667  36.070   1.593   3.655
40243W        W12668  15.658   8.778   0.323
40244W        W12669  35.082  42.827  13.384
40245W        W12670  28.647  26.708  11.447
40246W        W12671  22.038   9.700   0.594
40247W        W12672  38.615  17.887  11.362
40248W        W12673  17.540  19.593  13.003
40249W        W12674  31.417  37.171  13.982
40250W        W12675  35.879  17.027  10.801
40251W        W12676  19.177  39.120   4.217
40252W        W12677  22.272  36.034   1.794
40253W        W12678   8.332  42.738  14.713
40254W        W12679   4.818  41.315   1.323
40255W        W12680  44.662  31.785   3.110
40256W        W12681   2.333  22.111   1.698
40257W        W12682  11.271  24.721   1.307
40258W        W12683  36.808  44.379   0.120
40259W        W12684  10.908  23.242  10.993
40260W        W12685  33.135  38.903   3.015
40261W        W12686  16.911  38.492   0.358
40262W        W12687   7.198  29.710  11.493
40263W        W12688  43.816  27.250   0.940
40264W        W12689  20.565  38.833   1.370
40265W        W12690  20.702  30.518  14.721
40266W        W12691  36.165  25.113  13.431
40267W        W12692   3.693  24.521  12.090
40268W        W12693  30.922   6.846   1.481
40269W        W12694   8.737  41.318   1.774
40270W        W12695   5.416  32.969  13.071
40271W        W12696  11.154  10.664   3.189
40272W        W12697  30.976  19.647   1.973
40273W        W12698  10.575  18.129   1.948
40274W        W12699  30.517  38.442   4.518
40275W        W12700  15.570   8.658   3.765
40276W        W12701  32.468  42.534  13.802
40277W        W12702  30.601  27.031   1.679
40278W        W12703   5.180  40.020   0.488
40279W        W12704   4.627  42.764   4.269
40280W        W12705  44.005  36.449   1.887
40281W        W12706  36.413  13.613  11.714
40282W        W12707  38.039  43.727   2.322
40283W        W12708  33.669  26.555   3.208
40284W        W12709  16.700  30.444   1.422
40285W        W12710  26.126  30.637   2.373
40286W        W12711  32.951  42.284   3.298
40287W        W12712   5.239   7.299  10.377
40288W        W12713  33.837  39.004  11.072
40289W        W12714  13.996   4.373   4.486
40290W        W12715  34.801  29.532   0.082
40291W        W12716  38.074  13.601   3.332
40292W        W12717  15.372  18.123  14.934
40293W        W12718  27.478  42.014   3.774
40294W        W12719  23.471  22.190  12.418
40295W        W12720  11.675  16.290  13.076
40296W        W12721  22.302  24.261   2.733
40297W        W12722  41.079  29.158  12.503
40298W        W12723  32.510   9.359   3.600
40299W        W12724  10.707   2.501   1.210
40300W        W12725  33.578  19.793  14.329
40301W        W12726   3.556  26.289   0.993
40302W        W12727  18.656  16.117  13.394
40303W        W12728   1.942   5.920  10.690
40304W        W12729   6.774  40.700   4.929
40305W        W12730  18.222  17.761  12.116
40306W        W12731  43.064  30.112   2.864
40307W        W12732   7.200  34.978  12.884
40308W        W12733   4.831   1.728   2.391
40309W        W12734  39.493   3.857  12.139
40310W        W12735  33.165  18.148  14.744
40311W        W12736  42.419  16.382   1.434
40312W        W12737  24.212  40.447   1.295
40313W        W12738   2.442  43.495   0.382
40314W        W12739   7.264   3.535  11.085
40315W        W12740  24.229  44.998  14.354
40316W        W12741  41.256   1.992   1.727
40317W        W12742  33.097  40.276   1.658
40318W        W12743  36.580   8.769  10.784
40319W        W12744  27.679  24.155  13.369
40320W        W12745  32.981  23.583  12.959
40321W        W12746  32.464   4.472   2.678
40322W        W12747  28.687  41.958   4.322
40323W        W12748  20.435  35.656   0.646
40324W        W12749  37.616   9.888  11.712
40325W        W12750   9.216  24.993  12.402
40326W        W12751  17.285  36.686   0.661
40327W        W12752  22.135  25.649  12.601
40328W        W12753  22.670   1.952  13.484
40329W        W12754   8.616  19.268   1.384
40330W        W12755  23.993  36.046  13.565
40331W        W12756   4.293  19.298   3.778
40332W        W12757  25.241  30.143   4.732
40333W        W12758   2.798  30.560  12.178
40334W        W12759  21.110  16.446   3.235
40335W        W12760  19.611  26.065  12.615
40336W        W12761   5.252  23.103  14.526
40337W        W12762  20.982  29.522  10.613
40338W        W12763  25.030  26.093   4.640
40339W        W12764  10.041  35.319   2.281
40340W        W12765  39.434  27.263   0.334
40341W        W12766   3.962  42.292   2.623
40342W        W12767  21.266  17.432   0.314
40343W        W12768  10.244  25.903  13.011
40344W        W12769  15.126  32.056   3.908
40345W        W12770  12.070   7.720  13.384
40346W        W12771  44.535  27.490   1.818
40347W        W12772  25.668  38.054   2.363
40348W        W12773  42.308  31.388   0.971
40349W        W12774  25.513  18.124   3.362
40350W        W12775  44.273  18.080   2.870
40351W        W12776   8.161  34.518   0.216
40352W        W12777  15.339  37.516  13.561
40353W        W12778  20.387  21.720  11.986
40354W        W12779  22.466   9.299   2.719
40355W        W12780  13.601   4.762  10.885
40356W        W12781  22.943  32.161  14.658
40357W        W12782  44.389   5.219   4.058
40358W        W12783  43.711  21.598   4.715
40359W        W12784  14.254   9.580   2.894
40360W        W12785  43.764   9.219   1.761
40361W        W12786   8.012  34.862   5.395
40362W        W12787  31.215   6.299   0.885
40363W        W12788  33.429  28.932   3.616
40364W        W12789  15.140   8.619  11.021
40365W        W12790  39.442  27.687  14.401
40366W        W12791  14.082  44.007  10.733
40367W        W12792  36.297  38.135  12.675
40368W        W12793  13.065  22.678  11.899
40369W        W12794  16.600  24.035  10.644
40370W        W12795  17.527  24.841  12.894
40371W        W12796   8.742  20.487   4.563
40372W        W12797  18.449  11.811   4.912
40373W        W12798  23.102  43.483   1.643
40374W        W12799  16.027  34.712   1.864
40375W        W12800  36.347   4.298   2.840
40376W        W12801  38.644  11.079  14.579
40377W        W12802  29.573  29.171  10.755
40378W        W12803  42.037  26.901  12.098
40379W        W12804   9.335  31.562   4.752
40380W        W12805  25.543  39.534  10.771
40381W        W12806  26.600  20.967  13.888
40382W        W12807  20.024  27.914  10.537
40383W        W12808  14.231  12.382   2.010
40384W        W12809   2.252   6.780   4.619
40385W        W12810  22.719  15.189  14.064
40386W        W12811  34.474  25.330  12.506
40387W        W12812  22.128  18.379   0.956
40388W        W12813   5.848   2.642   2.628
40389W        W12814  43.016  14.048   3.134
40390W        W12815   0.743  19.745  14.805
40391W        W12816  30.392  35.881   1.124
40392W        W12817  24.669   9.104  12.453
40393W        W12818   4.745   5.784   3.718
40394W        W12819  33.449  21.194   4.298
40395W        W12820  37.511  15.828  12.355
40396W        W12821  27.519  33.630   2.365
40397W        W12822  30.177   4.774  11.461
40398W        W12823  26.446  15.596   0.608
40399W        W12824  13.768  19.791   4.601
40400W        W12825  32.502  18.705  14.272
40401W        W12826  42.825   1.735   2.301
40402W        W12827   6.219  42.355  13.891
40403W        W12828  11.720   0.305   0.757
40404W        W12829  28.873  30.594  10.785
40405W        W12830   2.424  43.612  12.574
40406W        W12831   6.292  16.148   0.881
40407W        W12832  17.605   7.979   1.803
40408W        W12833  19.291   0.284  14.557
40409W        W12834  18.061  13.351   1.515
40410W        W12835  21.084  19.763  13.085
40411W        W12836  31.723  15.370  12.347
40412W        W12837  11.762  36.579   1.749
40413W        W12838  25.974  17.491  12.631
40414W        W12839  34.150  37.432  12.141
40415W        W12840   5.965   6.768  10.589
40416W        W12841  14.279   4.620  13.832
40417W        W12842   4.578  41.562  11.049
40418W        W12843  31.420  42.320   1.211
40419W        W12844   1.719  24.009  13.419
40420W        W12845   9.300  25.510  12.395
40421W        W12846  21.567  40.468  11.919
40422W        W12847  29.859  10.956  14.417
40423W        W12848   3.308  18.786  11.476
40424W        W12849  14.730  15.713  10.188
40425W        W12850  44.242  24.447   3.620
40426W        W12851  37.598  13.431   3.517
40427W        W12852   9.740  41.555   3.120
40428W        W12853  42.974  38.498  13.379
40429W        W12854  36.042  11.531  12.004
40430W        W12855   5.332  42.371   4.085
40431W        W12856  33.566  10.646   3.509
40432W        W12857   9.404  22.656   3.261
40433W        W12858   2.415  29.416   2.769
40434W        W12859  28.393   6.102   2.170
40435W        W12860  24.080   8.312  11.467
40436W        W12861   1.426   0.886   0.794
40437W        W12862   1.903  35.356   4.826
40438W        W12863  32.572   4.766  12.906
40439W        W12864  30.032  28.920   1.440
40440W        W12865  27.594  21.441   0.900
40441W        W12866  30.424   1.781   2.605
40442W        W12867   2.695   8.092  14.751
40443W        W12868  33.822  13.010  11.041
40444W        W12869  17.684   0.555   3.817
40445W        W12870  29.893  26.129   1.456
40446W        W12871  42.008   9.577   1.639
40447W        W12872  19.770  36.266  14.382
40448W        W12873   1.606  24.048   4.168
40449W        W12874   2.088   4.805   3.166
40450W        W12875  26.543  22.398  10.980
40451W        W12876  40.236  37.606   3.069
40452W        W12877   9.727  10.867  12.450
40453W        W12878  10.098  10.877   0.781
40454W        W12879   4.384  21.324   4.895
40455W        W12880  35.430  17.755   3.582
40456W        W12881  36.341  31.386   0.350
40457W        W12882  36.887  20.037   2.573
40458W        W12883  20.815  26.230   1.982
40459W        W12884   6.084  36.411   4.599
40460W        W12885   7.504   3.320  12.596
40461W        W12886   8.700  21.346   3.340
40462W        W12887  10.311  31.332  12.912
40463W        W12888   7.175  26.494  10.782
40464W        W12889  21.405   1.712  11.099
40465W        W12890   4.908  21.114   4.092
40466W        W12891   5.502  31.381  10.927
40467W        W12892  27.265  22.464   4.102
40468W        W12893  33.121   6.367  13.318
40469W        W12894   1.822  32.017   3.194
40470W        W12895   4.052  17.290  14.999
40471W        W12896   3.349  39.947   4.307
40472W        W12897  11.769  30.120  12.385
40473W        W12898  42.417  43.862   4.445
40474W        W12899  31.893  19.565  10.635
40475W        W12900  43.126  38.408   1.300
40476W        W12901  10.126  44.080  14.455
40477W        W12902   5.741  33.086  10.554
40478W        W12903  44.215   9.192  10.094
40479W        W12904  11.768  31.341   1.914
40480W        W12905  11.665   8.719   4.528
40481W        W12906   5.905  29.918  10.758
40482W        W12907   2.218  21.607   4.592
40483W        W12908  26.454   9.307  13.887
40484W        W12909  11.379  15.817  14.244
40485W        W12910  17.233  15.126  12.669
40486W        W12911  38.554  38.580  12.495
40487W        W12912  11.551  28.741   0.732
40488W        W12913  10.788  24.745   3.917
40489W        W12914  13.284  33.772   0.348
40490W        W12915  36.222   6.280  14.357
40491W        W12916  15.940  31.156  11.594
40492W        W12917  34.019   4.696   3.539
40493W        W12918   5.338   8.931   2.727
40494W        W12919  26.666  37.972   4.725
40495W        W12920  16.089  40.761  10.693
40496W        W12921  20.277   3.484   3.230
40497W        W12922  31.943   2.957   1.226
40498W        W12923  15.238   1.165   0.042
40499W        W12924  39.434  35.421  11.605
40500W        W12925  39.833   7.541   0.833
40501W        W12926   5.083  38.851   1.268
40502W        W12927  13.546  14.655  12.513
40503W        W12928  11.198  38.289  12.047
40504W        W12929  30.965  20.688   1.942
40505W        W12930   8.379  17.594   0.871
40506W        W12931  13.709  35.478   4.201
40507W        W12932  35.500  41.957   1.472
40508W        W12933  44.431  11.112   3.947
40509W        W12934  14.852  30.066  14.597
40510W        W12935   9.728   9.836  12.155
40511W        W12936  35.683  18.241   3.253
40512W        W12937  41.477  33.883  11.612
40513W        W12938  10.839  11.924  13.279
40514W        W12939  17.720  30.619   2.297
40515W        W12940  39.452  18.503   1.836
40516W        W12941  16.565  37.580   0.750
40517W        W12942  22.813   5.800  12.890
40518W        W12943  17.615  32.884  11.168
40519W        W12944  22.679  14.763  11.439
40520W        W12945  25.206  37.029   3.744
40521W        W12946  35.822  22.809   3.703
40522W        W12947   8.617  26.642   0.730
40523W        W12948  23.550  23.375   0.390
40524W        W12949  29.588  41.872   0.522
40525W        W12950  21.595  40.393  10.658
40526W        W12951  20.689  25.585  14.825
40527W        W12952  14.245   4.450   0.988
40528W        W12953  10.899  22.485  11.867
40529W        W12954   9.457   4.725   4.051
40530W        W12955  17.683   1.011  10.134
40531W        W12956   1.268  25.681  14.796
40532W        W12957  12.814   6.982  12.205
40533W        W12958  35.958  26.196   0.857
40534W        W12959  44.713   3.280   3.227
40535W        W12960   5.676   7.388   2.910
40536W        W12961   0.410  28.264  12.034
40537W        W12962   8.693   2.394  11.933
40538W        W12963  21.696  19.793   1.353
40539W        W12964  20.316   0.809   4.207
40540W        W12965  36.497  44.307   2.008
40541W        W12966  37.109  28.173   0.848
40542W        W12967   5.087  15.724   4.692
40543W        W12968  31.991  26.840  14.789
40544W        W12969  44.338  15.218   3.616
40545W        W12970  44.402  27.679   2.285
40546W        W12971   5.319  14.331  12.583
40547W        W12972  25.761  32.631   2.919
40548W        W12973  27.104  28.226   1.204
40549W        W12974  23.279  44.420   5.041
40550W        W12975  18.739  38.297   1.950
40551W        W12976  26.436  14.927   1.264
40552W        W12977  29.388   8.653  10.269
40553W        W12978  34.404  30.208   4.197
40554W        W12979  19.009   4.295  14.242
40555W        W12980  14.792  37.946   5.062
40556W        W12981  22.606  16.051  11.121
40557W        W12982  30.857  38.374   3.456
40558W        W12983  10.790  21.660  11.170
40559W        W12984  29.570  18.753   1.438
40560W        W12985  14.066  27.879  11.089
40561W        W12986  33.493  18.512   3.621
40562W        W12987  21.204  29.953  10.893
40563W        W12988  41.958  18.133   1.963
40564W        W12989  29.930  31.362  10.916
40565W        W12990  13.859  40.083  11.711
40566W        W12991  22.456  44.403  11.603
40567W        W12992  32.556  15.832  14.459
40568W        W12993  33.952  15.714   0.791
40569W        W12994  39.210  17.162  12.429
40570W        W12995  13.274  10.409  12.394
40571W        W12996  44.985  16.373  14.410
40572W        W12997  44.511  44.359   2.315
40573W        W12998  19.682  14.060  12.539
40574W        W12999  32.856  38.755  13.060
40575W        W13000  31.922  19.253   3.690
40576W        W13001  25.243  42.475   1.857
40577W        W13002   8.213   0.778  14.335
40578W        W13003   6.776  17.387  14.648
40579W        W13004  18.261  10.070   0.746
40580W        W13005   4.356  16.872   3.632
40581W        W13006  35.341  15.184  14.170
40582W        W13007  12.294  22.351  14.529
40583W        W13008   5.669   7.831  11.558
40584W        W13009  40.390  15.791   2.283
40585W        W13010  20.279  37.682  13.745
40586W        W13011  25.238   5.792  13.491
40587W        W13012  39.921  14.232   1.938
40588W        W13013  16.085  18.055   4.612
40589W        W13014   2.621  37.819  11.646
40590W        W13015  25.947   8.399  11.141
40591W        W13016  39.280  11.168   0.262
40592W        W13017  38.419  30.264   2.075
40593W        W13018  26.089  36.927  14.380
40594W        W13019   8.193  26.973   4.091
40595W        W13020  31.700   7.393   4.103
40596W        W13021  28.676  18.693   1.486
40597W        W13022   2.344  42.217  11.083
40598W        W13023  16.770  28.617  10.412
40599W        W13024  36.406  40.068   1.299
40600W        W13025  26.482   2.221   3.304
40601W        W13026  21.958   5.662  11.163
40602W        W13027  28.053  27.764  12.596
40603W        W13028  14.030  29.051   2.789
40604W        W13029  14.673   6.265  13.966
40605W        W13030  32.977   9.217   3.423
40606W        W13031   0.241  16.299   2.024
40607W        W13032  40.898  20.123   1.836
40608W        W13033  43.495  44.245   0.674
40609W        W13034  33.604  12.004  10.930
40610W        W13035  36.487   6.222  13.884
40611W        W13036  13.247  25.952  13.578
40612W        W13037  27.485  26.486   3.691
40613W        W13038  33.733  35.508  11.734
40614W        W13039   7.200  30.082   4.599
40615W        W13040  18.790  24.762   4.146
40616W        W13041  38.357  24.653  14.825
40617W        W13042   2.884  42.385  12.391
40618W        W13043  28.282  25.445  12.123
40619W        W13044  11.579   1.908   3.140
40620W        W13045   5.162  35.172  12.051
40621W        W13046  32.543  28.034  11.376
40622W        W13047  24.202  27.464   2.066
40623W        W13048   8.532   5.740   3.385
40624W        W13049  20.758  24.649  13.906
40625W        W13050   1.386  19.781  14.085
40626W        W13051  41.464  18.351   1.990
40627W        W13052   9.451   9.629  13.558
40628W        W13053  22.603  34.372  14.905
40629W        W13054  18.790  39.913   1.147
40630W        W13055  31.124  29.022   3.704
40631W        W13056  20.985  16.741  12.858
40632W        W13057  23.865   7.294   3.047
40633W        W13058  43.437  13.767  11.516
40634W        W13059   3.379  35.014   4.324
40635W        W13060   2.232  35.847   2.356
40636W        W13061  34.979  26.303   0.855
40637W        W13062  17.555  28.669  11.879
40638W        W13063  22.064  43.690  13.679
40639W        W13064  16.748  19.016  12.921
40640W        W13065  26.413  44.593   0.358
40641W        W13066  44.413  30.069  13.087
40642W        W13067  22.452  40.310  11.067
40643W        W13068  13.236   6.805  11.940
40644W        W13069  23.432   2.252  13.344
40645W        W13070  44.435  13.201   2.812
40646W        W13071  19.519  23.661   0.638
40647W        W13072  37.128  13.741   4.215
40648W        W13073   2.686  28.963   4.081
40649W        W13074  10.806  10.878  13.280
40650W        W13075  25.579   7.130  13.400
40651W        W13076  29.773  34.374  12.412
40652W        W13077  18.598  25.842  11.464
40653W        W13078  10.852   4.878   1.211
40654W        W13079  18.950  13.360  14.375
40655W        W13080  12.857  15.294   4.335
40656W        W13081  25.004  32.856  11.090
40657W        W13082  13.624  24.651   4.698
40658W        W13083  39.578   2.866   3.779
40659W        W13084  19.530   3.746   4.587
40660W        W13085  24.983  28.441  12.024
40661W        W13086  23.621   3.854   3.708
40662W        W13087  16.863  11.914   1.176
40663W        W13088   8.272  39.753   1.535
40664W        W13089  12.245   4.679   4.407
40665W        W13090  29.903  40.343   2.947
40666W        W13091  29.804  13.305   2.148
40667W        W13092  33.840  36.005  14.004
40668W        W13093   8.121  23.181  14.547
40669W        W13094  34.518  38.699  13.957
40670W        W13095   4.219  39.399  13.595
40671W        W13096   0.036  10.670   3.238
40672W        W13097   2.461   6.626  12.938
40673W        W13098  24.579  27.717   1.790
40674W        W13099  24.366  36.635  12.859
40675W        W13100  24.810  19.186  12.120
40676W        W13101  17.003  21.558  10.545
40677W        W13102   3.433  33.899   0.746
40678W        W13103  32.379  36.747  13.791
40679W        W13104  29.582   0.161  11.831
40680W        W13105   6.267  39.929  12.509
40681W        W13106  29.118   8.322  13.032
40682W        W13107  16.774   2.469  14.830
40683W        W13108  28.123  30.855  12.497
40684W        W13109  27.733  40.443  14.164
40685W        W13110  19.015  39.926   2.987
40686W        W13111  19.532  40.204   1.215
40687W        W13112  26.017  16.667  13.921
40688W        W13113  11.209  32.232  11.930
40689W        W13114   6.470  41.380   1.647
40690W        W13115  38.600   1.441  11.547
40691W        W13116  16.147   8.676  13.438
40692W        W13117  42.748   4.250   0.946
40693W        W13118  10.733  20.812   4.535
40694W        W13119   4.715  23.387   1.459
40695W        W13120   4.976  29.422  13.011
40696W        W13121  10.338  28.293  11.066
40697W        W13122  38.971   2.201   2.367
40698W        W13123   3.914  22.108   2.903
40699W        W13124   3.688  42.280   0.149
40700W        W13125  34.388  16.559   2.601
40701W        W13126  15.148  20.019   1.181
40702W        W13127  32.497  34.893   4.108
40703W        W13128  33.154  24.339  13.709
40704W        W13129  34.583  26.459  13.863
40705W        W13130  24.572  22.654  11.147
40706W        W13131   0.385   9.892  10.582
40707W        W13132  41.944  44.841  11.485
40708W        W13133   2.452  36.376   3.076
40709W        W13134  15.624  39.034   3.427
40710W        W13135  10.616  15.742  14.877
40711W        W13136  28.016  41.114  14.916
40712W        W13137  19.033  25.120  14.487
40713W        W13138  23.160  26.146  11.891
40714W        W13139   6.564   6.458  13.499
40715W        W13140  38.397   5.773   3.296
40716W        W13141  39.753  24.201  12.102
40717W        W13142  40.311  16.583  14.453
40718W        W13143  33.324  20.611   1.826
40719W        W13144  43.330  34.828   3.707
40720W        W13145   4.914  26.178  14.867
40721W        W13146  19.301  34.373  11.537
40722W        W13147  25.550  27.501  12.430
40723W        W13148   7.732   6.426  11.857
40724W        W13149   2.962  25.463   0.455
40725W        W13150  12.856  25.636  11.509
40726W        W13151  36.241  31.784  12.203
40727W        W13152  12.103   4.102  13.447
40728W        W13153   3.172   0.427   0.413
40729W        W13154  12.192  34.193  14.254
40730W        W13155  21.761   4.839  14.613
40731W        W13156   6.683  28.223  11.897
40732W        W13157  37.618  25.011  10.067
40733W        W13158  20.741  42.705  10.815
40734W        W13159  41.879  11.828  10.604
40735W        W13160  33.791  22.948   0.593
40736W        W13161  32.902  30.445   2.162
40737W        W13162  15.274  38.415  14.515
40738W        W13163  21.118  44.793   4.159
40739W        W13164   0.769  25.291   0.247
40740W        W13165  18.686  31.979   5.395
40741W        W13166  35.084  28.235   0.541
40742W        W13167  22.182  35.860  13.539
40743W        W13168  33.977  24.069   2.250
40744W        W13169   0.948  18.119  13.774
40745W        W13170   4.509  29.884  11.355
40746W        W13171   5.308  27.902   4.894
40747W        W13172   2.944  14.722   2.401
40748W        W13173   1.141  11.816   3.757
40749W        W13174   4.458   7.441  12.873
40750W        W13175   7.426  18.137   2.726
40751W        W13176   7.075  26.593   4.690
40752W        W13177   9.390  16.678   4.724
40753W        W13178  20.069  13.168   0.676
40754W        W13179  33.365  43.841  12.015
40755W        W13180  15.588  15.765  10.577
40756W        W13181  19.171  33.941  13.946
40757W        W13182  23.478  38.838   1.772
40758W        W13183  37.379  22.453   5.507
40759W        W13184  16.557  10.365   3.449
40760W        W13185  30.912  28.508   3.744
40761W        W13186  39.530  44.416   3.702
40762W        W13187  21.328  15.617  11.948
40763W        W13188  28.714   3.192   4.084
40764W        W13189  23.454   3.923   2.710
40765W        W13190  39.679  14.733   4.653
40766W        W13191   4.699  39.751  10.738
40767W        W13192   8.024  43.255  11.358
40768W        W13193   6.057  11.653   2.857
40769W        W13194  25.971  31.598  11.095
40770W        W13195   4.820   9.333  14.364
40771W        W13196  21.068  30.010   3.177
40772W        W13197  10.279   6.163   3.702
40773W        W13198  20.683  16.657  13.290
40774W        W13199   4.947   0.210   4.202
40775W        W13200  15.764  10.796   2.718
40776W        W13201  27.133  40.562   2.216
40777W        W13202  44.562  33.928  10.417
40778W        W13203   4.630  44.564  10.842
40779W        W13204  28.283  23.824   3.641
40780W        W13205  22.966  25.596  12.108
40781W        W13206  35.813  15.502  12.355
40782W        W13207  34.597   9.116  12.812
40783W        W13208  22.490   6.998  12.340
40784W        W13209  15.574  26.992  10.915
40785W        W13210  22.496  42.279   2.678
40786W        W13211  12.098  25.183   3.821
40787W        W13212  25.999  19.179   1.366
40788W        W13213  41.844  25.610   1.291
40789W        W13214  39.472  41.939  12.014
40790W        W13215   0.883  31.906   3.699
40791W        W13216  36.870  35.050   3.805
40792W        W13217  35.893  21.683  13.504
40793W        W13218  23.262  17.131   4.134
40794W        W13219   7.242  10.383  13.108
40795W        W13220  11.063  18.661   2.778
40796W        W13221   1.482  11.901  14.571
40797W        W13222  40.622  36.912  13.288
40798W        W13223  11.811   4.396  11.079
40799W        W13224  30.209  12.853  11.570
40800W        W13225  32.676  11.615  11.565
40801W        W13226   1.302  37.273   3.725
40802W        W13227  22.961   0.370   2.914
40803W        W13228  35.315   7.817  11.612
40804W        W13229  15.655  29.185  13.781
40805W        W13230   3.846  23.697  10.747
40806W        W13231  24.672  11.567   2.156
40807W        W13232   7.178  33.942   4.892
40808W        W13233  20.823   3.145  13.932
40809W        W13234   5.524  34.419   4.735
40810W        W13235   3.512   7.951   0.036
40811W        W13236  41.147  10.698   4.425
40812W        W13237  29.916   0.536   0.499
40813W        W13238  12.477  36.948   4.371
40814W        W13239  35.639   4.693   0.814
40815W        W13240  14.713  32.106  10.814
40816W        W13241  13.740  44.324   2.162
40817W        W13242   7.936   7.294   0.943
40818W        W13243  31.678   0.042  11.106
40819W        W13244  10.732   2.554   4.611
40820W        W13245  18.788  18.636  10.713
40821W        W13246   1.165   4.695  13.756
40822W        W13247  12.727  43.936   2.622
40823W        W13248  16.517  30.999   5.401
40824W        W13249  31.937  24.793  12.949
40825W        W13250  38.046   9.928  13.839
40826W        W13251  23.454   1.242  14.058
40827W        W13252  19.709  37.415   2.299
40828W        W13253  15.156  24.645   4.154
40829W        W13254  44.743  42.290   0.428
40830W        W13255   0.677  36.029   3.835
40831W        W13256  27.903  13.308   4.193
40832W        W13257  32.085  27.901  11.186
40833W        W13258  22.556   5.260  13.012
40834W        W13259  34.078  18.900   1.701
40835W        W13260   7.740  16.507   2.155
40836W        W13261  21.302  10.056   2.752
40837W        W13262  29.522  38.338  11.470
40838W        W13263  21.042  39.824  11.042
40839W        W13264  21.762  32.907   1.125
40840W        W13265  43.330  10.584  11.590
40841W        W13266  38.252   6.169   4.589
40842W        W13267   1.427  38.016   0.991
40843W        W13268  26.493  13.657   2.635
40844W        W13269   2.425  43.266  13.802
40845W        W13270  41.342  29.409  12.139
40846W        W13271  21.582  41.792  12.870
40847W        W13272  10.438   3.659  14.831
40848W        W13273   8.358  39.479   1.109
40849W        W13274  31.775  16.670   9.810
40850W        W13275  14.228  26.623   1.860
40851W        W13276  27.306   3.791   2.838
40852W        W13277   0.343  39.758   3.648
40853W        W13278  22.950  18.662   2.683
40854W        W13279  40.413  17.702  13.642
40855W        W13280  27.967  42.865  14.535
40856W        W13281  31.279  35.672   4.944
40857W        W13282  16.052  37.143   2.686
40858W        W13283  16.661   1.089  11.014
40859W        W13284  18.017  39.897  10.623
40860W        W13285  26.534  33.703  14.031
40861W        W13286  36.972  12.303   1.683
40862W        W13287   7.398  11.938  13.535
40863W        W13288  30.567  25.460  11.011
40864W        W13289  15.083   5.253   2.914
40865W        W13290  14.527  29.044  12.382
40866W        W13291   8.001  33.562  14.791
40867W        W13292  18.202  37.692  11.378
40868W        W13293  26.423  12.842   1.415
40869W        W13294  21.221  19.677  14.500
40870W        W13295  26.918  29.605  12.072
40871W        W13296   1.576  17.753   4.582
40872W        W13297  28.691   6.438   3.077
40873W        W13298  14.638   6.887  14.643
40874W        W13299   9.944   7.639  11.475
40875W        W13300   9.967  11.319  12.520
40876W        W13301  10.239  23.032   0.827
40877W        W13302  37.576   6.500   1.593
40878W        W13303  38.910  20.051   4.458
40879W        W13304  18.676  25.997  10.609
40880W        W13305   2.970  34.644  11.225
40881W        W13306  14.608  33.402  13.025
40882W        W13307  28.910  43.047   1.217
40883W        W13308  21.510  37.757  11.119
40884W        W13309   5.889  17.224  10.725
40885W        W13310  13.185  25.618  13.964
40886W        W13311  12.172  15.738   0.946
40887W        W13312  29.653  44.379   1.840
40888W        W13313   7.186  25.904  13.430
40889W        W13314  29.803  34.332   1.751
40890W        W13315  27.510  12.770   4.774
40891W        W13316   6.259   0.530  12.365
40892W        W13317  35.050  13.923   3.420
40893W        W13318   9.331  37.184  10.106
40894W        W13319  32.483  37.111  12.520
40895W        W13320   9.945  35.943   3.297
40896W        W13321  13.534  14.401   1.733
40897W        W13322   2.891  13.335   4.593
40898W        W13323  11.857  15.596  11.572
40899W        W13324  22.032  17.205   2.655
40900W        W13325  25.186  20.126   0.469
40901W        W13326  28.431  44.849  14.359
40902W        W13327  14.061   7.142  12.453
40903W        W13328  33.619  34.021  14.836
40904W        W13329  36.533  44.228  10.446
40905W        W13330  42.302   0.944   2.258
40906W        W13331  20.788  30.029  11.212
40907W        W13332  44.147  20.758   1.227
40908W        W13333  33.464  28.075  10.645
40909W        W13334   3.515  19.194   4.107
40910W        W13335  20.981  31.120   4.824
40911W        W13336  27.626   3.594  11.847
40912W        W13337  43.765  17.792   0.193
40913W        W13338   6.021  32.585  13.095
40914W        W13339  36.536  32.509   3.811
40915W        W13340  44.066  44.755   3.721
40916W        W13341   4.406  20.819   3.080
40917W        W13342  17.336   6.118   0.032
40918W        W13343  35.350  29.025  14.285
40919W        W13344  35.761  19.806   1.944
40920W        W13345   8.256  40.274   3.817
40921W        W13346  14.882  24.076   3.405
40922W        W13347   4.504   5.770   1.346
40923W        W13348  25.990  10.015   2.721
40924W        W13349   2.771   6.386  13.395
40925W        W13350   8.559  29.126  13.716
40926W        W13351  21.288  31.680   4.587
40927W        W13352  40.055  41.511  13.972
40928W        W13353  44.655  10.086  11.535
40929W        W13354  17.366  21.182   3.261
40930W        W13355   9.668  28.097   0.301
40931W        W13356   5.383  30.003  11.491
40932W        W13357  10.559  37.514  14.318
40933W        W13358  31.853   2.886   0.729
40934W        W13359  19.047  39.714  13.893
40935W        W13360  31.712  44.709  14.522
40936W        W13361  16.624   4.411  10.414
40937W        W13362   2.131  22.497   3.597
40938W        W13363  27.614  22.537  11.224
40939W        W13364  23.892  10.712   5.031
40940W        W13365  35.479  13.639  10.827
40941W        W13366  31.020  37.975   1.812
40942W        W13367  44.921   5.500   0.379
40943W        W13368  10.437  40.354   3.181
40944W        W13369  37.119  27.663   0.215
40945W        W13370  41.555  23.171   2.772
40946W        W13371  32.992  29.305   3.802
40947W        W13372  29.507  44.703  11.614
40948W        W13373  38.547  40.839   1.229
40949W        W13374   8.243  44.738   0.257
40950W        W13375  21.273  13.756   1.918
40951W        W13376   6.835  31.668  12.316
40952W        W13377  15.127  32.191  11.553
40953W        W13378  30.608  28.891   0.365
40954W        W13379  42.866   0.891   1.834
40955W        W13380  44.819  19.549   4.610
40956W        W13381  31.853  11.863   4.101
40957W        W13382  42.795  26.404  10.748
40958W        W13383  25.754  19.255   1.827
40959W        W13384   9.527  42.716   2.919
40960W        W13385   0.241  33.548  13.944
40961W        W13386  19.634  10.214   2.369
40962W        W13387  42.587  37.084  12.916
40963W        W13388  11.755   1.723   5.043
40964W        W13389  30.815  41.044  14.580
40965W        W13390  19.763  10.535   3.191
40966W        W13391  38.349  25.896   0.902
40967W        W13392  10.161  26.874  11.472
40968W        W13393  36.947  21.118  13.852
40969W        W13394  18.002   1.308  14.816
40970W        W13395  23.926  18.380  12.075
40971W        W13396  40.239  37.362   3.555
40972W        W13397   4.935   3.880   0.050
40973W        W13398  24.251   6.003  10.674
40974W        W13399  31.470  26.924  14.697
40975W        W13400  12.300  30.166   0.166
40976W        W13401  38.062  40.707  14.767
40977W        W13402  37.708  42.402   2.772
40978W        W13403   9.143  38.842  10.765
40979W        W13404  34.455  18.323   1.320
40980W        W13405   4.768  33.032   4.580
40981W        W13406  38.415  10.378  12.867
40982W        W13407   7.458  36.353   4.221
40983W        W13408  20.767  22.240   2.305
40984W        W13409  36.470   6.733  14.584
40985W        W13410  20.434  12.372   4.617
40986W        W13411   5.703  26.998   2.990
40987W        W13412  17.675  37.465  14.043
40988W        W13413  27.806   2.950   2.288
40989W        W13414  18.261  29.182  11.557
40990W        W13415  31.072  35.875  10.337
40991W        W13416  27.050  35.354   1.733
40992W        W13417   1.044  35.806   0.113
40993W        W13418  23.036   7.100   0.340
40994W        W13419   4.688  33.850   1.468
40995W        W13420  20.307  28.890  10.779
40996W        W13421   9.894  41.007   1.254
40997W        W13422   2.699  30.121   3.754
40998W        W13423  10.079  42.900   2.336
40999W        W13424  20.820  17.819  14.812
41000W        W13425   7.611  35.525   1.820
41001W        W13426  16.305  30.133   0.819
41002W        W13427  13.681  35.289  10.507
41003W        W13428   0.398  25.768  13.484
41004W        W13429  44.460  11.816   2.576
41005W        W13430  23.083  25.255   0.406
41006W        W13431  10.437  44.250  11.371
41007W        W13432  29.611  12.873  13.415
41008W        W13433   4.700   0.768   2.850
41009W        W13434   6.716  26.707  10.932
41010W        W13435  12.803  36.959  14.712
41011W        W13436  16.352  31.389   1.166
41012W        W13437  10.479   6.285  11.057
41013W        W13438  34.198  15.555  13.790
41014W        W13439  30.771  18.364   4.993
41015W        W13440   9.702  16.259  12.900
41016W        W13441  25.087  44.298   0.529
41017W        W13442  25.102  36.832  14.566
41018W        W13443  37.880   7.948   0.887
41019W        W13444  16.631   2.845   1.578
41020W        W13445  42.492  23.229  10.445
41021W        W13446  27.707  19.673   1.005
41022W        W13447  28.989  13.044  13.532
41023W        W13448   0.316  35.309  13.877
41024W        W13449   3.346  38.965   2.879
41025W        W13450  35.908  38.264  11.647
41026W        W13451  27.624  42.754  14.891
41027W        W13452   5.302  31.425  11.404
41028W        W13453  18.783  11.338   3.445
41029W        W13454  18.550   2.577  14.867
41030W        W13455  18.670  15.114  10.971
41031W        W13456  20.689  33.623  10.626
41032W        W13457  18.711  41.405   3.319
41033W        W13458  32.771   5.797  12.054
41034W        W13459  28.387   4.331  14.763
41035W        W13460   4.243  19.713   1.450
41036W        W13461  33.905  27.814  10.714
41037W        W13462  27.934  44.675  14.436
41038W        W13463  38.824   0.200   2.263
41039W        W13464  42.124  29.719   5.141
41040W        W13465  40.006   6.728  14.869
41041W        W13466  26.354   5.885  11.421
41042W        W13467  19.261  20.112   0.358
41043W        W13468  24.483  16.250   1.465
41044W        W13469  12.862  21.111   3.777
41045W        W13470  44.798   6.911   4.826
41046W        W13471   4.861  34.396  12.669
41047W        W13472  36.621  35.954   0.288
41048W        W13473  28.584  14.401   0.196
41049W        W13474  31.656  30.576  12.005
41050W        W13475  30.228  23.095  11.670
41051W        W13476   0.762  34.723   3.081
41052W        W13477   4.843   2.280  11.932
41053W        W13478   1.268   5.091  12.046
41054W        W13479  28.206   9.434  11.649
41055W        W13480  43.410  41.972  11.042
41056W        W13481  33.053  20.024  11.284
41057W        W13482  23.062   5.256  13.000
41058W        W13483   0.885  28.217  13.855
41059W        W13484   4.456  44.300   4.143
41060W        W13485  43.106   1.386   4.762
41061W        W13486  36.377   1.536  11.064
41062W        W13487  12.078   3.376  13.945
41063W        W13488  22.149  34.550   3.966
41064W        W13489  14.426  42.021   4.220
41065W        W13490  41.088  37.349  10.137
41066W        W13491  35.540  41.366  11.028
41067W        W13492  16.577   3.705   2.370
41068W        W13493   2.888   0.079  11.107
41069W        W13494  22.493   7.938   2.639
41070W        W13495   8.714   6.456   3.951
41071W        W13496  41.376  26.218  14.629
41072W        W13497   0.392  40.065  13.444
41073W        W13498  19.927   0.077  13.194
41074W        W13499  29.167   7.130   1.288
41075W        W13500  17.509  23.554  10.856
41076W        W13501  43.316  39.907   1.146
41077W        W13502  35.428   5.319  12.812
41078W        W13503  18.430  25.649   3.113
41079W        W13504  35.534  32.374   3.296
41080W        W13505   8.737  28.109   1.336
41081W        W13506  11.144  18.058   1.244
41082W        W13507  41.493  31.854  11.055
41083W        W13508  34.132  20.529  13.589
41084W        W13509  38.653  31.127   0.397
41085W        W13510  29.838   1.406   1.635
41086W        W13511  43.239  12.555   5.018
41087W        W13512   8.707   1.201   3.007
41088W        W13513  18.273  27.038   2.421
41089W        W13514  39.082  42.536  12.491
41090W        W13515  16.855  42.388   0.261
41091W        W13516  13.551  15.599  12.511
41092W        W13517  15.615   3.183   0.669
41093W        W13518  31.461  12.292  11.278
41094W        W13519  23.598  32.543   2.177
41095W        W13520   6.310  23.335  14.032
41096W        W13521  24.142   6.907   0.850
41097W        W13522  26.196   3.684   0.405
41098W        W13523   7.256  10.721   1.856
41099W        W13524  40.487  27.195  10.364
41100W        W13525  40.397  30.894  11.559
41101W        W13526  44.395  15.954  11.827
41102W        W13527  27.859  23.744  12.519
41103W        W13528   1.297  12.215   4.041
41104W        W13529   5.802  42.404  14.202
41105W        W13530  10.647  31.479  13.323
41106W        W13531  15.228   3.891   0.194
41107W        W13532   3.746  37.499   3.632
41108W        W13533  42.230   3.393  13.388
41109W        W13534  16.306   2.371  10.520
41110W        W13535  24.498  38.466   2.662
41111W        W13536  12.890  15.138  12.482
41112W        W13537  15.591  26.823  14.125
41113W        W13538  42.379  41.959   0.086
41114W        W13539  18.688  41.029  14.271
41115W        W13540  39.022   6.776  10.121
41116W        W13541  32.004  40.864   0.303
41117W        W13542  11.587   9.757  14.009
41118W        W13543   7.731  20.171  11.585
41119W        W13544  10.723  13.391   2.650
41120W        W13545  20.774  20.296  10.719
41121W        W13546   5.140  35.005  13.987
41122W        W13547  17.294  23.483  14.790
41123W        W13548  44.949  35.875  12.934
41124W        W13549  26.019  12.726   4.189
41125W        W13550  28.673  34.683  14.429
41126W        W13551   4.697  37.547  11.382
41127W        W13552  32.075  38.280   4.005
41128W        W13553  16.898  14.766  11.521
41129W        W13554   2.339  15.922   2.016
41130W        W13555  31.191   4.793  12.667
41131W        W13556   5.692  20.921   4.744
41132W        W13557  26.375  10.414  10.562
41133W        W13558  26.727  39.847   0.213
41134W        W13559  27.047  35.183  10.699
41135W        W13560   0.006  20.458   2.700
41136W        W13561   7.672  32.684  12.267
41137W        W13562   9.488  18.309   3.706
41138W        W13563   5.797  15.822   1.649
41139W        W13564  26.657   4.377  12.921
41140W        W13565  44.827  11.135   3.140
41141W        W13566   2.725  34.173  13.000
41142W        W13567  37.479  41.082   0.283
41143W        W13568   1.532  44.321  14.744
41144W        W13569  34.659  28.714  11.102
41145W        W13570  10.869   2.267  12.450
41146W        W13571  25.606  40.598  13.049
41147W        W13572  17.513  21.676  14.489
41148W        W13573  21.614  26.114  14.883
41149W        W13574  14.920   8.187   0.176
41150W        W13575  25.096  16.913   4.787
41151W        W13576  18.653  10.797  10.632
41152W        W13577   9.650  27.902   2.241
41153W        W13578   6.255  39.572  14.618
41154W        W13579  41.516  17.853   3.682
41155W        W13580  38.270  25.216   2.847
41156W        W13581   4.515  20.119  11.172
41157W        W13582  40.434  43.000   3.278
41158W        W13583  37.869   5.838  11.428
41159W        W13584   8.804  34.392  13.510
41160W        W13585   7.194  37.461  11.995
41161W        W13586   3.554   7.977  12.211
41162W        W13587  20.478  12.047  10.954
41163W        W13588  24.402  16.397   4.497
41164W        W13589  15.693   1.007   1.055
41165W        W13590  22.652  24.001  11.733
41166W        W13591  39.606  30.118   0.718
41167W        W13592   2.982  14.590  13.826
41168W        W13593  23.620  21.781   3.712
41169W        W13594  12.352  17.297  11.615
41170W        W13595   9.630  19.207  13.780
41171W        W13596  19.624  44.378  10.866
41172W        W13597  16.858  44.304  11.382
41173W        W13598   5.892  39.557  11.187
41174W        W13599  39.069  38.582   2.407
41175W        W13600  12.692  23.778  11.682
41176W        W13601  13.051  24.642  10.178
41177W        W13602  24.574  42.638   2.336
41178W        W13603  29.242  23.524  12.084
41179W        W13604   1.850  27.038   4.435
41180W        W13605  28.360  10.444  14.484
41181W        W13606  36.355  21.752  11.113
41182W        W13607  42.866  14.039   1.338
41183W        W13608   9.211  38.527  13.035
41184W        W13609  39.327  41.686  11.073
41185W        W13610  16.916  38.377  11.501
41186W        W13611  39.039  20.222   0.359
41187W        W13612  16.618  14.114  12.106
41188W        W13613  30.829   9.203  10.586
41189W        W13614   3.699  21.663   2.661
41190W        W13615  37.923  36.213  14.078
41191W        W13616  26.626  30.964   4.884
41192W        W13617  39.956  15.276  14.361
41193W        W13618   9.809  20.472  10.966
41194W        W13619   3.787  38.859   1.707
41195W        W13620  40.594  36.301   0.485
41196W        W13621  29.369  44.952   3.659
41197W        W13622   2.879  20.754  14.076
41198W        W13623  22.081   8.791   4.637
41199W        W13624   3.414  26.465  10.821
41200W        W13625  11.350   0.496   3.989
41201W        W13626  22.027  41.979  13.043
41202W        W13627  16.349   7.301   4.168
41203W        W13628   4.177  18.939  12.895
41204W        W13629  21.551   7.823  12.832
41205W        W13630   6.348  37.061   4.501
41206W        W13631  41.624  39.070   2.833
41207W        W13632   2.719  26.433  13.409
41208W        W13633  23.706  25.258   1.243
41209W        W13634   4.910  18.045   1.809
41210W        W13635   3.956   0.471   4.465
41211W        W13636  43.547   3.807  11.334
41212W        W13637   7.914  38.503  11.566
41213W        W13638  35.403  13.174  11.086
41214W        W13639  22.738   4.535   2.306
41215W        W13640  32.315  38.725   4.828
41216W        W13641  42.985  43.126  11.262
41217W        W13642  22.521  41.201  13.129
41218W        W13643   0.042  20.239  14.437
41219W        W13644  25.668   5.511  10.663
41220W        W13645   7.430  26.156  13.937
41221W        W13646  34.452  15.860   1.718
41222W        W13647  25.888  16.852   2.851
41223W        W13648  34.320  44.415   3.194
41224W        W13649  43.445  28.216   2.304
41225W        W13650   6.745  10.760   3.815
41226W        W13651   3.702   8.398  12.493
41227W        W13652  43.886   5.121   2.381
41228W        W13653   0.093   1.421  10.769
41229W        W13654  15.701  11.885   3.101
41230W        W13655  33.604  11.673  11.602
41231W        W13656  26.051  29.909   4.162
41232W        W13657  36.557  25.758   4.624
41233W        W13658  21.698   3.539  12.471
41234W        W13659  14.850  13.201  13.038
41235W        W13660  35.976  31.174   2.907
41236W        W13661  44.408  20.196   2.205
41237W        W13662   1.927  14.893   0.410
41238W        W13663  43.974  14.327  13.846
41239W        W13664  44.513  35.435   0.570
41240W        W13665  37.588   6.833   1.196
41241W        W13666  26.615  18.872   0.440
41242W        W13667  13.606  28.010   3.416
41243W        W13668  12.646  26.128   3.845
41244W        W13669  32.079   9.942   3.557
41245W        W13670  27.644  25.609   0.923
41246W        W13671  18.799  37.032   4.608
41247W        W13672  20.515   7.194  14.910
41248W        W13673  43.972   5.753  14.981
41249W        W13674  24.890  24.980  11.783
41250W        W13675  30.705  37.335  10.731
41251W        W13676  30.864  24.122   4.095
41252W        W13677  13.293  14.748   3.287
41253W        W13678   1.513  21.753  14.520
41254W        W13679  44.744   1.265  12.086
41255W        W13680  22.451  21.610   2.738
41256W        W13681  19.710  16.098  12.597
41257W        W13682  12.692  21.985  13.806
41258W        W13683  24.375   2.923  10.684
41259W        W13684  29.059  43.013   3.294
41260W        W13685  35.922  22.087  14.717
41261W        W13686   1.471  18.385  13.087
41262W        W13687  20.625  14.346  12.175
41263W        W13688  17.107   8.773   0.795
41264W        W13689  36.498  40.364  11.038
41265W        W13690  18.025  13.163  13.454
41266W        W13691  31.993   6.576  11.510
41267W        W13692  41.321  19.164   1.205
41268W        W13693  26.708  42.446   4.151
41269W        W13694   2.485  21.638   3.170
41270W        W13695   6.362  30.958  11.596
41271W        W13696   5.974   1.765  10.318
41272W        W13697  19.629  34.957  11.601
41273W        W13698   8.838  16.512   3.639
41274W        W13699  43.220  12.447   0.936
41275W        W13700  32.956  27.050   1.718
41276W        W13701  36.352   8.130   0.916
41277W        W13702  29.581  27.045   0.231
41278W        W13703   3.012   7.915  11.289
41279W        W13704  28.505  30.931  11.615
41280W        W13705  34.651  41.010   2.706
41281W        W13706  18.351  13.348   3.312
41282W        W13707  27.098  41.308  13.469
41283W        W13708  36.993  36.865  13.464
41284W        W13709  28.437   3.782  12.408
41285W        W13710  11.431  22.628  10.658
41286W        W13711  21.798  19.305   4.388
41287W        W13712  23.684   1.322   4.567
41288W        W13713   3.889  27.231  11.652
41289W        W13714  28.418   8.339   2.751
41290W        W13715  37.944  30.015   2.160
41291W        W13716  27.062   9.279  12.520
41292W        W13717  22.521  28.155  11.091
41293W        W13718   4.493   6.143  14.403
41294W        W13719  43.065  36.119  12.170
41295W        W13720  25.297  23.043  11.607
41296W        W13721  28.983  23.542  13.025
41297W        W13722  22.707  22.496  11.210
41298W        W13723   6.604   2.413   2.184
41299W        W13724   4.197   4.833   2.844
41300W        W13725   4.992  28.099  12.412
41301W        W13726  38.688  10.427  13.323
41302W        W13727  17.794  41.529   2.259
41303W        W13728  26.376  28.973   1.292
41304W        W13729  34.856   3.844   4.159
41305W        W13730  14.040  22.064   2.190
41306W        W13731  13.367   0.947   0.603
41307W        W13732  37.809  13.287  12.485
41308W        W13733  21.270  12.185  14.386
41309W        W13734   2.952  16.630   4.578
41310W        W13735  14.255  36.940   1.528
41311W        W13736  43.190  25.005  10.718
41312W        W13737  30.571  41.601  10.980
41313W        W13738   9.533  42.894   2.005
41314W        W13739  19.306  27.659   1.238
41315W        W13740  24.788  10.803   3.779
41316W        W13741  34.519   5.085   0.346
41317W        W13742  26.455  44.950   1.472
41318W        W13743  44.299  38.844   0.369
41319W        W13744  38.611  42.033   4.187
41320W        W13745   1.529  38.590  13.633
41321W        W13746  40.513   2.797  12.534
41322W        W13747   0.629  35.416  11.960
41323W        W13748  27.195  37.003   1.686
41324W        W13749  30.776  42.589  11.546
41325W        W13750   9.258  16.226   3.445
41326W        W13751  34.687  27.143  12.455
41327W        W13752  10.220  22.527   0.838
41328W        W13753   2.039  43.234   3.872
41329W        W13754  44.569  26.436   2.862
41330W        W13755   3.439  23.977   4.156
41331W        W13756   3.763  40.771   3.668
41332W        W13757  29.624  29.400   0.297
41333W        W13758  33.468   5.497   1.734
41334W        W13759  29.029   8.413  11.394
41335W        W13760  25.428  20.990  12.881
41336W        W13761   6.764  31.534   5.152
41337W        W13762  25.638  34.353  13.115
41338W        W13763  12.368  40.377   1.856
41339W        W13764  15.952  44.999   5.029
41340W        W13765  35.581   5.221  11.326
41341W        W13766  17.309  17.289   3.137
41342W        W13767  29.614  41.870  11.670
41343W        W13768  43.328  37.434  12.952
41344W        W13769   7.570  28.678  12.152
41345W        W13770  15.389   9.133  14.942
41346W        W13771  29.125   1.861   4.899
41347W        W13772  36.804  39.576  12.518
41348W        W13773  44.546  19.164  10.537
41349W        W13774   7.577   7.429   1.781
41350W        W13775  16.152  21.043  12.376
41351W        W13776   2.660  24.321   1.417
41352W        W13777  35.699  29.358  11.575
41353W        W13778  10.108  30.531  12.945
41354W        W13779  43.335   0.868  14.197
41355W        W13780  34.490  28.022  13.444
41356W        W13781  42.834  20.739   2.656
41357W        W13782  36.505  11.779   4.007
41358W        W13783   8.583  26.947   5.412
41359W        W13784  27.867  28.657  13.591
41360W        W13785  28.713   1.873  13.915
41361W        W13786  40.581  42.345   2.720
41362W        W13787  40.405   2.488  13.373
41363W        W13788   8.006  28.814  10.458
41364W        W13789   3.703  42.454  12.911
41365W        W13790  34.761  36.509   4.665
41366W        W13791  20.156  16.225  12.828
41367W        W13792  15.601  12.973  11.794
41368W        W13793  29.330   0.087   1.125
41369W        W13794   4.897  42.958   1.739
41370W        W13795  26.414   9.168   0.341
41371W        W13796  19.980  17.154   2.648
41372W        W13797  27.128  21.568   3.182
41373W        W13798  15.096   4.960  11.049
41374W        W13799  18.054  37.923   4.250
41375W        W13800   7.365  19.119  14.900
41376W        W13801  39.380  20.826  10.099
41377W        W13802  17.713  18.687   3.993
41378W        W13803  43.747  16.161   4.574
41379W        W13804   2.613  32.999   3.331
41380W        W13805  24.074  18.209   4.101
41381W        W13806  39.905  20.119  13.525
41382W        W13807  43.473  43.463  10.591
41383W        W13808  42.820   3.678   0.709
41384W        W13809   1.158  35.056  11.161
41385W        W13810  25.096  27.929  12.065
41386W        W13811  37.834  43.750  14.371
41387W        W13812  31.995  14.009  11.523
41388W        W13813  40.978   1.271  12.089
41389W        W13814   8.837  12.167   0.528
41390W        W13815  19.649  38.784  10.987
41391W        W13816   1.866   9.951  11.967
41392W        W13817  36.712   2.820   4.827
41393W        W13818  25.928  23.567   1.200
41394W        W13819   9.777  28.833   2.303
41395W        W13820  37.817  44.894  14.319
41396W        W13821   8.342  16.433  11.093
41397W        W13822   4.097  25.184  11.040
41398W        W13823   3.676  23.008   2.283
41399W        W13824  38.509  13.242   2.126
41400W        W13825  37.435  12.167   1.474
41401W        W13826   5.927  28.843  14.263
41402W        W13827  44.287  10.397  11.711
41403W        W13828  23.260  12.036  13.358
41404W        W13829  13.069  20.831   2.272
41405W        W13830  35.184   3.423  10.836
41406W        W13831  26.678  28.151  11.500
41407W        W13832   5.641  14.053   1.517
41408W        W13833  31.577   4.149  11.944
41409W        W13834  19.238  23.132  14.304
41410W        W13835  42.315  23.981   4.113
41411W        W13836   7.681  21.243   4.112
41412W        W13837   0.089   4.985  11.532
41413W        W13838  14.604   3.251   4.552
41414W        W13839  40.907  14.445  14.737
41415W        W13840  44.939  42.281  13.097
41416W        W13841   2.930   0.755  11.895
41417W        W13842   9.620  21.020   4.069
41418W        W13843  20.471   5.310   3.289
41419W        W13844  31.647  15.561   3.323
41420W        W13845  15.711  42.101  10.564
41421W        W13846  16.989   0.390  12.851
41422W        W13847  13.740   4.736   0.878
41423W        W13848   8.325  31.646   1.331
41424W        W13849  43.959   5.059  10.712
41425W        W13850   3.364  19.986   2.855
41426W        W13851  13.685  10.670   1.478
41427W        W13852  17.684  14.640   2.403
41428W        W13853  34.944   5.342  12.985
41429W        W13854   5.998  43.022   4.946
41430W        W13855  24.140  21.954  10.688
41431W        W13856  17.385  42.703  11.253
41432W        W13857  37.710  43.230  12.136
41433W        W13858  38.429   7.439   1.917
41434W        W13859  27.323  41.810  10.705
41435W        W13860  21.905  28.816  14.056
41436W        W13861  42.784  31.123   2.525
41437W        W13862  31.798   5.068   2.341
41438W        W13863  21.293  10.143  12.446
41439W        W13864  16.559  39.662  12.542
41440W        W13865  12.717   4.459  14.448
41441W        W13866  25.684  41.790   3.222
41442W        W13867  12.849   6.043   1.349
41443W        W13868  22.769  32.096   1.317
41444W        W13869  17.099   4.395   3.856
41445W        W13870  44.220  42.860  14.642
41446W        W13871  17.199  43.505   4.884
41447W        W13872  43.409  21.317  12.331
41448W        W13873  27.564  34.935  11.012
41449W        W13874  44.498   6.801  11.517
41450W        W13875  34.640  30.182   0.885
41451W        W13876  26.642  42.304   3.239
41452W        W13877  20.489  16.156   1.178
41453W        W13878  22.486  12.193  13.350
41454W        W13879   6.805  20.734   2.769
41455W        W13880  40.868  38.065   2.267
41456W        W13881   7.058   9.887   4.584
41457W        W13882  43.477  24.944  13.806
41458W        W13883  32.489   9.854   3.879
41459W        W13884  16.608  37.908   2.022
41460W        W13885   5.780   1.817   3.244
41461W        W13886  44.287  11.320  14.350
41462W        W13887  37.267  25.505  10.676
41463W        W13888   4.689  14.538   1.969
41464W        W13889  41.922  12.309  10.427
41465W        W13890  29.099  30.199   4.682
41466W        W13891  32.470  42.314   1.226
41467W        W13892   3.175  35.850   0.822
41468W        W13893  40.771  11.152  11.500
41469W        W13894  40.556  39.828   1.222
41470W        W13895  10.715  16.520  13.807
41471W        W13896  41.909  10.060   1.753
41472W        W13897  22.598  43.315   1.439
41473W        W13898  36.613   9.285  13.360
41474W        W13899  44.232  37.354  13.886
41475W        W13900  24.218  27.696  10.705
41476W        W13901   3.737  36.359  14.540
41477W        W13902  34.611  30.807   3.166
41478W        W13903  19.094  44.259  12.141
41479W        W13904  35.541  43.800  12.891
41480W        W13905  27.038  28.011  11.116
41481W        W13906  40.149  42.711   4.350
41482W        W13907   5.501  26.713  10.800
41483W        W13908  28.368   3.943   4.698
41484W        W13909  36.109  20.632   4.654
41485W        W13910   4.126  27.111   1.309
41486W        W13911  36.790  33.517  12.218
41487W        W13912   3.471  38.689  12.494
41488W        W13913   2.329  33.325   0.100
41489W        W13914  40.092   9.825   4.060
41490W        W13915  44.933  26.464  11.651
41491W        W13916  41.356  18.678  12.966
41492W        W13917   0.788  27.345  14.355
41493W        W13918  10.445   1.729   4.275
41494W        W13919  37.644  22.698  13.615
41495W        W13920  10.770  21.221   1.728
41496W        W13921   9.896  23.118  12.379
41497W        W13922  30.007  15.328  14.476
41498W        W13923  38.659  14.355  12.081
41499W        W13924  42.037  21.900  13.369
41500W        W13925  12.336  33.422   4.348
41501W        W13926  18.268   0.803  11.539
41502W        W13927  19.126   4.858  11.137
41503W        W13928  36.328  42.933  14.896
41504W        W13929  13.121  39.486  13.706
41505W        W13930  33.638   7.419  13.811
41506W        W13931  23.820  17.242  14.094
41507W        W13932  38.845   9.246  12.526
41508W        W13933  19.476   5.508   3.309
41509W        W13934  29.364  18.007   2.705
41510W        W13935   2.816  21.749  10.985
41511W        W13936  41.765   8.103  11.630
41512W        W13937  41.682  13.148  13.470
41513W        W13938  15.844  10.182  11.576
41514W        W13939  11.347  21.639   4.246
41515W        W13940  42.065  13.228   3.143
41516W        W13941  13.532  34.005  14.367
41517W        W13942  25.653   1.907   4.954
41518W        W13943  24.665  16.560   4.027
41519W        W13944  41.711  15.206   3.268
41520W        W13945  20.852  28.654  12.024
41521W        W13946  31.408  30.434  14.664
41522W        W13947  41.819   9.905  12.455
41523W        W13948  43.230   1.504  12.034
41524W        W13949  43.873  15.716  14.485
41525W        W13950   4.731  12.416  12.101
41526W        W13951  19.886  40.812   3.662
41527W        W13952  23.594   5.668  11.390
41528W        W13953  16.147   1.276   4.562
41529W        W13954  24.719  11.691  13.977
41530W        W13955  15.509  32.927   4.557
41531W        W13956  34.703   1.650   4.673
41532W        W13957  26.979  26.098  11.510
41533W        W13958  41.414  24.168   0.648
41534W        W13959  25.465  21.726   1.356
41535W        W13960  17.690  11.718   1.251
41536W        W13961  16.900  11.371   4.190
41537W        W13962  30.879  21.118   2.598
41538W        W13963  18.613  43.258  11.483
41539W        W13964  35.959   5.517   3.716
41540W        W13965  30.321  11.769  12.200
41541W        W13966  11.861  12.269  13.389
41542W        W13967  37.925   4.589  11.467
41543W        W13968  24.076  33.011  14.310
41544W        W13969   6.850  16.070   4.083
41545W        W13970  17.405  44.216  12.782
41546W        W13971  19.063  12.257   3.846
41547W        W13972   9.125  23.178   4.123
41548W        W13973  24.059   7.845   0.521
41549W        W13974  40.963  28.523  12.071
41550W        W13975   9.380  18.307   2.742
41551W        W13976  13.264  32.100  13.414
41552W        W13977  27.674  41.509  13.395
41553W        W13978  44.933   1.911   2.263
41554W        W13979  40.822  43.427  14.078
41555W        W13980  42.289   5.166  11.159
41556W        W13981  26.157  40.350   4.020
41557W        W13982   8.116  37.128  11.055
41558W        W13983   7.699   8.273   0.338
41559W        W13984  31.440  13.561  14.685
41560W        W13985   8.908  38.189   1.023
41561W        W13986  20.974  26.072  13.073
41562W        W13987   3.457  38.334   1.733
41563W        W13988  39.410  26.437   1.543
41564W        W13989  41.471  23.669   1.483
41565W        W13990  37.957   4.739   2.338
41566W        W13991   8.693  25.406   2.600
41567W        W13992  31.871  38.079   3.578
41568W        W13993  44.482   5.804  13.317
41569W        W13994  38.831  32.405   0.881
41570W        W13995  41.379  20.497  14.573
41571W        W13996  40.513  30.157   0.474
41572W        W13997  38.894  34.873  12.011
41573W        W13998   8.250  27.064   0.781
41574W        W13999  32.551  23.754  11.587
41575W        W14000  21.203  28.990  11.267
41576W        W14001  28.760  29.023  12.029
41577W        W14002   2.121  23.148   0.163
41578W        W14003  41.463  28.478  10.507
41579W        W14004  38.943  18.975   1.906
41580W        W14005  41.550   4.716  13.950
41581W        W14006  13.559  36.491  11.567
41582W        W14007  34.964  14.411   3.252
41583W        W14008   5.689  30.515   2.302
41584W        W14009  38.773   3.265  13.081
41585W        W14010  44.542   5.402  13.011
41586W        W14011  36.934  17.138   4.556
41587W        W14012  26.709   2.468   5.082
41588W        W14013  27.685   6.213  10.745
41589W        W14014   0.458  28.107  12.914
41590W        W14015  25.118   7.456   3.257
41591W        W14016  11.207  19.521  11.412
41592W        W14017  28.221  12.117  12.510
41593W        W14018  44.141  24.306  14.857
41594W        W14019  23.236  29.106   0.828
41595W        W14020  19.267  32.761  11.491
41596W        W14021   9.742  36.519   0.384
41597W        W14022   6.867  12.398   1.423
41598W        W14023   1.993  14.937   1.244
41599W        W14024  27.234   2.888  10.645
41600W        W14025  44.396  17.871   4.296
41601W        W14026   6.501   2.983  13.451
41602W        W14027   8.159  18.046  12.350
41603W        W14028  31.152  15.677   3.178
41604W        W14029   6.464  18.199  13.919
41605W        W14030  38.250  26.466   2.321
41606W        W14031  11.064  31.584  14.853
41607W        W14032  36.903  32.394   1.843
41608W        W14033  22.081  16.222  14.504
41609W        W14034  13.239   6.641  14.757
41610W        W14035  36.689  37.121   2.190
41611W        W14036  33.212  15.655  14.049
41612W        W14037  33.035  34.929  13.713
41613W        W14038  20.178  37.616   1.262
41614W        W14039  41.131  16.666   4.330
41615W        W14040  44.349  20.176   3.640
41616W        W14041  34.338  32.950   1.269
41617W        W14042  30.542   1.434  12.576
41618W        W14043   4.310  11.792  12.466
41619W        W14044  22.406  20.171  10.450
41620W        W14045  32.305  39.544  14.884
41621W        W14046  35.034   4.387   2.598
41622W        W14047  19.788  28.124   2.539
41623W        W14048  28.080  11.707  13.782
41624W        W14049   6.811  12.600   3.995
41625W        W14050  24.741  26.947  12.331
41626W        W14051  36.556  40.897  12.457
41627W        W14052  40.844  20.394   1.365
41628W        W14053   3.827  13.046   1.957
41629W        W14054  28.504  15.632  13.949
41630W        W14055  31.676  36.320   4.523
41631W        W14056   0.283  31.462   1.463
41632W        W14057  34.434  39.413  11.582
41633W        W14058   7.681  27.127   4.110
41634W        W14059  39.808  38.866  14.980
41635W        W14060  12.512  44.006   2.174
41636W        W14061  16.271  17.521   1.290
41637W        W14062   5.953  20.619   0.426
41638W        W14063   8.036  41.616  11.757
41639W        W14064  12.279  44.314   3.074
41640W        W14065  24.489   6.619  11.318
41641W        W14066   2.919  18.212  12.015
41642W        W14067  31.712  17.295  11.082
41643W        W14068  32.489  40.959   4.964
41644W        W14069   8.344  30.963   3.214
41645W        W14070  30.461  16.119   3.130
41646W        W14071   7.874  44.495  12.694
41647W        W14072  39.231   0.381   4.989
41648W        W14073  14.943  17.926  10.868
41649W        W14074   1.891  24.167  14.364
41650W        W14075  14.303  23.232  12.736
41651W        W14076  22.210  20.423  13.422
41652W        W14077  39.365   8.464   1.737
41653W        W14078   7.593  22.485   0.106
41654W        W14079  12.393  25.220   2.406
41655W        W14080  35.710  37.439   3.565
41656W        W14081  25.078  19.481   4.170
41657W        W14082   1.732  29.485   0.069
41658W        W14083  42.048  29.105   9.980
41659W        W14084   9.309  19.771  11.531
41660W        W14085  43.122  15.115  12.045
41661W        W14086  23.096  43.967   1.338
41662W        W14087  11.195  13.113   0.494
41663W        W14088  23.073   6.596   0.319
41664W        W14089  31.170   4.419   3.248
41665W        W14090   8.440  36.363   1.502
41666W        W14091  36.256  40.490   2.337
41667W        W14092   7.483  21.106   4.586
41668W        W14093  41.559  16.852  12.342
41669W        W14094   3.867   9.808   0.424
41670W        W14095  21.540  21.620   4.568
41671W        W14096  41.572   4.421   4.392
41672W        W14097   8.670  29.130  13.208
41673W        W14098   3.327  31.443   0.330
41674W        W14099  13.390   2.425   1.277
41675W        W14100  17.698  19.123   4.610
41676W        W14101  32.130  17.600  13.379
41677W        W14102  18.486  42.379   2.341
41678W        W14103  30.475   6.014   1.243
41679W        W14104  17.505  28.371  11.023
41680W        W14105  40.222  43.270   0.934
41681W        W14106  25.714  17.632   3.404
41682W        W14107  40.346   2.570   2.520
41683W        W14108  38.956   6.768   0.079
41684W        W14109  29.936  31.344  14.091
41685W        W14110  26.727  36.072  12.765
41686W        W14111  13.714  23.195  14.148
41687W        W14112  42.663  18.788  11.532
41688W        W14113  38.441  44.627  12.982
41689W        W14114   0.410  14.621  11.805
41690W        W14115  38.544   3.230   4.762
41691W        W14116  29.820  33.327  14.275
41692W        W14117  30.918   7.321   2.052
41693W        W14118  37.552  41.326   0.744
41694W        W14119  28.917  13.592  14.835
41695W        W14120  30.204  39.334  13.205
41696W        W14121   7.591  35.879  11.479
41697W        W14122  40.826   7.285  14.930
41698W        W14123   9.924  14.824   5.040
41699W        W14124  14.629   4.894   9.762
41700W        W14125  42.357   0.926  13.852
41701W        W14126  24.962  14.086  11.292
41702W        W14127  20.525   4.711   0.204
41703W        W14128  34.971  42.824   2.210
41704W        W14129   2.682   0.559  11.099
41705W        W14130  30.032  25.596   4.101
41706W        W14131  26.439  20.600  10.707
41707W        W14132   0.843  29.134   3.228
41708W        W14133  15.301  37.894  14.510
41709W        W14134  28.490   7.331  13.797
41710W        W14135   8.766  37.068  12.650
41711W        W14136  30.220  25.207   2.146
41712W        W14137  23.549  31.556   4.790
41713W        W14138   7.392  16.029  13.425
41714W        W14139  12.122  37.495  10.679
41715W        W14140  14.275  11.265  13.985
41716W        W14141   0.458  12.643   1.987
41717W        W14142  17.281  43.156   3.867
41718W        W14143  14.341  18.646   4.632
41719W        W14144  27.277  12.062   0.767
41720W        W14145  13.158  33.298   0.469
41721W        W14146  36.300   2.022   9.914
41722W        W14147  35.440  41.494  14.723
41723W        W14148  39.637  33.919  12.463
41724W        W14149  38.337  44.342   2.648
41725W        W14150   9.186  12.086  10.512
41726W        W14151   7.992   1.152   2.958
41727W        W14152  17.323  19.851   1.831
41728W        W14153  39.613  13.982   2.277
41729W        W14154  37.175   6.972  10.801
41730W        W14155  19.116  43.186  11.688
41731W        W14156   0.194  11.984  12.948
41732W        W14157  20.775  35.586  10.599
41733W        W14158  10.542  37.486   3.748
41734W        W14159   2.531  38.780   0.646
41735W        W14160  34.920   2.714  13.480
41736W        W14161   0.948  11.995   1.942
41737W        W14162   1.165   1.258   3.014
41738W        W14163  39.625  29.816  13.354
41739W        W14164  11.195   5.653  12.806
41740W        W14165  37.967  40.023  14.086
41741W        W14166  39.760  14.912   4.169
41742W        W14167  42.402   1.666  14.906
41743W        W14168  13.922  16.322  11.079
41744W        W14169   6.247  34.601   4.262
41745W        W14170  10.212  16.771   3.434
41746W        W14171  30.532  26.844   3.902
41747W        W14172  34.345  15.191  14.471
41748W        W14173  21.607  36.456  13.129
41749W        W14174  26.187  26.233  13.828
41750W        W14175  13.685  19.738  13.093
41751W        W14176  28.829  19.092   0.945
41752W        W14177  36.454  20.223  13.584
41753W        W14178   0.919  28.593  13.466
41754W        W14179  15.399  33.874  11.071
41755W        W14180  31.604  34.068  10.665
41756W        W14181  20.760  43.405  13.881
41757W        W14182  26.937  43.953   3.308
41758W        W14183  41.450  23.607  13.076
41759W        W14184   6.026   4.744  11.056
41760W        W14185  28.621  32.895   0.714
41761W        W14186  42.501  11.322  13.977
41762W        W14187   6.726  44.729  12.983
41763W        W14188  25.655  38.324   2.816
41764W        W14189  21.847   7.227   5.083
41765W        W14190  12.579  33.941   4.340
41766W        W14191   6.975  31.641  10.656
41767W        W14192  21.564   1.477   3.229
41768W        W14193  36.380  13.065  14.939
41769W        W14194  36.070   1.125  14.803
41770W        W14195   2.705  16.741  11.058
41771W        W14196  23.432  28.862  11.628
41772W        W14197   6.795  27.455  13.094
41773W        W14198  22.233  16.279   1.770
41774W        W14199  30.630  34.349  11.910
41775W        W14200  38.131  40.300   3.884
41776W        W14201  34.524   3.730   1.260
41777W        W14202  15.505   5.895  12.533
41778W        W14203   4.214  42.548   0.949
41779W        W14204  25.263  10.712   0.688
41780W        W14205  22.709   1.683   1.860
41781W        W14206  39.530  19.359  10.850
41782W        W14207   1.499   5.807   0.481
41783W        W14208  43.494   6.456  12.305
41784W        W14209  16.335  37.827   0.273
41785W        W14210  26.271   2.752  12.459
41786W        W14211  39.523  34.069  10.352
41787W        W14212  22.611  26.672   3.141
41788W        W14213  14.324  33.629  11.714
41789W        W14214  44.949   2.340   3.933
41790W        W14215  39.279  15.219   3.607
41791W        W14216  30.689  23.140  10.761
41792W        W14217  18.139  13.501  13.874
41793W        W14218  22.244  16.264   2.664
41794W        W14219  15.644  17.589   2.583
41795W        W14220  20.451  36.483   0.909
41796W        W14221  18.070  28.795  13.887
41797W        W14222  43.823   0.880  14.325
41798W        W14223  16.860   7.485   4.147
41799W        W14224  11.547  28.093   5.051
41800W        W14225  16.522  16.824  14.059
41801W        W14226  23.146  31.305   3.286
41802W        W14227   6.701  26.744   0.937
41803W        W14228   9.213   5.706  13.411
41804W        W14229  27.113  25.275   2.293
41805W        W14230  31.347  38.491  14.337
41806W        W14231  22.534   5.624  14.305
41807W        W14232  44.562  27.162  12.450
41808W        W14233  17.056   9.669   0.776
41809W        W14234  10.929   6.179   1.039
41810W        W14235  20.703  24.548   1.283
41811W        W14236   8.959   3.442  11.951
41812W        W14237   2.356  34.040   4.338
41813W        W14238  39.712  32.626  12.960
41814W        W14239  29.011  32.438   4.634
41815W        W14240  15.627  27.020   4.613
41816W        W14241   9.021  10.402  10.935
41817W        W14242   7.964  25.575   3.246
41818W        W14243  40.796  23.260  12.543
41819W        W14244  23.599  35.743  13.749
41820W        W14245  33.395  20.089   4.500
41821W        W14246   9.149  25.087   4.656
41822W        W14247  23.740  32.774   0.271
41823W        W14248   5.882   2.805   1.324
41824W        W14249  38.347  17.202  11.847
41825W        W14250  23.725  11.633  12.534
41826W        W14251  17.319  19.962   2.698
41827W        W14252  17.192   8.367   3.837
41828W        W14253   6.628  34.784  14.344
41829W        W14254  44.428  44.793   1.938
41830W        W14255  36.572  25.307  10.042
41831W        W14256   0.974  33.908   1.329
41832W        W14257  14.636  36.161  14.748
41833W        W14258  33.600   2.757  11.124
41834W        W14259   7.417  14.320  12.900
41835W        W14260  24.042  11.819   2.867
41836W        W14261  27.387   7.910   3.997
41837W        W14262  19.736  30.609   9.966
41838W        W14263  22.435  16.936  13.099
41839W        W14264  37.730  16.598  13.992
41840W        W14265  33.870   0.031  14.240
41841W        W14266   3.078  24.714  10.978
41842W        W14267  44.877  26.137   3.919
41843W        W14268  30.981  37.029   3.184
41844W        W14269  16.238  11.569   1.725
41845W        W14270  14.166  13.607   1.391
41846W        W14271  32.808   2.978   3.387
41847W        W14272  30.320  24.240  11.924
41848W        W14273   4.882  23.749  13.480
41849W        W14274  18.026  26.747   1.834
41850W        W14275  10.716  44.605   2.212
41851W        W14276  34.165   4.225  13.968
41852W        W14277  29.420  35.963   0.892
41853W        W14278  11.681  19.508   0.398
41854W        W14279  21.807  39.011  13.103
41855W        W14280  21.861  22.464  10.228
41856W        W14281   2.731  11.678   1.836
41857W        W14282  35.446  23.002  10.743
41858W        W14283  28.698  29.874  13.285
41859W        W14284  18.594   1.253   4.496
41860W        W14285  12.865  29.994   3.404
41861W        W14286  13.641  29.889  14.908
41862W        W14287  44.804  19.110  12.140
41863W        W14288   0.066  22.359  11.882
41864W        W14289  38.587   1.730   0.687
41865W        W14290   0.276   9.446   1.904
41866W        W14291  18.453  39.441   0.641
41867W        W14292  35.974  42.969   0.298
41868W        W14293  44.914   9.644  14.324
41869W        W14294  14.926   4.346  14.532
41870W        W14295   3.403  18.078  11.037
41871W        W14296  28.266   2.514   5.017
41872W        W14297  33.641   6.664   0.936
41873W        W14298  27.148   5.989  13.342
41874W        W14299  15.545  28.425  12.464
41875W        W14300  25.458  39.844  14.541
41876W        W14301  17.564   3.873  12.049
41877W        W14302  12.744  17.286  13.570
41878W        W14303  24.078   3.714   4.782
41879W        W14304  44.245   4.471  13.267
41880W        W14305  25.164  18.158   0.873
41881W        W14306  13.960  25.143  14.819
41882W        W14307  32.926  22.623   3.536
41883W        W14308  35.395   3.004  13.574
41884W        W14309  15.651   9.340  13.954
41885W        W14310  14.238  41.519  14.563
41886W        W14311  10.775  18.126  13.007
41887W        W14312  42.441  14.809  12.503
41888W        W14313  35.812   9.292  12.832
41889W        W14314  10.351  44.233  13.482
41890W        W14315  44.442  12.864   0.584
41891W        W14316  35.354  33.197  14.783
41892W        W14317  44.865  38.167  12.060
41893W        W14318  31.154  10.839  14.943
41894W        W14319  23.674  29.511  12.594
41895W        W14320   9.769   7.928   5.241
41896W        W14321  32.857  20.064  13.775
41897W        W14322  35.810  31.349   0.299
41898W        W14323  30.077  18.904  10.714
41899W        W14324  16.677  36.692   3.818
41900W        W14325   8.182  43.246   4.920
41901W        W14326  17.722  17.285   4.684
41902W        W14327  16.526  14.623  14.929
41903W        W14328  38.139  27.170  14.302
41904W        W14329  34.709   9.398  14.687
41905W        W14330  40.335   2.232  14.120
41906W        W14331  16.625  44.529   2.685
41907W        W14332  12.294  24.647   4.492
41908W        W14333  41.779  14.616   0.761
41909W        W14334  35.857  27.608   3.037
41910W        W14335  34.586  41.029  14.805
41911W        W14336  17.990  33.150   5.005
41912W        W14337  30.518   0.649  14.045
41913W        W14338  40.254  41.589   1.411
41914W        W14339  39.115   9.152  11.593
41915W        W14340  33.524  19.692   3.722
41916W        W14341  30.376   4.779   1.273
41917W        W14342  25.906   5.155   0.289
41918W        W14343   6.513  44.943  14.436
41919W        W14344  39.472  39.078   0.306
41920W        W14345  21.854  35.099  12.004
41921W        W14346  26.369   8.783   4.203
41922W        W14347  12.349  26.008  12.075
41923W        W14348   5.482   5.710  10.563
41924W        W14349  41.325   6.157  12.552
41925W        W14350  21.140  29.736   4.542
41926W        W14351  24.790  14.198   4.139
41927W        W14352   0.416  23.665  12.510
41928W        W14353  19.040  32.465  10.613
41929W        W14354  38.844  14.886   3.265
41930W        W14355  14.055  20.273   3.157
41931W        W14356  21.022  13.649   0.959
41932W        W14357  13.094  19.916   3.432
41933W        W14358  17.817   4.880  14.846
41934W        W14359   6.387   2.774  12.110
41935W        W14360  30.876  38.872   3.599
41936W        W14361  15.489   5.401   4.153
41937W        W14362  42.996  11.895   2.738
41938W        W14363  17.200  18.063  13.426
41939W        W14364  13.163  22.503   2.698
41940W        W14365  25.444  38.904  11.602
41941W        W14366  43.769   3.491  10.532
41942W        W14367  26.580   1.273  11.643
41943W        W14368  44.931   4.694   4.245
41944W        W14369  35.874  32.411  12.928
41945W        W14370  42.306  17.563  12.036
41946W        W14371   1.041  19.090   3.141
41947W        W14372  21.527  15.382   1.029
41948W        W14373  35.323  35.353  11.013
41949W        W14374   9.307  30.023  14.308
41950W        W14375  39.564  32.067  12.502
41951W        W14376  16.878  32.721   3.801
41952W        W14377  44.907  37.107   4.160
41953W        W14378  24.985  27.753   3.693
41954W        W14379   8.227   6.384   2.110
41955W        W14380   5.669   1.697  14.414
41956W        W14381  39.794   6.700  12.117
41957W        W14382  16.632  13.234  14.720
41958W        W14383  28.249  30.157   1.854
41959W        W14384   1.860   4.890   1.206
41960W        W14385  41.479  30.672  13.030
41961W        W14386  10.780  35.113   3.894
41962W        W14387  19.165  31.455   2.334
41963W        W14388  44.565  36.173  13.099
41964W        W14389  17.776  32.022  11.875
41965W        W14390  25.446  37.059  11.569
41966W        W14391  43.421  14.284  14.109
41967W        W14392  22.679   4.230  13.949
41968W        W14393   8.679  12.553  14.323
41969W        W14394  40.315  37.575  14.933
41970W        W14395   2.142  39.424   3.981
41971W        W14396  23.601  26.039   4.631
41972W        W14397  25.552  20.212  13.756
41973W        W14398   0.436  16.794   2.235
41974W        W14399  19.005  32.403   2.419
41975W        W14400   6.646  30.292  12.927
41976W        W14401  15.992  18.203  14.119
41977W        W14402  19.270  31.413   0.853
41978W        W14403  44.786  33.455   1.269
41979W        W14404  42.255  40.402  10.683
41980W        W14405  30.526  39.012   2.377
41981W        W14406  17.164  37.611   1.861
41982W        W14407  41.876  20.698   3.770
41983W        W14408   6.133  33.933  14.872
41984W        W14409  31.323  11.629  12.881
41985W        W14410   0.781  34.512  10.454
41986W        W14411  12.952  36.146  14.004
41987W        W14412  23.123  20.294  13.825
41988W        W14413  28.134  17.080   2.771
41989W        W14414  28.995  33.497   3.652
41990W        W14415   2.733  33.404   0.416
41991W        W14416  39.988  43.313  10.708
41992W        W14417   8.892  27.578   2.682
41993W        W14418  29.325  28.963  14.361
41994W        W14419  22.195  23.506  11.145
41995W        W14420  14.283  33.623   0.119
41996W        W14421  18.531  18.152  10.662
41997W        W14422  15.535  23.649  12.011
41998W        W14423  10.784   7.284   2.078
41999W        W14424   6.687  41.381  10.526
42000W        W14425  22.039  34.511   2.594
42001W        W14426  42.609  24.995   3.175
42002W        W14427  11.610   6.663  11.418
42003W        W14428   9.882  35.117   0.042
42004W        W14429  34.078  17.114   0.551
42005W        W14430   3.128  17.216  11.513
42006W        W14431  34.929  29.003  12.103
42007W        W14432  20.667  35.496   4.645
42008W        W14433  38.016  31.123  14.040
42009W        W14434  43.881  23.810   1.853
42010W        W14435  37.851  22.816   9.793
42011W        W14436  28.214  28.259   4.073
42012W        W14437  25.655  33.586  12.620
42013W        W14438  43.112   3.891  11.580
42014W        W14439  37.993   5.367  13.754
42015W        W14440  13.078  38.164   3.673
42016W        W14441  11.640   5.885  13.443
42017W        W14442   4.956  26.057   3.168
42018W        W14443  43.404  19.698   1.830
42019W        W14444  35.243  34.183   0.035
42020W        W14445  10.383   1.830  12.464
42021W        W14446  40.846  27.478   2.747
42022W        W14447  26.501  43.766  14.880
42023W        W14448  38.176   1.758   2.180
42024W        W14449   6.682   3.730   1.269
42025W        W14450  33.042  30.558   0.307
42026W        W14451  23.631   2.320   0.397
42027W        W14452  37.443  10.954   0.827
42028W        W14453  41.891  32.894  12.897
42029W        W14454   9.811   8.805  12.537
42030W        W14455  13.692  15.593  11.568
42031W        W14456   1.272   3.801  10.963
42032W        W14457  44.906   6.329  14.940
42033W        W14458  16.183  41.841   3.222
42034W        W14459  39.085  35.128   4.091
42035W        W14460  30.036  17.645  14.521
42036W        W14461  39.559  36.049  13.475
42037W        W14462  40.025  12.771  13.318
42038W        W14463   6.786  39.938   1.212
42039W        W14464  29.880  44.997   4.833
42040W        W14465  40.306  17.108  10.480
42041W        W14466  28.566   7.976  12.446
42042W        W14467  32.215   7.869   4.103
42043W        W14468  41.522  44.409  13.872
42044W        W14469  23.342  38.518  11.057
42045W        W14470  28.978   3.719  11.618
42046W        W14471  12.161  15.541  14.947
42047W        W14472  42.581   9.288   2.235
42048W        W14473  19.636   9.250   2.673
42049W        W14474  18.787  25.170   4.614
42050W        W14475  27.730   7.893   0.320
42051W        W14476  33.105   1.983  13.944
42052W        W14477  31.006  20.210   3.323
42053W        W14478   5.253  29.945  13.391
42054W        W14479  41.543  39.554   1.713
42055W        W14480  41.955  26.956  13.024
42056W        W14481  29.140  24.220  13.506
42057W        W14482  11.321   8.188  13.409
42058W        W14483  13.132   4.768   2.044
42059W        W14484  35.474  24.768   0.835
42060W        W14485  10.637   0.462   1.259
42061W        W14486  22.646  16.300  12.501
42062W        W14487  12.726  20.260  12.449
42063W        W14488   1.306   4.327   0.264
42064W        W14489  43.336  14.959  13.330
42065W        W14490   4.947   3.363   4.218
42066W        W14491  14.317  34.162  13.300
42067W        W14492  37.043  13.074  14.281
42068W        W14493   5.187  21.522   4.721
42069W        W14494  36.422  35.827  12.869
42070W        W14495  39.649   4.860  10.789
42071W        W14496   8.704  16.827   5.082
42072W        W14497  12.784  20.119  14.949
42073W        W14498   4.835   2.394   3.184
42074W        W14499  25.538  17.182  10.791
42075W        W14500  36.927  17.617   3.588
42076W        W14501  44.574  30.503  12.880
42077W        W14502  24.643  37.393  10.670
42078W        W14503   4.010  35.961   1.062
42079W        W14504  17.777  23.979  10.664
42080W        W14505  27.256   4.059  11.179
42081W        W14506  37.628   4.220   3.105
42082W        W14507   3.001  28.071   1.731
42083W        W14508  28.960  16.269  12.881
42084W        W14509  20.764   0.434  12.406
42085W        W14510  41.931  31.144  12.440
42086W        W14511  44.622  34.137  13.563
42087W        W14512   3.905  16.336  11.387
42088W        W14513  40.748  16.064   1.277
42089W        W14514   1.205  21.716   2.805
42090W        W14515  30.642  30.101   3.569
42091W        W14516  40.775   5.996  13.551
42092W        W14517  38.103   4.259   3.276
42093W        W14518  43.014  41.569  11.927
42094W        W14519  11.819  26.133  12.039
42095W        W14520   5.759  39.041   2.192
42096W        W14521  16.104  11.867  10.915
42097W        W14522  35.445  21.887  13.776
42098W        W14523   4.997   9.598   2.533
42099W        W14524  39.202  32.884   2.085
42100W        W14525  39.647  40.322  14.386
42101W        W14526  30.525  39.522  14.566
42102W        W14527  40.388  42.254  12.443
42103W        W14528  31.978  11.224  12.538
42104W        W14529  28.921  34.638   4.412
42105W        W14530  23.857  14.789   2.256
42106W        W14531  19.783  41.362   2.946
42107W        W14532  14.664  10.982  12.204
42108W        W14533  24.923  29.843   1.760
42109W        W14534  18.619  41.819   4.041
42110W        W14535   3.191   0.519  12.348
42111W        W14536  27.422   8.197   3.554
42112W        W14537  23.183   4.200   1.457
42113W        W14538   3.952  35.600  11.498
42114W        W14539  33.307  36.504   4.647
42115W        W14540  29.870  37.544   4.071
42116W        W14541  37.546  12.654   1.303
42117W        W14542  30.398  38.009  13.734
42118W        W14543   0.308  18.715   3.532
42119W        W14544  12.864  33.883   2.263
42120W        W14545  33.151  36.970  13.114
42121W        W14546  32.132  26.650   1.815
42122W        W14547   1.030  38.601   3.195
42123W        W14548  36.178   6.837   4.836
42124W        W14549  28.048  23.469  11.112
42125W        W14550  40.414   1.325  14.637
42126W        W14551  27.499  10.713  14.231
42127W        W14552   8.340  42.744   0.801
42128W        W14553  40.985  38.083  14.475
42129W        W14554   6.899  19.281  12.129
42130W        W14555  17.660  15.195   4.213
42131W        W14556  24.603  20.217   1.785
42132W        W14557   4.860  27.925   3.809
42133W        W14558  35.883  37.770   0.017
42134W        W14559  39.274  15.883  12.054
42135W        W14560  38.282   7.983   3.635
42136W        W14561  21.574  25.940  11.181
42137W        W14562  32.462  44.367  13.560
42138W        W14563  37.060   2.463   2.158
42139W        W14564   6.313  10.727   1.751
42140W        W14565  23.691   6.143  11.239
42141W        W14566  43.796  25.343   3.725
42142W        W14567  13.051  41.929  11.540
42143W        W14568  20.766  28.378   2.708
42144W        W14569  36.724  22.048   1.255
42145W        W14570  27.969  21.237  10.400
42146W        W14571  17.289  21.278  14.196
42147W        W14572  42.236  20.146   1.433
42148W        W14573   9.271   0.460  10.605
42149W        W14574  27.876  44.552  10.490
42150W        W14575  21.713  29.819   3.732
42151W        W14576  22.641  43.276   4.409
42152W        W14577  15.279  39.967  14.429
42153W        W14578  33.016  14.633  12.695
42154W        W14579   3.989  16.667   0.972
42155W        W14580  16.603  22.839  13.517
42156W        W14581   6.023  37.395  12.917
42157W        W14582  22.310   3.387   3.741
42158W        W14583  29.353  21.584   4.054
42159W        W14584  31.099  44.273   0.754
42160W        W14585  23.788  22.209  11.420
42161W        W14586   5.720  12.583  12.914
42162W        W14587  23.591  33.602   1.404
42163W        W14588  23.296  31.612   2.623
42164W        W14589   0.466   0.509   3.183
42165W        W14590  22.895  43.018   4.999
42166W        W14591  30.483   5.755  10.611
42167W        W14592  20.105  14.002  13.342
42168W        W14593  41.893  34.862  14.736
42169W        W14594  33.020  22.697   4.554
42170W        W14595  38.971  27.057   0.440
42171W        W14596  34.988  17.417  13.979
42172W        W14597  10.282  23.515  10.706
42173W        W14598  26.169  41.762  10.721
42174W        W14599   0.957  44.441   3.744
42175W        W14600   8.990  25.729   1.738
42176W        W14601   1.435  38.778   4.581
42177W        W14602   7.552  35.110   5.427
42178W        W14603   0.433  29.946  13.106
42179W        W14604  26.685   1.396   3.671
42180W        W14605  27.018  27.733  13.225
42181W        W14606  17.329  23.246  11.625
42182W        W14607   0.087  39.696  11.989
42183W        W14608   0.529  12.148  10.809
42184W        W14609  24.946  13.423  13.386
42185W        W14610  11.552  23.178  12.542
42186W        W14611  43.217  34.598  11.633
42187W        W14612  40.991  10.473   0.868
42188W        W14613   0.760  19.385  14.339
42189W        W14614  39.793  32.915   2.162
42190W        W14615  32.640  38.054  12.633
42191W        W14616  18.362  22.281   0.425
42192W        W14617  30.808  23.607  10.565
42193W        W14618   6.963   6.759   0.267
42194W        W14619  18.311   3.895  11.539
42195W        W14620   0.960  20.504   1.000
42196W        W14621   9.380   9.609  14.472
42197W        W14622  26.872  44.319  14.082
42198W        W14623   1.616  21.105  11.142
42199W        W14624  12.654  17.011   0.926
42200W        W14625  19.960  20.337  11.059
42201W        W14626  35.354   9.037   1.766
42202W        W14627  13.167  14.654  10.691
42203W        W14628  15.132   4.455   1.010
42204W        W14629   6.392  11.583  13.511
42205W        W14630  15.837  42.357  13.952
42206W        W14631  44.960  24.775  13.915
42207W        W14632   0.899  43.473   2.776
42208W        W14633  32.006  14.850   0.314
42209W        W14634  19.495  41.930   4.295
42210W        W14635  29.949  28.375   4.393
42211W        W14636  27.570  13.101  11.501
42212W        W14637  33.555  34.651  13.084
42213W        W14638  14.161  12.625   1.325
42214W        W14639   6.258  30.993   4.397
42215W        W14640   2.307  20.785   3.747
42216W        W14641  16.192  42.340   2.000
42217W        W14642  40.872  20.251   2.329
42218W        W14643  18.666  11.629   2.187
42219W        W14644   9.169  11.932  13.947
42220W        W14645   3.807  12.278   4.657
42221W        W14646  21.216   2.423   0.379
42222W        W14647   1.760  19.634  14.443
42223W        W14648  19.634  32.540   5.480
42224W        W14649   3.502  33.778   3.314
42225W        W14650  18.027   5.162   3.560
42226W        W14651   1.320  10.212  14.055
42227W        W14652   7.455   4.747   3.056
42228W        W14653  32.147  42.113   3.741
42229W        W14654  24.225   6.268  12.013
42230W        W14655  12.312   6.517  13.926
42231W        W14656   7.297  23.935   1.691
42232W        W14657  30.517  27.524   3.133
42233W        W14658  38.631  40.904   2.175
42234W        W14659  11.693   4.037  12.003
42235W        W14660  10.679  43.357   1.295
42236W        W14661   9.326  36.442   0.976
42237W        W14662  29.504  22.555  13.828
42238W        W14663  26.618   1.025  13.928
42239W        W14664  11.121  34.366   0.181
42240W        W14665  34.075  43.872  13.495
42241W        W14666  10.382  19.736   4.244
42242W        W14667   0.951  13.830  11.971
42243W        W14668  43.274   0.981   2.161
42244W        W14669  44.876   2.829  12.076
42245W        W14670  33.608  13.544   2.625
42246W        W14671  44.347  10.724  10.537
42247W        W14672  41.355  37.427  12.905
42248W        W14673  11.790  28.445  10.970
42249W        W14674  17.236  12.182  12.356
42250W        W14675  42.462  29.881   2.002
42251W        W14676  36.677  32.898  13.780
42252W        W14677  33.695  34.750  14.276
42253W        W14678  10.288  18.465  11.650
42254W        W14679  23.996  22.437   0.022
42255W        W14680   3.378  26.973  14.883
42256W        W14681  37.431  37.866   0.843
42257W        W14682  42.937   2.589   2.665
42258W        W14683   6.462  43.931  11.946
42259W        W14684   3.452  23.006   4.669
42260W        W14685  43.040  29.884  13.794
42261W        W14686   0.871   2.662  12.343
42262W        W14687  13.222  12.196  12.838
42263W        W14688  15.987  30.642   3.816
42264W        W14689  42.721   2.282   0.881
42265W        W14690  19.661  19.216   3.024
42266W        W14691  44.628  36.376   2.404
42267W        W14692  29.307  18.042  13.558
42268W        W14693  15.452  35.472   4.912
42269W        W14694  39.398  43.440   1.354
42270W        W14695  33.180  31.121   3.396
42271W        W14696  32.514  12.050  14.272
42272W        W14697   4.296   7.202   3.019
42273W        W14698  40.967  22.450  13.402
42274W        W14699   9.572  39.991  12.977
42275W        W14700  43.073   9.793   4.107
42276W        W14701   8.160   8.914  13.957
42277W        W14702   4.003  16.850  11.548
42278W        W14703  20.588  15.716   2.861
42279W        W14704  26.662  25.512  12.082
42280W        W14705  31.611  20.508  13.659
42281W        W14706  41.254  11.267   2.349
42282W        W14707  12.394  42.994   2.016
42283W        W14708  37.937  22.647  13.162
42284W        W14709  12.987  26.253   2.798
42285W        W14710  31.078  42.611  13.908
42286W        W14711  43.719  30.118   2.149
42287W        W14712  29.079  44.031   3.240
42288W        W14713   8.134  25.553   4.464
42289W        W14714   7.187  34.740  12.424
42290W        W14715  11.948  44.491  10.045
42291W        W14716  44.259   0.329  11.902
42292W        W14717  14.892   4.856   3.967
42293W        W14718  19.188  12.314   4.360
42294W        W14719  14.816   8.622   2.917
42295W        W14720  24.104  13.762  12.065
42296W        W14721  27.895  44.532   5.074
42297W        W14722   7.435  26.461  11.209
42298W        W14723  18.815  20.217   3.528
42299W        W14724  28.260  14.999  12.836
42300W        W14725  35.359  43.206  11.603
42301W        W14726  22.044  21.075  11.097
42302W        W14727  35.577  25.504  13.852
42303W        W14728  32.873  30.391  13.296
42304W        W14729  25.596  20.620  12.520
42305W        W14730  27.717  17.534   1.377
42306W        W14731  40.926  19.827   0.357
42307W        W14732  30.406  19.157   1.437
42308W        W14733  20.821   5.911   0.348
42309W        W14734  38.403  43.868   2.848
42310W        W14735   2.331  31.030   1.861
42311W        W14736  30.496  41.863  13.785
42312W        W14737  25.073   7.880  13.550
42313W        W14738  15.873  39.400  10.785
42314W        W14739  34.929  42.390   2.478
42315W        W14740  11.880   4.793  14.267
42316W        W14741  10.651   8.416   5.560
42317W        W14742  30.949  16.147  14.856
42318W        W14743  25.648  12.944  11.198
42319W        W14744  19.256  13.179  11.614
42320W        W14745  12.846  13.726   4.550
42321W        W14746   7.763  34.811   0.962
42322W        W14747  19.248  37.561  14.664
42323W        W14748  43.858   7.344   2.787
42324W        W14749  21.948   4.452   2.737
42325W        W14750  21.146  19.216  14.748
42326W        W14751  31.512  10.727  14.296
42327W        W14752  29.939  22.298  13.997
42328W        W14753   5.195  17.091  11.403
42329W        W14754   8.639  37.480   2.803
42330W        W14755  32.498  11.588  13.405
42331W        W14756  21.257  16.717  10.668
42332W        W14757  31.950   2.744  13.912
42333W        W14758   5.236   9.527   3.793
42334W        W14759  31.671  27.134   0.110
42335W        W14760   6.384  35.947  14.509
42336W        W14761  25.216  33.666  13.408
42337W        W14762  34.476   9.938   4.757
42338W        W14763  17.376  19.753  10.134
42339W        W14764   9.219  23.572  14.902
42340W        W14765  15.085  37.331  11.182
42341W        W14766   6.819  34.594   0.860
42342W        W14767  11.985  19.728   0.785
42343W        W14768  41.644  42.021  11.942
42344W        W14769  43.906  31.724   0.538
42345W        W14770  12.851  24.059   0.886
42346W        W14771  23.760  20.086   0.607
42347W        W14772  34.130  24.405   1.470
42348W        W14773  41.264  17.255  10.674
42349W        W14774  18.887  24.021   1.214
42350W        W14775  24.121  21.868  13.909
42351W        W14776  13.340  20.722   0.411
42352W        W14777  41.342   3.339   1.231
42353W        W14778  20.658  28.446   1.437
42354W        W14779  42.800   0.954  11.468
42355W        W14780  42.013  12.965  14.364
42356W        W14781  33.658  24.529   1.319
42357W        W14782   8.618  21.298   4.234
42358W        W14783  15.722  26.523   4.180
42359W        W14784  33.971  28.390  14.360
42360W        W14785  19.592  17.126  13.607
42361W        W14786  23.718   9.428   2.940
42362W        W14787  41.016  31.545   3.245
42363W        W14788  11.035  32.591  10.668
42364W        W14789  18.311   2.076   4.724
42365W        W14790  17.216  44.100   4.192
42366W        W14791   3.510  21.649   1.729
42367W        W14792  43.200  18.119  11.074
42368W        W14793  27.977  40.515   3.593
42369W        W14794  38.078  31.506  12.833
42370W        W14795  36.188   6.825   1.912
42371W        W14796  25.004   4.273  12.377
42372W        W14797   0.310  41.473  10.793
42373W        W14798  18.700  24.976   2.295
42374W        W14799  16.241  23.417  11.702
42375W        W14800  17.668  28.180   0.844
42376W        W14801   8.882  16.729   4.568
42377W        W14802  36.482  19.824  11.704
42378W        W14803   8.938  33.099   3.353
42379W        W14804  11.636  28.776   3.305
42380W        W14805   4.704  43.236  12.595
42381W        W14806  11.191  27.057   1.189
42382W        W14807  22.948  19.125  13.074
42383W        W14808   8.780   7.544  14.542
42384W        W14809  34.467  16.390  10.628
42385W        W14810  18.142  38.905  13.379
42386W        W14811   5.183   2.010  11.618
42387W        W14812  15.319  11.359   0.072
42388W        W14813  23.968  13.282   2.311
42389W        W14814   1.946  16.660  11.534
42390W        W14815   1.459  38.631  11.157
42391W        W14816   0.848  30.557  13.385
42392W        W14817  31.995  26.731   2.326
42393W        W14818  38.028  14.334  14.001
42394W        W14819  38.899  24.993   0.787
42395W        W14820  33.388  38.026   0.035
42396W        W14821  16.001   3.080   2.822
42397W        W14822  43.726  20.086  11.435
42398W        W14823  25.262  31.700   2.706
42399W        W14824  28.615   8.933  10.635
42400W        W14825  27.653   0.293  13.235
42401W        W14826  22.025  10.234   1.507
42402W        W14827  20.995  39.032  10.355
42403W        W14828  41.295   5.842  12.962
42404W        W14829  17.767   3.267   4.352
42405W        W14830  34.128  43.542  11.881
42406W        W14831  43.468  39.596  14.025
42407W        W14832  32.717  32.012   1.914
42408W        W14833  20.247  35.021   2.361
42409W        W14834  26.035  14.298   3.798
42410W        W14835  26.370  15.926   4.115
42411W        W14836  20.297  24.768   0.904
42412W        W14837   4.746   6.425   5.062
42413W        W14838   0.918   6.843  14.510
42414W        W14839  43.967  13.670   1.822
42415W        W14840  10.353  15.248  10.681
42416W        W14841  41.588  23.488  10.588
42417W        W14842  17.415  26.105  12.159
42418W        W14843  11.085   8.435  13.796
42419W        W14844  37.616  14.554  14.781
42420W        W14845  36.443  10.874  10.809
42421W        W14846  18.191  13.163   1.011
42422W        W14847   0.277  30.229  13.490
42423W        W14848  42.871  39.123   3.405
42424W        W14849  26.940  34.565  13.424
42425W        W14850  33.543   4.432   2.816
42426W        W14851  35.038  34.167   3.254
42427W        W14852  13.865  30.124  10.706
42428W        W14853  12.200  28.955  12.368
42429W        W14854  28.192   3.979  13.428
42430W        W14855  41.280   4.192  11.049
42431W        W14856   6.975  41.413   1.683
42432W        W14857  26.706   4.321  11.999
42433W        W14858  37.113  22.707   4.209
42434W        W14859  22.159  30.184   3.411
42435W        W14860   4.234  34.693   2.374
42436W        W14861   4.693  12.864  13.976
42437W        W14862  44.779  11.772  10.888
42438W        W14863   6.930  39.467   3.937
42439W        W14864  18.848  39.012  10.820
42440W        W14865  19.648  43.691   3.099
42441W        W14866  11.488  15.708  13.255
42442W        W14867  29.169  20.310  12.332
42443W        W14868  38.407   9.667   3.362
42444W        W14869   6.392  43.492  12.924
42445W        W14870  37.544  37.424  14.889
42446W        W14871  33.123   9.173  14.885
42447W        W14872  13.687  22.542   4.514
42448W        W14873  36.538  12.489   1.885
42449W        W14874  13.283   5.775   1.232
42450W        W14875   7.133  41.745   2.322
42451W        W14876  15.365   9.266   1.306
42452W        W14877  44.198  25.580   0.322
42453W        W14878  24.144  20.251  14.421
42454W        W14879  16.417  34.911  13.391
42455W        W14880  30.147   9.942   2.651
42456W        W14881  25.086  13.184  11.257
42457W        W14882  16.292  30.706   4.203
42458W        W14883  38.845   0.479  11.081
42459W        W14884   1.399  17.888  14.541
42460W        W14885  40.443  39.555  10.481
42461W        W14886  39.146  34.388  14.931
42462W        W14887  22.697  30.134  11.971
42463W        W14888  37.582  12.940   3.217
42464W        W14889   9.307  19.074   0.549
42465W        W14890   1.468  10.201  14.589
42466W        W14891  34.192  14.038   3.834
42467W        W14892   4.056  15.360  11.381
42468W        W14893  28.554  24.322  13.301
42469W        W14894  34.200  44.495  11.714
42470W        W14895  39.768  29.072   3.576
42471W        W14896  15.305  38.209  10.813
42472W        W14897  36.082  14.173   4.544
42473W        W14898  31.459  43.054   1.838
42474W        W14899   4.805  41.572   3.625
42475W        W14900  14.200   7.790  14.429
42476W        W14901  10.189  20.543   4.568
42477W        W14902  15.940  26.643   3.082
42478W        W14903  32.898   0.257   0.499
42479W        W14904  16.314  27.270  12.872
42480W        W14905  28.241  11.933   1.881
42481W        W14906  22.756  27.787  13.085
42482W        W14907  14.311   0.317  11.411
42483W        W14908  44.685  14.215   0.658
42484W        W14909  38.645  14.177  14.761
42485W        W14910  14.031   7.415   1.855
42486W        W14911  17.075  15.586   1.785
42487W        W14912  12.304  36.936   0.386
42488W        W14913  24.507   1.794  12.916
42489W        W14914  18.648  11.914  14.324
42490W        W14915  15.131  36.432  10.723
42491W        W14916   5.638  37.463   3.900
42492W        W14917  41.999  22.118   0.782
42493W        W14918  32.145   6.804   1.862
42494W        W14919  33.297   3.131   2.678
42495W        W14920  16.772  23.625   2.880
42496W        W14921  20.082  27.240  14.934
42497W        W14922   6.020  31.452   1.271
42498W        W14923   4.831   6.283   1.921
42499W        W14924  24.036  27.186  10.646
42500W        W14925  15.219   0.011  11.555
42501W        W14926  34.859  30.638  13.501
42502W        W14927  15.042  27.367  12.062
42503W        W14928  18.636   0.996  13.811
42504W        W14929   8.968   9.745   4.876
42505W        W14930  41.936  36.849  13.377
42506W        W14931  17.507   7.794  14.543
42507W        W14932  38.423  32.111  14.492
42508W        W14933  30.924   3.181   0.037
42509W        W14934  13.755  39.525  12.424
42510W        W14935  14.605   1.254  11.533
42511W        W14936  12.178  18.708  11.977
42512W        W14937  21.005  22.232   3.185
42513W        W14938  18.501  42.700   2.756
42514W        W14939   2.260  33.675   3.509
42515W        W14940  32.365  21.643  12.086
42516W        W14941  10.382  23.331   0.382
42517W        W14942  39.405  41.131  12.557
42518W        W14943  19.017   1.329   5.360
42519W        W14944  44.377  26.149   4.157
42520W        W14945  26.713  10.255  12.370
42521W        W14946  10.234  20.423   0.825
42522W        W14947   9.942   3.448   3.182
42523W        W14948  11.143  38.289  13.949
42524W        W14949  35.702  36.630   3.710
42525W        W14950  33.499  33.621  11.009
42526W        W14951  32.922  17.205  10.707
42527W        W14952  21.587  19.320  12.918
42528W        W14953   6.418  24.099   2.352
42529W        W14954  40.646   7.128   4.027
42530W        W14955  16.923  26.160   4.383
42531W        W14956  42.480  13.898  12.819
42532W        W14957  28.951  10.803   2.046
42533W        W14958  23.368  22.744   0.730
42534W        W14959   5.890  28.081  10.741
42535W        W14960  40.074   3.610   3.673
42536W        W14961  35.350  19.133   1.597
42537W        W14962  35.843  11.082   2.767
42538W        W14963  19.224  17.104  13.995
42539W        W14964  23.226  34.088  13.458
42540W        W14965   4.363  34.441  12.437
42541W        W14966  11.188  38.288   4.300
42542W        W14967  15.741  25.080   4.372
42543W        W14968   5.775  21.883   1.072
42544W        W14969  15.727  28.491   1.502
42545W        W14970  21.043  29.217   4.630
42546W        W14971  12.675  31.878   1.736
42547W        W14972  13.062  16.244   1.906
42548W        W14973   3.150  20.478  14.689
42549W        W14974   0.034  28.202   2.719
42550W        W14975  27.279   8.227   2.456
42551W        W14976   9.926  13.805  10.688
42552W        W14977   9.673  20.108   4.115
42553W        W14978   8.271  38.807   1.276
42554W        W14979  19.152  35.588  14.541
42555W        W14980  37.572  33.612   4.126
42556W        W14981   6.457  32.325  12.860
42557W        W14982   4.834  20.525  11.287
42558W        W14983  29.970  43.709  14.822
42559W        W14984   7.384   5.935  14.795
42560W        W14985  20.540   4.950  13.423
42561W        W14986  23.726  31.403   0.490
42562W        W14987   9.899  36.172   2.660
42563W        W14988  19.332  20.624   0.267
42564W        W14989  17.146  24.240  11.509
42565W        W14990  42.481  21.290   4.233
42566W        W14991  23.576  36.441   3.191
42567W        W14992  25.625   3.859   4.717
42568W        W14993   5.875  24.647  12.401
42569W        W14994  10.777   4.178   2.423
42570W        W14995  25.882  24.569  12.632
42571W        W14996  30.635   3.783  13.378
42572W        W14997   6.863   2.548  11.164
42573W        W14998  28.089   3.846  11.132
42574W        W14999  26.740  36.124   1.426
42575W        W15000   1.108  33.365  10.089
42576W        W15001  24.598  40.381   0.921
42577W        W15002  42.779  35.924  12.594
42578W        W15003  38.088  21.946  13.944
42579W        W15004  32.935  23.548  12.407
42580W        W15005  15.052  18.151  11.882
42581W        W15006  29.648  42.309   0.250
42582W        W15007  38.594  34.090   4.105
42583W        W15008  14.625  16.421   0.540
42584W        W15009  40.924  44.280   1.465
42585W        W15010  33.247  13.369   0.317
42586W        W15011   3.612   9.235  13.857
42587W        W15012  18.962  32.696   1.347
42588W        W15013  30.437   6.305   4.610
42589W        W15014  25.467   6.940   3.730
42590W        W15015  39.050  30.681  12.928
42591W        W15016   4.458  34.079  13.491
42592W        W15017  39.429  24.632   1.411
42593W        W15018   3.343  32.752   4.137
42594W        W15019  16.930  28.094  12.891
42595W        W15020   3.393  28.323  14.307
42596W        W15021  38.589   7.797  13.807
42597W        W15022  11.583  22.997  14.427
42598W        W15023   5.023  44.919   3.773
42599W        W15024  15.764  26.859   5.090
42600W        W15025   0.892  41.432   2.237
42601W        W15026  42.559  37.623  11.713
42602W        W15027   8.797  12.408  13.394
42603W        W15028  34.210  28.094  12.483
42604W        W15029   4.932   8.595  11.042
42605W        W15030  42.781  12.582  11.805
42606W        W15031  30.571  32.982  10.590
42607W        W15032  10.291   3.269   0.761
42608W        W15033  40.001  34.043  12.072
42609W        W15034  23.918  13.598  13.473
42610W        W15035  21.627   7.359   1.276
42611W        W15036  14.720   0.935   4.707
42612W        W15037  43.982  28.551  13.981
42613W        W15038  22.059   2.370  12.728
42614W        W15039  30.082  24.696   2.305
42615W        W15040   6.740  41.208  11.905
42616W        W15041  17.287   3.763  11.391
42617W        W15042  19.721   6.712   0.210
42618W        W15043  31.239   6.936  12.920
42619W        W15044  44.800  37.007   1.843
42620W        W15045   8.343  18.770  14.039
42621W        W15046   1.241  12.849   2.355
42622W        W15047   0.709   8.480  13.329
42623W        W15048   6.920  43.745  12.942
42624W        W15049   5.213  23.927  10.385
42625W        W15050  44.216   8.361   1.362
42626W        W15051   7.352  25.950  14.391
42627W        W15052  40.953  22.881   1.374
42628W        W15053  31.859  36.024   0.304
42629W        W15054  28.344  15.810  13.457
42630W        W15055  44.538  16.422   3.768
42631W        W15056  40.391  41.942   4.821
42632W        W15057  12.044  42.920  14.271
42633W        W15058  39.911   8.230   4.726
42634W        W15059  39.334  24.970   2.801
42635W        W15060  19.420  24.498   0.544
42636W        W15061  27.604  18.056  14.498
42637W        W15062  35.417  29.171  13.338
42638W        W15063  42.325   5.490   2.914
42639W        W15064  35.885  18.342   4.941
42640W        W15065  23.188   8.571  11.507
42641W        W15066  32.619  21.340  11.037
42642W        W15067   1.714  16.216  13.549
42643W        W15068  22.463  32.144  10.509
42644W        W15069  27.196   5.798   4.201
42645W        W15070  13.624   6.942  11.625
42646W        W15071  31.291  16.375  10.253
42647W        W15072  33.989  22.133   0.240
42648W        W15073  39.291  30.132  10.776
42649W        W15074  30.084  33.912   2.806
42650W        W15075  22.811  21.148   1.331
42651W        W15076  25.167  15.776  12.587
42652W        W15077  22.271   6.623  11.969
42653W        W15078   4.396  38.768  12.496
42654W        W15079  23.587  41.851  13.567
42655W        W15080  16.650   9.345  13.281
42656W        W15081  42.954   3.502  10.255
42657W        W15082  13.742  20.679   4.186
42658W        W15083   0.675  43.808  13.747
42659W        W15084  36.858  31.365   2.791
42660W        W15085  32.430   3.386   1.752
42661W        W15086  19.780   3.262   3.363
42662W        W15087  20.468  31.358   0.683
42663W        W15088  11.672  31.607   0.504
42664W        W15089  14.009  27.721   3.603
42665W        W15090   5.228  26.896  13.545
42666W        W15091   0.840  17.311  11.961
42667W        W15092  28.519  33.399  11.706
42668W        W15093   0.430  27.691  13.328
42669W        W15094   5.222  35.320   4.764
42670W        W15095  17.181  10.673   1.263
42671W        W15096   5.766  34.008  11.238
42672W        W15097  38.787   0.721  10.627
42673W        W15098  41.052  19.590   1.285
42674W        W15099   0.869  15.066  12.549
42675W        W15100  25.995   5.319  13.415
42676W        W15101  10.550  23.513  10.042
42677W        W15102  14.232  14.894  12.983
42678W        W15103  39.084  25.143  13.893
42679W        W15104  15.807  15.848  13.826
42680W        W15105   1.780  32.497   0.437
42681W        W15106  22.213   6.532   0.191
42682W        W15107  42.898  27.427  11.597
42683W        W15108  11.372   2.894   3.190
42684W        W15109  36.520  24.137  10.511
42685W        W15110  30.035  25.601  14.167
42686W        W15111  32.914  36.880   2.801
42687W        W15112  17.832   5.297   2.874
42688W        W15113   9.941   9.169   4.631
42689W        W15114  10.929   0.758  10.811
42690W        W15115  42.027  30.241  11.167
42691W        W15116  36.859  13.037   0.211
42692W        W15117  35.409  19.527   2.266
42693W        W15118  19.140   5.809  14.335
42694W        W15119   8.940  31.547  13.918
42695W        W15120  33.599   5.305   0.363
42696W        W15121   8.303  32.416   3.572
42697W        W15122  32.171  19.813  11.004
42698W        W15123  36.590  34.337  12.898
42699W        W15124  41.940  22.298  12.530
42700W        W15125  16.665  39.271   1.512
42701W        W15126   7.273  11.667   2.179
42702W        W15127  43.013  23.975  14.916
42703W        W15128  35.698  24.714  10.082
42704W        W15129  39.829  29.013   0.339
42705W        W15130  25.476  11.220   3.817
42706W        W15131  32.438  23.614  12.217
42707W        W15132  28.705  12.446   2.648
42708W        W15133  44.057  16.235  12.067
42709W        W15134  34.384   0.435  11.961
42710W        W15135  19.197  19.509  13.082
42711W        W15136  36.949  42.294   0.389
42712W        W15137   3.352   1.551   4.051
42713W        W15138  10.560  12.109  11.595
42714W        W15139   5.705  38.875   0.632
42715W        W15140   0.994  26.888  14.288
42716W        W15141  16.775  25.374  14.771
42717W        W15142  29.642   5.209   0.379
42718W        W15143  22.085   6.315   2.134
42719W        W15144  24.175  41.431  11.624
42720W        W15145  15.732   6.912  13.523
42721W        W15146  26.715   6.694  11.216
42722W        W15147  23.201   2.500  12.926
42723W        W15148   3.444  30.520  10.817
42724W        W15149  40.495  25.915   4.092
42725W        W15150  35.478  15.853   3.811
42726W        W15151  27.508  29.682   1.797
42727W        W15152   7.669  25.274  11.729
42728W        W15153   6.018  32.013   3.742
42729W        W15154  42.321  29.466  13.871
42730W        W15155   3.348  14.628   4.165
42731W        W15156  24.666  19.605  10.873
42732W        W15157  15.180  33.167  11.416
42733W        W15158  28.518  42.541   4.533
42734W        W15159  11.485  32.877   0.769
42735W        W15160  21.394  35.957  10.746
42736W        W15161  28.864  20.000   3.561
42737W        W15162  34.576  25.040  10.887
42738W        W15163   7.532  19.094  11.597
42739W        W15164  15.198   3.662  10.728
42740W        W15165   6.457  10.314  13.620
42741W        W15166  40.606  11.781  12.126
42742W        W15167   9.248  33.933   2.873
42743W        W15168  12.550  25.538  12.918
42744W        W15169  34.125  36.142   2.383
42745W        W15170  16.238  37.118  13.824
42746W        W15171  41.427  43.972   0.352
42747W        W15172   3.964  37.032  12.888
42748W        W15173  11.965  29.968   2.442
42749W        W15174  28.202  31.204  12.093
42750W        W15175  38.641  38.115   3.193
42751W        W15176   3.359   2.249   1.296
42752W        W15177  10.278  12.863  10.608
42753W        W15178  28.615  16.614   3.275
42754W        W15179  18.624   0.481   0.896
42755W        W15180  43.078  31.662   3.486
42756W        W15181  29.738   3.455   2.922
42757W        W15182  31.888  27.559  11.560
42758W        W15183  31.598   2.146  10.721
42759W        W15184  44.806  36.619  12.886
42760W        W15185  24.589  39.303  11.463
42761W        W15186  15.706  39.517   1.948
42762W        W15187  36.352   0.879  13.054
42763W        W15188  28.940  27.654   3.355
42764W        W15189  23.627  19.339  11.735
42765W        W15190   1.440  31.620  10.805
42766W        W15191  23.157  44.466   0.667
42767W        W15192  13.113  23.164  13.070
42768W        W15193  15.075  42.428   3.158
42769W        W15194   0.148  29.135  11.197
42770W        W15195   7.422  32.863  14.287
42771W        W15196  20.723  15.640  13.600
42772W        W15197  27.158  28.713   1.332
42773W        W15198  37.578  14.898   0.175
42774W        W15199  35.657  34.478   1.787
42775W        W15200   9.465  22.024  14.945
42776W        W15201  34.818  41.921   3.270
42777W        W15202   9.301  39.287   3.745
42778W        W15203  11.208  12.015   3.327
42779W        W15204  32.862  31.677   4.083
42780W        W15205  44.682  43.884  13.973
42781W        W15206  18.059  36.615   0.884
42782W        W15207  31.189  29.037   2.294
42783W        W15208  44.138  10.122   0.336
42784W        W15209   5.948  19.222  12.040
42785W        W15210   3.076   4.969   2.321
42786W        W15211  29.097  21.329   1.233
42787W        W15212   4.711  11.826  14.946
42788W        W15213  43.911  33.839  12.011
42789W        W15214  26.301   2.876   2.325
42790W        W15215  28.935   1.399  13.852
42791W        W15216  11.623   0.460  10.393
42792W        W15217   5.657  12.150  10.503
42793W        W15218  14.741  20.361  12.728
42794W        W15219  34.438  33.853   1.642
42795W        W15220  25.612  38.150  12.935
42796W        W15221   7.406  35.447   2.698
42797W        W15222   8.059  32.064   3.208
42798W        W15223  29.608  25.698  12.605
42799W        W15224  19.735  16.092  11.087
42800W        W15225   5.750  14.803   3.736
42801W        W15226  39.089  21.056   3.806
42802W        W15227   5.975  40.706  13.996
42803W        W15228  12.861  19.491  11.934
42804W        W15229   6.703  35.064  12.956
42805W        W15230  25.023  32.500  10.694
42806W        W15231  29.599  39.033  14.774
42807W        W15232  11.023   4.201   2.876
42808W        W15233  33.094  12.113   0.961
42809W        W15234  30.944  11.837   2.267
42810W        W15235  22.618  28.154  12.025
42811W        W15236  31.522  23.672  12.168
42812W        W15237  28.387  34.802  11.589
42813W        W15238   4.309  36.871   4.647
42814W        W15239  24.958  21.661   3.814
42815W        W15240  19.736   8.813  10.696
42816W        W15241  11.578  18.696   0.904
42817W        W15242  42.480  44.897  13.573
42818W        W15243   3.687  32.189  13.763
42819W        W15244  10.205  28.866   2.785
42820W        W15245  24.693  41.911  11.501
42821W        W15246   1.525   6.781  13.495
42822W        W15247  34.607  25.350  10.484
42823W        W15248  16.002  28.564  14.955
42824W        W15249   4.414  32.819  14.302
42825W        W15250   8.225   5.580  12.153
42826W        W15251  19.724  12.325  11.288
42827W        W15252  15.333  30.154   4.143
42828W        W15253   0.653  32.074  10.553
42829W        W15254  18.427  12.351   2.288
42830W        W15255  15.129  19.500   1.229
42831W        W15256  30.404  10.089   0.742
42832W        W15257   3.473  28.502  12.370
42833W        W15258  31.024  41.455  14.368
42834W        W15259  19.758  43.904   3.563
42835W        W15260  13.125  11.154  13.085
42836W        W15261  15.576  11.730   0.372
42837W        W15262  27.293   1.999   3.804
42838W        W15263  14.831   9.964   3.186
42839W        W15264  13.681  15.853  11.086
42840W        W15265  42.126   7.093   4.200
42841W        W15266   9.842  11.618   4.840
42842W        W15267  38.056  20.610   3.301
42843W        W15268  31.087   9.996   1.987
42844W        W15269  42.218   4.927   1.868
42845W        W15270  35.476  21.221   0.673
42846W        W15271  30.987  33.166  11.549
42847W        W15272  30.255  37.340  12.515
42848W        W15273  13.748  39.113   2.572
42849W        W15274  43.970  43.883   3.752
42850W        W15275  32.625  34.272  13.133
42851W        W15276  16.085  21.797  10.498
42852W        W15277   0.447  36.889  10.779
42853W        W15278   3.711  31.934   3.673
42854W        W15279  19.499  30.458   2.255
42855W        W15280  20.770  40.662   2.989
42856W        W15281  11.785   6.706  13.947
42857W        W15282   5.776  23.747  12.087
42858W        W15283  14.106  29.092  14.282
42859W        W15284  29.179  39.794  12.642
42860W        W15285  25.147  16.872  13.448
42861W        W15286  24.178  14.627   4.872
42862W        W15287  24.472  18.845  10.225
42863W        W15288  24.988  17.058   1.205
42864W        W15289  44.293  16.583   2.957
42865W        W15290  39.075  41.686  10.614
42866W        W15291  23.155  25.775   0.352
42867W        W15292  12.679  33.509   2.575
42868W        W15293   3.514  33.463   1.754
42869W        W15294  28.959   5.707  12.541
42870W        W15295  30.940   3.311  12.482
42871W        W15296  32.850   1.956   1.350
42872W        W15297  36.547  42.923  11.178
42873W        W15298   7.569  17.344   1.819
42874W        W15299  15.617  24.942   9.970
42875W        W15300   4.162  14.823   1.190
42876W        W15301  15.102  43.076   0.845
42877W        W15302  29.078  28.173   2.512
42878W        W15303  31.663  39.388   2.834
42879W        W15304   6.345  38.607   3.093
42880W        W15305  13.282  26.512   1.409
42881W        W15306  23.669  10.720   2.819
42882W        W15307  41.094  39.351  12.525
42883W        W15308   7.927  42.443   2.140
42884W        W15309  16.112  19.846   0.248
42885W        W15310  20.997  18.148  10.695
42886W        W15311   7.954  31.931  10.640
42887W        W15312  10.162  36.977   1.213
42888W        W15313   3.722  12.630   1.650
42889W        W15314  44.277  12.643   2.870
42890W        W15315  14.507  41.627  12.319
42891W        W15316  26.202  23.731   1.617
42892W        W15317   5.184  37.515   0.064
42893W        W15318  29.042  31.998   1.024
42894W        W15319  36.574  16.395   1.414
42895W        W15320  26.002  38.792   0.045
42896W        W15321   6.736  16.191  11.172
42897W        W15322   6.843  32.110   2.195
42898W        W15323  25.686   3.177   1.302
42899W        W15324  29.220  30.719   0.407
42900W        W15325  22.761   8.886   3.874
42901W        W15326  42.086  14.971   0.131
42902W        W15327  34.475  24.875   0.170
42903W        W15328   6.912   3.377   1.714
42904W        W15329  42.565  37.929  14.347
42905W        W15330  26.156   9.334   2.088
42906W        W15331  13.645  30.892   3.272
42907W        W15332  14.509  43.764  13.022
42908W        W15333  14.523  32.235  14.140
42909W        W15334  11.435  35.051  13.789
42910W        W15335  14.875  37.502   4.191
42911W        W15336  18.853   1.059  10.730
42912W        W15337  44.432  29.486   3.219
42913W        W15338   1.981  33.659   2.726
42914W        W15339  31.037  19.211   1.678
42915W        W15340   6.326  24.760   3.236
42916W        W15341   5.664  27.527   3.065
42917W        W15342   3.939  33.936   4.909
42918W        W15343  23.720  41.287   1.148
42919W        W15344  33.472  10.160   3.244
42920W        W15345  43.745  33.057   2.452
42921W        W15346  40.580   8.786  14.401
42922W        W15347  26.747  18.081   2.714
42923W        W15348  30.346  44.050   2.726
42924W        W15349   5.591  13.517   0.373
42925W        W15350  43.978   3.024   5.248
42926W        W15351  41.314   9.097   5.121
42927W        W15352   6.699  41.812   1.471
42928W        W15353  11.788  27.722   0.711
42929W        W15354  12.538   2.452   1.477
42930W        W15355  28.630  11.191   0.818
42931W        W15356  43.068   5.689   0.000
42932W        W15357   2.009   7.192   0.661
42933W        W15358  28.944  34.665  13.288
42934W        W15359  16.668  19.701  13.741
42935W        W15360  27.628  34.702   3.764
42936W        W15361   3.431  36.854  12.945
42937W        W15362   0.983  15.977   0.058
42938W        W15363  29.698  17.710  13.458
42939W        W15364  12.330   6.656  14.763
42940W        W15365  23.509  24.579  12.785
42941W        W15366  14.571  15.400  13.818
42942W        W15367  19.051  30.137   3.327
42943W        W15368  40.363  37.068  14.955
42944W        W15369  35.352  10.721  10.624
42945W        W15370  33.406  35.688   2.931
42946W        W15371   1.229  44.924   2.274
42947W        W15372   7.500   9.961   1.204
42948W        W15373  29.089  17.725   2.170
42949W        W15374  22.295  25.691   2.865
42950W        W15375  16.549   6.725  11.636
42951W        W15376  34.951  13.553  11.713
42952W        W15377  16.175  39.094  11.213
42953W        W15378  24.545  28.689  10.681
42954W        W15379   0.728  42.210   2.879
42955W        W15380   7.350  23.305   4.558
42956W        W15381  13.437  26.521   5.074
42957W        W15382  20.020   4.997  11.559
42958W        W15383   7.941  11.698   2.863
42959W        W15384  10.486  19.709  11.720
42960W        W15385  29.174   5.394   1.798
42961W        W15386  27.035   2.079  13.116
42962W        W15387  28.099   2.911   1.842
42963W        W15388  12.836  19.244   4.275
42964W        W15389  23.619  42.666  12.583
42965W        W15390  41.630  16.396  14.087
42966W        W15391  43.419  13.168   0.251
42967W        W15392  27.011  27.586  13.721
42968W        W15393  17.749  33.860  12.760
42969W        W15394  36.637  25.940  11.866
42970W        W15395  35.033  28.249  11.126
42971W        W15396   6.791  11.903  11.069
42972W        W15397  18.593  13.838   4.230
42973W        W15398  16.925  16.629  11.473
42974W        W15399   6.815  13.818   4.158
42975W        W15400  25.141  21.017   5.218
42976W        W15401  38.834  41.369   2.337
42977W        W15402   1.299  42.953   2.337
42978W        W15403  10.067  34.015  13.787
42979W        W15404   5.877  13.934  13.356
42980W        W15405  13.524   5.970   3.304
42981W        W15406  29.098  31.580  14.031
42982W        W15407   0.978  38.381  11.138
42983W        W15408   8.763  26.691  12.495
42984W        W15409  41.836  19.513  11.042
42985W        W15410  25.512  39.365   2.729
42986W        W15411   3.273  21.976   2.648
42987W        W15412   8.909  18.994   1.801
42988W        W15413  41.939  28.557   0.327
42989W        W15414  43.398  25.332  11.077
42990W        W15415   2.141  27.699  13.950
42991W        W15416  17.717  14.604  14.345
42992W        W15417  23.366  35.976  11.403
42993W        W15418  31.213  24.760  11.166
42994W        W15419  33.934  21.128  10.239
42995W        W15420  44.888  41.552   2.663
42996W        W15421  10.644  15.336  13.803
42997W        W15422  18.618  12.510  12.629
42998W        W15423  36.088  26.963   2.781
42999W        W15424  21.647  25.067  13.796
43000W        W15425  37.334  12.399  11.165
43001W        W15426   8.060  11.845   4.808
43002W        W15427   6.813  21.049   0.437
43003W        W15428  42.477  21.684   1.247
43004W        W15429  17.728  42.246   2.840
43005W        W15430  12.518  33.546   2.061
43006W        W15431  12.699  10.249  13.548
43007W        W15432  12.042  24.597   1.979
43008W        W15433  27.027  19.508   4.199
43009W        W15434  38.005  11.626  13.027
43010W        W15435  29.685  25.182  12.687
43011W        W15436  33.488  39.490  12.074
43012W        W15437   6.789  21.151  10.946
43013W        W15438  10.424   2.551   2.397
43014W        W15439  30.702  33.509  10.724
43015W        W15440   2.932  30.547  10.707
43016W        W15441  20.381  31.503  11.911
43017W        W15442  30.895  34.958   1.840
43018W        W15443   1.664   3.478  13.530
43019W        W15444  43.547  15.154   4.200
43020W        W15445   3.830   8.713   1.965
43021W        W15446  25.393  29.508  11.190
43022W        W15447  44.398  18.599   4.595
43023W        W15448  30.050  32.146   4.718
43024W        W15449  27.198   9.150   3.278
43025W        W15450   4.372  18.741  13.631
43026W        W15451   0.337   3.350  13.437
43027W        W15452  16.046   3.771  13.801
43028W        W15453  40.910  42.344  13.006
43029W        W15454  23.195  29.167  14.270
43030W        W15455  26.588  11.891  13.090
43031W        W15456  25.922  31.066   1.068
43032W        W15457  34.881   7.378  10.568
43033W        W15458  38.140  34.920   4.015
43034W        W15459  28.582  11.491  14.416
43035W        W15460  13.366  44.981   4.103
43036W        W15461  15.737  26.165   0.727
43037W        W15462  44.858   0.857   2.370
43038W        W15463  32.132   3.034  14.841
43039W        W15464   4.966   2.506   4.551
43040W        W15465  34.625  28.159   2.709
43041W        W15466   7.923  36.859  11.575
43042W        W15467   0.021  30.623   1.824
43043W        W15468  35.491  24.236   4.408
43044W        W15469  42.446  30.879   4.707
43045W        W15470  39.321   3.178   2.211
43046W        W15471  38.512  10.834   2.588
43047W        W15472  30.655  18.717   4.115
43048W        W15473  18.269  37.617   2.246
43049W        W15474   4.892  29.557  11.235
43050W        W15475  25.199  26.226  13.175
43051W        W15476  40.029  11.257  10.981
43052W        W15477   4.935  10.124  14.922
43053W        W15478  16.609   8.689   1.660
43054W        W15479   4.881  25.058   4.194
43055W        W15480   8.733  11.768   1.310
43056W        W15481   1.509  22.262  11.180
43057W        W15482   3.711  33.449   0.241
43058W        W15483  28.245  25.719  11.513
43059W        W15484  11.290  36.867  13.534
43060W        W15485  26.390  27.344  12.062
43061W        W15486  38.259   7.954  11.827
43062W        W15487  13.275  42.018   1.832
43063W        W15488  19.240   3.644   0.733
43064W        W15489   5.760  12.640  10.678
43065W        W15490   7.629  35.692  12.077
43066W        W15491  15.737  35.309   3.954
43067W        W15492  24.259  31.202  11.888
43068W        W15493  33.838  32.377   4.403
43069W        W15494  12.333  21.941   4.217
43070W        W15495  20.128  24.273  10.779
43071W        W15496  36.622  22.189  11.065
43072W        W15497  12.356  29.888   3.424
43073W        W15498  34.613  16.906  13.378
43074W        W15499  42.743   8.272  12.594
43075W        W15500  25.288  19.198  12.987
43076W        W15501  26.507  42.287  11.646
43077W        W15502  31.576  12.707  11.569
43078W        W15503  39.870  43.785   3.169
43079W        W15504  27.925  25.693   0.500
43080W        W15505  30.509   6.846  13.389
43081W        W15506   9.981   7.836  10.993
43082W        W15507  13.662  39.239  12.847
43083W        W15508  20.941  44.015   2.767
43084W        W15509   6.328  42.139   2.164
43085W        W15510  21.236  31.501  11.165
43086W        W15511  40.772  14.614   4.065
43087W        W15512  17.806  42.018  11.918
43088W        W15513  43.562  17.650   3.128
43089W        W15514  39.101  24.689   0.341
43090W        W15515  14.604  33.033  14.488
43091W        W15516   6.348   8.212  13.866
43092W        W15517   8.641  20.610  14.347
43093W        W15518  41.807  11.914   3.780
43094W        W15519  38.757  36.998   0.172
43095W        W15520   0.252  22.072   0.924
43096W        W15521  14.580  12.173   4.950
43097W        W15522  34.854  26.566  13.350
43098W        W15523  23.636  14.344  13.350
43099W        W15524  34.380  33.210  12.491
43100W        W15525  41.306  20.789   2.711
43101W        W15526  44.717  40.465  12.401
43102W        W15527   5.415   6.401  14.361
43103W        W15528  14.851  16.441   4.478
43104W        W15529   3.308  36.910  11.156
43105W        W15530  24.657  25.168   2.508
43106W        W15531   6.688  12.779  12.636
43107W        W15532  15.343  43.817  14.825
43108W        W15533  34.095  18.598  10.177
43109W        W15534  24.836  33.740  10.702
43110W        W15535   9.125  32.025  14.679
43111W        W15536  17.701  10.678  14.015
43112W        W15537  14.380   7.393  11.518
43113W        W15538   7.300  34.986   2.453
43114W        W15539  29.499  17.937  10.097
43115W        W15540   7.391  43.759  12.733
43116W        W15541  27.969   8.084  14.867
43117W        W15542  13.397  24.165   3.215
43118W        W15543  15.119  33.454   4.937
43119W        W15544  15.137  39.701   3.746
43120W        W15545  36.597  14.533   1.651
43121W        W15546  13.832  44.180   0.885
43122W        W15547  27.616   3.935  12.210
43123W        W15548  42.906  44.257  13.692
43124W        W15549  22.118  15.742   3.719
43125W        W15550  28.531  36.396   4.379
43126W        W15551  31.452  23.145  14.532
43127W        W15552  29.719  23.108  11.519
43128W        W15553  34.090  42.805  14.498
43129W        W15554  35.321  36.378   3.418
43130W        W15555   0.759  16.254   1.909
43131W        W15556  12.739   9.245   1.314
43132W        W15557  26.050   5.993   2.006
43133W        W15558  40.954  37.102   0.509
43134W        W15559  43.454  11.044   3.867
43135W        W15560   2.717  10.644   1.684
43136W        W15561  34.462  41.636  12.589
43137W        W15562  28.532  43.105  13.114
43138W        W15563  14.419  25.947  12.196
43139W        W15564   5.662   9.821   3.685
43140W        W15565   3.293  34.856   3.369
43141W        W15566  38.138  43.836   3.787
43142W        W15567  11.685  38.183  13.830
43143W        W15568  18.721   1.456   3.579
43144W        W15569  22.910  16.266   3.859
43145W        W15570  34.902   0.891  10.876
43146W        W15571  33.955   4.464  14.368
43147W        W15572  29.725   0.790   1.596
43148W        W15573  16.054  41.538   0.869
43149W        W15574  12.111  24.685   3.347
43150W        W15575   2.644  32.069   9.803
43151W        W15576  26.257  43.970   2.013
43152W        W15577  28.226  43.749  14.922
43153W        W15578  29.708  27.546   4.284
43154W        W15579  30.552  24.523  14.073
43155W        W15580   8.642  36.413  13.952
43156W        W15581  28.624  22.575   3.331
43157W        W15582   5.621   2.905  12.857
43158W        W15583  20.311   1.197  12.600
43159W        W15584  18.659  27.010   0.264
43160W        W15585  33.345  32.899   2.236
43161W        W15586  12.662   6.743  10.719
43162W        W15587   0.423  18.154  14.504
43163W        W15588  35.943  26.578   2.444
43164W        W15589  26.815   4.027   2.783
43165W        W15590  36.597   8.381  11.627
43166W        W15591   4.741  36.910   1.597
43167W        W15592  17.194  11.118  10.742
43168W        W15593  43.460  10.901  14.893
43169W        W15594  42.014  13.484  14.032
43170W        W15595  33.992  41.280   3.297
43171W        W15596   7.837  35.342  10.255
43172W        W15597  24.049  40.007  13.928
43173W        W15598  40.108  12.425   1.677
43174W        W15599  36.355  26.924   3.226
43175W        W15600  30.202  38.990  14.239
43176W        W15601  23.594  41.441  11.954
43177W        W15602  32.061  32.552   2.478
43178W        W15603  22.156   7.679  11.093
43179W        W15604   2.989  39.557   4.178
43180W        W15605  27.462  16.032   1.447
43181W        W15606  36.347  42.911   4.690
43182W        W15607  34.378  29.802   3.221
43183W        W15608  41.441  17.003  11.864
43184W        W15609   9.487  14.202  13.098
43185W        W15610  37.906  13.455  13.281
43186W        W15611  33.901  23.260   1.597
43187W        W15612   4.282  33.937   3.185
43188W        W15613  31.861  43.753  11.125
43189W        W15614   6.273  43.875  10.909
43190W        W15615   6.888  21.248  11.908
43191W        W15616  38.685  27.027  11.095
43192W        W15617  36.011  40.979  11.695
43193W        W15618  20.559   3.584   9.918
43194W        W15619   8.633  27.092  11.437
43195W        W15620  19.548  31.308   0.432
43196W        W15621  32.321  29.619  11.608
43197W        W15622  42.931  29.217   1.282
43198W        W15623  27.021  36.357  10.738
43199W        W15624   9.961  36.070  10.988
43200W        W15625  17.687   2.835  11.368
43201W        W15626   9.216  12.572  10.686
43202W        W15627  33.505  17.787  10.456
43203W        W15628  42.499  30.550   1.783
43204W        W15629  44.759  42.145  12.395
43205W        W15630  38.062  34.607  14.514
43206W        W15631   7.486   8.965   0.927
43207W        W15632  10.699  17.222  12.222
43208W        W15633   6.463   6.890   1.968
43209W        W15634  38.429  40.319   5.086
43210W        W15635   0.754   8.896   4.552
43211W        W15636  11.619  38.004   2.193
43212W        W15637   8.174  28.102   2.101
43213W        W15638  33.588  44.143   1.844
43214W        W15639  20.657  44.065  11.696
43215W        W15640  14.541  10.592   0.940
43216W        W15641  28.062  37.445   1.288
43217W        W15642  17.563  21.780   3.076
43218W        W15643  32.100  34.446   2.667
43219W        W15644  42.506  19.587   3.848
43220W        W15645  31.964  43.247  10.231
43221W        W15646  22.771  44.511  13.861
43222W        W15647   7.718  37.813   1.709
43223W        W15648   4.782   6.184  12.008
43224W        W15649  14.735  13.402  11.693
43225W        W15650  26.455   1.057  14.416
43226W        W15651  39.989   2.136  14.810
43227W        W15652  19.349  44.055  14.429
43228W        W15653  43.739  37.800   3.728
43229W        W15654   9.082  37.518   2.510
43230W        W15655  13.637  11.648   2.377
43231W        W15656  35.087  15.828  12.955
43232W        W15657   9.821  10.688  13.950
43233W        W15658   1.404  40.910  11.894
43234W        W15659  43.344  21.841   3.139
43235W        W15660  26.474  19.575  12.879
43236W        W15661   3.747  27.413  12.544
43237W        W15662  32.672  26.703   4.594
43238W        W15663   4.295  35.157  13.009
43239W        W15664  28.969  40.888  10.670
43240W        W15665   3.518  18.718  13.972
43241W        W15666  22.217   7.821  11.974
43242W        W15667  19.791  25.530   2.864
43243W        W15668  37.950   1.264   3.820
43244W        W15669  15.544  18.545   2.426
43245W        W15670  44.853   1.845  12.215
43246W        W15671  34.628  25.116   2.940
43247W        W15672  19.588   3.216  11.654
43248W        W15673  43.043  40.062  14.334
43249W        W15674  22.770  21.505   1.749
43250W        W15675  12.146  37.503   4.679
43251W        W15676  14.639  27.797  13.088
43252W        W15677  41.297  15.116  12.524
43253W        W15678  35.476   0.002   4.503
43254W        W15679  11.544   8.627   3.635
43255W        W15680   6.392   9.906   3.767
43256W        W15681   6.302  26.626  14.506
43257W        W15682  40.785  14.821   3.170
43258W        W15683  25.549  38.404  11.579
43259W        W15684   3.305  11.827   1.772
43260W        W15685  40.999  10.187   4.557
43261W        W15686  22.945   2.048  12.986
43262W        W15687  37.806   9.789   1.340
43263W        W15688  13.590  38.688  12.965
43264W        W15689  43.860  32.236   0.673
43265W        W15690  14.069  43.550   2.733
43266W        W15691  13.371  36.106   0.753
43267W        W15692  40.928  26.128   1.979
43268W        W15693   1.020  34.339   4.009
43269W        W15694  39.768  23.243  10.761
43270W        W15695  13.719  25.179  13.518
43271W        W15696  42.231  28.748   3.374
43272W        W15697   1.232  10.718   3.670
43273W        W15698   7.057  12.162   0.994
43274W        W15699  32.676   0.013  13.325
43275W        W15700   3.463  18.297  11.490
43276W        W15701  31.769  13.502   2.246
43277W        W15702  41.975  21.872   1.270
43278W        W15703  13.071   9.603   1.476
43279W        W15704  25.341   3.814  13.041
43280W        W15705  22.638  36.848  12.133
43281W        W15706  43.766   1.018   2.346
43282W        W15707  43.485  32.460   0.356
43283W        W15708  37.859   1.194  14.723
43284W        W15709  11.150  41.154   0.703
43285W        W15710  28.635  36.508  11.189
43286W        W15711  35.402  29.994  11.132
43287W        W15712  36.512  26.422   3.229
43288W        W15713  33.552  32.799  10.837
43289W        W15714  28.315  24.457   2.819
43290W        W15715  11.435  14.117   0.341
43291W        W15716   1.081  34.899  10.282
43292W        W15717  38.639  21.729   1.773
43293W        W15718  28.768   2.254   4.150
43294W        W15719  15.830   9.968  13.492
43295W        W15720  29.626  10.759   1.480
43296W        W15721  11.841  41.775   2.836
43297W        W15722  42.293  25.317  12.074
43298W        W15723  35.324  24.056  14.198
43299W        W15724  41.779  41.593  10.749
43300W        W15725  24.221  43.716   4.061
43301W        W15726  41.007   7.464  14.486
43302W        W15727  44.675  28.396   3.666
43303W        W15728   8.347  29.232   2.599
43304W        W15729   1.930   2.902   0.835
43305W        W15730  13.800   4.468   3.161
43306W        W15731   1.334   6.367  12.552
43307W        W15732   6.442  12.720   1.282
43308W        W15733  16.198   3.675  11.621
43309W        W15734  19.815   1.304  12.741
43310W        W15735  10.357  21.550   4.591
43311W        W15736  11.083  25.990   4.109
43312W        W15737  36.584  26.863  11.978
43313W        W15738  22.266  10.674  12.038
43314W        W15739  20.925  21.095  11.929
43315W        W15740   4.181  44.879   2.779
43316W        W15741   1.270  18.518  13.961
43317W        W15742  29.442   8.104  11.514
43318W        W15743   8.449  26.716   4.685
43319W        W15744  35.151  14.437   9.745
43320W        W15745  16.738  12.865   1.440
43321W        W15746  16.090   5.176   2.203
43322W        W15747  42.402  10.623  12.780
43323W        W15748  39.590  38.819   4.071
43324W        W15749   6.688  31.182   2.788
43325W        W15750  17.243  28.989   4.778
43326W        W15751  11.162  14.484   4.669
43327W        W15752  21.074  41.241   3.196
43328W        W15753  12.672   7.690  11.191
43329W        W15754  31.565  40.734  13.165
43330W        W15755   8.220  10.626   1.856
43331W        W15756  24.540  30.535   1.322
43332W        W15757  29.437  10.675   4.641
43333W        W15758   0.020  44.873   2.780
43334W        W15759   9.785  10.767   3.238
43335W        W15760  20.932  36.356   5.018
43336W        W15761   1.973  12.771  12.748
43337W        W15762   9.366  29.634  14.656
43338W        W15763  36.650  28.537  12.972
43339W        W15764  28.673  10.333  11.760
43340W        W15765  14.063  42.779  12.308
43341W        W15766  17.598   8.133  13.029
43342W        W15767  36.793  26.098   9.586
43343W        W15768  42.825  25.406  11.592
43344W        W15769  24.616  10.815  11.935
43345W        W15770   3.228  36.892   1.890
43346W        W15771  17.653  23.159   4.218
43347W        W15772  24.059  18.832   4.775
43348W        W15773   6.273  23.487   3.923
43349W        W15774  39.581  34.065   0.371
43350W        W15775  31.942  13.148  14.796
43351W        W15776  31.079  43.209  10.175
43352W        W15777  38.068  11.669   0.890
43353W        W15778  21.741  21.320  14.881
43354W        W15779  25.249  23.673   1.822
43355W        W15780  21.270  33.776  14.435
43356W        W15781   9.190  37.407  12.070
43357W        W15782  21.169  37.803   4.684
43358W        W15783  17.563   1.886  11.613
43359W        W15784  28.457   1.818  10.704
43360W        W15785  44.797  37.451  13.923
43361W        W15786   7.892   2.787  12.135
43362W        W15787  29.699  13.843  14.474
43363W        W15788  39.507  30.627  10.660
43364W        W15789   2.220  35.456   3.141
43365W        W15790  14.890  18.993  12.883
43366W        W15791  35.093  27.717   0.359
43367W        W15792   1.090  33.960  14.985
43368W        W15793  44.376  32.079  11.706
43369W        W15794  30.559  36.560  12.122
43370W        W15795  30.623   2.002   0.344
43371W        W15796  16.137   6.655   1.642
43372W        W15797  15.372  22.686  14.914
43373W        W15798  39.185   5.174   0.012
43374W        W15799  34.836  35.856  12.016
43375W        W15800  19.150  13.187   0.966
43376W        W15801  32.097  10.288   4.428
43377W        W15802  31.874  35.627  13.382
43378W        W15803   2.659  37.762  12.971
43379W        W15804  35.576  16.120  13.801
43380W        W15805  41.770  27.658  12.788
43381W        W15806  35.025   0.890   4.162
43382W        W15807   3.791  20.377  12.073
43383W        W15808  15.850  19.419   1.725
43384W        W15809  22.673   3.349  10.631
43385W        W15810  35.965  15.054   1.211
43386W        W15811  27.693   2.515  10.665
43387W        W15812  24.088  31.942   1.344
43388W        W15813  40.438   6.969   2.729
43389W        W15814  17.784   5.416  12.079
43390W        W15815  39.000  14.299   1.757
43391W        W15816  43.878  33.403   1.309
43392W        W15817  36.850  30.541   4.615
43393W        W15818  11.240  22.934   1.446
43394W        W15819  43.372   3.940   1.943
43395W        W15820  32.691  27.407   4.831
43396W        W15821  20.693   5.720   3.082
43397W        W15822  27.393  26.961   1.227
43398W        W15823   4.697   1.601  12.653
43399W        W15824  21.787  38.571  12.787
43400W        W15825   0.311  42.752  12.023
43401W        W15826  26.310  13.170   2.354
43402W        W15827  39.890   2.821   2.331
43403W        W15828  22.133  12.864  11.650
43404W        W15829  30.530  22.564   3.275
43405W        W15830   0.624  30.137  14.449
43406W        W15831   0.486  31.489  13.560
43407W        W15832  19.290   1.366  12.860
43408W        W15833  11.085   5.604   1.678
43409W        W15834  32.042  41.589   3.734
43410W        W15835  31.305  14.754  11.071
43411W        W15836  10.351  14.662   0.302
43412W        W15837  26.672   7.122   2.237
43413W        W15838  43.550  32.652  12.950
43414W        W15839  32.461  30.702  13.297
43415W        W15840  27.497   1.458  12.025
43416W        W15841  16.717  11.425   2.609
43417W        W15842  11.674  36.338   4.712
43418W        W15843  43.889  32.327   1.207
43419W        W15844   0.446  40.246  13.937
43420W        W15845  32.498  26.430  10.250
43421W        W15846  11.865  28.676  12.007
43422W        W15847   2.356  28.133  10.964
43423W        W15848  34.846  35.109  14.958
43424W        W15849   3.890  38.257  14.288
43425W        W15850  21.686   7.289   0.445
43426W        W15851   4.677  26.022  13.459
43427W        W15852  32.811  18.765   1.589
43428W        W15853  34.655  42.039  12.876
43429W        W15854  34.865  44.897  10.366
43430W        W15855  16.820  29.994   0.695
43431W        W15856  28.968   4.963  11.116
43432W        W15857  14.141   4.286  14.845
43433W        W15858  20.238  16.174   4.936
43434W        W15859  44.423  25.034   0.511
43435W        W15860  21.702  29.133   1.792
43436W        W15861  40.982   1.813   1.101
43437W        W15862  17.004  17.352  11.155
43438W        W15863   6.358  16.530  14.883
43439W        W15864  38.919  31.030  14.958
43440W        W15865  31.502  38.224   1.855
43441W        W15866  14.497   7.252   1.703
43442W        W15867   0.823  38.446   4.565
43443W        W15868  32.389  27.679   3.248
43444W        W15869   6.541  39.877   2.237
43445W        W15870  32.322  44.824   1.193
43446W        W15871   5.651  14.225   4.578
43447W        W15872  33.245  42.421   9.954
43448W        W15873  40.031  29.033   4.608
43449W        W15874  29.355   0.903  12.934
43450W        W15875  31.831  16.062   0.753
43451W        W15876  37.523  12.235   3.087
43452W        W15877  20.712   8.831  12.276
43453W        W15878  36.971   4.349  11.404
43454W        W15879  40.950  29.731  14.852
43455W        W15880  26.453  25.493  12.558
43456W        W15881   5.422  25.902  12.955
43457W        W15882   5.226   5.353  11.006
43458W        W15883  21.056   1.566   4.157
43459W        W15884  44.779  41.301  10.724
43460W        W15885  43.744  17.195  14.171
43461W        W15886   5.856  28.468  11.619
43462W        W15887  26.336  16.798   3.104
43463W        W15888  23.766  38.953  10.896
43464W        W15889  32.545  31.822   1.486
43465W        W15890   4.678  35.837   2.751
43466W        W15891  10.856   9.710  14.423
43467W        W15892  39.503  37.476   0.210
43468W        W15893  30.368  18.225   4.156
43469W        W15894  10.217  23.531  12.527
43470W        W15895   4.076  19.280  11.563
43471W        W15896  16.788   2.902  12.889
43472W        W15897   5.405  29.500  11.237
43473W        W15898  39.854  24.407   0.765
43474W        W15899  31.200  21.801   0.449
43475W        W15900  10.124  27.219   3.132
43476W        W15901   3.486   7.355   0.948
43477W        W15902  11.761  17.075   0.778
43478W        W15903  42.436  22.988  14.418
43479W        W15904  15.690  34.566  11.890
43480W        W15905  16.267  11.982   4.625
43481W        W15906  26.582  15.850   1.542
43482W        W15907  33.579  33.369   0.323
43483W        W15908  39.760  42.870  12.033
43484W        W15909  38.738  32.891   3.600
43485W        W15910   6.711  19.900   2.168
43486W        W15911  32.196  20.740  14.329
43487W        W15912   6.976  18.565  13.382
43488W        W15913  15.887  25.134   3.490
43489W        W15914  43.452   3.872   2.453
43490W        W15915   2.055   3.933  14.768
43491W        W15916  33.855  16.229   2.454
43492W        W15917   0.791  39.474   1.756
43493W        W15918  13.661  28.740  14.274
43494W        W15919  25.101  44.398  11.569
43495W        W15920  26.783  25.972   0.500
43496W        W15921  16.006  30.968   5.476
43497W        W15922  36.445   1.005   0.409
43498W        W15923   9.743  43.578   1.478
43499W        W15924  13.852   0.787  13.365
43500W        W15925   2.977   1.113   3.039
43501W        W15926   6.130  12.070  10.700
43502W        W15927  10.292   8.270  14.771
43503W        W15928   4.660  12.224  10.107
43504W        W15929  26.000  42.354   0.896
43505W        W15930   7.003  17.592  11.209
43506W        W15931  39.480  26.614   3.047
43507W        W15932   7.307  30.460  14.479
43508W        W15933  30.471  27.219  11.991
43509W        W15934  16.709  37.378  13.825
43510W        W15935  25.541   5.256  13.047
43511W        W15936   3.522  30.081  14.728
43512W        W15937  11.360  38.096  11.091
43513W        W15938   4.327  17.964  13.161
43514W        W15939  42.123  24.452  11.592
43515W        W15940  10.302  26.948   1.763
43516W        W15941  44.394  26.691   3.263
43517W        W15942  13.085  31.362   4.336
43518W        W15943   8.123  43.939   1.706
43519W        W15944  39.915  34.340   0.078
43520W        W15945  27.618  15.729   4.585
43521W        W15946  26.724   7.249  11.598
43522W        W15947   2.445  40.035  11.659
43523W        W15948  32.893  15.528   2.469
43524W        W15949   8.691  21.701  14.910
43525W        W15950  10.228  43.595   1.323
43526W        W15951  41.515  33.301  13.999
43527W        W15952  37.113  12.500  14.352
43528W        W15953  19.623   7.096   1.724
43529W        W15954  13.167  31.906  12.007
43530W        W15955  26.175  34.963  14.799
43531W        W15956  16.197  33.871   1.474
43532W        W15957  22.192   9.303  14.255
43533W        W15958  30.592  12.147   1.002
43534W        W15959  15.948  11.127  14.341
43535W        W15960  10.348   2.810   3.524
43536W        W15961  37.973  18.089   3.398
43537W        W15962  41.379  40.419   2.706
43538W        W15963  12.163  40.601  13.880
43539W        W15964  29.543  34.149  14.239
43540W        W15965  38.434  33.403   1.842
43541W        W15966  32.508  36.762  11.553
43542W        W15967   2.365  19.797   0.944
43543W        W15968   2.943  12.072   2.094
43544W        W15969   6.199  28.570   0.378
43545W        W15970  35.865   2.463   2.366
43546W        W15971   8.755  31.408   4.690
43547W        W15972  40.596  15.423  13.843
43548W        W15973  16.242  29.706   2.669
43549W        W15974  12.943  26.913   3.363
43550W        W15975  34.201  37.949   1.144
43551W        W15976  40.749   5.323  10.878
43552W        W15977  19.122  30.579  12.427
43553W        W15978   3.935  31.990  14.417
43554W        W15979  24.047  32.854   1.218
43555W        W15980  24.220  36.327  11.554
43556W        W15981  13.394  43.549  13.155
43557W        W15982   2.801  41.881   0.037
43558W        W15983  13.047  24.743  11.518
43559W        W15984  18.011   2.431   2.884
43560W        W15985  31.624  28.448   2.108
43561W        W15986  39.915  43.991   0.610
43562W        W15987  27.022   2.932   3.894
43563W        W15988  12.875   0.000   1.202
43564W        W15989  40.754   2.080   1.889
43565W        W15990  38.618  40.211   2.759
43566W        W15991  38.637  42.089  13.200
43567W        W15992  24.839  30.151  11.581
43568W        W15993  32.980  12.692   1.736
43569W        W15994  37.889   1.451   3.120
43570W        W15995   0.294  26.101   4.240
43571W        W15996  32.919   0.881   0.908
43572W        W15997  30.646  30.897  12.159
43573W        W15998  38.342  41.207  10.977
43574W        W15999   1.424  39.333  14.758
43575W        W16000   6.367   6.639  11.492
43576W        W16001  35.622  26.896  12.498
43577W        W16002   5.939   4.868   0.359
43578W        W16003   8.738   1.846  14.979
43579W        W16004  19.497   7.256   3.409
43580W        W16005  11.852  19.205  14.706
43581W        W16006   4.800  17.636   2.635
43582W        W16007  17.579   8.691  10.947
43583W        W16008  14.225  41.563   1.018
43584W        W16009  17.572  28.573  12.397
43585W        W16010  44.212  30.095  14.793
43586W        W16011   7.536  29.117  10.657
43587W        W16012  20.674   7.350   4.381
43588W        W16013  11.396   6.021  13.897
43589W        W16014  35.265  11.633   1.028
43590W        W16015  10.750  37.323   2.797
43591W        W16016   0.806  32.599  11.463
43592W        W16017   0.341  13.091  14.801
43593W        W16018  33.244   3.203  11.058
43594W        W16019  10.939  28.780   1.213
43595W        W16020  21.440  39.570  12.814
43596W        W16021   9.803  38.505  12.371
43597W        W16022  12.126  13.966  11.153
43598W        W16023  10.527  26.882  11.064
43599W        W16024  25.040   5.424  14.821
43600W        W16025  32.675   1.361   0.922
43601W        W16026  22.483  16.131   2.223
43602W        W16027  32.592   4.549  14.353
43603W        W16028  42.049   6.693  12.360
43604W        W16029  38.831  34.516  12.408
43605W        W16030  31.982  13.746  10.584
43606W        W16031  31.798  29.204  10.202
43607W        W16032  11.018  43.922  11.521
43608W        W16033  22.840   9.379   4.054
43609W        W16034  28.702  37.935   2.356
43610W        W16035  16.806  39.030   4.800
43611W        W16036   7.947  32.976   0.507
43612W        W16037   0.993  22.714  11.754
43613W        W16038  15.821  10.311   0.814
43614W        W16039   9.220   1.243  14.022
43615W        W16040  19.846  27.041   3.322
43616W        W16041  21.135   6.840  10.400
43617W        W16042  29.936  12.960   2.820
43618W        W16043   5.703  21.487   2.143
43619W        W16044  36.504   0.332   2.829
43620W        W16045  39.997  32.280  14.207
43621W        W16046  16.103  22.044  11.862
43622W        W16047  25.174  10.797  10.667
43623W        W16048   7.172  28.049  13.702
43624W        W16049  44.933  11.239   4.652
43625W        W16050  30.148   6.786   4.110
43626W        W16051  43.674  25.887   2.125
43627W        W16052  22.368  12.491   0.496
43628W        W16053  25.804  10.610   1.320
43629W        W16054  29.051  43.972  11.496
43630W        W16055  41.399  26.034   2.260
43631W        W16056  44.478  34.402   3.672
43632W        W16057  41.471  27.003  12.317
43633W        W16058  13.676  30.793   2.428
43634W        W16059   4.053  14.481   3.222
43635W        W16060  13.956   7.623   4.244
43636W        W16061  30.532  24.984  13.865
43637W        W16062  40.910   4.249   2.467
43638W        W16063   4.804   8.926   4.269
43639W        W16064  31.122  27.710  12.163
43640W        W16065  40.272   2.548   3.228
43641W        W16066  20.212   6.384  13.855
43642W        W16067  38.433  15.819  10.646
43643W        W16068  27.902   1.946   4.305
43644W        W16069  19.344  25.126   3.262
43645W        W16070  44.516  16.057  12.847
43646W        W16071  13.603  41.610  11.051
43647W        W16072  20.266  28.273  14.979
43648W        W16073  16.612   0.772  14.053
43649W        W16074  33.980  22.515  13.086
43650W        W16075  20.601  31.361   5.233
43651W        W16076  28.285   2.186   0.036
43652W        W16077  28.958  40.375   2.065
43653W        W16078  11.814   9.404  11.373
43654W        W16079  37.595  28.080   4.071
43655W        W16080   8.255   2.544  12.538
43656W        W16081  29.617   4.690  14.781
43657W        W16082   8.456  11.170  14.327
43658W        W16083  27.266  31.499   4.038
43659W        W16084  14.631   4.046  14.813
43660W        W16085  25.537  32.387   3.314
43661W        W16086  40.983  23.479   0.201
43662W        W16087  23.922  39.372   4.541
43663W        W16088  14.511  12.294  11.601
43664W        W16089  40.893  37.569   2.361
43665W        W16090   9.428   1.331   4.234
43666W        W16091   5.494  28.622  11.252
43667W        W16092   5.358   8.860   0.813
43668W        W16093  32.107  10.469  13.058
43669W        W16094   3.434  20.192  13.007
43670W        W16095   9.764  39.039   1.980
43671W        W16096  40.991  16.766   1.802
43672W        W16097  10.282  29.244  13.906
43673W        W16098  30.128  44.122   3.787
43674W        W16099  20.283   7.896   0.491
43675W        W16100  27.960  41.666   2.696
43676W        W16101  22.951  20.617   3.709
43677W        W16102   3.451   1.424  11.399
43678W        W16103   3.424  29.083  12.073
43679W        W16104  40.221   7.253  11.115
43680W        W16105   9.761  20.935   3.557
43681W        W16106  35.856  40.754  14.445
43682W        W16107  11.231   5.036  13.931
43683W        W16108  29.047  30.985  11.501
43684W        W16109   8.688   3.289   3.985
43685W        W16110   8.956   7.214  11.160
43686W        W16111  20.574   7.658  12.506
43687W        W16112   7.624  26.400  14.831
43688W        W16113  28.520  28.595  12.933
43689W        W16114  35.873   0.115  11.299
43690W        W16115   0.722   6.880   0.996
43691W        W16116   3.996  21.821   1.650
43692W        W16117  43.283   6.259   0.258
43693W        W16118  43.419  11.394  14.806
43694W        W16119  42.717  35.334   1.252
43695W        W16120  39.345  14.407  13.470
43696W        W16121  14.233  25.684   2.692
43697W        W16122  29.904   2.311   1.283
43698W        W16123  39.830   9.659   4.484
43699W        W16124  21.732  38.511  13.830
43700W        W16125  17.322  38.563   4.196
43701W        W16126  37.952  15.602  10.668
43702W        W16127  38.755  27.607  13.017
43703W        W16128  15.669  14.865  10.716
43704W        W16129  32.794   8.226  14.418
43705W        W16130   4.789   7.233  10.627
43706W        W16131  30.136  22.184   1.394
43707W        W16132   1.962  20.812  13.869
43708W        W16133   9.681  42.387  13.915
43709W        W16134   6.811  37.837   1.715
43710W        W16135  15.747  19.573  14.457
43711W        W16136  42.368  34.957   2.183
43712W        W16137  10.735  25.510   4.675
43713W        W16138  39.090  36.673   0.416
43714W        W16139   6.212  43.538  14.713
43715W        W16140  27.256  40.725   4.447
43716W        W16141  18.632  26.202  11.078
43717W        W16142  15.794  12.311   0.928
43718W        W16143  15.560   7.110  10.839
43719W        W16144  22.009  37.789  13.303
43720W        W16145   3.278  15.166   4.838
43721W        W16146  37.316   5.101  12.137
43722W        W16147  10.329  14.627   2.734
43723W        W16148   3.311  24.089   1.071
43724W        W16149  40.928   1.733   0.110
43725W        W16150  41.586  41.149   3.739
43726W        W16151  15.577  13.351   1.788
43727W        W16152  42.428  29.850  12.543
43728W        W16153  42.979  41.900  10.676
43729W        W16154   8.751  43.567  13.895
43730W        W16155   5.060  31.369   4.579
43731W        W16156  14.598  40.038   1.743
43732W        W16157  25.020  30.413   0.005
43733W        W16158   2.322  14.285  10.342
43734W        W16159  34.583  22.491   1.809
43735W        W16160  18.036  10.866   1.170
43736W        W16161   5.694   3.518   2.278
43737W        W16162  39.098  18.684   1.487
43738W        W16163  42.075  15.099  12.048
43739W        W16164   9.878  26.916   4.842
43740W        W16165   7.868   8.919   3.834
43741W        W16166  31.512  23.099  14.012
43742W        W16167  29.401  15.110   0.800
43743W        W16168  36.489  15.316   3.277
43744W        W16169   3.534   7.144   3.935
43745W        W16170  31.941  14.838   2.479
43746W        W16171  21.563   2.349   4.121
43747W        W16172  24.280  28.498   4.709
43748W        W16173  35.978   6.073  11.609
43749W        W16174  27.707   7.179  13.054
43750W        W16175  44.518   9.377  10.458
43751W        W16176  43.523  31.519  13.815
43752W        W16177  10.634  38.783   0.229
43753W        W16178  27.963  22.374  11.555
43754W        W16179   5.786  25.138  10.660
43755W        W16180  34.686  13.877  11.406
43756W        W16181  27.922   1.259  13.514
43757W        W16182  43.457  22.555  11.943
43758W        W16183  26.215   0.503   3.425
43759W        W16184   1.251   0.015   4.049
43760W        W16185   8.292  16.008   4.123
43761W        W16186  24.025  13.281  14.371
43762W        W16187  10.600  15.750   4.922
43763W        W16188  32.324  17.954  13.044
43764W        W16189  20.558  36.208   3.676
43765W        W16190  41.035  15.133  12.029
43766W        W16191   2.696  38.230  13.838
43767W        W16192   9.726  38.518   3.345
43768W        W16193  11.156   3.443  12.475
43769W        W16194  11.317  11.324  13.070
43770W        W16195  14.307  44.910  10.710
43771W        W16196  15.555  24.788   0.535
43772W        W16197  11.397   6.085  13.036
43773W        W16198  36.464  28.044  12.094
43774W        W16199  43.867  35.030  11.419
43775W        W16200  25.221  36.113  12.369
43776W        W16201  22.699   9.994  12.352
43777W        W16202   2.690  36.398   4.088
43778W        W16203   2.881   8.541  14.606
43779W        W16204  42.666  44.543   3.587
43780W        W16205  30.532   3.161   5.195
43781W        W16206   5.712  28.982   1.315
43782W        W16207   5.304  30.143   4.131
43783W        W16208  32.605   7.777   0.045
43784W        W16209  17.613  19.813  13.539
43785W        W16210  24.139  16.586  11.739
43786W        W16211  12.776  44.350   2.914
43787W        W16212   8.535   1.912   3.612
43788W        W16213  44.771   6.771  11.956
43789W        W16214   0.898   4.388   1.735
43790W        W16215  16.439  37.586   3.563
43791W        W16216  29.593  18.758  14.006
43792W        W16217  29.748  25.522  13.101
43793W        W16218  34.830  24.625   4.296
43794W        W16219  37.897  25.008  10.605
43795W        W16220  36.046  43.295  11.069
43796W        W16221  32.132  16.819   0.977
43797W        W16222  42.873  24.552   3.207
43798W        W16223  34.025  21.352   1.993
43799W        W16224  22.784   2.247   2.651
43800W        W16225   7.207  16.783  10.703
43801W        W16226   2.198  41.440  10.686
43802W        W16227  18.777   5.681   3.854
43803W        W16228  13.517  21.018  10.645
43804W        W16229  19.691  39.275  14.404
43805W        W16230   5.432   9.163  13.440
43806W        W16231  16.168  41.188  13.039
43807W        W16232  38.511  34.834  11.160
43808W        W16233  31.617  27.633   2.744
43809W        W16234   5.182   1.847  12.094
43810W        W16235  30.020   6.243  11.238
43811W        W16236  35.028  36.715   2.211
43812W        W16237  11.910  12.886   4.888
43813W        W16238   4.631  14.608   1.020
43814W        W16239  14.503   0.511  10.980
43815W        W16240   2.958  17.968   4.190
43816W        W16241  19.782   9.281  13.938
43817W        W16242  23.910  29.858   2.299
43818W        W16243   5.448  17.784  11.206
43819W        W16244   0.037  27.533  11.528
43820W        W16245  15.863   6.413  11.004
43821W        W16246   8.827   1.143  13.271
43822W        W16247  24.972   0.916   4.879
43823W        W16248  17.274  11.652   0.927
43824W        W16249  27.204  12.240  12.549
43825W        W16250   8.781  11.136   0.857
43826W        W16251  29.348  16.582   3.695
43827W        W16252  28.870   8.351  10.910
43828W        W16253  22.255  32.427   2.427
43829W        W16254  28.153  28.055   0.308
43830W        W16255  34.393  38.487  11.632
43831W        W16256  31.942  10.858  14.547
43832W        W16257  18.265  25.630  14.773
43833W        W16258   7.634  34.053  13.556
43834W        W16259  23.092  28.210   2.225
43835W        W16260  37.348  38.091  11.997
43836W        W16261  28.280  12.879   3.706
43837W        W16262  24.412  26.071   0.340
43838W        W16263  20.305  39.562   0.464
43839W        W16264  22.016  20.260  14.813
43840W        W16265  19.271  15.151   1.906
43841W        W16266  34.536   8.830   1.266
43842W        W16267   3.239  24.494  14.952
43843W        W16268  22.560   3.197   4.127
43844W        W16269   2.330  30.860  13.914
43845W        W16270  41.794  16.403  11.479
43846W        W16271   4.642  24.500  14.522
43847W        W16272   0.054  41.728  12.352
43848W        W16273   0.809  32.595   4.188
43849W        W16274  29.989   7.188  12.613
43850W        W16275  38.404   8.323  11.168
43851W        W16276  19.690   5.144   4.830
43852W        W16277   6.952  33.591  14.833
43853W        W16278  27.465  13.223  14.524
43854W        W16279  37.584  25.680  13.920
43855W        W16280  39.491  22.853  11.067
43856W        W16281  18.368  21.486  14.836
43857W        W16282  33.940  14.183  12.010
43858W        W16283   8.090  43.089  10.865
43859W        W16284  39.562   3.669  12.604
43860W        W16285   3.239  41.517  10.732
43861W        W16286   7.409   1.030   4.108
43862W        W16287  39.875  39.295  10.569
43863W        W16288   4.697  42.684   0.730
43864W        W16289  39.436  44.049   3.353
43865W        W16290  17.343   3.635   2.811
43866W        W16291   2.044  10.400  12.340
43867W        W16292  21.097  36.619   1.382
43868W        W16293  17.695  27.960   0.369
43869W        W16294  41.660   8.794  14.678
43870W        W16295  12.315  26.713   1.468
43871W        W16296   2.019  38.115   0.012
43872W        W16297  12.641  17.466   0.479
43873W        W16298  32.625  33.055  11.727
43874W        W16299  21.113  14.857  12.316
43875W        W16300  36.041  40.819  12.214
43876W        W16301  19.591  10.035   3.244
43877W        W16302  33.325  19.569   4.589
43878W        W16303   6.401  36.488  11.544
43879W        W16304  16.162   6.806  14.819
43880W        W16305   2.863  13.299   5.100
43881W        W16306   4.507  20.583   2.206
43882W        W16307  28.046  17.094  12.530
43883W        W16308  17.080  30.447   0.641
43884W        W16309  44.619  17.199   4.640
43885W        W16310  38.620   5.062   1.958
43886W        W16311  14.822  34.058  10.946
43887W        W16312  43.799   7.429  11.242
43888W        W16313  13.125  42.274   1.307
43889W        W16314  39.893  18.771  12.475
43890W        W16315   3.840  29.562   0.847
43891W        W16316  23.699  21.159  11.154
43892W        W16317  10.610  31.173   3.771
43893W        W16318  31.616  26.660   1.994
43894W        W16319  15.542  32.506   0.061
43895W        W16320  38.909  44.695   2.354
43896W        W16321   6.715   2.801   2.506
43897W        W16322  39.798  16.288  11.639
43898W        W16323  25.440  38.909  13.304
43899W        W16324  25.160  22.139   0.007
43900W        W16325  39.312  25.081  11.585
43901W        W16326   2.414  34.996   3.257
43902W        W16327  38.905  11.029   1.243
43903W        W16328   7.422  41.802   3.186
43904W        W16329  37.765  26.258  11.650
43905W        W16330  10.629  41.232  10.872
43906W        W16331  11.453   4.485  12.063
43907W        W16332   9.178  25.258  12.857
43908W        W16333   2.398  12.891   2.406
43909W        W16334  33.886  11.536   3.685
43910W        W16335  24.429   8.204  10.981
43911W        W16336  40.198  38.062  13.182
43912W        W16337  25.352  15.074  13.595
43913W        W16338  14.819  19.253  14.013
43914W        W16339  34.416  11.671   1.332
43915W        W16340  36.439  28.995  12.154
43916W        W16341   4.243  44.949  11.530
43917W        W16342  31.215  13.548  12.944
43918W        W16343   6.451  44.945  12.032
43919W        W16344  36.834  41.271  13.246
43920W        W16345  32.112  42.334  14.609
43921W        W16346  14.204  32.199  13.392
43922W        W16347   3.837  26.249  11.620
43923W        W16348  37.408   2.036   1.376
43924W        W16349   0.970  15.385   4.048
43925W        W16350  21.077  23.596   4.511
43926W        W16351   9.361  37.522   4.362
43927W        W16352  35.027  43.846  13.553
43928W        W16353  31.490  25.467   4.723
43929W        W16354   3.461  10.922  13.495
43930W        W16355  29.444  24.790  10.703
43931W        W16356  34.613   7.752  12.977
43932W        W16357  33.645  22.526  14.793
43933W        W16358  32.499  25.947  12.402
43934W        W16359  13.605  42.543   3.368
43935W        W16360  33.299   9.652  12.510
43936W        W16361  11.133  17.064   2.733
43937W        W16362  33.601  38.374  10.614
43938W        W16363  36.538   4.362  11.158
43939W        W16364  30.169  30.910   0.913
43940W        W16365   5.694  31.956  10.833
43941W        W16366   9.196   3.427   1.934
43942W        W16367   4.803  29.852  12.153
43943W        W16368  16.789  23.561  14.961
43944W        W16369  30.406   8.808   4.715
43945W        W16370   8.562   6.716  12.000
43946W        W16371  27.090  13.749  10.673
43947W        W16372  18.291  11.446  11.982
43948W        W16373   2.525  32.123  12.584
43949W        W16374  15.256   0.054   2.731
43950W        W16375  32.835   5.072  13.254
43951W        W16376  36.406  35.344  14.411
43952W        W16377  35.951  22.561  14.524
43953W        W16378  25.008  42.361  12.778
43954W        W16379  40.306  11.681  11.005
43955W        W16380  20.489  11.154  11.481
43956W        W16381  18.742  37.339  14.760
43957W        W16382  17.067  22.237  13.879
43958W        W16383   9.713  34.399  13.997
43959W        W16384   6.083  22.543  11.237
43960W        W16385   3.177  15.794   1.829
43961W        W16386  30.163   6.789   2.224
43962W        W16387  34.245  16.145   0.920
43963W        W16388   8.478   3.703  14.002
43964W        W16389   7.387  15.857   3.443
43965W        W16390   5.709   8.609   4.288
43966W        W16391  20.312  43.389  12.131
43967W        W16392  39.001   8.096   3.793
43968W        W16393  16.677   8.793   2.168
43969W        W16394   9.429   2.182  12.110
43970W        W16395  43.958  22.439   4.590
43971W        W16396  36.435  41.469   2.978
43972W        W16397  35.427   2.353   3.170
43973W        W16398  11.431  41.949  10.762
43974W        W16399   0.765  39.337   2.924
43975W        W16400   5.937  15.566   4.199
43976W        W16401  19.147   6.686  14.335
43977W        W16402  42.315  43.355   2.323
43978W        W16403  36.855  11.485  14.408
43979W        W16404  29.682  14.263   4.640
43980W        W16405  11.608  23.584  11.489
43981W        W16406  29.674  20.836  12.536
43982W        W16407  10.683  35.571  13.530
43983W        W16408   2.547  22.134  12.401
43984W        W16409  29.247  19.998  11.930
43985W        W16410   0.808  23.929  13.402
43986W        W16411  25.995   0.918  10.631
43987W        W16412  14.634  23.489  13.158
43988W        W16413   4.483  15.486  12.396
43989W        W16414   3.199  23.954   3.705
43990W        W16415  31.074  35.836   1.770
43991W        W16416  19.090  13.317  10.741
43992W        W16417  28.848  24.040   3.400
43993W        W16418  37.445  33.838  10.576
43994W        W16419  32.548  14.652  12.914
43995W        W16420  13.014  33.331  11.258
43996W        W16421  31.650  39.387  11.072
43997W        W16422  16.666  34.789  13.883
43998W        W16423  23.723  11.222  12.820
43999W        W16424  40.286  14.538   1.746
44000W        W16425   1.069   8.872  12.106
44001W        W16426   4.845  33.417   5.043
44002W        W16427   2.761  22.054   0.829
44003W        W16428  25.666  34.416   1.019
44004W        W16429  26.784  31.372  13.012
44005W        W16430  19.313  28.511  13.491
44006W        W16431  43.793  38.917   2.247
44007W        W16432   0.318  38.909  12.334
44008W        W16433  31.801  40.956  14.461
44009W        W16434   6.360   6.673   0.419
44010W        W16435  34.155   4.020  13.478
44011W        W16436  44.406  11.385  11.635
44012W        W16437  32.487  23.291  11.370
44013W        W16438  15.900  21.912  10.025
44014W        W16439  29.129   1.655  14.805
44015W        W16440  41.391  15.423   2.897
44016W        W16441  43.036  28.922  12.878
44017W        W16442  35.117  20.362  12.007
44018W        W16443  10.917  42.420   1.187
44019W        W16444   7.924  32.908   2.366
44020W        W16445   9.461  33.406  14.020
44021W        W16446  23.351  41.099  14.989
44022W        W16447  33.291  32.246  11.647
44023W        W16448   7.377  31.933  12.778
44024W        W16449   2.258  42.429   1.814
44025W        W16450  29.819  44.919   1.199
44026W        W16451   5.310   3.401  11.714
44027W        W16452   3.569  24.948   2.022
44028W        W16453  37.625  23.615  13.635
44029W        W16454  42.554  19.681  14.942
44030W        W16455  33.916  38.086   0.154
44031W        W16456  35.225   4.852  12.174
44032W        W16457   6.986  16.216   2.791
44033W        W16458  22.600  24.092  12.236
44034W        W16459  20.671  35.072  14.350
44035W        W16460  15.618  38.496  12.146
44036W        W16461  20.245  27.882   2.615
44037W        W16462  11.113  35.403   4.713
44038W        W16463   2.057  14.532  11.859
44039W        W16464  38.865  39.802   2.950
44040W        W16465   7.305  15.829  14.692
44041W        W16466  12.609   6.728  12.607
44042W        W16467  20.689   2.540   0.403
44043W        W16468   3.232   1.961   1.722
44044W        W16469   0.434  30.269   3.775
44045W        W16470  35.565  36.604  12.091
44046W        W16471   3.656  18.576  11.112
44047W        W16472   5.438  40.381  11.230
44048W        W16473  41.999  23.587  10.232
44049W        W16474  40.492   6.292   2.844
44050W        W16475   0.957   1.490  14.563
44051W        W16476  34.170  43.991  11.648
44052W        W16477  28.997  33.939  10.685
44053W        W16478  17.712  37.991   3.022
44054W        W16479  27.686  25.530   4.014
44055W        W16480  30.724  25.567  11.513
44056W        W16481  28.740   4.445  13.840
44057W        W16482  22.012  44.417   2.673
44058W        W16483  33.871   1.947   4.228
44059W        W16484  14.766  43.725   1.410
44060W        W16485  30.086   1.846   4.909
44061W        W16486   3.971  30.619  14.543
44062W        W16487  12.801  42.276  13.507
44063W        W16488   8.727  16.682  13.410
44064W        W16489  40.712  34.636   3.167
44065W        W16490  12.620  37.990  12.384
44066W        W16491   8.853  40.822   3.686
44067W        W16492  43.211  42.347   1.653
44068W        W16493  39.514   5.943   2.824
44069W        W16494  35.996   9.386   3.647
44070W        W16495   6.971  29.540  13.789
44071W        W16496  23.098  38.497   0.787
44072W        W16497  18.300  15.733   2.834
44073W        W16498  25.189  22.628   2.223
44074W        W16499  11.692  26.181  10.055
44075W        W16500  12.483  12.243  12.846
44076W        W16501  22.533  32.820   1.841
44077W        W16502  16.184  20.178   2.976
44078W        W16503  28.923  37.470   1.979
44079W        W16504  36.402  20.846  12.462
44080W        W16505  36.884  10.176   2.773
44081W        W16506  39.853  34.652   0.488
44082W        W16507   0.378  33.868  13.005
44083W        W16508  19.603  33.574   4.592
44084W        W16509  29.114  11.510  14.541
44085W        W16510  14.998  18.056  11.376
44086W        W16511  40.801   0.608  14.331
44087W        W16512  37.300  20.348  13.343
44088W        W16513   9.641   0.413   4.575
44089W        W16514  17.104  34.788  10.700
44090W        W16515   3.399  13.120   4.335
44091W        W16516   0.374   9.630   0.864
44092W        W16517  17.576  31.480  12.719
44093W        W16518  41.095  12.197  10.870
44094W        W16519  20.831  28.876   2.562
44095W        W16520  30.153  40.425   0.933
44096W        W16521  29.980  19.573   0.237
44097W        W16522  32.640  38.585   1.215
44098W        W16523   4.310  37.521  14.500
44099W        W16524  30.347   9.184  14.896
44100W        W16525  42.036   0.175   1.231
44101W        W16526  36.498   9.942   0.869
44102W        W16527   4.413  41.000   2.575
44103W        W16528   9.677  43.256   2.412
44104W        W16529  28.730  39.615  12.500
44105W        W16530  15.221  42.834  10.566
44106W        W16531  38.354   3.930   2.110
44107W        W16532  24.183  32.547  12.933
44108W        W16533  38.860  24.673  11.187
44109W        W16534  10.197   4.503  11.569
44110W        W16535  27.739  32.773  10.794
44111W        W16536   0.175  34.868   1.883
44112W        W16537   9.859  21.202  12.823
44113W        W16538   2.551  16.993   4.536
44114W        W16539  23.633  35.651  12.864
44115W        W16540  28.986  39.474   2.342
44116W        W16541  13.588  10.769  10.639
44117W        W16542   4.485  34.419  11.359
44118W        W16543  13.346  31.910   2.417
44119W        W16544  30.648  41.021   4.638
44120W        W16545  18.168  22.129  11.446
44121W        W16546  39.938  34.342   0.907
44122W        W16547  10.448  10.085   2.696
44123W        W16548  41.571   2.528  14.380
44124W        W16549   7.209  21.176   5.035
44125W        W16550  25.673  10.617  14.415
44126W        W16551   2.240  31.018   4.602
44127W        W16552   5.754  19.327   4.487
44128W        W16553   5.326  40.553   2.758
44129W        W16554  43.879  14.591  12.171
44130W        W16555  33.000  41.283   4.326
44131W        W16556  41.109  11.878   4.141
44132W        W16557  25.131   6.726   4.688
44133W        W16558  21.186  19.666   0.037
44134W        W16559   5.692  13.215   1.936
44135W        W16560   5.298   7.178   4.152
44136W        W16561  40.843   3.858   0.742
44137W        W16562  12.561  38.604   0.498
44138W        W16563   2.824  11.188  14.101
44139W        W16564  31.481   3.458  10.382
44140W        W16565  34.395  24.809  12.528
44141W        W16566  19.483  18.165  13.338
44142W        W16567   3.718  22.074  13.537
44143W        W16568   5.295   6.307  11.154
44144W        W16569   0.793  14.093  11.579
44145W        W16570   3.900   1.160  12.178
44146W        W16571  29.150   0.049  11.501
44147W        W16572   1.981  16.325   3.978
44148W        W16573  12.202   3.444   1.796
44149W        W16574  26.450  30.043   4.428
44150W        W16575  42.497  36.693   0.026
44151W        W16576   9.778   4.770  13.430
44152W        W16577  40.830  15.677   2.597
44153W        W16578  35.557  20.684  11.964
44154W        W16579  14.223  39.330   2.601
44155W        W16580  19.101   1.398   3.920
44156W        W16581  18.330   9.884   3.519
44157W        W16582  31.206  23.271   1.260
44158W        W16583  36.054  33.977  12.531
44159W        W16584  25.233   4.517  11.500
44160W        W16585   1.055  44.146   3.319
44161W        W16586  36.421   5.681  10.889
44162W        W16587  30.911  32.640   4.343
44163W        W16588  14.255  24.569  12.558
44164W        W16589   6.836  37.797   4.686
44165W        W16590   5.839   6.784  11.487
44166W        W16591  13.550  14.621  11.503
44167W        W16592   0.486   3.280   1.467
44168W        W16593   3.235  11.477   0.293
44169W        W16594  41.861  12.819   4.585
44170W        W16595  29.965  42.477   3.197
44171W        W16596   6.648  31.679   1.975
44172W        W16597  14.434  34.161   2.192
44173W        W16598  17.298   7.295  11.575
44174W        W16599  26.252  42.947  11.087
44175W        W16600  18.341   5.873  12.886
44176W        W16601  11.353  28.585  11.983
44177W        W16602  40.494  31.685  13.882
44178W        W16603  26.868  26.531  14.315
44179W        W16604  31.125  38.479  12.525
44180W        W16605  14.814   3.333  10.537
44181W        W16606  30.446   0.494  14.545
44182W        W16607   4.195   3.077   4.748
44183W        W16608  30.622  33.478   1.303
44184W        W16609  30.937  36.356  13.093
44185W        W16610  23.345  42.060  14.985
44186W        W16611  10.045  24.597   1.875
44187W        W16612  42.197  11.464   2.720
44188W        W16613  25.045  35.354   3.306
44189W        W16614  14.172   7.583   4.727
44190W        W16615  16.569  22.013   4.607
44191W        W16616   1.582   4.202  13.899
44192W        W16617  14.227   8.350   4.080
44193W        W16618  16.787  38.022   2.881
44194W        W16619  11.289  30.516   0.539
44195W        W16620  21.689  42.905  11.056
44196W        W16621  35.032   0.095  14.979
44197W        W16622  13.946  22.561   2.333
44198W        W16623  11.587  25.813   4.231
44199W        W16624  12.351  10.391  14.418
44200W        W16625  44.305  18.539  12.491
44201W        W16626  11.923  23.122   3.580
44202W        W16627  27.145  12.207  13.944
44203W        W16628  23.080  22.560   4.648
44204W        W16629   3.183   9.162  12.363
44205W        W16630  19.077  33.558  11.950
44206W        W16631   5.550  20.970  12.718
44207W        W16632  29.602  43.378  15.000
44208W        W16633   7.753  27.077  13.521
44209W        W16634  42.781   9.351   4.132
44210W        W16635  20.010  12.683   3.286
44211W        W16636   3.142  35.467   4.233
44212W        W16637  16.930  30.967   2.229
44213W        W16638  18.238  20.158  14.362
44214W        W16639  16.297  39.126  14.831
44215W        W16640   8.684  44.770   1.435
44216W        W16641   4.350  12.338  12.464
44217W        W16642  42.290  33.993   1.608
44218W        W16643  30.141  28.092  14.483
44219W        W16644  21.294  27.210  12.560
44220W        W16645  16.995  27.634  10.435
44221W        W16646  43.694  32.442  11.155
44222W        W16647   8.515  29.753   3.758
44223W        W16648  21.169   6.687   0.894
44224W        W16649  17.375  24.682  12.417
44225W        W16650  41.882  38.323   0.305
44226W        W16651   5.305  15.063  12.847
44227W        W16652  23.166  41.016   1.780
44228W        W16653  19.781  10.411  13.473
44229W        W16654   9.883  41.343   0.370
44230W        W16655  13.569  22.680  14.809
44231W        W16656  13.267  25.074  10.989
44232W        W16657   0.558  19.127   3.334
44233W        W16658  33.135  39.502  14.417
44234W        W16659   5.591  35.589  11.959
44235W        W16660  24.003  43.639   2.614
44236W        W16661  36.525  19.520  12.998
44237W        W16662   4.719  24.098  10.641
44238W        W16663  44.483  17.708   2.435
44239W        W16664  19.549  39.298  11.927
44240W        W16665  15.556   6.001   0.812
44241W        W16666  34.458  10.241   0.709
44242W        W16667  12.641  21.581   1.818
44243W        W16668   9.733  28.038   4.292
44244W        W16669   0.772  30.500   4.602
44245W        W16670   5.999  23.009  10.358
44246W        W16671  24.332  27.091  13.415
44247W        W16672  42.886  33.887  13.786
44248W        W16673  14.984  16.223   1.699
44249W        W16674  41.455  32.132  10.436
44250W        W16675   1.055  25.668  10.647
44251W        W16676   6.253  12.711   4.658
44252W        W16677   4.087   6.288  14.718
44253W        W16678  29.474  15.503  13.029
44254W        W16679  37.242  22.014   3.026
44255W        W16680   6.711  40.016  13.266
44256W        W16681  16.135  37.433  12.962
44257W        W16682  39.016  39.963  10.081
44258W        W16683  36.895  34.574   0.615
44259W        W16684  44.483   9.837  14.057
44260W        W16685  16.870  29.513  10.577
44261W        W16686  10.370  36.066   2.413
44262W        W16687  25.619  30.200  14.444
44263W        W16688  35.622  16.147   1.276
44264W        W16689  34.832  34.305  12.832
44265W        W16690   8.668  28.492   0.502
44266W        W16691  29.894  25.361  11.818
44267W        W16692  32.198  42.638   3.643
44268W        W16693  29.536  43.949  14.970
44269W        W16694  11.654  27.035   2.326
44270W        W16695  33.449  15.112  10.062
44271W        W16696  19.887  14.083   5.063
44272W        W16697   6.049   0.265  13.118
44273W        W16698  35.051  33.823   0.965
44274W        W16699  11.686  21.247   1.776
44275W        W16700  13.322  31.909   3.307
44276W        W16701  39.312  27.235   2.222
44277W        W16702  38.404  41.633  12.224
44278W        W16703  16.872  28.913   2.315
44279W        W16704  11.864   1.397  14.283
44280W        W16705  44.234  33.073  12.495
44281W        W16706  11.934   8.374   4.848
44282W        W16707  21.567   7.625   3.767
44283W        W16708  35.812  32.895  12.013
44284W        W16709  31.141  31.746   4.390
44285W        W16710  29.532  21.642  11.109
44286W        W16711   3.695  31.612   2.680
44287W        W16712   0.667  20.601  13.040
44288W        W16713  27.626  22.918   2.193
44289W        W16714  43.196  41.452   3.310
44290W        W16715   2.774   3.255   1.525
44291W        W16716  14.655  22.632  13.524
44292W        W16717  34.958  20.305  14.285
44293W        W16718  27.589   4.846  13.512
44294W        W16719  20.466  35.980   4.568
44295W        W16720   5.723  12.699   4.641
44296W        W16721   2.938  16.108  12.663
44297W        W16722  21.121   6.326   2.609
44298W        W16723  41.947  31.460  10.728
44299W        W16724   8.184   6.895   1.204
44300W        W16725  11.219  39.370  13.951
44301W        W16726  24.287  17.030  14.257
44302W        W16727  24.958  11.840  10.773
44303W        W16728  34.350  39.326   2.271
44304W        W16729  14.716   0.369  14.035
44305W        W16730  25.644   1.245  14.295
44306W        W16731  44.285  39.037   2.401
44307W        W16732  12.285   4.242   4.127
44308W        W16733  10.908   3.785   2.131
44309W        W16734  41.849  38.397  14.385
44310W        W16735   8.911  21.817   3.433
44311W        W16736  28.419   6.837   3.255
44312W        W16737  44.909  25.542  10.890
44313W        W16738  20.294   3.267   3.692
44314W        W16739  35.883  12.094   4.506
44315W        W16740  24.046   2.123   4.130
44316W        W16741  26.293  19.363   2.727
44317W        W16742  29.109  19.903  14.319
44318W        W16743  44.427  12.718  10.205
44319W        W16744  20.616  31.937   5.174
44320W        W16745   5.415   1.063   3.251
44321W        W16746  17.489  24.511   3.666
44322W        W16747   9.677  22.544   1.741
44323W        W16748  27.129  10.370  14.013
44324W        W16749  20.336  35.181  11.115
44325W        W16750  27.016  11.691  11.444
44326W        W16751  18.076  21.609  14.406
44327W        W16752   0.250  24.893  11.597
44328W        W16753  18.977  41.107   1.837
44329W        W16754   1.196  16.453   0.013
44330W        W16755  10.737  23.047   1.284
44331W        W16756  18.715  36.954   2.117
44332W        W16757   3.416  11.495  14.424
44333W        W16758  17.227  21.651  13.558
44334W        W16759  35.122  30.207  13.550
44335W        W16760   6.811  43.255  13.056
44336W        W16761   5.325  18.588  13.586
44337W        W16762  44.537  13.830  12.451
44338W        W16763  24.616  44.463   4.255
44339W        W16764   1.295  12.087  11.533
44340W        W16765  17.075  15.019   2.403
44341W        W16766  26.600   9.050  10.807
44342W        W16767  40.376  26.196  13.937
44343W        W16768  35.604  24.057  13.097
44344W        W16769  15.828  42.956  14.803
44345W        W16770  12.840  14.267  14.915
44346W        W16771  10.326  24.970   1.669
44347W        W16772  19.619  11.167   2.422
44348W        W16773  31.006  24.314  12.753
44349W        W16774   4.243   9.535   4.387
44350W        W16775  13.591  31.344   0.768
44351W        W16776   2.284  39.930  11.149
44352W        W16777  27.401  20.529  11.202
44353W        W16778  22.665   3.963   3.208
44354W        W16779   8.230  10.791  12.477
44355W        W16780  15.198  30.607   0.253
44356W        W16781  17.098   1.721   2.269
44357W        W16782  20.933  18.690   3.664
44358W        W16783  10.827  12.346   3.229
44359W        W16784  11.366   9.599  14.453
44360W        W16785  23.558  10.135  10.178
44361W        W16786   7.763  33.051   0.993
44362W        W16787  13.058  43.784   0.444
44363W        W16788  44.427   1.073   4.621
44364W        W16789  27.717   1.002  12.086
44365W        W16790  44.358  36.271   5.087
44366W        W16791  27.488   6.378  13.520
44367W        W16792  27.033  18.099  12.495
44368W        W16793  17.736  22.424  11.447
44369W        W16794  32.125  38.813  11.506
44370W        W16795  21.032  32.458   3.495
44371W        W16796   6.657  34.198   1.143
44372W        W16797  42.015  14.112   3.439
44373W        W16798   3.760  11.374  11.623
44374W        W16799  43.183  35.774   4.876
44375W        W16800  37.771  44.365  14.528
44376W        W16801  14.213  31.000  14.298
44377W        W16802  34.567  37.990   0.764
44378W        W16803  38.925  27.846   4.096
44379W        W16804  19.896  24.147  11.901
44380W        W16805  44.171  43.874  10.866
44381W        W16806   9.012  38.446   3.685
44382W        W16807  24.567  26.619   2.992
44383W        W16808  37.551  21.726   0.702
44384W        W16809  31.913  32.291  11.134
44385W        W16810  29.442  22.067  14.039
44386W        W16811  34.842  10.218  10.324
44387W        W16812  13.293  17.361  12.889
44388W        W16813  41.935  10.276   4.019
44389W        W16814  16.699  22.519   0.461
44390W        W16815   6.226   5.387   3.263
44391W        W16816  27.450  21.116  10.757
44392W        W16817  32.808  31.197  13.940
44393W        W16818  10.810  36.912  10.341
44394W        W16819  39.755  12.100  11.571
44395W        W16820  11.813  23.549   2.797
44396W        W16821  29.726  21.523   0.348
44397W        W16822  28.027  44.214   1.787
44398W        W16823  36.838  18.618  14.341
44399W        W16824  31.640   5.732  12.624
44400W        W16825  29.936  39.547  12.549
44401W        W16826  24.530  42.848   1.324
44402W        W16827  15.329  11.898   0.895
44403W        W16828  32.055  43.477   5.010
44404W        W16829  27.361  27.413  11.649
44405W        W16830  40.239  42.843  13.845
44406W        W16831  32.548  40.902  14.976
44407W        W16832  37.849   0.323   5.094
44408W        W16833  32.546  43.496   3.127
44409W        W16834   2.354  33.849  10.565
44410W        W16835  29.720  35.060  12.035
44411W        W16836  35.940   3.407   1.332
44412W        W16837  21.223  41.370   0.387
44413W        W16838  16.586  18.377   1.372
44414W        W16839   9.031   2.033  11.236
44415W        W16840  36.509  23.906   0.019
44416W        W16841  38.420  43.655   4.984
44417W        W16842  37.330  11.697   3.603
44418W        W16843  43.082  25.080   3.371
44419W        W16844  14.331  10.814   1.706
44420W        W16845   8.879  21.116  13.480
44421W        W16846  15.070  33.012  14.255
44422W        W16847   0.953   2.703  13.854
44423W        W16848  25.097  12.578   2.160
44424W        W16849  44.942  33.123  12.020
44425W        W16850  43.363  30.094  14.472
44426W        W16851  41.575  26.856   1.834
44427W        W16852  10.796  18.545  10.751
44428W        W16853  33.893  18.506   2.301
44429W        W16854   4.937  17.715  13.924
44430W        W16855  33.114  18.632   2.733
44431W        W16856  11.293  20.050   2.797
44432W        W16857  17.961   3.897  10.653
44433W        W16858   7.664  33.932  11.156
44434W        W16859   2.497  33.700   2.667
44435W        W16860   2.367  43.424   2.870
44436W        W16861  21.557  32.629  11.340
44437W        W16862  37.870   7.631  11.692
44438W        W16863  26.169   4.774   3.850
44439W        W16864  11.740  40.276   2.704
44440W        W16865  39.317   7.812   0.415
44441W        W16866  42.263  11.150   2.312
44442W        W16867  25.180   1.503   2.286
44443W        W16868  16.485  29.398  11.459
44444W        W16869  24.696  17.817  14.040
44445W        W16870   5.036  40.562  10.936
44446W        W16871  20.647  30.885  10.261
44447W        W16872  42.930  40.748  12.296
44448W        W16873  36.942   9.980   4.041
44449W        W16874  44.533  44.837  11.860
44450W        W16875  30.697  19.857  14.999
44451W        W16876  33.075  20.452  14.731
44452W        W16877  23.648  40.507   2.883
44453W        W16878  15.233   5.601   1.946
44454W        W16879   3.809  40.271   2.765
44455W        W16880  35.389  43.492   1.312
44456W        W16881   2.987  37.886  12.507
44457W        W16882  42.070  13.695   2.895
44458W        W16883  10.167  27.258  11.109
44459W        W16884   3.292  19.952  10.833
44460W        W16885  12.935  42.329  14.910
44461W        W16886  14.074  42.519   2.680
44462W        W16887   4.967  23.140  12.162
44463W        W16888   6.805  40.834   3.889
44464W        W16889  39.472  17.726   4.518
44465W        W16890  38.469   8.891  12.411
44466W        W16891   2.441  13.982   3.203
44467W        W16892  43.562  17.198   4.577
44468W        W16893  42.050  34.667  10.273
44469W        W16894   5.776   0.544  10.485
44470W        W16895  34.975  15.983   0.890
44471W        W16896   0.185  12.692   3.032
44472W        W16897  40.402  37.841   2.308
44473W        W16898   3.357  13.152  13.460
44474W        W16899   1.845  43.647   2.568
44475W        W16900  34.680   8.656   2.671
44476W        W16901  12.899  17.196   4.260
44477W        W16902  40.601   8.422   4.292
44478W        W16903  33.993   1.801  11.562
44479W        W16904  42.952  41.544  13.845
44480W        W16905   3.911   5.197   1.360
44481W        W16906   1.016   3.244  14.905
44482W        W16907   2.751  24.928   1.865
44483W        W16908  35.346  20.645   3.224
44484W        W16909  17.800  36.456   1.778
44485W        W16910  41.761  13.554   1.617
44486W        W16911  15.082   8.899  14.605
44487W        W16912   7.338  18.931  11.131
44488W        W16913  42.579  12.332  10.654
44489W        W16914  24.084  32.642   2.002
44490W        W16915  37.573  38.088   3.397
44491W        W16916  38.573  13.722   3.328
44492W        W16917   7.367   9.042  12.295
44493W        W16918  18.388  21.977   2.752
44494W        W16919  15.363  37.475   1.198
44495W        W16920  12.139   8.098  14.945
44496W        W16921  43.958  18.146  12.493
44497W        W16922  38.778  18.201  10.602
44498W        W16923  19.308   6.474  12.370
44499W        W16924   5.938  14.419   3.326
44500W        W16925  12.150   7.326   4.522
44501W        W16926   9.235  34.097  13.494
44502W        W16927  38.913  15.601  14.208
44503W        W16928   8.386   8.229   5.070
44504W        W16929  32.460  29.928  11.205
44505W        W16930   9.214  23.056  14.996
44506W        W16931  27.468   9.212   3.719
44507W        W16932   6.856  29.109   2.132
44508W        W16933  25.765  41.558   1.364
44509W        W16934  40.856  26.098  14.070
44510W        W16935  36.397  21.827  12.052
44511W        W16936  33.519  29.138  10.368
44512W        W16937  40.091   0.954   5.101
44513W        W16938  18.310  16.258  11.773
44514W        W16939  24.769  35.012   2.340
44515W        W16940  44.985  15.838  13.043
44516W        W16941  18.760  15.313   2.192
44517W        W16942  22.526  24.214  12.729
44518W        W16943  10.048  27.918  11.605
44519W        W16944   1.397  26.555  12.398
44520W        W16945  44.659  23.093  13.438
44521W        W16946   5.923   0.237   3.136
44522W        W16947   7.657  17.543   3.795
44523W        W16948   9.285  11.948   0.737
44524W        W16949  30.727  17.202   0.973
44525W        W16950  17.277  28.557  13.607
44526W        W16951  43.915   8.425  11.086
44527W        W16952  38.886  32.702  12.395
44528W        W16953  39.489   0.419   5.430
44529W        W16954  17.336  26.069   2.202
44530W        W16955  30.805   8.689  11.304
44531W        W16956   1.482   3.193   1.112
44532W        W16957   6.745   4.218  10.624
44533W        W16958  30.928  44.501  12.805
44534W        W16959  17.199  34.768   0.411
44535W        W16960  20.685   0.971  11.350
44536W        W16961  32.002  30.897  10.486
44537W        W16962  16.218  41.802  11.516
44538W        W16963   5.408  13.531   4.146
44539W        W16964  11.710  39.758   2.753
44540W        W16965  25.569  32.809  12.371
44541W        W16966  18.296  30.964   4.671
44542W        W16967   3.225  14.568   4.645
44543W        W16968  15.216   9.066   0.426
44544W        W16969  14.170  36.327  10.382
44545W        W16970  32.069   7.316   2.044
44546W        W16971  15.204  29.548   3.056
44547W        W16972  34.047   5.870  10.560
44548W        W16973   6.705  33.840  11.100
44549W        W16974  43.068  40.533   3.239
44550W        W16975  22.704   6.716  14.960
44551W        W16976   5.328  10.781   0.794
44552W        W16977  20.787  17.634  10.559
44553W        W16978  10.464  21.694  10.782
44554W        W16979  21.268  21.797   3.158
44555W        W16980  35.087   9.730   0.397
44556W        W16981  28.818  37.383  12.556
44557W        W16982  24.638   7.278   2.432
44558W        W16983   4.291   9.205   2.224
44559W        W16984  37.081  25.017  10.966
44560W        W16985  31.483  31.473  12.469
44561W        W16986  10.673  44.303  12.643
44562W        W16987  44.314  24.546   1.625
44563W        W16988   5.470   2.508   1.362
44564W        W16989  29.150  10.811   3.926
44565W        W16990  13.051  11.543  13.453
44566W        W16991  14.894  38.495   3.511
44567W        W16992  41.338  26.473  13.485
44568W        W16993  44.323  12.858   0.069
44569W        W16994  32.213  11.773   1.760
44570W        W16995   2.317  15.518   2.834
44571W        W16996  10.504  41.234   3.018
44572W        W16997  43.619  41.515   0.466
44573W        W16998   6.645  25.142  13.522
44574W        W16999   3.190  33.655  10.671
44575W        W17000  20.876  18.570  13.007
44576W        W17001  31.034  27.047   0.525
44577W        W17002  10.976  25.637  14.431
44578W        W17003  22.516   1.441   0.010
44579W        W17004  36.011  14.289   3.719
44580W        W17005  28.086   1.451   3.375
44581W        W17006  43.430  14.349  12.047
44582W        W17007  37.013   9.308   0.332
44583W        W17008  11.612  10.249   5.046
44584W        W17009  32.878  11.424  10.645
44585W        W17010  36.959  37.134   0.867
44586W        W17011  12.776  16.562  11.869
44587W        W17012  30.474  35.934  10.484
44588W        W17013  27.460  14.697   3.857
44589W        W17014  13.118  26.917   4.883
44590W        W17015  34.624  36.875  10.545
44591W        W17016  40.318  15.054   0.321
44592W        W17017  16.764  29.408  14.501
44593W        W17018  26.955  31.683  11.385
44594W        W17019  20.108  39.444   2.787
44595W        W17020  31.161   0.616   3.041
44596W        W17021  31.948  43.826  12.847
44597W        W17022  36.311   1.323   3.241
44598W        W17023  13.171  21.979   9.795
44599W        W17024  33.487  24.525   4.611
44600W        W17025  40.368  20.196   2.204
44601W        W17026  31.171   9.663  12.036
44602W        W17027  13.485  32.319  12.879
44603W        W17028  37.004  18.731   2.124
44604W        W17029  28.067  26.161  10.759
44605W        W17030   5.666  22.778  11.004
44606W        W17031  11.186  11.264   2.414
44607W        W17032  21.747   9.398   0.273
44608W        W17033  28.444  24.728  14.319
44609W        W17034  21.000  41.076   1.253
44610W        W17035  15.772  25.737  10.760
44611W        W17036  15.195   6.405   3.111
44612W        W17037  31.320  36.989  10.901
44613W        W17038  18.678  37.427   5.131
44614W        W17039   1.739  29.058   3.187
44615W        W17040  29.627  16.159  13.576
44616W        W17041  16.570  21.562   0.257
44617W        W17042   1.734  27.367  13.884
44618W        W17043  30.582  39.770   0.347
44619W        W17044  15.670  44.269   0.634
44620W        W17045  36.761   8.246   2.151
44621W        W17046  31.967  43.372   0.971
44622W        W17047  15.650  13.607   3.267
44623W        W17048  25.515  28.070   1.923
44624W        W17049   7.956  23.615   3.198
44625W        W17050  33.462  41.668  11.204
44626W        W17051  28.294  30.925   0.467
44627W        W17052  19.414  30.654  11.876
44628W        W17053   2.192  19.962  14.352
44629W        W17054  20.019  25.092   5.054
44630W        W17055  42.799  27.967   3.193
44631W        W17056  11.694  22.503  11.977
44632W        W17057  32.074  23.683  11.439
44633W        W17058  26.426  36.849   0.774
44634W        W17059  25.736  27.607  14.378
44635W        W17060  43.325  38.959   1.192
44636W        W17061  36.321  14.102  10.176
44637W        W17062  37.426  27.080  13.035
44638W        W17063  24.928  36.513   1.433
44639W        W17064  16.260  38.910  13.175
44640W        W17065   0.496  24.624   1.708
44641W        W17066  26.169  29.362  12.421
44642W        W17067  28.373  42.536   2.352
44643W        W17068  35.006  15.679  14.391
44644W        W17069  11.329  14.873  14.400
44645W        W17070  29.076  30.304  12.487
44646W        W17071  27.941   1.190   1.892
44647W        W17072  11.583  32.562   2.372
44648W        W17073  30.222  30.904  14.175
44649W        W17074  31.596   6.231  14.995
44650W        W17075  36.353  35.961  11.059
44651W        W17076  11.101  37.125   1.294
44652W        W17077  13.808   8.644   3.228
44653W        W17078  13.736  15.048  10.701
44654W        W17079  27.429  41.997   4.280
44655W        W17080  11.381  44.295  10.717
44656W        W17081  35.821  33.110  12.522
44657W        W17082  37.456   0.622  11.595
44658W        W17083  28.301  36.893   2.530
44659W        W17084  16.798  32.647  11.969
44660W        W17085  22.461  19.700   1.521
44661W        W17086  35.549  11.099  10.912
44662W        W17087  41.424  40.571  14.840
44663W        W17088  23.457  10.357  13.188
44664W        W17089  20.125  42.373   3.720
44665W        W17090  39.231  42.414  14.985
44666W        W17091  28.803  11.778  12.995
44667W        W17092  31.403   4.763   3.583
44668W        W17093  16.804  13.330   0.662
44669W        W17094  25.745  18.469   4.261
44670W        W17095  38.825   7.773   0.517
44671W        W17096  20.156   6.327  14.806
44672W        W17097  15.924  36.559  12.026
44673W        W17098  20.055  22.724  14.315
44674W        W17099  13.657  18.961  13.390
44675W        W17100   5.798   5.878  11.395
44676W        W17101  12.168  41.005  14.858
44677W        W17102  36.018   7.873   3.706
44678W        W17103  15.653  13.340  11.445
44679W        W17104   5.233   9.839  10.519
44680W        W17105  24.944   7.215  14.779
44681W        W17106  12.788  39.488   3.289
44682W        W17107  24.893  11.567   0.647
44683W        W17108  43.899  12.179   4.631
44684W        W17109  40.619  13.278  12.480
44685W        W17110  29.434  25.944   2.206
44686W        W17111  12.909  35.806   1.352
44687W        W17112   8.246  31.489   3.239
44688W        W17113  30.460   1.368  14.692
44689W        W17114  18.188  41.469   3.282
44690W        W17115  38.920  32.939  14.683
44691W        W17116  23.005  33.055   4.519
44692W        W17117   9.245  44.442  14.493
44693W        W17118  42.758  29.929   3.275
44694W        W17119   9.831  17.229   1.372
44695W        W17120  42.760  12.331   2.879
44696W        W17121  23.844   2.860   4.476
44697W        W17122   8.479  14.615   4.139
44698W        W17123  13.818  33.870   3.725
44699W        W17124  18.324  38.258  13.246
44700W        W17125  29.675  32.917   5.086
44701W        W17126  13.867  41.546  13.815
44702W        W17127  16.747  35.405  12.550
44703W        W17128   7.833  35.753   2.261
44704W        W17129  22.194  22.764   2.800
44705W        W17130  27.476  29.523  14.755
44706W        W17131  37.612  27.414  13.922
44707W        W17132  23.306  38.596   2.214
44708W        W17133   4.885  20.754  11.732
44709W        W17134  20.171  44.392  12.984
44710W        W17135  10.781  15.278   4.781
44711W        W17136  34.016   8.270   4.699
44712W        W17137   2.506   1.639  11.990
44713W        W17138  29.996  40.210  14.965
44714W        W17139  22.293  25.827  13.991
44715W        W17140  16.248  38.517   3.168
44716W        W17141  41.526  19.229  10.773
44717W        W17142  16.279  31.928  14.358
44718W        W17143  44.812  42.090   2.595
44719W        W17144  44.216  43.443  13.402
44720W        W17145  31.169  41.000  12.215
44721W        W17146  30.102   9.676   0.809
44722W        W17147   6.221  15.293   0.326
44723W        W17148   4.431  14.706  14.791
44724W        W17149  15.499   1.813  10.584
44725W        W17150  30.931  22.167  11.176
44726W        W17151  34.408  30.279   2.351
44727W        W17152   4.003   5.692   0.447
44728W        W17153  20.906   5.097   4.249
44729W        W17154  29.734  41.143  12.363
44730W        W17155  29.166  44.507  10.036
44731W        W17156  38.143  14.347  14.870
44732W        W17157   5.874   6.641  14.300
44733W        W17158   8.680   7.698   4.741
44734W        W17159  40.948  26.136  12.656
44735W        W17160  30.199   1.033   1.680
44736W        W17161  13.945  23.951   0.300
44737W        W17162   9.278   4.943   4.481
44738W        W17163   5.276  18.249   4.191
44739W        W17164  35.497   0.805   4.380
44740W        W17165   5.383  42.749  13.926
44741W        W17166  26.012   1.418   1.010
44742W        W17167   2.835  18.184  14.803
44743W        W17168  28.393  40.423  11.154
44744W        W17169  30.696   0.361  12.711
44745W        W17170  22.119   2.866   3.712
44746W        W17171   5.792  41.338   3.268
44747W        W17172  20.049  28.331  11.903
44748W        W17173  22.655  20.019   2.833
44749W        W17174  41.373  44.577   1.338
44750W        W17175  42.482  26.154   1.203
44751W        W17176  32.153  36.978  12.964
44752W        W17177  15.664  34.592  12.416
44753W        W17178  41.081  33.513  14.964
44754W        W17179  37.100  21.976  13.482
44755W        W17180  22.744  31.662  11.184
44756W        W17181  15.316   0.848   1.719
44757W        W17182  29.792  28.027  12.742
44758W        W17183  43.690  37.110  14.465
44759W        W17184  14.349  26.615   2.880
44760W        W17185  11.677   8.681   2.796
44761W        W17186   4.679  16.230   1.341
44762W        W17187  44.791   0.974   0.019
44763W        W17188  41.540  32.973   1.961
44764W        W17189   1.961  21.487   1.611
44765W        W17190  40.943  28.554  13.448
44766W        W17191  26.551  28.915   0.785
44767W        W17192  39.868  16.536  12.219
44768W        W17193  31.048  30.001   4.714
44769W        W17194  17.631   1.639  13.598
44770W        W17195  17.126  28.819  12.912
44771W        W17196  14.626  16.968   0.530
44772W        W17197  23.843   8.294   5.568
44773W        W17198   0.752  20.805  11.274
44774W        W17199  19.053  28.622   2.180
44775W        W17200  42.377  30.229  10.744
44776W        W17201  21.671   2.005  12.501
44777W        W17202  31.440  29.485   2.241
44778W        W17203  15.842  19.765   4.622
44779W        W17204   0.968   4.969  13.261
44780W        W17205  32.490  18.125  11.413
44781W        W17206  24.978  16.255  14.592
44782W        W17207  19.553  30.131   5.580
44783W        W17208   5.454  32.632   4.114
44784W        W17209  39.808   5.378   0.385
44785W        W17210   2.457  41.960   1.934
44786W        W17211  43.491  18.058   0.526
44787W        W17212  18.701   2.054   5.044
44788W        W17213  24.632  33.368   0.165
44789W        W17214  41.069  27.059   1.887
44790W        W17215   9.196  14.367  11.130
44791W        W17216  31.706  21.621   1.652
44792W        W17217  34.147   8.644  14.502
44793W        W17218  17.042  27.788   4.013
44794W        W17219  19.281  42.416  12.269
44795W        W17220  10.633  17.757  13.406
44796W        W17221  33.206  28.754   2.746
44797W        W17222  32.144  21.151  11.115
44798W        W17223  14.397  38.015  12.569
44799W        W17224   9.228  10.357   3.717
44800W        W17225  25.749   9.989   1.707
44801W        W17226  20.220  12.861   5.144
44802W        W17227  15.740  39.911  12.047
44803W        W17228  35.105   9.882   3.989
44804W        W17229  20.089  12.187   2.237
44805W        W17230  12.687   8.328  13.883
44806W        W17231  32.280  11.958  13.788
44807W        W17232  27.631   7.610   2.290
44808W        W17233  28.955  43.544   1.143
44809W        W17234  17.219  29.968  11.965
44810W        W17235   8.403   3.362  10.810
44811W        W17236   6.111  42.295  12.479
44812W        W17237   3.998   3.368   4.379
44813W        W17238  44.034  21.556   4.309
44814W        W17239  22.958  20.768  12.054
44815W        W17240  36.385  43.332   4.365
44816W        W17241  28.986  41.402  10.425
44817W        W17242  17.076  10.575  10.160
44818W        W17243   6.061  27.071   0.390
44819W        W17244  16.667  12.663   3.439
44820W        W17245   8.517  29.659  14.026
44821W        W17246  20.124  31.241  12.273
44822W        W17247  15.698   5.340   1.881
44823W        W17248  37.828  30.896   0.918
44824W        W17249  30.612  23.607  10.011
44825W        W17250  26.627   3.483   4.249
44826W        W17251  44.700  26.678  12.523
44827W        W17252  22.286  34.926  13.575
44828W        W17253  38.375  26.555   4.180
44829W        W17254   2.980  37.666   4.540
44830W        W17255   3.236  17.697  13.442
44831W        W17256  34.604  16.754   4.646
44832W        W17257   1.482  26.470  10.569
44833W        W17258  16.114  20.547   0.792
44834W        W17259  33.383  35.372   4.181
44835W        W17260  44.774   3.949  11.933
44836W        W17261  27.879  32.963   4.126
44837W        W17262   3.820  33.813   2.914
44838W        W17263  31.725   0.304  13.485
44839W        W17264  33.659  35.911  12.580
44840W        W17265  10.200  31.182  13.534
44841W        W17266  11.394  15.137   0.543
44842W        W17267  32.584  14.783   4.391
44843W        W17268   2.483  44.519  14.778
44844W        W17269  42.400  16.819   2.801
44845W        W17270  38.096  37.994  11.698
44846W        W17271  38.317  13.030   1.702
44847W        W17272  15.213  22.752   2.671
44848W        W17273  18.396  13.237  11.333
44849W        W17274  42.973  43.940  14.088
44850W        W17275  30.511   9.230   1.163
44851W        W17276  14.670  44.916  12.070
44852W        W17277  31.825  24.887   3.752
44853W        W17278  30.512  19.462   2.847
44854W        W17279  41.012  32.998  14.882
44855W        W17280  36.779  42.005   1.709
44856W        W17281  29.498   3.682  12.904
44857W        W17282  35.834  29.174   2.071
44858W        W17283  24.227  15.631   3.277
44859W        W17284  32.719  38.595   2.901
44860W        W17285  21.224  32.848   3.227
44861W        W17286  31.949  33.655   4.626
44862W        W17287  16.834  16.830   1.337
44863W        W17288  23.974  35.603   4.280
44864W        W17289   8.897   3.456  10.944
44865W        W17290  25.065  14.813  14.544
44866W        W17291  28.961  29.916   1.365
44867W        W17292  21.849  24.524   4.255
44868W        W17293  17.652  33.732  10.622
44869W        W17294  18.711   7.905  14.792
44870W        W17295   1.314  16.033   1.713
44871W        W17296  18.741   8.655   4.482
44872W        W17297  20.075  16.201  12.000
44873W        W17298  10.379  22.042   2.742
44874W        W17299   7.214  34.553   3.244
44875W        W17300  14.186  33.990   2.631
44876W        W17301  23.223   1.902   0.230
44877W        W17302   9.697  18.550  12.023
44878W        W17303  15.643  37.428   2.862
44879W        W17304  38.800  12.167   2.686
44880W        W17305  33.711  15.619  13.947
44881W        W17306   0.212  36.385   4.521
44882W        W17307   7.176  41.110   0.288
44883W        W17308  26.464  41.094  13.954
44884W        W17309  37.640  25.000   5.610
44885W        W17310  34.984  43.379  10.771
44886W        W17311  26.934  19.145   2.327
44887W        W17312  13.315   9.781  13.092
44888W        W17313  15.603   6.464   4.726
44889W        W17314   8.460  15.185   0.288
44890W        W17315  44.908  27.044  14.457
44891W        W17316  21.693  13.772   2.261
44892W        W17317  42.398  27.722   0.281
44893W        W17318  27.298   6.412  14.301
44894W        W17319  36.069   5.669   1.684
44895W        W17320   5.032  44.725   1.733
44896W        W17321   2.031  44.192   3.249
44897W        W17322   7.374  17.115  12.501
44898W        W17323  26.581  25.089   0.274
44899W        W17324  41.027   4.698  13.973
44900W        W17325  11.666  43.587  14.430
44901W        W17326  37.018   3.242   0.059
44902W        W17327  37.566  40.476   1.918
44903W        W17328  41.821  40.434   3.730
44904W        W17329  32.397  30.163   4.341
44905W        W17330  43.269  29.857   0.780
44906W        W17331  27.780  28.201  10.638
44907W        W17332  25.020  10.070  10.226
44908W        W17333  10.894   4.795   3.643
44909W        W17334  37.490  36.035  11.068
44910W        W17335  10.285  19.536  11.261
44911W        W17336   3.947  18.038   4.046
44912W        W17337   4.679  31.561   4.308
44913W        W17338  28.820  14.207   1.769
44914W        W17339  16.821  30.675   2.852
44915W        W17340  30.631  16.120  13.587
44916W        W17341   6.810   5.487   3.757
44917W        W17342   0.109   6.897   2.801
44918W        W17343  36.295  28.541  13.351
44919W        W17344  28.604  16.548  10.924
44920W        W17345  26.796  26.230   2.822
44921W        W17346  25.776  31.905   3.964
44922W        W17347   1.395  11.330  12.826
44923W        W17348  18.326  38.793   4.735
44924W        W17349  34.996  29.468   2.283
44925W        W17350  13.097  30.483  14.318
44926W        W17351  25.552  42.823  10.313
44927W        W17352  37.101  35.057  12.503
44928W        W17353  13.535  13.312   3.668
44929W        W17354  18.199  22.800  14.559
44930W        W17355  17.050  38.840   1.484
44931W        W17356  34.649   1.710  11.238
44932W        W17357   7.255  38.843  10.067
44933W        W17358  19.796  28.439  12.876
44934W        W17359  22.973  40.760   4.601
44935W        W17360  13.721  10.372   2.822
44936W        W17361  18.682  22.269   0.892
44937W        W17362  11.921  31.083  11.034
44938W        W17363  23.521   5.816  12.502
44939W        W17364  35.521  35.594   2.339
44940W        W17365  26.130   5.284   4.126
44941W        W17366  36.631  13.074  11.012
44942W        W17367  37.606  42.909  11.346
44943W        W17368  42.107  30.234  13.427
44944W        W17369  39.991  41.402  11.901
44945W        W17370  20.106  26.215  11.453
44946W        W17371   0.211   3.928   3.179
44947W        W17372  11.256  27.491   2.922
44948W        W17373  15.636  39.953   9.820
44949W        W17374   6.305   8.935  11.354
44950W        W17375  28.525  22.945  13.479
44951W        W17376  14.167  43.271  12.220
44952W        W17377  32.924  30.951   4.761
44953W        W17378  43.856  11.692  10.500
44954W        W17379  24.168  31.646  14.763
44955W        W17380  23.665  38.207  14.178
44956W        W17381   5.215  16.119  12.726
44957W        W17382  43.226  14.217   0.094
44958W        W17383  38.321  33.871  10.758
44959W        W17384   2.860  25.782   1.266
44960W        W17385  42.773  26.246  12.903
44961W        W17386  13.173   2.361   3.183
44962W        W17387  25.073  25.571  13.806
44963W        W17388  32.969  15.935   1.633
44964W        W17389  42.225  41.588   2.488
44965W        W17390  25.646  40.370   4.214
44966W        W17391  13.344  19.080   2.343
44967W        W17392  18.070  21.117   0.561
44968W        W17393   7.785  18.244  13.255
44969W        W17394  20.438   8.377  13.517
44970W        W17395  14.422  37.845   4.115
44971W        W17396   9.281  15.547   0.482
44972W        W17397   7.081  41.628   0.428
44973W        W17398   6.687  21.268   1.861
44974W        W17399   1.432  30.439   3.102
44975W        W17400  41.682   5.376  12.352
44976W        W17401  31.136  37.118  14.421
44977W        W17402  21.805  20.306  12.923
44978W        W17403  11.937  36.942   4.545
44979W        W17404  12.493   0.239   3.215
44980W        W17405  28.121  28.020  10.163
44981W        W17406  43.774   3.914   4.238
44982W        W17407   9.122  35.884  11.365
44983W        W17408  16.585  43.445   3.690
44984W        W17409  19.258   4.846   3.670
44985W        W17410  31.570   6.769  11.723
44986W        W17411  15.184   9.147   1.833
44987W        W17412  25.719  26.987  14.782
44988W        W17413   9.425   6.859  12.670
44989W        W17414  36.628  25.234   4.639
44990W        W17415  14.079  15.586   4.951
44991W        W17416  40.435  32.033   2.721
44992W        W17417  43.340  14.355  12.708
44993W        W17418  39.108   4.180  11.688
44994W        W17419   3.165  11.360   1.945
44995W        W17420  17.152  13.169  12.560
44996W        W17421  10.274  40.006   2.745
44997W        W17422  38.071  31.369   0.911
44998W        W17423  15.658  11.230  10.411
44999W        W17424  20.782   9.089   0.503
45000W        W17425   2.442  21.854  10.643
45001W        W17426   0.923  29.897  13.028
45002W        W17427  34.299   5.133  11.182
45003W        W17428  25.994  20.843   3.641
45004W        W17429  20.346   8.058   3.865
45005W        W17430   2.403   5.473  12.223
45006W        W17431  41.356  39.555   4.637
45007W        W17432  44.371  11.337  13.398
45008W        W17433  31.121   1.833   4.337
45009W        W17434  35.970  33.378  12.910
45010W        W17435   3.791  11.231   0.747
45011W        W17436  34.904  19.011  13.415
45012W        W17437  28.290  32.065   3.387
45013W        W17438  28.578   0.472  14.910
45014W        W17439  28.616  17.670   4.999
45015W        W17440  24.216  38.547   4.295
45016W        W17441  31.414  34.239  13.431
45017W        W17442   7.383  37.868   5.304
45018W        W17443  33.582  34.958   0.669
45019W        W17444  39.479  29.069  13.875
45020W        W17445  43.048   1.778   1.592
45021W        W17446   3.196   6.478  12.412
45022W        W17447  44.777  43.791   0.347
45023W        W17448   3.022   4.148   3.974
45024W        W17449  16.529  10.679   4.874
45025W        W17450  15.020  19.764  10.688
45026W        W17451  32.093  27.632  12.022
45027W        W17452  42.452  31.853  12.428
45028W        W17453  22.515  30.712  11.120
45029W        W17454   2.873  13.358  13.357
45030W        W17455   9.705  28.652  14.434
45031W        W17456   7.454  21.690   1.011
45032W        W17457   8.483  35.208  13.483
45033W        W17458   4.313  43.513  11.167
45034W        W17459  17.763  44.477  14.903
45035W        W17460  13.627  32.202  14.394
45036W        W17461  41.281   0.806  12.171
45037W        W17462  11.818  35.960  14.877
45038W        W17463  36.944  44.736   4.184
45039W        W17464  42.981  41.012  11.039
45040W        W17465   4.780  44.658   5.079
45041W        W17466  31.869  40.038  12.806
45042W        W17467  20.867   7.166  11.503
45043W        W17468  34.451  27.780  11.941
45044W        W17469  25.109  34.337   3.059
45045W        W17470  13.551   2.808   4.074
45046W        W17471  32.505   9.545   1.236
45047W        W17472  25.071  21.565  11.589
45048W        W17473   4.472   5.284   3.687
45049W        W17474  20.246  25.197  13.365
45050W        W17475  44.465  24.865  12.033
45051W        W17476   1.813   4.715   2.745
45052W        W17477   1.838  21.603   1.000
45053W        W17478  28.057  38.838  13.560
45054W        W17479   8.406  21.540   0.825
45055W        W17480  10.555  35.125   2.238
45056W        W17481  41.266   9.176  12.135
45057W        W17482   1.612  21.119   4.044
45058W        W17483   2.470  44.815   4.644
45059W        W17484  11.301   9.245  11.330
45060W        W17485  35.355  35.018  14.927
45061W        W17486  30.930  32.876  13.627
45062W        W17487  39.346  27.461  14.861
45063W        W17488  23.243  16.010   2.496
45064W        W17489  20.597   1.029   1.168
45065W        W17490  28.454  17.713   4.418
45066W        W17491   9.722   7.223  14.048
45067W        W17492  29.658  38.290   2.822
45068W        W17493   3.321  21.826  11.023
45069W        W17494  23.657  28.142   0.443
45070W        W17495  44.760  34.158  14.075
45071W        W17496  21.196  41.047  14.990
45072W        W17497  34.094  22.666   0.914
45073W        W17498  43.914   0.903   0.453
45074W        W17499  38.304  38.493  11.614
45075W        W17500  13.777  30.588  12.480
45076W        W17501  30.871   8.084  10.644
45077W        W17502  34.599   0.374  13.835
45078W        W17503  35.436  41.437   1.407
45079W        W17504  15.657   2.932   3.635
45080W        W17505   7.370  19.843   1.763
45081W        W17506  25.170  44.492   0.065
45082W        W17507  34.839  21.055   1.839
45083W        W17508  19.724  41.000   2.358
45084W        W17509   6.568  39.922  13.774
45085W        W17510  40.931  34.068   4.429
45086W        W17511  29.632  15.039   0.324
45087W        W17512   5.374  41.472   4.411
45088W        W17513  35.386  23.281   1.064
45089W        W17514  41.027   3.774   2.290
45090W        W17515   0.718  21.332  13.610
45091W        W17516  25.766  43.055  11.230
45092W        W17517  29.238  36.565   0.889
45093W        W17518  17.109   6.217  10.620
45094W        W17519  43.579  29.865   3.666
45095W        W17520  10.267   3.004   4.774
45096W        W17521  44.172  19.055   4.579
45097W        W17522  34.586  18.772  10.674
45098W        W17523  31.968  17.154  13.613
45099W        W17524  15.753  21.648   0.374
45100W        W17525  15.613  16.505   0.810
45101W        W17526   8.182  12.518   4.101
45102W        W17527  19.968  43.091  13.681
45103W        W17528   2.044  37.039   2.868
45104W        W17529  11.877  22.153  10.903
45105W        W17530  20.404  42.040   3.428
45106W        W17531  16.044  42.647  12.942
45107W        W17532  18.579  33.060  12.095
45108W        W17533   3.975  24.279  11.382
45109W        W17534  28.722  22.113   2.573
45110W        W17535  22.819  16.082   3.290
45111W        W17536  16.113  33.200  11.549
45112W        W17537  32.164  21.591   0.444
45113W        W17538  14.465  14.057  12.932
45114W        W17539   8.399   0.670  11.616
45115W        W17540  31.599   9.799  13.385
45116W        W17541  15.092  22.093   2.242
45117W        W17542  26.056   7.617  13.526
45118W        W17543  38.293  36.500  13.842
45119W        W17544  19.316  30.774   2.628
45120W        W17545  22.765  44.068  12.025
45121W        W17546   7.732  18.885  13.878
45122W        W17547  10.086   1.331  12.568
45123W        W17548  40.110  31.900  10.713
45124W        W17549  15.781  18.256   4.230
45125W        W17550  39.405  12.798  11.127
45126W        W17551   1.760   2.960  13.559
45127W        W17552  27.253   7.313  10.565
45128W        W17553  12.299  29.814   1.145
45129W        W17554  29.115  44.747   4.092
45130W        W17555  42.216   8.211   1.579
45131W        W17556   6.231  40.059   2.906
45132W        W17557  24.453  25.168   1.942
45133W        W17558   8.029  14.681  10.649
45134W        W17559  42.475  12.235  13.498
45135W        W17560  30.630  19.500  11.043
45136W        W17561  14.332   8.401   1.817
45137W        W17562  15.645  21.550   0.928
45138W        W17563  19.043  37.523   0.985
45139W        W17564   1.858  28.861   1.848
45140W        W17565  13.477   5.103   4.381
45141W        W17566  20.650  26.557  13.976
45142W        W17567  13.624  43.935  13.564
45143W        W17568  16.313   2.146   1.363
45144W        W17569   8.910  16.680   0.119
45145W        W17570  31.023   2.236   2.064
45146W        W17571  32.961   9.806  13.978
45147W        W17572  21.074  30.576  13.074
45148W        W17573  29.785  28.878  12.149
45149W        W17574   9.576  41.596  11.565
45150W        W17575  41.431   6.011   3.972
45151W        W17576  13.633  37.521  10.682
45152W        W17577   4.813  38.272   3.397
45153W        W17578   0.623  21.302   2.268
45154W        W17579   1.825   1.333  11.562
45155W        W17580  11.113  15.836   4.118
45156W        W17581  10.250   8.809   0.896
45157W        W17582  28.065  11.553   0.074
45158W        W17583  23.147  38.547   2.711
45159W        W17584  21.341  10.689   3.563
45160W        W17585  34.633  32.876   3.255
45161W        W17586  40.904  43.543   2.772
45162W        W17587  20.983   2.335   1.688
45163W        W17588  33.979  23.188   2.116
45164W        W17589  38.361   7.310  10.564
45165W        W17590  37.162  41.344  11.467
45166W        W17591   2.839  23.972  14.197
45167W        W17592   4.579  36.153   2.318
45168W        W17593  21.855  44.409  14.347
45169W        W17594  23.101  18.164  13.513
45170W        W17595  26.234  44.895  12.085
45171W        W17596  38.448   3.900   0.326
45172W        W17597   7.407  42.826   3.737
45173W        W17598  41.652  21.811   0.069
45174W        W17599  34.541  24.830   3.923
45175W        W17600  22.276  25.150   0.796
45176W        W17601  35.337  37.397  11.584
45177W        W17602  28.731  24.594   0.173
45178W        W17603  31.558  29.714  13.915
45179W        W17604  19.335  43.153  13.802
45180W        W17605   9.979  25.369   5.031
45181W        W17606  43.787   0.722  12.943
45182W        W17607   7.918  32.592   3.288
45183W        W17608  32.421  29.411   0.669
45184W        W17609  14.185  22.210   4.061
45185W        W17610  22.647  28.722   1.939
45186W        W17611  36.920   0.057   1.980
45187W        W17612   1.932  14.051  11.936
45188W        W17613  42.655  25.017  10.667
45189W        W17614  32.857  27.279  13.231
45190W        W17615  38.949   8.348   1.387
45191W        W17616  36.417  36.421   0.393
45192W        W17617  31.974  43.485   4.498
45193W        W17618  22.295  33.675   1.850
45194W        W17619   8.670  27.744  10.300
45195W        W17620  33.034  12.384  14.573
45196W        W17621  32.686  24.443  12.542
45197W        W17622  32.924  20.925  14.884
45198W        W17623  19.241   7.342   4.390
45199W        W17624  24.212  10.764  11.640
45200W        W17625  27.398  32.289   3.672
45201W        W17626  26.960   4.832   3.178
45202W        W17627  32.224  27.951   2.325
45203W        W17628  30.702   4.090  11.997
45204W        W17629  41.488  44.857  10.104
45205W        W17630  44.931  32.123  12.893
45206W        W17631   2.497  42.852  10.628
45207W        W17632  24.779  41.261   1.368
45208W        W17633  44.316   1.669  10.569
45209W        W17634  35.300  19.662   1.767
45210W        W17635   7.906  18.645  14.309
45211W        W17636  30.696  28.569  14.984
45212W        W17637  35.583  24.330   3.654
45213W        W17638  40.447  16.322  14.016
45214W        W17639  24.987  17.654   0.769
45215W        W17640   1.240  33.251  13.842
45216W        W17641  42.439  27.075  13.931
45217W        W17642  28.686  38.371   0.771
45218W        W17643   6.918  14.126  13.897
45219W        W17644  27.903  35.797  10.751
45220W        W17645  34.432   0.324  14.353
45221W        W17646  42.515  27.566   3.296
45222W        W17647  23.306  21.761  12.147
45223W        W17648   8.685  26.100   4.242
45224W        W17649  16.644  42.703  14.918
45225W        W17650  14.628  44.514  14.774
45226W        W17651  43.032  14.648  14.502
45227W        W17652   5.430  20.192  12.179
45228W        W17653  18.305   3.309   4.631
45229W        W17654  29.525  10.128  11.234
45230W        W17655  15.533  23.634  14.324
45231W        W17656  17.493  40.293   1.308
45232W        W17657  37.827  14.322  13.523
45233W        W17658  20.144  44.948   0.953
45234W        W17659  24.565  26.168   1.464
45235W        W17660  29.506  22.964   3.232
45236W        W17661  34.473   7.253   4.222
45237W        W17662  22.499   2.369   4.516
45238W        W17663  19.193  14.214  12.326
45239W        W17664  10.202  43.842  12.073
45240W        W17665   5.865  28.970   3.317
45241W        W17666  21.107   9.224  13.532
45242W        W17667  27.764   7.823   3.663
45243W        W17668  21.266  24.601  14.023
45244W        W17669  29.361  10.880   3.333
45245W        W17670  19.121  29.512   2.054
45246W        W17671  29.382  32.647  14.774
45247W        W17672  18.380  20.137   2.781
45248W        W17673  16.664  13.873  11.674
45249W        W17674  17.686  14.234   1.492
45250W        W17675  38.080  38.513  12.918
45251W        W17676  20.259   2.179  12.499
45252W        W17677  29.503  42.380   1.303
45253W        W17678  37.982  39.830  11.523
45254W        W17679  44.738  13.545  14.625
45255W        W17680  34.503  21.709   2.355
45256W        W17681  37.361   6.278   3.728
45257W        W17682  11.513   4.256   2.810
45258W        W17683  32.577  19.118  10.560
45259W        W17684  31.390  26.169  13.553
45260W        W17685  38.884  22.472  12.106
45261W        W17686  27.672  44.066   4.398
45262W        W17687  15.100   9.164  11.150
45263W        W17688  24.211   3.819  12.390
45264W        W17689  41.555  18.195  12.926
45265W        W17690   2.822  40.978  11.028
45266W        W17691  15.198  33.336  14.695
45267W        W17692   0.908   3.328   4.629
45268W        W17693   1.539  29.532  13.179
45269W        W17694   7.238   7.213   0.232
45270W        W17695  24.999  28.534  13.622
45271W        W17696  43.861  19.123   4.993
45272W        W17697  36.607  12.587   1.387
45273W        W17698  27.247  42.494  11.113
45274W        W17699   3.943  44.289   0.767
45275W        W17700  18.641  31.367  11.226
45276W        W17701  39.029   1.655   3.223
45277W        W17702  27.061   4.808  12.655
45278W        W17703  14.106  16.034  10.701
45279W        W17704   4.249  39.024   3.183
45280W        W17705  18.314   5.502   4.540
45281W        W17706  39.799   4.226  10.500
45282W        W17707   9.845   9.878  14.513
45283W        W17708  38.119   8.172  12.572
45284W        W17709  24.978  29.550  14.539
45285W        W17710   0.478   7.351  12.856
45286W        W17711  18.683  35.298  13.747
45287W        W17712  43.300  38.970  11.894
45288W        W17713  11.766  30.105   0.940
45289W        W17714   7.502  33.391   4.321
45290W        W17715  11.681   1.589   0.579
45291W        W17716  29.083  11.372  13.954
45292W        W17717  31.633   3.927  12.414
45293W        W17718   4.405  27.348  13.556
45294W        W17719  32.104   8.267   4.793
45295W        W17720  17.273  39.295  10.483
45296W        W17721  14.568  20.477  14.930
45297W        W17722  31.573  23.001   1.530
45298W        W17723  36.842  29.951  10.750
45299W        W17724  13.219  32.479   0.219
45300W        W17725   5.945  21.120  12.410
45301W        W17726  33.475   5.493  11.121
45302W        W17727  17.371  29.539   3.759
45303W        W17728  44.278   7.769   2.200
45304W        W17729  30.017  44.896  10.551
45305W        W17730   7.580  13.766  12.154
45306W        W17731  19.153  32.740   5.529
45307W        W17732   9.806  38.612  11.870
45308W        W17733  33.017  32.120   4.322
45309W        W17734  16.840  39.551  13.887
45310W        W17735  41.929  29.067  13.641
45311W        W17736  27.730   8.846  12.404
45312W        W17737  32.697  25.994   0.494
45313W        W17738  36.868  38.820  14.078
45314W        W17739  17.620  25.265   2.210
45315W        W17740  10.126   9.786   1.452
45316W        W17741  17.968  28.506   2.334
45317W        W17742  35.461  38.238  13.838
45318W        W17743  30.719  34.411  12.894
45319W        W17744  23.465  30.584  14.064
45320W        W17745  23.117   8.067   4.047
45321W        W17746  34.862  34.005  13.490
45322W        W17747  40.794  18.725  13.772
45323W        W17748  44.061  23.495   2.310
45324W        W17749  39.292   2.354  10.592
45325W        W17750  42.842  21.176  14.977
45326W        W17751  33.092  36.907   3.952
45327W        W17752  19.737  17.957  11.174
45328W        W17753  26.153  41.108  14.394
45329W        W17754   2.571  35.102   1.587
45330W        W17755  40.371  17.967  10.251
45331W        W17756  34.513  42.031  13.383
45332W        W17757  17.286  17.519  11.586
45333W        W17758  23.185  21.029  13.356
45334W        W17759  19.818  26.496  12.396
45335W        W17760  21.476  13.712   4.315
45336W        W17761  10.247   9.101   9.525
45337W        W17762  26.474  30.967  10.607
45338W        W17763  12.238  28.549   2.877
45339W        W17764  30.735   6.840   2.194
45340W        W17765   8.212  38.502   2.664
45341W        W17766  21.161  37.646   1.439
45342W        W17767  24.661  34.867   0.712
45343W        W17768  16.992  22.461  11.764
45344W        W17769  28.425  16.724   1.257
45345W        W17770  15.500  19.263  14.770
45346W        W17771  41.766  36.203   2.889
45347W        W17772  10.540  22.133   1.345
45348W        W17773  13.475  42.958   2.209
45349W        W17774   9.780  36.831   3.863
45350W        W17775  31.712   4.779  10.517
45351W        W17776  21.055   3.436  10.035
45352W        W17777  39.964  44.409  13.941
45353W        W17778  36.466   4.429   3.891
45354W        W17779  36.852  19.612   0.397
45355W        W17780  32.464  28.408   2.431
45356W        W17781  16.875  24.221   1.152
45357W        W17782  12.794  15.214  14.938
45358W        W17783  21.202  38.475   3.450
45359W        W17784  31.698   4.181  13.909
45360W        W17785  37.041  42.093  12.438
45361W        W17786   1.457  42.518  11.137
45362W        W17787   8.616  35.624  13.201
45363W        W17788  35.549  40.924   1.257
45364W        W17789  13.585  24.649  10.163
45365W        W17790   2.931  35.976   3.560
45366W        W17791   5.958   3.332   0.381
45367W        W17792  21.645   2.958   2.913
45368W        W17793   6.749  25.169   1.296
45369W        W17794  29.091  20.282  14.689
45370W        W17795   8.084  22.193   2.154
45371W        W17796   8.834  24.197   0.438
45372W        W17797  37.214  12.775  10.795
45373W        W17798  19.589  43.259  13.373
45374W        W17799  27.641  10.180  12.464
45375W        W17800   5.382  21.545  12.043
45376W        W17801   4.328  39.694  11.552
45377W        W17802  37.354  18.463  12.719
45378W        W17803  40.752  17.930  11.115
45379W        W17804  34.182  32.603   3.181
45380W        W17805   2.948  10.224  14.775
45381W        W17806  23.266  15.126   4.025
45382W        W17807  33.392  25.274  12.928
45383W        W17808   1.834   7.895  14.465
45384W        W17809  33.318   3.730   4.221
45385W        W17810  20.257  28.447   3.388
45386W        W17811  17.701   9.994   4.296
45387W        W17812   2.489  44.078   2.248
45388W        W17813  21.731   5.155  12.050
45389W        W17814  19.578  18.121   1.192
45390W        W17815   4.222  26.761   2.191
45391W        W17816  19.109  28.893   3.698
45392W        W17817  27.534  38.041   4.224
45393W        W17818  17.253  16.639  12.384
45394W        W17819  18.751  16.452   4.569
45395W        W17820  29.574  31.531  13.368
45396W        W17821   7.271  11.755  13.073
45397W        W17822   4.990  33.568  12.877
45398W        W17823  20.681  16.792  13.938
45399W        W17824   7.153  10.775   0.278
45400W        W17825   1.483   3.734  12.158
45401W        W17826  18.568  28.251  14.333
45402W        W17827   3.716  33.426   2.241
45403W        W17828  19.187  24.496  10.710
45404W        W17829   0.024  21.686  14.532
45405W        W17830  16.199  12.789  11.000
45406W        W17831   7.607  43.832  13.417
45407W        W17832   7.172   6.211  14.392
45408W        W17833  21.690  14.843   3.859
45409W        W17834   8.935   3.304   0.931
45410W        W17835  41.954  16.975  12.653
45411W        W17836   5.185   7.219   2.669
45412W        W17837   9.045  27.907  11.513
45413W        W17838  41.891  26.626  11.655
45414W        W17839  21.466  20.450   3.949
45415W        W17840   8.110  13.742   0.336
45416W        W17841   1.867  34.109   1.751
45417W        W17842  20.504  18.017  10.879
45418W        W17843  19.807  18.261   4.071
45419W        W17844  12.771  33.914  10.941
45420W        W17845  32.333  34.898   0.885
45421W        W17846  20.167  18.393  14.706
45422W        W17847  11.280  30.697  12.048
45423W        W17848   7.804  43.792  13.892
45424W        W17849  25.139  30.729   1.915
45425W        W17850  42.856  34.324   1.304
45426W        W17851   3.801  27.001   3.389
45427W        W17852   8.225  21.224   3.139
45428W        W17853   9.719   3.157   2.824
45429W        W17854  26.124   1.737  13.223
45430W        W17855  41.420  30.862   0.269
45431W        W17856   3.581  42.253  14.656
45432W        W17857  23.056  30.502   1.882
45433W        W17858  37.527  30.880  12.298
45434W        W17859  20.268  31.222  14.756
45435W        W17860  39.351  33.487   0.261
45436W        W17861  22.013  40.851   0.382
45437W        W17862   4.157  12.842  14.036
45438W        W17863  32.147  13.778  14.544
45439W        W17864  21.225  29.613  14.896
45440W        W17865   3.230   8.483  14.242
45441W        W17866  23.521  42.560   0.053
45442W        W17867  11.617   5.408  12.414
45443W        W17868  34.964  44.350  13.382
45444W        W17869  40.067  14.623   0.046
45445W        W17870  11.770  19.246   3.350
45446W        W17871  33.555  34.477   0.401
45447W        W17872  23.874  27.686  12.802
45448W        W17873  18.067  24.437   3.715
45449W        W17874   8.202  41.035   4.213
45450W        W17875  37.858  37.091  14.586
45451W        W17876  44.166  14.771   3.783
45452W        W17877  44.347  29.495  14.412
45453W        W17878  35.603  38.496   0.899
45454W        W17879  27.197   0.521   3.490
45455W        W17880  30.929  34.256   4.876
45456W        W17881  12.626  14.711   4.699
45457W        W17882  44.792   4.600  13.836
45458W        W17883  39.840  10.953  11.900
45459W        W17884  38.833  39.393  10.600
45460W        W17885  36.980  19.263   4.605
45461W        W17886   5.256  43.546  13.475
45462W        W17887  16.799  21.499   1.255
45463W        W17888   7.548  23.990  11.213
45464W        W17889  30.611  32.445   0.376
45465W        W17890  36.567  23.251  13.118
45466W        W17891   5.854  39.524   2.398
45467W        W17892  27.627   9.478   0.769
45468W        W17893  44.972  37.880   2.112
45469W        W17894  23.442  33.496  14.591
45470W        W17895  30.922  30.224   1.225
45471W        W17896  34.836  26.657  12.382
45472W        W17897  31.534  21.996   1.334
45473W        W17898   3.700  38.515   1.296
45474W        W17899  36.977  23.810   4.144
45475W        W17900  29.912  12.919  14.368
45476W        W17901   0.470  20.710   2.347
45477W        W17902  23.262  27.304   2.738
45478W        W17903  20.664   0.923   3.261
45479W        W17904  41.536  40.957   1.984
45480W        W17905  29.939  21.035  10.617
45481W        W17906  30.277  28.232  10.435
45482W        W17907  39.463   0.524  14.594
45483W        W17908   4.460  39.510   1.935
45484W        W17909  31.125  38.340   4.362
45485W        W17910  29.178   4.429  12.000
45486W        W17911  20.671  14.104   1.060
45487W        W17912   4.945   5.479   1.284
45488W        W17913  16.093  33.394  11.080
45489W        W17914  41.820  21.134   4.709
45490W        W17915   7.433  38.655  13.353
45491W        W17916  31.448  10.253  12.609
45492W        W17917  26.155  34.334   3.184
45493W        W17918  13.640  32.910  12.063
45494W        W17919   3.433  15.384  13.808
45495W        W17920  40.877  43.299   3.237
45496W        W17921   4.631  36.424  14.528
45497W        W17922  10.720  32.980  14.904
45498W        W17923  17.860  15.705   4.112
45499W        W17924  11.027  39.287   0.782
45500W        W17925  41.231  44.500   1.836
45501W        W17926  33.624  37.583   3.626
45502W        W17927  39.023  33.586   3.332
45503W        W17928  17.232  12.229  14.685
45504W        W17929  13.380  32.067  14.942
45505W        W17930   6.659  30.947  13.948
45506W        W17931  39.017  29.160  12.979
45507W        W17932  11.695  22.494   3.811
45508W        W17933  33.077  31.531   3.123
45509W        W17934  35.742  32.386  11.124
45510W        W17935  30.841  20.739  12.021
45511W        W17936  41.906   2.795   4.386
45512W        W17937  12.540  28.361   2.477
45513W        W17938   4.887  12.600  11.038
45514W        W17939  13.284  37.096  13.838
45515W        W17940  37.463  15.430  13.147
45516W        W17941   2.855  35.173   4.560
45517W        W17942   0.315  15.519   4.643
45518W        W17943  20.558   1.719   4.167
45519W        W17944   8.757  28.990   4.334
45520W        W17945   6.794  41.869   3.810
45521W        W17946  10.829   8.251   0.499
45522W        W17947  13.216   7.698  14.782
45523W        W17948   9.168  15.804   3.788
45524W        W17949   9.661  38.534   4.354
45525W        W17950  29.927  34.365  13.445
45526W        W17951  20.165  36.417   2.694
45527W        W17952  40.407   0.470  14.008
45528W        W17953  24.281  29.549  14.867
45529W        W17954   8.546  32.340  13.513
45530W        W17955  25.944  33.994  12.040
45531W        W17956  42.560  11.353   4.508
45532W        W17957  10.773   1.737   3.442
45533W        W17958  30.557  18.556  11.462
45534W        W17959  25.369   8.641   4.295
45535W        W17960  15.653   5.705  13.020
45536W        W17961   2.812  32.642  12.138
45537W        W17962   3.799   5.437  14.488
45538W        W17963  33.559  25.201   4.389
45539W        W17964  33.227  36.634  14.401
45540W        W17965   2.963  28.886   4.507
45541W        W17966   5.546  17.966   3.794
45542W        W17967  11.933  31.109   4.581
45543W        W17968  29.436   9.187  13.796
45544W        W17969  29.745   3.910   4.690
45545W        W17970   7.980  17.338  11.976
45546W        W17971   5.396  24.019  14.512
45547W        W17972   4.458  43.973  12.238
45548W        W17973   0.196  15.026   1.169
45549W        W17974  21.205  11.234  14.366
45550W        W17975  25.764  18.578  12.393
45551W        W17976  28.879   3.956   1.323
45552W        W17977  18.695   4.271  11.603
45553W        W17978  36.421  10.209   4.042
45554W        W17979  37.861   3.933   4.127
45555W        W17980   8.764   7.263   3.671
45556W        W17981  31.943  44.841  14.946
45557W        W17982  20.755  23.616   0.202
45558W        W17983  34.098   7.291   3.485
45559W        W17984  30.645   0.364   0.014
45560W        W17985  33.562  12.732   2.321
45561W        W17986  35.281  35.487   3.245
45562W        W17987  20.005  41.867   3.772
45563W        W17988  34.364  38.887  10.694
45564W        W17989  42.858  14.017  11.217
45565W        W17990   6.290  28.588   4.333
45566W        W17991  14.753  23.740   1.300
45567W        W17992  35.377  43.867  11.023
45568W        W17993  24.863  11.350  12.578
45569W        W17994  24.086  32.363   1.027
45570W        W17995  24.918   7.279   1.620
45571W        W17996  25.187   2.679  14.440
45572W        W17997  14.043   7.716  12.429
45573W        W17998  18.076   3.091  11.132
45574W        W17999  37.067  35.499   4.585
45575W        W18000  41.645  44.352  10.153
45576W        W18001   1.539  38.205   3.977
45577W        W18002  15.870   0.571  10.284
45578W        W18003  33.116  37.216  13.570
45579W        W18004   5.444  17.628  13.923
45580W        W18005  24.852  33.329   1.528
45581W        W18006  25.538  16.526   0.960
45582W        W18007  38.443  36.350  14.301
45583W        W18008  10.721  28.562  11.311
45584W        W18009   8.284  14.601   3.172
45585W        W18010  33.428  24.261  12.858
45586W        W18011  37.359  37.522  12.613
45587W        W18012  40.436  18.055  12.211
45588W        W18013   1.022   8.634   1.666
45589W        W18014  11.288   5.940   0.723
45590W        W18015  43.103  33.573   1.862
45591W        W18016  39.011  38.767   0.435
45592W        W18017  35.560   6.622  14.112
45593W        W18018   8.420  38.468   1.661
45594W        W18019  16.393  24.670  12.044
45595W        W18020  21.344  40.813  11.560
45596W        W18021  30.485   6.746  14.490
45597W        W18022   7.944  11.799   3.900
45598W        W18023  10.349  19.834  10.450
45599W        W18024  25.789  15.784  12.713
45600W        W18025   5.525  22.768   1.174
45601W        W18026  13.910   9.915   2.672
45602W        W18027  19.512  17.886   3.884
45603W        W18028   1.075  41.963  14.711
45604W        W18029  34.943   8.284  11.046
45605W        W18030  31.833  32.063  11.593
45606W        W18031  25.070  24.521   3.638
45607W        W18032  17.364   1.757   0.946
45608W        W18033  32.899  41.997  13.512
45609W        W18034  31.694  14.044  14.756
45610W        W18035  17.706   2.187   1.191
45611W        W18036   9.747  25.432  11.455
45612W        W18037  33.862  19.524  12.563
45613W        W18038  28.906  34.675  11.133
45614W        W18039  27.454   0.195   1.283
45615W        W18040  42.231   7.895  12.436
45616W        W18041   4.572  42.785  11.641
45617W        W18042   6.160  41.345   0.781
45618W        W18043   2.807  26.698   1.126
45619W        W18044  18.764  23.233   2.539
45620W        W18045  15.403  28.650  10.749
45621W        W18046  34.385  20.114  10.553
45622W        W18047   6.859  28.967  12.918
45623W        W18048  28.202  36.874   2.000
45624W        W18049   3.541  34.710   0.424
45625W        W18050  22.777   3.028   1.261
45626W        W18051  42.820  29.087  12.082
45627W        W18052  31.397  24.260  13.327
45628W        W18053   9.309  23.691  13.864
45629W        W18054  30.869  22.070  12.101
45630W        W18055  16.741  25.108  14.324
45631W        W18056  28.178   6.136   0.357
45632W        W18057  36.859  42.262  12.914
45633W        W18058  25.695  33.197  14.068
45634W        W18059  41.038   6.778   3.400
45635W        W18060  16.629  40.600  14.856
45636W        W18061  29.523  20.449   0.973
45637W        W18062  42.879  22.586   3.155
45638W        W18063  43.339  33.637  14.990
45639W        W18064   3.731  35.293  11.133
45640W        W18065  38.459  32.496  13.200
45641W        W18066  17.051  41.339  11.163
45642W        W18067  13.714   7.991   2.758
45643W        W18068  25.670  39.482   0.879
45644W        W18069  14.318  26.394  13.968
45645W        W18070  24.708  17.788  11.162
45646W        W18071  20.769  33.689  14.627
45647W        W18072  17.626  13.179  14.681
45648W        W18073  13.401  39.419  14.146
45649W        W18074  39.644  34.336   2.224
45650W        W18075  42.755  14.249   0.863
45651W        W18076  20.442  30.160  14.025
45652W        W18077   8.430  35.566  12.719
45653W        W18078  37.940  37.279   2.348
45654W        W18079   5.071   6.294  14.746
45655W        W18080   9.459   0.886   4.516
45656W        W18081   4.952  36.922  10.702
45657W        W18082  29.050  42.329  13.456
45658W        W18083  18.108  44.795   2.085
45659W        W18084  22.829  24.617  12.853
45660W        W18085  20.932  34.751   4.194
45661W        W18086  44.712  17.570  12.531
45662W        W18087   9.010  16.392   4.918
45663W        W18088  31.734  15.422   1.386
45664W        W18089  20.629  35.161   3.427
45665W        W18090  34.815  43.821  14.489
45666W        W18091   5.305  15.848   1.781
45667W        W18092  39.137  32.195  11.637
45668W        W18093  22.586  20.116   0.795
45669W        W18094  30.535  10.166  14.977
45670W        W18095  32.790  32.177  11.534
45671W        W18096  39.445  27.937  12.350
45672W        W18097  43.032  25.041  14.933
45673W        W18098   6.743  43.194  11.147
45674W        W18099  26.210   7.368  13.091
45675W        W18100  33.845  29.600   2.423
45676W        W18101  44.884  22.203  12.856
45677W        W18102   1.476   7.554  12.978
45678W        W18103  13.789  25.976  11.046
45679W        W18104  10.666  22.076   2.320
45680W        W18105  24.211  16.761  13.343
45681W        W18106  24.549  21.580  10.183
45682W        W18107  21.561   2.914  13.918
45683W        W18108  17.809  38.091  14.839
45684W        W18109  14.844   3.529  13.886
45685W        W18110  28.048  14.183   4.347
45686W        W18111  12.383  21.545  12.500
45687W        W18112  22.963  31.434  13.557
45688W        W18113   5.691  40.943  11.959
45689W        W18114  32.626  32.417   4.525
45690W        W18115  17.608  38.141  10.489
45691W        W18116  38.549  18.318  11.076
45692W        W18117   6.448   0.192  11.198
45693W        W18118   6.464  22.224  12.984
45694W        W18119  41.459  10.741   2.013
45695W        W18120  33.464  38.070   2.908
45696W        W18121  21.472  25.711   1.964
45697W        W18122  17.778  25.217  13.676
45698W        W18123  27.133   3.392   4.128
45699W        W18124  42.929   5.927  11.389
45700W        W18125  25.946  15.285  12.410
45701W        W18126  10.764   8.191  14.561
45702W        W18127   9.391   4.294  11.968
45703W        W18128  10.782   5.886   5.707
45704W        W18129  20.984  41.797   4.202
45705W        W18130   4.229  23.417   3.357
45706W        W18131  32.930  11.165  11.615
45707W        W18132  40.479  41.075   4.288
45708W        W18133  24.855  32.916   1.949
45709W        W18134  32.630  21.776  11.681
45710W        W18135  34.458  26.831   2.320
45711W        W18136  41.018  15.769   1.624
45712W        W18137  11.871  32.159   4.250
45713W        W18138  33.098  21.162   0.305
45714W        W18139  18.777   0.239   0.030
45715W        W18140   0.807  30.463   1.242
45716W        W18141  20.248  29.667  14.906
45717W        W18142  14.702   2.716   2.407
45718W        W18143  30.334  42.427   4.812
45719W        W18144   2.463  18.578   0.013
45720W        W18145  10.915  42.985  13.502
45721W        W18146  31.093  40.063   4.821
45722W        W18147  23.380  14.582   2.190
45723W        W18148  42.142  39.576   0.598
45724W        W18149  34.642  15.119  11.488
45725W        W18150  43.551  26.466   0.436
45726W        W18151  39.508  21.252  10.501
45727W        W18152  36.974   6.396   2.283
45728W        W18153  24.083   8.584  12.820
45729W        W18154   0.590  17.242   1.824
45730W        W18155  24.154   4.637   4.948
45731W        W18156  43.199  35.054  14.622
45732W        W18157   9.294  26.175  11.141
45733W        W18158  41.839  21.253  14.373
45734W        W18159   6.311  15.186  12.397
45735W        W18160  37.439   5.833  14.553
45736W        W18161  20.127  26.243   0.893
45737W        W18162  17.745  17.524  14.310
45738W        W18163  38.155  16.182  13.305
45739W        W18164  41.379  14.562  14.557
45740W        W18165  17.968  14.829  14.760
45741W        W18166   7.331  43.383  10.569
45742W        W18167   1.776  11.145  14.892
45743W        W18168  35.354  26.439  12.551
45744W        W18169  32.065  22.528  10.953
45745W        W18170   0.445  29.497  11.459
45746W        W18171  23.975  40.056  12.874
45747W        W18172  41.939   4.679   0.941
45748W        W18173  18.181   2.843  11.599
45749W        W18174  32.559  26.000  13.311
45750W        W18175   1.455  39.310  12.287
45751W        W18176  42.709  18.820  12.420
45752W        W18177   3.985  24.803  11.377
45753W        W18178   5.740  36.369   3.167
45754W        W18179  13.781  39.802   0.993
45755W        W18180  29.246  39.968  12.177
45756W        W18181  23.636  23.206  10.370
45757W        W18182  41.985  35.470   0.864
45758W        W18183  35.974   0.451   2.134
45759W        W18184   9.118  42.128   0.022
45760W        W18185  35.168  25.868   1.882
45761W        W18186  28.565   1.596  11.996
45762W        W18187  11.845  22.536   2.263
45763W        W18188  39.700  44.883   3.876
45764W        W18189  29.939   2.008  10.704
45765W        W18190  40.041  27.907  13.423
45766W        W18191  10.830  24.520   0.012
45767W        W18192  30.775  23.241   4.407
45768W        W18193   8.311  40.701   4.611
45769W        W18194  26.032  16.255   2.616
45770W        W18195   7.075  27.533  14.739
45771W        W18196  27.637  40.854  11.448
45772W        W18197  17.875  31.102   1.227
45773W        W18198  28.776  39.288  14.171
45774W        W18199   4.150   8.860  13.057
45775W        W18200   7.224   7.859  12.324
45776W        W18201  25.602  23.956  12.260
45777W        W18202  42.364   3.853   0.507
45778W        W18203  44.033   9.374   2.247
45779W        W18204   4.951  30.786   4.650
45780W        W18205   4.064  39.257   3.602
45781W        W18206   3.910  26.189   1.375
45782W        W18207  40.549  40.546   1.010
45783W        W18208   5.175  10.772  12.666
45784W        W18209   6.351  18.623  14.216
45785W        W18210  36.780  36.302  14.172
45786W        W18211  29.105   7.976   3.103
45787W        W18212  41.717  31.053   1.919
45788W        W18213   0.815  44.438  10.740
45789W        W18214  16.536  27.022  12.474
45790W        W18215  23.203  31.514   0.485
45791W        W18216  11.253  15.556   4.606
45792W        W18217  19.005   9.404   1.442
45793W        W18218  28.583  30.135   9.644
45794W        W18219  17.597  12.345  11.977
45795W        W18220  43.496  36.624   3.698
45796W        W18221  22.465  22.110  13.076
45797W        W18222   8.197   4.971   3.775
45798W        W18223  44.932  11.846   2.827
45799W        W18224  32.973  40.509  12.480
45800W        W18225  24.051   1.640   0.791
45801W        W18226  32.353  17.497  13.837
45802W        W18227  20.217  44.845  11.707
45803W        W18228   0.746   1.006  14.630
45804W        W18229  39.314  38.812   3.640
45805W        W18230   8.294  28.066   0.519
45806W        W18231  22.700  35.125  13.340
45807W        W18232  15.504  22.192   4.722
45808W        W18233  33.456   4.337  14.947
45809W        W18234  19.210  16.963   1.721
45810W        W18235  21.159  34.862   2.200
45811W        W18236  13.799  38.747  11.681
45812W        W18237  10.968  21.716  10.686
45813W        W18238  17.763  44.472  11.196
45814W        W18239  21.246   1.552   2.815
45815W        W18240  33.283  36.608   1.960
45816W        W18241   7.381  35.638  10.211
45817W        W18242   3.489  28.028   1.491
45818W        W18243   3.864  27.719  12.923
45819W        W18244   4.243   1.538   0.050
45820W        W18245  11.226   5.767  14.343
45821W        W18246   6.978   4.751   3.250
45822W        W18247  11.263   7.615  11.916
45823W        W18248  18.760   4.830   2.353
45824W        W18249   2.701  30.550   2.693
45825W        W18250  33.942  33.424  12.215
45826W        W18251  42.523  20.529  10.607
45827W        W18252  12.108   2.684  13.578
45828W        W18253  25.901  13.064  11.926
45829W        W18254   7.850  20.716   1.824
45830W        W18255  40.641   3.522  14.460
45831W        W18256  30.967   1.550  13.849
45832W        W18257  14.323   3.823  13.172
45833W        W18258   7.315  14.941  13.873
45834W        W18259  25.650  21.029   2.644
45835W        W18260   4.193   4.672  14.094
45836W        W18261  12.507  21.325   1.384
45837W        W18262  28.572  32.221  13.433
45838W        W18263  14.323  19.283   2.182
45839W        W18264  42.452   2.359   2.780
45840W        W18265  11.875   1.844  13.527
45841W        W18266   4.704  26.011   1.946
45842W        W18267  27.981  24.169  14.871
45843W        W18268  37.400  31.151  11.815
45844W        W18269  30.559  43.513   0.782
45845W        W18270  43.407  19.022  14.563
45846W        W18271  33.337  20.123  12.725
45847W        W18272  42.803   3.253   3.624
45848W        W18273  25.715  16.700   3.322
45849W        W18274   3.248   4.217   3.151
45850W        W18275  16.801   0.959   2.846
45851W        W18276  29.579  29.146   4.135
45852W        W18277  44.167   9.000   3.337
45853W        W18278  24.429   4.263   0.794
45854W        W18279  19.571   4.002   0.965
45855W        W18280  16.698  15.198   4.818
45856W        W18281   2.213  18.646  14.237
45857W        W18282  16.820   2.326  10.545
45858W        W18283   4.838   4.377   2.374
45859W        W18284  29.664  34.485   3.242
45860W        W18285  32.984  26.003  14.811
45861W        W18286   1.181  21.127  12.831
45862W        W18287   6.914   8.369   3.148
45863W        W18288   0.031   6.898  10.691
45864W        W18289  16.059  33.991   4.043
45865W        W18290  13.183  18.782  13.917
45866W        W18291   9.620  34.560   4.002
45867W        W18292   6.865  30.931   2.319
45868W        W18293  39.938  14.899  11.498
45869W        W18294  28.706  27.576   4.512
45870W        W18295  41.154  35.414   3.249
45871W        W18296  23.500  17.716  11.635
45872W        W18297  10.920  10.566  10.688
45873W        W18298  27.063  19.148  14.346
45874W        W18299  41.434   7.260  13.471
45875W        W18300  44.639  21.074  11.398
45876W        W18301  14.810  12.669   2.696
45877W        W18302  18.722   6.438  10.812
45878W        W18303  21.758  25.633  13.944
45879W        W18304  16.771  13.289  13.774
45880W        W18305   1.389  33.582  13.419
45881W        W18306   1.713  29.169  12.517
45882W        W18307   1.296  25.422  14.351
45883W        W18308  36.624  22.786  12.843
45884W        W18309  24.477  41.766  13.927
45885W        W18310   4.615   5.295  13.869
45886W        W18311  26.652  39.603  11.686
45887W        W18312  38.065   7.354   4.235
45888W        W18313  20.667  28.028   2.328
45889W        W18314  27.732  44.102  14.419
45890W        W18315  40.039   9.099   1.907
45891W        W18316  20.996  11.700  14.155
45892W        W18317  24.636  18.847  14.029
45893W        W18318  28.643   5.892  13.471
45894W        W18319  43.767   4.304  11.387
45895W        W18320  14.214  10.424  13.615
45896W        W18321  22.460  22.435  14.446
45897W        W18322   8.581   7.681  12.944
45898W        W18323  14.151  29.654  10.649
45899W        W18324  27.011  33.890  14.038
45900W        W18325  30.008   7.020  14.531
45901W        W18326  35.599  32.093   1.274
45902W        W18327  35.869  29.648   1.762
45903W        W18328  38.002  30.384   1.789
45904W        W18329  28.114  12.307  14.477
45905W        W18330  38.528   8.490   1.108
45906W        W18331  15.216   6.919   3.080
45907W        W18332   6.834  10.181  12.892
45908W        W18333  44.446  36.564  14.349
45909W        W18334   0.309  43.501  13.010
45910W        W18335  38.976  28.922  12.490
45911W        W18336   1.205   3.397  12.839
45912W        W18337  38.806  18.345  12.381
45913W        W18338  16.076   6.232  11.467
45914W        W18339  35.996  16.681   2.190
45915W        W18340  23.697  42.558  14.019
45916W        W18341   8.418   2.364  12.998
45917W        W18342   7.674  13.282  13.289
45918W        W18343  24.063   1.464   0.254
45919W        W18344  29.403   9.771   1.476
45920W        W18345  33.622  40.370  11.626
45921W        W18346  13.992  42.890   2.243
45922W        W18347  21.091  13.292   2.846
45923W        W18348  42.061  44.042  10.027
45924W        W18349   8.551  32.193   5.061
45925W        W18350  10.338  24.895   4.155
45926W        W18351  19.631  19.175  13.894
45927W        W18352  19.285  11.279   1.167
45928W        W18353   4.153   4.336   0.491
45929W        W18354  12.247  21.714  13.859
45930W        W18355   3.045  12.627  14.776
45931W        W18356   7.827  10.258   0.309
45932W        W18357  36.856  42.452  13.440
45933W        W18358  19.076   2.788  11.095
45934W        W18359  38.018  27.084  13.334
45935W        W18360  20.106  34.128   4.175
45936W        W18361  14.254   5.849   1.497
45937W        W18362  22.544  25.046  13.609
45938W        W18363  24.984  29.656   3.778
45939W        W18364   8.522  27.190   1.374
45940W        W18365  40.940  33.022  11.734
45941W        W18366   7.247  40.851   4.152
45942W        W18367  21.000   8.842  13.861
45943W        W18368  37.416  22.018  12.870
45944W        W18369   7.165  37.625   0.342
45945W        W18370   1.516   7.907  12.137
45946W        W18371  34.146  20.541  14.108
45947W        W18372  32.019  41.486   4.653
45948W        W18373  36.637  12.971   1.777
45949W        W18374  44.840  29.080   2.425
45950W        W18375  17.556  25.549  11.344
45951W        W18376  41.901  12.801   2.816
45952W        W18377  35.019  14.133   2.831
45953W        W18378  13.387  22.454  14.382
45954W        W18379  34.123   7.732   1.941
45955W        W18380  22.474  15.094  13.627
45956W        W18381  25.474   5.229  14.611
45957W        W18382  29.945  13.970   2.753
45958W        W18383  43.491  26.118  14.744
45959W        W18384  11.398  39.419   1.584
45960W        W18385  23.245  21.544  13.143
45961W        W18386  11.362  33.468  11.550
45962W        W18387  29.785  24.299   3.097
45963W        W18388  27.086  25.027  14.062
45964W        W18389  28.376  15.187   0.815
45965W        W18390  39.239  18.805   1.001
45966W        W18391   4.420  15.120  11.055
45967W        W18392  31.706   4.933   3.207
45968W        W18393  37.096  27.314   0.878
45969W        W18394  14.344  42.144   0.273
45970W        W18395  16.726  30.383  12.785
45971W        W18396  41.200  12.700   2.155
45972W        W18397  26.084  39.174   0.454
45973W        W18398   9.157  28.770   2.852
45974W        W18399   2.817   9.379   1.995
45975W        W18400  41.348  37.959  13.090
45976W        W18401  19.756  13.091   3.099
45977W        W18402  26.029  25.524  11.640
45978W        W18403  20.301  38.945  12.133
45979W        W18404  10.277  29.969   0.444
45980W        W18405  42.042   7.206   0.357
45981W        W18406  32.608  10.706  10.737
45982W        W18407   1.090  42.788  14.537
45983W        W18408  28.287  22.284  12.433
45984W        W18409  16.715  18.006  13.203
45985W        W18410   1.233  32.541   2.394
45986W        W18411  37.525  23.153   0.792
45987W        W18412  32.502   5.075  10.972
45988W        W18413  33.979  17.360   1.923
45989W        W18414   1.204  36.984  14.387
45990W        W18415  43.460  16.621  10.672
45991W        W18416  19.255  27.123   1.823
45992W        W18417   7.276  17.596  12.639
45993W        W18418   3.735  25.886   0.731
45994W        W18419   8.873  38.664   0.820
45995W        W18420  43.915  32.190   0.149
45996W        W18421  11.951  35.657   4.164
45997W        W18422  13.112  39.026  13.960
45998W        W18423  21.844  10.683  13.047
45999W        W18424   3.485   9.361  11.040
46000W        W18425  31.651  21.416  11.136
46001W        W18426   7.309  31.386   3.156
46002W        W18427  41.260  36.290   2.931
46003W        W18428  26.410  11.267   0.404
46004W        W18429  31.003   0.816   4.346
46005W        W18430  20.559  11.616   1.802
46006W        W18431  20.859  32.036   3.242
46007W        W18432   3.263  29.969   4.229
46008W        W18433  27.934   4.164  12.533
46009W        W18434   2.771  37.914  10.736
46010W        W18435  18.990   3.843   4.588
46011W        W18436  21.027  27.092   0.323
46012W        W18437   8.969  28.928   1.321
46013W        W18438  42.875  22.062   3.277
46014W        W18439  23.701  30.042   0.293
46015W        W18440  27.661  27.214  12.023
46016W        W18441  41.384  34.496   3.694
46017W        W18442  11.624  10.477   4.354
46018W        W18443  27.150  37.091  11.180
46019W        W18444  41.738   0.073   4.306
46020W        W18445   5.689  39.155  13.844
46021W        W18446  36.263   7.558  10.733
46022W        W18447  35.659  26.158  12.961
46023W        W18448   8.889  33.164   0.250
46024W        W18449  14.772   3.569   2.577
46025W        W18450  14.792   0.790   2.291
46026W        W18451   1.444  26.446   3.275
46027W        W18452  11.928  28.933   4.140
46028W        W18453  41.833  43.504  14.224
46029W        W18454  19.035   4.163   1.198
46030W        W18455  17.977  29.903   3.210
46031W        W18456  36.876  24.100  11.341
46032W        W18457  40.496  27.087   0.995
46033W        W18458  21.329  36.088   0.409
46034W        W18459  43.470  36.733  11.028
46035W        W18460   7.859  43.970   4.779
46036W        W18461  11.048  12.971  12.292
46037W        W18462  23.737  18.509   3.436
46038W        W18463  13.018   2.023   4.969
46039W        W18464  10.117  12.173   0.077
46040W        W18465  18.587  17.091   0.982
46041W        W18466  12.564  43.499  12.425
46042W        W18467   0.760  41.304  13.484
46043W        W18468   3.777  12.394  14.222
46044W        W18469  20.757  37.126  13.048
46045W        W18470  41.206  34.933   0.471
46046W        W18471   6.456  17.024  12.456
46047W        W18472  20.286  27.021   3.052
46048W        W18473  42.688   1.541   1.860
46049W        W18474  13.394  17.566   4.502
46050W        W18475   8.600  32.438   0.669
46051W        W18476  39.013  13.849  14.927
46052W        W18477  22.967  29.410   4.881
46053W        W18478  19.659  42.605  11.059
46054W        W18479  38.132  32.902   4.188
46055W        W18480  38.872  24.123   0.383
46056W        W18481   1.665  44.763   0.981
46057W        W18482  17.638  34.496   0.857
46058W        W18483  41.633  37.970  11.990
46059W        W18484  27.044  11.612  13.307
46060W        W18485  23.625  13.262  14.035
46061W        W18486  10.700  39.329  14.505
46062W        W18487  43.968  25.719   1.737
46063W        W18488   9.981  27.636   1.374
46064W        W18489  14.634  39.482   4.959
46065W        W18490  30.266  33.617   2.331
46066W        W18491  42.126  43.349   2.841
46067W        W18492  33.656   1.390  10.784
46068W        W18493  20.903  15.335  12.514
46069W        W18494  35.964  44.762  12.880
46070W        W18495  41.039  17.308   1.732
46071W        W18496   4.252  13.588   2.873
46072W        W18497  41.563  41.971   1.661
46073W        W18498  44.812   7.804   4.272
46074W        W18499   8.856  37.000  12.131
46075W        W18500  26.690  41.822  14.548
46076W        W18501  10.509  34.552  11.076
46077W        W18502  42.265  35.050   1.675
46078W        W18503  42.406  38.878   2.379
46079W        W18504  18.913   1.095  14.748
46080W        W18505   0.814  41.283   3.170
46081W        W18506  28.281  14.401   1.770
46082W        W18507  44.545  17.552   1.935
46083W        W18508  28.246  31.589   4.272
46084W        W18509  31.820  40.442   2.389
46085W        W18510  11.718   4.721   2.748
46086W        W18511  29.464  15.860  12.100
46087W        W18512  17.788  24.270   3.301
46088W        W18513   4.215  14.102   2.865
46089W        W18514  38.978  29.451   0.823
46090W        W18515  36.574  26.481   1.143
46091W        W18516  28.986  24.546  12.546
46092W        W18517  41.503   2.257   0.329
46093W        W18518  24.137  15.877  12.925
46094W        W18519  32.925  16.611   3.333
46095W        W18520  12.081  32.640   3.214
46096W        W18521  31.069  23.017   0.816
46097W        W18522  23.720  21.973   0.975
46098W        W18523  29.480  26.311  13.444
46099W        W18524  27.983  39.301  13.808
46100W        W18525  32.614  44.450   3.676
46101W        W18526  39.924  24.235   2.669
46102W        W18527  33.023  22.109  11.668
46103W        W18528  37.836   2.837  13.088
46104W        W18529  10.230  38.975   1.691
46105W        W18530  27.125   9.182  10.677
46106W        W18531  22.783  18.296  13.137
46107W        W18532  28.709  10.344  13.607
46108W        W18533  22.143  42.723   3.905
46109W        W18534  13.407  21.631  13.692
46110W        W18535  24.735  15.501   0.324
46111W        W18536   9.452  34.845  14.097
46112W        W18537   9.059  41.427   3.650
46113W        W18538  23.785  30.861   3.725
46114W        W18539  13.501  34.940  12.947
46115W        W18540   0.848  36.547  10.676
46116W        W18541  22.100   0.301   4.676
46117W        W18542  28.457  29.786   2.184
46118W        W18543  21.090  26.192   2.827
46119W        W18544  35.923  12.083   1.338
46120W        W18545  30.600  21.025   3.212
46121W        W18546  15.215  20.748   4.698
46122W        W18547  19.547  33.677  12.168
46123W        W18548  14.336  16.495  10.589
46124W        W18549  18.645  31.698   4.173
46125W        W18550  35.367  20.772   4.231
46126W        W18551  40.853   5.919  12.675
46127W        W18552  16.876   5.453  14.840
46128W        W18553   8.625  39.983   1.226
46129W        W18554  16.140   8.349   2.730
46130W        W18555  17.416  17.096  13.971
46131W        W18556   4.932  16.876  13.094
46132W        W18557  13.486  39.122   1.236
46133W        W18558  36.038  34.169   0.430
46134W        W18559  22.983  35.674   0.773
46135W        W18560  21.962  20.344   2.557
46136W        W18561  25.531  11.767  13.085
46137W        W18562  43.893  14.701   1.717
46138W        W18563  41.006   1.810  12.353
46139W        W18564  17.358  10.769  12.576
46140W        W18565  29.184  11.145   4.572
46141W        W18566  25.936  30.052   2.630
46142W        W18567   8.030  40.818  11.217
46143W        W18568   9.311  15.776   2.772
46144W        W18569  30.678  44.483   2.649
46145W        W18570  10.882   5.942  11.103
46146W        W18571  13.089  31.564   3.733
46147W        W18572  30.907  37.514  12.901
46148W        W18573  11.976   0.071   3.319
46149W        W18574  34.526  40.558   2.406
46150W        W18575  19.302  39.529   3.198
46151W        W18576  23.212  38.122   1.390
46152W        W18577  29.454  35.875  14.885
46153W        W18578   8.623  25.328   3.786
46154W        W18579  22.792  25.876  12.990
46155W        W18580  13.686  14.012  14.875
46156W        W18581  16.821  20.278   4.143
46157W        W18582   0.002   6.663  14.147
46158W        W18583  25.874  14.993  13.523
46159W        W18584  43.779  36.283  14.751
46160W        W18585  26.641  23.758   1.920
46161W        W18586   0.410  20.767  14.724
46162W        W18587  43.685   9.956  13.965
46163W        W18588   4.202  22.126   4.296
46164W        W18589  34.338  33.701  11.029
46165W        W18590  10.042  36.318  14.008
46166W        W18591  24.069  23.879  14.910
46167W        W18592  18.055   9.462  11.202
46168W        W18593  35.389   5.477   2.850
46169W        W18594  32.095  36.374   2.137
46170W        W18595  32.969  35.832  11.151
46171W        W18596  27.795   3.399  11.049
46172W        W18597  15.911  24.238  11.134
46173W        W18598   5.953  15.567  12.346
46174W        W18599  26.315  18.733  11.518
46175W        W18600  21.132   1.214   3.272
46176W        W18601  21.167  22.501  12.902
46177W        W18602  38.320  18.027   4.582
46178W        W18603  20.703  28.154  13.841
46179W        W18604  20.231  42.822   1.216
46180W        W18605  35.866  34.598   3.128
46181W        W18606   1.350   4.153   2.743
46182W        W18607   2.312  37.652   3.673
46183W        W18608  25.752  15.695   1.160
46184W        W18609  43.719   2.809   0.025
46185W        W18610  44.408   3.047  11.010
46186W        W18611  24.591   8.209   2.339
46187W        W18612   8.444  44.446   2.887
46188W        W18613  15.810  16.766   4.574
46189W        W18614  43.979  32.652  13.402
46190W        W18615  36.742   9.573  11.615
46191W        W18616  32.514  38.862  14.335
46192W        W18617   4.241   7.143  14.343
46193W        W18618  22.163  35.596  14.717
46194W        W18619  35.454  43.027   2.200
46195W        W18620   4.280  43.504  11.683
46196W        W18621  34.313  12.130   2.162
46197W        W18622  43.437  25.090   1.341
46198W        W18623  22.193   9.355   4.583
46199W        W18624  23.014   8.797   1.804
46200W        W18625  13.166  33.124   3.783
46201W        W18626  14.271  44.004   4.734
46202W        W18627  35.962   0.564   3.652
46203W        W18628   9.219   4.932   2.855
46204W        W18629   6.453  32.441   4.178
46205W        W18630  31.620  26.103  13.079
46206W        W18631  40.884  33.765   3.463
46207W        W18632  29.144   2.221  11.227
46208W        W18633   8.946  28.949  10.940
46209W        W18634  39.864   3.873  13.183
46210W        W18635  29.049  37.082   2.366
46211W        W18636  37.813  40.661  12.234
46212W        W18637  18.518  13.629  12.952
46213W        W18638   3.860  39.059  13.483
46214W        W18639  26.627  12.866  14.895
46215W        W18640  11.697  36.033  10.278
46216W        W18641  18.586  33.668   4.300
46217W        W18642  43.861  21.113   4.554
46218W        W18643  26.110  43.295   3.806
46219W        W18644  20.180   9.183  11.400
46220W        W18645  40.870  20.762   0.435
46221W        W18646  36.375  42.374   2.677
46222W        W18647  41.354  32.722  10.518
46223W        W18648  34.785  34.607   3.273
46224W        W18649  35.912  21.761   2.791
46225W        W18650  43.339  36.056  13.393
46226W        W18651   9.355   9.155   3.382
46227W        W18652   4.421   2.864   2.220
46228W        W18653  43.226  34.562  14.971
46229W        W18654   7.317  22.699  13.846
46230W        W18655  18.967  26.471  12.024
46231W        W18656   0.795  43.250   3.246
46232W        W18657  15.204  20.116  12.384
46233W        W18658   5.261  12.091   2.743
46234W        W18659  27.692  20.612   3.720
46235W        W18660  43.331  18.564  10.669
46236W        W18661  10.298  32.984   1.742
46237W        W18662   6.366  28.875  13.261
46238W        W18663   3.774  38.740  14.379
46239W        W18664  25.278  11.094  11.092
46240W        W18665  26.521  31.134  11.096
46241W        W18666   4.374  34.923   2.833
46242W        W18667  19.756  35.277   1.240
46243W        W18668  33.396  20.957   1.301
46244W        W18669  23.360   5.142   1.454
46245W        W18670  10.265  19.110  10.955
46246W        W18671  10.332  27.462   2.709
46247W        W18672   3.179  11.138  12.538
46248W        W18673  42.247  20.055   0.401
46249W        W18674  38.091   4.623  12.678
46250W        W18675  21.122  36.688  13.121
46251W        W18676  29.490  33.989   3.352
46252W        W18677  43.893  21.598   1.048
46253W        W18678  43.238  10.341  10.982
46254W        W18679  18.465  35.296   3.264
46255W        W18680  25.682  23.853   1.545
46256W        W18681  41.895  41.412  10.282
46257W        W18682  21.877  14.005  14.799
46258W        W18683   7.979  16.756  12.978
46259W        W18684   0.952  35.985  13.080
46260W        W18685  15.227   5.185   3.738
46261W        W18686   4.256  25.730   3.083
46262W        W18687  13.405  35.990   4.748
46263W        W18688  36.448  19.436   3.182
46264W        W18689  16.321  30.386  13.636
46265W        W18690  14.241  20.253  12.708
46266W        W18691  25.902  23.789   3.232
46267W        W18692  44.590  27.093  13.102
46268W        W18693  43.458  17.198   0.531
46269W        W18694   7.924  35.493  10.729
46270W        W18695  11.851  36.475   2.322
46271W        W18696  14.140   1.381   2.640
46272W        W18697  41.465  44.593  14.860
46273W        W18698   7.431   5.728  12.515
46274W        W18699  16.154   3.169   2.351
46275W        W18700  40.564  22.468   2.305
46276W        W18701  27.193  31.977  14.466
46277W        W18702  10.217  12.561   4.398
46278W        W18703  15.782  14.966  10.219
46279W        W18704   3.242  32.382  14.047
46280W        W18705  33.092  14.701   4.543
46281W        W18706  27.486  11.304   1.337
46282W        W18707  27.407  36.811   3.214
46283W        W18708  16.138  10.861  11.945
46284W        W18709  36.337  11.653   1.324
46285W        W18710   8.947  33.975   2.046
46286W        W18711  37.973   7.397  10.891
46287W        W18712  44.262  19.207   3.791
46288W        W18713  42.514  33.743  11.995
46289W        W18714   9.414  34.174   0.296
46290W        W18715  21.836  19.203  11.157
46291W        W18716  14.309  30.909   1.143
46292W        W18717  30.420  15.826  14.569
46293W        W18718  37.536  17.364  11.394
46294W        W18719   1.276  22.083   4.493
46295W        W18720  35.022  17.770  13.091
46296W        W18721  28.719  10.367  12.709
46297W        W18722  11.697   6.593   4.529
46298W        W18723  28.374  28.562  13.467
46299W        W18724   2.434   9.478   2.315
46300W        W18725  23.319  13.174  11.592
46301W        W18726  19.754   4.939   0.713
46302W        W18727  42.769   8.670   1.223
46303W        W18728  17.790  34.990  14.338
46304W        W18729  26.905  20.737   1.811
46305W        W18730  12.111  35.928   3.070
46306W        W18731  12.689   4.879  14.774
46307W        W18732  35.608  16.778   0.898
46308W        W18733   2.433  34.443   4.668
46309W        W18734  39.128  32.063  14.939
46310W        W18735  37.159  15.119  13.450
46311W        W18736   6.217  13.037   2.746
46312W        W18737  30.181  40.497   0.406
46313W        W18738  39.280  43.349   0.836
46314W        W18739   9.746  14.339   3.706
46315W        W18740  31.553   1.663  14.287
46316W        W18741  20.234  20.618  12.453
46317W        W18742  26.161  13.169   5.094
46318W        W18743   9.552  25.182   3.725
46319W        W18744  28.480   4.892  12.132
46320W        W18745  11.854  12.377   2.804
46321W        W18746   5.874  10.192   0.429
46322W        W18747  16.009  40.377   4.534
46323W        W18748  28.904  18.054  11.099
46324W        W18749  36.540   0.209  12.266
46325W        W18750  36.073  44.355  10.628
46326W        W18751  33.865  38.912   3.196
46327W        W18752  29.928   9.903  14.477
46328W        W18753   6.299  25.973  14.866
46329W        W18754   6.883  19.553   0.425
46330W        W18755  12.853  16.775  13.364
46331W        W18756  19.756  44.460   2.156
46332W        W18757   4.713   0.966   0.920
46333W        W18758   3.708  43.235  14.375
46334W        W18759   7.692  24.489  13.834
46335W        W18760  33.081  40.890  14.995
46336W        W18761  27.761  10.071   3.188
46337W        W18762  31.136   1.023   3.369
46338W        W18763  34.521  35.038  11.550
46339W        W18764  17.689  24.681  11.993
46340W        W18765  18.811  28.230  10.302
46341W        W18766  44.260  10.162  14.832
46342W        W18767  44.551  41.290   2.149
46343W        W18768   4.195  22.587   4.592
46344W        W18769  35.591  23.794  11.345
46345W        W18770   7.783   3.840  13.372
46346W        W18771   2.482  42.503   2.802
46347W        W18772   1.202   9.081  14.936
46348W        W18773  40.410  16.294   0.914
46349W        W18774   2.881  40.746   0.868
46350W        W18775   1.972  38.884   4.698
46351W        W18776  25.603   6.239  12.066
46352W        W18777   1.317   6.379   2.813
46353W        W18778  10.782  13.542  13.786
46354W        W18779  11.184  44.297   3.227
46355W        W18780  37.344  34.255   3.680
46356W        W18781  22.421  35.500  12.559
46357W        W18782  37.060   4.832  12.523
46358W        W18783  35.044  37.843  11.627
46359W        W18784  29.379  30.189  11.511
46360W        W18785   2.718   9.007  12.898
46361W        W18786  38.039  18.373  14.255
46362W        W18787  35.671   5.783  14.953
46363W        W18788  29.175  29.058   3.397
46364W        W18789  43.217  19.982   3.691
46365W        W18790  14.049  22.509   1.572
46366W        W18791  42.236  44.352   1.594
46367W        W18792  28.196  32.345  11.594
46368W        W18793   8.413  11.355   2.715
46369W        W18794   5.361  42.367  12.146
46370W        W18795  11.598  37.037   2.673
46371W        W18796  35.678  13.326  13.313
46372W        W18797  23.088  36.599   1.422
46373W        W18798  19.862  37.571  14.080
46374W        W18799  12.326  25.715   2.213
46375W        W18800   5.971   0.505   3.626
46376W        W18801  33.041  29.698   3.471
46377W        W18802  14.686  34.087   3.317
46378W        W18803  34.185   2.179  11.845
46379W        W18804   7.855  43.694  14.768
46380W        W18805  20.139  22.689  11.938
46381W        W18806  19.999   9.915   0.330
46382W        W18807   9.141  38.817  12.098
46383W        W18808  19.226  30.972   4.586
46384W        W18809   6.864  29.488   2.805
46385W        W18810  28.628  10.257   2.168
46386W        W18811  40.538  23.602  10.991
46387W        W18812  14.205  16.644  13.676
46388W        W18813  14.990  40.405   1.784
46389W        W18814   9.555   8.778  11.049
46390W        W18815   0.590  35.324  11.453
46391W        W18816  28.141  16.841   2.080
46392W        W18817  20.727  37.920   1.419
46393W        W18818  16.234   7.454  12.546
46394W        W18819  16.542   7.574   0.951
46395W        W18820  29.599   3.467   2.419
46396W        W18821  26.826   8.641   1.733
46397W        W18822  27.041   4.117   4.881
46398W        W18823   8.664  28.614   2.854
46399W        W18824   4.458  29.555  13.880
46400W        W18825   5.655  31.032   3.070
46401W        W18826   5.220  33.540   3.719
46402W        W18827  28.455  28.708   4.142
46403W        W18828  26.407   1.305  13.486
46404W        W18829  28.714  13.176  12.646
46405W        W18830  21.595  41.311  14.058
46406W        W18831  37.279  39.132   1.223
46407W        W18832  40.473  12.559  10.312
46408W        W18833  37.942  37.563  11.424
46409W        W18834  18.695  15.406   4.065
46410W        W18835  12.316  41.067   2.601
46411W        W18836  38.510   6.583  14.835
46412W        W18837  25.717   0.296   3.423
46413W        W18838  17.536  17.770   3.998
46414W        W18839  33.457  37.030  14.721
46415W        W18840  43.850  21.626  14.068
46416W        W18841  43.984  40.202   1.382
46417W        W18842  42.963  44.775   3.122
46418W        W18843  36.905  27.529  12.924
46419W        W18844  14.247  39.277   4.151
46420W        W18845   1.084   6.338   1.151
46421W        W18846  43.578   5.035  14.660
46422W        W18847  41.102  11.212  11.096
46423W        W18848  31.713   1.208   4.506
46424W        W18849  12.255  32.643  12.416
46425W        W18850  25.973  13.255   4.086
46426W        W18851  18.112  36.121   0.975
46427W        W18852   3.602  37.059  12.510
46428W        W18853  19.189  25.634   5.013
46429W        W18854   0.503   7.942  12.099
46430W        W18855  37.997   6.005   2.516
46431W        W18856  26.363  38.503  12.464
46432W        W18857  19.818  43.439   3.843
46433W        W18858  23.536  27.881   4.318
46434W        W18859  21.617  16.153  13.449
46435W        W18860  17.684  35.343  12.096
46436W        W18861   4.317  18.604   0.039
46437W        W18862   6.940  10.757   2.803
46438W        W18863   3.740  10.207  12.897
46439W        W18864  34.349  28.785  14.487
46440W        W18865  41.993  44.534   9.831
46441W        W18866  37.495  25.238   0.342
46442W        W18867  44.007   4.418   0.430
46443W        W18868  36.885  16.612  13.531
46444W        W18869  39.434   0.250  13.610
46445W        W18870  33.034  14.026   1.383
46446W        W18871  20.703  11.399  14.526
46447W        W18872  20.785  13.748   2.167
46448W        W18873  28.415   3.495   3.811
46449W        W18874   0.409  24.410  11.594
46450W        W18875  19.137   8.132  13.180
46451W        W18876  35.558  15.025   4.505
46452W        W18877   3.397  15.589   1.232
46453W        W18878  38.289  44.521   4.607
46454W        W18879   6.366  23.058  12.105
46455W        W18880  25.082  18.724   2.709
46456W        W18881   8.778  11.892  13.419
46457W        W18882  36.500  40.352  14.035
46458W        W18883  39.120  35.292  10.274
46459W        W18884  44.481   1.903   2.926
46460W        W18885  19.746  27.914  12.963
46461W        W18886  43.284   8.668   2.115
46462W        W18887  23.525  31.660   3.345
46463W        W18888  17.528  32.680  10.172
46464W        W18889   1.589  14.420  12.099
46465W        W18890  23.311  11.300  10.304
46466W        W18891  11.469  19.021  11.556
46467W        W18892  12.845  20.606   1.777
46468W        W18893   4.178  22.227   1.906
46469W        W18894   8.063  29.000  12.307
46470W        W18895  18.307   1.214   5.045
46471W        W18896  27.262  10.306   0.520
46472W        W18897  20.237  36.995   3.742
46473W        W18898   1.776  23.493   0.793
46474W        W18899  20.276   4.171   0.846
46475W        W18900   9.955  17.744   2.844
46476W        W18901  23.611  23.554   4.394
46477W        W18902  38.078  13.018  12.150
46478W        W18903  18.810  38.976   0.663
46479W        W18904  32.565  10.557   0.279
46480W        W18905  16.800   1.295   3.410
46481W        W18906   0.210  38.056   0.440
46482W        W18907  23.427   1.206   3.284
46483W        W18908  25.080   9.747   0.261
46484W        W18909  30.873  21.257   3.581
46485W        W18910   2.253   7.091   4.193
46486W        W18911  30.481  37.678   2.841
46487W        W18912  43.458   9.028  14.483
46488W        W18913   2.451   6.745   2.292
46489W        W18914  33.820   4.245  12.073
46490W        W18915  36.974  15.784  11.540
46491W        W18916  43.788  22.048   0.787
46492W        W18917  16.409  12.693   1.070
46493W        W18918  42.114  25.990  14.310
46494W        W18919   3.944  22.704  14.920
46495W        W18920  30.059   9.340  11.274
46496W        W18921   5.887   9.132  11.173
46497W        W18922  18.189   1.007   1.832
46498W        W18923   1.230  30.111   0.431
46499W        W18924  24.460  13.702  12.514
46500W        W18925  22.396  29.592  13.484
46501W        W18926  16.748  38.013   0.546
46502W        W18927   4.239   7.832  11.629
46503W        W18928  26.824  38.567  14.730
46504W        W18929  22.109  37.338   3.139
46505W        W18930  11.449  39.877  12.584
46506W        W18931  23.802  30.762   1.710
46507W        W18932  40.830  26.945  14.628
46508W        W18933   1.729   3.983  13.440
46509W        W18934  44.832  44.449  12.073
46510W        W18935  21.543  19.578  13.992
46511W        W18936  13.430  35.950  10.059
46512W        W18937  33.599  19.715  10.884
46513W        W18938  40.168  22.927   1.739
46514W        W18939   8.762  15.138  14.834
46515W        W18940  26.719  14.186   0.418
46516W        W18941  21.598  39.374  11.543
46517W        W18942  40.627  36.091  14.828
46518W        W18943  30.511   0.750  11.992
46519W        W18944  34.697  12.430   0.729
46520W        W18945  25.756  44.018   3.729
46521W        W18946   1.965  28.665  13.357
46522W        W18947  16.021   6.737   0.636
46523W        W18948  25.556  13.709  10.684
46524W        W18949  36.082  40.355   1.678
46525W        W18950  24.361   9.453   4.198
46526W        W18951  19.767   2.301  12.363
46527W        W18952  18.514  23.180  14.931
46528W        W18953  32.644  31.159  13.443
46529W        W18954  14.140  35.455   0.852
46530W        W18955  34.118  10.321  13.373
46531W        W18956  39.980  14.335   2.793
46532W        W18957  14.554  27.215  10.377
46533W        W18958  30.010  23.032   2.638
46534W        W18959  23.552  20.243   1.639
46535W        W18960  22.239  32.396  12.144
46536W        W18961  20.701  32.154   3.726
46537W        W18962  24.718  37.090   2.845
46538W        W18963  23.412  32.351  11.616
46539W        W18964  35.900  31.876   3.795
46540W        W18965  39.260  42.402   2.850
46541W        W18966   5.450  27.147   1.271
46542W        W18967  13.432  16.042   3.301
46543W        W18968  32.264  23.789  14.373
46544W        W18969  39.974  18.510   4.437
46545W        W18970  15.063  36.829   0.226
46546W        W18971  28.886  26.936   3.680
46547W        W18972  40.483  43.036   0.543
46548W        W18973  30.091  34.567   0.756
46549W        W18974  20.731  18.708  14.025
46550W        W18975  16.256   3.373   0.935
46551W        W18976   1.760   4.507   0.422
46552W        W18977  39.610  19.729   2.273
46553W        W18978  37.522   9.812   0.908
46554W        W18979   5.677  26.952   4.129
46555W        W18980  19.181   6.429   0.042
46556W        W18981  44.398   0.802   5.093
46557W        W18982  35.026  23.148  10.483
46558W        W18983  41.461  18.706   3.627
46559W        W18984  33.893   8.362   3.758
46560W        W18985   8.178   2.253  13.438
46561W        W18986  16.363  42.340  14.644
46562W        W18987  30.565   3.708  10.553
46563W        W18988  24.981  20.503   4.288
46564W        W18989  26.718  11.772   3.613
46565W        W18990  41.931   7.248  11.210
46566W        W18991  35.620  14.815   0.893
46567W        W18992  30.413  25.423   3.628
46568W        W18993  43.306  37.965   3.944
46569W        W18994  20.043  15.704  14.382
46570W        W18995  22.070   5.219  12.852
46571W        W18996  21.497   8.093  14.926
46572W        W18997  43.320  37.271   0.416
46573W        W18998  15.114  35.955   1.393
46574W        W18999   3.337   9.092   3.205
46575W        W19000   8.470  27.217  12.939
46576W        W19001   7.172  34.231   4.038
46577W        W19002  12.789   8.775   4.962
46578W        W19003  28.375  35.614  11.243
46579W        W19004  21.412  38.849   1.530
46580W        W19005   6.253  36.397   5.090
46581W        W19006  35.197  30.795   0.489
46582W        W19007  17.080  44.880  14.536
46583W        W19008  33.475  21.493   1.271
46584W        W19009  40.594  21.018   5.146
46585W        W19010   0.435  29.444   1.471
46586W        W19011   7.486  42.439   2.438
46587W        W19012  39.503  37.297  11.556
46588W        W19013  35.422  15.766  11.421
46589W        W19014  16.772   1.867  10.309
46590W        W19015  32.307  28.122   9.740
46591W        W19016  14.501  27.254   2.272
46592W        W19017  35.382  30.644  13.371
46593W        W19018  40.981  28.033   3.715
46594W        W19019  23.170   8.309  10.293
46595W        W19020  15.750  15.174   2.452
46596W        W19021  31.356  30.180   4.328
46597W        W19022  40.579   0.689  11.440
46598W        W19023   8.278  32.318   4.079
46599W        W19024   3.815   2.222   4.592
46600W        W19025  22.372   7.642  14.928
46601W        W19026   2.385  26.451  10.671
46602W        W19027  31.029  11.871   3.664
46603W        W19028  43.131  12.839  10.184
46604W        W19029  41.043  42.519  14.007
46605W        W19030  40.615  29.219   0.387
46606W        W19031   8.568  32.937   1.323
46607W        W19032  15.764  27.478  12.224
46608W        W19033  13.560  31.843   0.676
46609W        W19034  30.104  37.054   0.169
46610W        W19035   9.770  30.687  14.313
46611W        W19036  21.394  24.962  11.118
46612W        W19037  35.205  11.236   0.711
46613W        W19038  14.803  27.964  11.614
46614W        W19039  30.267  23.272   4.542
46615W        W19040  41.763  42.542  11.071
46616W        W19041   1.999  21.016   1.392
46617W        W19042  14.209  44.263  12.962
46618W        W19043   5.316  44.928  13.154
46619W        W19044  15.049  32.192   4.380
46620W        W19045  29.646  13.211   1.640
46621W        W19046   0.965  36.432  11.163
46622W        W19047   3.444  36.410  11.031
46623W        W19048   3.426  22.089   4.753
46624W        W19049  39.363  20.790   0.405
46625W        W19050   5.347   9.172   3.208
46626W        W19051  13.420  17.336  14.375
46627W        W19052  41.641  16.741  11.097
46628W        W19053  18.877  14.208  14.563
46629W        W19054  20.271   1.671  12.397
46630W        W19055  19.679  13.384   0.979
46631W        W19056  22.851  24.563   4.339
46632W        W19057   4.671  28.568   1.315
46633W        W19058  33.106  43.736   3.644
46634W        W19059  18.030  27.545  11.068
46635W        W19060  29.630  31.223   1.138
46636W        W19061   3.376  35.393   0.939
46637W        W19062  39.473  23.466  12.436
46638W        W19063  16.820  27.127   4.676
46639W        W19064  38.423   0.156   3.619
46640W        W19065  16.554   9.148  10.893
46641W        W19066   1.717   4.477   0.938
46642W        W19067  30.608  26.128   3.231
46643W        W19068  13.362  32.602   4.626
46644W        W19069  44.710  34.578   0.297
46645W        W19070   7.717  14.123   2.192
46646W        W19071   4.957  27.229   2.395
46647W        W19072  15.568  24.469   1.429
46648W        W19073  12.850  33.944   3.726
46649W        W19074  41.984  41.519   2.959
46650W        W19075  37.854  10.313  14.952
46651W        W19076  24.240  22.915   2.606
46652W        W19077  41.615  18.725   1.239
46653W        W19078  14.907  13.883  13.973
46654W        W19079  20.648  30.868  11.150
46655W        W19080   6.015  13.822  14.784
46656W        W19081  25.629  39.405   1.755
46657W        W19082  16.142  10.815  11.036
46658W        W19083  42.797  17.221   4.063
46659W        W19084  20.508   7.259   3.294
46660W        W19085   0.472  20.588   1.831
46661W        W19086  14.348  13.767  13.367
46662W        W19087  28.889  28.599   0.801
46663W        W19088  26.239  41.873  11.492
46664W        W19089  16.344  40.182   1.939
46665W        W19090  33.472  11.976   0.203
46666W        W19091  43.036  41.013   0.011
46667W        W19092  27.581  22.680   4.710
46668W        W19093  19.548  10.836  14.386
46669W        W19094  26.993  23.256  11.097
46670W        W19095   7.263  25.085   0.386
46671W        W19096  43.248  30.723  14.769
46672W        W19097  13.961  13.519  11.123
46673W        W19098  22.882  20.780  10.662
46674W        W19099  35.432  16.670   1.388
46675W        W19100   4.620  42.434   4.730
46676W        W19101   8.237   5.077  13.026
46677W        W19102  18.209  38.248   0.175
46678W        W19103  26.778  10.754  10.647
46679W        W19104  14.132  10.761  10.484
46680W        W19105  10.027  17.587  14.041
46681W        W19106  23.217  33.470   0.541
46682W        W19107  43.289  34.556  12.667
46683W        W19108  33.384  36.000   1.308
46684W        W19109  19.084  12.362   2.339
46685W        W19110  43.396   5.694   1.356
46686W        W19111  44.984  22.798   1.796
46687W        W19112  29.055   7.249   3.567
46688W        W19113  42.355  10.317  13.725
46689W        W19114   4.907  20.025  11.497
46690W        W19115  30.948   1.325   4.133
46691W        W19116  27.944  37.871   0.981
46692W        W19117  31.346  35.383  13.887
46693W        W19118   4.408   9.639   1.326
46694W        W19119  38.315  35.536   1.799
46695W        W19120  17.434  16.568  11.584
46696W        W19121  16.299  36.622  13.941
46697W        W19122   3.868  22.466  13.882
46698W        W19123  17.193   3.592   4.139
46699W        W19124  41.434  13.208  11.175
46700W        W19125  31.328  20.942   0.926
46701W        W19126  43.998  14.286   3.781
46702W        W19127  39.462  16.859  10.837
46703W        W19128  11.189   4.265   1.134
46704W        W19129   2.363  43.765  13.633
46705W        W19130  19.816  37.113  11.207
46706W        W19131   1.388  36.870  10.739
46707W        W19132   7.849   6.648   4.982
46708W        W19133  35.109  29.354  12.924
46709W        W19134   3.216  11.340  11.631
46710W        W19135  42.814   0.775  12.978
46711W        W19136  36.826  36.124  12.342
46712W        W19137   1.947  36.614  14.710
46713W        W19138   3.556  14.592   3.352
46714W        W19139  38.570  31.428  13.334
46715W        W19140  25.951   5.171  11.611
46716W        W19141  21.019   6.791  12.447
46717W        W19142  34.089  13.448   2.314
46718W        W19143  14.351  42.939  14.724
46719W        W19144  27.456  15.866   2.374
46720W        W19145  18.654   4.267   4.435
46721W        W19146  44.786   6.713   1.698
46722W        W19147   9.404  43.273  11.951
46723W        W19148  39.802  10.229  11.653
46724W        W19149  13.428  23.718   9.867
46725W        W19150  22.305   9.397  13.235
46726W        W19151  14.385   4.743   3.276
46727W        W19152   0.416   0.460  13.142
46728W        W19153  13.050  15.075  11.993
46729W        W19154   7.605  23.527  11.966
46730W        W19155   8.067  42.346   4.028
46731W        W19156  19.246  26.913   4.107
46732W        W19157  25.726  38.627  11.992
46733W        W19158  26.133  40.219   2.637
46734W        W19159   9.846  10.759   4.824
46735W        W19160  32.422  11.562   1.353
46736W        W19161  18.774  39.863  12.021
46737W        W19162  13.778  18.657   0.202
46738W        W19163  44.446   3.149  12.088
46739W        W19164  22.131   3.156  11.352
46740W        W19165   1.090  21.129  11.022
46741W        W19166  33.082  30.829  13.508
46742W        W19167   0.686  43.038   1.007
46743W        W19168  28.245  10.237   3.299
46744W        W19169  23.184   9.524   1.838
46745W        W19170  38.146  22.143  14.549
46746W        W19171  22.159  28.046   2.087
46747W        W19172  17.111  11.830  11.171
46748W        W19173   3.232  10.823  11.122
46749W        W19174   2.213  16.732  11.965
46750W        W19175   4.145   6.080  13.452
46751W        W19176  20.718  42.202  12.547
46752W        W19177  33.610   6.817  10.733
46753W        W19178  22.774  37.847  10.047
46754W        W19179  11.456   7.392  14.770
46755W        W19180  32.366   2.037   1.186
46756W        W19181  42.488  10.149  13.174
46757W        W19182  16.007  13.343  12.045
46758W        W19183  13.893   9.865  11.547
46759W        W19184   5.606  40.031  13.379
46760W        W19185   9.084  32.317  11.946
46761W        W19186  18.393  22.490   2.757
46762W        W19187   6.310  43.473   1.847
46763W        W19188  38.840   3.361  12.561
46764W        W19189  24.173  21.764  12.708
46765W        W19190  26.426  29.071   4.072
46766W        W19191  18.178  35.052   3.670
46767W        W19192  15.364  16.501   4.628
46768W        W19193  34.056  12.320  14.936
46769W        W19194  31.613   7.829  13.952
46770W        W19195  25.692  35.195  13.919
46771W        W19196  38.815  23.734   2.662
46772W        W19197  12.249  27.454  13.036
46773W        W19198   4.829   5.464  10.683
46774W        W19199  15.144  19.473  12.600
46775W        W19200  21.260  32.097   1.194
46776W        W19201  37.152  41.478   0.228
46777W        W19202  28.674   8.694   2.459
46778W        W19203   9.863  18.121   0.753
46779W        W19204  15.220  24.388   5.452
46780W        W19205  30.194  30.714  11.991
46781W        W19206   6.632   8.522   4.995
46782W        W19207  28.266  42.828   4.174
46783W        W19208  30.042  43.191  13.507
46784W        W19209  13.324  16.827   0.374
46785W        W19210  26.473  25.023   1.638
46786W        W19211  42.255  31.555   4.397
46787W        W19212  27.424  34.919   0.780
46788W        W19213   6.169   1.260   1.331
46789W        W19214  22.225  12.348   4.254
46790W        W19215   0.791  15.395  13.442
46791W        W19216   9.442  17.220   0.479
46792W        W19217   2.233  43.686   3.660
46793W        W19218  39.003  21.138   0.266
46794W        W19219  36.447  26.320   5.543
46795W        W19220  26.815   3.521   2.823
46796W        W19221  21.957   9.330   2.795
46797W        W19222   2.233  25.082  14.408
46798W        W19223  22.905  44.410   2.838
46799W        W19224  11.554  38.092  10.606
46800W        W19225  13.575  23.615  14.479
46801W        W19226  15.430  31.191  11.437
46802W        W19227  26.667   1.807   4.908
46803W        W19228  25.932  34.045   2.273
46804W        W19229  16.600  26.047  12.452
46805W        W19230  30.380  32.981   1.357
46806W        W19231  41.502  14.799   3.575
46807W        W19232  22.603  36.501   2.683
46808W        W19233   8.273   0.984  13.839
46809W        W19234  24.004  11.333   1.453
46810W        W19235  39.427  40.358   4.136
46811W        W19236  20.078  35.448  12.088
46812W        W19237  19.485  41.044   1.866
46813W        W19238  30.167  10.920  12.481
46814W        W19239  24.185  42.557  13.813
46815W        W19240  40.300   5.372   2.322
46816W        W19241  32.325  24.108  13.961
46817W        W19242  17.675  15.288   0.452
46818W        W19243  31.646  24.640  14.926
46819W        W19244  32.657  24.102   0.770
46820W        W19245  20.151  12.101  10.555
46821W        W19246  12.825   4.225   1.923
46822W        W19247   6.361   1.735   4.431
46823W        W19248  27.784  37.835  11.292
46824W        W19249   9.840   7.775   3.203
46825W        W19250  27.196  16.968  14.351
46826W        W19251  32.363   8.664  12.096
46827W        W19252  41.816  40.886  13.147
46828W        W19253  37.479  31.437  13.457
46829W        W19254  18.104  35.063  12.529
46830W        W19255  17.250   8.783   1.294
46831W        W19256  23.890  16.362   4.315
46832W        W19257  28.876  19.777  11.593
46833W        W19258   7.290  40.984  11.636
46834W        W19259  21.488  17.168  13.915
46835W        W19260  35.769  39.276  12.360
46836W        W19261   7.768  40.780   1.774
46837W        W19262   0.421  38.406   1.369
46838W        W19263  30.052  20.066  13.803
46839W        W19264  37.451   5.915  12.303
46840W        W19265  18.515   5.975  10.884
46841W        W19266   3.479  20.765   1.848
46842W        W19267  28.182  31.597  12.950
46843W        W19268  39.734  42.353  11.324
46844W        W19269  31.156  11.913   1.783
46845W        W19270  32.694  32.079  12.564
46846W        W19271   5.117  10.710  10.523
46847W        W19272   7.453  42.890   4.605
46848W        W19273  31.692   0.418  14.895
46849W        W19274   8.801  24.541  13.477
46850W        W19275   7.058  39.815   2.234
46851W        W19276  21.449  38.935  13.487
46852W        W19277  16.553  13.870  12.928
46853W        W19278  23.287  11.937   4.559
46854W        W19279  34.428  28.722   4.267
46855W        W19280  15.212  21.007  13.410
46856W        W19281  14.802  29.567  11.551
46857W        W19282  39.917   3.845  11.322
46858W        W19283  14.735   5.685  14.798
46859W        W19284  17.341  23.235   2.380
46860W        W19285   3.736  24.066   2.815
46861W        W19286  18.239  16.232   2.720
46862W        W19287   3.514  27.546  14.300
46863W        W19288  35.349  22.201   0.412
46864W        W19289  10.480   1.022  10.764
46865W        W19290  29.899  30.491  14.060
46866W        W19291  21.552  16.763   4.522
46867W        W19292  44.923  24.003   1.170
46868W        W19293  41.844  43.630   1.118
46869W        W19294  37.540  35.333  12.446
46870W        W19295   9.386  25.668   4.894
46871W        W19296  32.414  30.048  13.899
46872W        W19297  38.347  42.030   3.361
46873W        W19298  39.477  40.681  13.511
46874W        W19299  38.986   3.831   0.525
46875W        W19300  21.809  39.122   1.000
46876W        W19301  35.122  34.915   4.126
46877W        W19302   2.343  11.665   0.194
46878W        W19303  30.713   4.956  10.297
46879W        W19304  42.805  14.130   2.341
46880W        W19305  17.864  35.792   4.583
46881W        W19306  41.188  24.952   4.186
46882W        W19307   0.833  16.701   4.535
46883W        W19308  21.183  21.225   2.193
46884W        W19309  30.173  19.578  14.361
46885W        W19310  37.921  30.655  14.952
46886W        W19311   8.300  19.702  10.695
46887W        W19312   8.053   3.365  13.960
46888W        W19313  17.369  44.093   2.436
46889W        W19314  16.232   1.955   2.716
46890W        W19315  26.528  35.258  12.957
46891W        W19316  29.458   6.701  11.476
46892W        W19317  36.970  44.549   2.824
46893W        W19318  31.271  19.135   0.852
46894W        W19319  30.507   3.052   3.091
46895W        W19320   9.298   3.342   4.457
46896W        W19321  19.862  33.019  10.473
46897W        W19322   9.840   3.098  14.440
46898W        W19323   5.958  32.298  12.675
46899W        W19324  22.498  33.513  14.428
46900W        W19325  29.332   7.847  13.763
46901W        W19326  18.831  40.495  12.396
46902W        W19327  40.852  30.835   2.408
46903W        W19328  39.316  36.314  12.446
46904W        W19329  29.077   8.129  12.339
46905W        W19330  19.210  28.740   4.563
46906W        W19331  37.097  28.064  11.098
46907W        W19332  41.324  28.403   4.621
46908W        W19333  36.464   8.689  11.264
46909W        W19334  21.158   6.344  11.589
46910W        W19335   7.891  34.829  10.257
46911W        W19336  16.047   5.323   0.822
46912W        W19337  31.924  11.348   1.213
46913W        W19338  16.063   1.847  11.684
46914W        W19339  21.580  31.925  12.637
46915W        W19340  23.160  25.472  14.922
46916W        W19341  21.654  44.978  12.452
46917W        W19342  16.444  20.104   1.997
46918W        W19343  41.934  41.254  14.730
46919W        W19344  26.113  21.235   2.695
46920W        W19345  40.319  24.730   2.867
46921W        W19346   9.875  33.532  12.597
46922W        W19347   3.389  20.540   4.589
46923W        W19348   1.316  31.442   4.386
46924W        W19349  33.752  24.223   1.796
46925W        W19350  19.485   1.901   2.156
46926W        W19351  12.339  40.854  11.626
46927W        W19352  39.408  24.956   0.962
46928W        W19353  28.896   1.682  13.425
46929W        W19354   5.348  34.523  12.463
46930W        W19355  41.276  41.948  11.507
46931W        W19356   3.283  37.472  14.978
46932W        W19357  42.620  31.710  11.599
46933W        W19358  20.194  26.624   3.738
46934W        W19359  37.753  41.681  12.780
46935W        W19360   4.089   2.404  12.634
46936W        W19361  19.214  20.995   4.546
46937W        W19362  41.125  30.090   3.726
46938W        W19363  30.723  17.682   1.333
46939W        W19364  35.129  34.363   1.631
46940W        W19365  21.979  19.774  13.775
46941W        W19366  37.067  39.427   2.743
46942W        W19367  18.697  42.411  14.885
46943W        W19368  44.661  20.717   4.205
46944W        W19369  37.306   4.085  12.897
46945W        W19370  15.699  38.299   0.806
46946W        W19371  19.894   0.956   4.874
46947W        W19372   8.169   7.357   1.421
46948W        W19373  40.581  32.621   0.943
46949W        W19374  41.377  44.866   4.635
46950W        W19375   7.748  18.746  12.060
46951W        W19376  28.039  18.811  11.910
46952W        W19377   9.117  42.675   4.120
46953W        W19378  26.033  38.849   3.885
46954W        W19379  31.988  38.367   1.787
46955W        W19380  11.201  20.627   2.653
46956W        W19381  33.029  28.552  12.526
46957W        W19382   9.927  19.517   4.330
46958W        W19383  43.445  44.778  10.565
46959W        W19384  20.045  36.879   0.231
46960W        W19385  17.102   3.884   3.733
46961W        W19386   7.703   6.858  14.874
46962W        W19387   8.105  17.759   0.486
46963W        W19388  24.025  14.514   1.842
46964W        W19389  41.987  31.641  12.484
46965W        W19390  36.637  42.597  11.592
46966W        W19391   1.700   5.979  12.007
46967W        W19392  23.259  33.677   1.013
46968W        W19393  23.064  19.143  13.608
46969W        W19394  38.669  26.567  13.834
46970W        W19395  32.522  23.355  12.703
46971W        W19396   4.045  13.285  14.258
46972W        W19397   6.678  18.706  10.836
46973W        W19398  13.294   2.106   1.737
46974W        W19399  10.060  31.429   2.318
46975W        W19400  21.202  35.435   3.009
46976W        W19401  19.304  29.030  10.706
46977W        W19402  13.197  27.141   0.146
46978W        W19403  35.603  41.827  12.064
46979W        W19404  20.235  13.511  13.216
46980W        W19405  21.605  13.757  11.492
46981W        W19406  13.240  18.587   3.769
46982W        W19407  26.990  23.282  12.222
46983W        W19408  30.350  32.616   1.754
46984W        W19409  40.827  26.422   2.931
46985W        W19410  31.799  40.372  11.024
46986W        W19411  28.579  30.100   4.610
46987W        W19412  12.073  31.017   3.538
46988W        W19413  25.477  10.767   2.630
46989W        W19414  33.585  40.680  12.494
46990W        W19415   3.804  33.989  11.888
46991W        W19416  14.171  27.141  13.510
46992W        W19417   1.748  10.903   1.684
46993W        W19418  18.174   5.336   0.523
46994W        W19419  19.702  10.766  10.936
46995W        W19420   1.529   3.175  14.799
46996W        W19421  23.748   8.845  10.748
46997W        W19422  43.487  25.618   2.530
46998W        W19423  19.244  24.941   0.342
46999W        W19424  17.366   3.113   4.023
47000W        W19425  11.840  29.868   1.869
47001W        W19426  19.814   9.634  14.740
47002W        W19427  22.287  41.585  11.063
47003W        W19428  14.720  30.671   0.782
47004W        W19429   5.352  17.059   1.189
47005W        W19430  27.609  36.442   3.922
47006W        W19431  39.112  44.873  13.435
47007W        W19432  22.170  32.986  13.855
47008W        W19433  35.412   5.018   4.538
47009W        W19434  36.568  31.537   3.208
47010W        W19435  12.963  14.646   3.716
47011W        W19436  30.849  26.826  11.095
47012W        W19437  24.455   7.594   1.456
47013W        W19438  25.223  29.415  14.071
47014W        W19439  30.427  19.776   3.814
47015W        W19440  37.855  44.350  13.584
47016W        W19441  19.761  27.483  13.387
47017W        W19442  12.619   7.284  12.599
47018W        W19443   3.241  41.593   0.748
47019W        W19444  25.987  29.002  14.341
47020W        W19445  21.106   3.137  14.385
47021W        W19446  12.139  14.291   4.699
47022W        W19447  31.456  10.618   4.449
47023W        W19448  36.444  26.870  10.548
47024W        W19449   4.191  17.065  12.928
47025W        W19450  39.105  43.876  13.885
47026W        W19451  16.093  31.732   4.201
47027W        W19452  18.068  16.533  11.034
47028W        W19453   0.689  24.731   5.140
47029W        W19454  40.437   3.704   0.460
47030W        W19455   5.383  16.628  12.977
47031W        W19456  22.214   4.385   1.153
47032W        W19457  36.982  33.489   0.947
47033W        W19458  22.613  17.284   2.426
47034W        W19459   7.388  19.267   0.954
47035W        W19460  19.594  16.341  12.133
47036W        W19461  12.577  31.593  14.947
47037W        W19462  25.031  12.485   1.660
47038W        W19463   6.616  35.042   5.468
47039W        W19464  35.328  18.698  13.409
47040W        W19465  17.018   6.795  10.752
47041W        W19466   8.282  33.860  12.522
47042W        W19467  42.007  20.172  14.239
47043W        W19468   6.401  19.948  11.071
47044W        W19469   5.420  17.655   3.380
47045W        W19470  43.191  26.736   4.622
47046W        W19471  26.671  22.279  11.465
47047W        W19472  14.248   1.410  10.644
47048W        W19473  24.722  16.810   3.022
47049W        W19474  17.880  11.126   1.780
47050W        W19475  34.714  11.274   0.534
47051W        W19476  10.908  19.354  13.900
47052W        W19477  37.812   0.953   1.344
47053W        W19478  38.876  30.433  12.489
47054W        W19479  35.416   0.403  14.865
47055W        W19480  43.385   3.530   1.628
47056W        W19481  30.656  16.616   4.728
47057W        W19482  21.375  23.103   2.421
47058W        W19483  18.247  21.499   2.921
47059W        W19484  15.764  43.463   4.685
47060W        W19485  19.103   6.553   2.346
47061W        W19486   3.931   4.299   2.298
47062W        W19487  28.489   5.840   3.384
47063W        W19488  44.418   3.991  11.176
47064W        W19489  29.195  15.234   1.248
47065W        W19490  25.614   6.939   4.618
47066W        W19491   2.804  38.640   4.935
47067W        W19492  22.120  14.705  10.752
47068W        W19493  28.158   0.281   5.020
47069W        W19494  37.921  40.976  11.165
47070W        W19495  17.552  24.750  13.776
47071W        W19496   9.239  22.033   3.105
47072W        W19497  31.993   0.524   4.102
47073W        W19498  16.864  35.570   0.784
47074W        W19499  29.475  28.306   3.701
47075W        W19500  16.020  28.604  12.486
47076W        W19501  17.648  18.629   0.297
47077W        W19502  21.509  42.739  14.135
47078W        W19503  13.707  29.571  12.694
47079W        W19504   3.012  20.324   2.651
47080W        W19505  17.174  36.420   2.631
47081W        W19506   4.050  12.880  14.609
47082W        W19507   8.774   6.725   4.893
47083W        W19508  36.993  20.795  14.780
47084W        W19509  20.023  15.556   1.747
47085W        W19510  43.896  28.430  14.983
47086W        W19511   6.253  29.060   4.589
47087W        W19512  16.264  12.899  14.307
47088W        W19513  17.697  13.250   1.173
47089W        W19514  28.695  22.970  11.492
47090W        W19515  40.620   9.944  12.954
47091W        W19516  33.613   2.380  10.587
47092W        W19517  37.695   5.207   2.211
47093W        W19518  14.627   7.591  13.964
47094W        W19519  14.748  30.468  12.145
47095W        W19520  40.342   8.593  14.891
47096W        W19521  38.754  42.795   2.139
47097W        W19522   6.342  34.675  11.084
47098W        W19523  12.727  10.900   4.111
47099W        W19524  13.735  12.002  12.552
47100W        W19525  22.255  40.674  14.080
47101W        W19526  17.941  39.602  12.989
47102W        W19527   1.611  42.890  10.808
47103W        W19528   7.938  13.750   2.885
47104W        W19529  30.252   2.889  11.705
47105W        W19530  41.435  12.671   2.620
47106W        W19531  39.408  14.532   0.681
47107W        W19532  29.211  33.827   2.283
47108W        W19533  32.636  43.620   1.705
47109W        W19534  43.327   0.452   2.295
47110W        W19535  32.351  10.104  13.404
47111W        W19536  24.202  10.758   4.622
47112W        W19537  38.352   3.701   0.815
47113W        W19538  35.794  14.665  13.559
47114W        W19539   2.482  39.039  11.429
47115W        W19540   3.506  10.354   1.841
47116W        W19541  24.796  24.620   0.212
47117W        W19542  13.866  21.594  13.272
47118W        W19543  41.788  43.802   1.608
47119W        W19544  29.764  13.667  12.917
47120W        W19545  18.263  42.558  11.123
47121W        W19546  43.855   0.325   2.868
47122W        W19547  43.676   9.975  12.437
47123W        W19548   8.719  17.569  14.938
47124W        W19549  31.112  19.233  12.021
47125W        W19550   8.300  24.141  13.474
47126W        W19551  19.597  43.797  13.383
47127W        W19552  34.823  41.467   2.879
47128W        W19553  28.096  33.404   4.029
47129W        W19554  21.675  43.084   1.903
47130W        W19555  17.595  41.994   2.397
47131W        W19556  13.050   8.906   3.652
47132W        W19557  20.531  38.533  12.378
47133W        W19558  12.857  37.043   3.087
47134W        W19559   0.314  35.797  13.996
47135W        W19560  31.648  36.104  12.973
47136W        W19561  25.601  21.206   3.492
47137W        W19562  33.577  41.006  14.032
47138W        W19563  26.562  18.398   3.428
47139W        W19564  16.049  17.345  13.612
47140W        W19565  26.053  31.129  10.852
47141W        W19566  33.339  13.372   3.022
47142W        W19567  21.983  30.622  13.074
47143W        W19568  33.707  25.434   1.251
47144W        W19569   9.336  37.278   0.782
47145W        W19570  20.853  35.674   2.733
47146W        W19571   0.745  30.232   2.284
47147W        W19572  15.126  30.041   3.151
47148W        W19573   4.996  37.542  12.840
47149W        W19574   7.757  42.561   2.878
47150W        W19575  14.808  32.239   3.041
47151W        W19576   1.891  13.251  10.677
47152W        W19577   8.331  42.396  14.298
47153W        W19578  21.816  41.967   3.362
47154W        W19579   5.915  15.093  14.079
47155W        W19580  10.202  33.119   3.169
47156W        W19581  16.048   6.172  13.209
47157W        W19582   0.280  22.865  12.149
47158W        W19583  37.048  41.067  12.460
47159W        W19584   4.731  32.313  12.219
47160W        W19585  38.980  22.797  12.477
47161W        W19586  39.322   2.111   4.907
47162W        W19587  42.742  25.666  12.064
47163W        W19588  36.088  13.201   3.175
47164W        W19589  42.840  22.658  11.080
47165W        W19590   8.299   9.449  10.683
47166W        W19591   7.844   4.731  10.459
47167W        W19592   4.850   2.998   4.692
47168W        W19593  30.946   8.064   1.411
47169W        W19594  12.785  18.573  11.711
47170W        W19595  25.492  20.826   3.119
47171W        W19596  25.795  12.280   0.660
47172W        W19597  42.014   6.951   3.334
47173W        W19598  14.927   2.177   3.387
47174W        W19599  20.403   1.059   2.084
47175W        W19600   9.674   8.398  12.876
47176W        W19601  37.810  17.438  14.524
47177W        W19602  41.273  22.536  11.011
47178W        W19603  16.613  15.152   2.534
47179W        W19604  43.861  12.882   3.155
47180W        W19605  25.628  25.700   0.754
47181W        W19606  28.435   1.857   4.257
47182W        W19607  34.841  40.299   4.146
47183W        W19608  31.424  20.568   3.200
47184W        W19609  16.746  36.360   2.927
47185W        W19610  40.261  43.784  11.924
47186W        W19611  36.597  26.335   1.636
47187W        W19612  35.637  24.029  12.587
47188W        W19613  20.788  40.894  11.601
47189W        W19614   4.819  28.925  12.989
47190W        W19615   7.174  30.458   1.389
47191W        W19616  26.307  26.986  13.359
47192W        W19617   9.909   9.330  12.424
47193W        W19618  12.175  16.472  13.102
47194W        W19619   6.338  24.991   2.734
47195W        W19620  22.690  30.949  13.408
47196W        W19621  21.148   0.128   4.566
47197W        W19622  44.511  41.676   3.374
47198W        W19623   0.057  14.253  11.086
47199W        W19624   8.955  31.964  11.576
47200W        W19625  17.713  41.231  14.276
47201W        W19626  33.854  32.984   4.815
47202W        W19627  33.475  43.237   3.167
47203W        W19628   5.415  28.984  10.800
47204W        W19629  19.987  38.911   0.021
47205W        W19630   6.784  20.627  14.067
47206W        W19631   0.011  39.506   1.186
47207W        W19632  13.780  33.588   0.292
47208W        W19633  12.511  31.520  13.407
47209W        W19634  39.287  10.283  11.619
47210W        W19635   8.779   5.416   0.313
47211W        W19636  38.909  27.105   3.597
47212W        W19637  13.206  44.424  12.927
47213W        W19638  21.596  30.684   1.747
47214W        W19639   9.369  11.608  10.305
47215W        W19640  10.763   5.768   0.208
47216W        W19641  12.709  29.524   3.540
47217W        W19642   7.764  42.890   3.286
47218W        W19643   7.765   3.171   0.216
47219W        W19644  21.971  36.851  14.949
47220W        W19645  29.044  34.814   2.136
47221W        W19646  26.873   2.933  12.665
47222W        W19647   7.903  37.074   2.208
47223W        W19648  16.587   1.986  14.879
47224W        W19649  32.103   8.087   3.121
47225W        W19650   0.744   4.585  10.002
47226W        W19651   6.914  25.668  14.402
47227W        W19652   5.304   5.025   4.727
47228W        W19653  44.770  38.830  10.693
47229W        W19654   6.230  43.430  11.150
47230W        W19655  36.489  33.540   4.900
47231W        W19656   8.621  35.890  11.409
47232W        W19657  32.140  19.829  14.443
47233W        W19658  11.159   4.653  12.945
47234W        W19659  37.611   1.682   0.480
47235W        W19660   1.816   0.523   1.368
47236W        W19661  16.763   8.609   4.036
47237W        W19662  38.602  26.736  10.659
47238W        W19663  34.861   4.772  10.068
47239W        W19664  20.479  24.157  13.905
47240W        W19665   0.402  27.936   4.258
47241W        W19666  24.516  32.083   3.187
47242W        W19667  10.300   1.367   1.044
47243W        W19668  24.273  20.420   3.618
47244W        W19669  27.975  44.966  11.575
47245W        W19670  34.901   1.700  13.267
47246W        W19671  11.053  21.101  11.185
47247W        W19672   8.331  20.942  12.151
47248W        W19673  31.882  15.796   2.329
47249W        W19674   4.239  37.703  11.712
47250W        W19675  27.684   8.414   0.287
47251W        W19676  32.650  29.004   3.052
47252W        W19677   5.803  41.877   1.512
47253W        W19678  31.509  44.214  13.102
47254W        W19679  34.851  42.834  12.908
47255W        W19680   5.869  42.031   3.704
47256W        W19681  28.143  36.495   1.237
47257W        W19682  13.450  17.481   9.794
47258W        W19683  36.845  21.534   0.521
47259W        W19684  38.018  21.693   0.929
47260W        W19685  28.151  29.205   3.885
47261W        W19686  38.741  14.295   1.322
47262W        W19687  35.978  36.385  12.812
47263W        W19688  14.435  23.651   4.911
47264W        W19689  15.810  25.571   4.896
47265W        W19690  13.628   4.839  12.551
47266W        W19691  19.549  26.659   0.416
47267W        W19692  24.477  20.656  14.332
47268W        W19693  43.926  11.098   1.691
47269W        W19694   1.779  27.998   2.166
47270W        W19695   2.789  19.538   0.827
47271W        W19696  12.432  13.326  14.745
47272W        W19697  41.969  12.975  13.860
47273W        W19698  37.464  25.423   4.991
47274W        W19699  20.117   7.874  14.095
47275W        W19700  10.332  30.577   1.756
47276W        W19701  34.829  25.512   3.311
47277W        W19702   4.204  26.705   3.217
47278W        W19703  25.665   7.668   2.053
47279W        W19704  15.008  17.595  13.439
47280W        W19705  35.719  12.438   0.462
47281W        W19706   2.251   4.319   3.275
47282W        W19707  43.462   7.144   0.670
47283W        W19708  38.201  23.825  11.958
47284W        W19709  39.940  35.429  10.689
47285W        W19710  30.260   1.538  13.839
47286W        W19711  27.582  23.577   1.708
47287W        W19712  44.341  10.586   1.963
47288W        W19713   9.981  25.365   1.658
47289W        W19714  35.980  31.492  14.443
47290W        W19715   8.345   9.624   1.676
47291W        W19716  12.933   0.186   2.687
47292W        W19717  37.553  39.358   4.649
47293W        W19718  27.222   8.807  12.410
47294W        W19719  14.716   5.113  11.670
47295W        W19720  38.313  19.761   2.856
47296W        W19721  40.346  35.543  13.772
47297W        W19722  13.103  13.125  14.320
47298W        W19723  32.408   3.361  13.441
47299W        W19724   9.132  37.243  14.617
47300W        W19725  20.622  24.197  14.963
47301W        W19726   3.936  24.245   4.644
47302W        W19727  27.882   2.177  14.704
47303W        W19728  32.171  32.622   3.251
47304W        W19729  43.818  21.582  12.929
47305W        W19730  35.401  22.508   3.704
47306W        W19731  44.830  12.956   4.235
47307W        W19732  26.641   2.968   4.234
47308W        W19733  10.796  22.269   0.918
47309W        W19734  32.158   9.949  10.231
47310W        W19735   0.681  37.736   3.204
47311W        W19736  44.940  29.562   2.676
47312W        W19737  34.957  33.674   2.346
47313W        W19738  10.290  18.001  14.799
47314W        W19739  11.851  17.589   1.670
47315W        W19740   1.703  33.106  12.418
47316W        W19741  14.092  31.037  12.379
47317W        W19742  20.667  16.151   2.608
47318W        W19743   5.264  34.058   3.565
47319W        W19744  19.167  20.931  11.195
47320W        W19745  31.219  21.268   4.042
47321W        W19746  35.658  37.990   4.312
47322W        W19747  21.175  28.321  13.506
47323W        W19748   8.538  40.012   0.698
47324W        W19749   4.332  42.245  11.615
47325W        W19750  10.405   1.063  12.950
47326W        W19751  18.227   8.277  10.456
47327W        W19752  23.051  25.176   1.417
47328W        W19753  33.572  16.372  10.508
47329W        W19754   2.727  17.702   3.807
47330W        W19755   9.406  26.537  12.019
47331W        W19756  26.495  36.346  11.931
47332W        W19757   4.376  28.078  10.724
47333W        W19758  28.530   6.005  14.961
47334W        W19759  44.857  26.576  10.301
47335W        W19760   2.872  16.201   1.674
47336W        W19761   3.991  23.590  12.659
47337W        W19762  26.642  39.297  14.387
47338W        W19763  22.761  44.885   1.674
47339W        W19764   2.826  23.568  14.847
47340W        W19765  32.416  15.606   4.882
47341W        W19766   6.830  15.758  12.886
47342W        W19767  25.555   3.846  11.638
47343W        W19768  18.531  13.549   1.452
47344W        W19769  23.201   9.251   9.962
47345W        W19770   9.609  37.749  14.018
47346W        W19771   5.283  11.797   0.269
47347W        W19772  10.434   6.167  14.611
47348W        W19773  37.069  24.997   0.477
47349W        W19774  36.002  34.305   0.928
47350W        W19775  36.454  10.119   3.046
47351W        W19776  35.617  36.994   3.250
47352W        W19777  43.316  37.789   0.454
47353W        W19778  33.763  10.128  14.346
47354W        W19779  26.380  27.563  12.536
47355W        W19780  26.093  34.287   4.511
47356W        W19781  36.416   2.283  12.272
47357W        W19782  34.347  18.221   4.560
47358W        W19783  22.700  30.263   0.224
47359W        W19784  40.071  33.156  14.036
47360W        W19785  35.393  21.157  13.947
47361W        W19786  36.640  32.339   2.747
47362W        W19787   1.188  36.085  14.299
47363W        W19788   0.453  11.829   2.697
47364W        W19789  43.343  26.073  11.539
47365W        W19790  39.456  29.969   1.206
47366W        W19791  11.703  39.363   2.396
47367W        W19792  14.569  38.993   3.225
47368W        W19793  27.523  44.885  11.072
47369W        W19794  17.134  38.842  13.344
47370W        W19795   4.361   9.130   4.098
47371W        W19796  40.853  15.583   2.086
47372W        W19797   5.789  42.857   1.526
47373W        W19798   7.030   9.225   1.978
47374W        W19799  31.081  14.906  13.847
47375W        W19800  36.724   5.702   3.375
47376W        W19801  34.073   2.752   4.534
47377W        W19802  25.218   7.247   4.795
47378W        W19803  38.890  16.324  12.053
47379W        W19804  11.034  20.835   0.715
47380W        W19805  19.786  10.620   3.753
47381W        W19806   7.910  29.923  12.942
47382W        W19807  27.693  38.986   2.210
47383W        W19808   0.328  41.822  11.149
47384W        W19809  18.185  31.544   3.655
47385W        W19810  36.472  31.497  11.653
47386W        W19811   0.622  38.915   9.927
47387W        W19812  19.989   4.198   2.730
47388W        W19813  15.920  30.084  12.007
47389W        W19814  33.873  26.916   0.899
47390W        W19815  12.102   9.716  13.986
47391W        W19816   3.976   1.221   2.964
47392W        W19817  39.907  21.464  11.190
47393W        W19818  23.029  16.669   4.214
47394W        W19819  39.138  12.952  13.838
47395W        W19820  32.960  23.424  11.438
47396W        W19821  20.655  22.652   1.357
47397W        W19822  20.643  44.420  10.747
47398W        W19823  30.923  18.848   5.037
47399W        W19824  33.431  31.137   4.629
47400W        W19825  41.359  10.776   2.504
47401W        W19826  29.905  24.689  14.345
47402W        W19827  20.244  38.076   0.037
47403W        W19828  16.596   4.490   3.253
47404W        W19829   4.895   5.868   2.203
47405W        W19830  35.232  24.760   2.790
47406W        W19831   0.827  44.151  14.497
47407W        W19832  26.942  13.146   1.789
47408W        W19833  38.385  21.879  12.930
47409W        W19834  41.423  21.550   3.818
47410W        W19835  20.814  11.682  10.807
47411W        W19836  31.626  24.698   2.296
47412W        W19837  10.842  31.453  12.828
47413W        W19838  38.311  22.071  11.516
47414W        W19839  24.177  35.322  13.045
47415W        W19840  38.437  35.982   0.116
47416W        W19841  32.956  44.542  13.398
47417W        W19842   7.908   4.417   1.787
47418W        W19843  11.397   8.851   4.076
47419W        W19844  12.107   8.233  11.778
47420W        W19845  39.253  38.467  14.344
47421W        W19846   8.960  21.823   1.637
47422W        W19847  27.960  32.592  10.314
47423W        W19848  29.767   2.861  11.851
47424W        W19849  37.624   8.914   0.828
47425W        W19850  43.308  18.789   0.937
47426W        W19851  17.135   7.290  13.958
47427W        W19852  26.217   4.168   2.846
47428W        W19853  16.171  23.624  10.201
47429W        W19854  30.196   6.353   0.896
47430W        W19855   3.873  12.716   2.949
47431W        W19856  23.542  38.844  12.319
47432W        W19857  29.598  25.743   1.740
47433W        W19858  11.334  28.380  12.528
47434W        W19859  15.123  38.791   3.896
47435W        W19860  44.989   3.306   4.239
47436W        W19861  19.068  26.082  13.809
47437W        W19862  37.403  38.212  11.260
47438W        W19863  21.313  24.678   2.926
47439W        W19864  14.806  22.799   5.093
47440W        W19865  41.615   8.072   4.278
47441W        W19866  31.600  26.206  14.371
47442W        W19867  33.493  24.137   0.453
47443W        W19868  33.510  36.906   4.251
47444W        W19869  42.488  37.127  11.603
47445W        W19870  38.918  25.329  14.598
47446W        W19871  33.266  14.542  14.850
47447W        W19872   7.003  44.374   0.009
47448W        W19873  26.660  30.797   0.606
47449W        W19874  25.662  24.500  13.989
47450W        W19875  24.936  14.822  11.632
47451W        W19876  27.444  23.068  12.096
47452W        W19877  23.958  42.882  11.024
47453W        W19878  34.894  29.849  12.764
47454W        W19879  38.583   9.152   4.270
47455W        W19880  38.319   5.456   1.817
47456W        W19881  34.768  33.998  14.952
47457W        W19882  17.773  22.177   3.845
47458W        W19883   5.141   4.968  14.314
47459W        W19884   8.730   1.430   4.707
47460W        W19885   8.193  26.202  13.553
47461W        W19886  26.151  14.618   3.248
47462W        W19887  40.870  24.292  11.966
47463W        W19888  10.297   9.367   1.093
47464W        W19889  36.452  43.891   1.685
47465W        W19890  32.572  34.894  14.431
47466W        W19891  36.478   2.254   3.405
47467W        W19892   2.979  13.604  11.625
47468W        W19893  35.019  24.497  13.332
47469W        W19894  15.144  39.997   0.466
47470W        W19895   1.199  15.211  10.299
47471W        W19896  44.055  16.348  10.053
47472W        W19897   9.354  35.342  14.188
47473W        W19898  22.482  34.462  12.619
47474W        W19899  43.336  22.647  13.467
47475W        W19900   2.478   1.661   1.193
47476W        W19901  30.968  12.015  14.493
47477W        W19902  24.974  38.739  13.072
47478W        W19903   3.816   4.959   4.948
47479W        W19904  22.540   1.357   0.532
47480W        W19905  13.765  28.613   3.547
47481W        W19906  29.325  13.899   2.281
47482W        W19907  32.890  33.825   0.287
47483W        W19908  26.045  30.052  13.600
47484W        W19909  19.979  32.553   1.321
47485W        W19910   3.826  30.430   0.988
47486W        W19911  31.911  37.507  11.342
47487W        W19912  12.583  15.116   0.737
47488W        W19913  41.584   0.983   1.380
47489W        W19914   1.028  31.059  12.529
47490W        W19915   1.317  11.171   4.043
47491W        W19916  34.214  34.101  14.806
47492W        W19917  30.979  33.332   5.153
47493W        W19918  18.777  22.016   4.572
47494W        W19919  37.157  44.651  11.707
47495W        W19920  27.468  27.503  10.748
47496W        W19921  28.668  44.949   1.929
47497W        W19922  31.484  34.732  13.542
47498W        W19923  16.481  42.270  13.745
47499W        W19924  36.228  44.574  10.190
47500W        W19925  26.980  24.795  12.723
47501W        W19926   9.095  26.795   1.016
47502W        W19927  33.396  24.601   1.773
47503W        W19928   5.430  25.130   3.228
47504W        W19929   0.415  31.963  11.568
47505W        W19930  43.525   9.442   0.446
47506W        W19931   1.096  19.866  11.174
47507W        W19932   9.252  40.021   2.803
47508W        W19933  18.016   4.558  12.351
47509W        W19934  31.625  32.913   2.715
47510W        W19935  14.712   3.446   0.465
47511W        W19936  13.662  39.946  13.578
47512W        W19937  11.466  21.942  14.256
47513W        W19938  26.218   3.279   9.903
47514W        W19939  20.714  33.119  10.516
47515W        W19940  15.400  43.058  11.027
47516W        W19941   5.317  18.545  11.623
47517W        W19942   6.371  15.762  13.124
47518W        W19943  34.011  19.355   1.472
47519W        W19944  21.606  14.783  10.825
47520W        W19945  21.546  32.495   1.351
47521W        W19946  38.037  12.190   0.700
47522W        W19947  17.586  11.840  12.479
47523W        W19948  20.063   6.884  13.848
47524W        W19949   1.740   1.338  13.862
47525W        W19950   1.751  25.180   2.853
47526W        W19951  37.371  25.696  14.595
47527W        W19952  10.616  35.912   1.786
47528W        W19953  10.759  31.957   4.885
47529W        W19954   9.314  40.919  10.696
47530W        W19955  15.194  44.402   0.395
47531W        W19956  41.713   5.387  11.040
47532W        W19957  42.066  41.324  11.112
47533W        W19958  34.608  40.119   2.685
47534W        W19959  24.117  27.913  13.957
47535W        W19960  41.909  34.090   0.854
47536W        W19961  33.277   3.392  10.198
47537W        W19962  27.651  38.071  10.827
47538W        W19963  14.051  20.093  13.187
47539W        W19964  28.890  40.377  11.486
47540W        W19965  25.511  11.243   2.866
47541W        W19966  15.350  12.606  11.524
47542W        W19967  37.997   8.708  12.276
47543W        W19968  33.951   1.441  12.882
47544W        W19969  32.144  30.016  12.555
47545W        W19970   6.432   7.150   5.113
47546W        W19971  21.293  31.671  10.288
47547W        W19972  35.799  18.444  14.336
47548W        W19973   3.482  41.130  13.874
47549W        W19974   5.959  32.161   0.925
47550W        W19975  30.546  36.317  10.855
47551W        W19976   3.244  11.832   1.195
47552W        W19977   6.857  32.834  11.053
47553W        W19978  12.289  41.970  12.107
47554W        W19979  38.338  25.441   0.195
47555W        W19980  19.707   5.795   0.248
47556W        W19981   1.992  16.622   3.564
47557W        W19982  34.994  20.805   3.654
47558W        W19983  22.099   0.256  14.275
47559W        W19984   7.817   5.698  10.104
47560W        W19985  29.357  21.760   1.307
47561W        W19986  42.073  17.075  10.220
47562W        W19987   4.413  24.044   2.036
47563W        W19988  18.728  29.598  13.835
47564W        W19989  40.384   6.148  10.782
47565W        W19990  10.463   5.838   5.071
47566W        W19991  22.828   4.461   3.201
47567W        W19992  20.922  11.699   1.386
47568W        W19993   8.347  34.127   3.530
47569W        W19994   7.704  31.611   1.845
47570W        W19995  11.218   4.426  11.503
47571W        W19996  38.018  37.477   0.374
47572W        W19997  21.748  41.327   0.405
47573W        W19998   4.490  22.158  11.734
47574W        W19999  30.992  15.552  11.880
47575W        W20000  35.989  24.787   0.938
47576W        W20001  38.253  42.774   2.257
47577W        W20002  14.752   0.833   0.953
47578W        W20003  11.736  24.360  10.891
47579W        W20004  19.748   5.344  14.819
47580W        W20005  23.120   9.571  13.620
47581W        W20006  39.049  28.225   2.036
47582W        W20007  43.975  43.471   1.816
47583W        W20008   9.339  36.440  10.605
47584W        W20009  27.978  21.722   0.712
47585W        W20010  40.225   4.413   1.198
47586W        W20011  15.741  26.635  10.563
47587W        W20012   9.787  26.613   4.189
47588W        W20013   5.669  15.848   0.267
47589W        W20014  26.344  32.859  13.046
47590W        W20015   7.687  36.801   0.330
47591W        W20016  39.945  23.576   3.601
47592W        W20017  26.654  23.533   1.415
47593W        W20018  29.699  22.901   0.478
47594W        W20019   0.939   6.661  12.721
47595W        W20020  28.608  19.552  14.268
47596W        W20021  39.571  43.964  11.388
47597W        W20022  44.522  38.027   4.587
47598W        W20023   4.698   4.874   2.430
47599W        W20024  14.605   7.824   3.712
47600W        W20025  36.608  38.855   2.245
47601W        W20026  27.621  39.757   1.504
47602W        W20027  13.625  13.844  12.382
47603W        W20028  21.584  22.768  14.702
47604W        W20029  33.511  30.856   3.662
47605W        W20030  10.633   0.455   0.235
47606W        W20031  38.694  25.619  12.528
47607W        W20032   3.939   6.254  11.868
47608W        W20033  24.786  20.171   4.626
47609W        W20034  38.894  27.729  14.898
47610W        W20035  33.759  17.051   0.973
47611W        W20036   0.323   3.479   1.019
47612W        W20037  10.164  16.449   4.591
47613W        W20038  36.013   9.773   0.795
47614W        W20039  43.690   5.306   1.191
47615W        W20040  31.499   0.829  10.781
47616W        W20041  22.212  16.787  12.371
47617W        W20042   6.442   7.855  11.105
47618W        W20043  42.960   2.265   5.041
47619W        W20044  41.426  43.894  10.037
47620W        W20045  38.023  38.859  13.303
47621W        W20046  23.720  20.951   3.565
47622W        W20047  40.961  26.710   4.189
47623W        W20048   3.291   4.991   4.110
47624W        W20049   9.748  31.994   5.048
47625W        W20050   1.233  40.878   0.752
47626W        W20051  28.152  26.437   0.064
47627W        W20052   4.260  15.776  10.696
47628W        W20053  16.131  37.969   3.680
47629W        W20054  23.851   6.411   1.422
47630W        W20055   4.468  43.782   4.629
47631W        W20056  25.265  37.800   3.821
47632W        W20057   7.179  35.350  14.272
47633W        W20058   0.966  16.813   3.541
47634W        W20059  29.905  44.981   3.600
47635W        W20060  35.283  19.565  12.488
47636W        W20061  20.793  39.918  10.599
47637W        W20062  31.192   9.136   0.287
47638W        W20063  36.344  40.934   3.651
47639W        W20064   2.785  14.387  13.366
47640W        W20065  35.112  22.616   0.585
47641W        W20066   1.692  32.453   4.119
47642W        W20067  34.355  10.907  14.102
47643W        W20068  34.337  33.014   0.744
47644W        W20069  37.528  39.033   2.197
47645W        W20070  34.991  40.607  11.126
47646W        W20071  28.690  18.036   2.253
47647W        W20072  33.928  43.887   4.696
47648W        W20073   7.620  26.017   4.288
47649W        W20074  14.533  35.583   1.971
47650W        W20075  13.367  13.731   4.565
47651W        W20076   0.784  40.635   2.578
47652W        W20077  30.132  14.549   3.818
47653W        W20078  20.513   7.788   3.415
47654W        W20079  15.604  31.591  11.146
47655W        W20080   2.483  38.877   4.616
47656W        W20081  26.016   7.079   0.742
47657W        W20082  32.370  17.377   3.286
47658W        W20083  29.072  37.846  14.676
47659W        W20084  22.609  19.038  12.208
47660W        W20085  11.567   7.681  13.495
47661W        W20086  39.977  29.403  13.377
47662W        W20087  13.800  28.370  13.878
47663W        W20088   7.868  34.308   1.021
47664W        W20089  30.008   8.642   4.328
47665W        W20090   4.698   5.292   3.227
47666W        W20091  40.693  32.441  13.079
47667W        W20092  36.118   9.192  12.450
47668W        W20093  35.436  32.632   3.740
47669W        W20094  30.584  28.919   3.625
47670W        W20095  29.137  29.537  10.695
47671W        W20096  35.915  41.099  14.047
47672W        W20097   6.401  25.379  11.997
47673W        W20098  11.606   2.435   3.202
47674W        W20099  22.072  14.211  11.039
47675W        W20100  32.958  35.850   1.721
47676W        W20101  18.345   3.323   2.452
47677W        W20102  29.894  18.601   2.234
47678W        W20103  12.045  11.221   4.554
47679W        W20104   1.703   8.606   4.531
47680W        W20105  40.598  20.649   0.923
47681W        W20106   8.381   9.200  14.358
47682W        W20107  36.685  35.555  11.011
47683W        W20108  12.166  16.259   1.874
47684W        W20109  26.396  35.950   0.574
47685W        W20110  31.374  18.998  13.804
47686W        W20111  29.712  15.698   2.574
47687W        W20112  37.994  34.540  10.927
47688W        W20113  17.254  23.715  14.340
47689W        W20114  12.310  37.331  12.998
47690W        W20115   0.959  19.459   4.150
47691W        W20116  44.491   8.042  11.992
47692W        W20117  17.661  16.158  14.150
47693W        W20118   0.377  22.801   2.620
47694W        W20119   7.384  24.572  11.166
47695W        W20120  35.903   1.331  13.935
47696W        W20121   2.411  32.524   2.601
47697W        W20122   0.904  44.594   5.080
47698W        W20123   6.177  18.290  13.062
47699W        W20124  36.056   8.759  12.718
47700W        W20125  41.339  24.714   1.361
47701W        W20126  26.368  21.645  10.746
47702W        W20127  39.052  20.114  11.079
47703W        W20128  32.233   4.301   3.694
47704W        W20129   5.359  27.977  14.987
47705W        W20130   4.429  36.609  14.073
47706W        W20131  22.173  43.109   4.258
47707W        W20132  27.916   6.776  11.507
47708W        W20133  30.632  37.651  12.398
47709W        W20134  30.936  30.669  12.586
47710W        W20135  23.052   6.832  11.490
47711W        W20136  14.718  42.346   1.875
47712W        W20137  40.000  18.563   0.926
47713W        W20138  41.968  29.078   4.764
47714W        W20139  35.598  15.057  10.749
47715W        W20140  26.417   7.787  12.819
47716W        W20141  31.175  23.182  10.646
47717W        W20142  28.653  15.798  14.904
47718W        W20143  11.545  19.446  14.374
47719W        W20144  25.330  37.916   2.829
47720W        W20145  13.683  35.825   2.201
47721W        W20146  17.675  40.464  11.535
47722W        W20147   2.272  10.891   1.352
47723W        W20148  28.137  15.920  14.919
47724W        W20149  17.275  44.503  10.594
47725W        W20150  29.612  42.898   4.616
47726W        W20151  10.726  38.847  13.245
47727W        W20152  21.741  43.975   4.754
47728W        W20153   3.019   3.671   1.743
47729W        W20154  26.075   4.868   1.051
47730W        W20155  40.072  42.035   3.728
47731W        W20156  28.538  21.385  12.540
47732W        W20157   4.264  10.073  14.430
47733W        W20158   1.124  44.369  12.491
47734W        W20159  25.756  42.475   1.868
47735W        W20160   6.820  14.840  11.601
47736W        W20161  14.846  27.673   0.333
47737W        W20162   1.224  17.175   3.306
47738W        W20163  17.550  25.325  10.299
47739W        W20164  14.476   7.440  14.734
47740W        W20165  35.414  30.998  14.726
47741W        W20166   3.342  40.842  13.381
47742W        W20167  19.231  32.407  13.844
47743W        W20168  21.083  16.781   1.986
47744W        W20169  31.700  11.660   2.630
47745W        W20170  21.083  42.890   0.879
47746W        W20171   6.861  18.501   1.814
47747W        W20172   1.982  41.573  14.048
47748W        W20173  37.547  39.615   0.362
47749W        W20174  15.680  36.862   4.804
47750W        W20175   3.890  16.580  14.016
47751W        W20176  40.060  37.059   4.634
47752W        W20177   5.350  42.507  14.441
47753W        W20178  35.517  44.874  14.949
47754W        W20179  25.625  13.072  10.703
47755W        W20180  41.817  14.688   3.194
47756W        W20181  42.285  35.866  13.461
47757W        W20182  43.019  24.496  14.958
47758W        W20183  14.336   8.615   3.129
47759W        W20184  18.359   6.486   4.920
47760W        W20185  20.675   2.094  11.655
47761W        W20186  28.585  41.532  10.735
47762W        W20187   6.906  36.485   5.065
47763W        W20188  38.304  34.081   4.551
47764W        W20189   0.656   7.505   3.249
47765W        W20190  34.458   2.990  13.482
47766W        W20191  19.297  31.745  13.078
47767W        W20192  11.182  21.072  13.517
47768W        W20193  38.330  43.278   0.752
47769W        W20194   4.319  28.869   1.005
47770W        W20195  36.890  25.787   0.806
47771W        W20196  22.020  11.203   3.771
47772W        W20197   8.882  28.881  10.412
47773W        W20198  22.604  20.355  10.908
47774W        W20199  43.300  10.598  14.199
47775W        W20200   0.493  15.703  13.080
47776W        W20201  16.679   4.676   3.729
47777W        W20202  26.432   0.946   3.609
47778W        W20203  30.956  24.690   0.910
47779W        W20204   6.276  17.465   0.770
47780W        W20205  33.985  26.022   0.991
47781W        W20206  33.453  27.140   1.888
47782W        W20207   1.417  12.100   2.721
47783W        W20208  19.179  16.216  13.443
47784W        W20209  31.986  40.027   2.792
47785W        W20210   9.707  20.141   3.191
47786W        W20211  16.107   4.999   2.876
47787W        W20212  27.221  17.134   2.625
47788W        W20213  44.788  34.582  13.743
47789W        W20214  34.834  41.106   0.715
47790W        W20215  15.720  39.541   3.534
47791W        W20216  12.583  38.401  12.060
47792W        W20217  15.139   0.997   4.384
47793W        W20218   8.187  22.240   1.116
47794W        W20219  13.241  26.589  14.972
47795W        W20220  16.694  23.538   0.475
47796W        W20221  32.943  13.363   0.752
47797W        W20222  41.925  44.139   1.229
47798W        W20223  10.811  32.034  14.928
47799W        W20224  15.766  33.731   2.231
47800W        W20225  26.510   4.930  13.761
47801W        W20226  33.589  17.712   2.807
47802W        W20227   9.706   6.205  12.392
47803W        W20228   8.357  27.948  10.810
47804W        W20229  36.047  15.018   4.342
47805W        W20230  24.190  19.982  12.020
47806W        W20231  22.026   5.922   4.087
47807W        W20232  30.897  42.544  12.942
47808W        W20233  18.074  25.707  10.736
47809W        W20234  36.373   3.184   2.226
47810W        W20235  13.172  28.954   1.345
47811W        W20236  17.875  29.504  10.735
47812W        W20237  26.502  35.337   1.439
47813W        W20238  37.991   0.452   1.337
47814W        W20239  23.769  28.570   4.603
47815W        W20240  41.168   6.485   4.700
47816W        W20241  23.224  31.489  14.953
47817W        W20242  21.640  18.321  11.748
47818W        W20243   8.168   8.490   3.710
47819W        W20244  39.512  15.820   1.084
47820W        W20245  44.476   6.456   3.225
47821W        W20246  13.707  11.794  14.509
47822W        W20247  16.735   7.141   0.739
47823W        W20248  36.992  12.273   3.798
47824W        W20249  25.045  33.064   2.824
47825W        W20250   2.493  15.796   0.003
47826W        W20251  40.796  34.860   1.959
47827W        W20252  44.705  14.314  10.681
47828W        W20253  16.295  14.108   4.580
47829W        W20254  31.445  20.819   4.181
47830W        W20255  40.984   6.821   1.315
47831W        W20256   6.370  43.275   0.765
47832W        W20257  28.559   2.797   3.157
47833W        W20258   0.911  41.106  11.932
47834W        W20259   7.856  21.873  12.233
47835W        W20260  34.848  25.889  11.971
47836W        W20261   5.788  35.397  13.340
47837W        W20262  29.125  15.988   1.779
47838W        W20263  32.985  12.657  12.899
47839W        W20264   5.392  11.276  13.385
47840W        W20265   2.435  27.570   0.243
47841W        W20266   1.876  33.162   2.856
47842W        W20267  15.578  17.885  12.528
47843W        W20268  18.115  33.790   1.432
47844W        W20269  13.724  15.712  13.943
47845W        W20270  19.670   4.908   4.013
47846W        W20271  35.037  39.916  12.526
47847W        W20272  20.126  20.699   4.459
47848W        W20273  15.120  29.452  14.301
47849W        W20274   1.901   3.315  10.755
47850W        W20275  27.266  20.421  13.439
47851W        W20276  13.809  26.614   4.716
47852W        W20277  35.480  30.073  12.092
47853W        W20278  11.165  36.480   3.020
47854W        W20279  36.157  19.899   1.416
47855W        W20280  16.317  40.564   2.299
47856W        W20281  29.263  44.425  14.544
47857W        W20282  26.122   2.572  11.623
47858W        W20283  37.386  42.901   3.702
47859W        W20284  37.120   3.239  13.896
47860W        W20285  39.404   4.360  10.863
47861W        W20286   2.000  32.849   4.184
47862W        W20287  14.757   0.220  11.641
47863W        W20288   8.090   9.791   4.556
47864W        W20289  16.889  31.913   5.378
47865W        W20290   7.319  23.084   1.800
47866W        W20291  16.711  43.001  12.468
47867W        W20292  33.931  15.648  12.950
47868W        W20293   6.162   8.707   4.089
47869W        W20294  11.609  24.592   1.701
47870W        W20295  19.464  39.415   4.529
47871W        W20296  20.217  23.154   4.585
47872W        W20297  30.981   8.626  13.023
47873W        W20298  40.034  33.084  13.139
47874W        W20299   8.185  21.681  13.728
47875W        W20300  10.134  25.101  11.219
47876W        W20301  29.382  25.085   2.545
47877W        W20302  31.369   0.397   1.205
47878W        W20303  44.908   1.024   4.321
47879W        W20304  16.693  34.598   0.215
47880W        W20305  33.821  25.609   3.285
47881W        W20306  37.430  44.299   1.851
47882W        W20307  15.131  31.960  12.009
47883W        W20308  32.624  13.670  14.250
47884W        W20309  16.777  28.406  13.769
47885W        W20310   0.088  27.068   4.040
47886W        W20311   4.939  28.951   3.681
47887W        W20312  35.051  30.339  12.640
47888W        W20313   9.762  11.632   1.634
47889W        W20314  15.179  20.592  12.551
47890W        W20315  13.233  38.326   1.709
47891W        W20316  33.577  13.303  14.357
47892W        W20317   3.482  35.830  10.179
47893W        W20318  44.561  29.188   0.890
47894W        W20319  12.641  12.345   4.161
47895W        W20320   8.356   1.709  14.275
47896W        W20321  33.361   6.379  11.506
47897W        W20322  35.944   5.435  12.856
47898W        W20323  16.064  42.130  13.077
47899W        W20324  36.425  24.582   1.800
47900W        W20325  19.446  33.054   0.663
47901W        W20326  30.389  40.938   2.439
47902W        W20327  38.899  31.470  12.542
47903W        W20328  38.918  29.369   4.165
47904W        W20329  21.355  22.466   2.647
47905W        W20330  25.578  12.178   3.311
47906W        W20331  17.383  32.196  12.222
47907W        W20332  10.660  15.864   2.217
47908W        W20333  37.011  15.978  10.498
47909W        W20334  34.857   7.856   0.812
47910W        W20335  27.962  37.891   3.693
47911W        W20336  44.423  41.713  12.523
47912W        W20337  44.516   9.909   2.866
47913W        W20338  42.961  28.795  11.625
47914W        W20339  33.884  44.755   2.407
47915W        W20340   0.379  32.837  12.833
47916W        W20341  35.599  11.778   2.319
47917W        W20342   8.456  24.096   2.298
47918W        W20343  35.597  13.076   3.705
47919W        W20344   8.278   6.887   4.792
47920W        W20345  11.445   4.959   4.142
47921W        W20346   6.269  28.094   5.133
47922W        W20347  19.597  39.808   1.520
47923W        W20348  11.327   3.924   0.724
47924W        W20349  12.947  32.123   0.873
47925W        W20350  37.296  16.191   0.217
47926W        W20351  39.325  18.838   2.237
47927W        W20352  39.446   8.622   3.223
47928W        W20353  19.730  13.250   1.489
47929W        W20354  31.120  28.916   3.195
47930W        W20355  32.786   8.323   1.496
47931W        W20356  18.462  28.485  11.173
47932W        W20357  41.601  22.297   2.081
47933W        W20358  34.020  29.597  14.996
47934W        W20359  15.842   2.363   1.402
47935W        W20360   1.356   5.275  13.077
47936W        W20361   9.699  43.731   2.221
47937W        W20362  26.432   2.218   3.854
47938W        W20363  22.071  39.542   4.662
47939W        W20364  32.691  43.922  13.465
47940W        W20365  36.540  33.674  11.547
47941W        W20366  21.210  20.023   4.138
47942W        W20367  40.241  14.513   4.835
47943W        W20368  14.153  25.628  11.891
47944W        W20369  31.612  36.489   1.891
47945W        W20370  28.019  27.031  12.320
47946W        W20371  17.731  38.288   1.985
47947W        W20372  17.310  42.241   4.298
47948W        W20373  36.338  24.095  14.533
47949W        W20374   1.188   1.619   0.389
47950W        W20375  17.720  32.602   1.728
47951W        W20376   4.783  20.543   3.333
47952W        W20377  39.032  20.527   3.713
47953W        W20378  31.477  29.429   4.831
47954W        W20379  10.908  17.549   2.756
47955W        W20380  28.508  19.291  11.561
47956W        W20381  23.162  22.374   2.732
47957W        W20382  12.146  23.874  10.686
47958W        W20383  26.950  26.100   0.024
47959W        W20384  38.904  22.475   2.226
47960W        W20385  16.243  30.224   2.620
47961W        W20386  36.177  14.588  11.186
47962W        W20387  34.159   9.122  11.577
47963W        W20388  26.794   0.441   4.641
47964W        W20389  35.030  34.628  14.887
47965W        W20390  32.488   1.180  14.935
47966W        W20391  41.403  19.983   3.516
47967W        W20392  41.603   7.682   2.729
47968W        W20393  22.446  19.883  11.642
47969W        W20394  23.015   6.889  10.976
47970W        W20395   5.315  34.151  14.320
47971W        W20396   6.882   8.346  14.590
47972W        W20397  39.892  41.950   5.020
47973W        W20398  33.475   2.464   0.677
47974W        W20399  23.191  19.315   1.892
47975W        W20400   4.340  14.109  12.089
47976W        W20401  10.698  17.002  14.034
47977W        W20402  23.811   5.684   0.889
47978W        W20403  16.773  31.654  11.133
47979W        W20404  40.778  13.601  13.298
47980W        W20405  18.722  12.474   3.497
47981W        W20406   8.769  30.214   3.757
47982W        W20407  24.532  24.583  11.672
47983W        W20408  32.674   1.599  11.166
47984W        W20409  21.287  32.565   1.794
47985W        W20410  29.982  35.535  13.936
47986W        W20411  44.007  19.218  10.543
47987W        W20412  42.243  27.493  12.178
47988W        W20413  43.410  27.597  10.628
47989W        W20414   2.277  37.496   0.996
47990W        W20415   7.889   1.785   2.759
47991W        W20416  30.730  22.108  14.396
47992W        W20417  33.269  40.513  11.234
47993W        W20418  36.525  11.745   4.917
47994W        W20419  15.873  44.885  12.492
47995W        W20420  18.552  17.287   0.477
47996W        W20421  15.296   7.616  13.353
47997W        W20422  13.947   4.343  10.944
47998W        W20423  38.553  33.383   3.406
47999W        W20424  31.692  26.671   0.703
48000W        W20425  31.652   5.530  13.114
48001W        W20426  30.817  18.617  11.026
48002W        W20427   1.640  21.728  11.897
48003W        W20428  21.505  44.734  11.193
48004W        W20429   6.481  20.573   0.369
48005W        W20430  15.322  19.959  11.059
48006W        W20431  21.600   1.094   4.989
48007W        W20432   7.128  23.111   3.088
48008W        W20433  18.011   3.989   1.415
48009W        W20434   2.287  15.498  10.260
48010W        W20435  37.108  23.650  13.647
48011W        W20436  27.417   4.825  10.474
48012W        W20437  27.094  32.890   2.846
48013W        W20438  31.854  15.362  11.095
48014W        W20439  22.330   3.507   1.881
48015W        W20440  21.039   5.996  12.184
48016W        W20441   2.815  13.133  10.632
48017W        W20442   7.925   0.378   2.778
48018W        W20443   8.711  37.484  12.255
48019W        W20444  39.758  24.336  11.162
48020W        W20445  31.903  16.175  14.025
48021W        W20446  26.618  18.717  12.047
48022W        W20447  18.740  15.336  10.472
48023W        W20448  11.633  29.851  10.956
48024W        W20449  42.298  14.294  14.891
48025W        W20450  27.493  16.942   0.524
48026W        W20451  22.590  35.820  11.941
48027W        W20452  13.571  42.051   1.423
48028W        W20453  10.114   4.818  10.216
48029W        W20454  31.040  36.636  13.510
48030W        W20455  11.927  33.089   4.357
48031W        W20456  31.782  32.708   4.172
48032W        W20457  33.379   7.469   1.901
48033W        W20458  15.404  23.146  11.900
48034W        W20459   1.334   1.874   2.440
48035W        W20460  20.131   7.261  12.008
48036W        W20461  15.834  12.409   1.893
48037W        W20462   7.962  15.899  13.388
48038W        W20463  29.204   6.387  11.851
48039W        W20464  13.109  44.516   1.319
48040W        W20465   9.787  19.614   3.377
48041W        W20466  27.158  16.481   3.423
48042W        W20467   5.494  17.041  10.417
48043W        W20468  32.273  33.490   9.889
48044W        W20469   1.070  19.098  10.631
48045W        W20470  23.118  28.372  11.912
48046W        W20471  26.798  21.093   0.506
48047W        W20472  15.762  36.370   2.963
48048W        W20473  31.869  23.751  13.049
48049W        W20474  26.687  13.690  12.982
48050W        W20475  35.100   3.365   0.695
48051W        W20476  19.219  31.785  11.335
48052W        W20477  28.939  33.947   3.153
48053W        W20478   9.208   6.956   3.682
48054W        W20479  44.067  18.009   2.404
48055W        W20480  24.956  37.436  13.780
48056W        W20481  32.317  24.993   0.269
48057W        W20482   5.309  20.876  10.931
48058W        W20483  42.423   4.934   3.295
48059W        W20484  19.760  39.403   3.571
48060W        W20485  43.036  38.426   4.577
48061W        W20486  23.129  26.732  10.785
48062W        W20487  42.960  23.080   2.995
48063W        W20488  39.594   8.274   4.176
48064W        W20489   6.643  35.312  14.331
48065W        W20490   2.841  17.219   4.916
48066W        W20491  41.500  29.448  12.621
48067W        W20492  24.207  22.211   0.976
48068W        W20493  21.441  19.054  12.495
48069W        W20494  27.579   8.991   4.562
48070W        W20495   4.775  35.964   4.960
48071W        W20496   8.350  19.240   2.645
48072W        W20497  22.484   1.466  13.511
48073W        W20498  32.461  11.577   0.475
48074W        W20499  33.507  14.190   5.039
48075W        W20500  10.604  31.624  12.398
48076W        W20501  19.733  44.990  11.883
48077W        W20502   7.369  20.218   4.607
48078W        W20503   6.208  36.392   0.314
48079W        W20504  34.039  19.582  11.653
48080W        W20505  18.250   5.234   0.021
48081W        W20506  13.591   4.380   3.707
48082W        W20507  31.087  17.807  12.288
48083W        W20508  32.333  14.932   0.948
48084W        W20509  36.315  29.861  10.763
48085W        W20510  42.897  37.536   1.470
48086W        W20511  43.461  29.094   1.917
48087W        W20512  44.145  15.834  10.175
48088W        W20513  29.752  28.631   2.906
48089W        W20514   4.550  18.241   3.832
48090W        W20515  40.447   0.690  13.344
48091W        W20516  39.474  17.557  14.022
48092W        W20517  32.647   7.685  11.096
48093W        W20518   8.530  14.275   0.621
48094W        W20519  21.854  30.532  12.420
48095W        W20520  42.757  29.568  11.246
48096W        W20521  26.171  26.518   4.366
48097W        W20522  38.017  22.573  11.191
48098W        W20523   8.844  15.896  14.582
48099W        W20524  24.205   8.413   3.657
48100W        W20525  32.371   5.784   1.243
48101W        W20526  34.820  34.400  11.944
48102W        W20527  44.315  35.206   3.362
48103W        W20528   1.182  36.512   4.409
48104W        W20529   6.893   9.239  11.320
48105W        W20530  33.583  39.788   4.084
48106W        W20531  21.579  38.144  14.597
48107W        W20532   8.418  34.705  13.364
48108W        W20533   8.828  17.718   4.586
48109W        W20534  39.366  10.224   0.330
48110W        W20535  17.499  10.416  10.959
48111W        W20536  40.790  28.207  12.451
48112W        W20537  10.240  27.462   1.799
48113W        W20538  36.016  16.652  13.047
48114W        W20539  26.721  37.490   2.922
48115W        W20540  23.702  22.190  14.681
48116W        W20541   3.300  14.797  11.655
48117W        W20542   5.753  38.236  10.736
48118W        W20543  40.212  40.013   4.162
48119W        W20544  29.052  13.082   3.262
48120W        W20545  37.870  10.844  14.880
48121W        W20546   7.476  24.021  13.812
48122W        W20547   5.286  26.283   3.940
48123W        W20548  16.040  43.608   1.459
48124W        W20549   9.694  32.350   0.270
48125W        W20550  20.688  26.754   3.907
48126W        W20551  19.847  31.220   4.750
48127W        W20552   2.793   1.382   4.230
48128W        W20553  32.194   6.465   5.134
48129W        W20554  21.301  33.105  13.099
48130W        W20555  31.969  17.010  10.693
48131W        W20556  43.967   3.002  10.657
48132W        W20557  14.096  22.158  11.651
48133W        W20558  31.466  11.433  10.683
48134W        W20559  18.990   4.310  13.215
48135W        W20560  28.926   7.280  14.116
48136W        W20561   6.684  14.111  14.350
48137W        W20562  20.309  29.016   0.422
48138W        W20563   1.813  26.820  13.101
48139W        W20564  39.228  39.781   2.577
48140W        W20565  39.079  37.244   0.501
48141W        W20566  23.444  28.470   0.088
48142W        W20567  42.368  15.380   2.856
48143W        W20568   3.746   7.903   2.792
48144W        W20569  41.517  10.690  10.566
48145W        W20570  27.604  22.476   0.716
48146W        W20571   1.403  10.532   0.912
48147W        W20572  13.708  21.391  10.330
48148W        W20573  37.447   7.319  11.054
48149W        W20574  36.399   0.610  13.508
48150W        W20575  22.941  38.903   1.758
48151W        W20576  17.490   4.787   0.272
48152W        W20577  10.197  16.445  11.163
48153W        W20578  18.845  37.886   2.934
48154W        W20579  12.642   0.617  13.157
48155W        W20580  28.105   7.402   2.349
48156W        W20581   9.484  12.345   1.754
48157W        W20582  14.670  44.249   0.235
48158W        W20583   7.115  41.925   1.803
48159W        W20584  25.331  39.780   0.043
48160W        W20585  22.690  44.242   3.700
48161W        W20586  36.863  20.304   0.729
48162W        W20587  30.591   8.746   3.290
48163W        W20588  15.729  11.503  11.972
48164W        W20589  21.051  36.950  12.684
48165W        W20590   0.332  30.084  12.215
48166W        W20591  40.741   9.735   3.715
48167W        W20592  21.774  39.853  13.100
48168W        W20593  17.180  33.776  10.845
48169W        W20594  15.622   6.496   0.838
48170W        W20595  33.942  26.520  12.315
48171W        W20596  15.039  38.103   2.828
48172W        W20597  12.614  18.599   1.735
48173W        W20598  16.768  14.357  13.908
48174W        W20599  23.022   1.522  11.943
48175W        W20600  29.404  24.667  13.380
48176W        W20601  29.007   0.360   3.265
48177W        W20602  44.142  18.147   4.688
48178W        W20603  42.740  40.396   2.824
48179W        W20604  26.641  38.369  10.120
48180W        W20605   3.986  21.698   3.206
48181W        W20606  12.715  44.053  14.169
48182W        W20607  30.962  39.399  11.388
48183W        W20608  15.044   2.772   4.296
48184W        W20609   3.209  33.736   2.063
48185W        W20610  18.311   7.929   0.167
48186W        W20611  10.439  33.447   4.332
48187W        W20612  11.307  44.431  13.422
48188W        W20613   5.635   4.974  13.074
48189W        W20614   9.361  36.971   0.340
48190W        W20615   1.364  42.274  12.485
48191W        W20616   1.807  33.080  11.395
48192W        W20617  35.549   5.736  12.505
48193W        W20618  21.472   5.830  12.447
48194W        W20619  26.109  30.704   4.680
48195W        W20620  15.129  37.829   3.727
48196W        W20621   7.226  41.852  12.936
48197W        W20622  41.572   8.436   0.437
48198W        W20623  24.646  20.177  14.276
48199W        W20624  27.078  19.203  14.944
48200W        W20625  38.268  31.882  14.050
48201W        W20626  33.072   8.112  11.247
48202W        W20627  27.616  29.958   9.994
48203W        W20628  34.576  18.769   1.829
48204W        W20629  14.898   3.285   5.029
48205W        W20630  35.982  34.566  10.748
48206W        W20631  21.998  40.526   3.260
48207W        W20632   7.572  11.441   3.823
48208W        W20633  23.763  30.589   4.175
48209W        W20634   0.417  22.620   0.412
48210W        W20635  42.585   9.156  11.521
48211W        W20636  25.518  38.236   3.729
48212W        W20637  16.570  29.343   2.373
48213W        W20638  18.888  31.451  14.030
48214W        W20639  18.168  13.149  10.449
48215W        W20640   3.250   9.631  13.263
48216W        W20641  13.389  26.776  13.174
48217W        W20642  20.738   6.959  14.419
48218W        W20643  35.923  33.342  11.138
48219W        W20644   8.234  29.045   4.186
48220W        W20645   2.918  19.669  10.626
48221W        W20646   1.750   6.721  14.949
48222W        W20647  32.934  34.636   4.157
48223W        W20648  23.001  36.954  14.767
48224W        W20649  18.806   6.182   4.581
48225W        W20650  31.947   8.911  13.846
48226W        W20651   8.915  37.591   1.945
48227W        W20652  32.107  18.061   1.650
48228W        W20653  27.958  41.506  12.970
48229W        W20654   4.424   0.972   2.321
48230W        W20655  16.798  20.221  14.755
48231W        W20656   2.721   1.963  11.190
48232W        W20657  34.644  13.085  10.626
48233W        W20658  28.237   9.957   2.345
48234W        W20659  44.516   6.801   2.123
48235W        W20660  25.693  28.073  10.683
48236W        W20661   2.983   9.572  11.602
48237W        W20662  27.871   5.439   4.521
48238W        W20663  34.843  37.374   4.225
48239W        W20664  21.721   1.760   2.827
48240W        W20665  12.757   1.343  14.347
48241W        W20666  30.616  10.091   2.834
48242W        W20667  30.155   9.608   1.813
48243W        W20668  44.953  24.997  14.936
48244W        W20669  30.465  12.381   4.023
48245W        W20670   7.064  38.490  10.424
48246W        W20671   0.917  13.542  11.553
48247W        W20672  28.134  31.644  14.775
48248W        W20673  17.168  38.605  11.099
48249W        W20674  30.967  26.133   0.852
48250W        W20675  16.232  21.716   2.731
48251W        W20676  31.818   7.068  11.390
48252W        W20677  26.645  38.811  10.930
48253W        W20678  11.680  23.996  10.541
48254W        W20679  40.846   2.877   2.429
48255W        W20680  11.665  16.653   3.269
48256W        W20681  27.877  30.973   4.122
48257W        W20682  26.563  38.351  10.645
48258W        W20683   5.887  18.233  14.926
48259W        W20684  37.493   1.903   3.959
48260W        W20685  12.858  16.124  11.142
48261W        W20686  12.811  12.709   4.701
48262W        W20687  41.388  16.809   0.998
48263W        W20688  38.578   3.890  11.390
48264W        W20689  35.063   1.047  11.810
48265W        W20690  43.431  15.804  13.178
48266W        W20691  26.931  21.705   2.713
48267W        W20692  25.617  33.346  10.076
48268W        W20693  21.990  31.869  14.459
48269W        W20694  14.353  41.057  14.766
48270W        W20695  23.672  21.743  11.188
48271W        W20696  34.198  16.089   3.824
48272W        W20697   7.992  36.922   2.757
48273W        W20698  16.014  29.542  13.908
48274W        W20699  21.389   4.611   2.365
48275W        W20700  33.514  17.723  14.499
48276W        W20701   7.394  38.629   0.320
48277W        W20702  28.636  15.212  10.720
48278W        W20703  39.157   6.837   0.940
48279W        W20704  24.144  31.829  11.033
48280W        W20705  26.045  27.563  11.730
48281W        W20706  27.988  33.695   1.072
48282W        W20707   9.164   5.329   3.178
48283W        W20708  24.378  30.884  14.354
48284W        W20709  21.514  17.197  13.408
48285W        W20710  19.203  35.467  13.837
48286W        W20711  35.692  10.274  13.931
48287W        W20712  36.034  25.092  11.001
48288W        W20713   4.694   5.208  14.372
48289W        W20714   1.144  43.572   4.131
48290W        W20715  19.747  25.276   1.118
48291W        W20716  27.900   8.730   4.189
48292W        W20717  26.411  29.683  11.083
48293W        W20718   0.886  14.599  11.628
48294W        W20719  35.957  39.012  10.704
48295W        W20720  26.948  14.059   1.852
48296W        W20721   1.090  38.866   2.262
48297W        W20722  19.091  10.195   0.061
48298W        W20723   7.771   6.226  11.377
48299W        W20724  42.303   2.473  13.287
48300W        W20725   2.292  22.847   1.095
48301W        W20726  11.129  41.289   4.926
48302W        W20727  26.754  20.483  13.885
48303W        W20728  11.771  30.519   5.100
48304W        W20729  28.078  31.915   3.828
48305W        W20730   9.740  21.254  11.939
48306W        W20731  27.925   7.165   4.232
48307W        W20732   6.928   6.666  12.440
48308W        W20733  40.641  39.333   1.749
48309W        W20734  17.545  26.169  14.308
48310W        W20735  22.307  20.223  12.929
48311W        W20736  33.671   8.481  13.508
48312W        W20737  32.199  25.562  11.497
48313W        W20738  12.778  28.689   4.584
48314W        W20739  25.040  28.517  13.096
48315W        W20740  15.313  31.403  14.781
48316W        W20741  44.318  18.113  13.722
48317W        W20742  37.785  22.152  11.440
48318W        W20743  15.024  29.367   3.916
48319W        W20744  12.342   3.911   0.428
48320W        W20745   6.671  20.162  13.826
48321W        W20746   2.506  12.588  12.892
48322W        W20747  13.424  38.127  11.884
48323W        W20748  19.138  34.645  14.219
48324W        W20749  44.363  32.677   4.527
48325W        W20750  28.821  25.934   0.047
48326W        W20751  27.948  37.014  13.946
48327W        W20752   4.828  30.354  12.070
48328W        W20753   6.279  30.584   4.087
48329W        W20754  41.389   5.516  11.442
48330W        W20755  10.863  40.035   0.986
48331W        W20756  36.113  24.279   3.752
48332W        W20757  44.746  10.729   3.837
48333W        W20758  19.551  17.574   4.292
48334W        W20759   3.445  17.489  12.627
48335W        W20760  32.237  37.186   0.963
48336W        W20761  18.284  19.643   2.843
48337W        W20762  32.817   5.908   2.396
48338W        W20763   9.324   9.101  14.497
48339W        W20764   8.221  19.234  14.818
48340W        W20765  27.062  25.529  13.864
48341W        W20766  14.155  41.234  12.338
48342W        W20767  40.390  39.287   4.137
48343W        W20768  35.597  37.897   3.317
48344W        W20769   3.191   0.591  13.612
48345W        W20770  16.723   2.252   0.304
48346W        W20771   2.987  11.727  11.395
48347W        W20772   2.573   5.856   1.371
48348W        W20773  19.205  39.434   1.637
48349W        W20774  25.992  30.969  13.441
48350W        W20775  24.146  40.213   2.907
48351W        W20776  11.246  35.173  11.041
48352W        W20777   8.385  40.348  12.450
48353W        W20778  33.180  16.393  10.162
48354W        W20779  30.468   5.868  13.997
48355W        W20780  29.639  21.026  11.064
48356W        W20781   3.729  19.352  12.045
48357W        W20782  17.757  24.435  14.732
48358W        W20783  21.997  28.130   4.177
48359W        W20784   5.442  17.865   2.912
48360W        W20785  32.295  25.077   3.734
48361W        W20786  19.600  21.255  12.274
48362W        W20787   3.411  36.101   3.783
48363W        W20788  44.007  30.573   0.680
48364W        W20789  38.330  13.787   1.039
48365W        W20790  37.646   4.458  13.482
48366W        W20791   7.043  36.870   0.954
48367W        W20792  40.015   4.154   4.772
48368W        W20793  13.547  35.101   1.364
48369W        W20794  14.940   0.256   0.394
48370W        W20795   9.164  26.037   3.149
48371W        W20796  16.786   6.348   0.426
48372W        W20797  39.260  23.940  13.370
48373W        W20798  27.462   4.442   2.252
48374W        W20799   3.236  12.568   4.621
48375W        W20800  30.915  28.081  12.470
48376W        W20801  34.439  22.959  11.172
48377W        W20802  26.261  22.691   1.381
48378W        W20803  42.679  17.205   5.013
48379W        W20804  25.409  37.184  13.841
48380W        W20805   4.043  32.015   2.664
48381W        W20806  25.673  28.644   0.879
48382W        W20807  41.481  12.776  13.866
48383W        W20808   6.365  31.969  12.485
48384W        W20809  41.897  31.415   3.050
48385W        W20810   7.070  22.464  11.223
48386W        W20811  34.128   9.828  13.083
48387W        W20812  15.362   6.417   4.241
48388W        W20813  37.858  21.696  14.414
48389W        W20814  33.487  41.218  11.621
48390W        W20815  27.603  12.748   0.378
48391W        W20816  34.683  23.715  12.094
48392W        W20817  33.403  20.886   3.423
48393W        W20818  17.115   4.906   3.908
48394W        W20819  21.012  39.135   1.349
48395W        W20820  13.714  31.136   0.288
48396W        W20821  25.203   4.793   2.328
48397W        W20822  21.709  13.859  10.988
48398W        W20823  11.845  38.904   3.680
48399W        W20824  13.145   7.600   3.773
48400W        W20825  24.245  17.972  12.920
48401W        W20826  31.185   4.545  13.097
48402W        W20827  34.925  28.474  14.242
48403W        W20828  26.154  35.390  12.333
48404W        W20829  11.126  16.289  14.067
48405W        W20830  14.724  39.756  12.182
48406W        W20831  11.583  22.172  10.408
48407W        W20832  43.417  31.856  11.535
48408W        W20833  44.475  15.852   2.380
48409W        W20834  41.953  17.075  12.040
48410W        W20835   8.872  19.619  12.165
48411W        W20836  24.993   8.964   1.789
48412W        W20837  29.934  19.278  11.624
48413W        W20838  11.334   8.941   2.494
48414W        W20839  43.855   6.160   2.416
48415W        W20840   8.008  43.720   2.806
48416W        W20841  21.562  24.339   3.231
48417W        W20842   3.627   3.637  11.247
48418W        W20843  22.348   2.459   0.829
48419W        W20844  10.178  44.729  13.939
48420W        W20845   8.665  16.020  12.664
48421W        W20846   4.802  16.603   1.864
48422W        W20847   8.279  30.151   3.539
48423W        W20848  15.565  16.639   2.837
48424W        W20849   4.271  25.216  12.960
48425W        W20850   8.827  39.455  13.868
48426W        W20851  12.730  19.547  13.779
48427W        W20852   8.865  11.229  13.360
48428W        W20853   5.667   3.076   1.725
48429W        W20854  21.547  19.587  11.634
48430W        W20855   4.582  22.490  14.316
48431W        W20856  29.585  32.850   0.201
48432W        W20857  10.266  35.342   0.431
48433W        W20858  19.861  17.833   1.553
48434W        W20859  23.658  20.780  13.323
48435W        W20860  37.378  18.528  13.348
48436W        W20861   6.249  28.892   3.664
48437W        W20862   2.463  42.481  13.288
48438W        W20863  18.003  13.560  12.893
48439W        W20864  43.778  43.450  13.084
48440W        W20865  39.315  39.915   3.179
48441W        W20866   6.647  16.172   1.462
48442W        W20867  39.120  11.219  12.197
48443W        W20868  14.417   8.265  14.324
48444W        W20869  22.126  25.275   0.325
48445W        W20870  37.034   3.644   2.773
48446W        W20871  22.972  34.308  12.048
48447W        W20872   8.841  11.549  13.801
48448W        W20873  20.369  32.081   3.328
48449W        W20874  20.941  31.615   4.952
48450W        W20875  22.134  29.002  13.252
48451W        W20876   8.182  42.672   5.014
48452W        W20877  22.151  11.865   5.225
48453W        W20878  44.581  39.893  14.426
48454W        W20879  16.487  16.051   4.318
48455W        W20880   0.687  14.269   3.152
48456W        W20881  23.149   6.797   4.863
48457W        W20882  35.915  16.258   3.802
48458W        W20883  36.854  19.657  10.820
48459W        W20884  26.023  18.198  11.439
48460W        W20885  44.446  25.145  13.235
48461W        W20886  31.586   2.360  14.001
48462W        W20887   9.646  28.380  10.772
48463W        W20888  43.447  18.633   2.395
48464W        W20889   5.984  42.589  12.906
48465W        W20890  43.966  22.454  11.897
48466W        W20891   6.291  32.600   1.043
48467W        W20892   1.976  37.508   0.566
48468W        W20893  23.681  15.136  12.054
48469W        W20894  18.216  11.848   1.474
48470W        W20895  15.189  33.928  12.479
48471W        W20896  19.724   6.295  11.564
48472W        W20897  33.830  44.872  10.792
48473W        W20898  22.027  12.967   3.410
48474W        W20899   9.480  39.833   2.372
48475W        W20900   0.554  19.060  10.696
48476W        W20901  31.565  28.657   3.049
48477W        W20902  34.075   3.614   2.431
48478W        W20903  34.996  35.369  12.080
48479W        W20904  44.339  38.310   4.121
48480W        W20905  32.883  10.860  11.201
48481W        W20906  40.525  20.493   1.815
48482W        W20907  24.608  29.513   0.843
48483W        W20908   6.448  28.460   3.859
48484W        W20909  34.247  40.959   3.676
48485W        W20910  23.050   7.853   2.740
48486W        W20911  24.155   4.004  11.920
48487W        W20912  28.700  21.792  14.466
48488W        W20913  30.530   5.796  12.673
48489W        W20914  41.396  18.692   3.115
48490W        W20915  31.943  16.320   2.353
48491W        W20916  29.914  24.843   2.902
48492W        W20917  26.692  30.081  10.899
48493W        W20918  24.173  13.763  10.906
48494W        W20919  25.265   1.855  13.850
48495W        W20920   9.767  26.329   1.668
48496W        W20921  10.138  13.415   3.617
48497W        W20922  36.996  14.887   0.853
48498W        W20923  21.443   4.478   2.870
48499W        W20924  10.345   6.827   0.185
48500W        W20925  18.033  12.669   2.186
48501W        W20926  25.626  20.080  12.288
48502W        W20927  19.884  19.142  14.338
48503W        W20928  28.546   2.986   0.647
48504W        W20929  31.948   3.781   0.246
48505W        W20930   4.330  10.749  11.948
48506W        W20931   7.647  24.460   1.174
48507W        W20932  16.566  12.984   1.895
48508W        W20933  15.012  25.148   2.530
48509W        W20934  32.594  11.486  14.846
48510W        W20935   5.408  26.419   5.121
48511W        W20936  21.642  14.541  13.494
48512W        W20937  42.089  39.299   1.055
48513W        W20938  14.751  24.621   1.794
48514W        W20939  19.331  25.765   2.835
48515W        W20940  26.115  35.979  10.429
48516W        W20941   7.997  32.645   1.897
48517W        W20942  21.334  22.104  12.033
48518W        W20943  30.817  10.142  14.420
48519W        W20944  16.541   1.458  14.894
48520W        W20945  22.623  34.033  12.297
48521W        W20946  22.392  35.465  11.598
48522W        W20947  37.802  42.169  12.919
48523W        W20948  40.335  19.685  11.605
48524W        W20949  29.158  14.825  14.100
48525W        W20950  26.602  39.386   1.961
48526W        W20951  21.980  19.641  11.952
48527W        W20952  29.272  30.287  12.009
48528W        W20953  39.403   3.387  10.849
48529W        W20954   4.972  12.297   1.320
48530W        W20955  33.816  10.214  12.963
48531W        W20956  36.093  39.498   1.651
48532W        W20957  14.238  12.160  14.885
48533W        W20958  33.484  24.182   2.364
48534W        W20959  21.643  15.596  14.957
48535W        W20960   8.858   0.551   3.752
48536W        W20961  31.029   3.057  13.047
48537W        W20962  15.257   7.573  11.092
48538W        W20963  31.638  33.342  10.995
48539W        W20964  39.926  17.657  13.280
48540W        W20965  39.298   9.241   0.304
48541W        W20966   9.953  40.711  14.230
48542W        W20967  11.777  44.003  11.507
48543W        W20968   5.603   1.332  11.603
48544W        W20969  42.284  30.021   4.402
48545W        W20970   0.879  21.035   5.048
48546W        W20971  34.069  28.217   1.197
48547W        W20972   7.276  33.147  11.046
48548W        W20973   0.863  42.381   2.144
48549W        W20974  40.457  16.752  11.667
48550W        W20975  14.657  12.309  12.510
48551W        W20976  19.224   6.446   4.405
48552W        W20977  11.839  33.382   5.165
48553W        W20978  30.850   7.822   1.864
48554W        W20979  11.761  36.322   3.818
48555W        W20980  30.038  32.036  11.300
48556W        W20981  42.000   0.295  14.810
48557W        W20982  36.618  27.692   1.672
48558W        W20983  30.815  25.049   2.842
48559W        W20984  19.344  23.041  12.022
48560W        W20985  22.856   5.222   1.336
48561W        W20986   5.464  41.106  12.409
48562W        W20987  20.024   8.358  13.076
48563W        W20988   5.495   5.205  12.052
48564W        W20989   7.725  14.548  11.484
48565W        W20990  43.113  23.406   2.173
48566W        W20991  17.232   0.772  10.152
48567W        W20992  17.613   0.027  10.410
48568W        W20993  25.656   6.708   2.457
48569W        W20994  10.317  14.383  13.808
48570W        W20995   6.248   6.917   3.476
48571W        W20996  17.928  15.606   3.174
48572W        W20997  40.243  10.096  14.921
48573W        W20998  30.398  39.614  11.205
48574W        W20999  38.946  34.703  14.006
48575W        W21000  44.803   1.785   3.820
48576W        W21001  21.337  12.803  13.844
48577W        W21002  15.803  38.078  12.442
48578W        W21003   1.241  14.081   0.892
48579W        W21004  15.592  22.948   4.852
48580W        W21005  11.188  16.789  10.493
48581W        W21006  31.366  44.336   1.225
48582W        W21007  10.843   7.890  11.671
48583W        W21008  38.881   7.560  10.735
48584W        W21009  20.333  39.816  14.991
48585W        W21010   2.407  33.152  12.520
48586W        W21011  36.156  44.796   3.257
48587W        W21012   4.299  26.665   4.915
48588W        W21013  15.590   6.083  14.920
48589W        W21014  14.056  14.699  11.603
48590W        W21015  30.450  38.478  14.628
48591W        W21016  43.787  43.975   1.926
48592W        W21017  19.199  28.961   1.224
48593W        W21018  42.464  33.640  14.003
48594W        W21019  13.329  10.908  11.901
48595W        W21020  28.461  10.761   4.471
48596W        W21021  19.638  35.033   4.109
48597W        W21022  20.267  26.600  12.682
48598W        W21023  16.607  19.120  11.613
48599W        W21024  42.892  37.880  12.517
48600W        W21025   6.622  21.494   2.326
48601W        W21026  31.011  44.979   1.683
48602W        W21027  28.365   4.384   0.737
48603W        W21028  33.171  28.637   4.589
48604W        W21029  12.937  19.847  11.536
48605W        W21030  32.046  14.838   4.330
48606W        W21031  36.234   6.331  14.891
48607W        W21032  15.505  26.623   0.578
48608W        W21033  18.261   7.286   3.357
48609W        W21034  41.665   0.634  14.592
48610W        W21035  29.086   1.739   0.689
48611W        W21036  27.610  33.883  10.223
48612W        W21037  21.217   3.187  13.562
48613W        W21038  25.505  39.912   0.514
48614W        W21039  23.982   5.046  10.608
48615W        W21040   7.461  21.592   2.018
48616W        W21041  18.558  22.247   3.194
48617W        W21042  29.673  31.671   1.459
48618W        W21043  44.438   5.589   0.777
48619W        W21044   4.641  20.071   1.363
48620W        W21045  36.489  38.070  12.201
48621W        W21046  24.766  33.466  13.255
48622W        W21047  25.236  21.637   1.849
48623W        W21048   3.009  19.893  13.426
48624W        W21049  40.423   4.675  12.558
48625W        W21050  13.340  39.532   4.561
48626W        W21051  15.059  30.531  14.435
48627W        W21052  23.965   5.858   2.667
48628W        W21053  37.614   5.441  11.134
48629W        W21054  24.675   5.406  12.066
48630W        W21055  43.427  29.114  11.019
48631W        W21056   3.793   0.869   0.818
48632W        W21057  27.920   0.198  11.099
48633W        W21058  24.275  29.167  11.820
48634W        W21059  37.311  19.052  13.380
48635W        W21060  44.487  18.776  12.960
48636W        W21061  20.004   6.207  11.040
48637W        W21062  21.495  29.440   0.844
48638W        W21063  33.586   5.852  11.518
48639W        W21064  27.632  10.118  13.999
48640W        W21065  19.545  22.331   4.398
48641W        W21066  44.952   9.342   0.747
48642W        W21067   4.312  26.857   4.112
48643W        W21068   9.184  29.598   0.129
48644W        W21069   0.444  44.977  12.944
48645W        W21070   9.287  13.231   4.201
48646W        W21071  27.524  42.847  10.644
48647W        W21072  27.106  42.523   4.647
48648W        W21073  14.864  15.168   0.686
48649W        W21074  40.951  35.309  14.537
48650W        W21075  18.998  30.467   2.359
48651W        W21076  25.690  25.670   1.775
48652W        W21077   4.930  35.247  13.461
48653W        W21078  25.718  30.498  13.500
48654W        W21079  16.648  38.756  12.522
48655W        W21080  15.880  30.942   0.348
48656W        W21081  12.638  30.653  13.174
48657W        W21082   2.965  44.602  13.857
48658W        W21083   4.661  40.954  12.186
48659W        W21084  17.136  31.629   5.002
48660W        W21085  38.112  19.458   2.324
48661W        W21086  20.253  41.100  11.965
48662W        W21087   2.147  27.220   4.046
48663W        W21088  42.793  31.632  13.464
48664W        W21089  13.334   5.603  13.272
48665W        W21090   0.266  24.816   4.866
48666W        W21091   9.794  14.893   3.673
48667W        W21092  44.418  11.516   1.654
48668W        W21093  42.089  19.139  14.475
48669W        W21094  20.521  17.087   1.377
48670W        W21095  16.339   6.019  12.327
48671W        W21096  10.620   5.710  13.494
48672W        W21097  10.928   8.481   5.126
48673W        W21098   1.047   9.787   2.853
48674W        W21099  13.343  44.074  11.170
48675W        W21100  40.829  36.459   4.755
48676W        W21101  27.950  26.661   3.119
48677W        W21102  27.137  33.545  14.427
48678W        W21103   0.876   4.994   4.579
48679W        W21104  15.904  19.090  11.124
48680W        W21105  21.381   0.503  11.079
48681W        W21106  17.317  32.093   1.422
48682W        W21107   4.874   3.662   2.815
48683W        W21108  44.179  31.648  13.416
48684W        W21109  12.615   5.125   3.212
48685W        W21110  21.095  39.648   4.222
48686W        W21111  33.532  43.459   3.786
48687W        W21112  25.655  42.016   0.399
48688W        W21113  23.613  16.178  10.541
48689W        W21114  44.952   9.841  13.779
48690W        W21115  39.517  13.866   0.053
48691W        W21116  43.973   5.344   3.772
48692W        W21117  19.104  11.435  13.832
48693W        W21118  40.841  36.557   1.315
48694W        W21119  18.871  44.115   0.904
48695W        W21120  27.118  41.548   2.217
48696W        W21121  11.247  12.883   2.292
48697W        W21122  10.590  23.828  14.215
48698W        W21123   8.668  19.731   3.957
48699W        W21124  31.190  26.502  11.462
48700W        W21125  38.882  11.530  10.574
48701W        W21126  30.944  35.603  11.965
48702W        W21127  41.597  29.554   4.041
48703W        W21128   0.767  19.873   2.286
48704W        W21129  18.181   5.936   2.220
48705W        W21130   2.342  17.753   1.127
48706W        W21131  30.544  22.601   0.320
48707W        W21132  19.335  25.119   2.358
48708W        W21133  24.573  41.981  10.491
48709W        W21134  13.189  15.897  10.827
48710W        W21135  21.257   8.493   5.175
48711W        W21136  22.000  26.836   0.168
48712W        W21137   0.415   8.408   3.774
48713W        W21138   0.572  39.340  13.981
48714W        W21139  41.551  37.318  12.419
48715W        W21140  38.965  15.314   0.233
48716W        W21141  41.600   2.387   4.567
48717W        W21142  16.555  17.342   0.469
48718W        W21143  10.932  23.837  10.124
48719W        W21144  44.291   0.534   0.458
48720W        W21145   9.591  24.102  11.192
48721W        W21146  18.877  34.841   3.156
48722W        W21147  10.228  12.055   4.534
48723W        W21148  31.404  33.385   2.760
48724W        W21149  20.771  23.968   0.997
48725W        W21150  23.264   0.684  11.334
48726W        W21151  29.994  14.825  10.719
48727W        W21152  27.475  27.717  13.434
48728W        W21153  26.019   3.128   5.080
48729W        W21154  43.467  34.666   3.245
48730W        W21155  20.507  11.939   0.468
48731W        W21156  21.533  34.985   4.629
48732W        W21157  41.922   3.225   3.564
48733W        W21158  42.566  33.054   2.325
48734W        W21159  32.939  42.049   3.956
48735W        W21160  35.513  42.304  12.902
48736W        W21161  19.879   2.884  14.027
48737W        W21162  37.014  31.961   0.903
48738W        W21163  38.612   2.161   1.441
48739W        W21164  37.008  40.391   2.845
48740W        W21165  40.002  17.298  11.919
48741W        W21166   8.905  40.903   0.981
48742W        W21167  19.502   1.094   2.214
48743W        W21168  40.655  37.916   2.748
48744W        W21169  38.946  24.486   1.269
48745W        W21170  14.587  19.711  12.025
48746W        W21171  35.848  13.140   2.197
48747W        W21172  10.828  24.282   1.427
48748W        W21173   3.552  36.657  13.433
48749W        W21174  28.988  20.458  11.864
48750W        W21175  19.740  23.279  14.383
48751W        W21176   1.249  39.007   1.281
48752W        W21177  33.378  16.808   1.274
48753W        W21178  20.170   6.988   0.238
48754W        W21179  16.859  28.004   2.299
48755W        W21180  41.811  14.858  11.606
48756W        W21181  15.935  40.867   2.544
48757W        W21182   6.944  31.307  11.063
48758W        W21183   6.867   3.387   4.738
48759W        W21184   7.898  21.348  12.098
48760W        W21185  22.700  22.189  13.537
48761W        W21186  18.767  35.772   3.310
48762W        W21187  27.722  40.889   0.334
48763W        W21188  11.472  18.314  10.255
48764W        W21189  16.811   8.342   0.880
48765W        W21190  22.530  35.942  13.917
48766W        W21191  42.546   5.396  10.712
48767W        W21192  10.296  38.588   1.191
48768W        W21193  13.342  12.096   3.714
48769W        W21194   6.760  21.889   0.363
48770W        W21195   3.838  38.750   0.831
48771W        W21196  10.156  26.195   1.324
48772W        W21197  34.498  18.438   2.242
48773W        W21198  22.465   0.687   3.767
48774W        W21199  41.008  23.203  11.186
48775W        W21200  42.776  16.849   2.154
48776W        W21201  22.703  32.387   4.217
48777W        W21202  29.879  20.244   4.438
48778W        W21203   4.229  16.542  11.984
48779W        W21204  19.040  43.599  10.803
48780W        W21205  17.372  40.227   2.259
48781W        W21206  25.928  15.624   0.671
48782W        W21207  16.752  38.939  13.007
48783W        W21208  30.719  21.268  13.780
48784W        W21209   3.402   9.612   3.163
48785W        W21210   0.339   5.056  11.972
48786W        W21211  23.198   0.275  12.157
48787W        W21212  15.635  34.818   4.025
48788W        W21213  26.492   4.922  10.500
48789W        W21214  21.671   0.745   2.708
48790W        W21215  10.093  26.585  13.458
48791W        W21216   7.644  14.648   2.168
48792W        W21217  12.581  11.281  11.456
48793W        W21218  35.613  37.654  11.184
48794W        W21219  13.844   6.480   0.394
48795W        W21220  24.023  17.154   2.893
48796W        W21221  15.287  21.663  13.194
48797W        W21222  13.621  28.178  14.586
48798W        W21223  40.890   0.132  14.464
48799W        W21224  17.561   6.265  12.798
48800W        W21225  25.136  21.692  12.640
48801W        W21226  27.123   0.855  10.176
48802W        W21227  24.942  28.471   2.169
48803W        W21228   8.601  25.055  14.412
48804W        W21229  16.676   0.840  12.537
48805W        W21230  25.906   4.432  14.649
48806W        W21231  12.290  15.843  11.448
48807W        W21232   7.229  21.582  11.713
48808W        W21233  16.881   2.784   5.616
48809W        W21234   6.971   3.805  11.991
48810W        W21235  11.955  27.011   3.313
48811W        W21236  14.010  32.846  10.537
48812W        W21237  37.331  29.999  12.871
48813W        W21238  31.889  30.569  14.818
48814W        W21239  10.223  26.492   0.887
48815W        W21240  24.432  33.196  12.427
48816W        W21241  30.533   8.804   2.018
48817W        W21242   5.632  32.015   3.418
48818W        W21243  21.568  29.863  13.539
48819W        W21244   8.407  37.011  11.853
48820W        W21245   7.644  23.028   4.078
48821W        W21246  33.460  11.943   5.128
48822W        W21247  10.141  25.193  13.313
48823W        W21248  36.070  23.857  10.503
48824W        W21249  17.074  36.839   2.916
48825W        W21250  34.887   1.121  11.338
48826W        W21251  43.461  11.692   2.539
48827W        W21252  21.213  40.947   0.798
48828W        W21253  39.839  30.516  14.469
48829W        W21254  15.315   7.170   0.268
48830W        W21255   4.842  30.325  13.402
48831W        W21256  28.923   0.319  11.140
48832W        W21257  19.203  35.897  12.961
48833W        W21258  22.260  43.937   4.948
48834W        W21259  30.587  25.642  12.391
48835W        W21260  30.901  34.940   0.707
48836W        W21261   1.334  25.626   3.516
48837W        W21262  39.882  42.994   0.664
48838W        W21263  42.278  33.385   0.556
48839W        W21264  29.473  11.821  11.587
48840W        W21265  18.572  20.326   0.083
48841W        W21266  43.987  37.985   2.130
48842W        W21267  35.504  44.283   1.946
48843W        W21268  26.595  11.912   3.111
48844W        W21269  30.553  30.084  13.877
48845W        W21270   2.498   3.678  14.897
48846W        W21271  42.736  17.690   0.376
48847W        W21272  17.840  31.426  13.225
48848W        W21273  21.119   2.787   2.157
48849W        W21274   2.986  30.480   2.094
48850W        W21275  37.856  30.213  10.731
48851W        W21276  40.886  31.388  12.085
48852W        W21277   5.433  24.170   2.265
48853W        W21278  10.258  30.081  12.754
48854W        W21279  20.742   3.703   3.272
48855W        W21280  40.491  24.461   3.266
48856W        W21281  40.728  20.723  14.905
48857W        W21282  43.913  24.117   2.837
48858W        W21283  31.344   4.584  14.061
48859W        W21284  35.771  35.001   1.739
48860W        W21285   1.926  21.204  11.630
48861W        W21286  43.159   7.860  14.824
48862W        W21287   2.015  12.256   4.580
48863W        W21288   5.910  25.108   1.875
48864W        W21289  24.479  18.072   2.166
48865W        W21290  40.937   2.150  14.797
48866W        W21291  42.430  24.224  11.221
48867W        W21292  11.669  43.578  12.263
48868W        W21293  19.854  30.928   1.358
48869W        W21294  21.618   0.030   4.762
48870W        W21295   7.309   8.053   3.260
48871W        W21296  19.179  28.666  13.970
48872W        W21297  32.643  13.065   4.551
48873W        W21298  40.562   3.199  14.018
48874W        W21299  13.157   7.224   4.127
48875W        W21300  44.794   0.198  11.205
48876W        W21301  35.884   0.218  13.117
48877W        W21302  21.608   1.955  10.680
48878W        W21303  11.638   1.411   2.988
48879W        W21304  26.921  10.465  14.465
48880W        W21305  36.281  12.692  12.030
48881W        W21306  44.647  36.381  13.588
48882W        W21307  35.184  40.169   1.240
48883W        W21308  15.239   0.767  11.164
48884W        W21309  44.560  32.802  11.142
48885W        W21310  42.398   0.036  11.632
48886W        W21311  38.941  42.024  10.151
48887W        W21312  36.166  39.560  11.935
48888W        W21313   3.273  25.215  12.062
48889W        W21314   1.444  44.766  13.946
48890W        W21315  41.311  18.273   3.870
48891W        W21316   4.626   7.652  14.890
48892W        W21317   4.331   3.435   3.448
48893W        W21318  30.013   6.243   2.352
48894W        W21319  10.487   9.254   0.327
48895W        W21320  33.396  23.673   2.209
48896W        W21321   8.885  33.354   1.216
48897W        W21322  17.542  40.425  14.919
48898W        W21323  24.077  42.563   0.227
48899W        W21324  37.904  33.686   4.524
48900W        W21325  44.593  32.902  10.327
48901W        W21326   8.288   4.984   1.498
48902W        W21327  34.446  42.374   2.734
48903W        W21328   5.342  24.915  14.024
48904W        W21329  10.929  42.538  11.948
48905W        W21330   7.325  36.063   0.486
48906W        W21331  34.833  34.933   2.747
48907W        W21332   6.946  29.953   1.312
48908W        W21333  16.591  20.861  13.531
48909W        W21334   7.781  12.771   2.125
48910W        W21335  13.775  40.907   4.827
48911W        W21336  13.036  17.831   0.510
48912W        W21337  12.379  20.826  11.049
48913W        W21338  15.956  34.016  11.834
48914W        W21339  39.406   2.566  14.329
48915W        W21340  24.972  29.030  13.816
48916W        W21341  27.225  34.931   3.991
48917W        W21342  22.724   9.217   1.797
48918W        W21343   6.230  34.966   5.108
48919W        W21344  13.073  12.518   0.421
48920W        W21345  42.925   2.232   1.375
48921W        W21346  10.653   9.445  11.937
48922W        W21347   3.874  16.071  14.756
48923W        W21348  35.515  19.558   3.831
48924W        W21349  28.963  41.888   2.272
48925W        W21350  11.864  17.171   4.189
48926W        W21351  22.850  11.376  10.537
48927W        W21352  22.657  26.456   2.098
48928W        W21353  33.878  33.055  13.602
48929W        W21354  20.869  18.258  11.194
48930W        W21355  13.380   8.247  13.413
48931W        W21356   7.812  39.279  12.091
48932W        W21357  12.366  32.891   4.170
48933W        W21358  17.135  41.514   1.627
48934W        W21359  39.887  16.762   0.264
48935W        W21360  15.329  20.996   0.952
48936W        W21361  14.804  31.590   1.416
48937W        W21362  18.541   2.848   0.295
48938W        W21363  14.451  36.185   2.769
48939W        W21364  38.919   8.831  10.663
48940W        W21365  35.603   3.516   0.528
48941W        W21366  23.462  26.636  10.171
48942W        W21367  32.427  40.956  11.945
48943W        W21368  13.643  29.626  14.415
48944W        W21369   7.556  23.474  11.129
48945W        W21370  41.792  36.263  12.582
48946W        W21371  16.710  15.299   3.767
48947W        W21372  28.688   3.996  13.321
48948W        W21373  39.034   3.589   4.916
48949W        W21374  12.060  21.205   3.082
48950W        W21375  34.904   5.254   0.682
48951W        W21376  34.900   9.245   0.452
48952W        W21377  27.996  17.988   4.336
48953W        W21378  20.652  25.062   1.187
48954W        W21379   2.216  12.433   2.273
48955W        W21380   1.333   3.673   4.177
48956W        W21381  32.332  33.371  12.003
48957W        W21382   6.304  28.027   3.593
48958W        W21383  29.183   7.618  12.468
48959W        W21384  20.085  20.230  14.418
48960W        W21385  22.128  26.647   2.709
48961W        W21386   4.965  22.932  11.246
48962W        W21387  28.407  33.894   1.331
48963W        W21388   6.381  28.607  14.046
48964W        W21389  29.537   0.602  14.322
48965W        W21390   0.221   3.181   1.905
48966W        W21391  38.610  12.873   4.626
48967W        W21392   9.246  44.498   3.799
48968W        W21393  39.830  10.443  14.916
48969W        W21394  23.920  25.276   3.378
48970W        W21395  31.135  37.140  13.561
48971W        W21396  24.892  43.472  11.507
48972W        W21397  26.802   3.104   0.011
48973W        W21398   7.977   4.110  11.097
48974W        W21399   4.434   7.495   0.412
48975W        W21400  38.481  44.752   3.313
48976W        W21401   1.787   0.472  13.564
48977W        W21402  19.198   5.860   2.776
48978W        W21403  18.284  33.822   0.414
48979W        W21404  30.149  19.227   0.595
48980W        W21405  36.334   2.275   2.925
48981W        W21406  35.492  13.361   4.660
48982W        W21407  16.647  39.701   3.408
48983W        W21408   5.674   7.299   2.409
48984W        W21409  12.769  31.918  13.616
48985W        W21410  31.064   8.078   4.600
48986W        W21411  39.864  19.578  10.421
48987W        W21412  23.913   8.735   4.521
48988W        W21413  31.006  23.179   1.730
48989W        W21414   5.193  21.219  13.080
48990W        W21415  41.995  32.632  12.409
48991W        W21416  38.500  36.815  10.947
48992W        W21417   6.237  19.305  12.464
48993W        W21418  30.132  40.987  11.393
48994W        W21419  22.763  30.437  13.565
48995W        W21420  14.557  17.757   4.629
48996W        W21421  30.004   0.998   3.526
48997W        W21422  24.018   5.534  14.738
48998W        W21423   4.435  15.689   0.958
48999W        W21424  24.964  14.677   4.789
49000W        W21425   9.859   6.150   3.068
49001W        W21426  39.454  13.309   4.677
49002W        W21427  30.978   7.355   0.631
49003W        W21428  30.270  37.884   4.079
49004W        W21429  29.888  35.561  12.044
49005W        W21430  14.341  14.752   1.787
49006W        W21431  44.515   0.007   3.757
49007W        W21432   4.677  30.122   0.553
49008W        W21433  19.683  36.671  13.143
49009W        W21434  11.196   1.034   3.318
49010W        W21435  26.585  11.551  13.527
49011W        W21436  44.686  15.580   3.680
49012W        W21437  17.042  27.735   3.131
49013W        W21438  37.059  28.996  10.548
49014W        W21439  28.012  22.703  14.985
49015W        W21440   0.402  29.016  13.131
49016W        W21441  26.099  28.713   3.171
49017W        W21442  23.095  14.843   1.854
49018W        W21443  44.416   4.735   4.217
49019W        W21444  34.903  35.872  10.211
49020W        W21445  16.628  16.651   2.686
49021W        W21446  33.407  17.054  11.192
49022W        W21447  42.439  36.482   2.776
49023W        W21448  34.852  39.355   0.296
49024W        W21449  34.388  38.679  11.165
49025W        W21450  34.953  11.206  14.701
49026W        W21451  12.613  19.324   0.334
49027W        W21452   1.830  34.569   0.168
49028W        W21453  26.652   9.161   1.905
49029W        W21454  28.678  27.999  10.947
49030W        W21455  27.456  36.494  11.647
49031W        W21456  34.396   1.882  14.542
49032W        W21457  21.800   7.325  13.545
49033W        W21458  15.769  23.284  10.207
49034W        W21459   2.243  39.894  13.959
49035W        W21460  22.675  34.970  14.011
49036W        W21461  33.320  13.136  11.132
49037W        W21462  25.485   5.095   3.321
49038W        W21463  44.381  42.538   3.639
49039W        W21464  28.119  13.926  11.071
49040W        W21465   3.037  24.692   3.674
49041W        W21466   0.738  39.130   1.364
49042W        W21467  35.137  17.559   1.433
49043W        W21468  26.207   0.172  11.106
49044W        W21469  44.987  35.593  11.229
49045W        W21470  34.907   7.189   4.541
49046W        W21471  14.622  40.303  13.006
49047W        W21472  26.899  16.676   1.295
49048W        W21473  24.942  30.975  12.559
49049W        W21474  27.456   5.474   0.145
49050W        W21475  14.628  27.413   4.238
49051W        W21476  12.329  37.371   3.105
49052W        W21477  18.525  38.744   1.666
49053W        W21478  17.664  40.865  10.553
49054W        W21479  12.492  39.233  13.206
49055W        W21480  19.994  33.848  14.859
49056W        W21481  15.034  10.733   0.872
49057W        W21482  10.193   5.747  13.193
49058W        W21483   8.220  15.610  12.563
49059W        W21484  15.772  18.662  13.988
49060W        W21485  24.548   0.015  11.183
49061W        W21486  37.022  38.110   3.279
49062W        W21487   8.245  37.987  10.497
49063W        W21488  38.800  16.249   3.268
49064W        W21489  21.818  10.059  11.408
49065W        W21490  31.892  20.325  14.403
49066W        W21491   4.332  14.956  11.549
49067W        W21492  22.154   8.017   0.506
49068W        W21493   4.552  34.599   3.648
49069W        W21494  11.907  26.602  13.565
49070W        W21495  39.420  27.665   4.577
49071W        W21496   0.689  13.852  14.433
49072W        W21497   8.277  24.642  13.580
49073W        W21498   4.925  21.501   2.312
49074W        W21499  26.213  21.153  12.078
49075W        W21500  10.768   3.057   0.688
49076W        W21501  20.204   6.902   3.541
49077W        W21502  40.591  10.123   2.619
49078W        W21503  14.547   5.157  13.023
49079W        W21504  41.647  17.573  13.940
49080W        W21505  19.595  29.439   2.265
49081W        W21506  40.932  14.283   2.476
49082W        W21507   7.199   3.844  11.502
49083W        W21508   5.948   3.374   4.242
49084W        W21509  24.889  12.297  11.076
49085W        W21510  25.093  21.140   1.941
49086W        W21511   5.021   8.334  14.594
49087W        W21512  40.593  21.196   2.280
49088W        W21513   7.206   2.266   4.133
49089W        W21514  35.807  16.821   3.819
49090W        W21515   7.251  39.112   3.624
49091W        W21516  33.943  29.014   1.680
49092W        W21517  33.623  42.516   3.832
49093W        W21518  25.683   8.760  14.538
49094W        W21519  32.966   5.667   1.693
49095W        W21520  13.281  14.633   0.324
49096W        W21521   2.247  29.474  14.027
49097W        W21522  35.831   7.239   4.539
49098W        W21523  25.627  33.399   0.975
49099W        W21524  20.130  36.093   0.783
49100W        W21525  21.637  30.377  14.164
49101W        W21526  34.086  29.968  12.541
49102W        W21527  21.117  23.201   1.921
49103W        W21528  22.135  38.837  11.101
49104W        W21529  13.309  21.129   4.096
49105W        W21530   7.264  31.055  13.458
49106W        W21531  22.051  10.903  13.498
49107W        W21532   0.549  24.734  12.580
49108W        W21533   6.934   2.350  12.963
49109W        W21534  27.205   3.450  14.914
49110W        W21535  11.722  12.654  11.780
49111W        W21536  33.399   5.161  13.359
49112W        W21537   8.715  20.001  14.865
49113W        W21538  29.396  24.480  11.133
49114W        W21539   0.792   4.494   2.686
49115W        W21540   7.829  39.821  12.077
49116W        W21541  18.138  13.205   2.355
49117W        W21542  29.954  18.217  12.371
49118W        W21543   9.814  43.311   1.906
49119W        W21544   0.754  25.068   1.807
49120W        W21545  28.175  41.108   1.853
49121W        W21546  42.206  34.172  11.959
49122W        W21547  21.659  28.449   3.055
49123W        W21548  14.355  15.348  14.853
49124W        W21549  24.181  33.228   5.155
49125W        W21550  25.609  24.139  14.930
49126W        W21551  34.596  30.682   1.825
49127W        W21552  37.330   2.337   0.936
49128W        W21553  35.892  27.955  14.362
49129W        W21554  11.599  17.363  14.878
49130W        W21555  22.116   3.459  14.487
49131W        W21556  40.415  14.276  10.451
49132W        W21557   4.373   6.873  10.577
49133W        W21558  21.669  26.583   2.464
49134W        W21559  36.922   7.127  12.656
49135W        W21560  13.111  15.647   3.329
49136W        W21561  40.758   3.421  10.768
49137W        W21562  39.036  33.096  11.458
49138W        W21563  11.861  40.249  12.462
49139W        W21564  41.636  22.535  12.883
49140W        W21565  25.389  44.911   0.308
49141W        W21566  31.872   3.364  10.039
49142W        W21567  14.604  33.413   5.046
49143W        W21568  25.187  38.063   0.005
49144W        W21569  21.754   2.752  11.997
49145W        W21570  16.114  29.530   3.143
49146W        W21571   5.883  13.638   1.719
49147W        W21572  11.102  26.095   2.666
49148W        W21573   3.950  34.595   4.531
49149W        W21574   6.335  15.245   3.020
49150W        W21575  18.900  10.780   4.147
49151W        W21576  17.378  44.847   2.848
49152W        W21577  40.960  33.891  11.814
49153W        W21578   9.850  10.187  11.328
49154W        W21579  26.247  10.393  11.988
49155W        W21580   0.520  11.746   2.171
49156W        W21581  22.003  15.112  13.850
49157W        W21582  36.600  36.880  10.668
49158W        W21583  30.474   1.166  13.029
49159W        W21584  13.955  17.207   5.096
49160W        W21585  30.140  41.911  12.982
49161W        W21586  33.908   6.646   2.696
49162W        W21587  36.667  40.550   4.886
49163W        W21588  15.539  26.924   3.223
49164W        W21589   9.699   7.194   4.505
49165W        W21590  42.502  30.322   1.295
49166W        W21591  32.578  33.843   1.963
49167W        W21592  14.806   8.954  13.521
49168W        W21593  29.167  14.304   1.405
49169W        W21594  11.188  14.972   1.497
49170W        W21595  32.080  32.536   4.563
49171W        W21596  24.651   9.116  14.797
49172W        W21597   8.225  23.518  10.520
49173W        W21598   1.485   6.306   4.711
49174W        W21599  12.808  39.613  11.030
49175W        W21600  18.556   3.335   1.531
49176W        W21601  12.730  10.458   2.332
49177W        W21602   9.254  26.534  11.514
49178W        W21603  33.172   5.781   4.868
49179W        W21604  24.729   4.830   1.282
49180W        W21605  42.046  30.943  14.537
49181W        W21606  15.251  23.879   0.111
49182W        W21607  29.883  35.034   2.327
49183W        W21608   4.146  35.682  14.449
49184W        W21609  26.520  37.197  10.682
49185W        W21610  43.378  42.285  10.636
49186W        W21611  43.375  41.851  13.437
49187W        W21612  30.447   1.594   4.170
49188W        W21613  33.127  39.437   0.882
49189W        W21614  27.013   2.037  11.571
49190W        W21615  16.647   8.251  14.711
49191W        W21616   0.174  23.202  12.530
49192W        W21617  40.220  25.264   3.650
49193W        W21618  12.803  43.254   0.783
49194W        W21619  23.517  13.020  12.034
49195W        W21620  18.771  19.986  11.998
49196W        W21621   6.279  16.687   0.813
49197W        W21622  11.861  25.228   3.330
49198W        W21623  12.878   3.758   0.869
49199W        W21624  35.956  27.987   3.877
49200W        W21625  34.024  10.849  10.646
49201W        W21626   8.363  23.506   2.260
49202W        W21627  29.857  11.283  12.629
49203W        W21628   9.744  21.751  14.105
49204W        W21629   8.056  39.963   3.457
49205W        W21630  33.974  18.545  13.726
49206W        W21631  26.959  40.223   1.842
49207W        W21632   9.850   8.280  13.355
49208W        W21633   2.469  10.621  11.743
49209W        W21634  21.108  27.122   4.750
49210W        W21635  41.818   1.216   0.958
49211W        W21636  35.465  12.319  11.903
49212W        W21637  40.578  40.417  12.104
49213W        W21638   4.202  40.610   0.740
49214W        W21639  38.476   1.062   3.687
49215W        W21640   2.505  30.156   1.379
49216W        W21641  19.919  30.501  11.943
49217W        W21642   4.701  26.665  11.714
49218W        W21643   9.841   6.149  13.402
49219W        W21644  42.043  34.431  14.513
49220W        W21645   9.354  35.514  13.148
49221W        W21646  15.315  34.375   1.284
49222W        W21647  43.250  21.552   0.366
49223W        W21648  23.258  27.165   3.587
49224W        W21649  19.619  15.847   2.510
49225W        W21650  22.231  27.356  11.928
49226W        W21651  15.324  20.753   0.405
49227W        W21652   8.735  23.325  14.919
49228W        W21653  29.140  16.036  11.168
49229W        W21654  14.297   8.361   3.581
49230W        W21655  11.427  18.897  12.429
49231W        W21656  33.995  38.377   3.141
49232W        W21657   1.624   9.754  14.823
49233W        W21658   9.881  23.300   1.948
49234W        W21659   5.256  18.494  10.725
49235W        W21660  18.292  13.765  12.494
49236W        W21661   6.625  24.464  11.950
49237W        W21662  13.237  23.980   1.308
49238W        W21663   8.724  35.874   2.243
49239W        W21664   7.957  34.139   2.029
49240W        W21665  34.566  40.323  14.285
49241W        W21666   3.279  25.619   3.906
49242W        W21667  24.772  36.776   4.172
49243W        W21668  28.024  17.719   3.607
49244W        W21669  42.165  28.415  11.985
49245W        W21670  31.103  38.517   1.920
49246W        W21671  43.874  40.139   0.471
49247W        W21672  15.804   8.286  13.065
49248W        W21673  24.684  37.535   0.671
49249W        W21674  33.993  11.899   0.848
49250W        W21675  28.699  10.810  11.415
49251W        W21676   8.184  10.494  10.686
49252W        W21677   7.870   1.682   0.389
49253W        W21678   0.863  16.076  12.953
49254W        W21679  33.460  34.364   3.327
49255W        W21680   4.432  40.960   4.183
49256W        W21681   4.989  28.373   1.661
49257W        W21682  35.000  38.286   3.301
49258W        W21683   2.794  26.280  10.429
49259W        W21684  28.898   4.811   4.378
49260W        W21685  44.324  33.688   1.316
49261W        W21686  25.063  27.452  13.025
49262W        W21687  39.498  12.295   3.693
49263W        W21688   3.446  11.132   2.311
49264W        W21689  32.562   2.197   4.285
49265W        W21690  13.674  22.080   9.680
49266W        W21691  18.850  16.354  13.837
49267W        W21692  14.851   2.828   4.794
49268W        W21693  42.260  13.085  14.912
49269W        W21694   1.417  34.447  14.372
49270W        W21695   2.229  18.160   2.414
49271W        W21696  40.568  19.500   1.208
49272W        W21697  15.906  13.158   3.222
49273W        W21698  17.587  32.651   3.290
49274W        W21699  23.354  22.700  10.770
49275W        W21700  27.524  32.981   4.513
49276W        W21701  39.251  26.193   3.366
49277W        W21702  20.775   1.189  12.891
49278W        W21703   1.412   8.187  14.513
49279W        W21704   0.429  19.545  12.360
49280W        W21705  28.438  33.057   4.173
49281W        W21706  31.023  16.549   2.086
49282W        W21707  44.831  36.194   1.720
49283W        W21708  12.313  42.563   1.666
49284W        W21709   1.168  29.225   0.368
49285W        W21710  32.933  15.582  10.675
49286W        W21711  14.353  30.527   4.194
49287W        W21712  19.660   2.309   2.392
49288W        W21713  10.386   3.182   3.185
49289W        W21714   8.819  40.515  14.253
49290W        W21715  39.479  17.990  12.445
49291W        W21716  34.556   7.791   4.180
49292W        W21717  35.419  39.721  13.946
49293W        W21718  38.021   6.667  12.076
49294W        W21719  29.144  34.934   3.263
49295W        W21720   1.879  38.828  12.961
49296W        W21721   3.010  41.817  11.553
49297W        W21722   4.184  37.871   0.222
49298W        W21723  35.365  30.140  14.011
49299W        W21724   2.524  36.494  13.064
49300W        W21725  28.419  19.980   0.543
49301W        W21726   4.168  32.280  12.900
49302W        W21727  26.719  23.811  11.650
49303W        W21728  32.495  37.644  11.194
49304W        W21729  39.545   8.958   2.837
49305W        W21730  41.086   4.260   4.586
49306W        W21731  34.943  12.163  10.619
49307W        W21732  31.095  16.602  12.732
49308W        W21733  35.424  36.422   1.970
49309W        W21734  24.061   6.861  10.942
49310W        W21735   2.496  13.004  13.224
49311W        W21736  33.184   7.634  13.921
49312W        W21737  22.950  44.838   4.545
49313W        W21738  24.652  41.804   1.419
49314W        W21739  41.291   5.879   3.393
49315W        W21740  43.428  19.531  13.477
49316W        W21741  44.932  24.510  11.399
49317W        W21742  38.565  36.852   3.185
49318W        W21743  23.111  34.961  11.473
49319W        W21744   4.501  35.037   5.072
49320W        W21745   6.421  32.442  10.607
49321W        W21746  23.203   0.375   0.715
49322W        W21747  19.607  42.216  11.414
49323W        W21748  43.291  35.931   1.809
49324W        W21749   2.115  26.980   2.361
49325W        W21750  15.186  42.502  11.537
49326W        W21751  25.730  19.574  10.087
49327W        W21752  35.359   8.737   0.925
49328W        W21753  23.378  19.251  14.002
49329W        W21754  14.116  35.287   2.764
49330W        W21755  40.503  36.469  11.684
49331W        W21756  33.574  15.812  14.422
49332W        W21757  44.827  26.345   4.936
49333W        W21758   8.829   1.444  12.872
49334W        W21759  23.714  12.367   3.349
49335W        W21760  11.112   1.771  10.719
49336W        W21761  19.101  34.060   0.216
49337W        W21762  11.541   4.778  11.274
49338W        W21763  37.694   1.916  12.492
49339W        W21764   8.796  40.484  12.743
49340W        W21765  10.237   0.366   0.902
49341W        W21766  39.526  28.620   2.924
49342W        W21767  28.646  17.532   2.350
49343W        W21768   6.380   2.539   0.730
49344W        W21769  19.187  11.133   2.771
49345W        W21770  26.443  13.397   3.179
49346W        W21771  41.809  30.727  11.158
49347W        W21772  12.183  14.291   2.805
49348W        W21773  13.790   1.862  12.278
49349W        W21774  42.927  14.250  13.947
49350W        W21775  43.303  26.030   4.139
49351W        W21776  19.886  29.979  12.839
49352W        W21777  25.676  40.439  13.915
49353W        W21778   7.631  37.339   3.696
49354W        W21779  41.858   0.394   3.068
49355W        W21780  26.382  37.355  13.500
49356W        W21781   2.406   0.111   0.612
49357W        W21782  44.501  39.345  13.879
49358W        W21783   8.673   0.583   4.249
49359W        W21784   6.855  32.174  12.197
49360W        W21785  38.432   6.750   3.349
49361W        W21786  22.794  44.989  10.768
49362W        W21787  22.576  36.463   3.199
49363W        W21788  20.113  15.105  12.570
49364W        W21789  24.114  43.960  12.940
49365W        W21790  31.542  16.534   4.257
49366W        W21791  33.633  20.735  14.553
49367W        W21792   3.104   0.172  13.323
49368W        W21793  39.203  38.334   1.051
49369W        W21794   5.135  32.097  13.063
49370W        W21795  30.667  33.918   1.654
49371W        W21796   3.204  31.353   1.727
49372W        W21797   2.994  34.207   1.297
49373W        W21798  42.834  30.719  13.569
49374W        W21799   3.812  29.056  12.863
49375W        W21800  30.681  35.268   2.414
49376W        W21801   9.363   6.428   1.451
49377W        W21802  17.323  22.742  11.476
49378W        W21803  44.866  43.567  10.635
49379W        W21804  11.706  18.921  11.994
49380W        W21805  29.558   2.942  14.459
49381W        W21806  24.462  20.791  13.812
49382W        W21807  40.986   9.161  13.546
49383W        W21808  18.104  31.626  14.409
49384W        W21809  28.183  19.676   2.373
49385W        W21810   6.671   6.396   0.072
49386W        W21811  38.455  33.565  11.685
49387W        W21812  24.238  16.831   4.753
49388W        W21813   6.776  28.091   0.704
49389W        W21814   0.869  39.931  13.341
49390W        W21815   7.859  40.815  13.654
49391W        W21816  23.211  19.554  10.578
49392W        W21817  31.564  12.166   4.881
49393W        W21818  25.979   4.758   4.329
49394W        W21819  40.835   3.926  10.812
49395W        W21820  17.576   3.660  13.998
49396W        W21821  10.892   1.824   2.443
49397W        W21822  30.903  25.628   0.887
49398W        W21823  44.034  34.194   3.822
49399W        W21824  41.364   4.311  12.899
49400W        W21825  31.891  11.873  11.525
49401W        W21826  14.134  33.554  13.220
49402W        W21827  36.081  24.518   0.022
49403W        W21828   5.683  20.708   3.778
49404W        W21829  28.739  33.484  10.652
49405W        W21830  41.908   9.893   4.845
49406W        W21831  17.682  33.106  11.994
49407W        W21832  16.508  35.650   1.200
49408W        W21833  22.759  29.500  14.948
49409W        W21834  39.164   1.190   3.092
49410W        W21835  30.865   1.415   3.153
49411W        W21836  26.167  18.901  12.522
49412W        W21837  10.175  27.344   4.557
49413W        W21838   1.281  11.726   1.200
49414W        W21839  11.744  39.371  14.788
49415W        W21840  11.124  24.672  13.561
49416W        W21841   0.469  33.558  13.417
49417W        W21842  30.241  36.969  11.545
49418W        W21843   3.717   0.799   1.816
49419W        W21844  13.596  23.467  11.086
49420W        W21845  30.579  32.888   2.691
49421W        W21846  24.511  11.382   0.329
49422W        W21847  44.338   8.389   2.712
49423W        W21848   3.634  20.244  14.510
49424W        W21849  18.566  29.993   1.389
49425W        W21850  28.563  44.472  11.946
49426W        W21851  15.320  31.814   2.316
49427W        W21852  34.063  18.338  11.078
49428W        W21853  30.951  17.710   2.507
49429W        W21854  38.554   1.240   1.526
49430W        W21855  17.734   7.173   1.249
49431W        W21856  13.990  32.932   4.608
49432W        W21857  41.945   2.208   1.309
49433W        W21858  26.961  23.738   2.356
49434W        W21859  15.625   3.444  11.511
49435W        W21860  11.889  12.898  12.650
49436W        W21861   7.962   2.864   3.178
49437W        W21862  11.436   4.220   4.412
49438W        W21863  20.218  21.283  10.171
49439W        W21864  44.750  20.039  14.815
49440W        W21865   6.082   5.239  11.248
49441W        W21866   3.220   1.003   1.732
49442W        W21867  13.331   1.574  14.973
49443W        W21868  43.140  31.786   2.331
49444W        W21869  41.333   9.809   1.954
49445W        W21870  21.122  38.564  10.608
49446W        W21871   7.677  37.052  13.397
49447W        W21872  28.144   8.771   2.592
49448W        W21873   9.765  15.717  13.916
49449W        W21874  17.288  26.472  12.545
49450W        W21875  22.648  18.064   0.799
49451W        W21876  17.156  18.586  11.645
49452W        W21877   4.248  43.965   1.422
49453W        W21878   2.028  29.552  12.996
49454W        W21879   8.392   0.825   3.210
49455W        W21880  31.051  11.413   1.864
49456W        W21881  30.499  39.731  13.319
49457W        W21882  15.811  13.603  12.970
49458W        W21883  27.660  43.248   1.461
49459W        W21884   6.367  43.972  14.981
49460W        W21885   9.093  31.399   4.315
49461W        W21886   7.270  15.741   1.924
49462W        W21887  41.055  37.330   1.928
49463W        W21888  12.140  20.786  11.915
49464W        W21889  30.391  17.032   4.642
49465W        W21890  28.027   8.487  14.313
49466W        W21891  37.119  33.061  12.058
49467W        W21892  38.860  23.452  10.168
49468W        W21893  31.297  38.910   1.368
49469W        W21894   9.373  11.939  14.443
49470W        W21895   6.453   3.883   3.126
49471W        W21896  17.975   4.827  10.551
49472W        W21897  14.590  38.952  10.699
49473W        W21898  44.410   4.287  11.615
49474W        W21899  39.844  10.706   4.348
49475W        W21900  36.172  29.572  11.595
49476W        W21901  19.822  22.210   2.331
49477W        W21902  26.934  24.661  13.556
49478W        W21903  26.602  24.118   0.207
49479W        W21904  14.641  30.005  12.994
49480W        W21905  39.300  40.093  10.977
49481W        W21906   5.270  22.792  14.956
49482W        W21907   1.487  33.585  12.490
49483W        W21908  17.119  16.810   0.899
49484W        W21909   1.837   2.926   1.372
49485W        W21910  43.299  30.798  12.486
49486W        W21911  26.561  43.761  10.192
49487W        W21912   3.160  38.999   1.468
49488W        W21913  36.363  19.546  14.832
49489W        W21914  14.189   9.544   3.468
49490W        W21915  35.505   0.480   1.378
49491W        W21916  27.975  21.032  13.477
49492W        W21917  35.602  36.035  12.937
49493W        W21918  28.243  38.028  13.121
49494W        W21919  35.373  12.014  11.073
49495W        W21920   4.302  44.866   0.304
49496W        W21921  34.811  18.055  10.609
49497W        W21922  25.664  33.932  13.406
49498W        W21923  20.475   6.756  12.661
49499W        W21924  35.107   4.132   4.493
49500W        W21925  42.758   3.031  14.807
49501W        W21926  24.111   3.423  10.609
49502W        W21927  35.395   2.489  13.515
49503W        W21928  36.998   5.149  13.893
49504W        W21929  29.880  11.756  12.424
49505W        W21930  32.088  29.470   2.940
49506W        W21931   7.963  36.480  14.718
49507W        W21932  39.492  28.191   2.377
49508W        W21933   0.593  11.303   0.246
49509W        W21934  20.774  20.508  13.599
49510W        W21935   5.729  40.911  12.893
49511W        W21936  17.007  44.477   4.945
49512W        W21937  38.945  17.625  14.064
49513W        W21938  13.134   9.627   4.258
49514W        W21939   9.181   2.049  14.846
49515W        W21940  14.107  33.430   3.284
49516W        W21941  17.389   3.305   3.226
49517W        W21942  33.773  17.125  13.857
49518W        W21943  37.928   3.484  10.613
49519W        W21944  32.896  43.500  12.568
49520W        W21945  22.433  22.924  14.252
49521W        W21946  43.773  20.738  11.685
49522W        W21947  33.823   6.816   2.235
49523W        W21948  41.068  13.887  12.986
49524W        W21949  37.556  10.933   2.644
49525W        W21950   9.211  26.535   0.030
49526W        W21951  39.564  41.929   0.773
49527W        W21952  12.683  40.545   4.008
49528W        W21953  35.120  18.641   1.828
49529W        W21954  18.690  38.898   1.188
49530W        W21955  37.276  10.483   5.168
49531W        W21956  35.536  16.145  13.187
49532W        W21957  23.778  32.129  14.346
49533W        W21958  32.840  36.873   1.828
49534W        W21959  18.083  26.704   1.084
49535W        W21960   7.348  35.723  12.540
49536W        W21961  27.496  18.353  11.641
49537W        W21962  40.514   2.159  11.651
49538W        W21963   1.993  17.658   3.240
49539W        W21964   9.158  30.490   4.349
49540W        W21965  34.316  42.846   4.985
49541W        W21966   3.201   3.761   4.612
49542W        W21967  41.283  35.309   1.250
49543W        W21968  28.304  27.531  13.945
49544W        W21969  33.845  33.199  10.692
49545W        W21970  33.604  21.173  13.810
49546W        W21971  33.510  27.684  11.982
49547W        W21972   3.351  39.401   4.494
49548W        W21973   3.712  14.615   1.004
49549W        W21974  15.754   3.368   0.162
49550W        W21975  15.135  17.613  12.615
49551W        W21976  20.235  44.247   2.287
49552W        W21977  40.525  40.538   2.843
49553W        W21978  40.122  10.889  10.633
49554W        W21979  13.674  25.739  13.278
49555W        W21980  14.946  17.372   4.609
49556W        W21981  30.691  44.852  13.459
49557W        W21982  16.295  11.831   1.293
49558W        W21983  18.427  19.175  14.437
49559W        W21984   7.717   0.394   4.696
49560W        W21985  23.122   0.831  14.477
49561W        W21986  35.203   2.478  10.787
49562W        W21987  34.340  28.026   0.686
49563W        W21988   2.050  24.487   3.884
49564W        W21989   0.765  33.447   1.499
49565W        W21990  40.929  36.771  11.623
49566W        W21991   5.123  30.998   1.446
49567W        W21992  43.113  42.726   4.761
49568W        W21993   4.461  37.008  12.008
49569W        W21994   7.349  42.931  13.702
49570W        W21995   0.894  19.290  13.293
49571W        W21996  29.974  16.252  13.933
49572W        W21997  23.844  14.132  10.665
49573W        W21998  14.105  23.309  13.843
49574W        W21999  26.923  38.846  11.632
49575W        W22000  27.942  30.612  13.786
49576W        W22001  14.624  22.696  11.993
49577W        W22002  22.415   4.662  13.884
49578W        W22003  10.755  42.267   4.360
49579W        W22004  28.705  11.832   1.728
49580W        W22005  14.209  16.191  14.335
49581W        W22006  22.148   4.434  12.418
49582W        W22007  15.200  41.267   3.788
49583W        W22008  38.427  14.658   2.133
49584W        W22009  18.201  19.346  12.243
49585W        W22010  14.051  42.652  13.821
49586W        W22011  12.361  33.147  12.442
49587W        W22012  41.909  33.707  12.532
49588W        W22013  19.819  14.634   4.137
49589W        W22014  14.009  38.539  11.274
49590W        W22015  12.089  16.279   0.294
49591W        W22016  33.886  38.417  13.840
49592W        W22017  15.668  20.029  13.110
49593W        W22018   6.595   9.685   0.892
49594W        W22019  27.028  12.166   4.037
49595W        W22020  42.013  26.150   1.434
49596W        W22021  35.659   5.345  13.756
49597W        W22022  10.339  20.966  13.971
49598W        W22023  35.645  23.545  13.037
49599W        W22024   3.427  17.162  10.530
49600W        W22025  35.587  22.175   2.953
49601W        W22026  12.656  28.916  11.068
49602W        W22027  32.415  10.605  11.202
49603W        W22028  26.067  42.314   2.732
49604W        W22029  26.720  42.860  12.410
49605W        W22030  28.932  39.656  11.404
49606W        W22031   1.481  14.674   3.163
49607W        W22032  15.758  37.623  11.586
49608W        W22033  30.175   4.490  12.940
49609W        W22034   7.440   5.430   2.701
49610W        W22035  42.112  41.501   1.826
49611W        W22036  18.533  37.476   4.609
49612W        W22037   1.850  12.208  13.967
49613W        W22038  25.645  43.799   3.224
49614W        W22039  33.669   2.944   4.867
49615W        W22040  13.210  41.871   3.932
49616W        W22041   5.328  35.411  11.574
49617W        W22042  27.714  16.252  13.042
49618W        W22043  26.503  44.224  11.014
49619W        W22044  43.842   7.277  13.557
49620W        W22045  31.815  29.728  11.659
49621W        W22046   6.120  35.860  10.556
49622W        W22047   3.714  17.683  11.029
49623W        W22048   0.857  28.146  14.835
49624W        W22049  11.740   4.931  14.755
49625W        W22050  36.542   2.700  12.564
49626W        W22051  18.683  43.907  10.547
49627W        W22052  15.282  39.449   2.727
49628W        W22053  38.565  19.752  12.596
49629W        W22054  41.462  44.897  10.726
49630W        W22055   1.339  21.007  12.334
49631W        W22056  11.741   5.134   0.258
49632W        W22057  28.731   9.340   2.661
49633W        W22058   4.275  39.144   4.853
49634W        W22059  11.533   6.196   3.138
49635W        W22060   5.944   8.498  12.944
49636W        W22061  14.220  10.673  11.990
49637W        W22062  25.946   8.648  10.660
49638W        W22063  42.252  11.060  11.155
49639W        W22064  11.835  16.491   3.729
49640W        W22065   1.055  35.461  11.618
49641W        W22066  27.503  39.066  14.293
49642W        W22067   4.781   6.121  12.506
49643W        W22068   7.241  22.312   4.584
49644W        W22069  22.692  37.403   1.936
49645W        W22070  33.996  39.442  12.913
49646W        W22071  33.653  26.880  12.574
49647W        W22072  22.452  28.584   0.959
49648W        W22073   5.888   1.256  14.236
49649W        W22074   6.894  29.943  12.618
49650W        W22075  30.941  37.464   2.921
49651W        W22076  39.465  40.433   3.136
49652W        W22077  14.064  38.923   3.368
49653W        W22078   2.716   3.895  12.073
49654W        W22079   7.214  33.170   5.217
49655W        W22080   0.408  35.925   4.391
49656W        W22081  42.276  35.853   0.437
49657W        W22082  32.698   7.954   4.214
49658W        W22083   1.361   0.905  12.916
49659W        W22084  39.383  22.713  11.912
49660W        W22085  33.322  17.704  12.013
49661W        W22086  30.345  10.325  14.520
49662W        W22087   8.655  38.547  14.834
49663W        W22088  11.061   8.819  11.155
49664W        W22089   7.588  20.057  12.492
49665W        W22090  10.358  12.987   9.923
49666W        W22091  11.557  43.162   3.219
49667W        W22092  38.507  16.580   4.135
49668W        W22093  25.922  39.872  10.648
49669W        W22094  37.432  38.507   2.098
49670W        W22095  31.102  37.437  12.431
49671W        W22096  42.009   9.421  12.546
49672W        W22097  41.743   4.933   3.695
49673W        W22098  33.583  40.221   0.877
49674W        W22099  37.056   0.362   1.594
49675W        W22100  41.976  41.852   3.356
49676W        W22101  11.832  16.582   4.569
49677W        W22102  15.278  41.795  10.719
49678W        W22103  38.949   8.071   2.306
49679W        W22104  33.948  23.664  10.641
49680W        W22105  25.952   0.467   4.355
49681W        W22106  26.854  15.532   3.396
49682W        W22107   5.164  24.569   2.092
49683W        W22108   0.028  41.301   0.994
49684W        W22109  37.020   9.765  13.922
49685W        W22110  25.643  18.606   0.445
49686W        W22111  31.569  29.157  14.045
49687W        W22112  41.937  13.933  10.320
49688W        W22113  15.757   3.755   4.912
49689W        W22114  39.965   0.522  10.659
49690W        W22115  18.630  24.341  13.654
49691W        W22116  19.727   6.682   2.639
49692W        W22117  11.356  39.267  12.178
49693W        W22118   4.723   9.188   1.953
49694W        W22119  42.877   9.433   2.677
49695W        W22120  23.692  33.399   0.927
49696W        W22121  22.139  12.479  12.873
49697W        W22122  33.961  39.489   0.245
49698W        W22123  34.985   9.250   3.329
49699W        W22124  22.932  22.075   1.289
49700W        W22125  28.326   9.738   4.598
49701W        W22126  33.339   5.725  13.857
49702W        W22127  26.897  22.663   0.909
49703W        W22128   3.719  41.623  13.468
49704W        W22129  10.439  44.743   0.164
49705W        W22130   8.174   8.939  12.544
49706W        W22131   0.853  10.276   2.808
49707W        W22132  10.419   4.355  10.192
49708W        W22133  34.791  21.701   0.692
49709W        W22134  27.395  10.899   2.140
49710W        W22135  26.635  38.529   1.011
49711W        W22136  36.917  11.787  14.839
49712W        W22137  27.785  16.317   1.715
49713W        W22138  19.540  17.656  13.478
49714W        W22139   1.311  31.586   0.281
49715W        W22140  19.545  35.081  13.881
49716W        W22141   3.778   4.228   3.865
49717W        W22142  37.892  23.153   5.425
49718W        W22143  12.985  14.870   2.898
49719W        W22144  17.697   7.092   3.777
49720W        W22145   9.091  10.440  14.790
49721W        W22146  32.421  24.173   1.406
49722W        W22147  27.950  22.485  12.992
49723W        W22148   8.093   6.457  10.658
49724W        W22149  27.450   4.273   0.725
49725W        W22150  21.637  26.981  13.381
49726W        W22151   3.928   1.155   2.431
49727W        W22152  16.113   9.925  13.964
49728W        W22153  20.128  20.316   2.112
49729W        W22154  38.860   4.686   3.268
49730W        W22155  12.132   3.195  13.445
49731W        W22156  32.909  35.935   2.636
49732W        W22157   6.952  42.051  12.489
49733W        W22158  31.970   9.135   1.333
49734W        W22159  34.249  12.407  11.627
49735W        W22160  35.524   4.562   2.679
49736W        W22161  33.830  31.927  13.509
49737W        W22162  29.505  43.295  11.120
49738W        W22163  44.110  34.142  13.543
49739W        W22164  40.986  24.759  12.869
49740W        W22165  20.653  29.657   3.246
49741W        W22166  34.909  25.000  13.344
49742W        W22167  28.488   7.296  12.014
49743W        W22168  44.340  24.556   0.279
49744W        W22169  19.766  33.480  14.379
49745W        W22170  42.195  16.615  14.494
49746W        W22171  37.546  12.246   0.963
49747W        W22172  28.687  12.275   0.959
49748W        W22173  32.646  20.720  13.407
49749W        W22174  32.314  38.004  12.104
49750W        W22175  15.716  40.478   3.103
49751W        W22176  12.691  14.574  10.916
49752W        W22177  41.832   7.430  14.816
49753W        W22178  28.198  38.899   4.609
49754W        W22179  23.573  10.374  14.190
49755W        W22180   6.824  25.238   2.788
49756W        W22181   5.814  30.626   3.859
49757W        W22182  19.730  37.179  13.126
49758W        W22183  39.403  37.550  13.392
49759W        W22184  21.545  39.397   4.276
49760W        W22185  39.918   6.818  11.071
49761W        W22186  32.047  44.716   2.385
49762W        W22187   5.467   6.914  10.638
49763W        W22188  37.374  20.207   0.878
49764W        W22189   0.289  24.992   4.037
49765W        W22190  33.314  40.862   3.736
49766W        W22191  24.742  38.336  13.852
49767W        W22192  14.044  12.809   3.126
49768W        W22193  32.066  43.374  12.016
49769W        W22194   2.788  13.070  14.774
49770W        W22195   9.762  34.584   4.509
49771W        W22196   7.592  30.590   3.711
49772W        W22197  26.438  15.672  13.066
49773W        W22198   3.260  23.459   3.913
49774W        W22199  40.070  10.101  11.194
49775W        W22200  43.908  34.939   3.232
49776W        W22201   0.275  19.308  11.080
49777W        W22202  19.018  34.001   1.859
49778W        W22203  12.219  36.659   0.836
49779W        W22204  30.115  19.375  10.496
49780W        W22205   7.929   8.830   5.150
49781W        W22206  28.081  17.273  13.041
49782W        W22207  10.144  23.964  13.994
49783W        W22208   7.792  10.229  11.533
49784W        W22209  43.927   7.458   1.764
49785W        W22210  13.884  41.876  14.388
49786W        W22211  22.751  21.338   3.427
49787W        W22212  44.956   0.825   1.413
49788W        W22213  26.635  42.060   0.603
49789W        W22214  25.456  11.086  14.430
49790W        W22215  19.313  30.108   4.746
49791W        W22216   4.695  10.355  14.502
49792W        W22217  34.928  43.280   2.432
49793W        W22218  44.339  40.256   4.575
49794W        W22219  21.615   9.913   1.183
49795W        W22220  42.192  18.866  11.692
49796W        W22221  44.452  11.141  14.806
49797W        W22222  13.483  24.940  14.895
49798W        W22223  15.647  16.897  10.151
49799W        W22224   9.141   2.349   3.266
49800W        W22225   5.702  24.620   2.114
49801W        W22226  37.366  21.209  12.422
49802W        W22227   0.641   6.290  11.876
49803W        W22228  42.735  25.181   2.714
49804W        W22229  36.552   2.843   1.900
49805W        W22230   2.504  25.618   2.299
49806W        W22231   2.275  23.114  13.348
49807W        W22232   1.416   0.612  11.928
49808W        W22233  19.154  23.555  13.440
49809W        W22234   6.145  13.138   1.372
49810W        W22235  20.223  21.507  13.872
49811W        W22236  24.707   4.773   2.246
49812W        W22237  19.815   0.891   4.091
49813W        W22238   6.260  30.856  13.610
49814W        W22239   2.545   9.308  14.379
49815W        W22240  35.252  10.233   2.429
49816W        W22241   4.940   5.412  13.432
49817W        W22242  14.486  40.537   1.781
49818W        W22243  18.015  34.864   0.930
49819W        W22244  21.179  16.956   0.611
49820W        W22245   3.693   6.298  13.828
49821W        W22246  16.764  31.320   3.759
49822W        W22247  36.342  36.733  11.094
49823W        W22248   9.683  35.937  12.367
49824W        W22249  44.908  16.029   0.692
49825W        W22250   0.767   1.318  12.156
49826W        W22251   4.192  29.109   3.163
49827W        W22252  35.449  25.488  11.540
49828W        W22253  21.829  27.045   0.827
49829W        W22254  41.580  19.576   2.413
49830W        W22255  41.204  36.873   0.910
49831W        W22256  12.790  30.377  13.918
49832W        W22257  42.194  24.199  13.947
49833W        W22258   4.014  13.643  13.859
49834W        W22259  33.681  13.536  11.141
49835W        W22260  36.011  10.093   1.221
49836W        W22261   4.403  41.206  11.395
49837W        W22262  44.944  26.129  12.517
49838W        W22263  27.146  13.553   0.328
49839W        W22264  21.714  18.026   2.049
49840W        W22265  42.407   1.120   1.792
49841W        W22266  18.095  28.095  11.199
49842W        W22267  29.841  18.695  10.197
49843W        W22268   0.997   9.790   1.693
49844W        W22269  41.169  38.450  13.056
49845W        W22270  22.284  26.128   4.251
49846W        W22271  33.563  35.124  12.925
49847W        W22272  35.564  22.610   4.189
49848W        W22273  27.547  22.668  14.326
49849W        W22274  44.373  11.271   4.869
49850W        W22275  28.469  25.518  13.546
49851W        W22276  40.214  24.715   0.564
49852W        W22277  33.369   1.960  14.389
49853W        W22278   5.912  25.617  12.047
49854W        W22279   1.245  24.269   2.787
49855W        W22280  31.063  30.097  13.441
49856W        W22281  21.814  40.040   2.985
49857W        W22282   8.202  34.777  12.903
49858W        W22283  35.924  18.577   1.221
49859W        W22284  26.600  26.619   4.107
49860W        W22285  17.090  32.205  10.644
49861W        W22286  17.602  24.745   2.325
49862W        W22287  19.951  30.149  14.194
49863W        W22288  23.148  21.126   3.147
49864W        W22289   9.978  42.866  11.126
49865W        W22290  32.170  39.323  13.837
49866W        W22291  35.761  29.625  12.030
49867W        W22292   7.860  26.086  14.467
49868W        W22293  24.446  19.311   3.651
49869W        W22294  16.610  19.662  12.855
49870W        W22295  31.042  36.407  10.667
49871W        W22296  41.918  22.165  14.727
49872W        W22297  16.538  18.890   1.448
49873W        W22298  26.040  26.028  11.526
49874W        W22299  23.231  17.517   1.428
49875W        W22300  41.444  28.401  13.417
49876W        W22301  24.644  22.108  14.751
49877W        W22302  23.339  29.691   0.511
49878W        W22303  14.101   6.906   1.719
49879W        W22304  11.807  40.945   1.396
49880W        W22305  15.319  20.100   0.705
49881W        W22306  37.547   7.184   0.793
49882W        W22307  20.768   0.654  12.884
49883W        W22308   3.405  11.691   3.657
49884W        W22309  25.011   1.621   4.221
49885W        W22310  26.159  11.554   4.218
49886W        W22311  12.149   1.670   3.967
49887W        W22312  26.566  43.237   0.799
49888W        W22313   6.942  20.219  12.859
49889W        W22314  34.640  23.453  11.177
49890W        W22315  16.219  29.196  11.827
49891W        W22316  22.964  34.037  11.619
49892W        W22317  10.267  43.079   4.906
49893W        W22318  11.097  20.765  12.919
49894W        W22319  10.594   1.839   1.281
49895W        W22320  42.839   3.353   4.613
49896W        W22321  16.775  26.493  12.634
49897W        W22322  42.690   3.641   4.201
49898W        W22323  27.746   4.224  11.202
49899W        W22324  13.594  19.671   1.673
49900W        W22325  38.665  27.423   0.237
49901W        W22326   3.349   0.027   2.255
49902W        W22327  11.719  40.716  12.319
49903W        W22328  14.323  23.274   1.162
49904W        W22329  38.559  30.865  11.621
49905W        W22330  27.357  36.022  14.550
49906W        W22331  18.024  26.720  10.850
49907W        W22332  43.019  39.439   2.624
49908W        W22333  27.245   5.047  14.938
49909W        W22334   0.853  35.103   4.044
49910W        W22335  24.945  14.728   2.346
49911W        W22336   7.140  15.319  12.012
49912W        W22337  28.519  44.912   3.298
49913W        W22338  15.157  40.783   2.335
49914W        W22339  44.850   0.156  14.509
49915W        W22340  31.047  43.790   4.085
49916W        W22341   2.082   0.957   1.860
49917W        W22342  32.654  22.585  14.839
49918W        W22343  43.908   5.642   2.412
49919W        W22344   8.374  25.248  14.831
49920W        W22345  11.360  12.706   4.519
49921W        W22346  19.284  33.146   1.176
49922W        W22347  43.118  35.327   0.211
49923W        W22348  20.475  34.330  12.939
49924W        W22349  28.486  21.688   2.778
49925W        W22350  18.498  21.032   0.267
49926W        W22351  11.796  44.272   0.967
49927W        W22352  14.826  31.187  13.452
49928W        W22353   3.298  18.611  12.398
49929W        W22354   6.732  24.572  12.807
49930W        W22355  39.915   0.319  12.295
49931W        W22356   5.754  38.769  10.753
49932W        W22357  37.726  19.271  15.000
49933W        W22358   5.729  28.482   1.227
49934W        W22359  28.977  39.354   3.987
49935W        W22360   9.879  37.274   0.856
49936W        W22361  28.999  23.658   1.230
49937W        W22362  23.466  44.201  12.495
49938W        W22363   2.363  35.584   1.502
49939W        W22364  38.253  33.987  13.625
49940W        W22365  19.414  43.253   2.408
49941W        W22366   4.985  31.517  12.407
49942W        W22367  20.530  36.146  12.868
49943W        W22368   6.823  29.816  12.058
49944W        W22369   9.889  41.324   3.996
49945W        W22370  35.490   9.472  14.341
49946W        W22371   8.394  19.085   1.806
49947W        W22372  42.559   1.205   3.200
49948W        W22373  24.899  21.812  11.181
49949W        W22374  37.779  24.533  13.412
49950W        W22375  39.617  33.918   4.290
49951W        W22376  41.497  20.251   1.010
49952W        W22377   2.536  26.013  12.169
49953W        W22378  20.758  18.797  12.559
49954W        W22379  36.732  37.436  13.372
49955W        W22380  44.182  39.003  13.102
49956W        W22381  41.520  19.522   3.703
49957W        W22382   1.748  25.048   0.412
49958W        W22383   1.088  30.427  12.014
49959W        W22384  24.325  10.776   1.261
49960W        W22385   5.245  31.571   0.861
49961W        W22386   3.384  18.552  11.910
49962W        W22387  31.284  15.714  13.621
49963W        W22388  14.792   5.893  13.270
49964W        W22389  21.240  16.056  11.663
49965W        W22390  38.790  37.433   4.527
49966W        W22391  26.514   0.310   0.767
49967W        W22392  14.785  16.136  10.596
49968W        W22393   0.715  35.511  14.158
49969W        W22394  42.167  10.399   9.846
49970W        W22395   9.314   0.168   0.364
49971W        W22396  18.592  33.172   4.142
49972W        W22397  21.599  39.181   2.501
49973W        W22398  14.350   3.999  11.054
49974W        W22399  17.984  30.442   1.064
49975W        W22400  13.920  23.963  13.326
49976W        W22401   5.333  24.650  10.739
49977W        W22402   3.791  21.565   1.258
49978W        W22403  16.317  10.400  11.674
49979W        W22404  15.877   7.654  12.081
49980W        W22405  19.706  27.388  14.290
49981W        W22406  21.566  42.562   1.948
49982W        W22407  21.623   2.409   3.602
49983W        W22408  30.490  29.989   4.044
49984W        W22409   3.862  36.173   0.057
49985W        W22410  28.617   6.922  12.380
49986W        W22411  26.706   3.750  13.289
49987W        W22412  13.623  41.458   0.347
49988W        W22413  11.404  30.172  11.290
49989W        W22414  43.097  13.583   1.357
49990W        W22415  33.041  44.225  11.955
49991W        W22416   4.808  32.541   1.854
49992W        W22417  39.898  10.563   2.458
49993W        W22418  37.101   6.723   3.695
49994W        W22419  29.533  27.466   2.248
49995W        W22420  16.756  12.122   4.796
49996W        W22421  31.837  29.293  13.021
49997W        W22422  25.672  36.931   2.624
49998W        W22423  24.558  35.657  13.037
49999W        W22424  44.471  42.023  13.606
50000W        W22425  36.730  38.746   4.233
50001W        W22426  19.562  20.781  13.037
50002W        W22427  23.429   6.784  13.977
50003W        W22428  17.695  27.240   1.136
50004W        W22429  36.767  17.236  13.015
50005W        W22430  38.017  44.562  10.103
50006W        W22431  30.108  11.559  10.439
50007W        W22432  36.677   7.145   0.961
50008W        W22433   3.982   7.679  12.138
50009W        W22434   5.239  39.544  10.758
50010W        W22435   9.451   8.867   5.088
50011W        W22436  29.528  25.806   4.721
50012W        W22437   9.939   7.897   2.265
50013W        W22438  25.993  41.321  14.931
50014W        W22439  23.970  24.720   3.251
50015W        W22440  41.055   2.941  11.637
50016W        W22441   4.009   6.430   0.893
50017W        W22442  43.388  41.744   0.860
50018W        W22443   0.486  17.303   2.744
50019W        W22444   1.300  42.395  14.930
50020W        W22445   5.393  13.470  14.017
50021W        W22446   8.831  29.947  12.987
50022W        W22447  34.436  26.947  13.892
50023W        W22448  43.848   4.867  12.923
50024W        W22449  29.080  17.878   3.120
50025W        W22450  35.886  42.276  14.389
50026W        W22451  32.920  22.768   1.232
50027W        W22452  37.041  25.733   4.254
50028W        W22453  21.699  20.069  11.906
50029W        W22454  27.642  31.859  14.758
50030W        W22455   3.328  13.189  10.418
50031W        W22456  28.175  35.036   0.384
50032W        W22457  14.903  40.018   2.211
50033W        W22458   9.143  37.501  10.622
50034W        W22459   4.452   3.264   1.028
50035W        W22460  38.120  25.750  10.926
50036W        W22461  23.199   4.087   3.197
50037W        W22462  12.171  10.401   0.222
50038W        W22463   2.294  32.235   5.224
50039W        W22464  32.460  21.709   4.866
50040W        W22465  16.812  20.931   1.123
50041W        W22466   6.926  43.921   3.616
50042W        W22467  17.049  26.769  12.956
50043W        W22468  40.201  41.213  12.666
50044W        W22469   2.910  23.266  11.026
50045W        W22470   5.423  13.134  14.901
50046W        W22471  43.690  31.017   1.702
50047W        W22472   7.240  26.824   0.999
50048W        W22473   1.955  11.312  11.956
50049W        W22474  17.135   8.158  14.542
50050W        W22475   7.554  14.638   1.289
50051W        W22476  28.506  24.946   1.644
50052W        W22477  36.118  31.512   4.448
50053W        W22478  37.924  25.535  14.880
50054W        W22479   4.346  34.665  14.549
50055W        W22480  43.423  32.320   1.929
50056W        W22481  30.557   0.299  12.227
50057W        W22482   6.456  28.123   0.291
50058W        W22483  40.534  43.315  11.960
50059W        W22484  28.581  22.106   3.094
50060W        W22485   6.510  20.789  13.650
50061W        W22486   6.383   8.133  10.669
50062W        W22487  17.571  38.293   4.548
50063W        W22488  37.429   2.934  14.966
50064W        W22489  11.781  41.445   3.318
50065W        W22490  42.585  38.634   3.700
50066W        W22491  33.472  35.885   4.290
50067W        W22492  23.112  10.825  12.372
50068W        W22493  13.454  28.036   0.502
50069W        W22494  24.274  44.765  12.542
50070W        W22495  18.111  35.560  12.327
50071W        W22496  29.690  13.083  12.391
50072W        W22497  18.475   6.902   4.141
50073W        W22498  39.307  19.955   3.221
50074W        W22499  16.618  15.108   1.659
50075W        W22500  33.110  19.703  14.076
50076W        W22501  20.207  26.274   4.549
50077W        W22502  43.037  40.571  14.529
50078W        W22503  40.804  23.683   4.540
50079W        W22504   0.325  17.406  14.981
50080W        W22505  20.549  37.586   3.737
50081W        W22506  27.993   7.249  13.928
50082W        W22507  22.684   3.294  10.110
50083W        W22508  41.441  34.465   2.685
50084W        W22509  38.307   9.618  10.503
50085W        W22510  19.607  34.008  11.347
50086W        W22511  19.759  44.466   1.219
50087W        W22512  13.580  35.321  13.301
50088W        W22513  30.412  16.689  14.428
50089W        W22514  34.578   6.703   2.797
50090W        W22515   4.392   3.692   4.284
50091W        W22516  11.828  31.548   4.281
50092W        W22517  11.473  37.311  10.184
50093W        W22518  40.479  39.949  13.891
50094W        W22519   7.988   5.814   0.032
50095W        W22520  30.613  19.792  13.578
50096W        W22521  25.190   4.680   3.697
50097W        W22522   4.006  13.449   1.161
50098W        W22523  31.602  40.542  11.475
50099W        W22524  34.173  10.624   1.417
50100W        W22525   5.232  13.762  10.612
50101W        W22526   2.533   9.705   4.126
50102W        W22527  42.331   1.176   3.735
50103W        W22528   6.828   0.040   3.240
50104W        W22529  19.108  43.998   1.353
50105W        W22530  26.835  16.808   2.332
50106W        W22531  42.001   5.844  13.435
50107W        W22532  43.966  42.982  10.757
50108W        W22533   1.053  30.860  13.964
50109W        W22534  38.726  36.906   0.721
50110W        W22535   9.356  37.190  14.019
50111W        W22536   6.099   4.853   4.734
50112W        W22537  10.841  40.013   3.163
50113W        W22538   3.178  23.144   3.149
50114W        W22539  24.919  23.468  12.465
50115W        W22540  24.129  35.112   4.087
50116W        W22541  15.636   6.414  13.486
50117W        W22542  16.326  23.707   1.763
50118W        W22543  16.705  26.225  13.921
50119W        W22544  19.543  25.089  14.377
50120W        W22545  33.174  43.043  12.613
50121W        W22546  21.485  28.645   0.801
50122W        W22547  10.388  26.385  10.243
50123W        W22548   1.969  39.195   2.384
50124W        W22549  19.050  33.034   3.240
50125W        W22550  32.878  31.011   0.562
50126W        W22551  23.006  31.058   0.723
50127W        W22552  24.650   5.110  12.522
50128W        W22553  10.245  39.098   4.629
50129W        W22554   2.219  29.210   1.413
50130W        W22555  12.303   9.907   0.255
50131W        W22556  21.985   2.298  13.239
50132W        W22557   0.584  14.217  12.037
50133W        W22558  14.892  23.995   4.121
50134W        W22559   9.964  12.233  12.424
50135W        W22560  12.819  39.876   1.245
50136W        W22561  30.683  12.072   4.788
50137W        W22562  23.745  35.125  12.887
50138W        W22563  35.436  38.809   3.985
50139W        W22564  12.668  31.504  12.441
50140W        W22565  44.558  11.349   0.884
50141W        W22566  22.488   9.746  14.285
50142W        W22567  27.603  11.910  13.920
50143W        W22568  25.061  37.919   4.719
50144W        W22569  30.631   0.710   1.692
50145W        W22570  21.153  40.993  12.016
50146W        W22571  39.455  10.577   4.037
50147W        W22572   9.541  18.607  14.961
50148W        W22573   8.682   7.130   4.568
50149W        W22574  29.753  23.761   3.705
50150W        W22575  16.679  37.537   1.310
50151W        W22576   0.891   7.264   3.653
50152W        W22577  17.160   0.220   0.976
50153W        W22578  42.524  24.603  14.049
50154W        W22579  30.963  42.560  12.051
50155W        W22580  17.544  17.101  13.447
50156W        W22581  39.607  27.698  13.216
50157W        W22582  34.753   9.575  11.426
50158W        W22583  10.154   8.700   4.689
50159W        W22584  28.129  42.400  14.472
50160W        W22585  30.638  25.172  12.782
50161W        W22586   0.989   4.634   1.298
50162W        W22587  22.560  43.308  11.524
50163W        W22588  11.905   9.005  12.978
50164W        W22589  37.993  35.860   4.638
50165W        W22590   9.872  19.238   2.804
50166W        W22591  40.158  41.764   2.230
50167W        W22592   4.699   8.699   2.187
50168W        W22593  23.076  30.123  13.273
50169W        W22594  23.891  13.853   3.086
50170W        W22595  20.238  11.374  12.102
50171W        W22596  30.608  32.953   3.695
50172W        W22597   7.728   4.566   0.920
50173W        W22598  43.926  29.019   3.815
50174W        W22599  27.925  16.010  14.406
50175W        W22600   3.322  35.585   1.961
50176W        W22601  29.949  37.376  13.320
50177W        W22602  18.211   0.491   1.786
50178W        W22603  37.405  41.598   2.207
50179W        W22604  27.900  15.597   4.169
50180W        W22605  33.157   7.983   1.678
50181W        W22606   1.794   9.878  14.319
50182W        W22607  35.084  37.574  11.161
50183W        W22608  36.303  25.937  10.881
50184W        W22609  39.457  28.570  13.729
50185W        W22610  10.324  16.746  10.357
50186W        W22611  19.777  12.602   2.823
50187W        W22612  39.925  32.467  11.989
50188W        W22613  44.252  37.317   0.285
50189W        W22614  31.850  12.816  10.532
50190W        W22615   8.159  19.331  12.453
50191W        W22616   3.068  13.884   3.847
50192W        W22617  36.657  11.290  13.963
50193W        W22618   8.635   8.683  13.820
50194W        W22619  28.995  10.839   0.726
50195W        W22620  17.384  43.761  12.500
50196W        W22621   8.468   4.223  14.787
50197W        W22622  27.123  42.068  13.031
50198W        W22623  14.142  43.130  13.632
50199W        W22624  43.691  39.404  13.467
50200W        W22625  14.731  35.885  14.314
50201W        W22626  33.609   4.673  10.746
50202W        W22627  33.935  21.328   4.534
50203W        W22628  44.326  39.852   2.156
50204W        W22629  31.971   9.808   4.605
50205W        W22630  37.800  25.055  11.459
50206W        W22631   8.158  31.558  11.639
50207W        W22632   9.203  10.876  12.383
50208W        W22633  18.824  39.491   0.267
50209W        W22634  34.683  40.041   0.427
50210W        W22635   7.847  11.609  14.778
50211W        W22636  38.266   4.809  10.892
50212W        W22637  31.616  28.341  12.265
50213W        W22638  30.797  33.661  14.365
50214W        W22639  33.518  27.492  10.606
50215W        W22640  29.050  26.041   0.932
50216W        W22641   3.771  30.594   2.974
50217W        W22642  15.858  31.558  14.749
50218W        W22643  20.132  31.948   0.181
50219W        W22644  25.753  43.873  14.357
50220W        W22645  20.340  41.783  11.103
50221W        W22646  24.357  21.631  14.812
50222W        W22647  25.348   5.907   2.875
50223W        W22648  10.273  30.043  12.242
50224W        W22649  14.281  36.308   5.077
50225W        W22650  30.584  32.668  14.457
50226W        W22651  35.063  20.411   1.017
50227W        W22652   1.437  13.485  10.520
50228W        W22653   7.909  39.326   0.449
50229W        W22654  42.337   7.724  13.354
50230W        W22655  24.460  24.529  13.323
50231W        W22656  19.058  16.827  12.582
50232W        W22657   1.339  23.008   3.207
50233W        W22658  19.089  38.624   4.198
50234W        W22659  27.522  34.371   0.415
50235W        W22660  43.328  43.922   1.652
50236W        W22661  34.070  44.902   4.710
50237W        W22662  26.548  11.217   2.417
50238W        W22663  42.437  28.041  10.964
50239W        W22664  20.515   5.832  14.746
50240W        W22665  22.729  13.905   9.930
50241W        W22666  20.701  21.202   2.396
50242W        W22667  29.072   4.081  14.010
50243W        W22668  33.823  12.279   4.960
50244W        W22669  15.694  43.210   1.369
50245W        W22670  41.582  36.441   4.298
50246W        W22671  42.391  16.974   1.759
50247W        W22672  11.148  12.828   0.058
50248W        W22673  39.810  24.189  12.616
50249W        W22674  25.675  14.066   0.772
50250W        W22675  21.136  36.166  11.716
50251W        W22676   6.363  40.941   4.643
50252W        W22677   6.369  22.161   3.641
50253W        W22678  34.627  14.741   4.470
50254W        W22679  14.546   3.131   3.664
50255W        W22680   9.592  16.075  12.414
50256W        W22681  19.501  12.512   3.995
50257W        W22682  25.948  25.426  11.108
50258W        W22683  43.473  29.586  14.446
50259W        W22684  16.010  37.084  11.991
50260W        W22685  40.753  44.240   4.543
50261W        W22686  20.699  44.425   1.938
50262W        W22687  32.485   5.311  12.656
50263W        W22688  20.158  21.272   1.654
50264W        W22689   4.340  27.189  14.493
50265W        W22690  44.531   1.008  12.502
50266W        W22691  38.527  10.931   0.856
50267W        W22692  37.941   7.794  13.520
50268W        W22693  21.174  15.716  13.852
50269W        W22694  32.408  25.176  13.793
50270W        W22695   8.673  31.530   0.966
50271W        W22696   8.525  41.942  14.501
50272W        W22697  16.773  35.444   3.941
50273W        W22698  43.022  20.104  13.346
50274W        W22699  39.269  27.427   3.327
50275W        W22700  24.407  12.762  10.579
50276W        W22701   1.358  36.603  13.595
50277W        W22702   6.339  11.768  12.587
50278W        W22703  37.642  22.489  12.778
50279W        W22704  12.601  37.386  10.864
50280W        W22705   6.723  26.245   0.004
50281W        W22706  12.781  21.796   2.277
50282W        W22707  13.049  24.253  13.887
50283W        W22708  35.892  36.612   2.749
50284W        W22709  28.513  44.051   1.770
50285W        W22710  41.860  18.532   2.901
50286W        W22711  18.212  18.997   0.907
50287W        W22712   1.228  20.291  10.728
50288W        W22713  44.711  30.803  10.516
50289W        W22714  28.064  11.940   1.067
50290W        W22715  33.887  10.854   1.760
50291W        W22716  10.270   3.512   4.571
50292W        W22717  25.952  26.638  14.059
50293W        W22718  11.182  38.051  12.498
50294W        W22719   3.382   6.905  13.844
50295W        W22720  33.866   0.223   2.650
50296W        W22721  20.456  26.515  11.698
50297W        W22722   6.835   6.728   3.357
50298W        W22723  38.304  19.641   1.491
50299W        W22724  11.306  32.816  11.062
50300W        W22725  33.944  14.313  11.480
50301W        W22726  39.537  44.506   2.315
50302W        W22727   1.804  25.657   2.633
50303W        W22728   4.884  41.348  13.948
50304W        W22729  20.568  21.195   0.510
50305W        W22730  40.359  39.646   0.765
50306W        W22731  42.197  38.060   1.874
50307W        W22732  26.429   6.892  12.905
50308W        W22733  42.212  37.275   0.027
50309W        W22734  22.753   0.865  10.632
50310W        W22735  19.458  26.426  11.908
50311W        W22736  11.678  26.587   3.199
50312W        W22737   8.397   6.885  11.537
50313W        W22738  41.536  17.282   2.409
50314W        W22739  37.409  30.437  13.608
50315W        W22740  35.347  25.244  13.398
50316W        W22741   9.135  35.548   0.464
50317W        W22742  25.975  33.016   4.376
50318W        W22743  37.085   9.290  13.557
50319W        W22744  22.121  11.879  11.451
50320W        W22745   5.787  34.146  10.734
50321W        W22746  42.272  12.777  10.392
50322W        W22747  24.450  20.640  14.876
50323W        W22748  11.910   2.903   3.182
50324W        W22749  21.252   0.879   0.488
50325W        W22750  19.958   2.390   1.748
50326W        W22751  28.103   9.444  10.386
50327W        W22752  42.553  18.691   2.486
50328W        W22753  43.181  29.734  14.877
50329W        W22754  14.054  11.380  13.529
50330W        W22755  20.365  19.531   0.476
50331W        W22756   6.483  11.335   4.847
50332W        W22757  14.044  10.808  13.939
50333W        W22758   8.848  30.255  14.546
50334W        W22759  13.814  16.135   0.974
50335W        W22760  44.410  15.893   2.915
50336W        W22761   7.814  23.298  10.725
50337W        W22762  34.967  39.031   3.912
50338W        W22763  14.714  16.303   3.769
50339W        W22764  11.239  42.179   2.242
50340W        W22765   8.064   1.351   2.457
50341W        W22766  20.268  29.767  14.359
50342W        W22767  32.233  43.772  14.432
50343W        W22768  31.093  17.651  12.789
50344W        W22769  18.822  28.141   2.343
50345W        W22770   7.288   7.614  11.470
50346W        W22771  14.688  36.410   4.504
50347W        W22772  18.064   3.834  13.834
50348W        W22773  29.498  44.240  11.388
50349W        W22774  11.642  37.439  14.276
50350W        W22775   6.661  34.023  14.894
50351W        W22776  39.401  17.336  10.999
50352W        W22777  31.266  35.621  10.815
50353W        W22778  44.031  22.305  11.190
50354W        W22779  14.782  28.806  11.995
50355W        W22780  30.180  17.816   3.217
50356W        W22781  28.157  39.567  12.452
50357W        W22782   3.752  14.833   2.927
50358W        W22783  13.548  22.260   2.171
50359W        W22784  11.843   6.292  10.711
50360W        W22785  39.478  12.303   4.540
50361W        W22786  17.662  41.262   2.710
50362W        W22787  35.089  30.592   0.010
50363W        W22788   9.716  36.684   2.636
50364W        W22789  18.581   1.748  13.309
50365W        W22790   6.766   3.483  11.186
50366W        W22791  23.594   7.910  11.916
50367W        W22792  29.989  15.855  10.628
50368W        W22793  25.107  23.976  12.597
50369W        W22794  44.483  15.777  13.286
50370W        W22795  30.196  13.906  14.341
50371W        W22796   9.880  11.237   2.993
50372W        W22797  37.084  44.007  14.832
50373W        W22798   8.638  25.031  13.520
50374W        W22799   0.883  44.251   0.945
50375W        W22800   1.287  30.216   3.531
50376W        W22801   9.763  28.715   1.727
50377W        W22802  44.937  30.145   1.536
50378W        W22803   8.149  10.617   0.512
50379W        W22804  43.207  22.209  11.216
50380W        W22805  14.600  38.460  12.054
50381W        W22806  34.664  18.182   3.094
50382W        W22807  17.154   2.212  14.010
50383W        W22808  38.997  44.961   1.837
50384W        W22809  25.482  38.795   2.732
50385W        W22810   1.526  28.877   4.504
50386W        W22811  24.292  16.796   3.693
50387W        W22812  31.596  16.220  11.905
50388W        W22813  19.582  24.733  14.755
50389W        W22814   8.362  12.027   4.079
50390W        W22815  16.268  21.309   3.617
50391W        W22816  35.873  29.551   2.878
50392W        W22817  38.352  32.911  10.898
50393W        W22818  27.264  20.687   3.388
50394W        W22819  40.415   1.815   3.792
50395W        W22820  20.260   7.035  11.439
50396W        W22821   5.997  11.588  11.758
50397W        W22822  24.703  28.976  11.534
50398W        W22823  16.294  19.267  13.054
50399W        W22824   4.042   9.153   2.670
50400W        W22825  32.138  14.180  10.857
50401W        W22826   6.282   0.994  13.542
50402W        W22827  44.393  21.104  12.400
50403W        W22828  13.229  40.010   1.551
50404W        W22829   0.512   2.798   3.283
50405W        W22830  35.792  43.864   2.363
50406W        W22831  19.808   0.772  13.384
50407W        W22832  32.666   4.690   0.978
50408W        W22833  11.669  38.533   0.407
50409W        W22834  39.813  22.212   0.466
50410W        W22835  10.609  37.071  14.736
50411W        W22836   8.765  41.542  11.213
50412W        W22837   8.596  41.353   0.926
50413W        W22838  30.853  43.079  12.044
50414W        W22839  18.590  19.004   4.735
50415W        W22840   8.407  13.114  12.588
50416W        W22841   3.223   1.410   2.406
50417W        W22842   0.003  18.843  11.189
50418W        W22843  13.608  31.827  12.653
50419W        W22844  30.400  29.794  12.088
50420W        W22845  22.062   1.682  12.389
50421W        W22846   7.083  25.995   3.132
50422W        W22847  33.149  10.740  12.526
50423W        W22848  15.528  29.252   3.777
50424W        W22849  35.359  16.328   0.866
50425W        W22850  12.766  36.234  11.897
50426W        W22851  16.549  20.767   4.252
50427W        W22852  28.077  18.357  14.389
50428W        W22853   9.207  21.777  12.985
50429W        W22854  34.490  21.446  11.212
50430W        W22855  38.097   2.527   2.911
50431W        W22856  28.505  21.265   0.670
50432W        W22857  16.585  29.548  10.992
50433W        W22858   4.440  28.557  12.920
50434W        W22859  26.585  42.462   0.260
50435W        W22860  10.360  22.676   3.587
50436W        W22861  10.268  41.930  13.432
50437W        W22862   4.973  23.218   3.679
50438W        W22863   7.178   8.969  12.782
50439W        W22864  19.623  32.069  13.922
50440W        W22865   5.766  12.728  13.857
50441W        W22866   6.880   2.417  13.833
50442W        W22867  19.782  30.259   3.906
50443W        W22868   7.227   9.651  13.735
50444W        W22869  28.985  32.728   4.185
50445W        W22870  16.245  13.038   4.578
50446W        W22871   1.511  32.931   0.360
50447W        W22872   6.312  11.389   4.326
50448W        W22873  19.539  28.548   1.279
50449W        W22874  17.653  14.686   1.245
50450W        W22875  41.256  34.336  11.565
50451W        W22876  34.925   2.013   2.331
50452W        W22877  32.221  41.231   1.268
50453W        W22878  40.293  43.701  13.360
50454W        W22879  23.750  38.012   2.649
50455W        W22880  41.827   8.278  14.500
50456W        W22881  36.375  38.717  13.940
50457W        W22882  16.760   9.636  14.589
50458W        W22883  21.144  20.524   1.322
50459W        W22884  35.365  11.723  13.976
50460W        W22885   0.274  26.989   2.123
50461W        W22886  15.834   0.351   3.358
50462W        W22887  32.633  22.065  14.928
50463W        W22888  18.862  43.865   4.686
50464W        W22889  11.757  35.070  14.292
50465W        W22890  23.471  28.564   2.298
50466W        W22891  15.638  27.405  13.540
50467W        W22892   3.552  21.604   0.790
50468W        W22893  15.054  29.607   2.238
50469W        W22894  22.779   1.442  11.481
50470W        W22895   5.946  25.602   1.686
50471W        W22896  13.977  35.364  12.497
50472W        W22897  36.619  28.253  12.541
50473W        W22898   6.870  14.838  13.589
50474W        W22899  16.126   6.383   3.661
50475W        W22900  14.603  24.866   2.330
50476W        W22901  21.754  10.090  11.912
50477W        W22902  18.085  20.793   3.825
50478W        W22903   5.788   5.084   2.382
50479W        W22904  13.768  27.442   1.703
50480W        W22905  35.614  16.020  12.265
50481W        W22906   3.906   5.453   0.000
50482W        W22907   3.952   8.776  14.496
50483W        W22908  18.531   0.937   2.226
50484W        W22909  42.294  43.789   4.956
50485W        W22910   3.722  23.509   4.171
50486W        W22911  32.046  16.276  12.488
50487W        W22912  27.696  36.997  14.413
50488W        W22913  11.568  39.811   4.567
50489W        W22914   2.866  10.228  12.389
50490W        W22915  37.073  36.476  12.671
50491W        W22916   0.289  25.623  11.251
50492W        W22917  30.734  13.750   3.647
50493W        W22918   0.302  15.713   1.207
50494W        W22919  27.190  33.344   2.080
50495W        W22920  24.147   4.075   2.480
50496W        W22921  26.228  44.572   3.217
50497W        W22922   2.796  16.507   2.401
50498W        W22923  25.146  13.092  12.443
50499W        W22924  25.529  26.755  11.419
50500W        W22925  22.568  12.624  11.587
50501W        W22926  20.691  18.785   3.197
50502W        W22927  40.842  12.569   0.936
50503W        W22928  44.576  13.766   0.442
50504W        W22929  20.598   4.023  12.148
50505W        W22930  23.632  29.225   4.615
50506W        W22931  25.623  34.196  13.831
50507W        W22932  20.979  15.603  10.744
50508W        W22933  33.441  44.511   2.246
50509W        W22934  19.145  15.174  10.751
50510W        W22935  21.976  16.168   1.346
50511W        W22936  42.150   0.928  10.601
50512W        W22937  10.791  43.575   0.830
50513W        W22938  14.714   9.820   0.300
50514W        W22939  14.152  34.460   0.081
50515W        W22940  43.773  12.684   4.921
50516W        W22941  32.101  31.039  13.457
50517W        W22942  23.752  17.331  12.003
50518W        W22943  20.021  40.439  10.531
50519W        W22944   3.882  37.781   4.531
50520W        W22945  15.697  28.690  12.898
50521W        W22946   7.279   6.497  13.970
50522W        W22947  36.254  37.632  10.974
50523W        W22948  16.971  36.853   1.514
50524W        W22949  10.767  37.842   2.736
50525W        W22950  33.528   4.426  12.906
50526W        W22951  10.265   5.388   2.544
50527W        W22952  21.182  23.738   3.140
50528W        W22953   2.356   2.344   0.232
50529W        W22954  29.962  25.095   3.380
50530W        W22955   9.926  22.942   2.838
50531W        W22956  21.609  28.372   2.509
50532W        W22957  34.390  34.569   2.921
50533W        W22958  39.146  39.448   3.716
50534W        W22959  12.798  24.272  11.539
50535W        W22960  12.148  35.895   1.629
50536W        W22961  40.893   4.411  12.516
50537W        W22962   5.420   1.531   4.057
50538W        W22963  24.059  36.609   2.831
50539W        W22964  16.965   5.471   3.129
50540W        W22965  35.556  39.383   0.744
50541W        W22966   0.512  44.433   1.756
50542W        W22967   3.435   8.633   0.297
50543W        W22968  43.109  28.444  14.568
50544W        W22969  27.737  16.153  13.945
50545W        W22970  32.074  39.602  12.930
50546W        W22971  25.199  42.814   3.999
50547W        W22972   8.748   6.769   3.554
50548W        W22973   4.937  25.025   2.081
50549W        W22974  12.102  44.319   4.054
50550W        W22975  27.994  32.858  12.037
50551W        W22976  32.435  24.220  12.996
50552W        W22977  25.163  23.748  12.105
50553W        W22978  28.590  30.998   3.726
50554W        W22979  25.586  44.226  11.596
50555W        W22980  20.308  26.558   2.367
50556W        W22981   8.619   5.122  14.852
50557W        W22982   0.560  33.070   4.236
50558W        W22983   3.212  44.194  12.897
50559W        W22984  18.171  31.364  10.972
50560W        W22985  12.656  11.208   2.823
50561W        W22986  35.936  16.550   1.234
50562W        W22987  21.610  44.050  12.907
50563W        W22988  40.306  15.353  13.398
50564W        W22989  32.967  14.109   4.359
50565W        W22990  44.389  28.424  10.685
50566W        W22991  41.705  29.931  14.154
50567W        W22992   9.521  28.380   2.470
50568W        W22993  30.362  28.013   1.858
50569W        W22994  22.293   4.026   1.910
50570W        W22995  12.977  28.669   1.848
50571W        W22996  19.900  31.490  14.999
50572W        W22997   4.756   8.307   0.440
50573W        W22998  15.089  12.137   4.833
50574W        W22999  39.543  33.086   1.737
50575W        W23000  11.890   9.720   2.764
50576W        W23001   9.035  42.970   1.902
50577W        W23002  25.424  32.936   3.175
50578W        W23003  28.307  12.834  14.860
50579W        W23004  20.810   6.732   1.321
50580W        W23005   6.699  27.605   0.450
50581W        W23006  26.246   5.248   2.785
50582W        W23007  37.912  31.155   0.467
50583W        W23008   2.610   4.813  10.291
50584W        W23009  19.556  15.498  10.680
50585W        W23010   2.469  13.155  12.197
50586W        W23011  37.939  20.557   4.708
50587W        W23012  44.592   9.102   4.899
50588W        W23013  18.857  39.865  14.764
50589W        W23014  18.187   2.041   1.953
50590W        W23015  15.626  26.684   2.672
50591W        W23016  14.719  12.816  10.897
50592W        W23017  38.383  19.981   4.577
50593W        W23018  20.161   6.404   2.722
50594W        W23019  12.369  12.151   1.966
50595W        W23020  44.385  11.836  14.367
50596W        W23021  30.881   5.239   3.861
50597W        W23022  17.609  23.172   3.650
50598W        W23023  41.708  20.275  11.528
50599W        W23024  32.982  15.530   4.252
50600W        W23025  26.876  16.296  12.054
50601W        W23026   8.274  30.004   0.003
50602W        W23027  26.564  31.928   5.018
50603W        W23028  34.093  10.176   2.371
50604W        W23029   5.532  16.590   1.373
50605W        W23030  25.953  40.827   4.036
50606W        W23031   1.909  42.353   2.270
50607W        W23032  43.501  31.828   1.966
50608W        W23033  27.174  19.962   3.975
50609W        W23034  25.720   2.782  10.685
50610W        W23035   2.748  10.503   4.478
50611W        W23036   1.013  30.898  11.169
50612W        W23037   9.318  44.425   0.905
50613W        W23038  14.246  15.167  13.453
50614W        W23039  28.092  42.263   4.382
50615W        W23040  39.884  15.528   2.393
50616W        W23041  43.230  37.555  11.095
50617W        W23042   8.255  17.171  11.558
50618W        W23043  11.914  18.540   0.533
50619W        W23044  24.983   6.703  11.013
50620W        W23045  25.702  23.788  11.561
50621W        W23046  19.628  33.706  13.902
50622W        W23047  16.673  12.774   2.358
50623W        W23048  33.595  10.800  11.924
50624W        W23049  14.989  39.647  13.835
50625W        W23050  34.093   8.678  12.039
50626W        W23051   3.830  10.403  12.443
50627W        W23052  40.676  32.002   4.667
50628W        W23053   1.186   3.269   2.349
50629W        W23054   7.196  16.272   3.710
50630W        W23055  38.781   7.315  12.911
50631W        W23056   9.368  32.434  14.051
50632W        W23057  33.524  20.202   4.017
50633W        W23058  33.006  41.980  11.495
50634W        W23059  40.425  11.326  13.810
50635W        W23060   0.578   8.873  12.001
50636W        W23061  23.554  19.158  12.215
50637W        W23062  41.522  33.505   1.796
50638W        W23063  21.997  19.968  13.283
50639W        W23064  24.900  14.066  11.969
50640W        W23065   7.545  35.384  12.905
50641W        W23066  28.598   0.495  12.098
50642W        W23067  28.303  15.092  13.954
50643W        W23068   9.500  43.690   2.706
50644W        W23069  20.946   9.405  10.627
50645W        W23070  40.950  43.342  10.178
50646W        W23071  15.638   6.638  10.549
50647W        W23072  33.364  39.796  10.798
50648W        W23073   0.394   3.390   2.813
50649W        W23074  34.563  30.179  12.489
50650W        W23075  14.228  16.651   3.164
50651W        W23076   4.887  27.922   4.586
50652W        W23077  35.946  17.725  14.880
50653W        W23078   4.253  44.013  12.708
50654W        W23079  13.007  11.379  12.640
50655W        W23080   4.059   6.417  11.405
50656W        W23081   1.780  43.414  10.780
50657W        W23082  24.616   3.870  13.599
50658W        W23083  16.021  23.896   2.174
50659W        W23084  12.910  17.502   0.919
50660W        W23085  14.679  36.956  11.551
50661W        W23086  34.335   3.845   1.783
50662W        W23087  21.607   3.641   1.203
50663W        W23088   2.533  24.107   0.953
50664W        W23089   3.781  19.470  11.162
50665W        W23090  16.303  36.555  13.443
50666W        W23091  37.561  29.471   4.248
50667W        W23092   6.898  13.752  14.897
50668W        W23093   2.457   3.159   1.939
50669W        W23094   8.413   3.113   3.196
50670W        W23095  19.720  34.496  13.348
50671W        W23096  11.036  43.404  11.512
50672W        W23097  31.794   4.450  11.189
50673W        W23098  15.636  40.313  12.904
50674W        W23099  34.359  30.637   2.733
50675W        W23100  35.228  10.215  10.674
50676W        W23101   1.087  16.565   0.809
50677W        W23102  21.990  31.961   1.698
50678W        W23103  29.125  41.829   0.762
50679W        W23104  40.317  24.964  12.678
50680W        W23105  16.724  40.445  11.081
50681W        W23106  40.320  34.017   0.011
50682W        W23107  25.150  43.290   1.428
50683W        W23108  36.125  34.478  14.859
50684W        W23109  33.402  15.344   2.113
50685W        W23110   5.666  42.511   3.701
50686W        W23111  10.935  27.711   0.961
50687W        W23112  36.709  32.110   2.271
50688W        W23113  36.189  41.936  11.241
50689W        W23114  28.213  20.594   2.271
50690W        W23115  38.530   9.794  12.147
50691W        W23116   3.385   4.359  10.660
50692W        W23117   5.709  27.071   4.635
50693W        W23118  32.951  18.341   4.647
50694W        W23119  24.248  18.625   3.347
50695W        W23120   9.760  26.518   3.130
50696W        W23121  19.589  32.383   3.130
50697W        W23122  24.493  22.674  12.254
50698W        W23123  16.024  13.167  13.591
50699W        W23124  17.909   5.237   1.492
50700W        W23125   6.742  39.938  12.757
50701W        W23126  27.922  40.861   1.436
50702W        W23127   0.527  22.710  10.941
50703W        W23128  38.024  23.996   3.342
50704W        W23129  32.603  16.238   1.150
50705W        W23130   7.260  38.089   3.874
50706W        W23131  39.098   7.659   1.416
50707W        W23132  17.294  22.078   1.438
50708W        W23133  38.127  17.243   3.838
50709W        W23134  33.662  40.489  14.174
50710W        W23135   6.916  38.504   0.479
50711W        W23136   4.340  18.926  10.815
50712W        W23137  40.416  33.392   2.572
50713W        W23138  13.844   5.658   1.768
50714W        W23139  40.358  12.877   0.898
50715W        W23140  44.206  26.541   2.495
50716W        W23141  43.328  32.571  13.859
50717W        W23142   7.203  42.990  14.515
50718W        W23143  35.095  35.384   2.775
50719W        W23144  24.071  11.782   1.242
50720W        W23145   8.193  35.599  12.102
50721W        W23146  23.447   6.794   1.679
50722W        W23147  33.457  11.292   4.618
50723W        W23148  27.197  40.336  13.421
50724W        W23149  19.356   0.385  11.053
50725W        W23150  36.088  11.831   0.897
50726W        W23151   5.393  28.087  10.619
50727W        W23152  13.795  10.455   0.879
50728W        W23153  21.321   4.148  13.153
50729W        W23154  34.012  19.992   3.327
50730W        W23155  22.206  22.432  11.045
50731W        W23156  38.472  42.947  10.563
50732W        W23157  15.796   0.745   0.621
50733W        W23158  26.048  35.113   1.006
50734W        W23159  39.818  10.376   2.928
50735W        W23160  23.584  33.964   2.763
50736W        W23161  20.243  13.296   2.266
50737W        W23162  39.946   1.345  12.478
50738W        W23163  30.427  28.640   0.779
50739W        W23164  36.833  15.227   1.201
50740W        W23165   9.854  39.329   3.760
50741W        W23166  17.142  42.747   3.046
50742W        W23167   9.186   2.443  12.477
50743W        W23168  25.131  17.056  13.951
50744W        W23169  16.567  12.737  14.675
50745W        W23170  34.166  43.865   4.234
50746W        W23171  24.099  22.329  14.094
50747W        W23172  22.812   4.875  14.821
50748W        W23173  16.078  31.659   0.829
50749W        W23174   5.298   2.619  11.039
50750W        W23175  23.784  14.270   2.367
50751W        W23176  18.252   4.355  10.621
50752W        W23177  40.994   6.396   0.906
50753W        W23178  18.637   9.856   3.024
50754W        W23179  40.772  23.572  14.375
50755W        W23180  33.571   7.336   4.227
50756W        W23181   5.689   2.352   3.851
50757W        W23182   7.277  43.355   1.267
50758W        W23183   0.082  42.850   4.352
50759W        W23184  32.714   7.848  13.999
50760W        W23185  39.436  20.719  13.122
50761W        W23186   2.788  22.575  14.913
50762W        W23187  41.923  26.448   1.846
50763W        W23188   4.776  42.287   4.157
50764W        W23189  41.222  43.431   0.977
50765W        W23190  32.586  43.938  12.520
50766W        W23191  10.114  32.405   4.216
50767W        W23192  25.605  31.345   2.249
50768W        W23193   2.390  33.175   4.188
50769W        W23194  23.004  11.477  14.623
50770W        W23195  36.462  43.079   0.387
50771W        W23196   0.378   0.032  10.762
50772W        W23197  29.134  39.053  14.474
50773W        W23198  23.768  33.186  13.406
50774W        W23199  17.159  33.045  10.969
50775W        W23200  30.902  23.255   3.897
50776W        W23201   1.205  41.551  13.580
50777W        W23202  38.128  17.069  14.784
50778W        W23203  25.534  13.802   3.563
50779W        W23204  13.698  21.507  12.315
50780W        W23205  13.164   1.769  10.614
50781W        W23206  20.211  21.277   2.668
50782W        W23207   9.098  27.416   3.187
50783W        W23208   1.280   9.779  14.359
50784W        W23209  20.850  40.701  12.563
50785W        W23210   3.188   3.762  12.177
50786W        W23211  39.041  14.449   2.967
50787W        W23212   3.355  33.117  14.793
50788W        W23213   1.458  13.208  10.960
50789W        W23214  30.710  26.230  10.596
50790W        W23215   3.031  14.652   3.269
50791W        W23216  32.544   4.817  11.409
50792W        W23217  32.039  14.420   2.218
50793W        W23218  26.678  31.661   9.668
50794W        W23219   9.255  16.748   4.205
50795W        W23220   0.698  21.688   3.679
50796W        W23221  26.682  12.338  14.792
50797W        W23222   3.000  36.141  11.108
50798W        W23223  11.200   0.335  10.707
50799W        W23224   0.146  30.707   3.714
50800W        W23225  27.250  42.460   4.139
50801W        W23226  25.620  24.449   3.398
50802W        W23227  14.070  25.614   4.944
50803W        W23228   8.320  41.015  13.783
50804W        W23229  30.965  36.113  13.544
50805W        W23230  37.824  33.132   2.361
50806W        W23231  12.286  32.547  13.496
50807W        W23232  41.292  12.137   3.728
50808W        W23233  25.069   7.752   1.435
50809W        W23234  23.246  37.095   1.432
50810W        W23235  16.449  12.591   3.922
50811W        W23236  31.919   3.519  12.232
50812W        W23237  40.266  18.519  11.523
50813W        W23238   0.056  24.142  14.406
50814W        W23239  19.681  16.060  13.548
50815W        W23240  33.049  31.922  11.988
50816W        W23241  24.567  28.950   4.177
50817W        W23242   1.342  38.823  13.032
50818W        W23243  33.471  12.434  12.810
50819W        W23244   9.218  36.456   2.002
50820W        W23245  26.972  33.603  10.653
50821W        W23246   8.329  33.606   3.579
50822W        W23247   2.029  43.289   3.336
50823W        W23248  33.816  36.311  13.363
50824W        W23249  40.327  14.350   4.329
50825W        W23250   1.752  22.127   0.836
50826W        W23251  39.256  14.697  14.735
50827W        W23252  36.693  30.714  14.061
50828W        W23253  23.010  29.541   1.459
50829W        W23254  31.562  21.763  11.618
50830W        W23255  17.209  15.043   0.397
50831W        W23256  40.546  11.819   3.302
50832W        W23257  43.242   9.378   4.879
50833W        W23258  34.847  42.974  13.850
50834W        W23259  24.184   7.274   4.100
50835W        W23260   7.668  34.220   3.351
50836W        W23261  13.503  42.921  10.715
50837W        W23262  14.665  24.474   4.188
50838W        W23263   3.966  40.344  13.914
50839W        W23264  31.119  35.172  11.066
50840W        W23265   1.383  13.413  11.420
50841W        W23266  13.621  36.612  13.900
50842W        W23267  13.263  37.848   1.451
50843W        W23268   5.755   0.568   4.521
50844W        W23269   8.173   8.392  13.858
50845W        W23270  15.084  16.965  14.586
50846W        W23271  37.541  27.722  12.402
50847W        W23272  20.022  42.231  11.049
50848W        W23273  32.836  26.522   2.745
50849W        W23274  30.033  26.413  13.948
50850W        W23275  18.468  10.493   4.876
50851W        W23276  35.025  13.188   0.990
50852W        W23277  23.807  25.990   3.227
50853W        W23278  40.032   0.245   5.516
50854W        W23279  32.196   2.515   4.020
50855W        W23280  31.460  26.115   3.357
50856W        W23281   2.737  14.947  10.816
50857W        W23282  34.159   3.593   3.724
50858W        W23283   8.393   6.170   3.066
50859W        W23284  24.281  35.644   3.778
50860W        W23285  19.008  37.132  12.547
50861W        W23286  42.353  44.888   0.858
50862W        W23287   2.643  17.730  12.076
50863W        W23288  39.345  34.849  10.996
50864W        W23289  18.583  28.172  13.468
50865W        W23290  36.877  38.355  11.359
50866W        W23291  30.488  10.081   4.998
50867W        W23292  12.176  35.663   0.784
50868W        W23293  19.739  14.379   2.890
50869W        W23294   6.590  13.852   0.307
50870W        W23295   0.401  29.169   1.919
50871W        W23296  24.730  10.308  12.004
50872W        W23297  33.341  42.247  13.482
50873W        W23298  15.064  15.704  10.613
50874W        W23299  29.695   1.356  13.137
50875W        W23300   0.901   5.452   0.987
50876W        W23301  31.370  13.665   3.092
50877W        W23302  39.765  30.380   4.373
50878W        W23303   7.664  13.848   0.614
50879W        W23304  34.317  13.523  14.579
50880W        W23305  35.360   8.672  13.844
50881W        W23306  38.883   4.635   3.780
50882W        W23307   4.233  23.305  11.105
50883W        W23308  31.185  39.354  12.785
50884W        W23309  10.731  42.962  10.343
50885W        W23310  41.965   4.678   0.408
50886W        W23311  33.342  12.891  12.038
50887W        W23312  15.306  42.104   3.535
50888W        W23313  29.532   3.313  11.649
50889W        W23314  34.420  42.237   1.822
50890W        W23315  23.491  22.597  12.111
50891W        W23316  33.329  32.973   4.846
50892W        W23317  21.044  12.171  13.923
50893W        W23318  29.224  37.307   2.831
50894W        W23319  33.168  43.815   1.743
50895W        W23320  11.696  30.591  14.040
50896W        W23321  26.753  39.181  11.299
50897W        W23322   2.153  10.862   2.686
50898W        W23323  24.240  38.402  13.491
50899W        W23324  31.827   6.688  14.822
50900W        W23325  17.167  19.658   2.292
50901W        W23326  30.141  11.565  10.948
50902W        W23327   1.201  14.194   3.072
50903W        W23328  21.276  24.161   2.827
50904W        W23329  21.041  34.394   3.440
50905W        W23330  21.272   6.302  12.574
50906W        W23331   0.880  14.035  12.439
50907W        W23332  21.340  18.066  11.103
50908W        W23333  17.294  36.458   1.628
50909W        W23334  31.644  10.225   3.648
50910W        W23335  14.370  21.180   1.232
50911W        W23336   3.325  10.219  10.632
50912W        W23337  28.339  23.478   4.391
50913W        W23338  21.973   1.263  14.501
50914W        W23339  31.847  19.281  14.993
50915W        W23340   2.672  16.766   2.838
50916W        W23341  10.886   4.776  14.241
50917W        W23342   5.432  44.793  11.862
50918W        W23343  36.635   0.945   3.386
50919W        W23344  16.708   3.478  14.781
50920W        W23345  37.236  25.733   1.741
50921W        W23346  31.492  41.240  13.070
50922W        W23347  14.275  29.682  12.387
50923W        W23348   1.269  37.016   3.269
50924W        W23349  41.322  21.633   0.448
50925W        W23350   0.465  37.266  12.901
50926W        W23351  30.109  13.013   1.788
50927W        W23352  29.604  32.104   9.644
50928W        W23353  44.937   0.934  10.689
50929W        W23354  40.952  28.602   3.396
50930W        W23355   9.096  37.540   0.397
50931W        W23356  21.980  26.543   1.646
50932W        W23357  13.852  14.770  11.127
50933W        W23358  36.897  10.232  12.593
50934W        W23359  13.108  23.268   4.156
50935W        W23360  20.558  16.396  11.122
50936W        W23361   4.091  17.572   0.873
50937W        W23362  11.246  11.111   2.943
50938W        W23363  39.862   6.952   4.057
50939W        W23364  22.733   6.269  14.327
50940W        W23365  35.458  14.331   1.471
50941W        W23366  31.050   7.852   0.690
50942W        W23367  14.946   7.683  12.342
50943W        W23368   2.809  19.674  12.408
50944W        W23369  29.535  11.784   3.128
50945W        W23370  21.108  41.290  11.569
50946W        W23371  37.329  30.141   3.892
50947W        W23372   0.482  35.002  12.518
50948W        W23373  43.958  30.172   3.833
50949W        W23374  36.821   4.246  13.689
50950W        W23375  31.337  24.608  14.486
50951W        W23376   2.721  39.547  11.056
50952W        W23377   8.158  13.060   3.305
50953W        W23378  26.089   5.755   1.238
50954W        W23379   2.693  40.387   4.186
50955W        W23380  26.873  30.376   5.277
50956W        W23381  43.940   1.548  12.571
50957W        W23382  11.247  14.396  14.253
50958W        W23383  11.588  13.722   3.388
50959W        W23384  38.904   3.492  13.562
50960W        W23385  23.805  17.843  12.064
50961W        W23386  31.441  17.600  14.817
50962W        W23387  29.473  33.690   4.479
50963W        W23388  43.763  17.155   3.298
50964W        W23389  39.414   9.286   4.570
50965W        W23390   2.311  26.637  14.358
50966W        W23391  27.478  41.290  11.665
50967W        W23392  32.045  39.538   1.965
50968W        W23393  22.340  41.361   2.722
50969W        W23394   2.747  42.351   1.652
50970W        W23395  17.092  27.171   1.321
50971W        W23396   1.684  12.177  13.195
50972W        W23397  36.443  35.134   3.491
50973W        W23398  19.520  37.227   2.722
50974W        W23399  22.647  27.766   4.972
50975W        W23400   5.887  27.281   2.193
50976W        W23401  23.649  31.634   4.288
50977W        W23402   3.265  27.680   3.518
50978W        W23403   0.137  15.037  11.907
50979W        W23404  25.656  26.508   1.190
50980W        W23405  42.858  37.362   1.980
50981W        W23406  42.015  19.631   1.693
50982W        W23407  34.875   7.746  11.902
50983W        W23408  27.213  11.084   0.855
50984W        W23409  14.327  36.765  11.211
50985W        W23410   7.296  28.516  13.502
50986W        W23411  22.260   1.976   1.864
50987W        W23412  29.993   9.221   1.012
50988W        W23413  14.069  20.483  13.537
50989W        W23414  25.695  14.138  14.096
50990W        W23415  20.800  30.613  10.691
50991W        W23416   3.487  17.119   4.150
50992W        W23417  41.392  24.983  12.571
50993W        W23418  25.422  23.003  14.036
50994W        W23419  27.126  37.429   4.311
50995W        W23420  28.714  13.095   3.862
50996W        W23421   4.344   6.191   2.679
50997W        W23422  19.832  36.843   1.117
50998W        W23423  44.264  18.535  11.608
50999W        W23424   3.779  36.462   4.273
51000W        W23425   0.262  36.999  11.597
51001W        W23426  36.079   4.971   0.709
51002W        W23427   3.858   6.974   2.867
51003W        W23428  15.098   7.615   1.838
51004W        W23429  30.696  29.597  13.803
51005W        W23430  31.533  44.779  11.993
51006W        W23431   7.755  32.589   2.788
51007W        W23432   8.598  13.722   0.919
51008W        W23433   7.709   1.191  11.647
51009W        W23434  29.407  42.462   4.851
51010W        W23435  17.959  20.855  12.492
51011W        W23436  11.289  27.665  13.264
51012W        W23437   9.112  19.126   0.061
51013W        W23438  28.643  11.614   1.151
51014W        W23439  43.186  14.264   2.701
51015W        W23440  23.628  39.188   1.399
51016W        W23441  27.382  43.242  12.474
51017W        W23442  22.540  31.917   5.111
51018W        W23443   0.911  21.523   0.927
51019W        W23444  42.252  43.412   1.399
51020W        W23445  17.050  33.198   0.569
51021W        W23446  21.148  24.607  12.417
51022W        W23447   5.324  12.241  13.291
51023W        W23448  25.884  20.761   1.281
51024W        W23449  17.068  10.307   2.292
51025W        W23450  40.977   4.408  10.666
51026W        W23451  23.769  36.490   4.663
51027W        W23452  27.599   7.418   0.144
51028W        W23453   3.501   3.921   1.758
51029W        W23454  40.798   4.242  13.912
51030W        W23455  12.893  43.112  13.942
51031W        W23456  31.076  32.096  14.674
51032W        W23457   8.859  27.628   2.121
51033W        W23458  33.449  14.719  12.944
51034W        W23459  20.137   9.315   2.416
51035W        W23460   1.450  13.179  14.698
51036W        W23461   5.384  17.999  10.738
51037W        W23462  44.011  40.471  11.164
51038W        W23463  37.825  19.026   2.398
51039W        W23464   9.198   9.129   4.207
51040W        W23465  39.527  15.776  14.734
51041W        W23466  36.410   5.249  12.673
51042W        W23467   9.241  14.260  13.564
51043W        W23468  38.099  17.613  10.647
51044W        W23469  30.153   2.847   1.808
51045W        W23470  43.445  31.382   2.225
51046W        W23471  36.088   1.557  12.599
51047W        W23472  30.612  27.425   2.633
51048W        W23473   5.754  35.187   3.895
51049W        W23474   2.451  33.344   1.901
51050W        W23475  18.782  27.487   1.879
51051W        W23476   8.551  15.279  12.364
51052W        W23477  17.963  31.095   2.333
51053W        W23478   1.556  36.915  11.651
51054W        W23479  26.954  36.913   2.514
51055W        W23480  30.018   3.391   3.349
51056W        W23481  39.273  43.068  11.345
51057W        W23482   7.264   6.888  10.265
51058W        W23483   2.174  21.119  12.111
51059W        W23484   9.343  28.521   2.009
51060W        W23485  17.049  22.044  12.338
51061W        W23486  34.462  34.721   0.814
51062W        W23487   9.766  11.727   3.282
51063W        W23488  31.532  32.176   0.384
51064W        W23489  33.493   8.347  11.096
51065W        W23490   3.139  36.715   0.865
51066W        W23491  26.192   6.749  14.832
51067W        W23492  38.897  29.886  11.660
51068W        W23493  42.076  37.064  12.923
51069W        W23494  33.006  19.470   3.758
51070W        W23495   1.677  34.420  12.000
51071W        W23496   0.947  21.011   0.912
51072W        W23497  10.489  13.914  10.213
51073W        W23498  32.718  35.133   0.459
51074W        W23499  42.494  17.657   4.829
51075W        W23500  14.650  41.557   3.594
51076W        W23501  35.850  10.438   0.317
51077W        W23502  19.558  18.201  13.864
51078W        W23503  34.699  42.824   4.063
51079W        W23504  11.254  42.629   0.289
51080W        W23505  36.060  16.746  14.824
51081W        W23506  35.440  24.280  13.529
51082W        W23507  25.054  20.831   2.382
51083W        W23508  43.406   1.447  10.824
51084W        W23509  44.057  20.691  13.955
51085W        W23510   8.477  28.464   2.360
51086W        W23511  26.287  34.939  12.571
51087W        W23512   5.662  14.267   2.929
51088W        W23513  40.371  34.053   0.915
51089W        W23514  30.192   7.423   4.874
51090W        W23515  13.514   9.452   0.898
51091W        W23516  10.754  23.010  13.300
51092W        W23517   1.437  23.268   2.771
51093W        W23518  38.877   0.795   3.212
51094W        W23519  41.390   0.310   3.964
51095W        W23520   6.980  21.702   0.795
51096W        W23521  26.069  33.906  13.850
51097W        W23522  21.489   8.264  14.417
51098W        W23523  21.537  24.528   0.294
51099W        W23524   6.399  29.206  12.845
51100W        W23525  41.276  11.283  11.630
51101W        W23526  27.722  39.883  12.847
51102W        W23527   9.671  11.257   0.024
51103W        W23528  42.827   8.246  11.669
51104W        W23529  22.247   5.418  13.392
51105W        W23530  16.254   2.027   0.279
51106W        W23531  30.877  44.979  13.936
51107W        W23532  42.468   2.930  13.492
51108W        W23533  37.118   7.452   0.957
51109W        W23534  41.028  36.593   0.417
51110W        W23535   1.362  15.415  11.526
51111W        W23536  12.619  22.068   1.868
51112W        W23537   7.281  28.197  13.048
51113W        W23538   4.640   3.039  14.974
51114W        W23539  27.180  19.990  11.215
51115W        W23540  28.490  34.426   2.225
51116W        W23541   1.321  29.672   1.833
51117W        W23542  31.887   6.328   4.707
51118W        W23543  32.937  18.000   4.256
51119W        W23544  16.098   6.155  13.751
51120W        W23545  28.555  24.510   1.930
51121W        W23546  34.940  35.668   3.670
51122W        W23547   1.149  27.897  14.427
51123W        W23548  41.551  30.948   2.860
51124W        W23549  36.002  30.091   4.063
51125W        W23550  35.571   3.830  14.001
51126W        W23551   6.473  36.375   2.203
51127W        W23552   6.815  24.485   4.288
51128W        W23553  19.644  19.762  11.392
51129W        W23554   5.906  13.363   2.457
51130W        W23555   1.092   3.247   3.637
51131W        W23556  27.167  44.898  12.895
51132W        W23557  20.482  22.170   1.246
51133W        W23558  22.114  25.670  13.537
51134W        W23559  29.933  26.097   4.837
51135W        W23560  13.074   2.856  13.503
51136W        W23561   6.261  14.825   3.395
51137W        W23562  21.083  24.952   1.430
51138W        W23563  38.610  11.640  13.832
51139W        W23564  35.629   9.801   2.131
51140W        W23565  30.404  15.921  14.036
51141W        W23566  25.136  39.943   1.478
51142W        W23567   1.995   3.306  13.191
51143W        W23568  42.049  11.533  13.239
51144W        W23569  35.070  24.628   2.267
51145W        W23570  44.445   5.501   3.612
51146W        W23571   3.937  35.898  13.485
51147W        W23572  11.223  17.858   4.671
51148W        W23573  40.185  38.016   1.287
51149W        W23574   6.832   0.778   0.214
51150W        W23575  13.863  41.374  11.488
51151W        W23576   8.606  39.896  11.982
51152W        W23577  11.380  17.479  11.141
51153W        W23578  37.508  25.179  14.003
51154W        W23579  20.131   0.921   3.071
51155W        W23580  15.857   3.228   1.227
51156W        W23581  22.410  34.922  10.116
51157W        W23582  33.214   1.424  14.960
51158W        W23583  17.786  32.784   9.731
51159W        W23584  41.881  20.802   0.325
51160W        W23585   9.145  11.379   1.891
51161W        W23586  25.143   8.979   0.914
51162W        W23587  38.278   1.524   3.493
51163W        W23588  39.873   0.321   3.639
51164W        W23589  26.576  13.324  11.484
51165W        W23590   7.366  35.449  10.712
51166W        W23591  23.127  41.359   3.300
51167W        W23592  34.094  34.738  10.671
51168W        W23593   4.676  24.436   0.480
51169W        W23594   7.197  19.589  10.410
51170W        W23595   0.460  38.019   2.205
51171W        W23596   1.676  28.586  12.931
51172W        W23597  12.835  36.486  14.438
51173W        W23598  12.257  31.508  14.311
51174W        W23599  13.765  23.144  14.642
51175W        W23600  32.376  29.449  13.586
51176W        W23601  37.452  12.241   4.694
51177W        W23602  17.313  21.580   1.254
51178W        W23603  10.880  16.621   1.784
51179W        W23604  13.036  44.357  11.541
51180W        W23605  26.588   0.953   1.487
51181W        W23606   0.977  30.063  14.988
51182W        W23607   0.227  34.262   1.196
51183W        W23608  17.617  33.606  13.222
51184W        W23609  12.770   8.348  12.475
51185W        W23610   2.931  19.030   0.793
51186W        W23611  16.734   9.619   2.228
51187W        W23612   1.764  23.128   4.290
51188W        W23613  30.251  41.274   1.397
51189W        W23614  15.048  37.441  12.573
51190W        W23615  26.064  42.839   0.651
51191W        W23616   4.969  31.209   2.296
51192W        W23617   4.937  44.705  11.686
51193W        W23618   9.365  13.809   0.252
51194W        W23619  23.758  16.723   2.946
51195W        W23620  21.842  20.070  14.344
51196W        W23621  16.799  33.365   2.268
51197W        W23622   8.933  33.327   4.627
51198W        W23623  31.927  18.778   4.673
51199W        W23624  20.976   2.068   4.254
51200W        W23625  40.556   5.937  11.213
51201W        W23626  36.044  15.032   2.141
51202W        W23627  25.812   3.869  12.113
51203W        W23628   6.192  17.155  12.959
51204W        W23629   2.381   1.966   4.936
51205W        W23630  39.288  20.609  13.974
51206W        W23631  38.034  36.624   0.340
51207W        W23632  41.956  18.568   3.741
51208W        W23633  29.104  30.904   3.804
51209W        W23634  37.849  27.264   3.860
51210W        W23635  29.934  21.250   0.799
51211W        W23636  16.790   0.535  10.220
51212W        W23637  14.975  25.055  14.798
51213W        W23638  32.536  14.679  11.532
51214W        W23639   7.816  14.861   1.684
51215W        W23640  12.331  22.438  10.797
51216W        W23641  21.269  24.204  13.678
51217W        W23642   4.962  42.239   3.187
51218W        W23643  34.620  39.432  14.363
51219W        W23644  35.020  25.457  11.249
51220W        W23645  16.233   9.345   0.962
51221W        W23646  38.336  40.821   0.204
51222W        W23647  11.809  16.062   1.550
51223W        W23648  12.271  44.407   0.777
51224W        W23649  15.641  41.847   4.412
51225W        W23650   8.801  35.188   3.174
51226W        W23651  33.688  30.934  12.573
51227W        W23652  25.430   6.930  13.870
51228W        W23653  10.730  34.104   2.359
51229W        W23654  38.893  37.869  13.583
51230W        W23655  44.168  34.898  12.889
51231W        W23656  18.381  43.910  12.531
51232W        W23657  44.302  19.017  13.448
51233W        W23658  19.165   4.084  11.656
51234W        W23659  37.881  26.735  11.758
51235W        W23660  39.165  31.247   0.350
51236W        W23661  11.822  22.612  12.966
51237W        W23662  36.478  14.111  11.095
51238W        W23663  28.627   1.265   3.598
51239W        W23664  16.887   7.753   2.904
51240W        W23665   7.349   0.824  11.718
51241W        W23666  12.831  30.562  12.076
51242W        W23667  42.883  30.185   1.894
51243W        W23668  38.361  33.145   2.281
51244W        W23669  23.994   8.545  14.282
51245W        W23670  27.673   8.117   2.155
51246W        W23671   0.722  24.579   3.560
51247W        W23672  11.777  21.661  11.087
51248W        W23673  22.072  18.201  12.464
51249W        W23674  40.578   5.341   1.889
51250W        W23675  28.185  17.723   1.222
51251W        W23676  25.186  25.580   1.905
51252W        W23677  13.606  17.082   1.877
51253W        W23678  44.930  38.373   0.739
51254W        W23679   8.189  44.462  13.126
51255W        W23680   7.078  42.868   1.257
51256W        W23681  38.967   1.622   0.221
51257W        W23682  20.873  21.100   5.174
51258W        W23683  31.981   9.975  13.095
51259W        W23684  30.193   5.754   2.427
51260W        W23685  42.877  41.315  12.407
51261W        W23686   3.429  26.172   3.256
51262W        W23687  41.200   8.882   4.658
51263W        W23688  12.884   9.046   0.397
51264W        W23689  21.577  36.292   1.294
51265W        W23690  23.769  12.613  14.850
51266W        W23691   0.366  39.893   1.771
51267W        W23692  44.761  31.865  14.642
51268W        W23693  44.538   2.487  12.400
51269W        W23694  36.007  25.776   5.302
51270W        W23695   5.790  21.059   0.851
51271W        W23696  23.925  12.774  10.418
51272W        W23697  44.533  40.511   4.967
51273W        W23698  14.831  19.229  11.968
51274W        W23699  24.755  43.917   0.688
51275W        W23700  28.998  38.114  10.695
51276W        W23701  23.876  22.639   4.241
51277W        W23702  14.008  23.519  11.980
51278W        W23703  33.523  13.299  10.695
51279W        W23704  16.739  40.336   3.215
51280W        W23705  34.236  11.327   0.365
51281W        W23706  13.221  23.434  13.523
51282W        W23707   3.840  21.851  12.469
51283W        W23708  43.801  16.624  11.896
51284W        W23709  44.769  19.354  11.029
51285W        W23710   7.437  30.530   3.214
51286W        W23711  38.585  17.276   2.460
51287W        W23712  32.184   9.453  14.881
51288W        W23713  17.977   3.749   4.591
51289W        W23714  35.523   6.400   4.376
51290W        W23715  43.692  16.708  12.984
51291W        W23716  25.390  34.231   2.395
51292W        W23717  14.562   9.866   3.619
51293W        W23718  26.789  41.522   1.476
51294W        W23719  32.492  36.078   1.888
51295W        W23720  21.639  13.330   0.340
51296W        W23721   0.878  16.560  14.242
51297W        W23722  22.640  14.070   1.699
51298W        W23723  41.856  26.439  14.183
51299W        W23724  31.354  15.272  11.031
51300W        W23725  12.309  33.760   3.954
51301W        W23726  23.198  28.429  11.415
51302W        W23727  44.812  30.212  11.521
51303W        W23728  12.697   8.471   2.352
51304W        W23729  28.685  36.700   2.249
51305W        W23730   2.722   9.286  14.905
51306W        W23731  32.015  25.516   4.584
51307W        W23732  15.708  27.073   0.994
51308W        W23733  26.151  24.545  10.762
51309W        W23734  36.004   5.915  11.113
51310W        W23735  15.726  37.087  10.727
51311W        W23736  31.331  37.315   1.914
51312W        W23737  41.938  18.230  14.586
51313W        W23738  23.779  28.475   3.611
51314W        W23739  15.052  39.994   1.482
51315W        W23740  38.958   7.684  12.591
51316W        W23741   8.859  33.460  11.547
51317W        W23742  42.729  19.168   2.662
51318W        W23743  16.784   6.860   0.310
51319W        W23744  10.297  27.591  12.044
51320W        W23745   8.658  24.546  13.988
51321W        W23746  40.537  37.545  12.522
51322W        W23747   4.658  39.888   4.470
51323W        W23748   6.374  13.046  14.928
51324W        W23749  25.256  30.304   0.777
51325W        W23750   1.441  44.316   2.399
51326W        W23751  19.294   2.261  11.634
51327W        W23752  13.884  31.616  11.308
51328W        W23753   4.500  33.460   3.214
51329W        W23754   9.961  28.641  11.089
51330W        W23755  32.386   9.056  10.494
51331W        W23756  44.232  16.329   2.239
51332W        W23757  24.088  40.622   1.847
51333W        W23758  39.115  39.379   1.623
51334W        W23759  42.352  35.809  11.010
51335W        W23760  26.791  32.759  14.914
51336W        W23761  21.210  20.461  11.227
51337W        W23762  11.404  22.123   2.830
51338W        W23763  33.949   9.820  10.474
51339W        W23764  41.254  25.617   0.964
51340W        W23765  40.850  16.428  11.615
51341W        W23766  32.430  20.252  10.954
51342W        W23767   1.457   0.334  10.607
51343W        W23768  25.795   5.286  11.105
51344W        W23769  33.474  38.390  12.961
51345W        W23770  25.597   2.470   0.786
51346W        W23771   8.648  38.056  14.653
51347W        W23772   9.717   3.039  10.555
51348W        W23773   0.379  23.179   1.695
51349W        W23774  23.446  33.910   4.140
51350W        W23775   7.351   0.395   2.633
51351W        W23776  16.305  19.671  13.372
51352W        W23777   7.641   4.257  13.666
51353W        W23778  28.918  36.613  11.602
51354W        W23779  18.203  44.796  14.881
51355W        W23780  26.716  15.128   3.726
51356W        W23781  19.636  37.850  12.553
51357W        W23782  28.488   0.070   0.222
51358W        W23783  43.748  15.761  11.152
51359W        W23784  43.430  42.600   3.713
51360W        W23785  17.568  36.496  11.561
51361W        W23786  20.224  15.971  11.236
51362W        W23787  38.156  40.304  10.618
51363W        W23788  26.824  16.842   3.247
51364W        W23789  21.604  12.880  11.115
51365W        W23790  23.207  12.145  12.082
51366W        W23791  17.184  13.037   0.393
51367W        W23792   1.029  10.676   0.412
51368W        W23793   1.772   7.150  12.556
51369W        W23794  16.504  20.234   0.200
51370W        W23795  26.772  32.481   2.836
51371W        W23796  14.154  28.342   4.192
51372W        W23797  20.554  36.415  11.530
51373W        W23798  37.183   1.839   0.933
51374W        W23799  35.659  28.660   1.972
51375W        W23800  35.912   0.501  11.654
51376W        W23801  38.909  24.038   3.330
51377W        W23802  28.439  16.664  14.384
51378W        W23803  12.134  40.564   4.750
51379W        W23804   1.047  31.885  12.348
51380W        W23805  36.966  23.089  12.406
51381W        W23806  42.334  10.042  11.451
51382W        W23807  11.590  16.555  10.697
51383W        W23808   1.998   1.391  13.397
51384W        W23809  30.721  10.061   3.755
51385W        W23810  41.463  30.851   4.618
51386W        W23811  37.105  22.566  10.186
51387W        W23812   0.294  44.531  14.799
51388W        W23813  13.761   6.186   0.849
51389W        W23814  26.192  24.662   1.840
51390W        W23815  12.878  31.450  11.970
51391W        W23816   4.248  25.876   1.103
51392W        W23817  34.134  10.833   3.324
51393W        W23818   0.365  13.549   0.717
51394W        W23819  13.272  35.813  13.762
51395W        W23820  21.037  31.761   0.886
51396W        W23821  22.435  21.996   4.086
51397W        W23822  16.394  28.377   4.842
51398W        W23823  10.759  17.772  14.779
51399W        W23824   7.940  44.166  11.080
51400W        W23825  12.524  37.953   2.261
51401W        W23826  31.424  22.268   3.684
51402W        W23827  18.734  25.672   4.091
51403W        W23828  42.401  17.812   2.839
51404W        W23829  42.729  37.961   1.761
51405W        W23830  25.096  42.515  14.361
51406W        W23831  40.021   1.774   1.187
51407W        W23832  25.024  27.565   1.020
51408W        W23833  29.885  43.088   1.419
51409W        W23834  43.327  16.601   1.430
51410W        W23835  36.497   8.031   3.601
51411W        W23836  15.124  22.782  12.144
51412W        W23837  31.945  30.593   3.663
51413W        W23838  15.283   8.711  13.518
51414W        W23839  14.744   9.455   1.971
51415W        W23840  35.159  12.679   2.442
51416W        W23841  20.293  20.664   1.304
51417W        W23842  40.817  21.585   1.975
51418W        W23843  38.442  19.186  14.462
51419W        W23844  37.296  10.650   4.515
51420W        W23845  18.120  10.353   1.170
51421W        W23846  31.060  19.269   4.645
51422W        W23847  36.818  23.725   0.769
51423W        W23848  18.963  44.993   3.678
51424W        W23849  24.067  29.537   4.550
51425W        W23850  24.614  31.309   0.518
51426W        W23851  16.576  13.481   1.755
51427W        W23852   8.745  16.265  12.005
51428W        W23853  13.915  39.361  14.254
51429W        W23854  31.108   5.043   0.005
51430W        W23855  34.430  18.200  11.562
51431W        W23856  17.144  26.008   0.964
51432W        W23857  27.659   0.162  10.635
51433W        W23858   1.761  31.762  11.747
51434W        W23859   6.698  36.341  14.342
51435W        W23860  39.449  30.819   1.725
51436W        W23861  13.650  27.337   3.658
51437W        W23862  34.929  19.152   1.906
51438W        W23863  42.312  29.893   1.509
51439W        W23864  26.594  27.393  14.892
51440W        W23865  11.263  38.947   1.754
51441W        W23866  21.180   7.730  10.408
51442W        W23867  39.461  38.012   4.705
51443W        W23868  31.336  43.978   2.888
51444W        W23869   0.961  15.190   2.768
51445W        W23870  24.027  29.178   2.888
51446W        W23871  36.594  24.654  11.838
51447W        W23872   1.881   2.481   3.419
51448W        W23873  28.368  33.526  13.866
51449W        W23874  28.369   3.929   3.055
51450W        W23875  17.515  20.003   0.420
51451W        W23876  14.629  32.833  12.080
51452W        W23877  26.842  37.885   1.844
51453W        W23878  15.744  35.396   4.505
51454W        W23879   5.247  40.095   1.014
51455W        W23880  18.042  39.582  12.349
51456W        W23881  35.649  31.455  12.991
51457W        W23882   9.213  36.459   0.433
51458W        W23883  37.588  19.649  12.062
51459W        W23884  37.366  36.099   1.326
51460W        W23885   2.898  14.188   3.091
51461W        W23886  27.643  42.297  12.395
51462W        W23887  36.897  43.341   4.195
51463W        W23888  10.235  39.941  11.237
51464W        W23889  34.360   6.723  13.530
51465W        W23890  23.977  35.893   0.561
51466W        W23891   1.280  34.515  12.336
51467W        W23892  13.902   8.210  14.274
51468W        W23893  30.093   8.695  10.806
51469W        W23894  30.709  44.748  14.386
51470W        W23895  28.636  23.530   3.371
51471W        W23896  20.199  44.449  13.865
51472W        W23897  14.568   0.724  11.561
51473W        W23898   1.178   7.307   3.191
51474W        W23899  39.766  28.446  12.512
51475W        W23900  38.830  41.367  12.133
51476W        W23901  30.885  44.785  11.511
51477W        W23902  36.287  10.699  13.133
51478W        W23903  28.427  15.284   1.741
51479W        W23904  31.696  34.197   2.469
51480W        W23905  32.329   5.804   2.485
51481W        W23906   2.266  17.715   2.691
51482W        W23907  31.636  39.056   4.119
51483W        W23908  41.400  16.752  10.653
51484W        W23909  15.517   9.833   0.797
51485W        W23910  41.822  12.288  11.375
51486W        W23911   9.250  13.550  13.735
51487W        W23912   1.497  35.165  11.527
51488W        W23913  34.247  30.953   2.323
51489W        W23914  31.129  32.628  12.200
51490W        W23915  20.425   9.439   1.445
51491W        W23916   1.916   7.479  10.842
51492W        W23917  19.960  13.768   0.426
51493W        W23918   2.621   8.510   9.941
51494W        W23919   6.403  14.726   4.774
51495W        W23920  10.824   7.205  13.488
51496W        W23921  39.624  14.110   0.914
51497W        W23922  15.585   9.722   2.751
51498W        W23923  44.794  15.097  13.493
51499W        W23924  17.789  30.914   1.863
51500W        W23925  22.241  26.995  14.694
51501W        W23926  13.631   0.528  12.970
51502W        W23927  40.471  32.579  10.631
51503W        W23928  23.463   9.923  13.848
51504W        W23929  44.965   4.973   2.928
51505W        W23930   2.628  43.413  13.346
51506W        W23931  16.355  43.504  11.678
51507W        W23932  34.473  12.034   4.638
51508W        W23933  42.915  29.317  12.565
51509W        W23934   6.795  22.604   4.524
51510W        W23935   3.521  30.393   1.676
51511W        W23936  22.062  34.103  11.108
51512W        W23937   3.963  33.173  13.857
51513W        W23938  15.140  11.018   3.913
51514W        W23939  36.163   4.777  11.842
51515W        W23940  24.904  19.543  11.354
51516W        W23941  35.092  32.497   0.875
51517W        W23942  41.851  38.863  12.515
51518W        W23943  33.433  28.162   1.714
51519W        W23944  32.001   9.425   3.630
51520W        W23945  30.710   6.351   0.864
51521W        W23946  21.724  36.483  12.634
51522W        W23947  31.055  31.358   1.431
51523W        W23948   7.950  17.131   3.730
51524W        W23949  37.293  43.554   3.134
51525W        W23950   8.663  15.315  13.870
51526W        W23951  34.580  23.525   2.787
51527W        W23952  30.664  41.784   3.628
51528W        W23953  10.276   6.495   0.561
51529W        W23954  24.293  42.881   4.651
51530W        W23955  30.605  39.126   3.942
51531W        W23956  10.188  19.774   2.428
51532W        W23957  32.524   7.127   3.947
51533W        W23958  27.674  36.501  12.135
51534W        W23959   6.964  44.333   0.999
51535W        W23960  39.015  43.334  13.956
51536W        W23961  33.102   4.726  12.969
51537W        W23962  16.518  39.918  11.087
51538W        W23963  17.585  24.758   3.234
51539W        W23964  43.089  12.425  10.530
51540W        W23965  22.582  31.896   0.865
51541W        W23966   8.400  33.614  11.325
51542W        W23967  29.492   7.436  10.103
51543W        W23968   7.225   1.762   4.185
51544W        W23969  24.026   2.823  12.496
51545W        W23970   8.151  36.496   0.362
51546W        W23971  13.667  29.828   2.563
51547W        W23972  32.450  27.677  14.813
51548W        W23973  37.899   3.426  12.351
51549W        W23974   6.360   2.673   0.193
51550W        W23975  26.889  32.596  11.229
51551W        W23976  20.549  29.100   3.363
51552W        W23977  16.753  23.737  11.069
51553W        W23978  35.146  36.936  10.698
51554W        W23979  39.864  36.403  11.885
51555W        W23980  38.780  20.181  13.518
51556W        W23981   7.211  22.476  14.774
51557W        W23982  11.227  21.607  12.478
51558W        W23983  32.177  18.789  13.617
51559W        W23984  31.373  39.819  11.051
51560W        W23985   8.666  37.484  13.936
51561W        W23986  40.603  27.319  12.414
51562W        W23987  21.001  11.111  11.547
51563W        W23988   1.226  25.176   2.812
51564W        W23989  11.197  20.172  11.322
51565W        W23990  24.475  34.417   0.482
51566W        W23991  23.485  19.133   4.140
51567W        W23992   1.390  23.223  14.445
51568W        W23993  37.577  37.629   2.269
51569W        W23994  18.611  29.664   5.428
51570W        W23995  39.003  13.335  12.999
51571W        W23996   9.702  23.314  14.987
51572W        W23997  39.504   9.708   4.088
51573W        W23998  24.787  19.318  13.126
51574W        W23999  36.500  30.604  13.206
51575W        W24000  26.540  37.024   3.186
51576W        W24001   2.274  39.049  12.684
51577W        W24002  13.084  10.838   3.231
51578W        W24003  40.608  16.194  12.427
51579W        W24004  27.579   9.882   1.620
51580W        W24005  24.879  26.572  12.994
51581W        W24006  40.424  14.821  12.309
51582W        W24007  17.708  38.962   4.044
51583W        W24008  17.830  44.482  12.601
51584W        W24009  11.789  39.855  11.174
51585W        W24010  16.565  23.942   2.174
51586W        W24011   2.292  23.328  14.726
51587W        W24012  18.675   9.678  12.342
51588W        W24013  17.514   1.127   1.342
51589W        W24014  27.673   4.192   2.747
51590W        W24015   8.829   3.707  11.547
51591W        W24016  37.021  23.808   0.284
51592W        W24017   4.718  15.774  12.019
51593W        W24018  38.191  41.633   0.401
51594W        W24019  23.736  38.880   2.250
51595W        W24020  21.087  22.680   4.038
51596W        W24021   1.277  18.589  11.669
51597W        W24022  42.199  14.084  11.983
51598W        W24023  23.843  17.765   2.899
51599W        W24024  30.254  18.704  12.957
51600W        W24025  12.688  25.988   2.478
51601W        W24026  42.387  12.355  12.577
51602W        W24027  35.287  16.050  11.857
51603W        W24028  29.905   1.692   0.783
51604W        W24029  15.955  39.888   2.874
51605W        W24030   2.340  36.309   2.561
51606W        W24031  23.567  40.764  12.506
51607W        W24032  20.143   1.484  10.621
51608W        W24033  39.016   5.870   0.338
51609W        W24034  27.967  15.642  14.001
51610W        W24035   4.260  34.165  14.692
51611W        W24036  43.328  17.560  10.767
51612W        W24037  39.800  13.858   0.483
51613W        W24038   9.223  17.295   2.514
51614W        W24039  13.708  14.397   0.476
51615W        W24040  30.408   3.298   1.780
51616W        W24041  23.501  30.318   1.622
51617W        W24042  34.375  29.507   4.678
51618W        W24043  18.171  11.786   3.525
51619W        W24044  21.786  15.666  12.160
51620W        W24045   6.002   9.829  14.269
51621W        W24046  22.083  23.674  14.312
51622W        W24047   2.719  37.206   4.435
51623W        W24048  13.430  44.499  14.317
51624W        W24049  24.568  22.056  14.187
51625W        W24050  27.083  25.582  14.876
51626W        W24051  33.519  22.149  13.329
51627W        W24052  37.164  20.792  13.134
51628W        W24053  25.206  12.705  11.101
51629W        W24054   8.658  21.581  11.235
51630W        W24055  27.513  12.404   4.308
51631W        W24056  10.177  12.759  14.804
51632W        W24057  14.631  43.895  11.967
51633W        W24058  11.821  27.557  13.964
51634W        W24059  38.412  28.577   4.307
51635W        W24060  33.443  21.181  10.072
51636W        W24061  17.769  44.763   1.682
51637W        W24062  35.421   4.501  13.394
51638W        W24063  41.884  20.709  14.399
51639W        W24064   7.331   8.791   3.806
51640W        W24065   6.368   3.799  11.176
51641W        W24066  24.473   0.817   1.237
51642W        W24067  18.309  23.911   2.753
51643W        W24068  14.715   5.150  12.543
51644W        W24069  41.186  13.893   0.331
51645W        W24070  25.279   5.445   4.269
51646W        W24071  33.510   2.774  13.444
51647W        W24072  11.666  33.143  11.904
51648W        W24073  20.637  33.957  13.324
51649W        W24074  22.868  31.137   0.225
51650W        W24075  16.382  14.725  11.174
51651W        W24076   3.514   5.380  10.753
51652W        W24077  39.846  41.496  13.483
51653W        W24078   8.133   0.790  13.371
51654W        W24079   7.222  27.659  12.792
51655W        W24080  32.089  34.602   4.610
51656W        W24081  11.127  43.572   4.113
51657W        W24082  24.738  36.321  13.765
51658W        W24083  36.598  28.499  14.462
51659W        W24084  39.096  38.941   3.169
51660W        W24085   3.942  17.484  12.435
51661W        W24086  27.283   7.476   1.072
51662W        W24087  37.345   1.443   3.161
51663W        W24088  36.913  19.063   2.711
51664W        W24089  39.549   5.941  12.968
51665W        W24090  10.946   6.345  11.899
51666W        W24091   4.702   0.139   1.088
51667W        W24092   4.870  13.195   4.172
51668W        W24093   1.312  17.902   2.340
51669W        W24094  30.703  17.369  10.207
51670W        W24095  41.120   6.074   1.881
51671W        W24096  13.078  25.978  12.792
51672W        W24097  29.616   9.309   0.682
51673W        W24098  12.545  30.567  10.631
51674W        W24099  36.674   9.555   2.274
51675W        W24100  12.839   3.611   4.242
51676W        W24101  30.704   7.592  12.399
51677W        W24102  42.234  26.331  12.955
51678W        W24103  18.567   0.211  13.366
51679W        W24104   8.240  39.992   2.719
51680W        W24105  19.043  25.017  12.949
51681W        W24106   4.175  15.789  14.422
51682W        W24107  14.338  37.904  13.090
51683W        W24108   3.728  14.854  13.430
51684W        W24109  18.162  12.420   1.746
51685W        W24110  30.870  22.220   0.544
51686W        W24111  12.050  21.147  14.508
51687W        W24112  19.875  32.099   2.169
51688W        W24113  31.480  10.909   4.891
51689W        W24114  23.069  16.041  10.384
51690W        W24115  27.891  29.672   3.738
51691W        W24116  19.360  21.628  13.535
51692W        W24117  22.007   4.027   0.173
51693W        W24118  24.710  40.872   2.943
51694W        W24119   4.427  19.302   1.766
51695W        W24120  31.392  25.046   1.410
51696W        W24121  16.326   3.266   1.451
51697W        W24122  40.074  30.991   2.745
51698W        W24123  22.303  21.278   1.380
51699W        W24124   9.233  36.362   1.494
51700W        W24125  32.795  29.069   0.857
51701W        W24126  36.479  21.191   0.741
51702W        W24127  19.210  34.051  11.935
51703W        W24128   6.924   5.638   4.330
51704W        W24129  41.983   1.501   4.896
51705W        W24130  24.791  37.970   2.877
51706W        W24131   9.329   7.359   2.722
51707W        W24132  41.246  44.890   5.141
51708W        W24133  41.630  12.779   5.071
51709W        W24134  10.155  37.287  13.047
51710W        W24135   9.273   1.076   2.173
51711W        W24136  44.294   6.138  11.929
51712W        W24137   3.319  31.870   4.669
51713W        W24138  20.461  20.262  11.191
51714W        W24139  35.907  31.143   3.707
51715W        W24140  25.529  30.849   3.140
51716W        W24141   1.907  44.363   4.113
51717W        W24142  13.755  16.634   0.017
51718W        W24143  13.074  38.013  12.854
51719W        W24144   7.771   5.443  11.942
51720W        W24145  23.836  43.371   4.033
51721W        W24146   6.530  33.780   4.932
51722W        W24147  21.018  41.267  10.687
51723W        W24148  14.671  23.103  12.354
51724W        W24149  12.375  31.586   1.332
51725W        W24150   9.355   5.457   4.565
51726W        W24151  17.360  33.131  12.395
51727W        W24152  26.957  42.392   0.898
51728W        W24153   7.236  17.113  14.480
51729W        W24154  30.651  10.715   1.373
51730W        W24155   6.622  32.573  14.009
51731W        W24156  16.291  17.293  14.076
51732W        W24157  26.649  14.836   3.296
51733W        W24158  17.904  25.079   1.370
51734W        W24159  37.781  24.670  14.854
51735W        W24160  14.031  38.409  13.047
51736W        W24161   4.379  20.641   1.310
51737W        W24162  23.511  40.081   4.648
51738W        W24163  14.659   8.894  11.210
51739W        W24164  41.430  33.568   3.623
51740W        W24165  32.508   9.592  14.503
51741W        W24166  21.577  36.913   4.716
51742W        W24167  26.982   0.872  13.205
51743W        W24168  41.700  36.903   0.962
51744W        W24169   0.831  33.527   4.277
51745W        W24170  36.407  28.057   4.117
51746W        W24171  26.201  22.327   3.531
51747W        W24172   2.794  32.712   4.605
51748W        W24173   0.177  25.980   3.231
51749W        W24174  33.681   5.052   3.351
51750W        W24175  20.724  12.898   2.826
51751W        W24176  13.747  11.238  11.936
51752W        W24177  29.589   0.375  14.787
51753W        W24178  36.901  23.512  11.572
51754W        W24179  19.114  35.563  11.067
51755W        W24180  31.085   1.886   1.686
51756W        W24181  41.491  26.972   4.788
51757W        W24182  28.604   4.755  14.961
51758W        W24183  31.621  19.048  12.004
51759W        W24184  30.622  15.943  11.744
51760W        W24185  33.636  32.939  14.398
51761W        W24186  28.693  19.370   2.193
51762W        W24187  39.559  19.114  13.068
51763W        W24188  34.596  35.929  10.620
51764W        W24189   3.765  41.003  11.211
51765W        W24190  23.672  22.123  11.940
51766W        W24191   5.699  36.162   9.596
51767W        W24192  19.268  36.072  14.319
51768W        W24193  34.962   6.902  14.882
51769W        W24194  15.408  24.782   2.233
51770W        W24195  36.557   3.790  12.384
51771W        W24196  44.691  18.094   0.862
51772W        W24197  22.144  43.173  11.798
51773W        W24198  13.191   1.757  13.413
51774W        W24199  34.588   9.874   0.365
51775W        W24200   8.248  34.551  12.441
51776W        W24201  20.914   5.429   1.976
51777W        W24202  12.492  40.829   3.623
51778W        W24203  42.534  25.542   4.049
51779W        W24204   3.919  31.917   4.684
51780W        W24205  18.244   2.520   4.506
51781W        W24206  25.345  29.597   4.615
51782W        W24207  12.713  34.649  13.845
51783W        W24208  28.605  23.635   0.815
51784W        W24209  32.075  22.074  10.686
51785W        W24210  11.567   1.348   3.519
51786W        W24211  29.040  37.021  13.438
51787W        W24212   8.869  36.678  10.653
51788W        W24213  21.675  17.364  12.936
51789W        W24214  36.076  37.962   3.097
51790W        W24215  39.757  32.562  12.446
51791W        W24216  41.053  43.149   1.795
51792W        W24217  22.572  19.445   4.962
51793W        W24218  31.933  41.266  10.485
51794W        W24219   6.109  42.917   0.322
51795W        W24220   9.674  42.201   0.855
51796W        W24221  15.696  24.634   4.064
51797W        W24222   4.340   8.497   0.189
51798W        W24223  24.563  23.107  13.919
51799W        W24224  42.564  32.632   4.092
51800W        W24225   6.439  34.328  13.432
51801W        W24226  16.248  16.576   0.132
51802W        W24227  31.401  21.262  14.960
51803W        W24228  24.989  24.967   3.916
51804W        W24229  14.097  22.608  11.912
51805W        W24230  22.132  31.611   3.481
51806W        W24231  31.186  17.409   1.134
51807W        W24232  17.519  17.413  11.154
51808W        W24233  26.029  27.181  12.523
51809W        W24234   1.468   3.553   1.910
51810W        W24235  19.374  10.362  14.350
51811W        W24236  25.067  25.324   4.893
51812W        W24237   4.299  21.622  10.499
51813W        W24238  41.537   6.205  13.968
51814W        W24239   0.342  13.810   4.853
51815W        W24240  34.893  18.917  11.147
51816W        W24241  34.650  11.271  11.169
51817W        W24242  19.165  16.303  14.448
51818W        W24243  37.352  33.004  13.374
51819W        W24244  37.051   9.969  14.384
51820W        W24245  29.554  34.335   3.759
51821W        W24246  37.459  21.641   3.333
51822W        W24247   4.520   0.430   3.742
51823W        W24248  24.910   8.380   4.377
51824W        W24249  26.477   4.404   9.900
51825W        W24250  24.432  37.842   4.938
51826W        W24251  10.100  40.058  13.555
51827W        W24252  41.990  16.158  13.805
51828W        W24253   9.370  19.954   2.272
51829W        W24254  26.767   2.688   0.867
51830W        W24255  15.054   7.784  11.523
51831W        W24256  40.564   0.032   4.111
51832W        W24257   1.717  40.480   0.431
51833W        W24258  30.726  22.604  11.958
51834W        W24259  19.165  43.925   1.857
51835W        W24260  17.108  36.725   0.186
51836W        W24261   1.972  44.980   2.873
51837W        W24262  19.154   4.682   1.197
51838W        W24263   6.952  44.729  11.255
51839W        W24264  30.431  44.364  12.780
51840W        W24265  41.504  42.982   2.349
51841W        W24266  26.721  22.865  10.924
51842W        W24267  18.798   6.453  14.688
51843W        W24268  15.770  20.306   3.493
51844W        W24269  40.230  26.822   4.104
51845W        W24270  42.306  44.021   2.854
51846W        W24271  32.545  40.997  14.039
51847W        W24272  27.123   2.017  12.594
51848W        W24273  11.369  42.340  12.936
51849W        W24274  34.339  15.595   4.353
51850W        W24275  14.694  44.243   1.206
51851W        W24276   6.610  22.929   1.158
51852W        W24277  34.340  35.958  11.064
51853W        W24278  39.069  28.394  13.400
51854W        W24279  32.902  29.419   0.431
51855W        W24280  10.686  23.436  11.446
51856W        W24281  27.498  17.552  11.398
51857W        W24282  22.951   6.848   2.876
51858W        W24283   7.807  24.420   4.249
51859W        W24284  37.237  23.935   5.020
51860W        W24285  30.268   4.434  13.834
51861W        W24286  15.610  18.677   3.461
51862W        W24287  34.531   0.411  11.468
51863W        W24288  32.566  20.586   0.870
51864W        W24289  18.005  17.191   0.295
51865W        W24290  12.320  24.620   9.604
51866W        W24291  12.822  32.323  11.826
51867W        W24292  43.922  44.347  14.334
51868W        W24293  25.588  27.725   4.178
51869W        W24294  13.185  44.053   5.083
51870W        W24295  24.903  14.245  12.903
51871W        W24296  38.000  18.304  12.002
51872W        W24297  23.550  41.876   4.006
51873W        W24298  22.289  16.595  13.868
51874W        W24299   2.485  28.498   3.816
51875W        W24300  12.147  36.878   1.904
51876W        W24301   9.800   5.506  14.506
51877W        W24302  19.663  20.046  14.149
51878W        W24303  37.100   3.629  14.699
51879W        W24304  10.392  13.519   4.054
51880W        W24305  16.210  19.058   1.876
51881W        W24306  35.837  28.171  12.924
51882W        W24307   9.855  14.642   1.760
51883W        W24308  19.859   8.672   2.305
51884W        W24309  14.737   1.192  10.676
51885W        W24310  44.764  16.663  12.368
51886W        W24311  33.360   5.882   1.410
51887W        W24312  35.001  20.009  11.167
51888W        W24313  11.029   3.160   2.922
51889W        W24314   5.162  19.679   2.897
51890W        W24315  42.428  37.082   1.819
51891W        W24316  35.086   3.717  13.315
51892W        W24317   1.299  44.799   1.376
51893W        W24318   5.357  25.590  11.358
51894W        W24319  36.410  32.413  12.929
51895W        W24320  39.761  20.825  13.990
51896W        W24321  28.741  11.201   2.274
51897W        W24322   5.932   8.087  12.072
51898W        W24323  27.488   2.277  12.331
51899W        W24324  42.344   0.523   3.871
51900W        W24325   3.949  14.659   1.953
51901W        W24326   4.646  18.854  12.072
51902W        W24327  27.076  36.091   4.545
51903W        W24328  11.286  30.144  13.307
51904W        W24329  15.750  35.903  10.111
51905W        W24330  44.832   7.201  12.686
51906W        W24331  34.119  39.347  10.379
51907W        W24332  16.518   2.919   1.060
51908W        W24333   4.011  27.478  12.096
51909W        W24334  10.877  36.021  12.018
51910W        W24335  34.819  12.608   2.844
51911W        W24336  14.631   1.973  14.788
51912W        W24337  24.615   6.916  14.528
51913W        W24338  19.906  29.228   1.863
51914W        W24339  14.823  38.875   0.736
51915W        W24340  34.799  29.970   2.190
51916W        W24341  23.476  24.051   0.294
51917W        W24342  11.403  32.983   2.710
51918W        W24343  34.968  11.718   0.587
51919W        W24344  44.882  22.271   1.806
51920W        W24345   9.977  41.785   0.829
51921W        W24346  13.182  24.624   0.363
51922W        W24347  25.968  14.862   2.802
51923W        W24348  10.136  21.645  12.942
51924W        W24349  16.230   2.306  11.950
51925W        W24350   7.352  21.165  11.031
51926W        W24351  14.091  20.622   2.147
51927W        W24352   8.529  34.665   4.038
51928W        W24353  27.006   4.496   0.924
51929W        W24354  23.637  41.628  11.483
51930W        W24355  36.488   2.776  12.037
51931W        W24356  23.649  39.561  11.665
51932W        W24357  25.998  44.517   4.469
51933W        W24358  39.362  36.005   0.532
51934W        W24359   3.271  11.690  10.954
51935W        W24360  19.304  31.621   1.849
51936W        W24361  18.741  10.671   2.262
51937W        W24362   6.410  28.686  12.791
51938W        W24363   9.732  10.249  12.984
51939W        W24364  33.805  42.217   0.227
51940W        W24365  44.969   0.410  10.734
51941W        W24366   5.758  41.950   2.804
51942W        W24367  18.997  33.142  10.199
51943W        W24368  39.942   5.470  12.439
51944W        W24369  30.442   7.405   3.572
51945W        W24370  24.006  16.297  13.490
51946W        W24371  36.829   2.643   0.947
51947W        W24372  10.878   6.285  13.459
51948W        W24373  18.978  21.501   3.443
51949W        W24374  12.528  31.746  11.179
51950W        W24375  26.522  12.607  13.471
51951W        W24376  10.879  33.846  14.454
51952W        W24377  44.491  38.394  13.855
51953W        W24378  30.089  34.903   1.164
51954W        W24379  26.863  33.453   1.286
51955W        W24380  39.851  31.134   3.232
51956W        W24381  28.105  34.356  11.518
51957W        W24382  33.035  31.749   2.669
51958W        W24383  41.423   5.985   2.307
51959W        W24384  36.472  29.331  10.626
51960W        W24385   6.113  16.352   2.316
51961W        W24386  16.202   8.121   3.682
51962W        W24387   5.966  17.146  12.503
51963W        W24388  44.209  38.849  12.610
51964W        W24389  15.621  24.164  13.855
51965W        W24390  18.445  11.688   0.107
51966W        W24391   9.783   5.056   1.219
51967W        W24392   1.823  38.971  12.447
51968W        W24393  16.788   1.209  14.330
51969W        W24394  20.815  43.235  12.070
51970W        W24395  13.115   6.895  10.937
51971W        W24396  18.102  25.717  11.657
51972W        W24397  12.116  16.015  14.791
51973W        W24398  37.544   7.352   9.806
51974W        W24399   7.386  12.033   4.124
51975W        W24400  25.011   8.160  14.947
51976W        W24401  30.421  43.254   1.200
51977W        W24402  15.142  28.875  11.166
51978W        W24403  23.625  10.806  12.537
51979W        W24404  43.108  25.775  13.829
51980W        W24405   3.266  11.174   0.691
51981W        W24406  18.728   7.176   5.092
51982W        W24407  14.163  17.609  13.812
51983W        W24408  42.496  13.332   0.929
51984W        W24409  10.200  26.395  14.939
51985W        W24410  43.051  34.559  14.490
51986W        W24411  12.829   1.216   5.072
51987W        W24412  41.621  34.881   2.900
51988W        W24413  38.587  43.673  13.833
51989W        W24414  34.002  37.289  13.516
51990W        W24415  29.548  38.430   1.300
51991W        W24416  44.541   2.444   0.069
51992W        W24417  42.890  39.546   3.100
51993W        W24418  13.182  18.821   2.799
51994W        W24419  29.450  29.959  10.022
51995W        W24420  42.153  29.585   0.320
51996W        W24421  37.488  21.556   4.364
51997W        W24422  16.618   5.237  11.798
51998W        W24423   0.899  22.671   2.751
51999W        W24424  26.524  42.534  10.758
52000W        W24425  36.948  26.706   1.718
52001W        W24426  24.039   9.906   0.354
52002W        W24427  13.871  16.747   4.838
52003W        W24428  26.149  26.051  14.606
52004W        W24429  29.662  16.117  11.712
52005W        W24430   7.131  42.072   1.296
52006W        W24431  33.083  30.806  14.049
52007W        W24432  18.326  37.933   1.373
52008W        W24433   5.849  32.033   1.886
52009W        W24434   6.793  22.709  13.869
52010W        W24435  19.602  36.556   3.695
52011W        W24436   4.401  42.862  10.483
52012W        W24437  27.198   3.468   1.669
52013W        W24438  37.341   6.370  11.459
52014W        W24439  38.795  42.338  13.961
52015W        W24440  29.546  33.149  13.869
52016W        W24441  33.998  32.078  10.618
52017W        W24442  36.183  35.099   4.595
52018W        W24443  21.589  36.016   1.746
52019W        W24444  29.670   4.556   3.745
52020W        W24445  41.944  17.430  12.435
52021W        W24446  35.354  20.924   0.285
52022W        W24447   4.685  42.485  11.233
52023W        W24448  27.462  33.955   5.527
52024W        W24449   8.432  36.502  14.915
52025W        W24450  34.808   4.083  11.228
52026W        W24451  28.158   8.358  11.886
52027W        W24452  36.068  42.722   3.303
52028W        W24453  23.976  27.659   3.672
52029W        W24454   2.803  14.306   0.275
52030W        W24455  14.933  31.847  13.849
52031W        W24456  24.122  42.649  14.710
52032W        W24457   1.061  39.547  14.429
52033W        W24458   9.252  13.881  11.249
52034W        W24459  39.794   2.774   3.307
52035W        W24460  25.992  13.760   4.295
52036W        W24461  28.058  43.934   0.362
52037W        W24462  23.141  32.625   2.676
52038W        W24463  37.615  40.352   3.671
52039W        W24464  19.717  22.517   3.758
52040W        W24465   1.236  23.194  11.646
52041W        W24466  44.373  15.269  12.411
52042W        W24467   9.144  33.487   1.930
52043W        W24468  31.649   1.486  12.506
52044W        W24469   2.925   3.781  14.013
52045W        W24470   9.287  42.541  12.854
52046W        W24471  16.643   1.363  12.431
52047W        W24472   7.350  13.606  11.677
52048W        W24473   6.698  13.423   1.750
52049W        W24474  30.745   4.861   4.499
52050W        W24475  40.221  44.965  12.531
52051W        W24476  39.895  16.116  14.639
52052W        W24477  13.390  15.629  13.534
52053W        W24478  11.322   0.360  13.519
52054W        W24479  31.041  29.197   0.428
52055W        W24480  19.819   0.430   3.792
52056W        W24481  23.436  40.012   1.614
52057W        W24482  31.383  17.123   3.204
52058W        W24483  20.942  21.676   3.593
52059W        W24484  43.395  36.532  13.590
52060W        W24485   6.745  25.510  10.772
52061W        W24486  10.858  26.997  12.450
52062W        W24487  11.576  30.487  13.563
52063W        W24488  37.874  42.388   4.216
52064W        W24489  19.823   5.601   2.786
52065W        W24490  40.455  27.998   4.415
52066W        W24491  18.134   3.017   1.375
52067W        W24492   9.110   2.534  11.186
52068W        W24493  30.267  34.139   2.336
52069W        W24494   7.521   7.580   3.363
52070W        W24495  39.964  23.986   0.464
52071W        W24496  34.082  31.625   1.394
52072W        W24497   6.698  10.334   2.607
52073W        W24498  38.856  28.254  14.911
52074W        W24499  26.888  28.499  11.165
52075W        W24500  18.573  44.849  12.974
52076W        W24501   3.299  14.058   4.691
52077W        W24502  36.562  35.954   4.156
52078W        W24503  21.534  37.594   5.055
52079W        W24504   2.437  41.336   1.306
52080W        W24505  39.904  27.461   0.461
52081W        W24506  17.737  13.862   2.758
52082W        W24507  26.787  36.450  12.404
52083W        W24508  25.231   2.253  12.888
52084W        W24509  38.750  29.487   1.701
52085W        W24510  31.682  23.101   4.281
52086W        W24511  32.362  41.840  14.959
52087W        W24512   6.361   0.776   4.071
52088W        W24513  32.539   0.401   3.417
52089W        W24514  32.359  17.072  14.975
52090W        W24515  28.626  37.418   4.493
52091W        W24516  24.971  37.428  10.253
52092W        W24517   5.332   7.410   4.616
52093W        W24518  44.300  12.933  12.539
52094W        W24519  37.942  43.068  14.763
52095W        W24520  44.303  25.785  14.313
52096W        W24521  21.701  30.142   4.139
52097W        W24522  37.944  26.250   4.135
52098W        W24523  19.294   4.664   0.686
52099W        W24524  27.477   1.366  14.332
52100W        W24525  31.179  36.133  12.697
52101W        W24526  16.246  12.220  12.558
52102W        W24527  33.832  13.316  14.821
52103W        W24528  11.189  39.392  13.067
52104W        W24529  36.288  31.167  11.137
52105W        W24530  10.648  30.212   3.853
52106W        W24531  30.054   8.793   0.676
52107W        W24532  27.477   7.706  11.680
52108W        W24533   2.974  39.358   2.095
52109W        W24534  22.983  16.027  11.471
52110W        W24535   0.337   2.974   3.915
52111W        W24536  36.073  43.910  14.973
52112W        W24537  20.268  41.482  12.742
52113W        W24538  20.482  19.615   0.960
52114W        W24539   3.311   5.064  11.127
52115W        W24540  26.009   4.990  13.829
52116W        W24541   6.210  37.868  11.514
52117W        W24542  33.664  20.476   0.012
52118W        W24543  28.578  33.184   2.822
52119W        W24544  25.530  17.149   3.561
52120W        W24545  21.276  26.142   1.752
52121W        W24546  31.093  32.064   2.673
52122W        W24547  11.505  40.449   0.416
52123W        W24548   4.373  21.157  10.690
52124W        W24549  20.906  27.051  14.070
52125W        W24550  30.712   0.376   4.725
52126W        W24551  31.205  28.186  12.011
52127W        W24552  30.456  42.456   0.843
52128W        W24553  33.567  35.382  11.262
52129W        W24554  25.579  24.651  14.870
52130W        W24555  36.343  30.698   4.661
52131W        W24556  14.468  23.004   0.184
52132W        W24557  24.941  43.004  13.589
52133W        W24558  15.847  37.488   1.432
52134W        W24559  14.874  35.055   0.686
52135W        W24560   7.371  37.001  12.154
52136W        W24561   5.843  29.174   2.818
52137W        W24562  25.020  32.240   0.275
52138W        W24563  29.946  13.831  12.434
52139W        W24564   5.468  21.666   0.679
52140W        W24565  11.821  22.583  14.044
52141W        W24566  19.586  28.185  10.700
52142W        W24567  19.688  24.640  12.644
52143W        W24568  24.715  27.967   1.184
52144W        W24569  42.834   3.899   4.663
52145W        W24570   1.405  14.279   2.214
52146W        W24571  35.316  28.418   3.240
52147W        W24572   4.668  41.283   0.826
52148W        W24573  24.974  20.808  12.571
52149W        W24574  40.271  12.522  11.061
52150W        W24575   2.772   9.949   2.791
52151W        W24576  36.119  10.879   0.350
52152W        W24577  18.279  40.778   1.247
52153W        W24578   3.635  28.521   1.419
52154W        W24579   9.128  44.937  13.851
52155W        W24580  40.231  32.612  11.085
52156W        W24581  18.061   6.894  10.791
52157W        W24582  14.545  44.980  14.412
52158W        W24583   3.385  33.287  10.984
52159W        W24584   0.475  31.284  11.989
52160W        W24585   4.537  38.945   2.763
52161W        W24586  36.914  22.097   2.030
52162W        W24587  42.331  38.379   3.217
52163W        W24588  24.666  18.606   1.249
52164W        W24589  19.773   1.919   3.723
52165W        W24590  33.807  44.510   3.238
52166W        W24591  34.888   2.895  12.983
52167W        W24592   0.882  24.294   4.410
52168W        W24593  38.249  23.555  11.489
52169W        W24594   2.350  44.536  10.607
52170W        W24595   8.601  37.295   9.793
52171W        W24596  30.522  17.315  14.922
52172W        W24597  11.837  19.820  12.095
52173W        W24598   7.453  43.946  12.146
52174W        W24599  33.809  24.511  11.622
52175W        W24600  18.237  16.272   0.563
52176W        W24601  43.570   4.438  12.966
52177W        W24602  24.625  43.083  13.180
52178W        W24603  32.929  29.539   1.934
52179W        W24604  42.329  27.129   2.226
52180W        W24605  17.046  41.650  12.642
52181W        W24606  19.496  33.045  10.076
52182W        W24607  17.299  42.759   1.160
52183W        W24608  31.395   5.387   3.283
52184W        W24609   2.386  41.932  11.979
52185W        W24610   4.970  10.200  11.261
52186W        W24611   1.840   0.310  14.977
52187W        W24612  43.824  35.021   4.472
52188W        W24613  35.355  35.556   0.352
52189W        W24614  11.092  13.606  12.313
52190W        W24615  31.582  14.997  13.685
52191W        W24616  39.998  12.698  13.845
52192W        W24617  40.296  41.728  12.486
52193W        W24618  20.967  16.077   1.340
52194W        W24619  44.691  28.565   1.793
52195W        W24620  28.245   6.382   2.817
52196W        W24621  24.153  12.357   3.094
52197W        W24622  26.515  39.653  13.572
52198W        W24623  38.378   8.909  14.854
52199W        W24624  32.035  25.387   0.900
52200W        W24625  34.836  39.308   4.335
52201W        W24626  38.155   4.306  13.522
52202W        W24627  19.133  20.992  14.329
52203W        W24628  35.927  12.197   2.345
52204W        W24629  36.184  26.904   4.627
52205W        W24630  11.296   4.843  13.419
52206W        W24631  20.104   8.802   3.325
52207W        W24632  23.648  14.740   4.112
52208W        W24633  39.330  25.807   3.732
52209W        W24634   0.278   4.651  12.320
52210W        W24635  30.636  15.203   4.540
52211W        W24636  36.869  35.492   4.110
52212W        W24637  17.030  11.325  11.183
52213W        W24638  23.769  21.170   2.492
52214W        W24639  31.553  14.632   4.339
52215W        W24640  43.502  40.636  13.924
52216W        W24641   5.206  12.235  12.231
52217W        W24642   3.321  18.721   0.570
52218W        W24643  43.459  27.932  13.463
52219W        W24644   8.301  44.292   4.673
52220W        W24645  38.475   9.487   1.970
52221W        W24646  39.326  27.019  12.657
52222W        W24647  36.941  25.817  14.916
52223W        W24648  39.554  19.977   1.684
52224W        W24649  28.495  27.175   2.763
52225W        W24650  15.137  23.650   2.789
52226W        W24651   3.297  44.417   1.951
52227W        W24652  30.813  11.198   0.052
52228W        W24653   3.265   3.888   0.427
52229W        W24654  23.594  15.374   4.342
52230W        W24655  38.590  14.208   0.836
52231W        W24656  31.043  42.407  14.483
52232W        W24657  34.221   1.333   0.867
52233W        W24658  25.190  33.739   4.687
52234W        W24659  26.715  32.864   3.784
52235W        W24660  13.693  44.485   3.181
52236W        W24661   2.314  26.561  12.501
52237W        W24662  10.277  35.353  13.201
52238W        W24663  11.292  13.740  13.073
52239W        W24664  37.046  27.641  11.583
52240W        W24665  37.011  25.726   2.228
52241W        W24666   7.196  35.890   2.934
52242W        W24667  23.575  42.834   0.471
52243W        W24668  33.134  30.586   4.458
52244W        W24669  38.298  18.527   0.712
52245W        W24670  27.776  12.166   0.693
52246W        W24671  21.586   6.000   2.644
52247W        W24672  17.287  43.556  13.820
52248W        W24673   7.824  31.534  10.958
52249W        W24674   9.174  11.656  10.783
52250W        W24675  20.850  38.864   4.582
52251W        W24676  36.932  30.614  13.486
52252W        W24677  21.260  18.355  12.101
52253W        W24678   6.362  16.580   2.812
52254W        W24679  37.164  26.429  11.167
52255W        W24680   2.506  41.521  13.153
52256W        W24681  30.688  33.421   3.892
52257W        W24682  37.038  34.022  10.918
52258W        W24683  15.592  43.777   1.358
52259W        W24684  22.665  31.380  12.428
52260W        W24685   1.392  22.490  13.903
52261W        W24686  28.606   8.393  12.161
52262W        W24687  14.868  22.202  13.315
52263W        W24688  14.792  39.205  14.460
52264W        W24689   2.387   3.291   0.232
52265W        W24690   3.906   6.431  14.270
52266W        W24691  17.203  23.376   4.056
52267W        W24692  16.702  20.235  12.862
52268W        W24693  38.344  15.260   4.820
52269W        W24694  30.876  29.049  14.923
52270W        W24695  40.999  14.596   0.757
52271W        W24696  28.859  37.780   3.673
52272W        W24697  32.898   1.786  11.584
52273W        W24698  25.558  28.411  12.980
52274W        W24699  36.122  18.438   1.669
52275W        W24700  23.838  38.407  14.978
52276W        W24701  11.741   1.444  12.734
52277W        W24702   5.694  14.709  10.364
52278W        W24703  44.301  31.896   1.722
52279W        W24704  44.915  31.329   2.435
52280W        W24705  43.312  39.064   2.021
52281W        W24706   4.737  44.975   0.565
52282W        W24707  15.693  35.830  11.112
52283W        W24708  43.406  44.864  14.845
52284W        W24709  22.146  44.517   0.679
52285W        W24710  35.679  14.025   1.862
52286W        W24711  23.982  35.406   3.138
52287W        W24712  24.195  11.659  11.179
52288W        W24713  42.030   0.887  14.289
52289W        W24714  40.776  30.363   0.857
52290W        W24715  26.770  33.388   3.800
52291W        W24716  15.685  15.820  12.376
52292W        W24717  42.403   3.651   4.670
52293W        W24718   3.938  11.205   1.273
52294W        W24719  41.972  15.887  10.647
52295W        W24720  35.495  32.078   4.627
52296W        W24721  43.339  15.341  14.919
52297W        W24722  25.092  16.332   3.853
52298W        W24723  44.767   5.328  12.570
52299W        W24724   9.161  28.574   0.413
52300W        W24725  27.711  25.652  11.550
52301W        W24726   0.346  18.550  10.776
52302W        W24727   3.925  33.970  10.283
52303W        W24728  37.847  17.205   1.276
52304W        W24729  26.647  19.301   3.642
52305W        W24730  38.919  24.900  10.728
52306W        W24731  14.816   8.180  12.422
52307W        W24732  16.302  12.158   0.902
52308W        W24733  41.591  21.752   4.437
52309W        W24734  19.054   2.012   0.001
52310W        W24735   3.973  10.366   3.120
52311W        W24736  39.009  24.441  10.433
52312W        W24737  31.699  44.405  14.939
52313W        W24738  38.624  43.436  10.544
52314W        W24739  35.626  27.196   2.246
52315W        W24740  43.900  18.727   4.234
52316W        W24741   1.468  32.969  14.265
52317W        W24742  28.128  36.423   3.586
52318W        W24743  24.975  32.361  12.383
52319W        W24744  42.998  19.338   4.548
52320W        W24745  23.725  25.132  12.915
52321W        W24746   9.235  11.280   0.308
52322W        W24747  44.032  29.648   2.927
52323W        W24748  28.360   8.998  13.581
52324W        W24749  38.111  41.568   2.780
52325W        W24750  40.051  11.763   3.199
52326W        W24751  37.687  18.757  11.176
52327W        W24752   5.355  23.061  13.982
52328W        W24753  19.332  29.853   3.002
52329W        W24754  36.034   2.417  11.007
52330W        W24755  32.820   8.472   2.844
52331W        W24756   9.246  26.172   0.928
52332W        W24757  33.388  24.752   4.164
52333W        W24758  11.721  28.626   3.788
52334W        W24759  20.244  14.821  12.985
52335W        W24760  34.556  43.235   3.083
52336W        W24761  22.736  44.071  11.102
52337W        W24762  23.499  17.274   2.220
52338W        W24763  34.638  31.321   3.250
52339W        W24764  29.378  34.495  14.878
52340W        W24765  44.199   0.295   0.016
52341W        W24766  38.557  20.615  12.586
52342W        W24767  19.836   4.477   0.978
52343W        W24768   7.255  25.776  12.922
52344W        W24769   4.502  16.694   1.181
52345W        W24770  39.264  11.426   2.210
52346W        W24771  33.903  42.308   1.651
52347W        W24772  32.630  18.095  14.808
52348W        W24773  36.498  12.251  11.945
52349W        W24774  13.674  36.639  11.000
52350W        W24775  12.062  38.005  10.676
52351W        W24776  10.558  34.519  12.989
52352W        W24777  20.547  28.675  13.835
52353W        W24778  32.106   2.013  14.829
52354W        W24779  29.502  31.237  14.806
52355W        W24780   3.854  14.608   0.303
52356W        W24781   7.819  31.191  11.819
52357W        W24782  38.609  24.548   0.257
52358W        W24783  11.631  17.455   3.508
52359W        W24784  22.584  35.054  10.599
52360W        W24785   0.743  41.458   0.429
52361W        W24786  32.794  35.539   3.545
52362W        W24787  31.823  33.840  14.305
52363W        W24788  37.980   4.591   4.959
52364W        W24789  23.023  22.656   3.229
52365W        W24790  25.441  13.142   3.254
52366W        W24791  12.306  41.031   1.218
52367W        W24792   8.750  30.359   2.210
52368W        W24793  13.481  35.653  11.860
52369W        W24794   6.395   8.347   0.875
52370W        W24795   7.816   9.409   3.692
52371W        W24796   8.235   6.724  10.260
52372W        W24797  28.679  20.992  11.046
52373W        W24798  36.406  11.013  14.910
52374W        W24799  28.624  15.301  13.567
52375W        W24800  41.760  25.545  14.812
52376W        W24801  31.549  19.075  10.708
52377W        W24802  14.798  39.820  14.292
52378W        W24803  30.076  29.663   0.326
52379W        W24804  26.180  27.675   4.832
52380W        W24805  35.626  35.565  14.038
52381W        W24806  32.624  40.079   1.455
52382W        W24807  21.046  40.327  10.829
52383W        W24808  41.217  44.022   5.062
52384W        W24809  16.135  28.124  13.381
52385W        W24810  34.192   0.031  11.149
52386W        W24811   0.137  32.326   0.427
52387W        W24812  10.185  15.979  14.353
52388W        W24813  28.166  29.226   2.148
52389W        W24814  28.665  23.755   0.301
52390W        W24815  36.931  37.610  14.334
52391W        W24816  42.467  24.950   3.835
52392W        W24817  33.397  19.817  10.404
52393W        W24818  23.325  42.485  10.626
52394W        W24819  24.343   0.480   1.894
52395W        W24820  42.879  37.986  13.413
52396W        W24821   6.266  31.944   4.178
52397W        W24822  42.141   0.913   4.162
52398W        W24823  28.007  42.217  13.997
52399W        W24824  13.330   2.222  10.431
52400W        W24825   6.840  35.541  13.906
52401W        W24826  34.001  12.741   0.245
52402W        W24827  32.005   6.005  10.314
52403W        W24828  25.592  15.577   1.671
52404W        W24829  16.302  10.806   0.032
52405W        W24830  37.140  11.715  12.944
52406W        W24831   2.784  41.410   2.009
52407W        W24832  40.458  12.789  13.615
52408W        W24833  13.655  39.013   3.705
52409W        W24834  22.269  32.778   3.284
52410W        W24835  14.218  33.566  12.193
52411W        W24836  37.362  23.632  12.351
52412W        W24837  26.001   5.008   2.414
52413W        W24838  22.333   7.319  13.390
52414W        W24839   0.798  43.143   1.858
52415W        W24840   2.640  31.651   3.116
52416W        W24841  22.721  15.542   3.274
52417W        W24842  44.936  15.889  11.634
52418W        W24843  22.088  14.808  13.416
52419W        W24844   4.043  13.158  10.323
52420W        W24845  36.619   1.082   4.224
52421W        W24846  33.501  11.117   2.812
52422W        W24847  35.846  14.549   3.293
52423W        W24848  15.589  41.832   3.894
52424W        W24849   6.406  13.894   4.931
52425W        W24850   7.725  31.617  12.466
52426W        W24851  24.066  21.713   3.320
52427W        W24852   3.678   2.187   1.945
52428W        W24853  24.382  24.201   1.858
52429W        W24854  27.678   1.978   4.773
52430W        W24855  27.346  30.527  14.805
52431W        W24856  23.996  24.013  12.437
52432W        W24857  10.331  12.050   1.422
52433W        W24858  15.109  16.716   2.585
52434W        W24859  39.536  41.885  14.854
52435W        W24860  30.919  11.081   4.131
52436W        W24861  30.423  38.927   4.875
52437W        W24862  37.639  27.910  13.233
52438W        W24863  31.605  37.476  12.305
52439W        W24864  41.917  12.025  13.364
52440W        W24865   1.799  12.732   4.619
52441W        W24866   6.380  24.503  14.207
52442W        W24867  31.371  13.274   4.705
52443W        W24868  14.683   4.377  14.079
52444W        W24869  27.507  14.759   4.380
52445W        W24870  26.891  25.191   1.378
52446W        W24871  34.892  38.952   3.367
52447W        W24872  37.612  34.520  13.646
52448W        W24873   0.392   1.111  10.460
52449W        W24874   0.277  21.538  11.991
52450W        W24875  41.921  23.656  11.119
52451W        W24876  42.092  40.393  11.172
52452W        W24877   8.299  40.243  11.131
52453W        W24878  28.536  16.034  11.022
52454W        W24879  19.643   4.290   0.521
52455W        W24880  31.956   3.574   3.263
52456W        W24881  25.785  17.260   0.548
52457W        W24882  34.540   8.226   0.982
52458W        W24883  37.038  39.944  13.112
52459W        W24884  40.431   5.670  12.513
52460W        W24885  31.744  37.349   0.947
52461W        W24886  18.938  15.940   0.942
52462W        W24887  31.076  35.868   3.779
52463W        W24888  35.256  17.712   2.228
52464W        W24889  30.621  29.780  14.309
52465W        W24890  20.339  21.493  11.529
52466W        W24891  19.610  18.115   2.353
52467W        W24892  12.823  41.561   3.796
52468W        W24893   2.826  14.316   1.176
52469W        W24894  34.034  43.083  12.057
52470W        W24895  15.990  35.456   0.317
52471W        W24896  29.390  40.447   4.626
52472W        W24897  23.178  41.574   1.824
52473W        W24898  11.754  14.305  12.072
52474W        W24899  18.180  42.948   0.259
52475W        W24900  44.789  14.821  13.938
52476W        W24901  41.950  33.225   1.122
52477W        W24902   1.944  41.053  14.930
52478W        W24903  36.585  27.175   0.887
52479W        W24904   1.702  11.910   0.931
52480W        W24905   0.731  31.611  14.456
52481W        W24906  15.227  16.728  11.489
52482W        W24907  29.756  31.840  10.896
52483W        W24908   8.332  15.785  14.444
52484W        W24909  26.051  37.380  13.077
52485W        W24910  36.461  37.522   4.173
52486W        W24911  28.291   9.352  14.451
52487W        W24912  16.183  20.126  12.844
52488W        W24913  21.169  35.914   0.909
52489W        W24914   5.144  37.129  14.672
52490W        W24915  30.011  32.564   1.381
52491W        W24916   5.862  38.919   1.669
52492W        W24917   4.821   8.650  10.543
52493W        W24918  12.883   9.692  14.364
52494W        W24919  31.699  41.253   4.286
52495W        W24920  28.077  31.793  10.755
52496W        W24921   5.149  35.568   1.234
52497W        W24922  34.432  21.595  12.788
52498W        W24923  44.796  43.721   4.620
52499W        W24924  42.899   4.478   1.391
52500W        W24925  43.515  35.556   0.901
52501W        W24926  42.721  20.576  13.352
52502W        W24927  10.408   2.449  10.571
52503W        W24928  19.109  34.850  11.609
52504W        W24929   3.010   1.476   1.855
52505W        W24930  32.149   2.304   3.529
52506W        W24931  39.254   7.876   0.923
52507W        W24932  34.411  42.749  12.144
52508W        W24933  41.613  22.584   3.415
52509W        W24934   9.089   8.365   1.318
52510W        W24935  16.716   6.255   0.937
52511W        W24936   1.342  15.129  10.784
52512W        W24937   4.845  13.238   2.307
52513W        W24938  10.248  40.378   4.073
52514W        W24939  25.599  25.653   4.158
52515W        W24940  36.833  13.490  12.645
52516W        W24941   2.290   7.612   1.778
52517W        W24942  44.487  43.471   1.886
52518W        W24943  37.635  41.280   3.622
52519W        W24944  14.038   0.216   2.100
52520W        W24945  31.349  20.743  14.972
52521W        W24946  13.752   4.734  13.040
52522W        W24947  36.980  23.813   1.798
52523W        W24948  18.819  36.818  14.800
52524W        W24949   9.917  29.398  13.304
52525W        W24950   8.410   3.515   2.842
52526W        W24951   3.835  13.363   4.191
52527W        W24952   1.664   1.323   3.133
52528W        W24953  17.160  39.287   1.258
52529W        W24954  12.323  36.174  14.924
52530W        W24955   3.147  20.381  13.454
52531W        W24956   0.819  32.276  10.047
52532W        W24957   8.757  39.601  12.863
52533W        W24958  19.187  16.180   2.378
52534W        W24959  44.829  34.993  11.072
52535W        W24960   8.325  23.661  14.261
52536W        W24961  37.331  31.619  11.549
52537W        W24962  31.448   0.290   4.070
52538W        W24963  31.051  33.108   4.098
52539W        W24964   8.289  15.790   0.864
52540W        W24965  28.146  10.918   0.938
52541W        W24966   3.940  19.766  13.345
52542W        W24967   5.498  17.167   4.964
52543W        W24968  18.704   1.537   5.001
52544W        W24969   3.929   1.713  12.166
52545W        W24970   2.491  33.042  14.249
52546W        W24971  26.586  19.235  12.500
52547W        W24972  32.203  13.188   2.808
52548W        W24973  37.858  16.824  12.506
52549W        W24974  14.642  31.921  12.204
52550W        W24975  39.350  16.466   0.515
52551W        W24976   7.535  27.010  14.001
52552W        W24977  28.111  18.163   3.854
52553W        W24978  42.481  21.328   3.400
52554W        W24979   4.441  41.453   4.433
52555W        W24980  28.513  20.456   0.308
52556W        W24981   7.315  13.833   4.282
52557W        W24982  19.154  16.179  12.390
52558W        W24983   3.728  27.612  11.257
52559W        W24984  33.683  10.672   3.017
52560W        W24985  31.371   8.145   2.753
52561W        W24986   6.654  35.947   1.871
52562W        W24987  21.405   0.940   1.856
52563W        W24988  35.487  24.736  13.279
52564W        W24989  20.671  16.270  12.929
52565W        W24990  17.092  37.687   4.529
52566W        W24991  12.320  37.066  13.438
52567W        W24992  26.190  19.463  14.674
52568W        W24993   0.355  35.074   0.012
52569W        W24994   9.916   7.954   0.890
52570W        W24995  16.272   5.899   4.464
52571W        W24996  24.538  10.217   5.433
52572W        W24997  23.086  15.623  14.001
52573W        W24998  27.943   0.484   2.148
52574W        W24999  37.844  37.987  12.167
52575W        W25000  31.680  19.631  12.627
52576W        W25001  40.962  28.460   1.358
52577W        W25002  39.961   9.149  12.888
52578W        W25003   2.822  19.146  13.010
52579W        W25004  39.995  35.367  11.522
52580W        W25005  21.760  29.100  10.587
52581W        W25006  30.185  12.230  13.125
52582W        W25007  25.448  35.252  10.711
52583W        W25008  24.569  41.565   0.945
52584W        W25009  29.653  23.108  14.115
52585W        W25010   7.811  43.049  12.910
52586W        W25011   8.916  38.936  14.575
52587W        W25012   8.900  35.764  11.825
52588W        W25013  32.438  16.339   3.278
52589W        W25014  12.903   9.241   1.824
52590W        W25015  12.153  41.967  13.824
52591W        W25016  40.049   1.679  12.866
52592W        W25017  25.027  31.478   3.565
52593W        W25018  43.950   0.617  10.826
52594W        W25019  18.520  37.833   1.854
52595W        W25020  24.415   8.181  12.792
52596W        W25021  26.579  43.933  13.511
52597W        W25022  27.927   6.666   3.101
52598W        W25023  37.018  38.145   3.797
52599W        W25024  13.292  10.819   4.548
52600W        W25025  26.301  11.536   3.384
52601W        W25026  27.649  11.160   4.624
52602W        W25027  36.903  30.339   4.112
52603W        W25028  11.769   9.804  13.040
52604W        W25029   6.194   2.315  11.898
52605W        W25030  44.054  34.659  14.407
52606W        W25031  21.157  30.800  14.476
52607W        W25032   1.152   4.718  12.372
52608W        W25033   2.850   2.318   1.963
52609W        W25034  39.508  33.807   1.293
52610W        W25035   7.595  11.324  12.948
52611W        W25036   2.399   7.823   3.700
52612W        W25037  33.773   2.204  14.053
52613W        W25038  24.490  34.221  13.097
52614W        W25039  15.747  25.695  11.280
52615W        W25040  11.211  12.199   4.343
52616W        W25041  24.043   3.031   4.024
52617W        W25042   1.076  26.424   1.912
52618W        W25043  27.604  41.116  13.042
52619W        W25044  19.142  23.671  11.040
52620W        W25045  42.439   6.915   3.691
52621W        W25046  30.869   1.903  10.727
52622W        W25047   8.910  42.015  14.089
52623W        W25048  11.363   0.338   2.740
52624W        W25049   7.162  13.372   4.054
52625W        W25050   1.811  29.887   1.802
52626W        W25051   4.363  19.245  13.296
52627W        W25052  30.484   9.738  13.564
52628W        W25053   8.274   4.337   3.175
52629W        W25054   0.435  38.066  13.614
52630W        W25055  11.169  33.343   0.809
52631W        W25056  22.235  34.013   0.285
52632W        W25057   8.705   5.582   4.128
52633W        W25058  27.582  24.781  10.637
52634W        W25059  44.894  30.385  14.254
52635W        W25060   9.696  10.321   3.475
52636W        W25061  23.572  13.309   0.375
52637W        W25062   6.786   8.055  14.157
52638W        W25063  18.070  37.981  10.941
52639W        W25064  32.430  32.171   3.210
52640W        W25065  31.948  11.300  11.616
52641W        W25066  40.800  25.672  13.545
52642W        W25067   3.636  32.489   0.922
52643W        W25068  44.955  39.919   3.997
52644W        W25069  20.296  40.451   2.785
52645W        W25070   2.400  26.386   5.020
52646W        W25071  29.685  27.456  14.246
52647W        W25072   9.032  28.942  12.865
52648W        W25073   4.710  19.317  10.765
52649W        W25074   1.389   3.012  11.513
52650W        W25075   2.453  10.640  13.050
52651W        W25076  34.647  22.166  10.581
52652W        W25077  42.543   9.552  14.343
52653W        W25078   0.711  29.559  13.763
52654W        W25079  26.650   3.038   2.865
52655W        W25080  35.637  22.661   2.347
52656W        W25081   9.810  21.221  13.952
52657W        W25082  17.629  27.870  11.119
52658W        W25083  10.597  17.240   4.619
52659W        W25084  36.057   0.077   1.753
52660W        W25085  27.439  17.717   0.979
52661W        W25086  32.295  22.424  13.945
52662W        W25087  10.218  40.463  14.776
52663W        W25088  22.187  10.350  11.603
52664W        W25089   7.178  27.498   1.766
52665W        W25090   6.436   0.822   1.158
52666W        W25091  17.264  27.029  11.982
52667W        W25092  43.270  40.246   0.764
52668W        W25093  40.510   7.123   4.877
52669W        W25094  19.599  27.152  13.753
52670W        W25095  14.091  14.131  13.627
52671W        W25096   1.808  10.384   1.739
52672W        W25097  36.956  26.239  11.605
52673W        W25098  27.628  12.224  14.313
52674W        W25099  39.474  33.655  10.683
52675W        W25100   3.337  18.296   0.197
52676W        W25101  40.093   4.515   3.204
52677W        W25102   1.441  44.305   3.716
52678W        W25103   4.439  44.784  14.426
52679W        W25104  36.440  15.275   2.412
52680W        W25105  36.970  36.736   0.425
52681W        W25106   5.212   6.016   4.641
52682W        W25107  30.587  20.068  14.518
52683W        W25108  16.423  24.495  14.734
52684W        W25109  44.169  35.442  11.382
52685W        W25110  40.844  12.350  12.926
52686W        W25111  35.862  19.991   4.107
52687W        W25112  35.570  37.413   4.066
52688W        W25113  38.197  31.914  13.526
52689W        W25114  26.869   4.854   0.402
52690W        W25115   7.232  36.445   2.176
52691W        W25116  32.968  13.697   1.780
52692W        W25117  17.578  22.082   4.819
52693W        W25118  40.330   6.493   4.453
52694W        W25119  10.093  25.424  12.848
52695W        W25120   5.900  10.366  10.862
52696W        W25121  11.710  44.358   3.727
52697W        W25122  11.505  41.863   3.238
52698W        W25123  11.484  23.093   4.607
52699W        W25124  41.533  35.123  11.965
52700W        W25125  13.883  35.435   3.203
52701W        W25126   6.438  35.360   3.685
52702W        W25127  44.439  16.274  12.386
52703W        W25128  40.523  13.975   4.638
52704W        W25129   5.354  18.993  12.442
52705W        W25130  35.435   3.312  13.139
52706W        W25131  10.378  35.044  12.367
52707W        W25132  42.931  13.231   4.605
52708W        W25133  14.104  19.342  12.561
52709W        W25134  28.549  14.515  11.635
52710W        W25135   9.443   3.726  11.107
52711W        W25136  19.287   2.873   1.964
52712W        W25137  29.499  31.477  14.349
52713W        W25138  20.555  18.663  11.216
52714W        W25139  30.583   5.036  11.121
52715W        W25140  24.566  27.490   0.311
52716W        W25141   6.328  16.842   0.332
52717W        W25142   3.721  43.223   3.146
52718W        W25143   3.047  19.309   1.210
52719W        W25144  42.739  43.458  13.995
52720W        W25145  27.494  23.630   2.274
52721W        W25146  33.594   9.144   4.495
52722W        W25147   3.310   2.009  14.907
52723W        W25148   1.270   3.867  14.969
52724W        W25149   7.641   2.296  10.396
52725W        W25150  30.245  13.939   3.713
52726W        W25151   4.952  14.041  14.362
52727W        W25152  20.240  43.466  13.923
52728W        W25153  28.982  43.293   0.150
52729W        W25154  21.090  37.378   5.062
52730W        W25155  23.758  16.645   4.742
52731W        W25156  35.591  35.777   0.934
52732W        W25157  29.417  24.673   2.875
52733W        W25158   9.667  28.177  11.859
52734W        W25159  21.996   0.774   3.590
52735W        W25160  34.904   2.915  11.567
52736W        W25161  44.312   9.722  10.074
52737W        W25162   3.425  35.858   3.327
52738W        W25163  26.223  41.819   0.803
52739W        W25164   4.746   0.791  11.431
52740W        W25165  12.278  25.057  14.865
52741W        W25166  25.689  26.192  13.380
52742W        W25167   7.373  12.218   4.622
52743W        W25168  15.756   7.264  10.391
52744W        W25169  40.693   4.941   2.204
52745W        W25170   5.388  31.194  13.055
52746W        W25171   5.685  28.728   0.741
52747W        W25172  27.054  35.149  13.055
52748W        W25173   0.410  25.561   3.472
52749W        W25174  37.433  27.434   4.946
52750W        W25175  15.823  36.856  12.449
52751W        W25176   3.606  33.486  13.089
52752W        W25177   9.039  24.576   4.625
52753W        W25178  40.911  19.581   4.709
52754W        W25179  12.159  19.613   3.362
52755W        W25180  14.313  23.414  11.566
52756W        W25181  13.336  23.662   3.378
52757W        W25182  16.621  24.264   0.707
52758W        W25183   3.949  22.132   4.765
52759W        W25184   9.272  17.075  11.442
52760W        W25185   2.556  25.757  12.890
52761W        W25186  20.579  14.695   2.604
52762W        W25187  22.126  17.382   3.717
52763W        W25188  35.246  41.539   1.916
52764W        W25189  41.009  16.189   2.773
52765W        W25190  33.941  19.368  11.149
52766W        W25191  27.431  44.015  12.943
52767W        W25192  28.981   3.679  13.048
52768W        W25193   2.832  10.626   2.215
52769W        W25194  20.974  24.101   2.393
52770W        W25195  31.320  32.438  14.991
52771W        W25196  20.687   9.652  12.651
52772W        W25197   5.054  11.266  12.920
52773W        W25198   9.883  34.347   0.870
52774W        W25199  42.935  23.556  12.192
52775W        W25200  28.159   5.399  12.898
52776W        W25201  34.528  15.418  14.918
52777W        W25202  13.153   7.241   1.443
52778W        W25203  33.828  28.206   2.789
52779W        W25204   0.100  13.475   3.291
52780W        W25205  24.530  22.206  12.041
52781W        W25206   6.742   4.850   2.608
52782W        W25207  11.230   0.661  12.050
52783W        W25208   5.562  19.756   1.887
52784W        W25209  30.086  31.510  13.165
52785W        W25210  41.306  14.703  11.931
52786W        W25211  31.547   3.135   1.514
52787W        W25212  27.357  18.558   3.062
52788W        W25213  25.446   6.909  12.929
52789W        W25214  42.896   4.101   4.128
52790W        W25215  22.574  10.274  11.262
52791W        W25216  38.603  22.109  11.069
52792W        W25217  35.611  26.137   1.887
52793W        W25218  17.411  23.644   3.688
52794W        W25219  27.119  23.470  12.931
52795W        W25220   1.982  40.345  14.111
52796W        W25221  39.064  11.611   4.084
52797W        W25222  29.947  33.486   1.973
52798W        W25223  42.073  26.688   2.275
52799W        W25224  33.980  43.393   2.403
52800W        W25225  22.802  17.496   4.937
52801W        W25226  15.724  35.095   0.068
52802W        W25227  24.944   0.753   3.869
52803W        W25228  16.651  41.307  12.858
52804W        W25229   9.340  30.654  11.607
52805W        W25230  15.946  33.577   4.865
52806W        W25231  20.831  15.834   0.051
52807W        W25232  10.473  39.081  11.182
52808W        W25233  42.063  10.729   4.256
52809W        W25234   1.463  41.643  14.593
52810W        W25235  38.573   8.402   3.629
52811W        W25236  13.150  42.485   3.127
52812W        W25237   2.989  15.287   2.096
52813W        W25238  27.147  29.353  13.080
52814W        W25239  41.252  19.622  13.023
52815W        W25240  26.241  15.342  13.421
52816W        W25241  29.488  43.270   1.958
52817W        W25242  37.492  35.559  13.939
52818W        W25243  11.279  25.686   4.631
52819W        W25244   2.296  33.220  11.191
52820W        W25245  19.090   1.675   9.480
52821W        W25246  28.238  19.093  10.638
52822W        W25247   9.849  13.700   2.301
52823W        W25248   7.774  20.425   1.403
52824W        W25249  41.982  21.516   3.095
52825W        W25250  15.665  19.307   0.693
52826W        W25251  44.084  43.705  11.484
52827W        W25252  12.681  36.854   3.669
52828W        W25253  25.598  20.349   3.299
52829W        W25254  14.500  40.734  14.347
52830W        W25255  43.397  16.157   4.187
52831W        W25256  38.371  18.361  12.635
52832W        W25257  24.472   6.962   2.814
52833W        W25258  44.786  12.717   2.666
52834W        W25259   5.301  28.702  11.751
52835W        W25260  42.972   2.953  10.668
52836W        W25261  22.538  16.556   3.324
52837W        W25262  35.430  12.652  11.210
52838W        W25263  29.494  12.051  11.077
52839W        W25264  37.452  19.255   0.986
52840W        W25265  36.877  12.329   4.700
52841W        W25266  38.452   3.484  10.637
52842W        W25267  12.935  37.121   4.595
52843W        W25268  15.599  24.268   2.368
52844W        W25269  11.276  11.886  14.025
52845W        W25270  30.455  44.630  10.555
52846W        W25271  13.650  13.126   3.209
52847W        W25272  12.312  13.872   3.738
52848W        W25273   4.019  29.893   4.062
52849W        W25274  12.658  30.692   2.362
52850W        W25275  31.448  23.007  13.498
52851W        W25276  13.630  37.544  12.640
52852W        W25277  36.829  32.108   0.386
52853W        W25278  41.532  22.929  12.060
52854W        W25279   8.930   2.756  11.609
52855W        W25280  22.683  26.450  10.337
52856W        W25281  28.912  41.075  12.854
52857W        W25282  38.414  41.711  11.071
52858W        W25283   7.293  21.829  12.998
52859W        W25284  15.207   0.157   5.441
52860W        W25285  17.243  44.896  13.478
52861W        W25286  32.558   7.682   2.239
52862W        W25287  28.832  26.749   0.339
52863W        W25288  21.638  27.758  13.021
52864W        W25289   4.346  13.550   3.381
52865W        W25290  27.318  30.448   3.989
52866W        W25291   2.399  29.319   0.906
52867W        W25292  14.497  33.325   2.909
52868W        W25293  30.882  33.033   3.087
52869W        W25294   9.562  39.076   1.280
52870W        W25295  39.870  22.487  11.177
52871W        W25296  20.266  35.025   2.873
52872W        W25297   8.176  29.603   0.397
52873W        W25298  35.190   1.799   4.635
52874W        W25299  33.618   0.135   4.843
52875W        W25300  22.850  27.033  13.330
52876W        W25301  19.166  43.515   1.472
52877W        W25302  33.045  42.960  11.138
52878W        W25303  14.282  43.879   1.174
52879W        W25304  44.785   0.963  11.642
52880W        W25305  34.143  24.144  11.506
52881W        W25306  37.887  19.782   0.722
52882W        W25307  15.714  44.234  13.043
52883W        W25308  25.500   5.355  13.571
52884W        W25309  36.349  16.745   0.263
52885W        W25310  12.219  29.341   4.249
52886W        W25311  40.914  42.329   4.824
52887W        W25312  25.218  33.855  12.472
52888W        W25313  38.137  13.157  12.861
52889W        W25314  21.132   5.825   3.863
52890W        W25315  42.628  44.387  10.604
52891W        W25316   5.711  19.673   0.865
52892W        W25317  41.357  22.966  14.823
52893W        W25318  17.250  34.074  12.439
52894W        W25319   9.667   1.784   4.395
52895W        W25320   2.459  37.915   2.689
52896W        W25321  33.845   6.508   4.008
52897W        W25322  34.581   0.518   3.569
52898W        W25323  26.999  22.182  11.042
52899W        W25324  26.036  41.348  11.688
52900W        W25325   2.896  16.280  11.283
52901W        W25326  14.542  38.415  10.596
52902W        W25327  25.467  35.966  13.391
52903W        W25328  41.599  17.387   4.576
52904W        W25329  34.396  26.083  11.842
52905W        W25330  40.238  24.675  10.691
52906W        W25331  27.251  21.422  11.125
52907W        W25332  25.030   3.804  12.595
52908W        W25333   7.213  33.022   2.427
52909W        W25334   0.793  17.522   2.375
52910W        W25335  18.876  22.360  11.987
52911W        W25336  20.673  22.468  14.931
52912W        W25337  32.328   2.962  12.574
52913W        W25338  15.252   3.602  13.564
52914W        W25339  36.365  28.381  10.938
52915W        W25340   3.284  29.530  11.820
52916W        W25341  28.204  20.563   4.545
52917W        W25342  31.911  33.106  14.795
52918W        W25343  24.663  38.083   0.437
52919W        W25344   2.619  26.942   2.592
52920W        W25345  36.514  40.581   2.811
52921W        W25346  33.864  14.696  11.816
52922W        W25347   1.216  22.974  14.885
52923W        W25348  40.821   2.749  13.519
52924W        W25349  31.147  29.469  12.020
52925W        W25350  25.131  15.159   4.628
52926W        W25351   4.676  44.265  12.851
52927W        W25352  22.140  17.215   2.149
52928W        W25353  15.554  40.452   3.604
52929W        W25354   2.716  12.694   2.816
52930W        W25355  31.147  24.964   2.389
52931W        W25356   7.116  24.071   3.110
52932W        W25357  13.763  14.342   2.896
52933W        W25358  14.366  11.250   4.199
52934W        W25359  36.595  31.653   4.332
52935W        W25360  37.035  34.511  13.612
52936W        W25361  44.730   8.471   1.361
52937W        W25362  11.557  37.298   3.618
52938W        W25363  31.016  20.665  10.652
52939W        W25364  21.764  41.223   2.142
52940W        W25365   0.478  17.737   1.970
52941W        W25366   1.083  23.531  14.763
52942W        W25367   8.926  31.431  10.808
52943W        W25368  36.030   8.974  11.327
52944W        W25369   1.849  26.936   0.314
52945W        W25370  18.218  44.994   1.613
52946W        W25371  24.513  40.727  12.523
52947W        W25372   7.929  33.625   4.177
52948W        W25373  39.760  36.436  13.786
52949W        W25374  14.662  43.862   3.926
52950W        W25375   1.502  42.348   1.333
52951W        W25376   8.021  17.990   2.350
52952W        W25377  38.939  28.257   5.022
52953W        W25378  35.666   6.754  13.605
52954W        W25379   4.685  43.873  11.210
52955W        W25380   8.162  42.354  12.391
52956W        W25381  21.513   9.065   2.763
52957W        W25382  17.244  34.310   3.118
52958W        W25383  42.588  38.275  14.990
52959W        W25384   5.897   7.436   0.007
52960W        W25385  13.748  37.369   4.656
52961W        W25386  13.056  39.543   4.118
52962W        W25387   5.390  22.069  11.459
52963W        W25388  14.529  14.536   4.071
52964W        W25389  17.604  18.103  12.930
52965W        W25390  28.128  44.073  11.377
52966W        W25391  13.717   3.866   2.630
52967W        W25392  26.141  30.112  13.096
52968W        W25393  16.179  15.308  14.485
52969W        W25394   9.339  17.277   3.569
52970W        W25395  14.519   7.921  14.916
52971W        W25396  29.133  37.425  14.365
52972W        W25397  25.544  10.406  13.908
52973W        W25398  16.180  19.319  14.371
52974W        W25399  30.157  16.075  11.941
52975W        W25400  37.988  39.347  13.534
52976W        W25401  10.212  17.751  10.759
52977W        W25402   3.035  44.426   3.326
52978W        W25403  20.038  22.766  12.444
52979W        W25404  31.086  43.564  12.833
52980W        W25405  18.710   3.782   4.110
52981W        W25406   5.949   5.895  10.436
52982W        W25407  24.095  34.157   3.616
52983W        W25408  13.095  16.056  14.060
52984W        W25409  20.190   4.923  12.970
52985W        W25410  15.311  31.695  11.585
52986W        W25411  25.597  37.372  10.714
52987W        W25412  26.250  10.210  12.890
52988W        W25413   4.240  30.497   2.151
52989W        W25414   3.343  11.691   2.308
52990W        W25415  14.735  23.573  12.594
52991W        W25416  22.710  42.360   3.874
52992W        W25417  19.728  25.633  14.930
52993W        W25418  29.249  32.320   3.700
52994W        W25419  24.704  13.698  14.853
52995W        W25420  28.902  33.369  13.783
52996W        W25421  28.137  33.549   4.538
52997W        W25422  32.936  38.684   0.259
52998W        W25423  41.262  42.331   1.878
52999W        W25424  44.228   5.301   4.988
53000W        W25425   7.156   1.579   2.252
53001W        W25426  13.718  43.682   0.917
53002W        W25427   5.222   2.568  12.868
53003W        W25428   6.672   7.245  14.436
53004W        W25429   5.990  23.121   3.717
53005W        W25430  21.700   9.432  10.270
53006W        W25431   0.477   2.388  13.426
53007W        W25432  14.584  15.599   0.629
53008W        W25433   6.173  38.499  10.538
53009W        W25434   1.537   0.451   4.023
53010W        W25435  11.528  38.044  12.887
53011W        W25436  29.647   8.840   1.005
53012W        W25437  30.892  35.640  11.195
53013W        W25438   9.134  35.589   2.352
53014W        W25439  27.074  12.520  13.543
53015W        W25440   6.448  39.397   4.171
53016W        W25441  14.477  42.517   3.895
53017W        W25442  44.913   2.428   4.471
53018W        W25443  34.818  22.233  11.071
53019W        W25444   4.570  18.958  14.092
53020W        W25445  30.005  17.793  14.001
53021W        W25446   4.702  15.372   4.605
53022W        W25447   2.169  35.039  14.453
53023W        W25448  22.773  26.077  14.363
53024W        W25449  26.555  33.976   2.249
53025W        W25450  36.474   7.622   0.854
53026W        W25451  24.526  18.539   2.417
53027W        W25452  19.219  19.129  11.897
53028W        W25453  33.907   8.205  12.117
53029W        W25454  29.289  33.796   1.461
53030W        W25455   9.711  12.596  14.989
53031W        W25456  17.650  21.540  13.948
53032W        W25457  33.451  26.043  13.541
53033W        W25458  10.566  24.978  11.488
53034W        W25459  27.627  39.009   3.683
53035W        W25460  18.586  38.522  14.390
53036W        W25461  16.533  25.641  13.435
53037W        W25462  41.506  19.809  12.603
53038W        W25463   7.077   9.213  11.875
53039W        W25464  42.481  29.119  14.453
53040W        W25465   6.873  36.524   2.541
53041W        W25466  16.453   4.688  14.425
53042W        W25467  32.199  37.395  10.459
53043W        W25468  21.611  38.862  11.619
53044W        W25469   0.779  39.262   4.679
53045W        W25470  28.676  29.074   4.601
53046W        W25471  43.754  25.050   4.152
53047W        W25472  29.205  29.955   0.911
53048W        W25473  23.707   1.655  14.468
53049W        W25474   1.869   1.053   0.476
53050W        W25475   5.442  30.093   3.187
53051W        W25476  28.669  12.059   3.637
53052W        W25477   2.694  21.509  12.791
53053W        W25478  29.636  14.107   1.366
53054W        W25479  11.564   5.415   1.797
53055W        W25480  11.119   8.171   5.522
53056W        W25481  22.209  10.737   4.632
53057W        W25482  17.720  40.281  11.061
53058W        W25483   5.356  36.068  11.743
53059W        W25484  38.796  25.977   3.145
53060W        W25485   3.712   3.418   5.169
53061W        W25486  29.461  22.813   3.745
53062W        W25487  16.079   1.903   0.725
53063W        W25488   5.852  31.634  14.407
53064W        W25489  14.273   1.706  14.530
53065W        W25490   1.320   7.704   1.811
53066W        W25491  20.092   1.278   0.427
53067W        W25492  20.975  23.130  10.695
53068W        W25493  44.434  28.912  12.940
53069W        W25494  42.130   2.288   4.437
53070W        W25495  36.052  41.751  14.403
53071W        W25496  27.649  25.435   2.231
53072W        W25497   8.408  15.211   2.239
53073W        W25498   7.411  36.549   0.708
53074W        W25499  36.000   7.503   1.498
53075W        W25500  29.434  44.579   1.298
53076W        W25501   3.431  25.160   3.227
53077W        W25502   2.272  15.849   1.506
53078W        W25503  14.056   0.496   0.308
53079W        W25504  11.479   0.854  11.622
53080W        W25505  42.844  11.315  13.548
53081W        W25506  32.981  18.579   3.607
53082W        W25507   6.676  14.289   2.871
53083W        W25508  25.250  39.975   0.964
53084W        W25509  38.561  31.642  12.873
53085W        W25510  15.857  43.276   2.253
53086W        W25511  41.362  31.510   0.634
53087W        W25512  26.036  24.117   2.570
53088W        W25513  31.638  27.872  12.045
53089W        W25514  18.835  34.678   0.478
53090W        W25515   2.756  37.385   0.071
53091W        W25516   4.413   7.592   4.741
53092W        W25517  32.940   3.703  14.374
53093W        W25518  29.472  26.808  13.304
53094W        W25519  13.217  22.575   1.286
53095W        W25520  33.444  44.699   1.716
53096W        W25521  19.658  17.339  14.108
53097W        W25522  37.995  12.076   3.294
53098W        W25523  36.682  38.356  14.228
53099W        W25524  39.655  30.091  14.179
53100W        W25525  43.402  39.011  13.287
53101W        W25526  22.625  11.055   0.326
53102W        W25527  18.736   9.802   0.776
53103W        W25528   2.248  38.526  12.525
53104W        W25529  29.958  25.689  12.218
53105W        W25530  26.816  18.534   1.623
53106W        W25531  26.155  43.071  11.610
53107W        W25532  15.822   2.796   2.204
53108W        W25533  37.226  38.780  13.691
53109W        W25534  32.354  12.945   0.017
53110W        W25535  12.263  17.563   1.351
53111W        W25536   3.283  23.814  13.960
53112W        W25537  36.076  25.898  13.111
53113W        W25538  37.147   0.849   0.620
53114W        W25539  16.598  38.547  12.023
53115W        W25540  19.820  37.438   3.137
53116W        W25541   0.771  40.401  13.540
53117W        W25542  31.694  13.721  14.259
53118W        W25543  39.105  38.945  10.426
53119W        W25544  38.397  27.549  11.041
53120W        W25545  22.023  42.515  11.128
53121W        W25546   2.695  22.248  10.370
53122W        W25547  24.145  39.624   4.960
53123W        W25548  36.382  29.442   4.667
53124W        W25549  23.494  42.783  13.495
53125W        W25550  22.286   1.006  13.931
53126W        W25551   4.516  21.831   1.758
53127W        W25552  39.664  31.243  14.036
53128W        W25553  36.321  38.664  11.939
53129W        W25554  34.474  34.322   4.525
53130W        W25555  20.074  22.485  13.825
53131W        W25556   2.416  25.568  10.822
53132W        W25557  18.778  40.352   4.879
53133W        W25558  24.073  24.937  14.860
53134W        W25559  19.152  32.232   5.432
53135W        W25560   0.350  44.395   0.761
53136W        W25561  23.136  26.812   0.304
53137W        W25562   5.461   7.737   4.230
53138W        W25563  44.906  33.141  12.897
53139W        W25564  40.375  41.739  11.011
53140W        W25565  33.892   8.487  10.765
53141W        W25566  22.298  30.482  12.149
53142W        W25567   2.427   5.315  11.023
53143W        W25568  26.455  39.319  12.709
53144W        W25569   0.929   8.389   4.591
53145W        W25570  32.177  20.216   5.000
53146W        W25571  19.539   9.715  13.866
53147W        W25572  10.436  20.552  12.482
53148W        W25573  29.103  17.028  14.865
53149W        W25574   9.315  12.121   1.255
53150W        W25575  38.393  16.720   0.987
53151W        W25576  40.282  29.652   2.688
53152W        W25577  37.442   9.186   3.889
53153W        W25578  28.169  29.203   0.296
53154W        W25579  11.890   0.778   5.051
53155W        W25580  15.665  32.005  14.980
53156W        W25581  22.478   4.983   5.061
53157W        W25582  20.893  38.981   3.262
53158W        W25583   5.163  19.933  14.564
53159W        W25584  23.493  28.609  14.170
53160W        W25585  35.412  20.705  13.328
53161W        W25586  27.626  15.298   3.041
53162W        W25587  33.005  39.309   3.313
53163W        W25588   7.316  21.561   3.895
53164W        W25589  41.242  12.802   0.672
53165W        W25590  33.933  13.787   0.380
53166W        W25591  35.033   5.790  14.193
53167W        W25592  28.647  24.027   1.722
53168W        W25593  36.904  43.586   1.728
53169W        W25594  31.972   0.021   4.160
53170W        W25595  19.744   7.941   1.336
53171W        W25596  23.101   5.704   4.871
53172W        W25597   7.794  39.022  11.636
53173W        W25598   3.022   9.825  13.952
53174W        W25599   9.871  17.136   4.109
53175W        W25600  20.056  10.243   4.060
53176W        W25601  13.678  21.800  11.913
53177W        W25602   4.171  28.538   1.399
53178W        W25603  13.747  40.386   4.734
53179W        W25604  40.553  19.775  12.470
53180W        W25605   1.428  17.865  12.979
53181W        W25606  15.143  10.862  14.867
53182W        W25607  35.443  11.110  13.384
53183W        W25608  39.870   7.280   4.464
53184W        W25609  26.176  21.978   1.834
53185W        W25610  42.021  28.187   4.097
53186W        W25611  44.714  29.025  13.394
53187W        W25612  44.268  27.189   3.208
53188W        W25613  41.351  39.386  10.657
53189W        W25614  27.972   9.762   4.155
53190W        W25615  41.804  17.135   1.080
53191W        W25616  43.201   3.954   0.956
53192W        W25617  35.587  22.716  12.390
53193W        W25618  14.118  13.113  14.341
53194W        W25619   7.652  24.174   2.823
53195W        W25620  22.799  18.600  11.067
53196W        W25621  32.626   8.110   1.944
53197W        W25622   5.955  32.928   3.615
53198W        W25623  13.233   2.445   2.628
53199W        W25624  29.492  28.035   5.004
53200W        W25625  26.754   2.506  12.946
53201W        W25626  27.736   0.835   3.356
53202W        W25627   9.289  27.199   2.747
53203W        W25628  21.125  33.997  11.552
53204W        W25629   2.371  40.535  10.426
53205W        W25630  40.405  26.920  11.447
53206W        W25631  29.165   9.705  13.121
53207W        W25632  10.826   9.106  12.324
53208W        W25633  42.815  24.235   0.375
53209W        W25634  13.766  20.583   1.332
53210W        W25635  35.116   7.839   1.286
53211W        W25636  30.701  38.229   4.064
53212W        W25637  25.738   0.453   1.941
53213W        W25638  40.861  39.085   4.029
53214W        W25639  15.872   5.031   4.273
53215W        W25640  16.219  43.384  12.556
53216W        W25641  13.719  38.545  10.473
53217W        W25642  18.198  36.927  12.065
53218W        W25643  35.988   6.940  11.302
53219W        W25644  23.565   3.416  10.911
53220W        W25645  26.095  40.396  14.884
53221W        W25646  20.807   4.213  13.054
53222W        W25647  15.722  37.159   3.288
53223W        W25648   8.815   5.386   2.176
53224W        W25649  40.821  44.918   2.353
53225W        W25650  38.301  30.082   2.559
53226W        W25651  11.859  14.931   0.327
53227W        W25652  15.401  40.959  14.080
53228W        W25653  37.916  24.173  11.352
53229W        W25654  28.819  42.773   4.168
53230W        W25655  41.403  30.598  10.560
53231W        W25656   1.733  42.260   4.090
53232W        W25657  10.097  41.787   4.191
53233W        W25658   9.190  42.896   3.305
53234W        W25659  31.015  24.340  11.487
53235W        W25660   7.250  29.008   2.451
53236W        W25661  38.924  13.835  13.804
53237W        W25662  44.289  41.228  12.446
53238W        W25663  16.735   3.841   1.441
53239W        W25664  32.350   2.460  14.382
53240W        W25665  42.624   7.372   1.922
53241W        W25666  44.512  40.499  11.048
53242W        W25667  40.766  25.958   3.213
53243W        W25668  28.846  40.389  13.449
53244W        W25669   0.251   0.998   3.811
53245W        W25670  21.707  37.080   3.304
53246W        W25671  28.068  11.866   2.832
53247W        W25672  10.455  36.124   0.757
53248W        W25673   5.825  30.042   0.437
53249W        W25674  34.916  15.148   1.791
53250W        W25675  27.993   8.904   2.073
53251W        W25676  38.446   1.908   4.943
53252W        W25677  22.743   8.944  14.890
53253W        W25678  15.681  20.014  11.419
53254W        W25679  22.928   7.922   3.570
53255W        W25680  37.048   6.063  11.718
53256W        W25681   0.787  44.381   0.451
53257W        W25682   7.400   3.941   0.030
53258W        W25683   6.622  10.708   1.227
53259W        W25684  11.189  13.279  10.623
53260W        W25685  21.582  21.155  13.540
53261W        W25686   7.263  18.679   2.098
53262W        W25687  27.170  36.613  12.086
53263W        W25688  43.392  43.644  12.513
53264W        W25689  25.305   1.766   3.824
53265W        W25690  40.427  34.553   0.992
53266W        W25691  17.232  37.661  10.039
53267W        W25692   1.765  37.879  11.471
53268W        W25693  12.312  34.433  11.547
53269W        W25694  42.450  36.798   4.149
53270W        W25695  24.611   4.589  12.459
53271W        W25696  39.907  18.806   4.022
53272W        W25697  43.846  10.581   1.718
53273W        W25698  34.025   2.362   3.152
53274W        W25699  40.827  16.679  13.245
53275W        W25700   9.304  32.238  10.629
53276W        W25701  44.981  26.980  13.433
53277W        W25702  30.612  23.705   2.346
53278W        W25703   3.228  42.926  13.497
53279W        W25704  41.369  23.793   0.997
53280W        W25705   8.890   8.655  12.878
53281W        W25706  28.181   9.831  10.739
53282W        W25707  12.028  41.277  11.980
53283W        W25708  21.793  27.523  13.451
53284W        W25709  19.297   4.270  10.720
53285W        W25710  32.048  36.885   0.157
53286W        W25711  24.605  27.642   3.367
53287W        W25712  22.806  44.728  14.336
53288W        W25713  41.064   6.018   4.848
53289W        W25714  33.366  27.451   1.066
53290W        W25715  23.584  42.208  12.345
53291W        W25716  26.725   8.155   0.365
53292W        W25717  21.580   0.987   4.459
53293W        W25718  39.935  32.406   2.140
53294W        W25719  40.029  27.763   0.880
53295W        W25720  32.402   2.738  13.038
53296W        W25721  12.341  40.010   1.471
53297W        W25722  27.249  30.629  14.310
53298W        W25723   9.676   0.388  14.327
53299W        W25724  43.698   6.615   1.515
53300W        W25725   6.292  15.152  13.668
53301W        W25726   1.435   0.728  12.426
53302W        W25727  26.961   2.436  11.939
53303W        W25728   4.213  12.205   2.000
53304W        W25729  17.985   4.170  11.878
53305W        W25730  41.235  24.523   0.315
53306W        W25731  26.601  42.049   3.709
53307W        W25732  43.578  40.422   3.213
53308W        W25733   8.674  13.364   0.050
53309W        W25734  28.485  33.677   0.863
53310W        W25735  17.003  19.185   2.393
53311W        W25736  24.510  26.441   3.817
53312W        W25737   4.926  40.013   3.608
53313W        W25738  36.372   0.744   1.928
53314W        W25739  15.051  18.550   3.601
53315W        W25740   5.837   1.322   3.113
53316W        W25741  33.545   9.291   2.669
53317W        W25742   2.893   1.300   0.837
53318W        W25743   6.376  24.513   0.881
53319W        W25744  10.889  42.683  11.097
53320W        W25745   1.458  35.958  12.988
53321W        W25746  28.239  31.038   2.172
53322W        W25747  23.925  27.949  14.452
53323W        W25748  21.963   4.970  13.290
53324W        W25749  15.736  21.271   1.932
53325W        W25750  41.797  22.012  13.822
53326W        W25751  26.952  35.305  11.630
53327W        W25752  20.913  21.178  12.820
53328W        W25753   4.844  40.476  10.232
53329W        W25754  42.400  32.223   3.845
53330W        W25755  37.377  36.840   0.861
53331W        W25756   3.749  18.630  13.132
53332W        W25757   3.873   6.767  14.638
53333W        W25758   4.207  43.156   4.841
53334W        W25759  17.682  30.668  13.083
53335W        W25760   7.123  44.717   0.387
53336W        W25761  34.049  36.164  12.330
53337W        W25762  35.107   3.575  14.861
53338W        W25763  22.020   8.682  11.075
53339W        W25764  42.446  17.307   3.639
53340W        W25765   8.599  24.216   0.904
53341W        W25766  35.548  32.250  12.536
53342W        W25767  10.913  27.579   4.094
53343W        W25768  34.604   0.723   0.466
53344W        W25769  38.121  43.913   9.779
53345W        W25770  40.515  42.273  14.794
53346W        W25771  34.436  16.241  12.313
53347W        W25772  15.897   0.061   0.500
53348W        W25773  26.961  41.606  13.914
53349W        W25774  36.100  18.015  12.527
53350W        W25775  35.489  42.979   1.293
53351W        W25776  11.195   7.877  14.672
53352W        W25777  10.470  35.338   3.560
53353W        W25778  12.382  43.668   1.409
53354W        W25779  37.025  40.487   0.968
53355W        W25780   0.486   9.218  10.433
53356W        W25781   4.384  29.601   3.809
53357W        W25782  36.911  27.404   3.175
53358W        W25783  31.146  12.553  11.913
53359W        W25784  32.493  39.465   3.274
53360W        W25785   1.835   0.064   3.847
53361W        W25786  10.451  44.777  13.511
53362W        W25787  41.326  27.788  13.904
53363W        W25788  21.217  22.100   0.776
53364W        W25789   4.790  32.345  13.533
53365W        W25790  39.859  19.238  13.537
53366W        W25791  14.116  13.304  13.461
53367W        W25792   0.412  23.922  10.688
53368W        W25793  11.223  15.286   1.926
53369W        W25794  37.885  19.894   3.620
53370W        W25795   2.526  19.296   1.273
53371W        W25796  18.377   5.353  13.846
53372W        W25797  17.143  24.962  14.050
53373W        W25798  37.896  29.095   1.223
53374W        W25799  26.669   0.470   3.742
53375W        W25800  36.626   5.226   3.215
53376W        W25801  12.554  20.800   2.210
53377W        W25802  17.871  34.145   1.149
53378W        W25803  38.401  32.455  10.654
53379W        W25804  28.806   8.817  11.153
53380W        W25805   7.231  43.056  11.393
53381W        W25806   5.689  43.253  13.476
53382W        W25807  24.734  30.766   4.531
53383W        W25808  36.912   0.500   4.641
53384W        W25809  42.359  15.348   0.462
53385W        W25810   3.635  15.624  14.994
53386W        W25811  19.704   3.830   1.446
53387W        W25812  39.869  35.396  14.968
53388W        W25813  18.066   2.292  13.962
53389W        W25814  35.853  35.119  12.943
53390W        W25815   9.734  20.633  13.544
53391W        W25816  39.641  33.709  11.922
53392W        W25817  14.187  38.604   4.696
53393W        W25818  34.314  40.724  10.530
53394W        W25819  41.349  29.926   1.094
53395W        W25820  12.757  28.290  12.369
53396W        W25821  43.805  27.973   4.773
53397W        W25822  27.510  27.480  13.898
53398W        W25823  31.389   6.309   4.341
53399W        W25824   0.824  17.097  12.918
53400W        W25825  28.667  41.497   0.227
53401W        W25826  21.798  21.346   1.344
53402W        W25827  44.450  36.964  12.992
53403W        W25828   0.143  27.101  11.204
53404W        W25829   1.001   6.627   3.908
53405W        W25830  27.258   2.314   1.662
53406W        W25831   4.414  13.684   1.336
53407W        W25832  44.686  10.362   4.597
53408W        W25833  23.088  41.701   2.878
53409W        W25834  19.124  10.212   0.910
53410W        W25835  16.168   1.732   3.170
53411W        W25836  10.212   1.003   5.221
53412W        W25837  16.750   8.280  10.954
53413W        W25838   5.946  21.750   4.551
53414W        W25839  19.582  23.786  13.606
53415W        W25840  22.106   7.197   4.597
53416W        W25841  17.682  11.308   2.663
53417W        W25842   8.761   3.210  10.471
53418W        W25843  13.933  28.667  10.716
53419W        W25844  37.129   2.173  13.015
53420W        W25845  27.559  31.630   2.313
53421W        W25846  21.922  32.451  11.698
53422W        W25847  14.394  10.895  13.569
53423W        W25848  37.211   3.931  11.578
53424W        W25849  29.587  35.537  11.160
53425W        W25850  13.267  27.378  13.771
53426W        W25851   8.212  22.478   3.699
53427W        W25852  16.128  23.892  11.528
53428W        W25853  10.588  30.665  14.934
53429W        W25854   7.032  33.058  11.507
53430W        W25855  11.029  23.150  12.403
53431W        W25856  11.392  17.359   1.789
53432W        W25857  23.517  15.375  14.274
53433W        W25858  27.655  21.646   3.270
53434W        W25859  36.023   5.000   3.742
53435W        W25860  43.904  20.613  12.587
53436W        W25861  26.682  39.445   1.052
53437W        W25862  30.572  38.370  10.623
53438W        W25863  42.217  14.863  12.967
53439W        W25864   5.162  23.167   2.309
53440W        W25865  40.455   3.494   2.722
53441W        W25866  12.169  19.255   0.953
53442W        W25867  26.625  43.046   2.681
53443W        W25868   9.878  37.727  13.051
53444W        W25869  31.946  19.259  11.649
53445W        W25870   3.189  44.282   2.853
53446W        W25871  38.792  18.605  12.859
53447W        W25872  36.634   8.142  12.075
53448W        W25873  39.957  39.127   2.340
53449W        W25874  32.695  22.266  12.616
53450W        W25875   5.862   4.862  10.545
53451W        W25876  39.949  42.102  12.664
53452W        W25877  22.019   3.553   2.889
53453W        W25878  33.522  39.928   1.507
53454W        W25879  20.580  36.055   1.846
53455W        W25880  42.466   6.898  10.637
53456W        W25881   6.904   5.914   4.790
53457W        W25882  10.580   9.335   2.660
53458W        W25883  18.511  15.596   0.949
53459W        W25884  36.014  24.242   1.685
53460W        W25885  13.578   2.268  13.946
53461W        W25886  33.955   2.278  12.290
53462W        W25887  10.430   6.978   1.893
53463W        W25888  36.953  14.201  10.914
53464W        W25889  36.067  29.221   1.201
53465W        W25890   6.425  13.554  14.928
53466W        W25891   1.153   7.939   4.160
53467W        W25892  33.940  37.888  12.062
53468W        W25893  31.816   1.751   2.315
53469W        W25894  33.042  27.125   2.215
53470W        W25895  43.546  34.673  13.134
53471W        W25896   7.640  16.731  14.463
53472W        W25897  26.973  23.642  14.356
53473W        W25898  14.752   2.301  11.619
53474W        W25899  19.275  39.412   3.721
53475W        W25900  31.761  17.913  11.078
53476W        W25901  23.408  14.151   1.310
53477W        W25902  30.152  43.925   2.253
53478W        W25903   8.353  15.455  11.173
53479W        W25904  33.654  18.637   1.842
53480W        W25905  39.787  27.722  14.806
53481W        W25906   9.875  26.905   0.817
53482W        W25907   6.205  21.804  11.623
53483W        W25908   5.480  14.111   2.487
53484W        W25909  37.963  12.616  14.341
53485W        W25910  10.569  13.732   0.720
53486W        W25911  13.342  26.700  11.479
53487W        W25912  13.709   6.358   3.642
53488W        W25913  14.228  11.396   1.714
53489W        W25914  32.612  33.939   3.651
53490W        W25915   3.166  18.655  14.391
53491W        W25916  21.379  22.584   0.669
53492W        W25917  28.483  12.895   0.345
53493W        W25918   2.008  23.942   3.870
53494W        W25919  41.559  10.167  14.745
53495W        W25920  24.913  21.513   2.739
53496W        W25921   0.253  17.612   0.484
53497W        W25922  39.937   7.218   1.345
53498W        W25923   3.173  26.156  13.417
53499W        W25924  40.082  32.855   0.293
53500W        W25925  41.026  28.546   2.886
53501W        W25926  15.997  35.398  11.022
53502W        W25927   8.709   4.300   3.866
53503W        W25928  40.372  18.059  12.694
53504W        W25929   2.442   5.330   4.539
53505W        W25930  22.775   1.069  11.129
53506W        W25931  28.653   0.492   4.752
53507W        W25932  19.638  28.023  11.651
53508W        W25933  15.279   6.885   4.028
53509W        W25934   5.428  18.313   1.720
53510W        W25935   5.411  39.341  11.200
53511W        W25936  19.644  41.795  12.272
53512W        W25937  35.787  41.308  12.964
53513W        W25938  20.623  44.876   0.183
53514W        W25939  32.582  43.357  14.373
53515W        W25940  23.279  18.091  14.000
53516W        W25941  22.353  44.859   1.385
53517W        W25942  27.472  33.187  14.292
53518W        W25943  24.029  23.550   4.090
53519W        W25944  29.722  34.125  14.731
53520W        W25945  14.524  27.122   1.317
53521W        W25946  31.483  30.978  12.616
53522W        W25947   3.356  29.123  11.524
53523W        W25948  13.757  21.599   2.246
53524W        W25949  14.688   8.352   2.242
53525W        W25950   4.243  33.014   3.085
53526W        W25951   2.029  22.125  11.183
53527W        W25952   6.687   1.043   1.831
53528W        W25953  20.057  44.543   0.022
53529W        W25954  27.195  28.026   0.194
53530W        W25955   3.939  42.941  14.004
53531W        W25956  29.086  36.146  11.694
53532W        W25957  43.502   0.433  14.456
53533W        W25958  10.706  32.091  12.069
53534W        W25959  19.104  22.491  13.369
53535W        W25960   0.329   9.973   3.429
53536W        W25961  41.787  30.949  10.696
53537W        W25962  42.536   7.093  11.867
53538W        W25963  37.564  24.383  14.353
53539W        W25964  27.104  10.356  13.154
53540W        W25965  20.605   6.652   2.651
53541W        W25966  38.549  18.813  12.461
53542W        W25967   5.867   4.494  12.967
53543W        W25968   3.413   8.149   0.489
53544W        W25969   3.541  19.768   1.969
53545W        W25970  10.495  22.504  11.540
53546W        W25971   4.091  38.891   1.279
53547W        W25972  10.064  30.450   4.580
53548W        W25973  40.972  40.074  11.092
53549W        W25974  37.684  23.016   3.762
53550W        W25975  39.322   5.951  12.010
53551W        W25976   1.795  42.571   0.032
53552W        W25977  21.476   5.348  11.204
53553W        W25978  38.370  41.821   4.589
53554W        W25979  43.853  12.603   2.287
53555W        W25980  34.960  28.546   2.879
53556W        W25981   7.216  21.783  13.813
53557W        W25982  39.491  24.622  12.011
53558W        W25983  15.356  13.174   2.223
53559W        W25984  42.467   9.271   0.223
53560W        W25985  23.623  40.363  13.088
53561W        W25986  27.565  17.215  12.850
53562W        W25987  29.695   1.764  12.028
53563W        W25988   4.722  33.948   2.903
53564W        W25989  21.797  14.822  14.397
53565W        W25990  10.510  22.564  13.221
53566W        W25991  29.017  18.522   0.727
53567W        W25992   1.448  27.077   1.095
53568W        W25993  11.987  22.087  14.094
53569W        W25994  32.891   2.290  11.667
53570W        W25995  41.169  13.300   2.740
53571W        W25996  22.472   0.412  10.640
53572W        W25997  25.125  44.407   4.383
53573W        W25998  29.450  40.091   5.058
53574W        W25999  24.963  20.572   0.576
53575W        W26000  37.931  27.223   1.367
53576W        W26001  27.091  43.925  13.762
53577W        W26002  18.592   2.076  14.769
53578W        W26003  42.029   5.216  11.980
53579W        W26004  14.817  30.488  14.903
53580W        W26005  33.815  41.769   3.795
53581W        W26006  35.510   3.377   1.019
53582W        W26007  25.294  15.885  10.355
53583W        W26008  16.206   2.792  10.812
53584W        W26009  21.784   3.915   1.912
53585W        W26010   8.380  24.691   0.012
53586W        W26011  23.532   4.775   4.183
53587W        W26012  13.856  20.305   4.559
53588W        W26013   5.399  28.718   4.412
53589W        W26014   4.876  22.249   0.517
53590W        W26015  44.583   6.310  11.176
53591W        W26016  21.086  39.741  12.421
53592W        W26017   0.261  39.480  13.344
53593W        W26018  16.969  37.521  14.758
53594W        W26019   9.755  15.637   0.244
53595W        W26020  35.073   3.341  12.030
53596W        W26021  39.074  37.472   1.711
53597W        W26022  16.547  32.554  12.448
53598W        W26023  29.748  35.490  10.672
53599W        W26024   2.506  29.137   4.528
53600W        W26025  12.777   5.620  10.391
53601W        W26026  20.462  16.582  11.983
53602W        W26027  41.383  34.639  12.018
53603W        W26028  18.815   5.047  13.851
53604W        W26029  33.125  28.966  13.608
53605W        W26030  26.951   4.859  10.730
53606W        W26031  38.672  16.311  14.420
53607W        W26032   6.271  23.104   0.822
53608W        W26033  28.940  17.361   3.189
53609W        W26034   9.663   2.435  11.733
53610W        W26035   4.109   6.126  10.587
53611W        W26036  18.515   5.266   3.640
53612W        W26037  25.140  18.722  11.459
53613W        W26038  38.811  44.570   4.692
53614W        W26039  30.031  40.392   3.447
53615W        W26040  14.253  39.726  12.409
53616W        W26041  20.667  27.678   1.492
53617W        W26042  34.316  25.294   3.903
53618W        W26043  44.918  13.153   0.460
53619W        W26044  19.722   5.698   4.633
53620W        W26045  12.228  26.215   2.390
53621W        W26046   9.635  16.713   1.359
53622W        W26047  11.190  35.992  11.438
53623W        W26048  29.675  20.505  11.563
53624W        W26049  37.502  34.971   1.745
53625W        W26050  20.081  14.363   3.704
53626W        W26051   2.838  16.060  12.177
53627W        W26052   0.464   0.869   0.246
53628W        W26053   7.665  27.234   1.881
53629W        W26054  11.304  28.452   4.474
53630W        W26055  32.473  25.267  11.179
53631W        W26056  43.325  13.625  13.380
53632W        W26057  33.838  13.296   3.173
53633W        W26058  44.316  26.553  14.777
53634W        W26059   9.806  13.121   2.898
53635W        W26060   0.390  14.354   0.280
53636W        W26061  30.039   5.204   3.224
53637W        W26062  14.807  21.837  14.400
53638W        W26063   8.398  36.195  11.068
53639W        W26064  21.280  21.440  14.730
53640W        W26065  38.853  24.746  10.039
53641W        W26066  40.354  40.869  10.541
53642W        W26067  34.695  28.736  13.492
53643W        W26068  17.628  23.675   3.223
53644W        W26069   4.802   1.474   0.762
53645W        W26070  43.246  13.421   4.221
53646W        W26071  25.478  41.067  12.371
53647W        W26072  34.162  14.887  12.205
53648W        W26073   0.766  42.394   4.290
53649W        W26074  20.013  11.945  14.533
53650W        W26075   7.525  42.272  13.041
53651W        W26076  17.887  20.047   2.651
53652W        W26077   1.476  24.078  10.344
53653W        W26078  41.356   6.019  11.665
53654W        W26079  14.030  34.783   2.784
53655W        W26080  43.064  28.543  14.053
53656W        W26081   7.699   8.482   5.483
53657W        W26082   5.340  23.284   0.004
53658W        W26083  24.448   5.438   0.023
53659W        W26084   5.294   0.326   1.912
53660W        W26085  37.419   0.705  12.118
53661W        W26086  35.781  11.369  12.529
53662W        W26087  40.976  38.639  14.517
53663W        W26088  42.723   6.425   4.443
53664W        W26089   6.608   2.662   4.187
53665W        W26090   6.218   2.740  11.201
53666W        W26091  22.215  18.914   1.022
53667W        W26092  25.496   4.856  11.172
53668W        W26093   9.796  37.265   5.194
53669W        W26094  35.705   0.886   4.873
53670W        W26095  13.940   3.387  12.597
53671W        W26096  43.824  14.132   2.049
53672W        W26097   6.929  23.960   2.300
53673W        W26098  19.715  25.572  14.391
53674W        W26099  24.690  18.813   1.774
53675W        W26100  29.422   7.142  14.932
53676W        W26101  40.584  25.402   2.278
53677W        W26102  11.315   1.128   0.908
53678W        W26103  37.473   9.141  14.497
53679W        W26104  31.427   5.833   4.122
53680W        W26105  19.173  41.868   1.355
53681W        W26106   9.207   6.656  14.470
53682W        W26107  37.525  16.598   4.117
53683W        W26108  38.543  30.778   3.009
53684W        W26109   0.767   7.187   0.230
53685W        W26110  39.825  42.325   9.860
53686W        W26111  40.804  19.981   2.803
53687W        W26112  33.509  28.501  14.536
53688W        W26113  34.424   6.838   3.271
53689W        W26114  23.239  41.330  10.682
53690W        W26115   5.770  40.766  11.451
53691W        W26116  44.709  30.140   0.013
53692W        W26117   8.725  14.367   3.303
53693W        W26118  29.009  25.434   2.669
53694W        W26119  12.174  32.132  11.059
53695W        W26120  23.183  13.877   1.715
53696W        W26121   8.419  16.695  11.609
53697W        W26122  21.672   8.917   2.266
53698W        W26123  36.511  36.360  12.937
53699W        W26124  30.420  23.537   1.826
53700W        W26125  18.141   7.701   2.152
53701W        W26126   9.190  13.361  12.829
53702W        W26127  36.581  19.251  10.650
53703W        W26128  16.866  10.460   4.546
53704W        W26129  44.504  44.983   2.822
53705W        W26130   7.937  41.665   2.687
53706W        W26131  20.298  37.370  12.409
53707W        W26132  16.619  18.888  12.421
53708W        W26133  12.689  40.726   2.728
53709W        W26134  21.993   8.895  14.015
53710W        W26135  41.812   8.632  11.829
53711W        W26136  25.548  19.095  10.785
53712W        W26137  16.663   0.497   3.727
53713W        W26138   8.802   0.919  14.020
53714W        W26139  34.569  35.797   4.012
53715W        W26140  33.167  12.898  10.649
53716W        W26141   7.918   2.439  13.934
53717W        W26142  42.577   5.617  11.168
53718W        W26143  31.521   1.726  13.018
53719W        W26144  12.913  29.381  14.007
53720W        W26145   0.712  23.020  13.394
53721W        W26146   3.521  22.575  13.484
53722W        W26147  10.757  37.119   4.082
53723W        W26148  25.482   0.458  12.112
53724W        W26149  38.810  42.998  13.597
53725W        W26150   3.711  39.761  14.354
53726W        W26151  19.236   7.180  14.461
53727W        W26152   6.511   9.802  14.339
53728W        W26153  43.235  25.974  12.866
53729W        W26154  37.963   0.367   0.782
53730W        W26155   6.792  41.488  12.974
53731W        W26156  30.021  28.672   4.842
53732W        W26157  35.460  28.698  11.715
53733W        W26158   4.679  25.006   1.229
53734W        W26159  27.162   2.760   4.353
53735W        W26160  27.517  30.925   4.945
53736W        W26161  15.664  43.676  14.419
53737W        W26162   0.288   8.391   0.373
53738W        W26163  19.969  18.334   3.593
53739W        W26164   1.429  30.571  14.432
53740W        W26165  42.436  40.735   1.961
53741W        W26166  18.404  23.029  11.419
53742W        W26167  39.473   8.692   1.275
53743W        W26168  19.344  44.006  10.638
53744W        W26169  16.670  18.098   2.045
53745W        W26170  31.584  30.406  13.374
53746W        W26171  22.506  21.066   1.877
53747W        W26172  21.229  27.776  14.521
53748W        W26173  17.740   4.341   1.876
53749W        W26174  22.301  44.247   0.256
53750W        W26175  27.868  16.803   4.779
53751W        W26176  15.872  25.193  11.474
53752W        W26177  44.373  33.990  13.092
53753W        W26178  38.888   9.659   3.692
53754W        W26179  23.145  19.575  14.333
53755W        W26180  34.763  31.320   0.480
53756W        W26181  35.385  35.046  13.139
53757W        W26182  42.404  15.976   1.795
53758W        W26183   8.990  20.231  14.488
53759W        W26184  35.361  17.509   0.709
53760W        W26185  16.278   1.603   5.444
53761W        W26186  40.905  32.950  10.715
53762W        W26187  34.522  39.813  12.309
53763W        W26188  31.150  43.493   1.832
53764W        W26189   6.338  16.235   3.252
53765W        W26190  36.778   6.493   2.871
53766W        W26191  28.475  10.649  13.999
53767W        W26192  14.209  10.124   0.970
53768W        W26193  37.080  24.879  12.960
53769W        W26194  40.111  19.758   0.757
53770W        W26195  40.926   0.888   2.847
53771W        W26196   2.148  11.834   3.774
53772W        W26197  26.548  33.092  13.993
53773W        W26198  31.061   5.209  14.495
53774W        W26199  18.349  26.944   0.711
53775W        W26200  40.139   3.583  14.618
53776W        W26201  26.564   7.337  12.601
53777W        W26202  35.422  33.101   4.585
53778W        W26203   9.082   5.641  10.655
53779W        W26204  40.284  28.349  12.541
53780W        W26205  37.447  34.366  10.544
53781W        W26206  31.998  16.669  12.827
53782W        W26207  38.858  36.798   2.731
53783W        W26208  44.210  24.529  14.396
53784W        W26209   3.698  25.128  13.308
53785W        W26210  44.036  40.376   2.262
53786W        W26211  31.628  16.318   3.773
53787W        W26212   3.826  23.938   0.329
53788W        W26213  28.035  26.643  10.187
53789W        W26214  21.681  24.538  13.722
53790W        W26215  17.177   0.504   2.742
53791W        W26216   0.212  31.653  14.493
53792W        W26217  27.683  22.943  13.895
53793W        W26218  31.970   7.892  12.019
53794W        W26219  22.115  29.540   1.521
53795W        W26220  23.075  21.570   0.424
53796W        W26221  16.053  37.541   4.533
53797W        W26222  12.236  19.117   3.185
53798W        W26223  23.530  24.996  10.412
53799W        W26224  38.812   1.457   2.773
53800W        W26225  23.895   6.252  12.525
53801W        W26226  35.456  19.496   0.760
53802W        W26227   3.363  34.995   2.807
53803W        W26228  32.078  39.814  12.384
53804W        W26229  20.537  33.617   0.797
53805W        W26230  31.913  13.290   3.276
53806W        W26231  26.151  25.063  12.436
53807W        W26232  12.829  27.377  14.025
53808W        W26233  26.975  12.243   1.681
53809W        W26234  14.095  23.556   4.080
53810W        W26235  36.593  15.647  10.337
53811W        W26236  20.191   2.267   1.269
53812W        W26237  44.264  12.144  13.037
53813W        W26238  20.547   8.745   0.846
53814W        W26239  14.660   9.492   3.222
53815W        W26240   5.426  36.409   2.201
53816W        W26241  25.557  13.730   4.554
53817W        W26242   7.854  39.429   4.903
53818W        W26243   2.771   5.845  14.510
53819W        W26244  23.118  14.316  13.396
53820W        W26245  18.632  30.546  12.822
53821W        W26246   0.039   9.910   2.798
53822W        W26247  14.759  17.132  10.591
53823W        W26248  32.319  16.028   2.138
53824W        W26249  36.346  39.246   0.267
53825W        W26250  12.815  14.876   0.325
53826W        W26251   8.334  33.308   3.988
53827W        W26252  40.580   3.791   3.365
53828W        W26253  36.385  15.207  13.997
53829W        W26254  40.519  25.199   4.919
53830W        W26255   5.103  34.951   0.024
53831W        W26256  24.408  18.569   0.750
53832W        W26257  30.988  42.080   1.859
53833W        W26258  34.859   9.936   0.866
53834W        W26259  37.574  36.589  12.893
53835W        W26260  34.780  33.894   4.536
53836W        W26261  13.763  37.897   4.707
53837W        W26262  16.798   9.341  12.799
53838W        W26263  41.233  19.121   3.840
53839W        W26264  23.643  42.483  14.566
53840W        W26265  17.821  22.582  10.587
53841W        W26266  32.067   4.074   3.266
53842W        W26267  21.296  17.727   2.953
53843W        W26268  14.574  42.291   1.323
53844W        W26269  29.900   2.486   2.769
53845W        W26270  35.715  43.829   4.055
53846W        W26271   3.458  44.835  14.691
53847W        W26272  29.929  41.851   2.207
53848W        W26273  22.664  25.573  12.582
53849W        W26274  44.815  33.914  14.984
53850W        W26275   8.096  27.214   0.296
53851W        W26276   7.381  34.823   4.599
53852W        W26277  35.128  40.723   4.057
53853W        W26278  12.870   9.664  12.473
53854W        W26279  40.036   1.948   0.702
53855W        W26280  23.579  21.093  14.744
53856W        W26281  26.121  15.821  11.528
53857W        W26282   0.732  14.798  14.040
53858W        W26283  13.382  17.855  12.845
53859W        W26284   6.906  40.343   0.914
53860W        W26285  12.630  15.015  11.704
53861W        W26286  10.656  37.878   1.758
53862W        W26287   0.818  12.772  12.088
53863W        W26288  13.186  34.843  13.896
53864W        W26289  25.809  13.221   2.378
53865W        W26290  10.761  11.705  13.750
53866W        W26291  20.758  14.123  13.935
53867W        W26292  39.411   5.402  14.577
53868W        W26293  14.392  29.489  13.005
53869W        W26294  33.512  13.684   0.017
53870W        W26295  24.183  12.600  11.451
53871W        W26296   6.966  42.991   4.533
53872W        W26297  30.559  15.891   0.973
53873W        W26298  42.507  35.021  13.890
53874W        W26299  40.838   5.929  11.687
53875W        W26300  14.669   4.168  12.684
53876W        W26301  36.026  44.555   1.892
53877W        W26302  24.813  25.093   0.423
53878W        W26303  36.280  41.827   1.761
53879W        W26304  10.111  42.376  12.354
53880W        W26305  43.912  36.560   4.970
53881W        W26306  18.097  30.545  10.134
53882W        W26307   3.255  26.748   2.334
53883W        W26308  25.252  24.397   0.236
53884W        W26309  25.107  38.262  12.962
53885W        W26310  34.633  41.483  14.082
53886W        W26311  37.915  21.179   3.318
53887W        W26312  34.388   8.679   0.782
53888W        W26313  22.049  20.183   2.078
53889W        W26314  15.088  17.629   2.725
53890W        W26315  21.167   4.725   4.814
53891W        W26316  31.539  31.936   4.106
53892W        W26317  16.196  15.831  14.457
53893W        W26318  27.136  32.466   0.207
53894W        W26319  41.219  23.097  13.891
53895W        W26320  13.007  29.175  11.440
53896W        W26321  16.718  23.624  14.429
53897W        W26322  38.307   8.675   4.324
53898W        W26323   4.984  26.029  10.994
53899W        W26324   5.952  34.686   3.848
53900W        W26325  40.733   2.877   3.467
53901W        W26326  25.707  34.782  10.721
53902W        W26327  41.470  44.567   9.685
53903W        W26328  37.827  29.930   1.650
53904W        W26329  17.687   6.170   3.337
53905W        W26330  29.115  30.206   0.454
53906W        W26331   4.203  11.407  14.032
53907W        W26332  16.390  26.400   3.128
53908W        W26333  10.690  12.716   4.629
53909W        W26334  16.837  13.599   0.074
53910W        W26335  34.966   8.879  10.628
53911W        W26336  27.556  25.174  11.274
53912W        W26337  12.199  31.266   3.088
53913W        W26338  37.051   1.873   3.053
53914W        W26339  38.964   1.246   1.222
53915W        W26340   0.780  37.910  11.398
53916W        W26341  14.239  35.831  11.268
53917W        W26342   7.077  37.572  14.492
53918W        W26343  38.853   5.105  12.126
53919W        W26344  26.759  31.694   0.074
53920W        W26345  21.581   3.973   4.719
53921W        W26346   8.342  41.378   2.310
53922W        W26347   4.478  39.596   2.458
53923W        W26348   0.931  44.804  13.888
53924W        W26349  27.648  39.442   4.485
53925W        W26350  37.901  12.622   3.671
53926W        W26351  41.964  23.018   0.342
53927W        W26352  12.268  17.022   1.368
53928W        W26353  37.087  21.044   5.017
53929W        W26354  17.575   3.767   0.236
53930W        W26355  35.903  23.663   5.037
53931W        W26356  25.591   8.961   2.660
53932W        W26357   1.945  41.048   3.910
53933W        W26358  41.032  33.880  14.055
53934W        W26359  12.807  41.104  12.048
53935W        W26360  43.928  15.648   2.795
53936W        W26361  11.022  28.624   0.721
53937W        W26362  10.422  26.238  12.594
53938W        W26363  19.819  21.449  11.431
53939W        W26364  41.543  36.035   1.386
53940W        W26365  16.613  39.884  10.583
53941W        W26366  15.695  32.607  14.561
53942W        W26367  29.559  28.459   4.748
53943W        W26368  43.787  26.997   3.206
53944W        W26369  18.008  19.222  13.085
53945W        W26370  10.156  23.517  14.306
53946W        W26371  17.301  40.857  11.495
53947W        W26372   8.717  37.886  11.411
53948W        W26373  17.175  42.074   1.529
53949W        W26374  39.372   4.653  11.633
53950W        W26375  32.519   9.356   2.576
53951W        W26376   6.854   5.425   1.782
53952W        W26377  10.342  15.270   5.061
53953W        W26378  38.046  26.425   1.833
53954W        W26379  39.351  41.453  12.130
53955W        W26380  17.257  19.411   2.806
53956W        W26381   8.216  20.449  12.009
53957W        W26382  41.478   9.171   3.887
53958W        W26383  26.405   0.321  14.849
53959W        W26384  43.835  22.777   0.392
53960W        W26385  37.071  40.421   3.683
53961W        W26386  10.271  43.445  14.477
53962W        W26387  10.629  19.472  10.853
53963W        W26388  18.075  20.265   3.798
53964W        W26389  39.546   6.685   1.250
53965W        W26390  15.293   9.694   3.241
53966W        W26391  28.980   3.736  10.741
53967W        W26392   4.290  23.562   0.738
53968W        W26393  38.048  29.039   0.700
53969W        W26394  36.423  30.125   1.940
53970W        W26395  18.275  31.230  12.330
53971W        W26396  34.512  24.442   4.668
53972W        W26397  12.006  24.243  13.868
53973W        W26398  44.383  20.838  12.877
53974W        W26399  41.937  25.863  11.529
53975W        W26400   3.185  22.150   2.167
53976W        W26401  36.627   6.538   3.678
53977W        W26402  37.947  34.566  10.404
53978W        W26403  42.271  18.745  12.686
53979W        W26404  36.333   4.358  11.620
53980W        W26405  42.291  32.911   0.228
53981W        W26406  38.872  23.165   4.507
53982W        W26407   2.803  31.327  13.386
53983W        W26408  16.813  18.606  12.042
53984W        W26409  39.810   9.627  13.803
53985W        W26410  35.035  23.470  13.350
53986W        W26411   6.184   4.823   0.806
53987W        W26412  36.301  21.258  14.308
53988W        W26413  38.077   2.215  11.499
53989W        W26414  13.619  37.487   1.722
53990W        W26415  18.374  20.094   4.190
53991W        W26416  44.334  44.353  12.141
53992W        W26417  28.722   8.842   1.092
53993W        W26418  23.776  27.103  11.093
53994W        W26419  26.695  23.198   3.643
53995W        W26420  19.720  35.522  13.710
53996W        W26421  24.188  33.163  12.914
53997W        W26422  35.428   8.138  11.215
53998W        W26423  39.331  21.009   0.899
53999W        W26424   1.355  26.336   4.091
54000W        W26425  12.609  13.808  14.843
54001W        W26426   7.788   8.441   1.770
54002W        W26427   5.485  37.833  12.068
54003W        W26428   8.646  28.605  12.947
54004W        W26429  10.594  29.450  10.447
54005W        W26430  26.993  13.247  10.696
54006W        W26431  35.637  36.108   1.359
54007W        W26432  32.654  16.465   4.804
54008W        W26433  38.622   5.971  12.810
54009W        W26434  35.462  25.641   2.299
54010W        W26435  43.357  19.573  11.648
54011W        W26436  23.090  17.507   2.425
54012W        W26437   4.629  13.610  14.459
54013W        W26438   4.113  36.988  12.401
54014W        W26439   7.856  37.577  11.180
54015W        W26440  28.170  28.983   2.933
54016W        W26441  39.964  33.064  11.157
54017W        W26442  21.765  28.643   1.684
54018W        W26443  22.667  37.349  12.039
54019W        W26444  36.254  43.012   2.125
54020W        W26445  36.662  35.799  14.316
54021W        W26446  33.331  22.583  11.860
54022W        W26447  25.743  18.366   2.951
54023W        W26448  18.548  20.271   4.766
54024W        W26449   6.692  35.272   5.005
54025W        W26450  38.063  24.562  14.411
54026W        W26451  44.804  11.725  11.807
54027W        W26452  11.888   7.285   1.279
54028W        W26453  29.721  37.430   0.853
54029W        W26454  43.565  17.667   1.770
54030W        W26455   5.849   9.300   3.082
54031W        W26456  42.037  38.097  11.068
54032W        W26457   1.352  14.624  10.905
54033W        W26458  18.659  13.067   0.775
54034W        W26459  10.900  36.657  12.708
54035W        W26460  23.771  13.867   1.055
54036W        W26461   0.347  42.169   3.632
54037W        W26462  18.568  35.084   2.785
54038W        W26463  38.184  15.306  11.978
54039W        W26464  15.097  44.240  14.601
54040W        W26465  25.977  23.330   0.737
54041W        W26466   1.082   7.399   2.206
54042W        W26467   7.232  31.477  12.585
54043W        W26468   9.684  13.988  13.523
54044W        W26469   8.607  42.426  11.475
54045W        W26470  29.748  11.300  10.742
54046W        W26471  14.589  12.534  14.918
54047W        W26472   3.369  21.139  13.091
54048W        W26473  29.121   9.240  11.984
54049W        W26474  16.634   8.062   3.227
54050W        W26475  33.956  44.984   4.205
54051W        W26476  30.797  17.926   4.178
54052W        W26477  12.836   7.979   2.403
54053W        W26478  35.851  31.113   1.657
54054W        W26479  11.935  31.017  13.858
54055W        W26480  40.396  31.940  12.888
54056W        W26481  41.490  12.807   1.135
54057W        W26482  15.103  31.884   1.088
54058W        W26483   1.936  15.599  10.643
54059W        W26484   6.876  14.546  12.049
54060W        W26485  15.026  40.953   2.816
54061W        W26486  35.035   2.322   1.056
54062W        W26487  35.423   6.969   4.346
54063W        W26488   1.937  17.676   4.205
54064W        W26489   6.424  12.555   2.671
54065W        W26490  38.876  21.745   3.270
54066W        W26491  10.000   9.124   0.152
54067W        W26492  12.208  32.199  14.443
54068W        W26493  22.739  11.825   0.001
54069W        W26494   2.173  36.864  12.935
54070W        W26495  44.367  36.181  13.999
54071W        W26496  20.523  39.025  11.340
54072W        W26497  21.452  10.148   4.713
54073W        W26498   4.346  22.524  10.780
54074W        W26499  33.289  28.038  14.710
54075W        W26500  10.568  11.124   0.679
54076W        W26501  24.757  44.066   3.523
54077W        W26502   6.733  37.785  10.645
54078W        W26503  28.334  38.334   3.282
54079W        W26504   2.977  13.769   0.352
54080W        W26505  26.074  38.467   4.650
54081W        W26506  25.502  19.468   4.763
54082W        W26507  32.397  11.239   3.683
54083W        W26508   4.760  12.900  12.969
54084W        W26509  43.308  33.116   0.055
54085W        W26510  40.010  11.709   0.552
54086W        W26511   1.788  37.783  14.057
54087W        W26512  35.742  13.548   1.412
54088W        W26513  22.493  21.672  14.682
54089W        W26514   4.681  41.785   4.076
54090W        W26515  26.471  16.765   0.959
54091W        W26516   3.994  23.435  13.631
54092W        W26517   2.806  11.160   1.044
54093W        W26518  35.609  37.009  14.401
54094W        W26519  30.262  28.742  10.340
54095W        W26520  12.636  27.100  13.038
54096W        W26521   6.069  19.596   2.638
54097W        W26522  29.909  22.429   3.762
54098W        W26523  36.522  34.865  14.233
54099W        W26524   0.533  16.138  10.511
54100W        W26525  10.730  34.856   2.985
54101W        W26526  32.948  18.509  12.599
54102W        W26527  30.943   6.503  11.954
54103W        W26528  15.366  33.412   2.377
54104W        W26529   7.686  38.815   3.586
54105W        W26530   8.957  31.633   1.955
54106W        W26531  42.631  31.015  12.856
54107W        W26532  42.924   2.636   1.719
54108W        W26533  21.243  25.557  13.902
54109W        W26534  18.116  10.319  11.886
54110W        W26535   9.086   7.769  12.855
54111W        W26536  20.058  35.632  11.096
54112W        W26537   6.451  33.524  14.018
54113W        W26538  42.881  14.354  13.049
54114W        W26539  14.945  22.981  14.968
54115W        W26540  28.894   4.825  13.056
54116W        W26541  15.191  34.070   4.103
54117W        W26542  38.009  34.051  11.135
54118W        W26543  15.553  12.698  14.804
54119W        W26544  18.346   0.336  10.944
54120W        W26545  23.765  30.130  10.440
54121W        W26546  44.563  41.593   0.910
54122W        W26547   7.514  43.900  11.161
54123W        W26548   6.219  38.249   2.687
54124W        W26549  17.009  10.630  14.432
54125W        W26550   3.178  18.082  12.461
54126W        W26551  40.618   0.324  14.944
54127W        W26552  39.707  42.446   1.910
54128W        W26553   6.330  23.844   1.354
54129W        W26554  27.784  31.319  11.636
54130W        W26555  15.220   4.127   3.120
54131W        W26556  27.204   1.643  10.732
54132W        W26557  43.279  30.231  14.957
54133W        W26558  11.733  23.506  10.685
54134W        W26559  37.762  39.128   4.229
54135W        W26560  13.839  33.934  12.069
54136W        W26561   0.059  10.372   3.659
54137W        W26562  11.619  26.170   3.568
54138W        W26563  23.727  11.322  13.323
54139W        W26564  35.072  35.099   0.421
54140W        W26565  29.979  22.545  14.464
54141W        W26566   2.290   3.504  11.036
54142W        W26567  26.945  26.921  10.984
54143W        W26568  37.154  40.993   0.766
54144W        W26569  25.154   6.427  12.938
54145W        W26570  13.118  14.620  12.862
54146W        W26571  43.269  18.062   5.214
54147W        W26572  36.970   9.251   3.206
54148W        W26573  22.180  14.851   1.604
54149W        W26574  28.840  28.426  14.783
54150W        W26575  18.772   8.626   4.996
54151W        W26576   7.309  34.347  14.518
54152W        W26577  40.964  10.884   2.849
54153W        W26578  16.134  19.244   3.363
54154W        W26579  24.397   9.688   0.844
54155W        W26580   3.690  20.238  10.716
54156W        W26581  32.571  14.894  11.076
54157W        W26582  30.430  31.051   3.162
54158W        W26583  38.621  31.941  14.953
54159W        W26584   3.556  16.638  10.625
54160W        W26585  21.067  29.742   0.752
54161W        W26586  38.893  38.848  13.602
54162W        W26587  39.557   2.822   1.924
54163W        W26588  22.301  26.285   3.403
54164W        W26589  37.276  13.104   1.162
54165W        W26590   6.863  38.378  14.487
54166W        W26591   1.262   5.733  13.486
54167W        W26592   4.235   6.736  14.995
54168W        W26593  18.707  11.692   1.667
54169W        W26594   2.616  23.182   0.178
54170W        W26595   6.259  16.076   2.734
54171W        W26596  10.360  20.884   1.664
54172W        W26597  28.308   6.831  12.775
54173W        W26598  40.796   0.750   0.262
54174W        W26599  40.088  43.433   0.437
54175W        W26600  42.971  17.356  12.328
54176W        W26601  38.864   4.197  14.011
54177W        W26602  23.889  19.274  14.098
54178W        W26603  39.259   4.058  14.313
54179W        W26604  36.423  33.189  11.377
54180W        W26605  37.299  22.202  11.651
54181W        W26606  17.650  30.410  13.521
54182W        W26607  16.088  11.811   2.158
54183W        W26608  36.837  34.986   0.925
54184W        W26609  36.930   4.821   3.241
54185W        W26610  15.529   4.807   1.446
54186W        W26611  26.604  11.840   4.168
54187W        W26612  44.337  17.689  11.525
54188W        W26613  11.419  12.841   0.908
54189W        W26614   0.759   3.722  14.880
54190W        W26615  37.424  19.379  11.612
54191W        W26616  31.544  11.593   4.584
54192W        W26617  33.614  31.585  13.943
54193W        W26618  14.562  16.842   1.036
54194W        W26619  22.592  39.340   0.820
54195W        W26620   5.208   6.411  12.527
54196W        W26621  12.115   8.982   2.797
54197W        W26622  10.901  15.633   2.863
54198W        W26623  32.979  24.181   0.382
54199W        W26624   6.743  18.046  11.222
54200W        W26625  16.385   3.426   2.772
54201W        W26626  23.964   0.868   3.645
54202W        W26627  13.586  25.533  11.200
54203W        W26628  26.550  32.734   5.444
54204W        W26629  33.364  37.996   3.842
54205W        W26630  10.732  34.561  14.015
54206W        W26631  44.069  17.732   1.843
54207W        W26632  40.131  29.895  13.460
54208W        W26633  41.920  28.469   2.657
54209W        W26634   8.272  28.920   2.189
54210W        W26635  26.450  37.668  12.128
54211W        W26636  27.227  41.813  13.481
54212W        W26637   2.301  34.105   3.810
54213W        W26638  13.109  37.938  13.803
54214W        W26639  40.452  21.536   0.465
54215W        W26640  41.409  40.576   4.555
54216W        W26641   1.335  13.078  14.194
54217W        W26642   9.876  40.478   2.249
54218W        W26643  31.630   8.460  10.996
54219W        W26644  34.960  10.087  11.544
54220W        W26645  30.901  11.059  14.061
54221W        W26646  18.062   0.058   0.326
54222W        W26647   6.423  18.791   1.827
54223W        W26648  34.482  21.387   0.406
54224W        W26649  17.691   3.375  12.198
54225W        W26650  28.900  39.559   3.158
54226W        W26651  33.182  17.220   3.661
54227W        W26652  26.896  30.853  12.975
54228W        W26653  32.236  43.969   1.767
54229W        W26654  11.304  11.864   0.020
54230W        W26655  40.466  44.382   0.003
54231W        W26656  20.155   0.727   1.303
54232W        W26657  42.257  40.273   1.844
54233W        W26658  13.449  31.592   0.235
54234W        W26659  29.589  10.236   1.308
54235W        W26660  27.421   1.256  14.852
54236W        W26661  32.370  10.850   4.887
54237W        W26662  28.850  16.680   3.728
54238W        W26663  29.128  35.133   0.273
54239W        W26664   5.081  36.324  12.139
54240W        W26665  37.969  43.833   3.244
54241W        W26666  17.157  24.458  14.039
54242W        W26667  21.167  44.398   1.694
54243W        W26668   8.370  40.354  14.471
54244W        W26669  14.009  42.979  10.601
54245W        W26670  39.803  18.246  11.482
54246W        W26671   3.245   4.027  11.114
54247W        W26672   1.353   4.428  14.745
54248W        W26673  35.574  33.500  10.785
54249W        W26674   0.383  28.594  13.525
54250W        W26675  18.191  10.195   1.874
54251W        W26676   3.358  23.600   1.290
54252W        W26677  39.108   5.279  11.720
54253W        W26678  20.993  13.690  12.879
54254W        W26679   7.037  15.532   1.368
54255W        W26680  10.814  20.742   1.909
54256W        W26681  25.723  12.320   2.183
54257W        W26682  35.659  41.719  13.752
54258W        W26683  23.669  23.363   1.911
54259W        W26684  26.693  13.761  12.014
54260W        W26685   5.697  25.339  14.940
54261W        W26686  36.094  17.266  14.632
54262W        W26687   4.473   6.497   0.644
54263W        W26688  33.635  43.537   0.129
54264W        W26689  22.575  15.646  13.867
54265W        W26690  39.053  16.579   2.333
54266W        W26691  17.876  43.479   2.074
54267W        W26692  30.226  10.212   3.676
54268W        W26693   0.938  31.643   3.207
54269W        W26694   6.512  42.972   2.913
54270W        W26695  29.513  16.871   4.497
54271W        W26696  33.862  19.993   0.782
54272W        W26697  11.561  12.553  11.303
54273W        W26698  10.269  15.381   3.344
54274W        W26699  38.039   2.236  10.969
54275W        W26700  19.021  38.117   4.268
54276W        W26701  27.416  16.761  11.881
54277W        W26702  15.904  24.601  12.096
54278W        W26703  17.968   6.823   4.161
54279W        W26704   5.113  33.595  10.096
54280W        W26705  22.496  25.467  13.096
54281W        W26706  15.772  30.065  14.729
54282W        W26707  13.616  34.981   4.597
54283W        W26708   4.751  29.254   4.088
54284W        W26709  24.557   3.106  12.495
54285W        W26710  40.310  41.953   4.294
54286W        W26711  28.498  11.112   1.315
54287W        W26712   0.207  25.121  12.514
54288W        W26713  30.068  21.169  12.539
54289W        W26714  26.178   2.836  13.900
54290W        W26715  17.149   9.900   0.225
54291W        W26716  27.364  22.921   0.920
54292W        W26717  27.680  15.759  10.953
54293W        W26718   6.848  42.797  13.787
54294W        W26719   2.892  20.208   4.355
54295W        W26720   9.078  28.705   3.624
54296W        W26721   5.460   9.714   1.204
54297W        W26722  26.477  11.877   2.611
54298W        W26723  16.266  31.463  11.916
54299W        W26724  14.006  30.484   1.968
54300W        W26725  36.630  44.454  13.412
54301W        W26726  17.317   2.350   4.531
54302W        W26727  30.032  39.077  11.631
54303W        W26728  42.944  25.270   1.383
54304W        W26729  22.758  26.116   1.653
54305W        W26730  17.806  18.128   4.281
54306W        W26731  20.887  18.255  12.458
54307W        W26732  43.210  40.887  13.107
54308W        W26733  23.215  30.029  10.549
54309W        W26734  37.559   8.903  10.686
54310W        W26735  39.427   8.456   2.683
54311W        W26736  40.826  42.229   9.585
54312W        W26737  15.319  12.523   2.653
54313W        W26738  13.065  22.613  13.881
54314W        W26739  14.180  21.064  11.929
54315W        W26740  39.473  30.360   3.709
54316W        W26741  29.762   4.416  13.871
54317W        W26742  16.277   3.776   4.161
54318W        W26743  38.292   9.768  10.998
54319W        W26744   9.446  36.297   9.691
54320W        W26745  21.971  11.529  12.830
54321W        W26746  10.155  28.312  12.650
54322W        W26747  32.510  15.902   5.498
54323W        W26748  33.449  24.235   3.165
54324W        W26749  30.139  28.106  13.538
54325W        W26750  43.007  30.638   1.667
54326W        W26751   3.665   5.188  12.477
54327W        W26752  41.018  14.288  14.266
54328W        W26753   9.891   6.800   2.208
54329W        W26754  39.629  38.334   0.721
54330W        W26755  32.740   1.955  12.058
54331W        W26756  13.831  16.843   0.476
54332W        W26757  31.186  26.241   0.280
54333W        W26758  18.769   2.308   3.169
54334W        W26759  40.749  11.360   2.227
54335W        W26760  21.997  35.298   3.281
54336W        W26761  12.069   6.772  12.610
54337W        W26762  36.117  19.831  14.469
54338W        W26763  40.079  20.214  14.522
54339W        W26764  43.453   4.076  13.797
54340W        W26765  24.495  11.217   1.777
54341W        W26766  12.324  21.211  10.718
54342W        W26767  10.599  20.051  12.617
54343W        W26768  14.950  33.022   0.013
54344W        W26769   2.958  29.646   2.705
54345W        W26770   4.518  12.827   4.216
54346W        W26771   7.800  31.375   2.387
54347W        W26772  27.149  25.197   3.159
54348W        W26773  39.134  29.891   1.718
54349W        W26774  17.070  17.635   4.289
54350W        W26775  38.853  19.726   2.893
54351W        W26776  44.385  44.788  10.425
54352W        W26777   5.246  39.286  13.591
54353W        W26778  32.498   3.842  11.686
54354W        W26779  30.005  38.142  12.937
54355W        W26780   8.677  44.486  11.494
54356W        W26781  22.659  18.310  10.653
54357W        W26782  40.530   5.246  14.863
54358W        W26783  19.476  36.535   0.835
54359W        W26784  27.414  35.143   2.690
54360W        W26785  22.683  43.548  11.986
54361W        W26786  39.362  38.337   3.852
54362W        W26787   6.570  35.545   4.586
54363W        W26788   1.414  42.433  13.923
54364W        W26789   7.899  15.698  10.774
54365W        W26790  18.566  13.406  12.185
54366W        W26791  42.751   9.235   0.964
54367W        W26792  44.826   3.736   2.893
54368W        W26793  18.719  14.183   4.626
54369W        W26794  19.440  19.467  14.308
54370W        W26795  14.738  10.884   1.367
54371W        W26796  20.036   2.445  13.776
54372W        W26797  35.455   3.446   2.456
54373W        W26798  39.788   4.150  13.997
54374W        W26799  32.722   2.313  12.918
54375W        W26800  44.846  38.302  10.705
54376W        W26801   7.483  27.824  14.028
54377W        W26802   3.277  33.037   4.557
54378W        W26803   2.045   8.588   3.218
54379W        W26804  31.445  20.600   3.714
54380W        W26805  34.969  27.414   1.675
54381W        W26806  19.287  12.418   2.819
54382W        W26807  16.381  13.637  10.455
54383W        W26808  24.286  14.169   2.548
54384W        W26809   7.236  36.821   4.406
54385W        W26810   4.945  25.940   4.622
54386W        W26811  18.759   1.286   3.101
54387W        W26812  22.219  15.869  12.347
54388W        W26813  30.986  11.293  11.352
54389W        W26814   5.313   3.756   4.005
54390W        W26815  34.596  36.436   2.422
54391W        W26816  39.488  27.421   1.730
54392W        W26817  16.790  20.554  14.376
54393W        W26818  20.609  20.520   1.921
54394W        W26819  18.836   7.647   4.544
54395W        W26820  38.052  24.626  11.603
54396W        W26821  32.829  31.015  14.917
54397W        W26822  26.539   2.345   0.443
54398W        W26823  11.697  19.918  13.046
54399W        W26824  15.024  10.369   2.396
54400W        W26825  21.735  10.896   2.117
54401W        W26826  26.182  11.488   1.697
54402W        W26827  35.993  22.192   2.008
54403W        W26828  39.461  25.410  13.635
54404W        W26829  28.016  16.313  11.170
54405W        W26830  44.724  38.815   3.166
54406W        W26831   6.740  27.278  11.874
54407W        W26832  11.177  16.789  13.829
54408W        W26833  30.005  38.316   1.068
54409W        W26834  11.151  39.327   2.593
54410W        W26835   6.178  20.654   3.660
54411W        W26836   2.617  40.427  11.398
54412W        W26837  40.503  34.129  11.962
54413W        W26838   5.415  24.822  14.906
54414W        W26839  21.898   4.745   2.278
54415W        W26840  30.520  10.113  11.626
54416W        W26841   8.977  37.569   4.695
54417W        W26842  40.114  30.091  10.760
54418W        W26843  42.501  13.862   2.678
54419W        W26844  30.651  35.527   2.862
54420W        W26845  22.537  21.473   4.075
54421W        W26846  14.295   8.212  12.435
54422W        W26847  18.179  34.153  14.604
54423W        W26848  23.069  15.211  13.064
54424W        W26849  13.096  18.368  12.140
54425W        W26850  43.703  37.854  11.948
54426W        W26851   6.360   2.803   1.723
54427W        W26852  19.600  21.323  14.363
54428W        W26853   6.219  12.776  12.961
54429W        W26854   7.700  42.497   4.835
54430W        W26855  30.117  17.613  11.142
54431W        W26856   4.276  28.650  13.805
54432W        W26857   3.881  16.458   3.748
54433W        W26858   8.791  33.670   0.264
54434W        W26859  26.995  37.428  10.605
54435W        W26860  10.228   7.354  12.790
54436W        W26861  10.676   4.954  11.225
54437W        W26862  27.122  11.724  13.813
54438W        W26863  28.135  29.576   2.550
54439W        W26864   1.526  44.399   4.613
54440W        W26865  13.273  35.873   3.262
54441W        W26866  22.693  38.511  13.063
54442W        W26867  36.369  21.038  12.980
54443W        W26868  43.564  26.983  13.206
54444W        W26869  41.309  12.717  14.795
54445W        W26870   3.520  41.883   1.374
54446W        W26871  25.563  16.273  11.990
54447W        W26872   9.875  18.586  10.700
54448W        W26873  22.437  13.669   3.405
54449W        W26874  44.376  24.248   2.664
54450W        W26875  24.646  44.055  13.018
54451W        W26876   9.520   6.212  14.409
54452W        W26877   5.828  11.715   3.817
54453W        W26878  25.083  43.074  11.144
54454W        W26879  32.548  37.367   3.207
54455W        W26880  37.382  31.136   2.825
54456W        W26881  43.574  42.515  13.238
54457W        W26882  34.475  15.428  11.082
54458W        W26883  22.899  24.101  13.069
54459W        W26884  31.924  28.057   1.912
54460W        W26885   9.544  30.575   3.384
54461W        W26886  31.218  26.033   4.292
54462W        W26887  28.350  27.665  11.623
54463W        W26888  27.233  32.059   2.195
54464W        W26889  11.079   9.800  13.974
54465W        W26890  23.041  13.856  13.632
54466W        W26891   8.580   8.740  14.536
54467W        W26892  24.987   8.161  12.678
54468W        W26893  40.342  19.509  13.838
54469W        W26894   7.285   0.186   1.185
54470W        W26895  43.035  39.682   0.720
54471W        W26896  16.724  15.103  13.396
54472W        W26897  26.477  32.564  13.488
54473W        W26898  24.579  25.047   4.765
54474W        W26899  18.000  25.922   2.861
54475W        W26900  33.350   0.956  10.830
54476W        W26901  16.584  17.757   3.741
54477W        W26902  17.145  29.753   0.281
54478W        W26903   5.763  11.074  14.384
54479W        W26904  41.425   6.176   1.150
54480W        W26905  42.840  22.588   4.150
54481W        W26906  32.843  15.086   2.203
54482W        W26907   5.215  37.603  14.496
54483W        W26908  29.595  31.993   3.978
54484W        W26909   7.730  10.360   0.812
54485W        W26910  14.578  21.566  10.704
54486W        W26911   4.763  29.880  10.863
54487W        W26912  14.809  38.895  11.807
54488W        W26913  25.317  35.413   4.082
54489W        W26914  23.135  31.378  12.605
54490W        W26915   5.914   1.799   2.150
54491W        W26916  12.686  15.793  12.962
54492W        W26917  30.722   2.569   2.917
54493W        W26918  13.559  29.448  12.229
54494W        W26919  40.423  24.545  11.930
54495W        W26920  25.548  44.177   4.175
54496W        W26921  21.602  25.587  13.449
54497W        W26922  28.006  31.840  11.531
54498W        W26923  23.069   2.898   1.931
54499W        W26924  20.333  25.168   2.214
54500W        W26925  12.281  20.782  13.800
54501W        W26926  25.197  18.714   1.159
54502W        W26927  36.122  35.984   0.466
54503W        W26928  14.932  41.423  11.536
54504W        W26929   5.979  24.625   1.676
54505W        W26930  22.746  39.427   1.351
54506W        W26931  22.991   3.840  14.087
54507W        W26932   8.916  22.712   3.276
54508W        W26933  24.747  21.225  14.027
54509W        W26934  13.960  34.072  12.966
54510W        W26935  33.770  31.430   2.458
54511W        W26936  33.452   0.794  12.539
54512W        W26937   4.854  33.913   3.886
54513W        W26938  15.193  18.897   3.213
54514W        W26939  17.253  26.596  14.224
54515W        W26940  44.784  41.733   0.401
54516W        W26941  44.188  24.975   3.691
54517W        W26942  12.444  11.168   1.648
54518W        W26943  41.700  34.946   3.794
54519W        W26944  36.638  17.613   1.769
54520W        W26945  12.386   3.643  13.582
54521W        W26946   9.806  14.083  11.873
54522W        W26947  37.323   7.237  14.341
54523W        W26948  36.904  41.539  14.276
54524W        W26949  16.916   1.029   4.233
54525W        W26950  36.964  42.744   3.332
54526W        W26951  14.325  11.125  11.243
54527W        W26952  10.911  25.161  10.529
54528W        W26953  25.920  29.047  10.708
54529W        W26954   9.938  42.848  13.763
54530W        W26955  14.789  21.042   2.952
54531W        W26956  25.770  20.406  11.516
54532W        W26957  20.981  21.250   1.671
54533W        W26958   0.922  24.696  12.996
54534W        W26959  16.841  44.792  13.822
54535W        W26960  28.005  25.649  10.774
54536W        W26961   2.263  23.219   1.487
54537W        W26962  43.902   5.778   1.414
54538W        W26963   3.260  36.003   1.669
54539W        W26964  23.842   4.239  11.579
54540W        W26965  32.042  33.805   3.683
54541W        W26966  12.836   8.962  10.573
54542W        W26967  19.627   7.698  14.989
54543W        W26968  19.333  30.413   0.999
54544W        W26969  20.659  34.318  13.727
54545W        W26970  13.015  18.520   1.415
54546W        W26971   3.935  26.953  12.082
54547W        W26972  32.429   8.587  10.761
54548W        W26973  20.974  16.725  11.097
54549W        W26974  40.505  24.272   3.873
54550W        W26975  23.885  29.468  12.003
54551W        W26976  33.360  11.277  11.310
54552W        W26977  23.088  17.384   0.160
54553W        W26978  19.903  17.482   4.694
54554W        W26979  41.371  30.758   1.667
54555W        W26980   9.865  37.953  14.456
54556W        W26981  37.095  21.622  12.639
54557W        W26982  10.902   8.220   3.750
54558W        W26983  42.517  27.227   0.292
54559W        W26984  14.516  23.524   2.217
54560W        W26985  12.250  11.327  12.926
54561W        W26986  22.552  31.902   3.245
54562W        W26987  14.333  17.511   3.739
54563W        W26988  17.382  24.205  14.452
54564W        W26989   6.786  28.079   3.806
54565W        W26990  18.988  15.454   0.752
54566W        W26991  19.600  28.110   0.515
54567W        W26992  19.999  20.857  12.035
54568W        W26993   2.290   4.141  11.892
54569W        W26994  44.740  34.889   1.002
54570W        W26995  33.915  39.088   2.358
54571W        W26996  27.521  38.797   1.770
54572W        W26997  23.436  33.092  14.983
54573W        W26998   8.863  43.708   1.286
54574W        W26999  15.683  37.403   0.449
54575W        W27000   0.234   7.773   0.927
54576W        W27001  38.861  32.599   3.176
54577W        W27002  20.709  41.782   3.756
54578W        W27003   7.457  22.028  14.879
54579W        W27004  18.322  39.451  10.608
54580W        W27005  16.048  32.159   0.872
54581W        W27006  43.489  18.532   2.906
54582W        W27007  43.513  24.856   2.718
54583W        W27008   2.964  42.897  10.971
54584W        W27009  39.831   7.121   1.871
54585W        W27010  32.538  40.440  13.283
54586W        W27011  35.086  19.954   1.294
54587W        W27012   3.699   5.702  12.511
54588W        W27013  24.040  26.015   0.708
54589W        W27014   9.084  37.565  11.599
54590W        W27015   7.034  39.942  11.849
54591W        W27016  43.036  34.467  11.133
54592W        W27017  10.215  30.593   2.263
54593W        W27018  12.140  33.891  11.490
54594W        W27019  34.958  28.605   0.188
54595W        W27020  10.587  30.549  11.493
54596W        W27021  40.616  37.594  14.048
54597W        W27022  43.655   4.095   0.758
54598W        W27023  19.586  10.212  12.146
54599W        W27024  40.248   6.376  14.285
54600W        W27025   4.708  29.155  10.350
54601W        W27026  16.008  30.030   3.027
54602W        W27027  39.530   9.719   0.340
54603W        W27028  35.528  40.030  13.428
54604W        W27029  44.263  29.057  10.740
54605W        W27030  15.721  20.668   2.211
54606W        W27031  20.703   3.958  13.490
54607W        W27032   7.983  20.719  11.463
54608W        W27033  18.337  32.143   4.179
54609W        W27034  21.861   9.313  12.928
54610W        W27035   9.478  19.241   4.188
54611W        W27036  25.487  34.241   0.030
54612W        W27037  17.998  28.231   2.779
54613W        W27038  21.989  14.394   3.759
54614W        W27039  26.942  15.285  12.478
54615W        W27040  11.725  18.090   2.873
54616W        W27041  31.080  27.954  11.569
54617W        W27042  10.782  14.570   1.707
54618W        W27043  33.499   8.387   1.624
54619W        W27044  33.461  38.083  12.023
54620W        W27045  39.350  10.679  11.969
54621W        W27046  37.487  39.009   3.440
54622W        W27047  42.765  22.255  10.306
54623W        W27048   8.218  25.936  11.523
54624W        W27049  42.206   2.284   0.848
54625W        W27050  15.728  15.311  14.744
54626W        W27051  39.665  34.063   1.757
54627W        W27052  22.490  30.476   5.038
54628W        W27053  43.100   0.446  13.966
54629W        W27054   0.381   4.727   1.690
54630W        W27055   5.162   8.110  12.604
54631W        W27056   2.380  35.444   3.700
54632W        W27057  24.595  21.426  11.369
54633W        W27058   7.839  40.083   4.207
54634W        W27059   0.478  28.258  14.486
54635W        W27060  35.220  17.672  13.603
54636W        W27061  16.562  37.757   2.509
54637W        W27062  33.546   2.231  11.072
54638W        W27063  10.354  25.043   2.191
54639W        W27064  24.711  43.273  13.982
54640W        W27065  44.022  15.298  11.120
54641W        W27066  10.696  35.871  10.644
54642W        W27067  44.827  18.552  10.773
54643W        W27068  13.881  22.530   0.174
54644W        W27069   2.290   3.194  12.260
54645W        W27070  22.735  12.238   1.331
54646W        W27071  20.198  18.486   3.128
54647W        W27072   0.925  19.648  12.409
54648W        W27073  44.462   4.454  12.506
54649W        W27074  30.141   9.436  14.406
54650W        W27075  44.710  36.105  14.394
54651W        W27076  25.370  31.652   0.860
54652W        W27077  30.431  36.888  10.769
54653W        W27078  32.437  39.546   2.317
54654W        W27079  25.613  31.051  11.894
54655W        W27080  42.878   8.133  13.954
54656W        W27081  29.953  31.893   0.777
54657W        W27082   4.751   8.103  11.676
54658W        W27083   3.897   0.395  14.969
54659W        W27084  27.140  22.687  14.820
54660W        W27085  25.527  41.538   1.842
54661W        W27086  20.317  23.829  12.513
54662W        W27087  43.858  37.421  13.011
54663W        W27088  38.754  37.366   3.122
54664W        W27089  41.534  41.688   0.795
54665W        W27090  41.017  40.893  14.779
54666W        W27091  12.385  25.406   4.559
54667W        W27092  33.643   8.758  14.464
54668W        W27093  20.888  43.468  13.320
54669W        W27094  20.179  24.184   0.254
54670W        W27095  43.553  43.893  12.994
54671W        W27096  36.519   1.316   3.737
54672W        W27097   2.839  37.618  11.215
54673W        W27098  44.803  26.134   1.761
54674W        W27099  14.616  25.605  11.674
54675W        W27100  36.534  22.806  12.305
54676W        W27101  19.437  25.527  11.839
54677W        W27102  14.247  38.089   4.807
54678W        W27103  13.844   1.757   2.347
54679W        W27104  12.255  30.469  13.460
54680W        W27105  20.405  28.639  11.689
54681W        W27106  36.564  41.532   2.492
54682W        W27107  38.370  26.951   1.184
54683W        W27108  26.671  44.344   3.135
54684W        W27109  20.317   0.521   3.351
54685W        W27110   1.482  12.294   4.529
54686W        W27111   7.946   6.709  14.453
54687W        W27112  41.334  12.366   0.912
54688W        W27113   2.056  31.990  10.823
54689W        W27114  39.078  22.134  14.300
54690W        W27115  37.699  29.890  14.263
54691W        W27116  30.909  18.679   2.292
54692W        W27117   1.103   6.741  13.211
54693W        W27118   1.325  25.952   4.452
54694W        W27119  35.794  29.990  10.767
54695W        W27120  21.210   2.684  12.259
54696W        W27121  27.678   4.442  10.742
54697W        W27122   6.333  24.050   1.826
54698W        W27123   9.843  40.369  12.050
54699W        W27124  18.691   8.344  13.943
54700W        W27125  41.798  30.353  13.846
54701W        W27126  36.068  38.313  13.108
54702W        W27127  40.746   8.979   2.390
54703W        W27128   7.245  33.831   4.362
54704W        W27129  32.000   0.138  14.501
54705W        W27130   5.426  35.636   5.151
54706W        W27131  27.286   0.447   4.524
54707W        W27132  43.811  33.612   0.841
54708W        W27133  21.233  34.035  12.582
54709W        W27134  31.875  30.165   1.511
54710W        W27135  31.996   2.968   1.748
54711W        W27136  42.512  34.936  10.569
54712W        W27137  25.729  10.888  14.888
54713W        W27138  44.663  30.605   4.414
54714W        W27139  43.903   8.243   3.365
54715W        W27140  13.627  41.369   3.210
54716W        W27141  38.782  30.059   2.392
54717W        W27142  20.283  17.736  14.323
54718W        W27143  43.071  37.669   0.926
54719W        W27144  44.230  38.785  11.587
54720W        W27145   4.566   4.174   1.452
54721W        W27146  11.384   6.733   2.325
54722W        W27147  20.089  18.628   0.969
54723W        W27148  33.182  25.081  12.503
54724W        W27149  30.514  26.133  14.479
54725W        W27150   1.397  33.340  12.050
54726W        W27151  11.197   1.543   3.212
54727W        W27152  14.468  15.787   2.066
54728W        W27153  44.763  40.497   1.724
54729W        W27154  41.826  29.520  14.907
54730W        W27155  11.308  31.778  12.852
54731W        W27156  30.083  30.872  11.032
54732W        W27157  14.232  35.840   4.107
54733W        W27158   6.309  15.611   0.826
54734W        W27159  30.057  25.710   0.184
54735W        W27160  25.283   5.842   0.085
54736W        W27161   5.321  21.123   4.407
54737W        W27162  30.202   3.413  11.379
54738W        W27163   7.802  12.221   1.233
54739W        W27164  11.208   0.503   4.481
54740W        W27165   2.315   2.197  11.592
54741W        W27166  44.891   4.738   4.808
54742W        W27167   2.465  38.353  10.783
54743W        W27168   5.761  39.264  11.591
54744W        W27169  39.746  25.992  13.330
54745W        W27170  41.141  19.091   2.929
54746W        W27171   2.830   7.109   2.134
54747W        W27172   7.379  35.133   0.814
54748W        W27173  34.141   9.127   4.397
54749W        W27174  13.242  22.423  10.659
54750W        W27175  20.678  39.343   2.010
54751W        W27176  17.707  43.889   4.288
54752W        W27177  26.450  43.450   4.133
54753W        W27178   0.501   0.402  12.634
54754W        W27179   9.667  44.329   0.386
54755W        W27180  31.496  10.622   3.937
54756W        W27181  19.292  28.731  13.013
54757W        W27182  43.277  26.582  13.407
54758W        W27183  24.586  33.877   3.623
54759W        W27184  41.967  44.966   0.333
54760W        W27185  30.645  25.859  13.996
54761W        W27186  37.873  18.568  10.735
54762W        W27187  18.829  41.016  12.407
54763W        W27188  41.848   7.537   0.733
54764W        W27189  33.281  24.346  11.588
54765W        W27190  20.574  22.068   3.468
54766W        W27191   0.210  35.565  14.935
54767W        W27192  28.827  40.998   3.217
54768W        W27193  18.117  36.460  12.287
54769W        W27194  36.382  11.294  14.451
54770W        W27195  33.896   9.248   4.875
54771W        W27196  23.707  18.778  14.989
54772W        W27197  13.303  38.371   2.236
54773W        W27198   2.357  23.532  12.150
54774W        W27199  10.885  31.092  14.765
54775W        W27200   5.815  35.194  12.493
54776W        W27201   3.210  24.710   2.333
54777W        W27202  35.134  11.339   4.023
54778W        W27203  16.269  11.779  12.803
54779W        W27204  38.517  17.294  13.284
54780W        W27205  15.262  32.686   0.890
54781W        W27206  28.921  36.462  14.742
54782W        W27207  23.182  24.415   0.059
54783W        W27208  44.331  16.754  13.094
54784W        W27209  35.093  42.067   1.186
54785W        W27210   5.821  43.881  14.773
54786W        W27211  38.929   7.235   1.705
54787W        W27212  20.809   1.825   2.770
54788W        W27213   6.773  42.257   2.792
54789W        W27214  35.068  22.674   1.876
54790W        W27215  36.298  29.602   3.844
54791W        W27216  27.942  36.282  10.566
54792W        W27217  41.514  18.168  11.926
54793W        W27218  10.307  27.802  12.525
54794W        W27219  16.459  39.609  14.825
54795W        W27220  32.470  33.018   3.578
54796W        W27221  17.873  37.541  13.074
54797W        W27222  30.092  30.600   2.295
54798W        W27223   0.743   7.188  11.158
54799W        W27224  38.514   2.157   0.393
54800W        W27225  31.699  28.634   0.304
54801W        W27226  16.692  13.816   0.535
54802W        W27227  19.565  42.182  12.631
54803W        W27228  22.628  29.696  11.008
54804W        W27229  27.131  22.534  11.445
54805W        W27230  18.307  16.836  14.353
54806W        W27231  18.521  25.163  14.254
54807W        W27232  28.974   6.108   4.238
54808W        W27233  39.395  18.265   1.327
54809W        W27234  25.227  24.186  13.138
54810W        W27235  33.492   8.823   0.299
54811W        W27236  43.406  19.564   3.935
54812W        W27237  40.148  40.115   1.618
54813W        W27238  38.914  24.772  12.516
54814W        W27239  39.882  17.271   0.278
54815W        W27240   6.025  23.081  12.574
54816W        W27241  13.219  18.060   1.468
54817W        W27242  26.390  44.907  13.546
54818W        W27243   8.262   5.813  13.577
54819W        W27244  16.232  24.182   3.339
54820W        W27245  33.372  41.329  12.998
54821W        W27246  37.319   3.879   1.850
54822W        W27247  23.987   6.972   0.353
54823W        W27248  11.714   0.805   0.985
54824W        W27249  24.445  17.141  14.750
54825W        W27250  28.317  11.696  12.881
54826W        W27251  19.009   9.024   0.583
54827W        W27252  32.980  27.906   2.777
54828W        W27253  26.023  22.455   1.782
54829W        W27254  42.517  44.248   2.358
54830W        W27255  13.050  28.593  13.488
54831W        W27256  23.215  36.479   4.598
54832W        W27257  39.565   6.581   0.697
54833W        W27258  38.051   3.315   3.329
54834W        W27259  24.470  34.521   2.384
54835W        W27260  26.431  21.124  10.694
54836W        W27261  39.351   2.175  13.504
54837W        W27262  32.303  42.059  13.990
54838W        W27263  42.598  18.759   0.074
54839W        W27264  32.425   5.398   3.137
54840W        W27265   9.935  16.612   2.242
54841W        W27266  14.507  22.682   4.134
54842W        W27267  41.602  26.269  11.429
54843W        W27268  36.843  17.845   2.171
54844W        W27269  42.211  27.604   2.857
54845W        W27270  26.587  42.536   2.755
54846W        W27271  27.252  33.375   3.596
54847W        W27272   6.338  25.027   3.668
54848W        W27273  43.001  35.026  13.840
54849W        W27274  21.234  37.026   0.438
54850W        W27275   7.214  29.467  11.940
54851W        W27276   0.953  16.575   2.242
54852W        W27277  16.893  13.819   1.470
54853W        W27278  14.046  15.711  12.591
54854W        W27279  42.134  25.101  10.568
54855W        W27280   6.273  20.226  10.665
54856W        W27281  29.522  35.876   4.607
54857W        W27282   1.070  18.923   2.294
54858W        W27283  22.511  18.567  13.509
54859W        W27284   5.687  12.308   0.009
54860W        W27285  20.622  11.027   4.240
54861W        W27286   3.530  40.924   0.221
54862W        W27287  19.181  36.922  13.091
54863W        W27288  24.264  34.102  12.652
54864W        W27289  21.795  20.061   3.786
54865W        W27290  17.849  17.636  12.950
54866W        W27291  31.970  18.809   0.902
54867W        W27292  12.505  28.624  12.645
54868W        W27293  25.392  24.255  13.627
54869W        W27294  18.328   6.002   4.716
54870W        W27295  43.988   1.756   2.813
54871W        W27296  23.657  32.667   1.676
54872W        W27297  19.320  40.475  14.495
54873W        W27298  33.389  31.011  12.150
54874W        W27299   0.645   4.650   4.947
54875W        W27300  19.137  23.990  10.626
54876W        W27301  24.687  15.810   3.105
54877W        W27302  19.037  23.582   0.480
54878W        W27303   9.730  13.413   0.382
54879W        W27304  11.778  41.372  13.156
54880W        W27305   7.488  44.373   0.178
54881W        W27306  39.956  18.283  14.468
54882W        W27307  29.663   4.264  12.054
54883W        W27308  25.280  26.184   2.678
54884W        W27309  18.773  27.006   4.313
54885W        W27310  43.854  38.571   2.703
54886W        W27311  33.462  11.552  12.630
54887W        W27312  16.704   8.852  13.002
54888W        W27313  21.254   1.481   3.692
54889W        W27314  29.919   3.219   0.880
54890W        W27315   6.966  25.211  14.955
54891W        W27316   6.669  39.515  13.487
54892W        W27317   8.147   3.247  12.036
54893W        W27318  43.903  38.947  13.574
54894W        W27319  16.430  18.646  14.802
54895W        W27320  43.538  38.502  11.103
54896W        W27321  41.676  12.576   2.001
54897W        W27322  25.317  12.601  12.513
54898W        W27323   4.457  33.029   3.569
54899W        W27324  11.438   8.079  12.537
54900W        W27325  12.792  21.855   3.139
54901W        W27326   9.280  22.801   0.452
54902W        W27327  25.658  28.459   1.592
54903W        W27328  40.818  32.311  14.534
54904W        W27329  34.904  34.066  10.607
54905W        W27330  17.946  27.970  13.918
54906W        W27331   1.929  28.481   3.785
54907W        W27332   8.101  38.844   1.829
54908W        W27333  27.536   3.501   3.811
54909W        W27334  23.142  18.895   0.907
54910W        W27335  39.706  28.267  12.025
54911W        W27336  30.832  34.979  12.994
54912W        W27337  41.944   1.822   2.690
54913W        W27338  10.168  15.164   4.184
54914W        W27339   4.440  42.762   2.836
54915W        W27340  14.202  19.669  12.928
54916W        W27341  18.220  37.882   2.706
54917W        W27342   2.869  20.050  14.844
54918W        W27343  14.840  10.228  14.206
54919W        W27344  32.871  36.329  12.553
54920W        W27345  18.780  39.049   2.636
54921W        W27346  32.516  36.563   2.650
54922W        W27347   3.974  41.895   2.293
54923W        W27348  17.705  38.927  13.092
54924W        W27349  27.301  29.344  11.141
54925W        W27350   9.257   5.027   3.647
54926W        W27351  28.122  29.842   5.571
54927W        W27352   5.764  18.382  13.414
54928W        W27353   0.238  38.603   0.295
54929W        W27354  40.054  42.668  12.609
54930W        W27355   5.029  20.980  12.653
54931W        W27356  17.249  25.150   1.821
54932W        W27357  35.439   4.876   1.336
54933W        W27358  18.006   9.217   1.769
54934W        W27359   8.560  25.984   1.895
54935W        W27360  36.568   4.340   0.514
54936W        W27361  20.193  39.531  14.550
54937W        W27362  39.273  19.216  12.646
54938W        W27363  27.466  12.154  12.970
54939W        W27364  17.760  36.584  13.086
54940W        W27365  18.651   3.255   4.175
54941W        W27366  35.654  10.762   4.188
54942W        W27367   6.417   0.303   3.863
54943W        W27368   1.038  18.970   4.251
54944W        W27369  34.469  33.413  12.021
54945W        W27370  34.944  29.172  10.632
54946W        W27371   2.001   1.958   0.331
54947W        W27372   5.959   3.310   4.786
54948W        W27373  23.625  27.570  14.273
54949W        W27374  32.855  44.786   0.289
54950W        W27375   2.926  44.040   4.616
54951W        W27376  18.579  42.896   4.530
54952W        W27377  21.545  42.374   4.680
54953W        W27378  38.252  33.880   1.794
54954W        W27379  26.904   9.968  14.312
54955W        W27380  41.901  37.363   3.657
54956W        W27381  22.747   4.688  11.055
54957W        W27382  17.844  14.743   4.609
54958W        W27383   9.139  42.655   0.017
54959W        W27384  26.690  36.223  14.196
54960W        W27385   8.459   1.215  14.257
54961W        W27386  16.652   1.387  10.120
54962W        W27387   6.891  41.017   3.408
54963W        W27388  29.472  26.559  14.996
54964W        W27389  35.069  23.643   4.152
54965W        W27390   0.340  29.706   3.685
54966W        W27391  38.745  11.557  12.052
54967W        W27392   3.629  41.496   3.285
54968W        W27393   7.837  22.816   0.923
54969W        W27394  26.891  10.752  11.517
54970W        W27395  42.776  26.703  13.817
54971W        W27396   4.866   8.602  11.848
54972W        W27397  22.542  38.782  12.106
54973W        W27398  32.004  34.515   2.164
54974W        W27399  28.222  37.922  14.485
54975W        W27400  17.809  24.032   2.844
54976W        W27401  27.638   6.104  13.955
54977W        W27402  13.824   5.897   2.284
54978W        W27403  22.279  28.531   4.345
54979W        W27404   5.905  44.491   0.800
54980W        W27405  26.644  34.558   0.424
54981W        W27406  44.239  43.367  12.881
54982W        W27407  30.117  12.630   4.306
54983W        W27408   0.238   1.913  11.441
54984W        W27409  16.567  28.470   2.270
54985W        W27410  44.459  40.501  11.930
54986W        W27411  17.539  32.203   4.672
54987W        W27412  38.749  39.069   1.353
54988W        W27413  27.919  41.418  14.506
54989W        W27414  21.057  22.153   1.796
54990W        W27415   0.369  36.685  13.488
54991W        W27416   3.316  20.541   3.743
54992W        W27417  34.675  37.076  14.295
54993W        W27418   8.292  20.709  13.958
54994W        W27419  41.779   8.819  13.847
54995W        W27420  24.599  25.751  13.913
54996W        W27421  22.709   9.333  10.128
54997W        W27422   4.098  16.541  10.714
54998W        W27423  39.093  22.571  13.477
54999W        W27424  28.980  12.097   1.377
55000W        W27425  44.432  40.989  10.974
55001W        W27426  22.915  38.269   0.330
55002W        W27427  32.455  24.530   1.012
55003W        W27428  27.069  41.404  10.931
55004W        W27429  26.976  33.960   3.163
55005W        W27430  26.426  12.553  11.308
55006W        W27431  28.181  29.578  10.870
55007W        W27432   7.435  27.273   0.811
55008W        W27433  14.139  39.465  12.830
55009W        W27434  14.000  43.772  13.072
55010W        W27435   5.548  21.293   2.953
55011W        W27436   3.742  32.847   2.965
55012W        W27437  41.867  24.164  11.952
55013W        W27438  31.906  18.873  12.392
55014W        W27439   7.773  39.960   1.402
55015W        W27440  32.485  22.828   3.834
55016W        W27441  34.498  27.952   3.665
55017W        W27442   1.057   7.761   3.607
55018W        W27443  26.628  31.984   3.704
55019W        W27444  12.561  31.304   3.629
55020W        W27445   6.161  42.354  11.138
55021W        W27446  17.673  41.390  13.514
55022W        W27447  16.692  19.196  13.845
55023W        W27448  40.559  35.623  14.604
55024W        W27449  28.539  37.674   1.286
55025W        W27450  23.725  10.255  10.994
55026W        W27451   9.149  27.586  13.420
55027W        W27452  13.532  24.052  13.809
55028W        W27453  36.283  12.358  14.704
55029W        W27454  36.938  12.200   0.235
55030W        W27455  37.373  29.195  12.595
55031W        W27456  12.249  27.108  14.451
55032W        W27457  13.802  36.095   3.938
55033W        W27458  31.929  19.389  11.156
55034W        W27459  35.056  25.487  10.738
55035W        W27460  36.587  19.085   1.772
55036W        W27461  34.615  12.133  13.993
55037W        W27462   8.394  44.373   1.626
55038W        W27463  24.675  28.954   4.700
55039W        W27464  41.399  15.407   2.353
55040W        W27465   9.340   6.840   2.786
55041W        W27466  19.625   5.299   4.327
55042W        W27467  13.137  27.234   1.662
55043W        W27468  36.452  25.672   2.761
55044W        W27469   8.326   8.478   9.794
55045W        W27470  35.577   0.297   2.423
55046W        W27471   0.603  44.829   2.051
55047W        W27472  24.043  20.287  14.933
55048W        W27473  29.467  36.127  14.441
55049W        W27474  19.006  23.032  14.902
55050W        W27475  39.251  14.771   0.250
55051W        W27476  36.884  11.266   0.063
55052W        W27477   6.880  24.533  10.973
55053W        W27478  28.577  32.667   2.733
55054W        W27479  22.012  26.078   3.807
55055W        W27480  15.310  19.290  14.258
55056W        W27481  30.514   7.172  10.426
55057W        W27482   6.261  14.348   5.107
55058W        W27483  18.333   2.475  12.580
55059W        W27484  20.148  36.394   4.576
55060W        W27485  22.076   1.193   0.362
55061W        W27486  23.708  23.124   4.114
55062W        W27487  43.549  24.717  13.344
55063W        W27488  43.143  25.082  13.420
55064W        W27489  37.622   6.746   3.716
55065W        W27490   7.644   3.712  10.751
55066W        W27491  38.067  24.548   0.268
55067W        W27492   0.966  37.872  10.929
55068W        W27493  10.413   1.720  11.051
55069W        W27494  33.245  24.074   1.881
55070W        W27495  31.411  16.608  11.562
55071W        W27496  11.885   2.035   1.566
55072W        W27497  27.589  40.754  14.845
55073W        W27498   9.791  25.179  12.125
55074W        W27499  36.639  44.393   1.516
55075W        W27500   5.015  28.463  11.356
55076W        W27501  26.972   7.103   0.826
55077W        W27502  40.205  44.907   3.704
55078W        W27503   1.504   2.954   3.532
55079W        W27504   1.428  26.086   2.134
55080W        W27505   6.050  35.048   3.473
55081W        W27506   4.334  27.139  10.717
55082W        W27507  21.315   8.785  13.351
55083W        W27508  26.010  11.325  11.564
55084W        W27509   9.652   2.200  14.700
55085W        W27510  25.676  37.553   2.359
55086W        W27511   0.908  22.120  12.965
55087W        W27512  20.236   2.835   0.471
55088W        W27513  27.079  38.922  14.007
55089W        W27514  27.409  39.484  12.946
55090W        W27515   2.470  40.617   2.359
55091W        W27516  13.482  28.819   1.767
55092W        W27517  22.089  26.053   1.490
55093W        W27518  37.409  39.679   3.377
55094W        W27519  27.164  11.433  10.999
55095W        W27520  16.729  29.404   1.033
55096W        W27521  22.463  36.906  14.814
55097W        W27522  22.786  33.634  10.726
55098W        W27523   6.212  37.648  13.561
55099W        W27524  14.177  35.978   2.021
55100W        W27525  18.042  38.362   2.836
55101W        W27526  30.734   2.747  11.862
55102W        W27527   2.412  18.202   1.470
55103W        W27528   8.711  10.130   0.001
55104W        W27529  14.160  33.945  12.508
55105W        W27530  12.863  27.672  11.637
55106W        W27531  38.535   8.841   3.870
55107W        W27532   1.410  32.052   2.286
55108W        W27533  37.176  22.488   2.346
55109W        W27534  15.874  40.479  11.486
55110W        W27535  30.982  34.371   3.537
55111W        W27536  29.207  41.065  11.688
55112W        W27537  43.416   8.415   3.384
55113W        W27538  32.755  19.990   2.207
55114W        W27539   2.023  23.445  11.540
55115W        W27540   6.840  35.663   3.783
55116W        W27541  20.069  43.070   1.638
55117W        W27542  23.314  10.247   9.726
55118W        W27543  22.235  17.079   0.357
55119W        W27544  43.170   5.287   1.131
55120W        W27545  22.624  35.084   2.972
55121W        W27546  13.556  26.028   4.849
55122W        W27547  17.706  43.706   0.297
55123W        W27548  25.290   3.195  13.936
55124W        W27549  22.478  39.880   4.688
55125W        W27550  11.131  41.355  13.937
55126W        W27551  16.908  43.418   4.110
55127W        W27552  40.477  33.961  10.493
55128W        W27553   0.836  19.665  12.923
55129W        W27554  24.841  28.766  12.455
55130W        W27555  31.645  25.033   1.868
55131W        W27556  44.275  28.023   3.597
55132W        W27557  22.017  36.430   3.914
55133W        W27558  28.507  34.026   2.830
55134W        W27559   2.837  35.320  14.373
55135W        W27560  20.748  39.335   4.443
55136W        W27561  40.018  15.625   0.920
55137W        W27562   5.653  35.931  13.325
55138W        W27563  13.031  24.001  10.633
55139W        W27564  18.197   3.500   1.164
55140W        W27565  42.943  27.066   2.396
55141W        W27566  29.031   1.383   2.607
55142W        W27567  44.230  12.354   0.589
55143W        W27568  25.509  22.940   0.483
55144W        W27569  22.676  32.397   0.893
55145W        W27570  36.282  16.555  12.589
55146W        W27571   4.710  28.993   3.210
55147W        W27572   5.889  27.372   1.364
55148W        W27573  30.633  43.513  14.852
55149W        W27574   8.046   3.763   3.813
55150W        W27575   6.033  15.658  13.513
55151W        W27576  23.268   2.052  13.799
55152W        W27577  13.765  40.411   2.242
55153W        W27578  34.622  15.859  13.725
55154W        W27579   5.114  22.114   1.662
55155W        W27580  10.271  36.665   3.633
55156W        W27581   0.398  19.798  14.372
55157W        W27582  42.839   6.188   0.743
55158W        W27583  25.669  19.508  11.093
55159W        W27584  11.289  31.096   1.934
55160W        W27585   6.905  28.694  11.496
55161W        W27586  32.047  42.478  13.520
55162W        W27587   7.202  27.053  14.944
55163W        W27588  23.951  30.081   1.765
55164W        W27589   1.987  34.472  11.138
55165W        W27590  20.898   9.724  12.196
55166W        W27591  18.352  38.745   2.623
55167W        W27592  15.488  27.424  11.810
55168W        W27593  44.625   0.480  13.260
55169W        W27594  16.593  39.794   1.182
55170W        W27595  44.311  28.639  13.359
55171W        W27596  17.174  20.304   3.123
55172W        W27597  12.697  21.559  10.636
55173W        W27598  26.939  21.348  12.806
55174W        W27599   1.875  18.082  14.429
55175W        W27600  18.120  38.354   4.537
55176W        W27601   9.095  25.735   0.070
55177W        W27602  41.999  29.043   0.991
55178W        W27603   6.510  18.079   1.450
55179W        W27604   8.497  30.622   3.579
55180W        W27605  31.697  12.687   3.269
55181W        W27606  36.896  23.037   5.014
55182W        W27607  21.142   6.624   4.218
55183W        W27608  38.532  33.997   2.723
55184W        W27609  34.703   8.776  11.068
55185W        W27610   2.819  31.927   2.300
55186W        W27611  16.612  42.702  12.052
55187W        W27612  39.734   8.049   0.758
55188W        W27613  36.573  37.939  11.242
55189W        W27614  35.513   1.353   4.735
55190W        W27615  44.535  41.125  14.854
55191W        W27616  40.783  32.951  12.198
55192W        W27617  26.646  17.013  11.557
55193W        W27618  16.870  31.546   9.889
55194W        W27619  24.613  30.924   3.118
55195W        W27620  37.906   0.250   4.209
55196W        W27621  38.384   6.992  12.799
55197W        W27622  14.299   5.915  13.036
55198W        W27623  22.301  18.658   1.930
55199W        W27624  31.624  37.057  12.891
55200W        W27625  17.238  40.035   1.752
55201W        W27626   7.282  20.020  11.897
55202W        W27627  13.085  29.539  13.500
55203W        W27628  22.981  31.863  12.429
55204W        W27629  20.749   3.667  13.927
55205W        W27630  16.161  26.517   2.061
55206W        W27631  29.501  21.699  11.623
55207W        W27632  17.556  26.627  12.130
55208W        W27633  31.630   3.893  11.492
55209W        W27634   8.685  23.777  10.468
55210W        W27635  33.413  35.517   1.509
55211W        W27636  14.058  11.391   0.277
55212W        W27637   6.646  23.763   2.696
55213W        W27638  39.920  25.606  10.745
55214W        W27639   3.867  27.103   0.739
55215W        W27640  33.592  19.520  11.931
55216W        W27641  24.017  42.942  12.347
55217W        W27642  14.304  22.948   1.564
55218W        W27643   8.893   7.712   3.908
55219W        W27644  30.945  19.849   3.757
55220W        W27645  21.684  43.391  11.746
55221W        W27646  30.775  30.454  10.744
55222W        W27647  27.426  33.593  13.872
55223W        W27648  36.021  28.917  13.959
55224W        W27649  13.713  44.379  11.000
55225W        W27650  24.734  43.417   4.593
55226W        W27651   3.431  33.691   4.075
55227W        W27652  16.659  16.054   0.778
55228W        W27653   8.343  34.316   2.313
55229W        W27654  15.603  32.461   4.302
55230W        W27655  35.333  11.204   2.728
55231W        W27656  24.082  11.131   0.963
55232W        W27657  18.491  12.762  11.619
55233W        W27658   5.423  25.015   2.278
55234W        W27659  32.092  40.480  12.992
55235W        W27660   6.782  30.174   0.446
55236W        W27661  29.037  35.638   0.425
55237W        W27662   9.490   5.192   1.646
55238W        W27663  35.609  32.941  11.146
55239W        W27664  11.285  26.413   0.838
55240W        W27665  21.207  36.360  14.414
55241W        W27666  31.867   7.296  14.384
55242W        W27667  14.647   2.337   1.998
55243W        W27668  41.929  23.601  14.649
55244W        W27669  12.108  42.755   2.372
55245W        W27670  40.272  11.475   0.959
55246W        W27671   5.866  35.446  10.737
55247W        W27672  44.175  29.046   3.363
55248W        W27673  11.142  43.433   3.634
55249W        W27674  32.350  40.859   3.815
55250W        W27675  22.404   8.346  12.046
55251W        W27676  30.108  40.520   1.454
55252W        W27677  23.289  29.030   2.172
55253W        W27678   0.749  38.119  14.443
55254W        W27679  20.259  30.067  10.110
55255W        W27680  33.877  44.877   1.401
55256W        W27681  39.975  37.929  11.898
55257W        W27682  28.983   5.765   2.490
55258W        W27683  37.949   0.776  10.619
55259W        W27684  38.827   6.972  13.601
55260W        W27685   5.925  28.722   1.722
55261W        W27686   8.834  20.118   1.169
55262W        W27687  27.044  29.880   3.456
55263W        W27688  19.107  33.406   9.747
55264W        W27689   6.661  10.732  10.637
55265W        W27690  19.579  20.718   3.675
55266W        W27691  39.047  27.450  12.619
55267W        W27692  35.830  15.637   1.319
55268W        W27693   9.215   6.867   0.703
55269W        W27694  23.399  17.701   1.939
55270W        W27695  38.934  12.142   3.733
55271W        W27696  42.415  40.623   0.377
55272W        W27697  43.363  19.663  14.570
55273W        W27698  44.500  44.710  12.517
55274W        W27699  39.135  29.946   0.774
55275W        W27700  40.607  12.515  14.955
55276W        W27701   3.457  30.872  13.817
55277W        W27702   9.210   8.724  13.309
55278W        W27703  35.848  34.672  12.071
55279W        W27704  29.673   5.859   2.259
55280W        W27705   5.911  24.192   2.448
55281W        W27706  11.612  23.093  13.074
55282W        W27707  29.179  37.065  12.939
55283W        W27708  33.595  21.324   3.213
55284W        W27709  33.830  17.202  13.346
55285W        W27710   2.812   2.296   3.913
55286W        W27711  27.921  16.166   2.940
55287W        W27712  43.848  17.372  10.324
55288W        W27713   2.238   7.771   2.262
55289W        W27714  17.763  28.744  14.882
55290W        W27715  12.099  13.763  14.814
55291W        W27716  38.530  15.219   4.333
55292W        W27717  32.065  23.901  10.962
55293W        W27718  28.767  23.915  11.296
55294W        W27719  21.671  42.306   1.275
55295W        W27720  35.821  15.883  12.734
55296W        W27721  43.054  39.550  11.561
55297W        W27722  18.745  35.949   1.719
55298W        W27723  13.200  25.600   3.345
55299W        W27724  20.732  27.277   3.799
55300W        W27725  34.528   3.716   2.840
55301W        W27726  10.041  25.970   2.580
55302W        W27727  12.555  13.114   3.743
55303W        W27728  28.332  13.121   2.036
55304W        W27729  24.742  41.981  14.980
55305W        W27730  41.352  11.618   3.749
55306W        W27731  11.730  22.654  12.472
55307W        W27732  29.580  38.883   1.972
55308W        W27733  28.950  38.502  14.484
55309W        W27734  30.474  23.212   3.535
55310W        W27735  42.397   3.746  14.481
55311W        W27736  11.219   9.726  11.475
55312W        W27737   5.002  33.055   3.717
55313W        W27738  22.541  19.829  10.800
55314W        W27739   4.690   8.622  13.917
55315W        W27740   1.756   7.875   0.433
55316W        W27741   8.688  28.654  14.355
55317W        W27742  12.738  25.577  13.699
55318W        W27743   5.673  15.053   2.277
55319W        W27744   3.988   4.178  13.399
55320W        W27745  43.795  36.295  13.342
55321W        W27746  38.535  36.997  13.343
55322W        W27747  26.889  44.881  10.386
55323W        W27748  17.179   7.974   3.282
55324W        W27749   1.947  16.300   4.491
55325W        W27750  44.746  43.376  13.462
55326W        W27751  26.855  22.547  10.553
55327W        W27752  10.965  10.217   2.652
55328W        W27753  19.621   2.954   1.114
55329W        W27754  15.372  28.210  14.861
55330W        W27755  26.531  44.017  12.990
55331W        W27756  35.822  25.618  11.842
55332W        W27757  42.558   2.228  11.137
55333W        W27758  31.335  44.868   1.290
55334W        W27759  14.597  27.667  13.586
55335W        W27760  14.037   8.985   2.883
55336W        W27761   2.034  24.907  13.946
55337W        W27762  23.464  37.597  11.110
55338W        W27763   4.622  27.575  11.479
55339W        W27764   9.232  39.405  12.108
55340W        W27765  21.167  36.908  14.529
55341W        W27766   9.942  19.743   2.907
55342W        W27767  16.757   6.978   4.170
55343W        W27768  34.988  41.990  12.035
55344W        W27769   9.231  30.150   3.541
55345W        W27770  38.779  31.242   4.616
55346W        W27771  21.822  11.103  10.708
55347W        W27772  23.084  34.678  10.779
55348W        W27773  10.200  23.964  14.537
55349W        W27774   1.995  42.656   2.724
55350W        W27775  20.885  29.743  12.732
55351W        W27776  14.171  10.018   3.293
55352W        W27777  11.108   7.631   1.850
55353W        W27778  26.976  37.522  14.370
55354W        W27779  13.834  19.191   3.406
55355W        W27780  26.424  12.742   3.677
55356W        W27781  24.075  25.488  10.858
55357W        W27782  12.882  30.949  14.199
55358W        W27783  22.956  30.460   3.317
55359W        W27784  14.897  10.398   1.468
55360W        W27785  16.854  19.300   1.429
55361W        W27786  39.838  26.256  12.907
55362W        W27787  14.755   9.948  11.545
55363W        W27788  32.095   3.339   0.801
55364W        W27789  14.329  11.911   1.783
55365W        W27790  13.837  32.458   4.858
55366W        W27791  23.071   6.876   3.377
55367W        W27792  36.014   0.990  14.298
55368W        W27793  39.357  39.405  10.592
55369W        W27794   5.690  10.136  14.566
55370W        W27795   9.264   4.190  14.284
55371W        W27796  36.153  40.589  11.343
55372W        W27797  39.858  25.544   0.066
55373W        W27798  33.063  40.575   2.100
55374W        W27799  28.560  26.298  14.244
55375W        W27800  22.160  31.074  14.944
55376W        W27801  41.985   3.357  10.275
55377W        W27802  31.435  43.941   3.750
55378W        W27803  35.827  33.934   3.684
55379W        W27804  42.986  11.370  14.494
55380W        W27805  12.339   0.698  11.281
55381W        W27806   6.942  21.694  12.134
55382W        W27807  10.267  21.499  14.018
55383W        W27808  24.054   8.602  12.012
55384W        W27809  40.298   6.195  13.472
55385W        W27810  35.138  21.507  11.704
55386W        W27811  11.243  24.720   2.594
55387W        W27812  42.289  31.066  10.593
55388W        W27813  16.023   9.257   2.741
55389W        W27814  34.635  19.094   3.688
55390W        W27815  17.610  41.405   0.696
55391W        W27816  40.060  34.574   1.368
55392W        W27817  14.526  24.270  10.952
55393W        W27818  40.242  34.021  14.483
55394W        W27819  29.459  28.479  14.221
55395W        W27820  28.697  33.596  12.494
55396W        W27821  33.935  26.853   2.322
55397W        W27822  15.272  28.957  12.033
55398W        W27823  36.364   6.529  10.559
55399W        W27824  25.186  21.354  11.116
55400W        W27825  12.208  33.123   2.084
55401W        W27826  40.306  38.527  10.898
55402W        W27827  36.117  37.059  13.984
55403W        W27828   2.507  29.133  10.596
55404W        W27829  11.231  29.269  13.827
55405W        W27830  20.539   0.779  10.899
55406W        W27831   4.204  36.497   2.879
55407W        W27832  10.820  20.793   3.808
55408W        W27833  21.157  15.199  13.931
55409W        W27834  42.819  37.281   3.734
55410W        W27835   5.791  42.405   1.246
55411W        W27836  27.620  24.724  12.019
55412W        W27837  25.145  17.210  12.501
55413W        W27838  32.105  41.773   3.259
55414W        W27839  18.141  17.894   3.128
55415W        W27840  14.546  25.895  14.802
55416W        W27841  12.144   2.417   1.792
55417W        W27842  40.843  15.497  11.070
55418W        W27843  28.666  34.374  11.529
55419W        W27844  35.323  29.889   2.187
55420W        W27845  24.139  41.989  12.330
55421W        W27846  43.345  44.833  13.886
55422W        W27847  29.208  40.113  13.047
55423W        W27848  23.177  37.958   0.880
55424W        W27849  18.314  35.442   4.614
55425W        W27850   2.466  43.360   0.888
55426W        W27851   0.778  38.841  12.597
55427W        W27852  30.942  15.032  11.920
55428W        W27853  40.008  21.268   0.267
55429W        W27854  33.899  40.971  14.462
55430W        W27855  31.127  40.336  14.396
55431W        W27856  17.855  39.387  13.464
55432W        W27857  10.382  44.393   4.594
55433W        W27858   8.622  32.876   3.762
55434W        W27859  14.066  22.099  12.148
55435W        W27860  13.350  18.524   4.622
55436W        W27861   9.812  24.956   0.918
55437W        W27862   8.311   2.057   1.947
55438W        W27863  12.705  24.498   0.655
55439W        W27864   9.331  39.517   4.612
55440W        W27865  17.290  22.185  11.447
55441W        W27866  23.144   1.154   2.235
55442W        W27867   8.330  40.968   0.260
55443W        W27868   1.260  31.439   0.985
55444W        W27869   1.819  17.292   4.690
55445W        W27870   8.430  13.504  13.917
55446W        W27871   7.819  33.559  13.533
55447W        W27872  35.146  23.538  11.274
55448W        W27873  16.585  31.965   9.781
55449W        W27874  14.684  41.841  13.361
55450W        W27875   3.671   5.404  11.241
55451W        W27876  30.822   5.305   4.821
55452W        W27877  43.311   6.316  10.922
55453W        W27878  24.210  32.012  11.500
55454W        W27879   9.390   9.049  10.624
55455W        W27880  34.142  26.213  11.368
55456W        W27881  20.704  29.981  12.250
55457W        W27882  34.715  26.229   0.200
55458W        W27883  18.808  43.923  12.836
55459W        W27884  29.922  23.908  12.014
55460W        W27885  42.820  18.583  12.881
55461W        W27886   3.777  27.992  14.337
55462W        W27887  32.193  37.436   5.052
55463W        W27888   5.388  44.480   2.660
55464W        W27889  39.902  40.472   3.407
55465W        W27890  30.434  15.412   4.123
55466W        W27891  21.243  25.714   0.746
55467W        W27892   5.916   4.409  13.577
55468W        W27893  31.815   1.499   0.449
55469W        W27894   5.288   6.346  13.067
55470W        W27895   3.797  37.980   1.504
55471W        W27896   9.492  29.279  11.068
55472W        W27897  25.723   1.216  12.446
55473W        W27898  17.659   2.845   9.857
55474W        W27899  38.661  23.946  10.190
55475W        W27900   9.802  43.836   3.975
55476W        W27901  11.787  24.955   0.783
55477W        W27902  13.215  34.043  10.739
55478W        W27903  30.643  31.445  11.455
55479W        W27904  37.396  40.257  12.629
55480W        W27905  37.424  38.326  14.910
55481W        W27906  15.492  41.485  12.452
55482W        W27907  33.518  39.242   4.725
55483W        W27908   8.857  10.329   4.086
55484W        W27909  13.897  41.882  10.600
55485W        W27910  22.551  36.968  13.094
55486W        W27911   4.022  30.152  14.791
55487W        W27912  10.352  42.343  14.559
55488W        W27913  30.246   6.221  12.765
55489W        W27914  38.911  12.319  11.392
55490W        W27915   0.952   6.302   4.730
55491W        W27916  21.470  27.453   2.344
55492W        W27917  13.193  32.506   2.176
55493W        W27918  26.013   6.942   4.231
55494W        W27919  41.108  43.861  11.461
55495W        W27920  18.994   8.823  13.783
55496W        W27921  27.998  41.320  11.857
55497W        W27922   7.201  37.757   1.126
55498W        W27923   6.943  39.511  13.028
55499W        W27924   6.212  23.809   4.298
55500W        W27925   5.462  16.825   4.561
55501W        W27926  23.185  38.487  14.873
55502W        W27927  30.154  42.170  13.483
55503W        W27928   4.972  27.240  13.923
55504W        W27929  21.720  15.045   2.119
55505W        W27930  21.947  28.600   3.935
55506W        W27931  38.327  43.945   4.283
55507W        W27932  34.490  38.911  12.418
55508W        W27933   8.494  22.360   4.155
55509W        W27934  11.919  39.139   3.223
55510W        W27935  19.311  23.175  13.781
55511W        W27936  32.785   9.005  12.181
55512W        W27937  18.049   1.703  11.571
55513W        W27938   9.181  41.931  11.472
55514W        W27939  20.202  42.831  10.081
55515W        W27940   7.766  22.249  11.909
55516W        W27941  33.929  11.240  14.450
55517W        W27942  39.400  44.329  12.630
55518W        W27943  20.012  26.430  10.993
55519W        W27944   6.706  42.293  13.392
55520W        W27945  30.467  39.947   4.053
55521W        W27946  42.596  13.669   2.214
55522W        W27947  37.500   8.665  12.008
55523W        W27948  33.184  40.976  12.377
55524W        W27949  26.754  43.986  14.488
55525W        W27950  31.157  28.409  13.774
55526W        W27951   7.773  16.791   3.081
55527W        W27952  22.244   9.214   3.202
55528W        W27953  32.698  34.841  12.001
55529W        W27954  10.153  42.714   4.110
55530W        W27955  27.203  27.678  14.234
55531W        W27956  17.748  28.405  11.485
55532W        W27957  23.697  32.583  14.768
55533W        W27958   2.769   4.126   1.712
55534W        W27959  27.890  12.490   3.298
55535W        W27960  21.323  38.782  11.196
55536W        W27961   5.639  24.246  13.586
55537W        W27962  13.332  44.411  11.944
55538W        W27963   8.662  10.044   1.629
55539W        W27964  29.543  21.064   0.042
55540W        W27965  31.954  12.829   3.733
55541W        W27966  37.492  11.442  10.864
55542W        W27967   3.346  42.982   1.188
55543W        W27968  27.670   6.356   4.971
55544W        W27969  15.532   4.590   0.653
55545W        W27970  26.644  33.964  10.842
55546W        W27971  26.057  39.044  11.066
55547W        W27972   6.343  29.404   0.394
55548W        W27973  19.490  38.403   3.059
55549W        W27974  40.267  44.444  14.497
55550W        W27975  25.025  44.524   0.986
55551W        W27976  10.612  30.700  14.390
55552W        W27977  19.597  22.448   1.341
55553W        W27978  43.999   7.079  12.599
55554W        W27979   5.803  14.644  11.378
55555W        W27980  23.207  16.440  11.653
55556W        W27981  19.144  37.090  14.484
55557W        W27982  31.484   4.426   4.173
55558W        W27983  16.325  29.192   2.797
55559W        W27984  28.713  14.740   2.952
55560W        W27985  44.990  26.985   0.422
55561W        W27986  37.120  11.735   2.297
55562W        W27987  38.135  39.540   1.834
55563W        W27988  14.567  21.916   9.858
55564W        W27989  15.932  19.257   4.243
55565W        W27990  39.357  10.138   3.115
55566W        W27991  37.024   7.613  11.728
55567W        W27992  11.370   8.325   4.017
55568W        W27993   0.393   9.279   1.257
55569W        W27994  21.748  44.509   4.164
55570W        W27995  28.015  37.635  13.394
55571W        W27996  23.536   9.712  12.372
55572W        W27997   4.212  23.004   4.038
55573W        W27998  36.279  33.452  14.873
55574W        W27999  28.053  34.841  11.154
55575W        W28000  26.015  34.472  11.867
55576W        W28001   9.439   3.984   3.615
55577W        W28002  35.913  25.596  10.941
55578W        W28003  39.217  11.288   3.679
55579W        W28004  39.092  11.801  13.952
55580W        W28005   0.003  11.927   1.866
55581W        W28006  10.821  24.948   2.406
55582W        W28007  39.470  38.785  12.053
55583W        W28008  42.845   7.843  10.765
55584W        W28009  32.170  33.346  14.253
55585W        W28010   7.219   8.585   0.385
55586W        W28011  25.715  32.830  11.828
55587W        W28012   6.732  21.091  11.456
55588W        W28013  10.556   9.661  13.967
55589W        W28014  16.091   6.332   4.806
55590W        W28015  31.458  15.551  11.504
55591W        W28016  37.345   6.325  14.730
55592W        W28017  24.913  18.389  13.550
55593W        W28018   9.244  14.833  10.960
55594W        W28019  30.464   4.286  12.491
55595W        W28020  27.484  38.147   1.042
55596W        W28021  21.433  26.254  11.573
55597W        W28022  12.720  22.819  11.487
55598W        W28023  40.248   6.711  13.452
55599W        W28024  27.931  37.376  12.049
55600W        W28025   3.435   4.384  12.435
55601W        W28026  11.306  43.376  11.941
55602W        W28027   2.503  37.949   0.909
55603W        W28028  10.726  33.338  14.510
55604W        W28029  44.235  44.732   0.871
55605W        W28030  19.492  36.332  13.485
55606W        W28031  36.446  35.534   4.468
55607W        W28032  37.496  23.127  14.777
55608W        W28033   8.033   3.659   2.458
55609W        W28034  19.077  20.798   1.863
55610W        W28035  42.982  31.927  14.084
55611W        W28036  28.683  25.147  11.975
55612W        W28037  29.184  15.387  14.399
55613W        W28038  40.568  25.205   1.392
55614W        W28039   9.382   8.310  13.551
55615W        W28040  28.381  26.939  11.035
55616W        W28041  22.270   0.369  12.052
55617W        W28042  22.698  40.256  13.128
55618W        W28043  15.250  22.519   5.113
55619W        W28044  11.568  26.441  14.543
55620W        W28045  41.200  17.663   2.241
55621W        W28046  18.360   1.051  14.526
55622W        W28047  16.574  24.759   0.548
55623W        W28048   5.720  33.253  12.401
55624W        W28049  40.954   3.726   4.737
55625W        W28050  23.543  31.024   0.808
55626W        W28051  23.579  36.857  11.818
55627W        W28052  20.545   2.343  13.895
55628W        W28053  13.443  21.202   2.683
55629W        W28054  40.921  12.079  13.355
55630W        W28055  20.123  17.209  12.883
55631W        W28056  39.893  30.214  12.620
55632W        W28057  18.296  12.265   3.806
55633W        W28058  11.777   3.211  14.358
55634W        W28059  18.751  39.285  13.965
55635W        W28060  10.855   6.367   4.561
55636W        W28061  33.858  35.117   4.862
55637W        W28062   6.931  44.755  11.976
55638W        W28063   8.755  26.619  11.542
55639W        W28064  12.647   7.050   1.415
55640W        W28065  40.241  15.748  12.887
55641W        W28066  36.443  30.837  13.647
55642W        W28067  11.750  29.080  10.255
55643W        W28068  35.837  23.099  13.274
55644W        W28069  30.973  28.562   2.228
55645W        W28070   2.466  36.892   4.099
55646W        W28071  16.988  27.681   4.912
55647W        W28072  37.670   2.479   1.354
55648W        W28073   3.393   3.315   2.953
55649W        W28074  24.842   6.313   1.184
55650W        W28075  36.596  39.858   0.324
55651W        W28076  44.618  36.036   1.289
55652W        W28077  35.835  15.573  11.138
55653W        W28078  41.130  28.410  12.982
55654W        W28079   4.837  10.172  14.025
55655W        W28080  15.235  38.931  14.370
55656W        W28081  29.589  37.952  14.874
55657W        W28082   8.443  21.356   4.711
55658W        W28083  29.570  10.746  11.582
55659W        W28084   2.443  13.073   0.483
55660W        W28085  39.563  37.415   0.727
55661W        W28086   6.097  17.308   0.296
55662W        W28087   6.044  14.719   1.341
55663W        W28088  31.414   2.646  10.760
55664W        W28089  35.385   2.961  10.648
55665W        W28090  10.295  32.043  14.684
55666W        W28091   6.403  22.959  11.178
55667W        W28092  34.487   6.363  13.137
55668W        W28093  25.266  13.244  13.750
55669W        W28094   1.721  39.863   0.937
55670W        W28095  38.688  40.302  10.752
55671W        W28096   9.759  25.424   4.578
55672W        W28097  23.266  10.797  13.957
55673W        W28098  15.154  26.599   2.446
55674W        W28099   9.708  16.320  11.129
55675W        W28100  22.735  28.947   0.691
55676W        W28101  22.275  26.458  12.940
55677W        W28102  41.026  30.693   3.804
55678W        W28103  19.875  30.470  13.282
55679W        W28104  15.573  23.939   2.864
55680W        W28105   5.175   9.903   0.811
55681W        W28106  29.986  15.988  14.800
55682W        W28107  16.586  11.716   3.394
55683W        W28108  20.103  34.721   4.335
55684W        W28109   5.329  42.002   3.731
55685W        W28110  28.585  18.246  12.585
55686W        W28111  30.422  38.622   3.224
55687W        W28112   9.632  15.685   2.148
55688W        W28113   7.350  37.218   4.114
55689W        W28114  21.091  28.046  10.631
55690W        W28115  26.477   0.670  10.687
55691W        W28116   2.012  33.986  11.352
55692W        W28117  11.613  10.495   3.358
55693W        W28118  30.655  17.123   1.718
55694W        W28119   2.359  32.971   2.846
55695W        W28120  38.792  10.207   2.845
55696W        W28121  40.952  40.600   1.327
55697W        W28122   8.076  30.194   0.451
55698W        W28123   8.393  33.644  10.804
55699W        W28124  39.579  10.405  13.554
55700W        W28125   3.275  40.043  12.810
55701W        W28126  21.560   4.251  14.965
55702W        W28127  26.281  29.994  10.604
55703W        W28128  19.098  39.967   1.606
55704W        W28129  21.620  13.688   3.300
55705W        W28130  28.192  14.841  13.475
55706W        W28131  43.511  25.237  14.803
55707W        W28132  35.324  29.680  11.733
55708W        W28133  43.751  44.358   3.746
55709W        W28134  20.127  34.829  11.711
55710W        W28135  29.910  23.176  12.583
55711W        W28136  12.849  44.971  11.352
55712W        W28137  44.982  42.290   1.282
55713W        W28138   6.489  11.226   1.263
55714W        W28139  17.071  20.487   1.110
55715W        W28140   1.914  20.666   2.778
55716W        W28141  10.198  38.038  13.405
55717W        W28142  10.260  36.928   2.081
55718W        W28143  24.138  32.521  14.507
55719W        W28144  44.924  27.558  12.473
55720W        W28145  18.285   8.876  12.072
55721W        W28146   4.359  41.391   3.403
55722W        W28147  42.279  41.423  11.585
55723W        W28148  10.567  43.952  10.646
55724W        W28149   4.340   7.372  10.380
55725W        W28150  17.290  10.223  10.493
55726W        W28151   2.889   4.512   2.074
55727W        W28152   8.612  19.611   2.393
55728W        W28153   8.470  22.197  14.895
55729W        W28154   7.064   4.939  11.139
55730W        W28155  26.517   2.874   0.427
55731W        W28156  21.098  32.392  13.471
55732W        W28157  25.577  36.194  13.853
55733W        W28158  34.601  43.056  12.518
55734W        W28159  14.875  42.203  14.352
55735W        W28160   0.228  33.192   4.614
55736W        W28161  26.182   0.363   3.908
55737W        W28162  16.802  43.901   0.776
55738W        W28163  25.288  38.590   1.474
55739W        W28164   9.666  28.615   0.314
55740W        W28165  22.998  21.750  13.528
55741W        W28166  25.087  31.869  14.902
55742W        W28167  41.370  26.543  11.041
55743W        W28168  40.565  35.301   1.641
55744W        W28169   3.412   8.714  11.605
55745W        W28170  32.496  32.821   2.187
55746W        W28171   1.921  12.687   3.319
55747W        W28172  35.495  22.414  13.795
55748W        W28173   0.964  22.757  10.663
55749W        W28174  34.876   5.686  13.381
55750W        W28175  17.600  29.939   5.478
55751W        W28176  10.843   3.494  12.066
55752W        W28177   8.437  22.424  11.399
55753W        W28178  31.644  38.981  11.596
55754W        W28179  33.343  30.853   5.068
55755W        W28180  14.831   0.494   1.875
55756W        W28181  40.684  16.738  13.803
55757W        W28182  15.487  22.171  14.064
55758W        W28183  17.272  14.152  12.315
55759W        W28184  25.612  36.684   4.692
55760W        W28185  12.177  42.464  14.480
55761W        W28186   0.980  10.945  11.853
55762W        W28187  38.378  27.178   1.656
55763W        W28188  12.444   0.783   1.897
55764W        W28189   8.864  15.370   1.361
55765W        W28190  31.828  44.822   2.869
55766W        W28191  37.260  39.408  11.668
55767W        W28192  42.378  21.618  11.304
55768W        W28193   1.266  14.640   3.631
55769W        W28194  27.676   8.940   3.344
55770W        W28195  29.404  38.543   2.365
55771W        W28196  24.460  28.198   2.642
55772W        W28197  13.665  39.070  13.342
55773W        W28198  20.311  36.192   4.122
55774W        W28199  32.939  25.638   0.182
55775W        W28200  32.836  25.337  12.864
55776W        W28201  17.986  21.211   0.064
55777W        W28202  20.576  22.098   2.963
55778W        W28203  42.887  11.718   0.760
55779W        W28204   2.750  13.818   2.366
55780W        W28205  17.140   6.012  11.885
55781W        W28206  18.306   3.217   3.108
55782W        W28207  34.593   7.806   1.350
55783W        W28208  25.490  13.476  12.571
55784W        W28209   7.893   9.436   1.820
55785W        W28210  14.276  41.577   1.993
55786W        W28211  26.171  15.637  14.807
55787W        W28212  36.358  20.128   4.545
55788W        W28213  28.108  39.581   0.855
55789W        W28214  24.879  29.427  11.216
55790W        W28215  26.715  27.240   2.633
55791W        W28216  44.013  10.761  11.904
55792W        W28217   0.084  14.873  12.720
55793W        W28218   3.000  44.114   2.292
55794W        W28219  23.536  29.544   0.968
55795W        W28220  36.431  42.065   1.311
55796W        W28221   1.089  31.629   5.078
55797W        W28222  25.637  25.996   3.349
55798W        W28223   6.671  17.747   3.777
55799W        W28224  25.462  29.227  12.031
55800W        W28225   6.684  29.468  10.683
55801W        W28226  17.349  20.304   4.093
55802W        W28227  33.278  26.220   3.271
55803W        W28228  19.273   1.751  14.005
55804W        W28229   0.326  23.364  12.051
55805W        W28230  16.673  27.661  13.658
55806W        W28231   5.038  14.275   2.247
55807W        W28232   6.295  20.626  14.878
55808W        W28233  19.179  19.066   0.551
55809W        W28234   4.654   4.148  14.044
55810W        W28235   8.251  17.126  14.136
55811W        W28236   5.332  14.380   1.802
55812W        W28237   5.727   0.261  13.517
55813W        W28238  27.851  21.864  11.609
55814W        W28239  29.964  11.051   1.210
55815W        W28240  29.250  32.095   3.213
55816W        W28241  19.064  11.826   4.128
55817W        W28242  15.213  21.734  10.574
55818W        W28243  15.123  38.672  12.239
55819W        W28244  40.294  15.240  12.578
55820W        W28245  33.334  33.547  14.895
55821W        W28246   9.730  43.349  10.622
55822W        W28247  37.939   7.923   4.766
55823W        W28248  41.113  35.963  14.693
55824W        W28249  31.450  15.224  14.716
55825W        W28250  31.508  23.698   2.199
55826W        W28251  12.393  10.311   1.246
55827W        W28252  19.519  16.805  13.142
55828W        W28253  38.955  39.679  12.960
55829W        W28254   6.271   7.307  12.497
55830W        W28255  30.083   6.371   3.338
55831W        W28256  11.126   0.074   3.720
55832W        W28257   6.648  35.928  13.369
55833W        W28258  35.332   4.451  11.406
55834W        W28259  31.050  11.352   3.639
55835W        W28260  29.403  30.617   1.747
55836W        W28261  11.642  20.957  11.982
55837W        W28262  10.334  18.269   3.759
55838W        W28263   4.260  14.538  12.329
55839W        W28264  30.605  20.488  11.016
55840W        W28265   6.918  44.700   1.807
55841W        W28266   9.329  11.340  13.838
55842W        W28267  31.364  32.482   2.667
55843W        W28268  22.232  33.609   3.095
55844W        W28269  32.700  18.219   3.325
55845W        W28270  22.171  42.758   0.257
55846W        W28271   5.992  21.811  14.748
55847W        W28272  15.133  40.295  13.012
55848W        W28273  21.981  29.642  10.591
55849W        W28274  35.491  19.499  14.788
55850W        W28275  43.427  28.949   2.854
55851W        W28276  38.079  34.419   4.206
55852W        W28277   9.260  42.538   1.667
55853W        W28278   9.323  25.979  13.927
55854W        W28279  42.581   4.929  13.965
55855W        W28280  30.501  31.932   4.528
55856W        W28281  41.921   7.743  11.961
55857W        W28282  10.208  29.872  11.756
55858W        W28283  22.236  41.433   2.190
55859W        W28284  27.672  38.564   0.776
55860W        W28285  27.662  29.587   1.311
55861W        W28286  43.341  24.582   3.418
55862W        W28287  32.589  21.619   3.659
55863W        W28288  28.505  24.430   1.413
55864W        W28289  31.704  28.004   2.371
55865W        W28290  40.763   8.041   3.787
55866W        W28291  44.477  28.108  12.015
55867W        W28292  36.458  13.070   4.117
55868W        W28293  33.660  29.043   4.073
55869W        W28294  13.151  19.034  13.450
55870W        W28295  28.495  37.183   1.378
55871W        W28296  18.859  19.985   3.971
55872W        W28297  28.375  30.361   0.946
55873W        W28298  40.455  26.278  14.455
55874W        W28299  22.136  28.288  14.274
55875W        W28300  20.109   5.502  11.548
55876W        W28301  41.265  15.385  10.782
55877W        W28302  20.585   2.013   0.418
55878W        W28303  36.878  18.893   1.139
55879W        W28304  38.103  13.653  11.515
55880W        W28305   6.785  38.560  12.672
55881W        W28306  39.353   5.448  13.867
55882W        W28307  10.735   1.472   4.619
55883W        W28308  19.032  25.241   4.169
55884W        W28309   7.980  21.213   4.553
55885W        W28310  10.797  20.567  14.432
55886W        W28311  35.705   8.574   4.091
55887W        W28312  42.054  44.505  14.337
55888W        W28313  37.656  28.173   3.531
55889W        W28314  22.142  36.367   2.899
55890W        W28315  25.611  37.910  11.481
55891W        W28316  11.278  11.052  12.444
55892W        W28317  41.058  36.116   1.487
55893W        W28318   4.161  23.200  12.360
55894W        W28319  23.325  12.372  12.526
55895W        W28320   9.293  15.493  13.832
55896W        W28321  19.044  22.012   1.209
55897W        W28322   3.776  37.573  12.023
55898W        W28323  15.401   5.595  12.123
55899W        W28324  10.691  38.364  11.773
55900W        W28325  40.867  38.243  11.628
55901W        W28326  19.228  20.948  12.539
55902W        W28327   9.091  16.846   0.633
55903W        W28328  11.008  40.857  13.872
55904W        W28329  42.547  39.833   1.795
55905W        W28330  27.927  28.353  11.114
55906W        W28331  20.067  15.905   2.118
55907W        W28332  10.215   2.344   1.939
55908W        W28333  42.329   8.413  10.731
55909W        W28334   3.749  43.390  10.575
55910W        W28335  43.560  33.409  13.470
55911W        W28336  34.659   8.344  11.902
55912W        W28337  15.367  12.301   3.904
55913W        W28338   6.244  27.978   0.755
55914W        W28339  40.972  20.330   0.125
55915W        W28340  12.276  17.855   1.819
55916W        W28341  26.768  10.390  11.885
55917W        W28342  14.170   7.329   1.300
55918W        W28343  13.331  13.605  14.252
55919W        W28344  44.449  24.057   4.551
55920W        W28345   6.862  30.973  11.462
55921W        W28346  22.951  18.551  11.562
55922W        W28347  19.121  35.547  10.535
55923W        W28348  15.846   1.505  11.301
55924W        W28349  32.010   1.588   4.765
55925W        W28350  42.897  23.028  10.727
55926W        W28351  11.697  33.712   1.371
55927W        W28352  42.999  23.070   1.342
55928W        W28353  14.825  15.559  14.699
55929W        W28354  30.192  37.453  10.695
55930W        W28355   5.736  15.667  10.541
55931W        W28356  28.679  38.607  14.920
55932W        W28357  38.740  26.230  14.920
55933W        W28358  22.600  37.487   3.696
55934W        W28359  23.624  12.197  13.835
55935W        W28360   1.896  11.301  11.080
55936W        W28361  37.982  29.541   3.904
55937W        W28362  13.082   6.043  12.222
55938W        W28363   8.778  41.077   0.513
55939W        W28364  13.297  38.809   1.846
55940W        W28365  38.981  18.598  14.086
55941W        W28366  41.045  42.997  14.252
55942W        W28367  14.762  20.558  11.458
55943W        W28368  36.615  44.392  12.861
55944W        W28369  38.400  17.145   0.254
55945W        W28370  14.001   5.256   2.861
55946W        W28371  32.950  35.115   4.386
55947W        W28372  14.261  12.951   5.157
55948W        W28373  38.463  35.351  11.241
55949W        W28374  14.142  27.940  12.967
55950W        W28375  41.366   4.809   4.651
55951W        W28376  27.588  41.741   2.356
55952W        W28377  44.722  25.226   1.884
55953W        W28378  34.158  25.438   2.919
55954W        W28379  27.012  27.297   4.350
55955W        W28380  27.547   5.890  12.591
55956W        W28381  27.403   1.139  13.435
55957W        W28382  12.733   8.904  11.484
55958W        W28383  29.670  15.607   1.823
55959W        W28384  36.030  32.120   1.011
55960W        W28385  26.722  16.082   1.981
55961W        W28386  14.708   3.984   0.335
55962W        W28387   2.308  23.494   0.500
55963W        W28388   4.973  36.828   3.218
55964W        W28389  43.497  26.936  11.964
55965W        W28390  13.868  18.492  13.491
55966W        W28391   7.632  26.024   1.309
55967W        W28392  42.230  37.979  14.753
55968W        W28393  21.996  11.700   3.628
55969W        W28394  10.206  32.383  11.884
55970W        W28395   7.893  32.313  13.920
55971W        W28396  11.694  27.959   2.380
55972W        W28397  20.850  18.635   1.430
55973W        W28398  28.179   6.447   4.834
55974W        W28399   6.385  30.099   4.241
55975W        W28400  30.481  32.792  13.931
55976W        W28401  34.665  39.984  13.299
55977W        W28402  23.079  29.613  14.520
55978W        W28403  12.184   9.733  11.508
55979W        W28404   5.230   4.508   4.620
55980W        W28405  36.070   8.753  12.193
55981W        W28406  33.876   8.843  14.927
55982W        W28407   2.552  23.049  12.881
55983W        W28408  29.555  12.084   2.694
55984W        W28409   3.209  15.106   4.299
55985W        W28410  22.651  33.121   1.414
55986W        W28411  17.071  28.460   2.197
55987W        W28412  41.308  38.537   4.575
55988W        W28413  23.012  43.237  11.736
55989W        W28414  10.387  34.077   0.185
55990W        W28415  19.642  42.339  13.589
55991W        W28416   8.301  28.245   2.785
55992W        W28417  35.978  40.009   2.375
55993W        W28418  43.865   6.183  12.619
55994W        W28419  11.075  17.055  11.187
55995W        W28420  41.404  37.067   4.918
55996W        W28421  30.571  17.400   3.703
55997W        W28422   6.679   6.936   4.705
55998W        W28423  31.874  44.595   0.391
55999W        W28424   8.692  13.840   3.259
56000W        W28425  14.148  19.019   0.892
56001W        W28426   4.665   8.893  10.072
56002W        W28427  30.595  20.430   0.724
56003W        W28428  22.033  12.109   1.765
56004W        W28429  32.181  44.988   3.249
56005W        W28430  32.725  24.015   1.814
56006W        W28431  20.409  24.181   4.626
56007W        W28432  37.349  22.858   4.715
56008W        W28433  23.036   1.507  13.771
56009W        W28434  21.358   6.515   0.413
56010W        W28435  34.856  43.886  10.797
56011W        W28436   7.202  11.727   4.527
56012W        W28437  28.594   2.289   2.280
56013W        W28438   2.013  44.196   2.390
56014W        W28439   6.418  38.228  14.227
56015W        W28440  16.750   6.869  11.193
56016W        W28441  35.039   8.159  14.411
56017W        W28442   0.275  12.815   0.237
56018W        W28443  25.253  32.990   2.328
56019W        W28444  12.595  39.303  10.667
56020W        W28445  25.136  36.510   0.946
56021W        W28446   8.403  15.211   4.497
56022W        W28447  11.924  39.881   2.312
56023W        W28448  23.782   5.812   3.135
56024W        W28449  10.166   4.905  12.966
56025W        W28450  24.219   3.762   0.994
56026W        W28451  15.667  40.018   3.343
56027W        W28452  29.063   9.236   4.738
56028W        W28453  21.957  34.435   3.116
56029W        W28454  25.683  39.100  12.870
56030W        W28455  41.751  39.770   4.388
56031W        W28456  36.043  40.816   1.962
56032W        W28457  31.731   7.235   4.583
56033W        W28458  24.437   1.012  13.432
56034W        W28459  12.740  35.005   0.869
56035W        W28460  27.039  32.267   9.796
56036W        W28461  18.047  24.197   2.402
56037W        W28462  26.773  31.661  12.575
56038W        W28463  27.467  17.183   4.240
56039W        W28464   8.647   9.589  11.058
56040W        W28465  44.645  11.728   4.769
56041W        W28466   3.844  31.430   0.207
56042W        W28467  42.853   5.359  14.264
56043W        W28468  27.099  24.726   3.385
56044W        W28469   6.775   8.188   1.450
56045W        W28470  33.804   6.128   2.667
56046W        W28471   7.330   1.897  10.556
56047W        W28472   0.486   5.893  11.543
56048W        W28473  30.822  25.178  10.439
56049W        W28474   1.678   9.001   3.676
56050W        W28475  34.285  26.672  13.484
56051W        W28476  41.730  13.751   4.202
56052W        W28477   2.395   1.485   0.717
56053W        W28478  37.998  33.940   2.658
56054W        W28479   1.644  36.532   4.134
56055W        W28480  24.282  22.941   0.353
56056W        W28481  42.212  43.673   3.279
56057W        W28482  42.917  42.878  14.962
56058W        W28483   4.043   1.932   1.228
56059W        W28484  26.332  33.665   3.900
56060W        W28485   8.976   6.359  11.004
56061W        W28486  43.079  19.182   0.679
56062W        W28487  26.217  22.008  13.862
56063W        W28488  16.295  39.470   3.081
56064W        W28489  40.642   7.196  12.441
56065W        W28490  35.417  38.385  11.590
56066W        W28491   4.217  31.981   1.353
56067W        W28492  25.111  40.774   2.140
56068W        W28493  15.779   7.776   0.408
56069W        W28494   9.661  32.057  13.853
56070W        W28495   6.325  13.126  13.465
56071W        W28496   8.376  24.712  12.110
56072W        W28497   1.718  31.199   2.731
56073W        W28498  11.938   2.547  10.648
56074W        W28499  18.632  17.285   2.450
56075W        W28500   1.183  11.261  11.491
56076W        W28501  40.027  44.797   1.250
56077W        W28502   6.403   7.411   4.197
56078W        W28503  11.679   5.307   4.492
56079W        W28504  33.909  13.527   4.607
56080W        W28505  41.329  27.704   2.647
56081W        W28506  32.562   1.062  12.458
56082W        W28507  37.903  27.018  12.805
56083W        W28508   6.476  34.669  11.956
56084W        W28509   9.969  29.954   4.689
56085W        W28510   7.297  30.870   0.342
56086W        W28511  16.714  36.499   2.432
56087W        W28512  15.815  11.718   4.507
56088W        W28513  23.037  33.782  12.090
56089W        W28514   0.658  20.090  12.542
56090W        W28515  19.850  25.240   3.278
56091W        W28516  34.021  18.041   1.301
56092W        W28517  24.790  35.994  12.074
56093W        W28518  21.670  29.912  11.659
56094W        W28519  19.555  44.231   1.662
56095W        W28520  15.619   0.791   5.064
56096W        W28521  16.210  34.851   0.045
56097W        W28522  11.867  31.920  14.732
56098W        W28523  25.987  31.526   3.384
56099W        W28524  40.472   8.948   4.153
56100W        W28525   2.793  23.516   3.047
56101W        W28526  19.103  41.304  13.550
56102W        W28527  44.820  11.186  13.146
56103W        W28528  34.154  18.083  10.211
56104W        W28529  33.420   3.334   1.807
56105W        W28530   6.161   6.892  13.455
56106W        W28531  29.621  44.057  13.516
56107W        W28532  27.926  26.643  10.695
56108W        W28533  37.071   2.670  11.160
56109W        W28534   4.231  12.354   0.991
56110W        W28535  42.530   1.070  13.300
56111W        W28536  18.541  20.665  11.181
56112W        W28537  31.175  39.066  13.211
56113W        W28538  29.653  32.693  12.806
56114W        W28539  21.983  11.179   1.752
56115W        W28540  43.295  20.748  11.069
56116W        W28541  10.600  14.747   4.049
56117W        W28542  28.642   5.853   3.889
56118W        W28543  28.094  39.388   0.354
56119W        W28544  10.415  35.812   0.346
56120W        W28545   9.616  25.219  13.168
56121W        W28546   2.672  28.903   1.229
56122W        W28547  39.608  26.043   1.275
56123W        W28548   1.580   5.180  11.258
56124W        W28549  24.978  11.481   0.121
56125W        W28550  40.041  33.678   4.132
56126W        W28551  27.476   4.979   4.595
56127W        W28552  26.007  40.311  12.089
56128W        W28553  29.108   3.594  13.873
56129W        W28554   5.936  22.187   4.830
56130W        W28555  22.491  32.288   9.956
56131W        W28556  33.689  44.872   0.880
56132W        W28557  11.582  25.148   1.260
56133W        W28558   5.515  21.400   1.133
56134W        W28559  24.811  22.962  11.488
56135W        W28560  30.631  39.950   2.382
56136W        W28561   4.888   8.798  14.370
56137W        W28562  13.979  19.871  11.211
56138W        W28563  21.834  31.005   1.330
56139W        W28564   7.715  22.387  14.588
56140W        W28565   3.204  28.042  13.512
56141W        W28566  43.948   7.855   1.304
56142W        W28567   0.457   2.974   1.061
56143W        W28568  31.888  30.143  13.906
56144W        W28569  34.442  18.145  14.210
56145W        W28570  11.653  36.926   2.162
56146W        W28571  40.895  41.065  11.549
56147W        W28572  17.340  44.657  12.500
56148W        W28573  40.869   6.264   2.279
56149W        W28574  38.894  35.622   4.101
56150W        W28575  41.033  43.523   3.724
56151W        W28576  42.254   8.791   2.044
56152W        W28577  20.747  13.078  14.992
56153W        W28578  37.085  12.116   3.328
56154W        W28579  32.167  24.903   1.866
56155W        W28580  43.843   0.289   3.744
56156W        W28581  23.025  28.610  10.408
56157W        W28582  32.506  18.679   3.800
56158W        W28583   3.947  39.758   3.677
56159W        W28584  21.387  26.945  13.843
56160W        W28585  34.157   3.451   3.195
56161W        W28586  28.118  17.827  14.361
56162W        W28587   4.488   7.737  13.614
56163W        W28588  25.410  10.316  11.516
56164W        W28589  16.829  22.456  10.689
56165W        W28590   0.946  40.911  12.781
56166W        W28591   5.864  14.273   1.959
56167W        W28592   8.271   8.956   3.508
56168W        W28593  32.036   6.967   4.089
56169W        W28594  37.109  24.974   4.892
56170W        W28595  38.734  44.816  12.419
56171W        W28596  26.484  43.895  12.030
56172W        W28597  12.063  22.144   0.357
56173W        W28598  29.626   8.185   3.141
56174W        W28599   1.818  26.102   4.348
56175W        W28600   0.053  30.447   3.263
56176W        W28601   3.664  27.701  11.772
56177W        W28602  24.491   0.551   0.099
56178W        W28603   5.335  30.027   4.786
56179W        W28604  36.211  18.204   0.998
56180W        W28605  27.456  10.226   0.045
56181W        W28606  36.084  26.346  10.365
56182W        W28607  40.364  24.917   4.109
56183W        W28608  32.317  26.373   3.439
56184W        W28609  37.833   0.516   3.251
56185W        W28610  20.181  34.601  13.597
56186W        W28611  13.362  44.880   3.204
56187W        W28612  41.799   2.346  11.430
56188W        W28613  23.043  27.593  12.446
56189W        W28614  16.152  39.485   4.331
56190W        W28615  30.114  38.861  14.750
56191W        W28616  22.599  14.616   0.809
56192W        W28617  33.089  13.814  14.480
56193W        W28618  42.704  38.926   1.947
56194W        W28619  33.082  43.297  13.041
56195W        W28620  33.362  41.742  13.535
56196W        W28621   1.472  27.632   1.774
56197W        W28622  40.442  33.102  12.833
56198W        W28623  11.718   0.765   4.569
56199W        W28624  37.940  42.480   0.997
56200W        W28625  24.122  39.047  12.947
56201W        W28626  23.562  17.136   1.212
56202W        W28627  35.524  29.985   1.164
56203W        W28628  43.547   5.881  11.100
56204W        W28629   5.630  10.763  10.611
56205W        W28630  40.721  37.074  12.440
56206W        W28631  16.655   0.534   4.625
56207W        W28632   6.245  19.821  13.893
56208W        W28633   1.761  15.750  11.508
56209W        W28634  16.746   5.655   3.583
56210W        W28635   9.837  15.761   2.649
56211W        W28636  19.766  21.495   2.832
56212W        W28637  40.935  20.038  14.661
56213W        W28638   7.771   4.194   0.581
56214W        W28639  42.430   0.189   0.344
56215W        W28640  19.809  26.135   1.308
56216W        W28641   7.582  17.141  10.657
56217W        W28642  28.386  24.696  12.890
56218W        W28643  18.148  40.931  14.268
56219W        W28644  10.286  24.040  12.557
56220W        W28645  34.129  32.532   0.690
56221W        W28646  29.323   4.712   4.090
56222W        W28647  39.475   2.277  14.738
56223W        W28648  27.023   2.879  14.052
56224W        W28649  33.723  42.974   4.037
56225W        W28650  37.782  38.350   4.352
56226W        W28651   1.590  32.396   1.411
56227W        W28652  13.322  44.842   1.700
56228W        W28653  26.759  18.709   4.246
56229W        W28654   8.886   6.168   2.910
56230W        W28655   9.441  36.295  14.988
56231W        W28656  30.870  38.543  11.542
56232W        W28657  24.631  44.783  12.163
56233W        W28658  17.846  12.216   3.549
56234W        W28659  26.189  37.478   3.645
56235W        W28660   3.721  33.469   1.282
56236W        W28661   2.230  10.782  14.351
56237W        W28662  31.671   0.501   2.611
56238W        W28663   7.371  24.710   2.331
56239W        W28664  16.834  17.225   2.953
56240W        W28665  28.929  13.854  10.530
56241W        W28666  12.225  28.697  10.885
56242W        W28667  25.430  37.701  13.810
56243W        W28668   6.315  29.084   5.088
56244W        W28669   2.485   0.103  11.445
56245W        W28670  27.570  17.975  13.613
56246W        W28671  21.971  14.578  13.905
56247W        W28672  44.806  16.573  11.489
56248W        W28673  32.924  18.160  10.549
56249W        W28674  39.273   8.947  13.965
56250W        W28675  44.917  41.367   4.637
56251W        W28676   4.407  17.546   1.312
56252W        W28677  32.784  12.858   2.590
56253W        W28678  31.829   7.132  12.582
56254W        W28679   9.869   4.936  11.643
56255W        W28680  31.955   5.999  13.921
56256W        W28681  25.719  20.119   2.874
56257W        W28682  25.164  39.204  12.962
56258W        W28683  16.741  39.299   4.355
56259W        W28684   6.683  33.477  10.700
56260W        W28685  12.542  17.968   0.391
56261W        W28686   8.206  16.230   4.609
56262W        W28687   9.278  15.099  14.810
56263W        W28688  26.055  22.433  14.127
56264W        W28689  15.103  31.435  12.076
56265W        W28690   8.130  32.187  14.962
56266W        W28691  33.908  14.142   4.648
56267W        W28692  42.672   3.294  14.366
56268W        W28693  12.706  27.055   1.419
56269W        W28694   1.453  22.613   1.833
56270W        W28695  23.390   8.629   4.570
56271W        W28696  23.174  16.960   1.529
56272W        W28697  40.075  35.120   1.389
56273W        W28698  42.575  44.019  11.500
56274W        W28699  26.717  17.560   4.496
56275W        W28700  26.979  44.496   2.453
56276W        W28701  41.868  35.636  11.188
56277W        W28702  17.553  43.439   1.670
56278W        W28703   8.896  26.185   0.245
56279W        W28704  24.095   0.434   1.280
56280W        W28705  24.002   9.912   3.614
56281W        W28706  19.063   5.756   1.829
56282W        W28707   8.714  31.378   2.364
56283W        W28708  24.631   8.230   0.806
56284W        W28709   5.216  15.776   2.289
56285W        W28710   5.813  31.607   4.859
56286W        W28711  19.992  27.083  11.825
56287W        W28712  16.677  26.082   4.825
56288W        W28713  31.270  12.276  14.114
56289W        W28714  23.572   3.188   0.819
56290W        W28715  30.579  23.477  11.690
56291W        W28716  43.876  10.556  10.380
56292W        W28717  33.894  40.785   0.897
56293W        W28718  34.513  24.072   5.069
56294W        W28719  31.563  38.941   2.296
56295W        W28720  12.210  22.588   2.624
56296W        W28721  17.256  20.705   4.925
56297W        W28722  33.170  30.399  11.010
56298W        W28723   5.459  23.659   3.054
56299W        W28724  25.715  26.572   4.614
56300W        W28725  17.544  11.169  11.584
56301W        W28726   0.529  36.215  11.286
56302W        W28727  28.010  11.212   3.743
56303W        W28728  12.356  24.996   1.929
56304W        W28729  29.219  36.085  12.949
56305W        W28730  34.113   2.940   1.723
56306W        W28731  33.467  24.479   0.843
56307W        W28732   5.961   5.782   4.715
56308W        W28733  30.972  32.681  13.144
56309W        W28734  16.147  37.038  13.311
56310W        W28735  41.042   0.004  10.409
56311W        W28736   3.235   1.957   4.658
56312W        W28737   9.163  30.154   3.048
56313W        W28738  38.942   5.413  14.337
56314W        W28739  41.678  35.032  11.106
56315W        W28740  27.389  44.757  13.348
56316W        W28741  42.811  38.807  12.618
56317W        W28742  15.816   0.507   1.825
56318W        W28743  44.129   5.790   4.867
56319W        W28744   0.451  35.127   3.218
56320W        W28745  29.240   3.186  11.026
56321W        W28746  35.317  44.290  13.753
56322W        W28747   8.887  19.115  12.747
56323W        W28748  22.475  23.916   2.401
56324W        W28749  19.470  17.203   4.709
56325W        W28750  36.633  30.849   1.192
56326W        W28751  32.550  38.348   3.332
56327W        W28752  23.802   8.735   3.784
56328W        W28753  41.540  13.289  13.957
56329W        W28754  16.989   1.391   4.692
56330W        W28755  17.492  34.989  11.620
56331W        W28756   7.131   4.955  13.988
56332W        W28757  31.771  35.100  13.298
56333W        W28758  11.674   2.952  10.892
56334W        W28759  30.398  19.700   4.319
56335W        W28760   7.744  25.615  13.032
56336W        W28761  15.411   2.962   0.210
56337W        W28762   7.299   3.045   4.568
56338W        W28763   0.792  31.355   1.284
56339W        W28764  37.115  29.470   0.450
56340W        W28765  42.697   9.966  13.991
56341W        W28766  10.277  35.654  14.323
56342W        W28767  44.511  32.078  12.571
56343W        W28768  10.471  42.776   0.935
56344W        W28769   6.299  13.047   0.862
56345W        W28770  18.673  19.131  10.575
56346W        W28771  25.544   3.849  10.734
56347W        W28772   0.262   7.692   2.386
56348W        W28773  35.540   7.210  12.226
56349W        W28774  39.991  31.879   2.189
56350W        W28775  38.837   3.800   2.275
56351W        W28776  38.098   7.955  13.991
56352W        W28777  18.251  25.203   4.645
56353W        W28778  29.055  23.639   3.675
56354W        W28779  11.614  29.514  11.681
56355W        W28780  27.590   1.174   2.277
56356W        W28781  13.191   7.334   4.628
56357W        W28782  36.969  37.753   4.150
56358W        W28783  23.864  43.197  11.445
56359W        W28784  41.377  43.916  12.624
56360W        W28785  24.766  30.341   1.830
56361W        W28786  26.252  20.029   3.831
56362W        W28787  26.036  32.377  13.822
56363W        W28788  33.563  27.653  14.467
56364W        W28789   5.781  25.535   3.181
56365W        W28790  15.844  25.995   2.457
56366W        W28791  31.447   8.111   3.633
56367W        W28792  10.039   6.160   0.892
56368W        W28793   3.891  18.245  11.752
56369W        W28794   0.188  31.877   5.058
56370W        W28795  16.822   1.242  11.516
56371W        W28796  21.616   9.640  11.621
56372W        W28797   2.644  24.933   4.625
56373W        W28798   7.304   8.387  14.915
56374W        W28799  27.998  29.384   1.675
56375W        W28800   0.780  24.446  13.448
56376W        W28801   1.531  32.052   0.277
56377W        W28802   9.409   8.051   0.924
56378W        W28803  34.609   9.707  12.921
56379W        W28804  33.990  12.441   2.381
56380W        W28805  18.480  30.931  11.002
56381W        W28806  33.413  29.368  12.510
56382W        W28807   9.502  18.415   9.922
56383W        W28808  38.554  19.061  12.020
56384W        W28809   1.225  19.241  12.313
56385W        W28810  12.801  24.030  12.491
56386W        W28811  29.940  29.449   0.771
56387W        W28812  42.523  23.149   4.254
56388W        W28813  39.106   8.254   4.317
56389W        W28814   6.572  18.971   3.291
56390W        W28815  42.953  26.119   1.924
56391W        W28816  32.560  24.560  14.996
56392W        W28817  34.886  17.700  14.955
56393W        W28818  22.777  43.077   1.859
56394W        W28819   2.796  18.493  12.461
56395W        W28820  34.926  30.455   3.363
56396W        W28821  21.737   1.249   2.768
56397W        W28822  36.494  10.507  14.876
56398W        W28823  14.299   1.241   4.708
56399W        W28824  20.405  11.600   1.304
56400W        W28825   5.449   6.649   3.392
56401W        W28826   0.527  21.257   1.208
56402W        W28827  21.142  10.053  14.422
56403W        W28828   9.152  37.963   3.511
56404W        W28829  16.732   9.935   4.519
56405W        W28830  24.659  34.358   4.388
56406W        W28831   5.250   4.169  14.741
56407W        W28832  16.632  32.713   4.253
56408W        W28833  20.731  19.528  14.510
56409W        W28834  15.187  26.608   2.966
56410W        W28835  19.625   7.271   0.784
56411W        W28836   5.493  18.196   0.878
56412W        W28837   6.426  29.914  10.699
56413W        W28838  20.671  31.016   1.547
56414W        W28839   3.809  22.391  12.071
56415W        W28840  10.550   9.266  14.314
56416W        W28841  42.479  34.157  13.974
56417W        W28842  11.656  33.971   4.782
56418W        W28843  33.708  41.531   1.866
56419W        W28844   3.166   6.121  14.256
56420W        W28845  14.786  22.616  12.502
56421W        W28846  23.738  39.615   2.833
56422W        W28847   0.883  42.796   4.599
56423W        W28848  33.554   2.804  14.855
56424W        W28849  27.347  22.977  11.316
56425W        W28850  19.348   7.736  12.946
56426W        W28851  17.167  14.582   2.141
56427W        W28852  37.599  27.196   0.789
56428W        W28853  24.027  20.202   3.222
56429W        W28854   3.409   8.099   4.608
56430W        W28855  14.162  17.827  11.695
56431W        W28856   0.464  34.481  14.342
56432W        W28857  38.948  21.030   2.440
56433W        W28858  19.117  37.345   0.499
56434W        W28859  31.399   3.748  14.374
56435W        W28860  35.898  30.875  12.016
56436W        W28861  15.703  38.673  14.396
56437W        W28862  32.310  15.155   2.262
56438W        W28863   5.951  32.409  12.172
56439W        W28864  20.730  20.803  10.573
56440W        W28865  14.693  31.773  11.201
56441W        W28866  28.219  26.245  13.792
56442W        W28867  13.282  21.655  11.070
56443W        W28868  44.237   7.311   3.673
56444W        W28869  39.553  37.044   1.851
56445W        W28870  20.743  33.617   3.126
56446W        W28871   1.498   3.120   2.766
56447W        W28872   5.878  12.909  13.337
56448W        W28873  19.807   6.155   1.929
56449W        W28874  22.958  36.130   2.798
56450W        W28875  15.909  16.385   4.961
56451W        W28876  15.052  10.148  11.079
56452W        W28877   0.875  28.272   0.740
56453W        W28878   2.451  27.436   3.689
56454W        W28879   5.869  37.048  10.192
56455W        W28880  38.786  40.423   0.006
56456W        W28881   1.320  43.641  14.548
56457W        W28882  16.688  19.234   3.644
56458W        W28883  41.240  38.020  14.936
56459W        W28884   0.943  24.207  13.978
56460W        W28885   9.879  25.648  13.336
56461W        W28886   7.590  23.048   2.271
56462W        W28887   5.263  44.355  14.491
56463W        W28888   1.728  14.133   1.820
56464W        W28889  15.337  12.176   4.393
56465W        W28890  31.604  29.080   3.349
56466W        W28891   5.464  39.482  12.011
56467W        W28892  40.227   6.387  12.102
56468W        W28893  20.272  20.055   1.149
56469W        W28894  39.515   7.862  11.348
56470W        W28895  40.480  24.521  12.895
56471W        W28896  38.915  33.611   4.213
56472W        W28897  32.486  20.831  12.445
56473W        W28898  38.413  23.173   5.294
56474W        W28899   4.110  29.691   3.383
56475W        W28900  18.213   2.988   4.244
56476W        W28901   2.985   6.801  14.476
56477W        W28902  40.255  33.586   1.064
56478W        W28903  11.049  44.558  12.381
56479W        W28904  33.844  13.839  13.813
56480W        W28905   8.537   3.756   2.361
56481W        W28906   2.454  31.133   4.149
56482W        W28907  38.358  36.618   2.741
56483W        W28908  11.618  37.757  12.454
56484W        W28909  13.307  15.162   4.544
56485W        W28910  26.259  26.558   2.381
56486W        W28911   6.725  17.386  11.580
56487W        W28912  43.255  25.065   0.544
56488W        W28913  23.212  35.688   2.667
56489W        W28914   4.292   3.859   0.372
56490W        W28915   4.603  31.451   0.007
56491W        W28916  37.647   8.371  12.419
56492W        W28917   8.641  33.910  14.828
56493W        W28918   6.110  44.606   4.565
56494W        W28919  40.049  26.021  12.516
56495W        W28920  15.084   1.411   4.038
56496W        W28921   0.858  24.409   3.099
56497W        W28922  29.937  23.785  14.052
56498W        W28923  39.303  31.205   4.531
56499W        W28924   3.966   8.174  11.959
56500W        W28925  19.059  30.536   0.525
56501W        W28926  31.212  44.355  11.530
56502W        W28927  42.507  43.539  10.705
56503W        W28928  36.330   7.806  11.174
56504W        W28929   3.560  15.145  11.372
56505W        W28930  20.450  20.247  14.003
56506W        W28931  19.081  40.425   1.341
56507W        W28932   6.695  36.087  11.416
56508W        W28933  34.302  28.488   3.643
56509W        W28934  42.195  13.062   4.226
56510W        W28935  37.983   7.698   1.876
56511W        W28936  17.639   5.940   1.009
56512W        W28937  16.248  39.542   2.577
56513W        W28938  21.281   2.658  14.286
56514W        W28939   8.799  22.965  12.963
56515W        W28940  13.689  21.551   3.569
56516W        W28941   7.092  12.644  14.983
56517W        W28942  26.901  37.895  10.259
56518W        W28943  44.479  42.227   3.245
56519W        W28944   5.799  35.658   9.726
56520W        W28945   1.438   9.666   2.547
56521W        W28946   5.822  17.757  10.876
56522W        W28947  38.796  33.630  10.873
56523W        W28948   2.344  22.670  11.102
56524W        W28949   4.316  26.046  11.510
56525W        W28950  22.753   2.420  11.148
56526W        W28951  35.846  33.662  14.050
56527W        W28952   3.375   3.375   0.292
56528W        W28953  42.929  31.953   0.365
56529W        W28954  16.348  24.541   3.767
56530W        W28955   8.459  35.415  10.685
56531W        W28956  10.770  22.779  12.840
56532W        W28957  20.987  23.542   1.296
56533W        W28958  12.400  13.443  13.904
56534W        W28959  29.436  20.467   4.350
56535W        W28960  17.454  18.771   0.777
56536W        W28961  34.996  44.353   0.577
56537W        W28962   4.828  33.462   2.780
56538W        W28963  12.184  39.974  12.157
56539W        W28964  33.102  35.094   0.825
56540W        W28965  14.855  12.334  10.998
56541W        W28966  29.630   6.923   1.262
56542W        W28967  41.539   6.772   3.219
56543W        W28968   6.110  38.325   3.438
56544W        W28969  29.479  12.474   4.572
56545W        W28970  20.487  14.326  13.411
56546W        W28971  34.564  43.698  11.469
56547W        W28972  13.456  33.696  10.417
56548W        W28973  23.805  11.564   0.886
56549W        W28974  15.167  38.932   1.436
56550W        W28975  29.447  11.843   1.669
56551W        W28976   0.726  32.848  12.448
56552W        W28977  10.787  36.174   0.280
56553W        W28978   3.871   4.026   2.742
56554W        W28979  42.996  40.955  10.515
56555W        W28980  17.259  28.278  11.532
56556W        W28981  28.601  36.607  14.323
56557W        W28982   6.507   6.279  11.168
56558W        W28983  43.067  32.514  13.419
56559W        W28984  18.271   1.759   5.191
56560W        W28985  34.509   8.648  13.050
56561W        W28986  27.219  37.985  14.447
56562W        W28987  27.008  20.454  12.983
56563W        W28988  42.398   7.355   3.426
56564W        W28989  34.153  40.460  13.519
56565W        W28990   2.981   9.820  12.726
56566W        W28991  41.803  40.307   2.395
56567W        W28992   4.179  32.764   2.635
56568W        W28993   1.564  26.857  10.893
56569W        W28994  29.638  12.322  14.872
56570W        W28995  10.779   7.325   3.587
56571W        W28996  16.074  24.605   1.470
56572W        W28997  21.089   6.275   1.298
56573W        W28998  21.221  31.217   2.235
56574W        W28999  10.448  42.904  11.309
56575W        W29000  41.453  15.911   2.739
56576W        W29001  44.326  28.053   4.605
56577W        W29002  36.500  13.879   4.806
56578W        W29003  21.662   0.493   3.328
56579W        W29004  33.691  17.490  11.168
56580W        W29005  16.491   8.798  12.524
56581W        W29006  35.813   4.263  10.525
56582W        W29007   8.770   9.750   0.372
56583W        W29008  26.127  18.159   4.139
56584W        W29009   0.385  38.663   0.790
56585W        W29010  20.287  39.804   3.188
56586W        W29011  35.072   9.851  13.261
56587W        W29012   6.377  22.581   0.862
56588W        W29013   9.922  22.736   4.903
56589W        W29014  29.958  26.045   3.830
56590W        W29015   3.731  10.884   4.478
56591W        W29016   4.783  19.132   3.576
56592W        W29017  34.540   5.150  14.547
56593W        W29018  17.573   3.790   3.300
56594W        W29019   1.181   7.951  13.879
56595W        W29020  33.979  13.636   1.305
56596W        W29021  13.244   5.359  10.504
56597W        W29022  33.483  39.982   5.092
56598W        W29023  33.471  21.522   4.684
56599W        W29024  31.747   5.401  11.529
56600W        W29025   7.746  19.019   0.263
56601W        W29026  13.546  13.236   4.568
56602W        W29027  11.186  17.721   3.667
56603W        W29028  29.724  12.150  13.927
56604W        W29029   6.121  34.528   2.399
56605W        W29030  17.446  40.844   2.953
56606W        W29031  17.099   8.706   1.846
56607W        W29032  13.660  22.307  11.901
56608W        W29033  20.979   0.033   2.719
56609W        W29034  24.629  24.194   2.873
56610W        W29035  41.853  22.384   2.634
56611W        W29036  14.262  21.231   4.627
56612W        W29037  30.530  29.178  14.036
56613W        W29038  33.199   1.331  10.504
56614W        W29039  33.098  16.079   1.149
56615W        W29040  16.685  34.122   0.021
56616W        W29041  35.245  28.019   1.063
56617W        W29042   7.382   3.464   4.882
56618W        W29043   6.071  24.592  11.943
56619W        W29044  44.855  30.775  12.539
56620W        W29045  29.707  19.773  14.858
56621W        W29046  33.667  12.628   4.592
56622W        W29047  19.671  14.265  14.102
56623W        W29048  36.448  15.053  11.734
56624W        W29049  15.813  14.753   4.189
56625W        W29050  15.154  32.689   4.235
56626W        W29051  36.608  24.631  12.365
56627W        W29052  28.612  37.032  11.134
56628W        W29053  40.811  34.118   3.113
56629W        W29054  10.764   3.530   4.168
56630W        W29055  16.345   3.259   4.039
56631W        W29056  13.248  28.890   2.242
56632W        W29057   2.588  16.658   0.871
56633W        W29058  20.456  29.654   4.186
56634W        W29059  10.989   2.653  11.576
56635W        W29060  38.024   7.805   1.368
56636W        W29061   3.888   4.985   1.867
56637W        W29062  34.619   4.296   4.340
56638W        W29063   0.872  30.167  10.715
56639W        W29064  33.480  36.387   4.161
56640W        W29065   7.752   5.984   1.904
56641W        W29066  41.826  22.958   0.878
56642W        W29067  11.574   1.329   2.475
56643W        W29068  18.198   1.977   0.404
56644W        W29069  35.053  40.409   0.770
56645W        W29070   1.987  44.702   2.401
56646W        W29071  17.231   8.193  14.029
56647W        W29072   5.413  22.312  14.875
56648W        W29073  41.767  31.668  13.421
56649W        W29074   2.332  27.149  14.508
56650W        W29075  22.014  42.407  14.865
56651W        W29076  34.882   8.737   1.742
56652W        W29077   4.324  17.774   4.861
56653W        W29078  21.072  30.755   0.830
56654W        W29079  34.320   4.723   4.191
56655W        W29080  30.424   0.846   4.666
56656W        W29081  14.056  13.246   4.649
56657W        W29082  30.741  38.037  13.349
56658W        W29083   3.415  41.993  10.886
56659W        W29084  15.649  29.373  14.284
56660W        W29085   0.379   2.248  12.932
56661W        W29086  19.148   7.960   2.330
56662W        W29087  29.604  37.358  12.906
56663W        W29088   1.767  43.875  14.305
56664W        W29089   7.353  31.514   3.782
56665W        W29090  31.429  41.373   4.706
56666W        W29091  28.153  15.595   4.617
56667W        W29092   2.781  26.484   2.123
56668W        W29093  17.244  31.507   3.686
56669W        W29094  44.925  32.633  12.919
56670W        W29095   8.887   9.378  14.385
56671W        W29096   2.593  24.703   2.393
56672W        W29097   0.639   3.874  12.135
56673W        W29098  41.567  19.222  14.454
56674W        W29099  17.650   2.443   2.242
56675W        W29100  10.491   1.067  13.797
56676W        W29101  44.698  32.904  14.849
56677W        W29102  17.989  30.631  14.766
56678W        W29103  33.069  20.645   0.997
56679W        W29104  44.775  21.508   2.178
56680W        W29105  19.787  38.052   0.569
56681W        W29106  38.841  44.687  14.291
56682W        W29107  34.268   3.693   0.793
56683W        W29108   2.740  35.839  12.167
56684W        W29109  17.878  21.966   2.667
56685W        W29110  43.588   1.349   2.739
56686W        W29111  36.094  28.739   2.261
56687W        W29112  10.604  19.824   1.679
56688W        W29113  38.643  42.292   3.719
56689W        W29114   3.918  15.984   1.830
56690W        W29115   9.084  24.631   4.092
56691W        W29116  30.176   9.962  12.292
56692W        W29117  32.577   3.201   4.303
56693W        W29118  25.913  27.075   2.266
56694W        W29119  12.986  26.175   4.396
56695W        W29120   2.716   9.342  12.491
56696W        W29121  32.876  32.187  13.414
56697W        W29122  30.698  21.739   2.203
56698W        W29123  41.676  39.533   3.152
56699W        W29124  40.226  24.064   2.075
56700W        W29125  13.845  25.595   4.143
56701W        W29126  44.019  41.183  13.292
56702W        W29127  40.804  23.087  14.225
56703W        W29128  25.796  34.631  13.529
56704W        W29129  30.500  15.375  11.898
56705W        W29130  29.283  32.535  10.787
56706W        W29131   0.528  31.012  12.416
56707W        W29132  12.420  28.762   0.343
56708W        W29133  42.275   8.418  12.477
56709W        W29134   5.951  28.940  12.934
56710W        W29135   6.830   4.835  10.661
56711W        W29136  33.714  25.407  10.825
56712W        W29137  19.020  36.568  11.952
56713W        W29138  37.878   3.791   3.254
56714W        W29139  38.632  44.415   0.469
56715W        W29140  31.175  25.172   0.929
56716W        W29141   5.852  25.016   3.898
56717W        W29142  28.459   7.979   0.046
56718W        W29143  10.451   1.864   1.798
56719W        W29144  12.316  22.858   2.197
56720W        W29145  29.967  15.765  13.744
56721W        W29146  20.872  17.605   3.757
56722W        W29147   2.971  21.074  12.780
56723W        W29148  43.693  36.950  12.200
56724W        W29149   2.533  29.603   0.443
56725W        W29150  32.569   3.775   1.448
56726W        W29151   1.189  32.516   2.911
56727W        W29152   2.452   7.156  12.943
56728W        W29153  31.416  14.522  13.941
56729W        W29154   2.273  13.788  11.635
56730W        W29155  16.576   3.846  13.379
56731W        W29156  27.482  35.574   2.401
56732W        W29157  13.751   7.718  12.865
56733W        W29158   8.225   3.985  14.372
56734W        W29159  37.944  39.359   2.305
56735W        W29160   1.975   2.767  14.020
56736W        W29161  17.667  44.537  10.222
56737W        W29162   1.638   8.926   2.807
56738W        W29163  36.335   0.626  12.600
56739W        W29164  19.589   5.271   0.292
56740W        W29165  15.559  18.878   0.413
56741W        W29166  32.456  26.250  11.086
56742W        W29167  21.653  30.170   1.742
56743W        W29168   2.756   2.331   2.457
56744W        W29169  35.060   5.816   2.656
56745W        W29170   4.445  14.124   4.235
56746W        W29171  42.767  16.392  13.875
56747W        W29172   9.873  31.587  13.760
56748W        W29173  41.152  27.188  11.149
56749W        W29174  44.340   5.620   1.650
56750W        W29175   5.161   9.689   4.272
56751W        W29176  35.339  18.137   1.387
56752W        W29177  22.374  10.359   1.875
56753W        W29178  28.409  10.665  12.400
56754W        W29179  12.870  30.145   2.913
56755W        W29180  35.004  22.971  13.411
56756W        W29181  16.951  39.742  14.839
56757W        W29182   5.659   8.508   1.398
56758W        W29183  14.393  34.993   0.876
56759W        W29184  35.923  39.914   1.403
56760W        W29185  40.996  43.430  12.168
56761W        W29186   1.436  24.956  14.593
56762W        W29187   8.408  40.422   1.014
56763W        W29188  21.628  26.630   2.981
56764W        W29189  15.565   1.367   5.003
56765W        W29190  41.489  30.218   1.922
56766W        W29191  13.294  10.052  14.368
56767W        W29192  42.698   2.766   3.451
56768W        W29193  37.493  16.848   4.581
56769W        W29194  34.347  27.925  13.941
56770W        W29195  31.136  28.406  10.599
56771W        W29196  43.359  22.721   3.400
56772W        W29197  14.051  35.987   2.526
56773W        W29198   8.912   4.008  12.002
56774W        W29199  40.734  38.504  11.167
56775W        W29200  16.085  14.040   5.206
56776W        W29201  26.125  22.157   4.018
56777W        W29202   8.272   9.738   2.620
56778W        W29203  23.060  13.868   2.632
56779W        W29204  11.140  26.620   3.284
56780W        W29205   9.115  40.878  12.906
56781W        W29206   5.289   6.741   4.452
56782W        W29207  41.629  10.880   4.498
56783W        W29208  38.595   9.776  11.640
56784W        W29209  22.815  19.073   4.716
56785W        W29210   5.884  23.232  10.822
56786W        W29211  37.447  17.545   1.347
56787W        W29212   4.668  13.343   3.726
56788W        W29213  13.612  32.810   2.237
56789W        W29214  19.303   0.822  11.635
56790W        W29215  10.091   1.366   1.933
56791W        W29216  11.109  23.355   0.465
56792W        W29217  36.085   5.082  13.841
56793W        W29218  15.823   8.420   4.438
56794W        W29219  24.054  20.603   4.430
56795W        W29220  29.986  16.887   3.208
56796W        W29221  36.004  11.797   1.743
56797W        W29222   4.923  33.985   4.392
56798W        W29223  15.089  11.200   1.101
56799W        W29224   1.919  18.532   3.293
56800W        W29225  40.296  31.560  14.412
56801W        W29226   4.252   4.836  14.596
56802W        W29227  10.858  12.798   4.093
56803W        W29228  35.345  23.512   9.875
56804W        W29229  43.657  21.947  11.243
56805W        W29230   2.447  30.640   3.271
56806W        W29231   3.777  17.202  10.905
56807W        W29232   4.685  28.088   3.337
56808W        W29233  38.879   0.644   0.459
56809W        W29234  43.408  14.891   1.836
56810W        W29235  34.812   6.252   2.762
56811W        W29236  19.986  26.239  12.916
56812W        W29237  31.965  39.751   4.131
56813W        W29238  44.620  12.259   2.774
56814W        W29239  38.546  12.971  11.173
56815W        W29240  23.291  13.280  10.696
56816W        W29241  22.074   0.761  12.367
56817W        W29242  12.667   7.646  11.682
56818W        W29243  42.482  26.156   1.731
56819W        W29244  19.369  32.821  12.346
56820W        W29245  35.081  32.389   2.717
56821W        W29246  35.248  26.638   1.164
56822W        W29247  43.702  42.255   2.359
56823W        W29248  31.648  22.523  13.402
56824W        W29249   3.913   3.791   4.117
56825W        W29250   8.050  36.584   3.279
56826W        W29251  23.952   4.081   0.690
56827W        W29252   8.724   0.396   0.715
56828W        W29253  25.338   1.989  12.451
56829W        W29254   0.214  19.777   1.256
56830W        W29255  42.216  11.123  12.045
56831W        W29256  10.183  40.499   2.672
56832W        W29257  11.902  36.579   3.232
56833W        W29258  27.990  37.348   3.288
56834W        W29259  15.743  19.020  14.366
56835W        W29260  12.918  23.628  13.157
56836W        W29261  43.310  16.796   3.317
56837W        W29262  38.788  19.268  13.511
56838W        W29263  24.171  23.122   4.334
56839W        W29264  11.239  16.044   2.837
56840W        W29265  25.195   2.838  11.336
56841W        W29266  34.306  20.216   1.697
56842W        W29267  43.307  19.026  11.117
56843W        W29268  19.121   4.843  13.456
56844W        W29269  25.498  18.156   0.201
56845W        W29270  18.369  11.631   2.606
56846W        W29271  40.187  38.476  12.846
56847W        W29272  36.219  38.308  11.112
56848W        W29273  42.057  11.706  12.729
56849W        W29274  20.190   3.354   0.310
56850W        W29275  20.751  14.292   1.928
56851W        W29276  44.768   9.428   3.711
56852W        W29277  19.024  25.606  12.172
56853W        W29278   9.914  44.900  13.486
56854W        W29279  23.975   3.803  13.440
56855W        W29280   1.871  14.728   4.139
56856W        W29281  31.756  42.971  11.577
56857W        W29282  40.855  18.366  14.417
56858W        W29283   3.259  25.623   4.468
56859W        W29284  31.466  18.027  10.661
56860W        W29285  29.597  20.998  13.102
56861W        W29286   8.276  37.993   5.750
56862W        W29287  33.911   6.962  13.435
56863W        W29288  23.301  43.867   3.433
56864W        W29289   0.152  36.955   3.146
56865W        W29290  11.563  18.052  14.339
56866W        W29291  38.028   1.301   4.322
56867W        W29292   5.042  15.606  13.286
56868W        W29293  36.006  44.742  10.972
56869W        W29294  40.226  18.695  10.708
56870W        W29295   8.864  26.829  13.675
56871W        W29296  43.741  11.742   4.305
56872W        W29297  11.836   3.542  10.176
56873W        W29298   5.443  36.995   3.856
56874W        W29299  29.811   1.184   0.716
56875W        W29300  11.692   0.180  12.344
56876W        W29301  32.420  31.531  10.888
56877W        W29302  39.017  40.862  13.410
56878W        W29303   5.130  25.944   2.688
56879W        W29304  13.116  30.829   4.534
56880W        W29305  20.771  27.953  14.734
56881W        W29306  17.199  20.561  14.812
56882W        W29307  11.351  37.573  11.162
56883W        W29308  29.060  37.506  12.102
56884W        W29309  41.859  15.761  13.104
56885W        W29310  11.153  38.022   1.936
56886W        W29311   5.656  35.640   1.147
56887W        W29312  10.810  43.961  13.787
56888W        W29313  20.276  24.940   3.208
56889W        W29314   5.686  44.324  11.942
56890W        W29315  25.403  18.566  13.523
56891W        W29316  22.200  19.478   0.256
56892W        W29317  35.905  43.773  11.859
56893W        W29318   5.821  24.165   1.898
56894W        W29319  34.041  41.940   0.660
56895W        W29320  16.163  41.285  10.648
56896W        W29321  28.010  25.710   3.186
56897W        W29322   1.545   4.631  12.039
56898W        W29323  26.144  42.550   0.023
56899W        W29324   9.582  41.722   4.184
56900W        W29325  33.587  38.316   2.212
56901W        W29326  38.974   8.226  14.377
56902W        W29327  40.866  37.231  12.905
56903W        W29328  18.213  33.049   2.264
56904W        W29329   9.307  44.873  14.916
56905W        W29330  29.395  15.661  13.553
56906W        W29331  10.689   5.968   4.256
56907W        W29332  36.135  34.357   3.634
56908W        W29333   0.118  17.279  11.638
56909W        W29334  40.823  10.682  14.500
56910W        W29335  39.085  14.724  11.436
56911W        W29336  17.770  28.013   3.634
56912W        W29337  23.237  10.630   3.694
56913W        W29338  35.776  29.467   0.834
56914W        W29339  14.201   2.212  10.947
56915W        W29340  22.997  32.641  11.602
56916W        W29341   4.944  13.768  11.342
56917W        W29342  26.035  30.819   3.700
56918W        W29343  10.569  16.827  12.933
56919W        W29344  36.518  33.505   1.164
56920W        W29345  39.885  29.607  11.905
56921W        W29346  32.060  19.503  13.105
56922W        W29347   9.156   7.664   1.830
56923W        W29348  39.403  39.429  13.101
56924W        W29349  16.817  31.459   4.630
56925W        W29350  20.155  26.551   1.322
56926W        W29351  10.784   5.520   3.983
56927W        W29352  36.910  33.990   0.834
56928W        W29353  21.319  25.972  10.372
56929W        W29354  42.793  17.677  13.047
56930W        W29355  18.455  15.568  13.835
56931W        W29356   0.802   4.183  11.777
56932W        W29357  34.018  28.678   3.178
56933W        W29358  27.478   0.300  12.726
56934W        W29359  25.173  24.072   4.294
56935W        W29360  28.137  35.162   1.985
56936W        W29361  44.933  43.339   0.144
56937W        W29362  37.310  26.429  10.529
56938W        W29363  17.023  39.895   3.111
56939W        W29364  28.520  39.630   1.163
56940W        W29365  38.006   2.913  12.149
56941W        W29366  35.528  13.934   3.668
56942W        W29367   1.349  37.781   3.768
56943W        W29368  20.941  29.594  12.031
56944W        W29369  12.209   4.672   2.911
56945W        W29370  16.669   2.279   2.185
56946W        W29371   6.908  31.392   1.337
56947W        W29372  37.277  34.484  12.556
56948W        W29373  24.747  32.854   0.192
56949W        W29374  37.059   1.413  13.444
56950W        W29375   4.274  18.059   1.312
56951W        W29376  41.209  27.964  12.701
56952W        W29377  33.782  30.024  14.768
56953W        W29378  16.675   4.790  13.031
56954W        W29379   8.416  15.740   4.557
56955W        W29380  29.206  13.615   4.159
56956W        W29381  39.809   5.466  14.252
56957W        W29382  17.119  32.595   0.549
56958W        W29383  34.356  27.592  11.477
56959W        W29384  21.087  15.983  12.817
56960W        W29385  33.163  37.565   2.321
56961W        W29386  18.208  11.818   4.076
56962W        W29387  25.899  21.795  10.454
56963W        W29388  16.631   7.940  14.076
56964W        W29389  18.792  24.248  13.165
56965W        W29390  19.374  28.456   3.642
56966W        W29391   1.319  44.202  13.316
56967W        W29392   7.317  40.957   0.778
56968W        W29393  39.975  44.237  14.897
56969W        W29394  29.264  18.989   0.696
56970W        W29395  16.239  26.168   0.463
56971W        W29396   1.238  35.937   2.095
56972W        W29397  25.608   4.151  13.791
56973W        W29398  35.613  18.094  12.386
56974W        W29399  20.331  36.025  11.275
56975W        W29400  12.172  35.885  11.551
56976W        W29401  10.351   4.859   1.386
56977W        W29402  33.881  18.742   4.569
56978W        W29403  20.417  30.026   1.556
56979W        W29404  35.156   8.897  12.420
56980W        W29405  19.555   3.321  13.606
56981W        W29406  18.816  35.088  12.032
56982W        W29407  26.408   2.229   4.737
56983W        W29408   1.591  12.663  13.085
56984W        W29409  18.244   8.345  14.490
56985W        W29410   1.274  18.528   4.463
56986W        W29411  39.268  27.726   2.432
56987W        W29412  26.021  40.986  13.101
56988W        W29413  41.807   8.376  14.986
56989W        W29414  20.494  31.391   2.672
56990W        W29415  23.027  42.546   4.227
56991W        W29416  40.443  26.528  12.029
56992W        W29417  15.770  33.647  12.168
56993W        W29418  32.786   6.281   0.683
56994W        W29419  16.562  38.935  10.924
56995W        W29420  37.916  35.584  11.924
56996W        W29421  12.622  34.823   4.414
56997W        W29422  27.114  37.985  10.745
56998W        W29423  22.015   5.150  13.783
56999W        W29424  42.868  44.424   4.045
57000W        W29425   8.120   9.433  13.023
57001W        W29426  19.967  26.544  11.893
57002W        W29427  13.615  37.805  11.546
57003W        W29428  35.060  39.617  14.881
57004W        W29429  35.892  31.641  12.567
57005W        W29430  26.069  19.095   0.850
57006W        W29431  44.920  17.390  12.092
57007W        W29432   1.711   7.251  13.392
57008W        W29433  35.920  15.878  11.547
57009W        W29434  35.986  38.313   1.297
57010W        W29435  23.729  21.090  10.155
57011W        W29436  23.558  22.455   0.313
57012W        W29437  32.457   3.937  11.172
57013W        W29438  31.431   3.604  13.055
57014W        W29439  16.848   0.223   1.937
57015W        W29440  19.297   5.335  13.357
57016W        W29441  14.611  13.303   0.201
57017W        W29442   4.402  41.717  11.507
57018W        W29443   1.190   1.021  11.040
57019W        W29444  32.959   7.415  13.440
57020W        W29445  28.713  38.800   4.490
57021W        W29446   5.099  36.749   2.471
57022W        W29447  33.443  14.154  13.778
57023W        W29448  10.660  39.866  12.116
57024W        W29449  38.680  35.986  11.664
57025W        W29450  17.696  20.588  12.880
57026W        W29451  18.285  31.452   2.122
57027W        W29452  40.277  36.283  14.481
57028W        W29453  23.761  12.332   0.408
57029W        W29454  27.295  10.629  10.689
57030W        W29455  38.012  36.560  12.136
57031W        W29456  34.883   2.460   1.518
57032W        W29457  39.414  20.023  12.862
57033W        W29458  28.407   0.054   4.621
57034W        W29459  26.453  12.749   4.509
57035W        W29460  33.988  24.480  12.592
57036W        W29461   3.799  17.675   4.943
57037W        W29462  14.881  14.202  13.193
57038W        W29463  30.029   2.913  12.721
57039W        W29464  32.645  18.354  12.995
57040W        W29465  40.789  14.058  12.002
57041W        W29466  16.354  23.675   2.572
57042W        W29467  17.872  42.841  13.360
57043W        W29468  20.100  19.557   4.168
57044W        W29469  16.700  13.105   0.206
57045W        W29470  27.907  43.899  13.026
57046W        W29471  26.971   6.375   3.361
57047W        W29472  31.434  28.599   3.586
57048W        W29473   5.302  13.925   3.192
57049W        W29474   1.441   5.199  12.550
57050W        W29475  30.385  15.238  11.067
57051W        W29476  37.938   6.139   2.004
57052W        W29477  38.537  12.865  12.000
57053W        W29478  22.087   0.021  14.788
57054W        W29479  29.991  39.741   4.216
57055W        W29480  23.935  10.274  13.402
57056W        W29481  40.631   5.381   0.783
57057W        W29482   0.723  42.660   1.742
57058W        W29483   7.961  28.511   2.351
57059W        W29484  28.110  32.977  11.118
57060W        W29485   3.161  27.264   4.216
57061W        W29486   9.443  24.104   2.373
57062W        W29487  12.949   5.232   2.764
57063W        W29488   6.116  41.253   3.731
57064W        W29489  26.987  38.414   4.720
57065W        W29490  14.623  38.600   1.728
57066W        W29491  11.606   0.436   0.227
57067W        W29492  40.025   6.084   2.877
57068W        W29493  42.288  22.778  14.871
57069W        W29494  36.790  17.032   4.041
57070W        W29495  37.225  29.456   2.885
57071W        W29496  42.507   5.589  12.063
57072W        W29497  44.917  18.582   4.841
57073W        W29498  10.870  10.704  11.590
57074W        W29499   6.812  37.300   1.743
57075W        W29500  27.101  30.840  13.859
57076W        W29501  19.820  16.721   2.368
57077W        W29502  20.746  38.732   0.811
57078W        W29503  17.264  26.605  10.415
57079W        W29504  25.045  39.845   2.023
57080W        W29505   5.886  25.557   2.641
57081W        W29506  44.734  21.612  11.220
57082W        W29507  22.447  10.343  14.838
57083W        W29508  25.450  11.685   3.149
57084W        W29509   3.623  24.635  13.446
57085W        W29510  27.442   0.481  14.052
57086W        W29511  28.690  41.911  14.923
57087W        W29512  44.098  36.043   3.665
57088W        W29513  29.136   5.671   4.062
57089W        W29514  41.803  40.542  13.986
57090W        W29515  10.245  24.839  12.018
57091W        W29516  26.201  16.890   0.397
57092W        W29517  28.825  31.136  12.989
57093W        W29518  39.061  30.730  11.572
57094W        W29519  37.670  42.854   4.117
57095W        W29520   3.210  28.717   3.271
57096W        W29521   7.486  39.456  13.001
57097W        W29522  42.496  20.021  14.245
57098W        W29523  16.622  31.185  10.181
57099W        W29524  42.747   0.400   4.320
57100W        W29525  14.676  33.843  12.058
57101W        W29526  18.147  22.682  13.083
57102W        W29527  24.283   5.469   4.111
57103W        W29528  40.408  17.025   1.269
57104W        W29529  34.623  26.937   3.191
57105W        W29530  17.882  30.328   5.234
57106W        W29531  11.181  19.590   0.277
57107W        W29532   5.899  23.581  12.561
57108W        W29533   7.543   3.902   4.603
57109W        W29534  35.428   4.683   1.814
57110W        W29535  14.904  38.435   0.392
57111W        W29536  29.879   8.398   2.698
57112W        W29537  27.625  28.971  12.629
57113W        W29538   3.638  26.448  14.521
57114W        W29539   4.506  27.684  14.576
57115W        W29540  27.648   3.368   0.204
57116W        W29541  28.893  30.787  12.476
57117W        W29542   9.900  16.039  10.745
57118W        W29543  14.880  40.831   4.631
57119W        W29544   4.916  21.499  13.466
57120W        W29545  16.122  28.341   1.188
57121W        W29546  29.788  43.159   3.788
57122W        W29547  40.333  31.068  12.881
57123W        W29548  25.600  16.704  12.933
57124W        W29549  36.961  38.469   2.346
57125W        W29550  16.684  29.514   0.518
57126W        W29551  23.513  33.064   3.261
57127W        W29552  32.320  33.936  14.398
57128W        W29553  12.964  37.992   1.999
57129W        W29554   2.043   1.958   1.252
57130W        W29555  43.878   1.827   1.422
57131W        W29556  28.974   7.313  13.586
57132W        W29557  43.391  27.398   0.244
57133W        W29558  11.488  23.911   0.026
57134W        W29559   6.802  42.438   4.556
57135W        W29560  39.520   5.929  11.111
57136W        W29561  44.517   6.954   1.326
57137W        W29562  11.789  39.365  10.822
57138W        W29563   9.691  28.734   2.822
57139W        W29564   8.725  36.140   3.641
57140W        W29565   9.337   3.139  13.552
57141W        W29566   6.738  43.252   2.538
57142W        W29567  22.724  28.053  14.812
57143W        W29568  33.569  42.585   4.353
57144W        W29569  24.337  29.694  13.878
57145W        W29570  20.220  35.320   1.466
57146W        W29571  35.944  38.751   4.615
57147W        W29572  38.053  13.201   2.360
57148W        W29573   2.469  32.505  11.725
57149W        W29574  32.871  28.283  12.928
57150W        W29575  37.478  10.747  14.531
57151W        W29576  33.322   6.089  12.108
57152W        W29577  32.895   3.470  14.862
57153W        W29578  11.376   2.430  12.581
57154W        W29579  34.832  35.341   4.052
57155W        W29580  24.456  30.683  12.807
57156W        W29581   0.947  38.449   4.072
57157W        W29582  35.418  23.767  13.474
57158W        W29583  20.590  23.472   2.717
57159W        W29584  37.905  40.937   4.491
57160W        W29585  20.581  27.927  13.375
57161W        W29586  12.221  31.424  12.190
57162W        W29587  22.590   4.503   3.654
57163W        W29588   5.883   2.059  12.916
57164W        W29589  43.866  23.898   0.991
57165W        W29590   7.856  30.664   2.918
57166W        W29591  15.012  33.094   2.612
57167W        W29592  41.985  34.653   1.521
57168W        W29593  37.296  32.072   1.700
57169W        W29594  24.548  12.596  14.308
57170W        W29595   1.483  14.806   4.460
57171W        W29596  27.168   8.408   0.270
57172W        W29597  12.241  33.931  10.987
57173W        W29598  11.133  21.324   3.430
57174W        W29599  32.851  16.561  12.402
57175W        W29600  12.577   4.267   1.494
57176W        W29601   9.325  32.806   3.176
57177W        W29602   6.961  33.617  14.026
57178W        W29603  28.580  38.255   2.766
57179W        W29604  32.414   4.234  12.047
57180W        W29605  20.852  17.944   2.780
57181W        W29606  17.576  31.820   2.761
57182W        W29607   4.802   8.721  13.410
57183W        W29608  30.533  33.441   4.781
57184W        W29609  18.202  20.211  13.858
57185W        W29610  33.169  22.940   2.678
57186W        W29611  42.036  32.598  13.285
57187W        W29612  44.011  43.264   0.609
57188W        W29613  34.556  26.731   4.518
57189W        W29614  16.972   6.940  10.256
57190W        W29615  13.239  22.934  10.672
57191W        W29616  29.004   8.135  11.823
57192W        W29617   4.445  10.424   2.811
57193W        W29618  26.015  43.333  10.708
57194W        W29619  27.683   7.683  14.708
57195W        W29620  26.915   5.270  13.030
57196W        W29621  34.401   3.639  14.479
57197W        W29622  21.624   2.451   3.075
57198W        W29623   4.360   5.228   2.170
57199W        W29624  37.148   1.736  13.850
57200W        W29625  31.870  25.408   3.693
57201W        W29626  35.944  38.308  14.934
57202W        W29627  33.458  13.308   3.504
57203W        W29628  42.890  43.627   4.549
57204W        W29629  32.505  31.641  12.300
57205W        W29630  11.454  31.651  14.492
57206W        W29631   1.228  13.020   1.768
57207W        W29632   2.690  43.347   1.356
57208W        W29633  40.615  15.402  12.959
57209W        W29634  36.546  22.555   2.988
57210W        W29635  29.003  41.293   4.531
57211W        W29636  42.990   2.007  12.431
57212W        W29637   4.583   5.387  11.640
57213W        W29638   4.179  24.185  13.027
57214W        W29639  38.148  34.105   3.150
57215W        W29640  21.707  15.624   1.466
57216W        W29641  42.161  37.850  11.996
57217W        W29642  41.069  18.020  13.280
57218W        W29643  24.538  36.606   2.669
57219W        W29644  33.171  37.150  14.297
57220W        W29645   9.532   5.714   3.194
57221W        W29646  26.123   3.788   3.849
57222W        W29647  12.792  42.543   3.815
57223W        W29648  21.943  28.050  10.616
57224W        W29649  12.344   7.351   3.533
57225W        W29650  12.906  28.628   2.788
57226W        W29651  17.049  10.103   2.775
57227W        W29652   5.158   4.450   0.181
57228W        W29653  27.463  20.132  12.912
57229W        W29654   1.416  14.468   4.069
57230W        W29655  17.241  20.207  10.940
57231W        W29656  21.813   3.269   3.744
57232W        W29657  22.576  16.366  14.245
57233W        W29658  20.958  20.697   2.285
57234W        W29659  24.961  26.691   3.689
57235W        W29660  39.344  43.799   0.498
57236W        W29661  14.136   8.162   4.552
57237W        W29662  11.711  19.704   3.625
57238W        W29663  24.123  21.916   3.787
57239W        W29664  34.599  34.880   4.127
57240W        W29665  17.118   6.799   2.110
57241W        W29666  36.353   1.678   2.245
57242W        W29667  11.058  38.935   2.256
57243W        W29668   2.777   2.010  11.702
57244W        W29669  42.482   2.913   1.457
57245W        W29670  34.026  28.091  12.004
57246W        W29671  36.987  35.685   2.761
57247W        W29672  25.641   6.435  13.958
57248W        W29673  11.418  15.354   3.256
57249W        W29674  32.443  38.522  12.031
57250W        W29675  10.116  11.765   0.406
57251W        W29676  12.940  41.959   4.919
57252W        W29677  23.539  28.039  12.035
57253W        W29678  11.137  36.922  11.514
57254W        W29679  37.951  25.237  12.360
57255W        W29680  12.826  30.603   4.127
57256W        W29681  22.009  31.716   0.809
57257W        W29682  39.007  25.314   1.771
57258W        W29683   2.905  13.769   4.888
57259W        W29684  17.012  37.940  14.443
57260W        W29685  29.916  27.180  12.610
57261W        W29686  25.065   5.347  13.277
57262W        W29687  43.807  23.038   2.681
57263W        W29688  34.625   9.936   3.197
57264W        W29689  26.665   3.269  11.947
57265W        W29690   8.097  41.478  13.926
57266W        W29691  24.553  34.622   1.400
57267W        W29692  39.563  18.130  12.943
57268W        W29693  38.888  21.654  14.404
57269W        W29694  28.328  32.840   4.984
57270W        W29695  10.588  18.028  11.987
57271W        W29696  44.033  20.242   4.261
57272W        W29697  21.799  25.952   0.375
57273W        W29698  38.869  38.546   3.867
57274W        W29699  39.976  38.889  10.988
57275W        W29700  31.704  41.953   3.547
57276W        W29701  29.652   2.764  12.363
57277W        W29702  23.313  24.520  13.717
57278W        W29703  42.404  17.537  14.391
57279W        W29704   2.754  13.319  14.303
57280W        W29705   3.765  44.358  11.107
57281W        W29706   9.809  31.374  12.834
57282W        W29707  23.983  12.852   3.329
57283W        W29708  21.967  39.880   2.518
57284W        W29709  12.398  11.390   3.232
57285W        W29710  31.264  12.213   0.370
57286W        W29711  28.043   5.926   3.632
57287W        W29712  17.535   1.021  11.906
57288W        W29713  31.977  44.232  11.117
57289W        W29714   3.272  41.780   3.593
57290W        W29715   0.440  38.351   4.180
57291W        W29716  43.774  26.684  13.561
57292W        W29717   6.950  10.242  14.800
57293W        W29718  19.310  42.982   0.853
57294W        W29719  22.955  10.383  14.844
57295W        W29720  26.184  11.596  13.881
57296W        W29721   4.979  19.179   0.255
57297W        W29722  31.892   4.630  13.585
57298W        W29723   2.793  10.767  12.569
57299W        W29724  29.232   1.828  13.855
57300W        W29725  15.748  10.221  12.483
57301W        W29726  14.400  38.058   3.244
57302W        W29727   9.156   1.852   3.357
57303W        W29728  12.101  16.146   4.623
57304W        W29729  24.953  25.595  11.040
57305W        W29730  18.188   3.291  12.942
57306W        W29731  34.363   2.817  12.987
57307W        W29732  44.079  34.731   3.686
57308W        W29733  12.667  14.590  11.412
57309W        W29734  37.864  27.000  12.272
57310W        W29735  36.984  26.759  11.648
57311W        W29736  18.592   2.465  12.136
57312W        W29737  25.918  14.879   0.270
57313W        W29738  37.063  13.273   1.751
57314W        W29739   0.646  42.922  10.271
57315W        W29740  22.561  22.659   3.605
57316W        W29741   6.893  25.742   0.811
57317W        W29742   1.212  14.595   0.934
57318W        W29743  39.805  38.301   2.638
57319W        W29744  41.432  36.994   1.428
57320W        W29745  12.456  25.400  10.484
57321W        W29746  43.862  23.286  10.607
57322W        W29747  38.584   8.818   0.728
57323W        W29748  31.038  18.163   0.030
57324W        W29749  41.395  23.128   4.145
57325W        W29750  41.084  42.928  13.373
57326W        W29751  23.183   3.667   1.493
57327W        W29752   8.409  39.286  13.120
57328W        W29753  31.895   9.998   1.625
57329W        W29754  30.288  42.707   2.845
57330W        W29755  10.308  36.126  14.964
57331W        W29756  18.577  43.430  12.297
57332W        W29757  12.278  41.336   4.458
57333W        W29758  26.192  27.969   0.307
57334W        W29759   4.276  43.810   1.893
57335W        W29760  29.015  24.963  14.933
57336W        W29761   5.238  22.644   4.615
57337W        W29762  41.059   9.872   4.135
57338W        W29763  26.292   6.094  14.214
57339W        W29764  41.748  30.069   2.344
57340W        W29765  40.632  24.345  12.422
57341W        W29766   5.706  40.470  12.162
57342W        W29767  11.232  30.725   1.004
57343W        W29768   3.532  20.676  13.295
57344W        W29769  14.820   2.954   3.261
57345W        W29770  29.498   0.735   4.197
57346W        W29771  28.849   7.739  13.883
57347W        W29772  13.609   5.985   0.395
57348W        W29773  13.692   4.489  12.155
57349W        W29774   8.303   9.980  14.700
57350W        W29775  37.096  25.790   3.727
57351W        W29776  14.074  43.618   1.872
57352W        W29777   6.290   8.433  13.346
57353W        W29778  21.314  35.114   4.178
57354W        W29779  21.063   0.404  10.693
57355W        W29780   8.830  22.037   0.313
57356W        W29781  34.530  17.268   0.304
57357W        W29782   4.912  27.621   2.721
57358W        W29783  10.384  15.356   0.954
57359W        W29784  21.680  26.779  10.730
57360W        W29785  40.478  37.830   0.341
57361W        W29786  31.994  20.525   3.209
57362W        W29787   8.370  14.115  10.126
57363W        W29788  32.513  11.199   2.750
57364W        W29789  33.410  15.755   0.862
57365W        W29790  29.207   0.902  11.939
57366W        W29791  30.744  42.052  10.815
57367W        W29792  32.033  27.132   1.991
57368W        W29793  32.011  40.093  14.816
57369W        W29794  36.291  31.570   3.933
57370W        W29795  11.646  30.833  10.673
57371W        W29796   0.283  40.990   4.711
57372W        W29797  42.968  44.832   1.668
57373W        W29798  11.431   9.252   4.392
57374W        W29799   3.754  16.820   2.320
57375W        W29800  35.055  40.525  14.002
57376W        W29801  13.544  23.104   0.109
57377W        W29802  11.624   7.293  10.972
57378W        W29803  40.051  42.269   4.640
57379W        W29804   6.502   3.266  12.888
57380W        W29805  33.614  37.605   2.607
57381W        W29806  12.137   1.132  12.593
57382W        W29807  13.587  31.397   1.688
57383W        W29808  31.456  12.316  12.242
57384W        W29809  20.503  35.511  14.715
57385W        W29810  25.539   9.876   3.866
57386W        W29811  30.921   9.633  12.930
57387W        W29812  17.733  29.344   2.849
57388W        W29813  39.165  40.967  12.119
57389W        W29814  20.462  42.533   4.236
57390W        W29815  33.638  35.544  13.874
57391W        W29816  27.344  34.950  11.533
57392W        W29817  26.128   3.262   1.586
57393W        W29818   5.366   0.731  14.692
57394W        W29819  12.314  13.797   4.689
57395W        W29820  31.086  44.452   1.662
57396W        W29821  29.860   3.314   0.032
57397W        W29822   0.241  18.788   3.008
57398W        W29823  13.229   8.273  11.619
57399W        W29824  41.567   3.802  13.943
57400W        W29825  30.872  41.283  12.557
57401W        W29826  20.015  11.321  12.800
57402W        W29827  22.475  15.660   2.491
57403W        W29828  17.558  10.846   2.866
57404W        W29829  13.731  28.580   4.556
57405W        W29830  26.032  14.444  11.266
57406W        W29831   2.275  17.363  14.746
57407W        W29832   7.342  17.303  13.965
57408W        W29833  43.277  31.431  13.365
57409W        W29834  35.543   9.608   3.832
57410W        W29835   0.009  38.650   1.174
57411W        W29836  12.214  19.629   1.321
57412W        W29837  25.496  26.129   4.930
57413W        W29838  10.730  33.662   1.355
57414W        W29839  39.031  36.531  13.148
57415W        W29840   0.105   1.208   0.485
57416W        W29841  38.251  34.594   0.021
57417W        W29842  19.094  17.833   4.267
57418W        W29843  36.479   9.166  11.122
57419W        W29844   0.467  11.538   1.182
57420W        W29845  16.181  41.398   2.342
57421W        W29846  39.656  42.589   4.587
57422W        W29847  43.727   7.805   0.836
57423W        W29848  41.617  21.520  12.544
57424W        W29849   2.262   8.853   4.526
57425W        W29850  20.655  32.141   0.905
57426W        W29851  27.647  29.041   3.039
57427W        W29852   5.873  37.842   2.733
57428W        W29853  17.630  38.747  11.262
57429W        W29854   7.435  44.439   3.724
57430W        W29855   9.997  10.761   1.742
57431W        W29856  20.954  37.304   0.797
57432W        W29857  31.951  33.167  10.178
57433W        W29858  27.085  36.130  13.351
57434W        W29859  16.256  38.026  12.114
57435W        W29860  32.561  37.210   4.583
57436W        W29861  18.613  25.739   3.597
57437W        W29862  38.574  19.502   4.600
57438W        W29863   5.482  21.275  11.240
57439W        W29864  35.112  33.101   4.129
57440W        W29865   0.255  27.973  12.433
57441W        W29866  24.239   8.372   4.652
57442W        W29867  12.456  36.661  14.981
57443W        W29868   1.202   2.746  14.782
57444W        W29869  31.510  18.610  14.622
57445W        W29870  27.707  11.097   3.213
57446W        W29871  26.579  15.812  14.085
57447W        W29872   2.369  31.442  10.746
57448W        W29873  33.171  42.372  14.844
57449W        W29874  12.652  24.350   3.682
57450W        W29875  18.948  29.608   3.225
57451W        W29876  35.300  30.583   2.734
57452W        W29877  41.290   5.711  13.970
57453W        W29878   8.262  31.657   0.036
57454W        W29879  21.155  20.173   0.947
57455W        W29880   3.678  37.718   2.340
57456W        W29881  18.054  42.381  10.686
57457W        W29882  10.230  38.032  12.423
57458W        W29883  29.041   1.642  14.299
57459W        W29884  24.806  14.152   2.300
57460W        W29885  21.499  41.035  13.634
57461W        W29886  18.894   2.783   3.893
57462W        W29887  16.660   3.530   4.439
57463W        W29888  28.088  29.955   0.833
57464W        W29889   2.090  40.379  11.481
57465W        W29890   7.181   9.834   4.096
57466W        W29891   8.815  33.446  10.561
57467W        W29892   5.385  18.739   0.908
57468W        W29893  21.219  10.851  11.153
57469W        W29894  38.471  40.397  14.528
57470W        W29895  20.242  26.690   4.243
57471W        W29896   4.514  12.786   0.895
57472W        W29897  19.078   4.263   1.721
57473W        W29898  16.316  31.884   1.373
57474W        W29899  22.492  26.867  11.495
57475W        W29900  24.046  10.881   1.687
57476W        W29901  29.501  23.981  11.048
57477W        W29902  22.044  20.525  10.641
57478W        W29903  10.165  36.166  12.469
57479W        W29904  18.456  36.100   0.282
57480W        W29905  12.728   5.158   1.008
57481W        W29906  21.661  34.858  12.495
57482W        W29907  13.088  36.629  11.947
57483W        W29908  25.529  42.227   2.261
57484W        W29909  38.041  17.784   0.425
57485W        W29910  32.148  41.708  10.698
57486W        W29911  11.732  27.046   1.302
57487W        W29912   2.737  31.555   4.134
57488W        W29913   0.160  13.026  12.724
57489W        W29914  33.218  27.944   0.243
57490W        W29915  25.244  23.557  11.620
57491W        W29916  14.404  41.983  14.359
57492W        W29917  15.712  35.888   4.685
57493W        W29918  26.164  23.184  12.893
57494W        W29919   6.461  21.628   3.316
57495W        W29920  24.205   0.818  13.859
57496W        W29921  36.491  10.319   1.202
57497W        W29922  27.729   9.275  11.778
57498W        W29923  17.512  19.638   0.849
57499W        W29924   5.426  19.268   4.102
57500W        W29925   8.725  25.813   2.935
57501W        W29926   5.462  25.829   0.803
57502W        W29927  30.001  34.065   3.875
57503W        W29928   1.012  16.352   3.728
57504W        W29929  17.763  11.750   3.854
57505W        W29930  38.015  35.372   0.356
57506W        W29931  32.474  20.931   4.090
57507W        W29932   7.132  30.295   2.787
57508W        W29933   2.891  20.029   3.394
57509W        W29934  14.034  42.145  13.973
57510W        W29935  34.045   0.283  11.570
57511W        W29936  36.926  26.325   0.769
57512W        W29937   9.540  12.889   1.713
57513W        W29938   2.510  26.257  12.982
57514W        W29939   7.823  25.008   4.457
57515W        W29940  29.307  32.507   1.968
57516W        W29941  10.828   0.854   2.731
57517W        W29942  19.029  13.076  13.542
57518W        W29943  23.172   0.819  13.960
57519W        W29944  22.530  26.547   0.931
57520W        W29945   3.425   2.712   2.649
57521W        W29946  28.865  33.886   0.571
57522W        W29947  13.210  10.585  14.239
57523W        W29948  21.153  11.740  10.424
57524W        W29949  19.976  26.383   2.726
57525W        W29950  20.487  15.271  11.941
57526W        W29951  43.811  23.312   1.800
57527W        W29952   5.382  11.684   2.218
57528W        W29953  41.614  16.483   4.204
57529W        W29954  26.591  33.441  12.633
57530W        W29955  29.250   6.143  12.553
57531W        W29956  20.437  29.986  12.696
57532W        W29957   7.279   2.350   1.984
57533W        W29958   8.423  40.867   2.352
57534W        W29959  26.643  42.047   1.489
57535W        W29960  37.709  16.199  13.642
57536W        W29961   4.930  13.220  14.698
57537W        W29962  37.459  40.783   4.862
57538W        W29963   8.388  23.190   1.065
57539W        W29964  43.296  30.404   5.163
57540W        W29965  39.416  14.230   3.284
57541W        W29966  21.611  38.107   0.972
57542W        W29967  25.584  43.710  14.806
57543W        W29968   1.712  42.427   1.797
57544W        W29969  20.973  25.409   4.118
57545W        W29970  13.140  41.006   0.171
57546W        W29971   9.864  14.322   5.015
57547W        W29972  18.762  36.541   0.265
57548W        W29973  28.661   1.394  14.807
57549W        W29974  12.533  38.122   1.760
57550W        W29975   0.990  31.345  13.006
57551W        W29976  18.886  10.696  13.398
57552W        W29977  15.074  38.997   3.447
57553W        W29978  26.029  26.170   4.743
57554W        W29979  36.325  14.338  10.657
57555W        W29980  11.387  16.942  13.305
57556W        W29981  31.560  23.599   4.152
57557W        W29982  26.556  19.783   1.476
57558W        W29983   8.533  31.178  12.957
57559W        W29984  21.273  20.051  10.950
57560W        W29985  44.759   2.672  11.083
57561W        W29986  10.601  30.603  10.958
57562W        W29987   1.915  44.987  12.263
57563W        W29988   8.400  15.701  10.698
57564W        W29989   0.596  34.999  14.176
57565W        W29990  26.810  30.901  14.344
57566W        W29991  35.547  37.977   1.823
57567W        W29992   3.474  11.664   0.753
57568W        W29993  10.156  33.433   3.895
57569W        W29994  24.652   3.021  12.004
57570W        W29995  33.997  18.686  13.199
57571W        W29996  12.988  42.362  12.165
57572W        W29997  30.485  18.756  13.403
57573W        W29998  22.956  10.537  10.614
57574W        W29999  21.402  33.478  13.498
57575W        W30000  15.270  41.451   2.878
57576W        W30001  27.541  44.496   4.682
57577W        W30002   5.868  34.168   0.304
57578W        W30003  35.376  33.674   2.848
57579W        W30004  23.681   4.447   4.607
57580W        W30005   0.550  19.995  13.909
57581W        W30006  17.818  17.142   4.119
57582W        W30007  14.909  36.383  14.333
57583W        W30008  19.092   1.828   0.472
57584W        W30009  21.756   6.737   0.674
57585W        W30010  11.292  42.591  11.552
57586W        W30011  17.335  40.483  10.735
57587W        W30012  10.825  35.310  12.485
57588W        W30013  34.482  20.455  11.432
57589W        W30014  32.592  42.390  12.846
57590W        W30015   3.261  43.786  13.471
57591W        W30016  38.581  25.637   2.693
57592W        W30017  20.253   2.977  12.015
57593W        W30018   0.709  11.345   2.931
57594W        W30019  30.068  21.741   1.654
57595W        W30020  17.061   6.452   3.315
57596W        W30021  21.837   4.022  12.380
57597W        W30022  18.133  44.301   1.883
57598W        W30023  11.672  35.459  11.152
57599W        W30024  11.208  12.328   2.297
57600W        W30025  32.799  40.094   3.637
57601W        W30026  14.890  40.949  10.703
57602W        W30027  18.661  27.558  12.832
57603W        W30028  40.461  14.604  14.492
57604W        W30029  12.080  15.211  13.269
57605W        W30030  18.677  30.198   0.548
57606W        W30031  27.891  19.885   2.779
57607W        W30032  27.059  25.526  13.306
57608W        W30033  22.600  10.877  12.454
57609W        W30034  26.779  13.344   2.250
57610W        W30035  34.986  10.383   2.009
57611W        W30036  44.660  38.826  13.014
57612W        W30037  18.146  23.504   0.938
57613W        W30038  20.762  42.560   2.893
57614W        W30039  14.233  21.814  13.901
57615W        W30040  21.186   4.651  13.227
57616W        W30041  29.477  17.626   1.839
57617W        W30042  28.975  17.681  12.005
57618W        W30043   0.890  41.026  14.260
57619W        W30044  38.255  29.075  13.250
57620W        W30045  40.712  16.651  12.641
57621W        W30046  24.832  43.894  12.553
57622W        W30047  39.974  19.054   4.499
57623W        W30048  31.194  40.805  12.704
57624W        W30049   2.402  37.294  11.918
57625W        W30050  19.575  27.058  10.323
57626W        W30051   4.225  12.553   3.890
57627W        W30052  17.677  18.289  13.415
57628W        W30053  35.561   6.151  11.272
57629W        W30054  24.080  33.513  13.894
57630W        W30055  23.754  28.096  12.495
57631W        W30056  18.188  32.826   1.783
57632W        W30057   4.498  17.205   2.668
57633W        W30058  33.954   5.431  13.361
57634W        W30059  13.682  42.428   4.429
57635W        W30060  39.357  17.522  11.483
57636W        W30061  38.013   6.383  13.061
57637W        W30062   5.641  29.818   0.872
57638W        W30063  25.373  16.489   4.817
57639W        W30064  10.880   6.181  14.329
57640W        W30065  31.432  26.512   4.153
57641W        W30066  25.950   5.356  14.810
57642W        W30067  30.634  38.315   1.876
57643W        W30068   4.279   2.429   0.425
57644W        W30069  23.118  32.015   0.811
57645W        W30070   0.786   8.240   0.367
57646W        W30071  30.572  16.606   1.740
57647W        W30072  26.393  19.667  10.638
57648W        W30073  29.262  42.959  12.521
57649W        W30074  24.325  10.667   0.753
57650W        W30075  15.133   1.151   2.118
57651W        W30076   2.747   0.099   4.333
57652W        W30077  15.332  32.449  11.079
57653W        W30078   1.683  43.926  10.848
57654W        W30079  40.792  27.869  11.463
57655W        W30080   6.843   1.381  11.079
57656W        W30081  36.488   9.238   3.533
57657W        W30082  30.455  12.228   2.604
57658W        W30083  42.385  32.239   0.472
57659W        W30084  15.857  26.406  13.673
57660W        W30085  22.181  16.050   0.542
57661W        W30086  10.180   2.350  14.075
57662W        W30087  26.258  35.534   2.695
57663W        W30088  33.464   5.192   2.154
57664W        W30089   2.961  15.097  14.914
57665W        W30090  37.777  10.275   4.542
57666W        W30091  32.369   0.722   3.788
57667W        W30092  19.978   6.781   0.687
57668W        W30093  26.456  33.925   4.581
57669W        W30094   3.271   3.770  14.449
57670W        W30095  10.356  16.171  14.791
57671W        W30096  14.563  43.935   2.391
57672W        W30097  23.239   9.952   1.493
57673W        W30098  10.231  24.938   3.255
57674W        W30099  35.876  36.978  11.978
57675W        W30100  11.615  26.642  12.026
57676W        W30101  42.753  13.675   1.723
57677W        W30102  20.465  22.552  10.633
57678W        W30103  41.772  38.829   0.247
57679W        W30104  21.724  42.233  11.474
57680W        W30105   6.129  20.660   0.913
57681W        W30106   2.013  31.017  11.175
57682W        W30107  17.072  39.784  12.545
57683W        W30108  10.325   3.319   1.279
57684W        W30109  19.320  41.877  11.130
57685W        W30110  21.004  37.866   5.248
57686W        W30111  10.804  11.391  14.735
57687W        W30112  29.561  15.097   1.919
57688W        W30113  35.552  39.065   4.632
57689W        W30114  14.939   2.772   1.889
57690W        W30115  42.479   5.901   1.396
57691W        W30116  35.996  32.274   0.527
57692W        W30117  29.925   0.561  13.598
57693W        W30118  23.167   8.116  11.770
57694W        W30119   4.831  18.555  12.908
57695W        W30120  17.337   6.210   1.347
57696W        W30121  15.044   8.642  13.974
57697W        W30122  44.683  19.709   2.123
57698W        W30123   0.725  39.830   2.150
57699W        W30124  42.443   9.866   3.384
57700W        W30125  25.090  30.054   0.359
57701W        W30126  34.094   0.309  10.661
57702W        W30127   3.460  29.574  14.294
57703W        W30128  26.221   7.937   3.308
57704W        W30129  23.714   5.255  11.055
57705W        W30130   0.444   9.707   4.326
57706W        W30131  23.715   9.050   3.365
57707W        W30132  32.459   0.653  11.114
57708W        W30133  26.939  19.534  11.419
57709W        W30134  26.567  32.645   3.335
57710W        W30135  33.134  28.177   4.859
57711W        W30136   2.336  19.100   1.788
57712W        W30137  23.204  12.696   4.033
57713W        W30138  16.041   9.838   0.870
57714W        W30139  17.098  39.470   4.686
57715W        W30140  12.163  44.790  11.692
57716W        W30141   9.890  40.459   1.727
57717W        W30142   9.774  27.687  11.967
57718W        W30143  14.382   7.374   4.101
57719W        W30144   9.215  10.265   0.785
57720W        W30145   9.099  14.677   0.043
57721W        W30146  23.504   8.575   3.121
57722W        W30147  38.825  16.723   3.681
57723W        W30148   4.677   4.665   2.923
57724W        W30149  17.961  12.482   3.067
57725W        W30150  33.358  33.980  13.572
57726W        W30151  43.191  31.398   2.699
57727W        W30152  40.546  42.743  12.508
57728W        W30153  23.490   6.677   4.078
57729W        W30154  22.055   6.320   2.677
57730W        W30155   4.809  25.334  10.509
57731W        W30156   0.738   9.869  12.972
57732W        W30157  42.308   1.602   3.446
57733W        W30158   0.449  17.483   3.235
57734W        W30159  11.652   7.681   5.347
57735W        W30160  24.108   7.230   2.154
57736W        W30161  21.678   0.889   1.420
57737W        W30162   1.294  39.205   0.240
57738W        W30163  18.320  35.988   1.426
57739W        W30164   4.296  29.120  14.154
57740W        W30165   5.321  32.366  11.046
57741W        W30166  31.345  12.902  10.599
57742W        W30167  20.170   5.255   0.853
57743W        W30168   1.288  30.115   4.024
57744W        W30169  11.401   6.284  14.358
57745W        W30170  25.864  37.421  13.600
57746W        W30171  17.035  44.011  13.982
57747W        W30172   3.467  30.633  13.112
57748W        W30173  41.985   9.614  14.387
57749W        W30174  23.954  43.762   1.819
57750W        W30175  23.206   9.155   4.829
57751W        W30176   7.703  42.330  13.611
57752W        W30177  44.710  21.267  14.545
57753W        W30178  15.697  26.214   2.907
57754W        W30179   4.803  39.308   0.807
57755W        W30180  34.013   9.797  14.042
57756W        W30181   5.407  30.945   2.219
57757W        W30182  24.176  27.326   0.794
57758W        W30183   7.000  16.122  14.367
57759W        W30184  39.723  31.371   2.771
57760W        W30185  22.721  34.159  13.491
57761W        W30186  10.166  36.758  10.094
57762W        W30187   2.991   5.227   1.244
57763W        W30188   6.765  40.425  10.909
57764W        W30189  17.117  30.632   4.984
57765W        W30190  33.655   9.821  12.153
57766W        W30191  18.612  35.589  12.067
57767W        W30192   8.111  14.474  11.117
57768W        W30193  11.650  38.288  12.438
57769W        W30194   3.367   0.044   1.399
57770W        W30195  11.861   8.321  12.391
57771W        W30196   3.349  18.221  14.166
57772W        W30197  37.584   9.893   2.278
57773W        W30198  43.930  10.841   2.155
57774W        W30199  34.405   4.356  14.996
57775W        W30200  30.605  27.065   3.434
57776W        W30201  18.329  33.890   3.852
57777W        W30202   8.427   1.804  13.431
57778W        W30203  43.831  21.695   2.535
57779W        W30204  15.873  43.972  13.489
57780W        W30205  21.469  10.106  14.823
57781W        W30206   4.863  42.290  12.238
57782W        W30207   7.674  17.154  14.798
57783W        W30208   3.747  27.511   3.394
57784W        W30209  19.090  39.998  11.540
57785W        W30210   6.989  34.006  11.497
57786W        W30211   0.956   5.273   3.861
57787W        W30212  26.598  35.165  13.853
57788W        W30213  11.578  15.522   2.228
57789W        W30214  18.684  37.370  13.922
57790W        W30215  16.678   9.944  14.978
57791W        W30216  10.697  27.934   1.408
57792W        W30217  29.440  14.413   5.095
57793W        W30218  20.236   9.095   1.120
57794W        W30219   6.754   1.109   3.912
57795W        W30220  28.681  25.214   4.197
57796W        W30221  43.809  29.666   0.993
57797W        W30222   5.537  43.217   4.970
57798W        W30223  37.368  23.923  14.435
57799W        W30224  19.211  36.848   3.520
57800W        W30225  10.245  30.193   0.898
57801W        W30226  32.186  16.242   3.719
57802W        W30227  28.419  13.828  13.485
57803W        W30228  29.347  42.901   3.693
57804W        W30229  19.663  33.099  11.444
57805W        W30230   6.834   7.686  12.630
57806W        W30231  10.534  40.803  14.049
57807W        W30232  25.956  14.687   4.593
57808W        W30233  28.943  16.846  14.380
57809W        W30234   2.379  24.007  14.432
57810W        W30235  21.174  24.448   3.879
57811W        W30236  28.881  34.942  11.589
57812W        W30237  43.319   8.779  13.596
57813W        W30238  36.703   2.884   1.408
57814W        W30239  40.430  19.086   1.510
57815W        W30240  31.129   5.791  12.423
57816W        W30241  11.849   1.399   2.043
57817W        W30242  43.378  20.807   1.076
57818W        W30243  43.406  24.058   3.586
57819W        W30244  42.613   2.975  12.499
57820W        W30245  17.084  36.388  10.731
57821W        W30246  33.984  34.442  13.948
57822W        W30247  24.235  39.790   2.605
57823W        W30248  29.497  39.036   3.279
57824W        W30249  19.981  42.520  14.729
57825W        W30250  36.494  18.251  13.830
57826W        W30251  11.382  39.818   2.339
57827W        W30252  15.895  20.498  13.105
57828W        W30253  39.806  29.105  12.029
57829W        W30254  38.320   4.117   4.954
57830W        W30255  16.661  13.950   3.307
57831W        W30256  18.057  36.922   2.701
57832W        W30257  33.440  25.792  14.930
57833W        W30258   9.546  21.641  11.606
57834W        W30259  15.735  26.214  11.406
57835W        W30260  27.537  37.637   3.830
57836W        W30261  23.314  16.270  12.137
57837W        W30262  42.479  41.023  10.569
57838W        W30263  27.356  27.924  11.528
57839W        W30264   8.131  14.185  11.557
57840W        W30265  31.665  15.879  10.287
57841W        W30266   5.583  15.798   3.820
57842W        W30267   9.715  22.786   0.790
57843W        W30268  26.091  26.001   3.744
57844W        W30269  43.565  34.357  11.069
57845W        W30270  22.367  44.219  14.476
57846W        W30271   2.361  42.069  14.333
57847W        W30272  26.456  13.046   4.089
57848W        W30273  33.648   0.723  11.173
57849W        W30274  23.974  20.550   0.582
57850W        W30275  19.835  29.577  11.121
57851W        W30276  35.334  40.541   2.351
57852W        W30277  11.656   7.183   0.300
57853W        W30278  12.217  27.945   4.679
57854W        W30279  19.037  26.700   2.861
57855W        W30280  38.859  23.926   5.123
57856W        W30281   0.359  21.390  13.995
57857W        W30282  10.003  27.556   4.110
57858W        W30283  30.708   5.680  13.560
57859W        W30284  21.217  30.379   2.777
57860W        W30285   5.681  43.516   2.883
57861W        W30286   9.691   9.976   0.048
57862W        W30287  34.420  28.717   0.021
57863W        W30288  20.626   2.997   0.146
57864W        W30289  19.272  10.606   3.821
57865W        W30290  18.276  10.310   0.305
57866W        W30291  13.633  10.210   3.346
57867W        W30292   4.848  29.564   4.562
57868W        W30293   0.689  32.685   2.427
57869W        W30294  12.082  26.710  11.234
57870W        W30295  25.289  12.320   0.690
57871W        W30296  28.468   3.741  11.493
57872W        W30297  40.203  40.324  13.619
57873W        W30298  21.527  31.446   0.990
57874W        W30299  21.993   7.232   2.400
57875W        W30300  30.064  13.370   4.594
57876W        W30301  19.119  27.198  11.620
57877W        W30302  22.606  41.388   5.125
57878W        W30303  28.890  31.491  12.359
57879W        W30304   5.732  17.023  11.545
57880W        W30305   4.285   6.803   3.762
57881W        W30306  39.894  31.974   3.590
57882W        W30307  34.526  19.315  14.044
57883W        W30308  30.304  16.096   9.904
57884W        W30309  43.444  31.616   3.128
57885W        W30310  16.076   9.157  14.403
57886W        W30311  30.520  22.985  13.976
57887W        W30312  32.040   5.732  10.760
57888W        W30313   0.334   3.148  12.828
57889W        W30314  31.203  14.283   4.581
57890W        W30315  32.102  18.843  11.891
57891W        W30316  37.337  13.347  11.569
57892W        W30317  37.356   7.137   0.252
57893W        W30318  21.209  16.342   0.948
57894W        W30319  27.745   6.848  13.470
57895W        W30320  26.675   1.772  12.550
57896W        W30321  33.093  33.156  11.539
57897W        W30322   0.405  22.988   3.818
57898W        W30323  12.343  41.530   3.997
57899W        W30324  14.686  29.039   3.658
57900W        W30325   1.295  36.827   1.371
57901W        W30326  38.591  38.027  11.565
57902W        W30327   5.768  34.563   3.381
57903W        W30328   2.228  17.284   1.460
57904W        W30329  41.128   6.836  11.313
57905W        W30330   4.396  24.551  11.539
57906W        W30331  31.861  26.364  13.480
57907W        W30332  28.630  38.566  11.959
57908W        W30333  20.292  43.724   2.276
57909W        W30334  27.218  28.465  13.998
57910W        W30335  31.033  18.300  10.713
57911W        W30336  14.889  23.656  13.611
57912W        W30337  21.551  33.388  10.792
57913W        W30338  34.566  35.523  12.792
57914W        W30339   2.823  25.284   1.456
57915W        W30340  28.534  23.455  11.296
57916W        W30341  33.571  32.502  14.766
57917W        W30342   5.583  37.472  11.150
57918W        W30343  35.844  13.259  12.514
57919W        W30344   4.652  28.595  11.021
57920W        W30345  30.602   1.106   1.345
57921W        W30346  32.898  24.687  11.604
57922W        W30347  39.850  32.852   3.579
57923W        W30348  30.167   9.532   2.333
57924W        W30349   4.132   4.166  13.941
57925W        W30350  13.201   1.912   3.448
57926W        W30351  22.701   3.769  10.939
57927W        W30352  20.858  26.649  12.006
57928W        W30353  11.610   8.588  14.394
57929W        W30354  40.912  12.887   1.325
57930W        W30355  10.954  31.944  11.596
57931W        W30356  22.761  41.866  11.258
57932W        W30357  43.420  41.031   0.379
57933W        W30358   5.453  10.081   4.103
57934W        W30359  28.002  35.332  11.948
57935W        W30360  39.504   6.926  14.094
57936W        W30361  19.647  24.771  10.699
57937W        W30362   3.420  26.815   4.234
57938W        W30363   3.926  39.434  11.310
57939W        W30364   3.341  20.535  14.194
57940W        W30365  13.628  34.441   1.987
57941W        W30366   2.694  15.095   1.713
57942W        W30367  16.563  19.639  10.386
57943W        W30368   2.534  37.702   3.160
57944W        W30369  17.691  28.039  14.374
57945W        W30370  32.145  35.603  14.315
57946W        W30371  44.529  33.165   4.096
57947W        W30372   3.961  19.066   1.761
57948W        W30373   8.649  15.553   2.637
57949W        W30374  10.594  12.058   0.302
57950W        W30375  20.338  19.999  10.763
57951W        W30376  25.837  10.413  13.244
57952W        W30377   6.432  18.050   4.184
57953W        W30378  13.524  32.945   1.614
57954W        W30379  44.798  33.330   3.145
57955W        W30380  35.526   6.890  10.527
57956W        W30381  23.343  28.701   3.776
57957W        W30382   9.776  39.495   0.517
57958W        W30383   8.570  19.238   3.141
57959W        W30384  43.032   4.452  11.564
57960W        W30385  17.608  21.052   0.894
57961W        W30386  30.652  14.708  13.428
57962W        W30387  43.820  28.356  13.513
57963W        W30388  35.054  23.401   4.585
57964W        W30389   5.949  31.510  10.712
57965W        W30390  19.767  28.017   4.415
57966W        W30391   6.089  19.704   3.146
57967W        W30392  18.046  14.715  12.864
57968W        W30393  32.070  10.790  10.701
57969W        W30394  24.006  35.370   1.330
57970W        W30395  27.658  22.755   4.199
57971W        W30396  15.126  15.282   4.164
57972W        W30397  21.170  39.350   3.789
57973W        W30398  27.644  29.695  10.878
57974W        W30399  23.805  21.005   1.234
57975W        W30400  31.454   6.122   0.468
57976W        W30401  35.658  17.945  11.895
57977W        W30402   9.877  28.524  13.439
57978W        W30403   0.733  33.405  13.853
57979W        W30404  28.197  19.011   2.857
57980W        W30405  16.981   3.402   4.962
57981W        W30406  17.156  15.624  11.622
57982W        W30407   1.363  35.541  11.211
57983W        W30408   6.153  22.760  11.706
57984W        W30409  23.093   5.829   3.751
57985W        W30410  38.454  40.891  12.888
57986W        W30411  15.864  29.213  12.863
57987W        W30412  18.404  22.181  11.885
57988W        W30413  18.707  15.523  11.959
57989W        W30414  43.595   2.368   0.558
57990W        W30415  40.941   3.008   1.918
57991W        W30416  40.766  36.542  14.384
57992W        W30417  32.585  43.438   2.622
57993W        W30418  42.129  42.887  11.121
57994W        W30419  36.566   0.661   2.430
57995W        W30420  36.987  41.946  14.964
57996W        W30421   0.462  38.231  11.083
57997W        W30422  39.839   0.994   0.408
57998W        W30423  37.074   9.784   3.060
57999W        W30424  29.550  43.865  14.439
58000W        W30425   0.341   9.620   4.827
58001W        W30426  31.555  26.231   1.658
58002W        W30427  44.461  40.438   1.247
58003W        W30428  42.864  28.179   1.373
58004W        W30429   3.213  19.064   0.205
58005W        W30430  22.135  39.513   0.287
58006W        W30431  37.315  13.414  12.441
58007W        W30432  30.230  42.107   1.812
58008W        W30433   7.425   0.568  13.932
58009W        W30434  26.416  17.348   4.112
58010W        W30435  31.512   2.802   3.923
58011W        W30436  37.452  43.202  13.763
58012W        W30437  43.813  23.742  13.891
58013W        W30438  28.222  42.730  14.074
58014W        W30439  18.389   2.866  14.474
58015W        W30440  20.330   5.426  12.046
58016W        W30441  37.302  17.199  12.952
58017W        W30442  27.514   0.475  11.018
58018W        W30443  29.924  13.352   3.149
58019W        W30444  22.077  23.551   4.621
58020W        W30445  28.396   6.212  13.116
58021W        W30446  31.488   9.920   2.322
58022W        W30447   7.261  18.754   0.256
58023W        W30448   2.517  11.556  13.325
58024W        W30449  41.810  11.618   0.967
58025W        W30450  25.108  29.058   3.265
58026W        W30451  43.012  10.771  12.011
58027W        W30452  41.140  34.192   0.442
58028W        W30453  30.567  17.512   4.651
58029W        W30454  23.454  15.481  13.598
58030W        W30455  16.778  15.562  11.056
58031W        W30456  24.667  35.867   0.974
58032W        W30457  17.902  15.288   0.008
58033W        W30458  15.574  10.926   4.172
58034W        W30459  34.909  11.876  13.344
58035W        W30460  34.606   3.863   2.271
58036W        W30461   7.811  20.911  12.416
58037W        W30462  34.132  26.065  13.092
58038W        W30463  13.207  38.762   0.329
58039W        W30464  24.578   9.110  13.869
58040W        W30465   5.816   5.248  14.446
58041W        W30466  16.122  37.871   2.220
58042W        W30467   8.111   0.024  13.959
58043W        W30468  41.152  31.037   1.266
58044W        W30469  28.501   8.751   0.610
58045W        W30470  37.940  28.510   2.267
58046W        W30471  29.297  40.997  10.296
58047W        W30472   5.571  35.139   0.027
58048W        W30473  36.459  43.284   3.863
58049W        W30474  18.004  22.576  12.579
58050W        W30475   6.175  12.996  10.747
58051W        W30476  13.909   6.281   3.142
58052W        W30477  29.945  18.463   0.726
58053W        W30478  43.879   8.603   2.586
58054W        W30479  44.276  42.760   3.175
58055W        W30480  30.700  41.161  12.034
58056W        W30481  38.923   9.862  14.000
58057W        W30482  12.916  35.173  12.522
58058W        W30483  32.113  39.199  13.233
58059W        W30484  24.443  10.540   2.377
58060W        W30485  40.447  17.154   2.729
58061W        W30486   6.776  41.357  13.488
58062W        W30487  32.199  43.893   4.718
58063W        W30488   4.643  29.089  11.234
58064W        W30489  12.186  33.396  10.585
58065W        W30490  11.861   5.413  11.541
58066W        W30491   2.706  21.700   3.640
58067W        W30492  33.916  21.306   1.475
58068W        W30493  30.717  34.423  11.392
58069W        W30494  25.889  28.321  11.148
58070W        W30495   3.312  16.854   3.735
58071W        W30496  42.371  14.859   3.680
58072W        W30497  34.841  41.336  10.749
58073W        W30498   1.295  15.263  13.468
58074W        W30499  44.408  33.881  11.843
58075W        W30500   5.274  43.900   1.801
58076W        W30501  10.673  21.211   3.156
58077W        W30502   5.312  43.213   2.337
58078W        W30503  31.008  12.081  10.697
58079W        W30504   0.945  26.056  13.538
58080W        W30505  25.173  20.714  12.108
58081W        W30506  17.107  39.792  10.438
58082W        W30507  28.109   2.650  11.008
58083W        W30508   1.929  21.877   1.951
58084W        W30509  35.024  41.098  13.997
58085W        W30510  25.773  22.078   3.646
58086W        W30511  21.510  23.053   4.194
58087W        W30512  26.801  40.836  12.049
58088W        W30513  38.822   2.133   3.323
58089W        W30514  31.327   1.432   2.922
58090W        W30515  24.110   8.177   0.951
58091W        W30516  44.732  39.055   2.704
58092W        W30517  42.971  33.337  12.957
58093W        W30518  43.327  41.299  10.786
58094W        W30519  14.294  11.636  10.642
58095W        W30520  37.272  20.249  12.404
58096W        W30521  17.802  22.133   4.360
58097W        W30522  24.645  10.968   9.357
58098W        W30523  30.921  12.372   2.467
58099W        W30524  40.736   5.674  13.955
58100W        W30525  20.229  21.547  10.630
58101W        W30526   8.880  37.368   5.463
58102W        W30527  34.507  44.852  10.775
58103W        W30528  14.212  26.671   3.379
58104W        W30529  26.491  14.156  12.937
58105W        W30530  11.310   5.761   3.580
58106W        W30531   9.334  36.538  11.515
58107W        W30532  21.079   1.181  14.029
58108W        W30533  14.893   7.330   0.018
58109W        W30534  23.226   8.408   0.854
58110W        W30535  36.354  42.497  13.391
58111W        W30536  11.618   5.462   3.240
58112W        W30537  37.452   1.463  12.612
58113W        W30538   8.777  35.802   4.092
58114W        W30539  26.136  38.625  14.090
58115W        W30540  30.333  25.165   1.395
58116W        W30541   6.050  22.877   1.220
58117W        W30542  25.913  42.833  13.451
58118W        W30543   3.261  11.779  13.797
58119W        W30544  20.764  22.267   4.759
58120W        W30545  38.713  11.178   3.759
58121W        W30546  14.356   5.366   1.234
58122W        W30547   5.008  16.157  10.561
58123W        W30548   3.435  14.859  13.870
58124W        W30549  33.422  30.196   0.421
58125W        W30550  19.496   9.254  12.974
58126W        W30551   9.020  20.448   2.378
58127W        W30552  21.965  31.453   2.985
58128W        W30553  35.726  25.971   3.297
58129W        W30554   1.797  40.119  11.144
58130W        W30555   5.768  24.947  12.908
58131W        W30556  11.905  23.485  12.846
58132W        W30557  10.232  37.863   4.472
58133W        W30558  38.948  22.677   5.115
58134W        W30559  42.501   4.890  10.759
58135W        W30560   7.748  12.606   0.852
58136W        W30561  15.995  32.703  11.626
58137W        W30562   7.217   5.279   2.216
58138W        W30563  32.608  28.623  10.652
58139W        W30564  33.981  24.748  13.035
58140W        W30565  10.021   2.051  11.134
58141W        W30566   9.829  40.596  11.167
58142W        W30567  27.582  11.383   1.880
58143W        W30568  11.725  30.434   2.372
58144W        W30569  25.980  15.800  13.235
58145W        W30570   3.890  34.504  14.801
58146W        W30571  44.677  34.541  12.397
58147W        W30572  39.439   9.753   2.208
58148W        W30573  37.938  24.753  11.068
58149W        W30574  38.400  22.283   2.214
58150W        W30575  38.079  32.165   1.475
58151W        W30576  19.124   8.467   0.521
58152W        W30577  13.840  37.549  11.155
58153W        W30578   7.216  30.612  11.455
58154W        W30579   8.573  38.899   2.036
58155W        W30580  34.293   9.995   1.675
58156W        W30581  41.784  15.279  10.787
58157W        W30582  14.330  25.423  13.994
58158W        W30583  39.228  26.723   2.224
58159W        W30584  27.490   8.343  14.403
58160W        W30585   1.191  20.714  13.125
58161W        W30586  44.808   0.762  13.889
58162W        W30587  12.734  12.657   1.787
58163W        W30588   1.844   5.210   2.950
58164W        W30589   3.884   8.890  12.608
58165W        W30590  44.928   5.802  13.022
58166W        W30591   8.355  35.619  14.910
58167W        W30592  11.820  28.031  11.472
58168W        W30593  33.507  31.658   2.844
58169W        W30594  14.201  31.806  10.112
58170W        W30595  21.135  41.778  10.704
58171W        W30596  18.754  42.075  13.177
58172W        W30597   5.331  38.321  12.109
58173W        W30598  35.114  24.071  10.605
58174W        W30599  13.601  42.873   3.789
58175W        W30600  33.400  23.312  12.380
58176W        W30601  38.083  38.588   1.675
58177W        W30602   4.884  18.207  11.464
58178W        W30603  23.239  13.989  10.490
58179W        W30604  21.190  35.807  12.112
58180W        W30605   6.728  16.493   0.258
58181W        W30606  24.337  40.898  12.985
58182W        W30607  24.822   7.375  11.886
58183W        W30608  36.584  37.035   3.145
58184W        W30609  12.697   0.996  11.047
58185W        W30610   7.713  13.701  10.757
58186W        W30611  24.163  43.734  14.788
58187W        W30612   6.005  43.376  13.918
58188W        W30613  17.632  41.374   4.500
58189W        W30614  13.632  17.655   1.805
58190W        W30615  14.278  44.977   1.716
58191W        W30616   8.454   3.339  12.834
58192W        W30617   1.096   4.266  12.945
58193W        W30618  26.983   2.225   0.196
58194W        W30619   4.416  10.138   3.275
58195W        W30620  23.509  34.581  11.081
58196W        W30621  29.844  10.872  12.942
58197W        W30622  19.472  15.353  12.033
58198W        W30623   6.808  14.333  12.533
58199W        W30624  36.332   0.350  14.873
58200W        W30625  16.485   0.752   4.183
58201W        W30626  14.339  40.386   0.413
58202W        W30627  30.438  38.453  13.202
58203W        W30628  18.345  17.760  13.027
58204W        W30629  10.326  44.734   0.695
58205W        W30630  38.580  32.532  14.751
58206W        W30631   2.905   0.392  11.535
58207W        W30632  34.429  33.468  12.983
58208W        W30633  36.993  31.042   4.437
58209W        W30634  39.592   4.728   3.095
58210W        W30635  35.079  33.588  10.737
58211W        W30636   9.204   9.941  14.832
58212W        W30637  16.834  12.363  11.516
58213W        W30638  24.017   3.374   4.405
58214W        W30639  28.719   4.337  12.922
58215W        W30640  19.717  26.478  14.366
58216W        W30641  11.240  11.629  14.538
58217W        W30642   9.612  32.923  13.939
58218W        W30643   5.814  14.189  14.477
58219W        W30644  32.254  16.485   9.970
58220W        W30645  26.552   1.454  11.136
58221W        W30646  38.062  15.301   2.225
58222W        W30647   3.665  35.766   0.739
58223W        W30648  23.185   3.045  12.816
58224W        W30649   4.834  29.729  13.563
58225W        W30650   1.082  39.419  13.906
58226W        W30651  41.916  39.200   1.549
58227W        W30652  20.114  43.392  12.639
58228W        W30653  33.192  42.781  12.168
58229W        W30654  13.199  26.727   2.415
58230W        W30655  15.565  31.877  10.352
58231W        W30656  26.315  14.706  12.064
58232W        W30657  14.309  18.715  14.474
58233W        W30658  33.099   3.795  12.863
58234W        W30659   6.309  26.480  13.595
58235W        W30660   1.243  14.762  13.356
58236W        W30661   2.646  27.953   2.447
58237W        W30662   5.892  20.022  10.984
58238W        W30663  14.713  30.122   1.016
58239W        W30664  23.629  32.550   1.178
58240W        W30665  18.648  31.430  13.561
58241W        W30666   7.703  42.787   1.840
58242W        W30667  24.797  26.263  13.876
58243W        W30668  23.953   9.952  12.188
58244W        W30669   2.244   2.273  12.534
58245W        W30670  32.855  24.116  11.190
58246W        W30671  43.995  20.135  14.052
58247W        W30672  36.908  22.290  13.856
58248W        W30673   4.932  28.360  11.871
58249W        W30674  19.143  21.125   0.122
58250W        W30675  19.539  24.475   1.812
58251W        W30676  31.181  35.215   4.692
58252W        W30677  43.107  19.011  12.838
58253W        W30678   8.464  18.533   0.908
58254W        W30679   7.219  43.237  11.880
58255W        W30680  43.295  21.339   1.170
58256W        W30681   8.892  12.700  11.532
58257W        W30682  42.161   4.346  14.351
58258W        W30683  21.643  10.638  14.817
58259W        W30684  34.889   3.159  12.481
58260W        W30685   1.420  41.452   2.405
58261W        W30686  32.158  23.315  13.143
58262W        W30687  19.222  41.452  14.047
58263W        W30688   8.765  27.946  14.777
58264W        W30689  11.911  13.262   1.468
58265W        W30690  36.473  32.454  14.279
58266W        W30691  37.355  13.898  12.640
58267W        W30692   1.368   6.460  13.913
58268W        W30693  24.006  43.465   0.699
58269W        W30694   4.730  26.402  12.624
58270W        W30695  24.913  20.639  14.626
58271W        W30696  16.781   3.346   1.692
58272W        W30697  27.937  34.444   2.826
58273W        W30698  26.458  36.503  12.854
58274W        W30699   5.904   5.799   0.414
58275W        W30700  27.014  32.854  13.910
58276W        W30701  26.455  29.506   3.794
58277W        W30702  40.956  23.752  12.995
58278W        W30703  33.526  42.578   2.481
58279W        W30704  30.636  25.964  11.057
58280W        W30705  36.022  40.376   1.146
58281W        W30706  39.867  18.035   1.426
58282W        W30707   5.906  36.202  12.374
58283W        W30708  31.965  15.131  14.867
58284W        W30709  38.436  10.716  14.889
58285W        W30710  43.707  26.127   3.315
58286W        W30711  33.983  29.594  11.479
58287W        W30712  12.329  14.655   0.355
58288W        W30713  32.007  31.570   0.757
58289W        W30714   9.463  10.437   2.706
58290W        W30715  40.388  27.188  14.362
58291W        W30716  24.785  36.417   4.560
58292W        W30717  15.613  34.635  14.446
58293W        W30718  32.580  16.090   2.844
58294W        W30719  34.050   8.733   1.981
58295W        W30720   1.969  20.128   4.113
58296W        W30721  22.812  40.400   0.271
58297W        W30722   4.528  10.225  13.528
58298W        W30723  36.112   6.188  12.099
58299W        W30724   0.444  37.282   3.440
58300W        W30725  35.878  25.358  14.349
58301W        W30726   0.503  31.922   2.773
58302W        W30727  38.072  24.873  12.736
58303W        W30728  25.374  11.269  12.751
58304W        W30729  10.436  10.228   1.308
58305W        W30730   6.602  21.093  14.916
58306W        W30731  43.954  25.561  11.203
58307W        W30732  39.038  27.007  13.443
58308W        W30733  26.592  31.359  11.600
58309W        W30734  18.537  16.873   2.124
58310W        W30735  28.344  37.696   0.020
58311W        W30736   6.758  23.542  10.431
58312W        W30737  24.252  17.719   3.239
58313W        W30738   1.554  21.777   0.491
58314W        W30739  22.509  20.637   0.503
58315W        W30740  30.899  22.135   3.658
58316W        W30741  12.743   6.112   4.194
58317W        W30742  31.352  43.324   1.370
58318W        W30743  12.563  13.968   4.189
58319W        W30744   7.806  13.889  10.049
58320W        W30745  17.045   9.294  10.821
58321W        W30746  11.170  15.992  13.618
58322W        W30747  17.791  39.353  14.057
58323W        W30748  28.142   2.954  11.819
58324W        W30749  31.225  42.972  14.270
58325W        W30750   1.862  32.549   3.201
58326W        W30751  27.113  13.714  13.854
58327W        W30752  21.860  25.028   2.417
58328W        W30753   2.375   8.619  13.363
58329W        W30754  17.213  28.224   0.380
58330W        W30755  40.832  17.325   1.244
58331W        W30756  29.208  43.928  12.204
58332W        W30757  31.696   1.125  13.473
58333W        W30758   9.244  40.973  13.795
58334W        W30759  11.971  26.597   3.641
58335W        W30760  15.874  29.045   0.775
58336W        W30761  26.528  13.144  14.372
58337W        W30762  20.955   6.378   2.140
58338W        W30763  43.255  17.330  14.025
58339W        W30764  17.309  27.792   3.586
58340W        W30765  29.044  28.196   3.403
58341W        W30766   6.964   1.125  11.555
58342W        W30767  18.799  15.645   3.615
58343W        W30768  28.094  21.672  14.827
58344W        W30769   8.069   7.287   2.321
58345W        W30770  18.383  26.288  12.261
58346W        W30771  30.544  40.885  10.449
58347W        W30772  42.790  35.899  13.444
58348W        W30773   8.104  39.258   1.494
58349W        W30774  28.241  10.038   0.208
58350W        W30775  28.216  27.581   4.734
58351W        W30776  10.099  13.224  13.333
58352W        W30777  21.060   1.412  14.486
58353W        W30778  31.514  18.605   1.510
58354W        W30779   5.761  31.700  13.554
58355W        W30780   9.711  11.209  12.047
58356W        W30781  17.686  12.571  11.141
58357W        W30782  26.038   3.614   4.895
58358W        W30783  23.985  21.089  12.859
58359W        W30784   8.234   3.610   1.952
58360W        W30785  26.475  42.257   1.049
58361W        W30786   1.954  31.047   4.124
58362W        W30787  24.129   2.463  14.268
58363W        W30788  28.960   4.522   1.985
58364W        W30789  42.109  13.711   2.365
58365W        W30790  11.091  38.319  12.933
58366W        W30791  19.019  12.744   1.488
58367W        W30792  22.120  19.815   2.468
58368W        W30793  18.049  29.902  12.914
58369W        W30794  39.829  36.010  12.869
58370W        W30795  32.061   7.784   2.319
58371W        W30796  15.339  25.105  11.541
58372W        W30797  44.454  13.579  12.898
58373W        W30798  43.046   4.364  13.980
58374W        W30799  18.606  15.094  14.463
58375W        W30800  30.027  34.834  12.404
58376W        W30801  44.667  12.212   0.896
58377W        W30802  14.993  40.595  11.197
58378W        W30803  24.430   2.047   3.340
58379W        W30804  22.757  28.925  14.463
58380W        W30805  25.559  34.058   4.469
58381W        W30806  22.749   8.383  11.675
58382W        W30807  31.928  20.513  12.974
58383W        W30808  10.440  41.990  11.502
58384W        W30809  12.759  44.281  10.118
58385W        W30810  37.605  29.478   1.478
58386W        W30811  10.612   8.308   3.318
58387W        W30812   7.482  22.219  13.833
58388W        W30813  34.046   2.793  12.498
58389W        W30814  40.117  31.647   1.725
58390W        W30815   3.816   2.253  13.077
58391W        W30816   6.878   8.564   3.626
58392W        W30817  32.195  35.789  10.141
58393W        W30818  23.177  18.504   2.259
58394W        W30819  39.859  26.734  13.055
58395W        W30820  36.593  37.083  13.764
58396W        W30821   7.733  26.559  13.808
58397W        W30822   6.953   0.990   4.827
58398W        W30823   6.737  30.488   1.150
58399W        W30824   6.089  18.326   4.476
58400W        W30825   3.206  16.003   4.109
58401W        W30826  24.031  30.395  12.536
58402W        W30827  11.022  40.098   1.475
58403W        W30828   1.729   6.299   0.280
58404W        W30829  13.686  44.942   4.553
58405W        W30830  29.035  11.114   1.180
58406W        W30831   9.878   2.997  12.035
58407W        W30832  26.997  39.798   3.919
58408W        W30833  28.850   8.381   0.940
58409W        W30834   5.389  36.314  14.016
58410W        W30835   6.312  27.875   2.612
58411W        W30836  38.804  30.934  12.497
58412W        W30837   3.365  29.378   0.963
58413W        W30838  28.220  19.706  14.873
58414W        W30839  11.998  31.342  13.248
58415W        W30840  42.083   2.197   3.695
58416W        W30841  12.101  25.701   4.196
58417W        W30842  37.119  28.525  14.485
58418W        W30843   5.978  32.420   2.244
58419W        W30844   9.284  39.478  10.725
58420W        W30845  29.716  24.825   5.048
58421W        W30846  15.044  29.390   4.465
58422W        W30847  12.669  34.071  11.438
58423W        W30848  40.454  27.608  13.093
58424W        W30849  13.722  21.444  12.808
58425W        W30850  43.728   2.362   1.084
58426W        W30851   0.355   6.179  13.402
58427W        W30852  39.962  26.693  11.945
58428W        W30853  11.278  16.630  14.887
58429W        W30854  34.999   0.118  11.642
58430W        W30855  36.925   2.396   5.068
58431W        W30856  24.028  37.528   5.191
58432W        W30857  12.544  39.405   0.818
58433W        W30858   0.790   5.279  11.869
58434W        W30859  39.002  39.804  11.651
58435W        W30860  22.483  44.750   4.735
58436W        W30861  18.615  12.207   1.557
58437W        W30862  21.011   7.252  14.982
58438W        W30863  36.254   9.376  11.577
58439W        W30864  34.988  42.830   1.292
58440W        W30865   2.839   2.202   0.024
58441W        W30866  32.143  33.416  13.384
58442W        W30867  29.649   6.580   4.061
58443W        W30868   6.138  36.867   0.731
58444W        W30869  36.486  28.947  12.647
58445W        W30870   1.021  16.029   2.333
58446W        W30871  17.464  34.427   3.883
58447W        W30872  16.183  41.865  12.391
58448W        W30873  31.580  30.812   3.337
58449W        W30874  31.114  12.452   1.728
58450W        W30875  41.900  15.926   4.929
58451W        W30876  30.717  28.018   3.722
58452W        W30877  44.715  20.260  10.835
58453W        W30878   2.408  17.763  11.241
58454W        W30879  32.410  43.012   0.492
58455W        W30880  14.598  25.466  12.163
58456W        W30881  17.922  10.857   2.485
58457W        W30882   2.960  27.720   4.331
58458W        W30883  26.874   8.823  13.297
58459W        W30884   4.635  10.559  10.462
58460W        W30885  20.023  35.130  12.555
58461W        W30886  35.414  43.734   3.662
58462W        W30887  28.582  33.458   0.393
58463W        W30888   7.944  43.706   3.791
58464W        W30889  40.696  18.801   0.179
58465W        W30890  17.849  18.762   1.250
58466W        W30891  41.858   8.693   3.496
58467W        W30892   8.191  36.489   4.670
58468W        W30893  15.654   0.480  13.929
58469W        W30894   5.270   5.342   1.696
58470W        W30895  28.420   8.478  13.572
58471W        W30896  40.365  31.085   2.305
58472W        W30897  34.839  19.062   4.671
58473W        W30898  13.197  27.082  11.813
58474W        W30899  22.548  40.758  13.385
58475W        W30900  28.593   6.642  11.940
58476W        W30901  43.795  16.029   1.461
58477W        W30902  33.026  22.986  11.682
58478W        W30903  33.537  21.857  12.901
58479W        W30904  26.728  32.303  14.400
58480W        W30905  43.919  42.914  11.258
58481W        W30906  31.000  20.154  11.418
58482W        W30907  14.774  12.930  10.406
58483W        W30908  41.379   8.186   2.879
58484W        W30909   7.464  10.925  14.270
58485W        W30910  14.828   5.876  11.433
58486W        W30911   6.966  18.311  14.834
58487W        W30912  27.221  39.935  14.248
58488W        W30913  30.983  11.329  12.580
58489W        W30914  40.353   1.851   0.295
58490W        W30915  18.611  29.606   4.080
58491W        W30916   3.743  14.061   3.108
58492W        W30917  41.542  15.818  10.909
58493W        W30918   2.691  30.366   4.203
58494W        W30919  13.195  28.171  12.623
58495W        W30920  24.584  34.914   0.138
58496W        W30921  19.758  21.989   2.842
58497W        W30922  24.765  13.175  13.824
58498W        W30923   7.659  19.279   4.554
58499W        W30924   9.854  31.827   4.594
58500W        W30925  39.001  42.787  10.700
58501W        W30926   9.113  27.061   0.402
58502W        W30927   7.239   0.587  12.189
58503W        W30928   7.416   6.813   1.645
58504W        W30929  28.427   7.799  12.910
58505W        W30930  16.324   0.316  10.207
58506W        W30931  40.043   1.621  14.825
58507W        W30932  40.400  38.529  13.309
58508W        W30933  44.260  27.611  13.284
58509W        W30934  11.875   6.853  11.835
58510W        W30935  43.872  42.614  14.948
58511W        W30936   4.121  30.433  11.563
58512W        W30937  26.625  41.064   0.323
58513W        W30938   1.743  39.022  11.938
58514W        W30939   8.183   4.974  14.082
58515W        W30940  26.590   8.794  13.714
58516W        W30941   5.431  20.702   1.605
58517W        W30942  38.192  14.619  12.114
58518W        W30943  12.259  32.703   0.689
58519W        W30944  34.885  35.946  14.998
58520W        W30945  26.597  35.573  12.563
58521W        W30946  28.473  20.128   1.463
58522W        W30947   0.327  41.746   0.889
58523W        W30948   0.677   2.940   2.780
58524W        W30949   6.421  17.818  14.271
58525W        W30950  36.371  14.395   4.920
58526W        W30951  11.996  34.483   3.679
58527W        W30952  39.688  38.116   1.189
58528W        W30953  35.541  23.335   4.779
58529W        W30954  20.189   6.512  11.444
58530W        W30955  26.266  39.954   0.711
58531W        W30956  43.065  13.188   1.844
58532W        W30957  29.888  33.586  13.009
58533W        W30958  17.617  29.394  13.481
58534W        W30959  30.606  23.529  14.004
58535W        W30960  23.435   8.516  11.060
58536W        W30961  25.630  15.355  10.952
58537W        W30962  18.636  34.875  12.569
58538W        W30963  17.989  25.858   1.544
58539W        W30964  11.206  14.122   2.865
58540W        W30965  41.230   1.802  11.015
58541W        W30966  29.215  19.120  14.053
58542W        W30967  16.188  42.895  10.741
58543W        W30968  28.044   4.349   3.465
58544W        W30969   8.494  30.519   0.503
58545W        W30970   4.375   1.467   2.290
58546W        W30971   1.286  10.229   4.339
58547W        W30972  41.094   1.410   2.858
58548W        W30973  35.126  27.710  12.464
58549W        W30974  27.042   6.876  14.356
58550W        W30975  31.879  32.127   2.232
58551W        W30976  18.180  15.296   4.036
58552W        W30977  29.642  17.789  10.957
58553W        W30978  15.898   0.979  10.600
58554W        W30979  10.297  22.779   0.392
58555W        W30980  18.559   0.263   2.673
58556W        W30981  28.163  27.268  11.358
58557W        W30982   5.458  21.383  14.366
58558W        W30983  14.153  37.006   0.494
58559W        W30984  21.526  36.702   0.159
58560W        W30985  29.900  44.995  11.432
58561W        W30986   1.444  14.952  11.284
58562W        W30987  23.857  15.610  11.398
58563W        W30988  38.781   5.658   1.843
58564W        W30989  38.743  38.397   4.492
58565W        W30990  14.214  10.427   0.532
58566W        W30991  14.246  24.029  14.376
58567W        W30992   7.968  43.381  12.518
58568W        W30993  16.578  34.963  12.307
58569W        W30994  41.659  18.090  11.444
58570W        W30995  40.701   0.031  12.365
58571W        W30996  20.074   5.646  10.296
58572W        W30997  23.700  31.176   3.298
58573W        W30998  32.095   9.972  12.085
58574W        W30999  16.813  25.835   2.115
58575W        W31000  40.294  13.565   2.666
58576W        W31001  39.711  30.019  12.149
58577W        W31002  21.137   5.422  10.799
58578W        W31003  24.126  33.445   4.148
58579W        W31004   4.315  11.296   2.467
58580W        W31005  41.853  10.171  11.172
58581W        W31006  19.972   7.758   2.596
58582W        W31007  15.592  21.733  13.783
58583W        W31008  21.470  28.867   4.579
58584W        W31009  24.232  24.484  12.404
58585W        W31010  39.870   1.410  14.376
58586W        W31011  13.350  43.084  11.215
58587W        W31012  28.844  13.275  14.406
58588W        W31013  31.126  31.677   3.390
58589W        W31014  43.262  25.277   2.917
58590W        W31015  31.087  13.730   1.014
58591W        W31016  23.428  20.243   2.146
58592W        W31017   8.760  17.516  12.505
58593W        W31018  34.577  14.622   2.628
58594W        W31019  33.732   0.670   1.905
58595W        W31020  39.884  21.063  14.804
58596W        W31021  19.152  10.911   1.915
58597W        W31022  34.943  34.576  10.480
58598W        W31023  27.158  29.148  13.561
58599W        W31024  10.623  26.619  13.493
58600W        W31025  17.706  36.596   4.094
58601W        W31026  17.577  19.339  14.856
58602W        W31027  17.183  18.713  12.944
58603W        W31028  19.528  29.688  11.516
58604W        W31029   5.718  16.647  11.982
58605W        W31030   0.431   2.060   2.227
58606W        W31031  23.030  41.611   0.884
58607W        W31032  44.402  38.612   3.693
58608W        W31033  25.737  33.854  10.721
58609W        W31034   2.413   2.971   3.540
58610W        W31035   7.378   5.301  11.571
58611W        W31036   7.908  27.422   1.021
58612W        W31037  18.895  13.242  11.225
58613W        W31038  37.571  24.154   2.603
58614W        W31039   1.400  19.395  13.167
58615W        W31040  21.152  31.030  10.903
58616W        W31041  17.286  33.109   2.336
58617W        W31042  34.847  25.394   4.716
58618W        W31043  22.799  36.078   4.975
58619W        W31044  21.325  17.766   1.216
58620W        W31045  20.114  27.388   2.713
58621W        W31046  22.558   9.815   4.371
58622W        W31047  30.196  15.534  14.943
58623W        W31048  17.858   3.458  13.542
58624W        W31049  44.404  43.806  10.412
58625W        W31050   6.304   1.844   3.938
58626W        W31051  22.265  32.381   0.325
58627W        W31052  38.511  15.692   4.132
58628W        W31053  38.009  39.714   1.167
58629W        W31054  12.792  26.613   4.619
58630W        W31055  32.454  38.116   2.880
58631W        W31056   4.478  30.547   4.698
58632W        W31057  44.274  33.895   4.546
58633W        W31058   1.192  12.201  14.275
58634W        W31059  33.101   4.077   0.248
58635W        W31060  30.196  36.266  12.432
58636W        W31061   1.709  12.437   3.756
58637W        W31062  39.715  35.842  11.594
58638W        W31063  26.480  29.086   3.168
58639W        W31064  35.833  41.506   0.062
58640W        W31065  13.619   5.895  11.539
58641W        W31066   1.189  20.184  12.522
58642W        W31067  21.774  16.347  10.687
58643W        W31068   9.082  40.005   4.458
58644W        W31069   9.200  30.636  13.471
58645W        W31070  22.033  13.175   0.027
58646W        W31071  25.605  36.331  11.562
58647W        W31072   6.438   5.904  10.243
58648W        W31073  32.359  20.057   1.876
58649W        W31074  30.061  25.299   0.533
58650W        W31075  10.767  15.270   2.249
58651W        W31076  13.236  29.108  12.770
58652W        W31077  13.298  36.310  13.631
58653W        W31078  41.535  28.645  14.378
58654W        W31079  26.695  32.981  11.993
58655W        W31080  40.592  33.069  13.981
58656W        W31081  14.696   3.455  14.517
58657W        W31082  24.759  34.418  13.524
58658W        W31083   6.487  23.668   5.098
58659W        W31084  20.056  35.330  11.544
58660W        W31085  39.271  39.973  14.371
58661W        W31086  42.239   7.760   2.189
58662W        W31087   2.380  26.914  10.964
58663W        W31088  41.878  44.878  10.432
58664W        W31089  38.041  11.729  12.467
58665W        W31090  14.196   4.151  10.551
58666W        W31091  35.869  10.794   1.983
58667W        W31092   5.091  42.897  11.505
58668W        W31093   9.742  22.003   0.385
58669W        W31094  36.070  18.613  12.961
58670W        W31095  35.107  13.080  14.006
58671W        W31096  26.903  21.091   2.285
58672W        W31097  12.308  34.335   4.080
58673W        W31098  19.541  43.417   0.657
58674W        W31099  43.318  18.235  12.953
58675W        W31100  33.076  14.208  10.908
58676W        W31101  16.572  18.644   0.919
58677W        W31102  21.329  28.412  12.103
58678W        W31103  32.310  41.282   0.337
58679W        W31104  36.287   9.346   2.534
58680W        W31105  11.799   0.328   9.901
58681W        W31106  29.890  11.719  11.903
58682W        W31107   6.790  25.481  13.104
58683W        W31108  23.745  20.637   1.977
58684W        W31109  21.631  30.205  11.062
58685W        W31110  33.070  15.864   2.844
58686W        W31111  26.612  43.847  10.698
58687W        W31112   1.449  30.047  14.056
58688W        W31113  22.988  27.301  12.888
58689W        W31114  36.873   5.738  11.262
58690W        W31115  13.262  10.378  11.434
58691W        W31116  29.942   0.190  10.962
58692W        W31117  16.635  31.973  13.510
58693W        W31118  25.524  39.021   4.061
58694W        W31119   3.240   2.370  13.930
58695W        W31120  38.568  41.812   2.386
58696W        W31121  38.403   6.305   2.663
58697W        W31122  26.753  17.125  12.464
58698W        W31123   0.384  22.027  12.130
58699W        W31124  19.157  22.568   0.038
58700W        W31125  22.695  27.730  10.004
58701W        W31126  32.107  39.274   4.097
58702W        W31127  20.543   1.473  11.533
58703W        W31128   8.651  30.886   0.165
58704W        W31129  14.315  26.633  10.628
58705W        W31130  30.192  33.225   3.919
58706W        W31131   0.427  24.684   3.140
58707W        W31132  41.490  29.912  12.424
58708W        W31133  29.204  29.796   3.735
58709W        W31134  15.552  25.099   3.888
58710W        W31135  44.788  12.697   0.213
58711W        W31136  28.577  34.946   2.308
58712W        W31137  40.382  30.053   0.965
58713W        W31138  24.451  11.100  12.374
58714W        W31139  29.182  33.471   3.118
58715W        W31140  42.825   2.488  11.558
58716W        W31141  33.486   6.947   2.848
58717W        W31142  30.045  10.665  14.030
58718W        W31143  23.827  35.191   4.987
58719W        W31144  38.436   3.266   3.691
58720W        W31145  27.926  15.396   5.042
58721W        W31146  16.490  18.900   0.468
58722W        W31147   5.388   9.248  11.185
58723W        W31148  11.544   0.586  11.190
58724W        W31149  12.669   0.291   1.798
58725W        W31150  33.393  34.851   4.225
58726W        W31151  17.433  35.543   2.193
58727W        W31152  38.351   5.674   1.334
58728W        W31153   2.526   9.821  12.501
58729W        W31154   2.160  34.967   3.695
58730W        W31155   0.514   9.225   4.162
58731W        W31156  14.547  12.646   3.148
58732W        W31157  33.464  17.794  11.534
58733W        W31158  26.654  10.827  14.707
58734W        W31159  19.570  16.828   2.839
58735W        W31160  39.368  43.389  13.048
58736W        W31161   5.155  11.692  12.597
58737W        W31162  37.117  23.364   0.564
58738W        W31163  22.151  27.137   3.519
58739W        W31164  16.816   2.351  12.644
58740W        W31165  17.265  17.835   0.828
58741W        W31166  33.025  14.550  11.686
58742W        W31167  43.785  20.522   4.677
58743W        W31168  24.982  28.146  14.390
58744W        W31169  42.077  15.575   4.570
58745W        W31170  38.046  29.465  10.581
58746W        W31171   3.991  10.280   0.244
58747W        W31172   9.685   8.621  11.517
58748W        W31173  36.317  13.628   2.433
58749W        W31174  20.307   1.452   1.763
58750W        W31175  36.647  32.680   0.921
58751W        W31176  33.114  40.419  10.711
58752W        W31177  24.463  21.545   3.640
58753W        W31178  11.260   0.519   0.914
58754W        W31179  30.702  38.205   3.010
58755W        W31180   9.974  42.878   0.178
58756W        W31181  12.384   9.108  13.134
58757W        W31182  19.437   8.956   0.888
58758W        W31183  21.026  44.521   1.207
58759W        W31184  15.855  17.911   0.036
58760W        W31185  24.114  14.038  10.006
58761W        W31186   3.424  33.175  10.481
58762W        W31187   9.447  11.323  12.497
58763W        W31188  17.750   2.270   1.721
58764W        W31189  43.915  29.706   0.481
58765W        W31190  21.752  40.869  12.699
58766W        W31191  22.659  23.653  13.457
58767W        W31192  27.170  39.477   1.305
58768W        W31193  42.189  23.021   1.920
58769W        W31194  19.569  24.161  14.007
58770W        W31195  13.555  10.210  12.861
58771W        W31196  21.131  12.548   3.601
58772W        W31197  19.309  26.102  10.353
58773W        W31198  27.947  12.557   4.586
58774W        W31199  25.357  42.482  11.961
58775W        W31200  23.617   3.713   0.832
58776W        W31201  12.770  22.302  11.459
58777W        W31202  31.053  33.026  12.516
58778W        W31203  18.138  14.685   2.753
58779W        W31204  37.525  18.094  13.090
58780W        W31205  39.315  10.494  14.888
58781W        W31206  27.242  10.275  11.656
58782W        W31207   6.702  41.384   2.445
58783W        W31208  24.241  29.188  13.950
58784W        W31209   0.217  31.263   4.545
58785W        W31210  13.000   1.956   4.464
58786W        W31211  32.436  21.537   2.153
58787W        W31212  20.149   4.355   0.321
58788W        W31213  27.291  38.753   2.407
58789W        W31214  14.860  30.599   3.241
58790W        W31215  33.458  31.098  14.736
58791W        W31216  39.563  21.749  10.757
58792W        W31217  29.482  15.308   3.456
58793W        W31218  37.808   0.940   1.870
58794W        W31219  41.740  15.010   2.368
58795W        W31220  35.125  22.732   2.385
58796W        W31221  19.877  10.170   2.831
58797W        W31222  38.143  40.827   2.297
58798W        W31223  20.953   4.406   2.719
58799W        W31224  23.936  10.271  12.887
58800W        W31225  36.100  12.752   2.918
58801W        W31226  26.723  37.686   1.315
58802W        W31227  13.317  14.829   1.914
58803W        W31228   0.031  24.022  12.484
58804W        W31229  26.498  41.281   0.920
58805W        W31230  17.372  44.759   5.186
58806W        W31231  16.117  19.686   3.118
58807W        W31232   0.221  15.566   3.678
58808W        W31233  38.665  44.723   3.779
58809W        W31234   8.418   4.824   3.299
58810W        W31235  16.512  43.837  12.969
58811W        W31236  17.673  23.442   0.138
58812W        W31237  15.658  44.868   3.175
58813W        W31238   7.459  13.824  11.182
58814W        W31239   5.935  17.032   4.701
58815W        W31240  15.230  24.963  12.067
58816W        W31241  32.407   0.757   4.311
58817W        W31242  28.418  41.671   0.671
58818W        W31243  30.094  17.384  12.670
58819W        W31244   0.672  19.733  13.476
58820W        W31245  40.016  36.019   2.700
58821W        W31246  36.124  15.390  11.514
58822W        W31247   8.281  23.983  10.715
58823W        W31248   0.434  34.048  12.140
58824W        W31249  37.988  31.414   1.822
58825W        W31250  42.077  38.528   3.674
58826W        W31251   5.334   2.336  12.070
58827W        W31252  17.643   1.654   1.397
58828W        W31253  19.403   0.451  12.401
58829W        W31254   8.279   0.973  12.895
58830W        W31255  10.747   0.697   3.212
58831W        W31256  35.109   6.673   2.747
58832W        W31257  17.670  36.123  13.318
58833W        W31258   9.943  26.075  12.604
58834W        W31259   8.418  16.204  11.534
58835W        W31260  34.825  13.285  12.612
58836W        W31261  18.062  12.926   3.326
58837W        W31262  37.664   1.769  13.915
58838W        W31263  30.852   9.331   2.684
58839W        W31264   6.035   1.414  14.724
58840W        W31265  13.937  35.550  10.940
58841W        W31266   9.526  34.640  10.957
58842W        W31267  25.732  12.243  14.763
58843W        W31268  25.131   2.415   4.561
58844W        W31269  10.565  31.598  14.721
58845W        W31270  28.332   0.689  12.967
58846W        W31271  15.555   8.761   1.323
58847W        W31272  38.239  37.019   0.969
58848W        W31273  20.658  36.469   2.361
58849W        W31274  27.659   1.272  13.013
58850W        W31275   1.590  36.275   3.691
58851W        W31276  31.064  20.504   4.343
58852W        W31277  16.353   5.553  13.973
58853W        W31278   5.181   3.783  12.931
58854W        W31279  29.122  19.804  14.869
58855W        W31280   9.684  34.749  13.112
58856W        W31281  43.367  23.664   1.790
58857W        W31282  22.606  43.453   4.969
58858W        W31283  44.195  43.977   1.188
58859W        W31284  12.341   9.280   4.387
58860W        W31285  14.580  20.334   0.884
58861W        W31286  32.771  36.836  14.434
58862W        W31287  25.097   6.450   4.237
58863W        W31288   4.909  20.611   0.308
58864W        W31289  40.573  31.742   4.039
58865W        W31290  20.820  40.931   2.028
58866W        W31291  24.674  12.996   3.927
58867W        W31292  32.813  13.053  14.786
58868W        W31293  18.689  24.268   4.541
58869W        W31294  19.259  15.560  14.030
58870W        W31295  21.741  40.376   0.310
58871W        W31296  16.095   9.652   3.782
58872W        W31297   8.729   8.170   0.311
58873W        W31298  13.666  13.811  12.883
58874W        W31299  33.939  16.767   5.443
58875W        W31300  43.777  19.832  11.918
58876W        W31301  11.631   8.409  13.795
58877W        W31302  16.680  33.193   3.182
58878W        W31303  32.251  27.115  12.513
58879W        W31304  16.322  14.149   0.781
58880W        W31305  29.615   4.870   5.057
58881W        W31306   1.494  16.911  13.027
58882W        W31307  17.003   6.555  13.579
58883W        W31308  32.131  38.545   0.019
58884W        W31309  34.049  38.625  12.285
58885W        W31310   9.539  33.969   3.349
58886W        W31311   4.551  25.379   5.043
58887W        W31312   3.902  21.921   0.512
58888W        W31313  10.159  17.592  14.526
58889W        W31314  19.151  31.581  13.570
58890W        W31315  38.936  25.099   4.222
58891W        W31316  19.297  12.186  13.227
58892W        W31317  40.960  37.560   1.457
58893W        W31318  26.195   3.025  11.405
58894W        W31319  37.025  27.399   4.197
58895W        W31320   7.135  23.691  12.133
58896W        W31321  28.344  35.046  13.688
58897W        W31322  21.037  40.497  11.827
58898W        W31323  28.419  21.723   4.877
58899W        W31324  29.483  42.408  14.737
58900W        W31325  12.179  18.880   3.631
58901W        W31326   7.613  44.994  12.922
58902W        W31327  28.485  42.824  14.530
58903W        W31328  34.827  22.504  13.391
58904W        W31329   3.714  22.209   3.363
58905W        W31330   0.664  33.745  10.920
58906W        W31331  32.472  22.256  10.397
58907W        W31332  28.238  40.593  14.248
58908W        W31333   2.240  44.268   1.408
58909W        W31334  20.645  12.637   1.795
58910W        W31335  13.339   2.706  10.678
58911W        W31336  28.635  25.793  14.369
58912W        W31337  42.759  36.132   1.071
58913W        W31338   1.946  41.819   3.250
58914W        W31339  19.057  13.787   4.552
58915W        W31340  29.533  26.262   1.774
58916W        W31341  11.639  27.092   4.494
58917W        W31342  41.881   4.111  14.743
58918W        W31343  31.718   2.125   1.363
58919W        W31344  38.173  28.042   0.858
58920W        W31345  19.147  17.259   5.109
58921W        W31346  41.428  15.590  14.418
58922W        W31347  38.801  23.487   2.212
58923W        W31348   0.444   1.019   4.297
58924W        W31349   2.004  23.839   2.314
58925W        W31350  44.657  35.275  11.455
58926W        W31351  29.920  16.539  12.061
58927W        W31352  27.267  38.501  11.485
58928W        W31353  10.848  25.919  12.468
58929W        W31354  17.641  20.509   3.673
58930W        W31355   7.443  32.575   4.630
58931W        W31356   2.349  23.613   3.667
58932W        W31357  28.045  22.002   4.101
58933W        W31358   1.697  42.302   3.157
58934W        W31359  19.702  29.643   2.721
58935W        W31360  36.909  36.111   1.040
58936W        W31361  39.422   5.466   2.634
58937W        W31362   9.177  43.842   0.884
58938W        W31363  15.767  29.383  10.811
58939W        W31364   5.420  34.595   0.413
58940W        W31365  42.581  11.744   2.445
58941W        W31366   1.320  44.103  14.304
58942W        W31367   0.296  20.425  13.804
58943W        W31368   9.186  35.102   4.789
58944W        W31369  25.190  27.075   0.940
58945W        W31370  16.773  36.839   2.024
58946W        W31371   1.231  24.933  12.581
58947W        W31372  24.107  28.960   2.271
58948W        W31373   9.146  23.747   4.715
58949W        W31374  13.876   7.779   2.270
58950W        W31375  25.167  13.075   3.709
58951W        W31376  31.667  24.026   1.846
58952W        W31377  30.089  30.772   3.952
58953W        W31378   1.188  42.463   3.067
58954W        W31379  34.974  15.645  13.407
58955W        W31380  29.192   0.937  13.787
58956W        W31381  21.356  15.109  14.395
58957W        W31382  14.777  15.037  14.693
58958W        W31383  29.522  30.222   3.078
58959W        W31384   7.773   0.985  11.164
58960W        W31385   6.922  11.711   3.131
58961W        W31386  27.535  23.188   0.465
58962W        W31387  39.592  31.657  14.911
58963W        W31388   4.210   7.430  13.330
58964W        W31389  13.074   5.152  13.261
58965W        W31390   5.294  11.611   4.053
58966W        W31391  22.052  30.094  11.367
58967W        W31392  15.111   3.803   4.297
58968W        W31393   3.418  13.616   4.122
58969W        W31394  39.885  24.700   4.067
58970W        W31395  17.227  36.393   3.152
58971W        W31396  33.953  44.037   3.093
58972W        W31397  20.044  11.380   1.601
58973W        W31398   2.447   6.770   3.186
58974W        W31399   4.235  19.231  13.807
58975W        W31400  21.584   0.965   3.192
58976W        W31401   1.024  12.220  10.716
58977W        W31402  18.087  43.300  13.434
58978W        W31403  22.171   3.013   1.844
58979W        W31404  34.003  15.551   1.658
58980W        W31405  38.497  12.070  14.753
58981W        W31406  20.503  22.811  14.571
58982W        W31407  30.872  21.126  11.590
58983W        W31408  36.342   3.996   0.830
58984W        W31409  36.608  39.719  13.947
58985W        W31410  14.780  23.665  10.207
58986W        W31411  18.636  30.482  13.857
58987W        W31412  31.618  44.527  14.067
58988W        W31413  43.497   1.049   3.176
58989W        W31414  21.554  40.252   3.800
58990W        W31415  42.365  12.001  14.487
58991W        W31416   4.139  42.782   3.240
58992W        W31417  31.431  41.811  14.971
58993W        W31418  24.545  18.321   3.825
58994W        W31419  23.040  26.517  14.439
58995W        W31420   8.435  24.123  14.500
58996W        W31421   8.909  28.794  11.800
58997W        W31422   6.931  34.594   3.705
58998W        W31423   9.912  12.245   2.725
58999W        W31424  35.205   9.499  14.850
59000W        W31425  18.554  37.889  13.912
59001W        W31426  33.662  43.674   1.625
59002W        W31427   5.913  10.379   1.841
59003W        W31428   7.951  14.270  12.908
59004W        W31429  21.555   9.950  10.284
59005W        W31430   5.975  37.934  11.991
59006W        W31431  20.706  32.339  11.194
59007W        W31432  11.053  33.784   4.098
59008W        W31433   4.805   2.259  13.987
59009W        W31434  35.315   3.903  12.038
59010W        W31435  41.097  36.147  12.993
59011W        W31436  26.961   2.618  14.863
59012W        W31437   2.011  29.608   0.502
59013W        W31438  32.217  12.351  14.600
59014W        W31439  43.406  35.097  14.137
59015W        W31440  28.034  23.278  12.487
59016W        W31441  13.393  39.873  14.427
59017W        W31442  13.761  32.988   3.278
59018W        W31443  22.904   8.846   4.546
59019W        W31444  15.135  39.908  10.615
59020W        W31445   0.725  21.669  11.699
59021W        W31446   0.454  21.674  11.028
59022W        W31447  14.956  17.235  11.459
59023W        W31448  16.818  27.176   2.750
59024W        W31449  14.135   5.260  10.422
59025W        W31450  34.501  21.543   2.833
59026W        W31451   2.718  39.729   2.330
59027W        W31452  28.284  37.380  12.433
59028W        W31453  29.886  22.756   2.214
59029W        W31454  24.725   9.389  12.957
59030W        W31455  31.532  16.844  12.932
59031W        W31456  17.404   5.568   2.022
59032W        W31457  39.387  42.833   0.776
59033W        W31458  36.853  40.767   0.392
59034W        W31459  14.520  40.744  10.982
59035W        W31460  29.934  32.910   0.675
59036W        W31461  41.384   1.507   1.452
59037W        W31462  34.947  29.872  13.885
59038W        W31463  36.587  38.786  11.508
59039W        W31464   3.651  15.352  10.922
59040W        W31465  18.799  27.075  10.933
59041W        W31466  31.032  34.626  11.736
59042W        W31467  43.187  28.979  10.597
59043W        W31468   1.930  18.499  10.658
59044W        W31469  39.286   3.141  13.438
59045W        W31470   1.169   2.688   1.780
59046W        W31471  15.700  41.370   3.654
59047W        W31472  34.681  40.672   1.908
59048W        W31473  13.334   4.126  12.491
59049W        W31474  19.222  22.100  13.727
59050W        W31475  41.973   9.217  14.766
59051W        W31476   8.880  41.037  11.426
59052W        W31477  28.641  35.403   3.705
59053W        W31478  21.122  34.842  13.184
59054W        W31479  43.509  16.474   2.307
59055W        W31480  32.854  10.087  13.303
59056W        W31481  34.439  38.728  14.887
59057W        W31482  22.725  13.814   4.768
59058W        W31483   6.254  31.760   1.652
59059W        W31484  29.555  34.772   2.002
59060W        W31485   4.764  19.520   3.211
59061W        W31486  25.648  16.088   4.651
59062W        W31487  19.182  36.293   0.445
59063W        W31488  27.638  12.829  11.953
59064W        W31489  42.327  40.510  13.987
59065W        W31490  19.118  29.904  12.385
59066W        W31491  24.566  20.981   0.809
59067W        W31492  16.409   2.535   5.552
59068W        W31493  21.594  35.075  14.451
59069W        W31494  24.504  36.584   1.150
59070W        W31495  43.311  41.497   1.323
59071W        W31496  44.244  18.562  14.494
59072W        W31497  19.776  10.653   2.599
59073W        W31498  12.528  37.179   2.106
59074W        W31499  25.377   5.388   4.788
59075W        W31500   4.827  16.807   3.351
59076W        W31501  24.590   8.166   9.699
59077W        W31502   8.691  38.563   3.304
59078W        W31503  23.145  29.005  10.776
59079W        W31504  35.814   9.837  13.176
59080W        W31505  42.741  12.329   1.414
59081W        W31506  38.075  12.171  10.364
59082W        W31507  23.893  20.266   2.363
59083W        W31508  13.819  36.647   1.214
59084W        W31509  43.764   2.869   3.830
59085W        W31510   5.272  20.979   0.158
59086W        W31511  33.151  22.911   1.687
59087W        W31512  30.023  31.711   5.208
59088W        W31513   1.558  15.287   0.582
59089W        W31514  29.063  40.837  14.716
59090W        W31515   7.383   5.930   0.935
59091W        W31516  39.257  16.205  11.638
59092W        W31517  20.025  44.701  14.414
59093W        W31518  15.251   3.142  10.736
59094W        W31519  31.818  16.242   1.257
59095W        W31520  14.867   0.957   5.659
59096W        W31521  36.411  17.647   3.664
59097W        W31522  32.818   6.895  14.999
59098W        W31523   9.311  39.001  13.876
59099W        W31524  29.728   5.745  12.124
59100W        W31525  26.671   8.881   1.191
59101W        W31526  36.627  36.673  12.501
59102W        W31527  21.070  20.207  13.338
59103W        W31528  34.111   6.400   1.372
59104W        W31529  26.558  26.224   3.693
59105W        W31530  25.698  27.227   4.160
59106W        W31531  36.324  32.010   4.560
59107W        W31532  17.201  20.431  12.918
59108W        W31533  42.809  42.918  13.981
59109W        W31534  37.843  37.066   0.115
59110W        W31535  22.502  17.122   4.638
59111W        W31536  24.554   2.341   1.292
59112W        W31537  35.939   1.093   3.660
59113W        W31538  35.455  37.172  11.131
59114W        W31539  17.563  41.970  14.398
59115W        W31540  13.310  43.446   2.192
59116W        W31541  38.321  42.723  14.804
59117W        W31542  23.814   4.986   1.277
59118W        W31543  33.288  15.852  12.700
59119W        W31544  44.709  20.978   1.335
59120W        W31545  10.952  41.372   2.718
59121W        W31546  44.023  25.761   3.503
59122W        W31547  12.374   1.007   3.408
59123W        W31548  25.803   9.223   1.302
59124W        W31549  19.212  31.495   3.241
59125W        W31550  24.707   1.244   4.543
59126W        W31551  37.110   6.682  13.374
59127W        W31552   7.776   7.625   5.314
59128W        W31553   8.676  23.236  13.849
59129W        W31554  12.064   3.384   0.965
59130W        W31555   2.277  22.404  11.544
59131W        W31556  12.350   5.452  11.124
59132W        W31557  26.798  13.246  12.005
59133W        W31558  37.003  34.135   2.321
59134W        W31559  11.177  32.589  13.260
59135W        W31560  28.163  26.520   1.581
59136W        W31561   8.288  24.984  10.751
59137W        W31562  25.264   6.026   0.944
59138W        W31563  20.778  23.252  14.438
59139W        W31564   8.449   0.959   4.662
59140W        W31565  32.418  12.831  13.888
59141W        W31566  31.800  21.355   3.461
59142W        W31567  33.929  31.486  11.629
59143W        W31568  44.476  18.998  14.787
59144W        W31569  18.312   1.015   2.899
59145W        W31570  16.487  41.012   4.241
59146W        W31571  11.573  11.379   3.671
59147W        W31572  25.233  36.939  12.016
59148W        W31573  12.695  41.382   2.280
59149W        W31574   8.094  12.091   3.187
59150W        W31575  33.843  19.012  12.522
59151W        W31576  17.218  14.556  10.707
59152W        W31577   3.501  32.164   4.098
59153W        W31578  12.319   6.783   2.682
59154W        W31579  21.684  19.266  12.116
59155W        W31580  37.504  44.376  13.206
59156W        W31581  30.853  16.693  10.226
59157W        W31582  23.538  12.702   1.869
59158W        W31583  13.116  35.097   2.611
59159W        W31584   9.801  24.748  13.370
59160W        W31585  40.544  28.041  13.396
59161W        W31586  28.588  15.350  12.014
59162W        W31587  40.191  32.150   4.553
59163W        W31588  15.873  41.108  13.910
59164W        W31589  28.375  34.149   5.149
59165W        W31590  29.645  35.402  14.770
59166W        W31591   0.273   2.365  11.079
59167W        W31592  35.913  24.005  10.960
59168W        W31593   0.315  26.418  14.757
59169W        W31594   5.765   6.302  12.260
59170W        W31595  37.254  39.321  12.547
59171W        W31596  15.597  40.443   1.658
59172W        W31597  44.978  39.114  14.748
59173W        W31598   8.665   5.524  11.854
59174W        W31599   1.145  21.495  13.885
59175W        W31600   4.305   3.854  14.332
59176W        W31601  27.082  44.411  10.203
59177W        W31602  39.711  39.932   4.070
59178W        W31603  29.904  42.346  10.654
59179W        W31604  35.002   5.891   0.527
59180W        W31605   4.841   4.695  11.481
59181W        W31606  36.653  38.655   0.777
59182W        W31607   9.731   3.241  11.582
59183W        W31608  39.095  29.996  14.275
59184W        W31609  15.312  11.695   4.573
59185W        W31610  38.549  17.818  10.867
59186W        W31611  43.303  13.291  12.941
59187W        W31612  39.608   2.359   3.672
59188W        W31613  38.070  36.097   0.966
59189W        W31614  32.838  32.466  12.902
59190W        W31615   1.613  26.976  12.121
59191W        W31616  16.130  15.142   3.787
59192W        W31617   4.626  13.223   1.162
59193W        W31618   9.995   6.367   1.394
59194W        W31619  25.424   8.195  11.206
59195W        W31620   6.777  32.026   4.220
59196W        W31621  42.393   3.873   1.023
59197W        W31622  22.554  11.953  12.124
59198W        W31623  26.414  10.515  11.489
59199W        W31624  19.108  26.724  13.022
59200W        W31625   3.185  39.938   2.256
59201W        W31626   0.624  27.225  11.945
59202W        W31627  34.461  33.080   3.690
59203W        W31628  28.616  19.692   4.498
59204W        W31629  40.898  29.458  14.411
59205W        W31630   8.152  26.732  13.518
59206W        W31631   7.141  42.793   9.893
59207W        W31632  32.768  21.092   3.702
59208W        W31633  21.195  30.598  11.654
59209W        W31634  15.685  20.816  13.475
59210W        W31635  26.190  19.668  11.121
59211W        W31636   5.378  42.537  12.947
59212W        W31637  21.130  22.044  10.139
59213W        W31638  11.075  10.022   1.838
59214W        W31639  41.956  16.232   1.624
59215W        W31640  24.280  27.872  13.104
59216W        W31641  37.841  42.343   1.494
59217W        W31642  28.135  41.205  13.536
59218W        W31643  28.200  23.946   4.177
59219W        W31644  19.000  13.298   2.672
59220W        W31645  15.108  21.475  12.161
59221W        W31646  36.463  39.432  12.904
59222W        W31647   9.876   9.641   0.865
59223W        W31648  33.059  25.001   1.815
59224W        W31649  11.175   3.911  12.135
59225W        W31650  35.957  18.504   4.088
59226W        W31651  26.209  11.054   4.157
59227W        W31652  16.132   0.382  10.688
59228W        W31653  27.770  29.613  11.616
59229W        W31654   4.463  37.522   3.426
59230W        W31655   5.780  15.225   2.926
59231W        W31656   6.931  18.722  14.319
59232W        W31657  36.494  15.762  13.941
59233W        W31658  12.590  22.358  12.362
59234W        W31659   1.306   8.219   1.836
59235W        W31660  38.336  37.800  11.171
59236W        W31661  43.560  34.016  10.678
59237W        W31662  26.930  38.109   0.976
59238W        W31663   6.205   8.828  14.229
59239W        W31664  23.452  12.203  14.992
59240W        W31665  20.724  39.187  14.598
59241W        W31666   6.059  17.995  12.636
59242W        W31667  28.561  26.638   2.876
59243W        W31668  22.689  30.834  14.701
59244W        W31669  32.145  23.553   0.271
59245W        W31670  23.362   4.556   3.248
59246W        W31671  27.499   5.419   1.487
59247W        W31672   0.932  23.325   1.562
59248W        W31673   9.499  24.110   4.776
59249W        W31674  38.337  44.490  12.502
59250W        W31675  14.670  22.804  11.064
59251W        W31676  28.605  14.818   0.510
59252W        W31677  22.685  31.547   0.487
59253W        W31678  33.415  12.763  11.551
59254W        W31679   4.499   8.457  14.460
59255W        W31680  23.136  32.325  12.260
59256W        W31681  20.555  15.731   2.325
59257W        W31682  22.550  21.978   1.654
59258W        W31683  26.102  10.607  14.112
59259W        W31684  41.362   4.254  14.836
59260W        W31685   5.185   6.472  10.689
59261W        W31686  31.955  36.137   3.245
59262W        W31687   6.637  12.266  12.536
59263W        W31688  43.183  10.410   2.914
59264W        W31689  12.637   5.183  12.992
59265W        W31690  40.058  11.123  12.337
59266W        W31691  30.983   1.443   1.446
59267W        W31692  34.653   2.392  13.047
59268W        W31693   0.268  33.036  13.794
59269W        W31694  17.175  26.571  10.930
59270W        W31695  26.566  15.468   5.002
59271W        W31696  18.933  32.400   0.062
59272W        W31697   3.261   8.588   4.579
59273W        W31698  22.729  24.770   1.455
59274W        W31699  31.532  42.599   3.323
59275W        W31700  10.640  37.460   0.249
59276W        W31701  20.509  44.818  12.140
59277W        W31702  30.044  37.632  12.880
59278W        W31703   8.779  29.153   2.907
59279W        W31704  36.323  25.519   1.911
59280W        W31705  24.221  27.510  12.445
59281W        W31706   2.027   2.892  12.920
59282W        W31707  43.228   9.326   3.867
59283W        W31708  32.610  17.676  10.500
59284W        W31709   1.185  39.012  14.389
59285W        W31710  38.910   9.138   3.690
59286W        W31711  25.007  23.646   0.320
59287W        W31712  20.153   0.803  11.240
59288W        W31713  34.351  14.210  12.678
59289W        W31714  29.397  39.619   4.189
59290W        W31715   8.180   9.022   4.710
59291W        W31716  20.600  17.037   1.891
59292W        W31717   7.443   4.896  10.771
59293W        W31718  42.815  43.290   2.310
59294W        W31719  23.704   4.468  12.909
59295W        W31720   1.233  33.536  10.766
59296W        W31721   3.354  38.416   0.048
59297W        W31722  27.706  10.111  11.933
59298W        W31723  27.391   6.058   4.640
59299W        W31724  20.313  26.323   1.865
59300W        W31725  23.016  34.642   2.791
59301W        W31726  43.908  42.368   3.853
59302W        W31727  31.228   1.965  13.988
59303W        W31728  36.539  42.802  12.091
59304W        W31729   7.099  29.006   4.195
59305W        W31730  38.780  18.576   0.914
59306W        W31731  19.476   1.358  12.355
59307W        W31732  15.280  21.249   2.864
59308W        W31733  41.048  11.625  14.603
59309W        W31734  20.619  19.576   0.011
59310W        W31735  10.821  34.513  11.965
59311W        W31736   8.670  23.755   2.618
59312W        W31737  30.989  44.195   3.791
59313W        W31738  24.415   4.935  13.993
59314W        W31739  17.853  31.016  10.475
59315W        W31740  16.695   0.018   0.774
59316W        W31741  28.130  35.925   3.323
59317W        W31742   0.758   0.346   4.635
59318W        W31743  21.494  15.987   2.256
59319W        W31744  19.497  36.981  12.682
59320W        W31745  16.091   8.952  11.062
59321W        W31746  39.558  14.811   1.092
59322W        W31747  36.456  18.357   4.173
59323W        W31748  42.512  32.224   1.787
59324W        W31749  38.137  34.035   1.324
59325W        W31750  30.997   1.319  12.338
59326W        W31751  27.652   5.086   3.713
59327W        W31752  28.677  40.949   1.824
59328W        W31753  18.660  10.270  13.628
59329W        W31754  41.742  24.400   0.311
59330W        W31755  35.343  12.654   3.502
59331W        W31756   3.062   3.187  13.224
59332W        W31757  22.287   8.227   0.964
59333W        W31758   9.194  31.432  12.218
59334W        W31759  34.174  40.400   1.086
59335W        W31760   5.017  23.235  13.469
59336W        W31761   2.461  27.706  14.357
59337W        W31762  30.529  24.083  12.784
59338W        W31763   3.853  37.892   2.809
59339W        W31764  33.030  43.320   1.836
59340W        W31765  42.985  26.719   0.650
59341W        W31766  17.140  18.351  11.191
59342W        W31767  26.678  40.615  13.899
59343W        W31768  14.810   0.646  12.988
59344W        W31769  31.003  37.602  13.409
59345W        W31770  40.892  10.847   2.292
59346W        W31771   6.908  25.204  12.186
59347W        W31772   2.859   9.225  11.980
59348W        W31773  13.117  30.208   0.256
59349W        W31774   7.475   3.776  11.947
59350W        W31775  16.760   1.538  11.937
59351W        W31776  39.926   6.191   0.898
59352W        W31777  37.510  27.493  14.792
59353W        W31778   9.701  32.566  10.588
59354W        W31779  18.369   6.306  11.678
59355W        W31780  27.522  23.463  11.184
59356W        W31781  39.777  35.837   3.193
59357W        W31782  30.532  37.892  12.858
59358W        W31783  17.052  14.456  11.954
59359W        W31784  24.141  39.287   2.777
59360W        W31785   6.295  31.069   1.071
59361W        W31786   7.163  27.463   4.745
59362W        W31787   8.103  17.489   4.062
59363W        W31788  15.474  25.072   4.852
59364W        W31789  27.516  44.475   2.613
59365W        W31790  20.006  31.045  10.004
59366W        W31791   1.978  43.357  12.534
59367W        W31792   9.270  34.356  11.668
59368W        W31793  13.797  33.419  11.904
59369W        W31794  40.132   9.328  14.381
59370W        W31795  36.271  39.372   9.954
59371W        W31796  40.447  20.845   2.815
59372W        W31797   1.643   4.927  14.738
59373W        W31798  15.586  39.067   2.268
59374W        W31799   5.705  27.477   4.128
59375W        W31800  42.452   0.688  11.163
59376W        W31801  36.519  23.747  13.421
59377W        W31802   7.198  28.558   3.283
59378W        W31803  34.403  13.540  13.065
59379W        W31804   9.775  30.398   0.927
59380W        W31805   6.745  39.917   2.721
59381W        W31806   6.360   9.284  14.507
59382W        W31807   0.531  36.543   1.880
59383W        W31808  30.371  24.145   3.169
59384W        W31809  31.931  21.468   2.149
59385W        W31810   9.581   2.873   4.272
59386W        W31811  25.058  27.638   2.419
59387W        W31812  42.425  36.970   0.454
59388W        W31813  33.465  40.040  11.239
59389W        W31814  43.326  26.666  13.917
59390W        W31815  18.559   4.759   1.870
59391W        W31816  20.970  29.044  13.989
59392W        W31817  34.406  35.491  11.802
59393W        W31818  40.425  31.037  14.930
59394W        W31819  23.060  12.931  13.358
59395W        W31820   0.901  43.909   1.390
59396W        W31821  22.268  14.212   0.466
59397W        W31822  22.048  41.011   4.814
59398W        W31823  36.031   5.450  12.354
59399W        W31824  35.412  17.293  14.479
59400W        W31825  35.887  39.497  13.841
59401W        W31826  14.392  18.731   1.339
59402W        W31827  30.503  32.472   1.243
59403W        W31828  34.385   7.886  12.025
59404W        W31829  40.424   4.358   2.708
59405W        W31830  28.025  23.072   4.340
59406W        W31831  21.692  32.888   1.678
59407W        W31832  24.927  36.547   2.991
59408W        W31833  34.886  43.288   3.974
59409W        W31834  13.422  19.095  11.492
59410W        W31835   3.985  10.245  11.233
59411W        W31836   7.776  38.867  10.207
59412W        W31837  27.736  20.654  13.908
59413W        W31838  24.053   3.263   1.089
59414W        W31839  14.692   4.184   0.816
59415W        W31840  33.514  36.408  14.012
59416W        W31841  13.326  23.081   1.903
59417W        W31842  37.497  43.892  11.053
59418W        W31843  33.125  16.751   1.933
59419W        W31844  33.451  44.673  13.281
59420W        W31845  15.655  19.719  14.952
59421W        W31846   7.781  29.699   1.128
59422W        W31847  33.602  23.760   4.160
59423W        W31848  31.371  42.892  13.344
59424W        W31849  12.143  36.412   0.350
59425W        W31850  21.600  41.288   4.903
59426W        W31851  11.623  43.871  12.669
59427W        W31852   4.161  16.337   1.325
59428W        W31853  18.570  42.369  10.689
59429W        W31854  39.785   7.849   2.845
59430W        W31855  21.472  39.878   1.363
59431W        W31856  23.025  27.229  10.671
59432W        W31857  36.702  32.486  14.746
59433W        W31858  31.425  43.360  14.553
59434W        W31859   0.431   2.677  12.614
59435W        W31860  41.389  40.075   4.647
59436W        W31861  22.959  27.404  11.929
59437W        W31862  30.002  35.815  13.405
59438W        W31863  22.322  39.817  10.575
59439W        W31864  13.077   7.196   2.873
59440W        W31865  39.867  32.771  14.316
59441W        W31866   3.271  13.059   4.822
59442W        W31867  36.211  16.095  14.770
59443W        W31868  36.936   0.628   2.799
59444W        W31869   0.699  41.616   1.227
59445W        W31870   6.001  18.241   0.986
59446W        W31871   2.357  42.589   2.309
59447W        W31872   5.689  43.415  14.518
59448W        W31873  32.632   2.885   4.765
59449W        W31874  20.252   7.220  14.475
59450W        W31875  20.236  25.690  11.516
59451W        W31876  30.052   7.538  14.486
59452W        W31877  14.047  31.991   4.686
59453W        W31878  14.169  23.407   3.604
59454W        W31879  24.051  33.316  11.093
59455W        W31880  21.685  44.512   1.840
59456W        W31881  29.905  22.643   1.331
59457W        W31882  11.254  43.419   0.992
59458W        W31883  41.443  41.084   4.505
59459W        W31884  41.246   4.744  14.832
59460W        W31885   5.926  11.933  13.518
59461W        W31886   1.311  36.141  12.168
59462W        W31887  25.590   9.872   0.181
59463W        W31888  18.251   8.951  12.912
59464W        W31889  31.889   3.205  11.188
59465W        W31890  20.135  43.929  14.557
59466W        W31891  17.972  19.773  11.133
59467W        W31892  40.567  10.980   1.847
59468W        W31893  10.121  40.591   0.386
59469W        W31894  34.109  39.344  13.401
59470W        W31895  17.777  43.216   0.387
59471W        W31896  40.608   8.324   3.372
59472W        W31897  42.017  29.926  14.583
59473W        W31898  17.766  38.068   2.513
59474W        W31899   9.848  19.101  12.893
59475W        W31900  13.275   3.878   0.002
59476W        W31901  43.645  17.621   1.267
59477W        W31902   8.077  26.999   2.801
59478W        W31903  28.959  32.618   2.356
59479W        W31904  40.420  28.603  11.288
59480W        W31905  11.680   9.897   0.001
59481W        W31906  30.572  13.261   2.772
59482W        W31907  32.654  33.069  11.228
59483W        W31908  30.946   7.657  10.931
59484W        W31909  24.026  38.232  11.538
59485W        W31910  27.232  17.294   0.217
59486W        W31911   3.452  37.096  13.720
59487W        W31912  42.816   2.817  12.974
59488W        W31913   4.237  21.264   3.366
59489W        W31914  38.514   6.236   3.457
59490W        W31915  21.007   1.821   2.295
59491W        W31916   5.920  37.626  12.466
59492W        W31917  17.935  31.470   3.080
59493W        W31918  16.049  27.155   3.270
59494W        W31919  19.127  33.074   1.679
59495W        W31920  18.218  39.105  12.335
59496W        W31921  43.409  22.002  11.700
59497W        W31922  36.457   9.731   4.277
59498W        W31923  13.660  19.286   4.432
59499W        W31924  34.159  17.190   2.393
59500W        W31925  23.638  24.306   1.465
59501W        W31926  15.718   7.083  14.938
59502W        W31927  13.648   1.959   3.716
59503W        W31928  10.148   9.355  11.948
59504W        W31929  36.741  27.178  11.450
59505W        W31930  31.521  39.355   3.346
59506W        W31931  34.095   1.398   4.239
59507W        W31932  16.026  27.135   4.216
59508W        W31933  31.163   8.051   3.202
59509W        W31934  36.971  20.348  12.832
59510W        W31935  17.270   1.555   4.273
59511W        W31936  30.864  17.128   3.318
59512W        W31937  34.041  30.031   2.668
59513W        W31938  17.279   7.405   3.649
59514W        W31939  20.417  37.204   0.818
59515W        W31940  13.150  19.783  10.879
59516W        W31941  33.089   9.269   2.925
59517W        W31942  33.604  30.693   0.381
59518W        W31943  14.868  28.150   4.547
59519W        W31944  41.598   5.162  14.832
59520W        W31945   3.967   7.673  10.786
59521W        W31946  33.989  38.839  13.547
59522W        W31947  25.193  19.695  10.973
59523W        W31948  29.938   9.821  11.361
59524W        W31949  21.247  30.149  11.379
59525W        W31950  25.129   2.373   0.593
59526W        W31951  23.795  43.994   2.313
59527W        W31952  20.285  18.991  12.513
59528W        W31953  36.490  15.358  12.173
59529W        W31954  34.164  41.510  11.067
59530W        W31955  20.853  24.059   3.716
59531W        W31956  36.054   7.010  13.877
59532W        W31957  20.132  15.089  13.881
59533W        W31958   7.880  20.844  11.931
59534W        W31959  23.279  27.955  11.599
59535W        W31960  30.831  44.748   1.234
59536W        W31961  11.973  20.105   2.357
59537W        W31962   0.736  38.325  12.687
59538W        W31963   0.298  40.002   4.683
59539W        W31964  13.846  19.271  11.720
59540W        W31965  24.721  29.971  12.956
59541W        W31966  33.903  29.652   4.476
59542W        W31967  25.768  33.380   4.064
59543W        W31968  40.188  36.595  12.936
59544W        W31969  29.560  21.951   4.776
59545W        W31970   7.341   7.478  13.791
59546W        W31971  30.187  35.772   2.791
59547W        W31972  14.023  32.004   1.715
59548W        W31973   9.358   3.789  14.875
59549W        W31974  32.780   7.656   0.817
59550W        W31975  43.895  39.597   3.229
59551W        W31976  41.220  16.167  14.863
59552W        W31977   3.398  44.012   1.395
59553W        W31978  12.626   3.135   1.780
59554W        W31979  33.717  29.198   4.577
59555W        W31980  21.762  12.038  10.689
59556W        W31981  33.482  15.381  12.476
59557W        W31982  30.573  40.092  12.931
59558W        W31983  37.531  11.696  14.771
59559W        W31984  26.664   3.346   3.291
59560W        W31985   4.405   4.962   1.728
59561W        W31986  31.803  39.618  14.836
59562W        W31987   5.263  21.491   0.206
59563W        W31988  26.267   8.242  13.087
59564W        W31989  29.517  38.911   1.475
59565W        W31990   4.214  39.890  14.859
59566W        W31991  30.983  40.346  12.542
59567W        W31992   7.388  37.201  12.622
59568W        W31993  38.124  44.414   0.468
59569W        W31994  42.942  40.826   1.805
59570W        W31995   7.213  14.110   5.156
59571W        W31996  11.264   4.509  13.980
59572W        W31997  28.111   4.160  10.738
59573W        W31998  29.975  15.563  11.058
59574W        W31999  35.345  11.134  12.876
59575W        W32000  41.892   5.158  12.788
59576W        W32001  31.704  25.525   1.282
59577W        W32002  12.910  15.614   3.808
59578W        W32003   6.224  44.910  11.581
59579W        W32004  36.715  29.677  14.937
59580W        W32005   0.865   3.804  12.841
59581W        W32006  21.335   4.210   3.318
59582W        W32007  20.293  26.168  13.376
59583W        W32008  10.687  20.583   0.990
59584W        W32009  43.920   2.315  10.750
59585W        W32010  31.308   9.268   4.025
59586W        W32011  25.780  21.379   4.392
59587W        W32012  20.932  20.532   4.117
59588W        W32013  40.838  42.114  11.737
59589W        W32014  41.078  22.541  11.494
59590W        W32015   6.622  44.903   2.763
59591W        W32016  34.501   5.980  10.779
59592W        W32017  27.050  39.085  12.052
59593W        W32018  36.040   6.980   0.503
59594W        W32019  38.378  39.372  14.196
59595W        W32020   1.274   7.437   4.110
59596W        W32021  19.302   0.312   5.596
59597W        W32022  12.552   6.788  14.316
59598W        W32023  29.644  33.852  12.397
59599W        W32024  14.362   0.834  13.392
59600W        W32025  24.612   3.709   4.938
59601W        W32026  36.053   0.082   2.664
59602W        W32027  17.827  20.999  11.448
59603W        W32028  23.636  21.777  10.676
59604W        W32029  35.425  40.343  11.089
59605W        W32030   2.783  21.212  13.801
59606W        W32031  16.722  20.579   2.383
59607W        W32032   4.124  29.632   2.227
59608W        W32033   7.848  16.880  12.497
59609W        W32034  26.190  23.534  14.735
59610W        W32035  12.700  20.664   4.112
59611W        W32036  21.655   0.991  12.604
59612W        W32037  44.820  25.211   4.127
59613W        W32038  11.570  25.055   3.733
59614W        W32039  35.421  13.491  11.532
59615W        W32040  42.305  25.716   1.488
59616W        W32041  25.369   9.128  11.103
59617W        W32042  21.605  22.739   3.370
59618W        W32043   2.529   7.177  14.731
59619W        W32044  19.844   7.891  12.900
59620W        W32045  24.243  32.730  11.971
59621W        W32046  19.645  44.955   2.273
59622W        W32047  16.219   0.225   3.755
59623W        W32048  10.825  18.958   4.145
59624W        W32049  23.299   8.313   2.682
59625W        W32050  35.582  12.160  13.560
59626W        W32051  13.134   9.801   2.375
59627W        W32052  15.853  18.230  10.740
59628W        W32053  22.192  37.304   4.581
59629W        W32054   2.226  32.429   3.547
59630W        W32055  31.399   9.853  10.951
59631W        W32056  42.107   5.849   0.243
59632W        W32057  25.734  41.289   4.071
59633W        W32058  40.017  39.027  13.153
59634W        W32059  15.199   0.227  10.739
59635W        W32060   3.239  25.041  12.551
59636W        W32061  44.977   7.726   1.685
59637W        W32062  10.677  25.452   2.409
59638W        W32063  41.287  25.414   2.925
59639W        W32064  37.494   2.640  12.049
59640W        W32065  31.010  30.117  14.458
59641W        W32066  33.949  18.111   0.129
59642W        W32067   4.608   9.628   2.200
59643W        W32068  41.491  36.323   2.473
59644W        W32069  41.016  29.589  10.622
59645W        W32070   8.739  25.111  11.404
59646W        W32071   9.923   4.170   4.633
59647W        W32072  34.504  27.230  11.150
59648W        W32073  44.859  30.603   1.300
59649W        W32074   9.195  25.522   3.862
59650W        W32075   2.014  43.794  12.241
59651W        W32076   7.968  12.376  14.376
59652W        W32077  25.884   0.833   0.286
59653W        W32078  33.597  23.177   2.923
59654W        W32079  27.558  25.423   0.039
59655W        W32080  39.812   7.956  14.318
59656W        W32081  27.997  36.054   0.933
59657W        W32082  42.325  25.802  12.949
59658W        W32083  39.234  12.896   1.011
59659W        W32084  14.618  36.086  12.533
59660W        W32085  37.474  35.941  14.280
59661W        W32086  25.476  41.199  14.812
59662W        W32087  40.994  13.621  13.786
59663W        W32088   2.353  25.133   2.230
59664W        W32089  42.036  39.830  12.198
59665W        W32090  16.154  15.589  14.934
59666W        W32091  11.192  14.639   2.868
59667W        W32092  26.439  43.287   9.976
59668W        W32093  29.535   1.392  14.959
59669W        W32094  37.117   3.852  12.433
59670W        W32095  25.425   6.945  11.641
59671W        W32096  12.425  29.513  13.912
59672W        W32097   4.700  13.679   4.326
59673W        W32098  40.338   8.021   4.535
59674W        W32099  26.603  34.655   2.780
59675W        W32100   0.965  32.386  12.390
59676W        W32101  10.115   6.287  13.804
59677W        W32102  17.157  26.010   5.056
59678W        W32103  44.779  40.950   4.886
59679W        W32104  17.042   6.702   0.784
59680W        W32105  27.105  21.749   1.825
59681W        W32106  13.754  22.011   4.307
59682W        W32107  21.465   2.321  13.936
59683W        W32108   6.968  33.537  11.687
59684W        W32109  35.994   9.575   1.287
59685W        W32110  32.850   8.828  13.349
59686W        W32111  26.518   2.469   4.298
59687W        W32112  27.626  41.465   3.786
59688W        W32113   9.586  37.613  11.479
59689W        W32114   4.159  23.831  11.151
59690W        W32115  25.607  29.704  10.709
59691W        W32116   5.387  31.783   2.619
59692W        W32117  40.559  40.031   2.409
59693W        W32118  26.003  27.575   2.069
59694W        W32119   3.009  10.321  11.028
59695W        W32120  22.498   7.980  12.391
59696W        W32121  27.890  36.183  12.463
59697W        W32122  18.650   6.288   0.722
59698W        W32123  19.519   3.273  12.561
59699W        W32124  44.552  30.408   3.101
59700W        W32125  40.916  12.734   4.930
59701W        W32126  23.600  15.820  14.005
59702W        W32127   1.523  20.060   3.672
59703W        W32128   1.735  35.371   3.336
59704W        W32129  23.846  25.000   0.794
59705W        W32130  44.247  33.907   0.689
59706W        W32131  27.553  28.139   4.597
59707W        W32132   5.309  28.238   3.929
59708W        W32133   6.232  41.346  14.361
59709W        W32134  19.233   2.780   1.422
59710W        W32135  22.142  38.006   3.863
59711W        W32136  41.403  21.573  12.059
59712W        W32137  24.921  17.240   2.750
59713W        W32138   7.338  42.404   1.896
59714W        W32139   6.882  32.058  12.691
59715W        W32140  38.350  43.801   0.728
59716W        W32141   9.755  18.607  12.894
59717W        W32142  20.452  21.859   2.227
59718W        W32143   7.799  14.184  10.595
59719W        W32144  15.799   1.418  10.359
59720W        W32145  39.402   3.348   2.693
59721W        W32146  25.647  29.141   0.692
59722W        W32147  29.653  40.398  12.997
59723W        W32148  21.573   1.984   3.286
59724W        W32149  13.826  44.512  11.885
59725W        W32150   5.810  25.840   0.037
59726W        W32151  15.352   4.391  12.414
59727W        W32152   6.761  19.779   4.509
59728W        W32153  33.327   1.634  12.327
59729W        W32154  21.725  10.360   3.360
59730W        W32155  13.878  10.895  13.464
59731W        W32156  42.311  41.435   0.038
59732W        W32157  28.669  41.455   3.716
59733W        W32158  25.101   0.070   0.768
59734W        W32159  34.318  18.820  12.485
59735W        W32160  38.076  20.397   1.886
59736W        W32161  30.609  42.135  12.795
59737W        W32162  39.133  31.215  14.102
59738W        W32163   6.357   7.389   1.258
59739W        W32164   4.118  36.593  11.861
59740W        W32165   7.725  31.068   0.523
59741W        W32166   6.454  16.708  12.870
59742W        W32167   4.409  29.642   4.306
59743W        W32168   3.815  36.171   3.047
59744W        W32169  31.188  20.035   4.203
59745W        W32170   9.310  34.076   4.716
59746W        W32171  20.222  14.313   2.711
59747W        W32172  21.315   9.300   4.230
59748W        W32173  14.863   0.914  13.408
59749W        W32174  29.687  39.322   2.881
59750W        W32175  10.837  18.917   2.370
59751W        W32176  39.726  23.937   2.275
59752W        W32177  29.075  37.840  11.139
59753W        W32178   7.916   9.305   0.271
59754W        W32179  41.911  31.637   1.286
59755W        W32180  19.279  39.264  14.038
59756W        W32181   3.208  31.592  13.184
59757W        W32182  17.183   1.428  11.214
59758W        W32183  14.227   9.889   0.514
59759W        W32184   2.767  27.674  12.156
59760W        W32185  17.942  40.766   2.747
59761W        W32186  22.962   0.384  14.241
59762W        W32187  31.059  22.526   3.934
59763W        W32188  25.063  42.121   2.727
59764W        W32189  42.936   5.962   2.290
59765W        W32190  19.709   9.314  11.606
59766W        W32191  19.234   0.181   9.861
59767W        W32192   8.196  11.362   3.201
59768W        W32193  23.411  24.016   0.815
59769W        W32194   8.746  14.742   3.703
59770W        W32195  25.958  26.210  10.690
59771W        W32196  24.025  26.081   2.193
59772W        W32197  32.175  24.861  12.492
59773W        W32198  30.775  34.245   2.134
59774W        W32199  15.285  38.635   0.680
59775W        W32200  33.218  37.793   3.333
59776W        W32201  18.640  19.198   2.149
59777W        W32202  41.413  26.461   4.097
59778W        W32203  36.999  22.254  13.067
59779W        W32204  27.921  33.488  10.356
59780W        W32205  30.880  29.662   3.712
59781W        W32206  33.675   8.911  12.237
59782W        W32207  38.137  10.266  13.415
59783W        W32208   1.404  28.731  12.466
59784W        W32209   2.609  36.251  13.511
59785W        W32210  26.931  30.938  11.669
59786W        W32211  36.663  18.268   2.433
59787W        W32212  41.468   1.202  11.866
59788W        W32213  27.567  38.565   2.958
59789W        W32214  21.201   4.683   0.956
59790W        W32215  27.493  11.796  10.815
59791W        W32216  37.567   4.482  14.920
59792W        W32217  37.516  12.243  13.573
59793W        W32218   0.791   7.653   1.869
59794W        W32219  40.424  17.287   3.255
59795W        W32220  19.752  34.316   0.014
59796W        W32221  27.727  22.191   2.880
59797W        W32222  24.477  37.017  12.517
59798W        W32223  43.920  11.680  12.339
59799W        W32224   4.775   1.412  10.734
59800W        W32225  21.549  29.941   0.858
59801W        W32226  40.944  24.992  14.658
59802W        W32227  24.390  21.500   2.822
59803W        W32228  41.927  10.648  13.613
59804W        W32229  44.743  14.757  12.362
59805W        W32230   1.738  31.534   4.108
59806W        W32231  37.380  40.065  13.532
59807W        W32232  39.837  33.313   0.916
59808W        W32233  10.183  43.413   2.241
59809W        W32234  18.238  31.877   3.282
59810W        W32235   9.151  39.759  13.576
59811W        W32236   8.474  14.327  14.234
59812W        W32237   8.199   3.409   1.468
59813W        W32238  17.872   7.399  14.487
59814W        W32239  35.571  39.512  13.408
59815W        W32240  15.860   7.834  14.355
59816W        W32241  42.471  15.887  11.144
59817W        W32242  39.458   5.644  11.554
59818W        W32243  20.710  10.971   0.513
59819W        W32244   0.796  31.402   3.708
59820W        W32245  12.851  36.058   0.855
59821W        W32246  31.326  25.153  12.831
59822W        W32247  24.533  12.662  11.066
59823W        W32248  34.521  25.834  12.478
59824W        W32249  35.913   4.317  11.936
59825W        W32250  13.213   7.159  14.837
59826W        W32251   5.310  31.638  13.288
59827W        W32252  22.120  24.649   3.819
59828W        W32253  42.886   0.261   3.285
59829W        W32254  25.186  40.930   1.104
59830W        W32255  11.181  22.655   4.579
59831W        W32256  16.121  38.633   0.852
59832W        W32257  21.597  21.429   2.679
59833W        W32258  42.486  38.489   4.556
59834W        W32259  44.334  25.075   1.558
59835W        W32260  38.169  37.204   3.198
59836W        W32261  31.224  13.626   1.500
59837W        W32262   1.680  14.824  13.617
59838W        W32263   1.232  15.108   3.221
59839W        W32264   3.472  13.202   3.829
59840W        W32265  10.264  40.270   0.937
59841W        W32266   7.457   7.960  13.773
59842W        W32267  40.611   8.319  13.947
59843W        W32268  15.133  40.516  12.113
59844W        W32269  22.266  28.066  12.400
59845W        W32270   6.968   7.944  13.606
59846W        W32271  29.616  39.573  10.831
59847W        W32272  20.418   7.050   0.692
59848W        W32273  35.459  29.001   1.210
59849W        W32274  43.230  14.878   0.878
59850W        W32275  11.226  21.572   4.742
59851W        W32276  11.529  39.549  14.357
59852W        W32277  30.408  28.429   3.512
59853W        W32278   9.345  28.068  12.797
59854W        W32279  36.334  30.760   3.219
59855W        W32280  27.585  31.826   3.792
59856W        W32281  39.209  44.841  12.585
59857W        W32282  34.879   0.754  10.384
59858W        W32283   2.874   6.780  13.982
59859W        W32284  11.097   5.250   2.765
59860W        W32285   1.439   6.431   4.214
59861W        W32286  38.134   4.903   1.868
59862W        W32287  26.092  32.357  10.601
59863W        W32288  19.607  19.482   4.359
59864W        W32289  17.502   9.207   1.448
59865W        W32290  37.714  34.570   9.874
59866W        W32291  23.990  10.283   2.878
59867W        W32292  10.173  44.707  12.152
59868W        W32293  27.472   7.064  10.983
59869W        W32294  34.562  32.234  12.434
59870W        W32295  28.341  28.985   1.346
59871W        W32296  27.312   1.920   0.475
59872W        W32297   5.713  10.167   1.270
59873W        W32298   6.384  18.257   0.039
59874W        W32299  30.576   6.483   3.591
59875W        W32300  23.557  21.227  11.624
59876W        W32301  15.798  35.335  13.849
59877W        W32302  21.700  32.423  12.829
59878W        W32303  16.277   7.435   2.158
59879W        W32304  31.739   9.847   0.736
59880W        W32305   8.146  14.767  14.493
59881W        W32306  19.634  36.265  14.920
59882W        W32307  14.264  10.296   3.734
59883W        W32308  31.181  15.308  12.319
59884W        W32309  40.911   2.642   4.928
59885W        W32310  25.663  27.977   1.398
59886W        W32311  32.314   6.940   1.203
59887W        W32312  16.684  14.817   2.133
59888W        W32313  19.050  25.692   0.524
59889W        W32314  16.220  22.188  14.487
59890W        W32315  37.342  21.110   4.156
59891W        W32316   5.424  36.960  12.222
59892W        W32317  37.543  32.569  11.245
59893W        W32318  24.674  17.238   4.750
59894W        W32319   9.175  12.445  13.788
59895W        W32320  27.668  12.750   2.493
59896W        W32321   1.225  28.699  10.812
59897W        W32322  22.141  17.807   1.807
59898W        W32323  15.508  18.587   2.948
59899W        W32324  13.253  39.374  13.216
59900W        W32325   4.460  41.440   2.885
59901W        W32326  43.804  32.376  13.813
59902W        W32327   6.806  28.896  14.843
59903W        W32328   4.318  35.469  13.957
59904W        W32329   4.421  34.514   0.053
59905W        W32330  40.773  34.256   2.297
59906W        W32331  28.893  30.571   1.798
59907W        W32332  38.292  34.922   2.324
59908W        W32333   4.256  39.330  14.919
59909W        W32334  38.418   1.054  10.557
59910W        W32335  21.300  28.186   0.849
59911W        W32336  20.821  39.733   1.676
59912W        W32337  22.619  15.253  11.680
59913W        W32338  23.600  19.140   0.987
59914W        W32339  30.714  21.703   0.289
59915W        W32340   3.456  44.803  11.824
59916W        W32341   6.292   2.402  12.930
59917W        W32342  30.977   6.136  13.404
59918W        W32343   2.077  24.270   5.059
59919W        W32344  23.037  10.136   2.497
59920W        W32345  19.745   2.554  14.404
59921W        W32346  25.613  23.680   0.816
59922W        W32347  43.969  22.213   3.398
59923W        W32348  15.544  42.426   0.950
59924W        W32349  31.804  18.508   5.493
59925W        W32350  25.450  18.731  11.860
59926W        W32351  37.629  13.150  12.970
59927W        W32352  40.474  40.127   4.690
59928W        W32353  35.444  15.855   4.738
59929W        W32354  28.120   9.674  14.824
59930W        W32355   9.854  40.432  12.924
59931W        W32356  11.644  14.616  12.519
59932W        W32357  37.324  40.589  13.603
59933W        W32358   2.987  21.734   3.141
59934W        W32359   3.043  18.615  13.854
59935W        W32360   6.758  18.535   0.263
59936W        W32361  42.569  16.888  10.983
59937W        W32362   9.954   4.285   5.165
59938W        W32363  25.933  31.872  12.923
59939W        W32364  34.880  12.348   4.530
59940W        W32365  36.375   1.145   2.357
59941W        W32366  23.291  34.199   1.040
59942W        W32367  11.270  19.113   2.645
59943W        W32368  31.248  33.681  10.726
59944W        W32369  41.332  41.806  14.471
59945W        W32370  17.377  30.776  12.454
59946W        W32371  25.029   1.307   0.304
59947W        W32372  36.382  28.042  12.962
59948W        W32373  16.239   9.660   1.364
59949W        W32374  16.399  31.591  14.713
59950W        W32375  25.126  40.238  12.978
59951W        W32376  19.574   7.784  12.467
59952W        W32377   2.825  42.778  14.755
59953W        W32378  20.944   4.761  12.371
59954W        W32379  20.327  13.701   1.911
59955W        W32380   9.805  23.603   4.315
59956W        W32381  33.525  10.290   0.683
59957W        W32382  32.344  26.670   2.709
59958W        W32383  31.920  36.834   0.764
59959W        W32384  41.931  39.098   3.261
59960W        W32385  27.970  29.086  11.669
59961W        W32386   4.955  32.002  12.592
59962W        W32387   3.675  24.921  14.357
59963W        W32388   7.152  32.069  10.857
59964W        W32389  32.940  40.411   2.601
59965W        W32390  38.120  24.434  13.053
59966W        W32391   4.898  25.212  13.986
59967W        W32392   2.756  27.978   0.257
59968W        W32393  27.925  19.050   1.569
59969W        W32394  35.519  37.005   4.644
59970W        W32395  17.727   4.403  11.252
59971W        W32396   7.235  10.638   3.663
59972W        W32397  25.550  43.000   0.582
59973W        W32398  37.880   3.950   0.744
59974W        W32399  20.396  18.275  13.369
59975W        W32400  25.228  20.395   0.002
59976W        W32401   8.110  44.842   4.429
59977W        W32402  36.992  39.607   4.651
59978W        W32403  15.292  32.849  13.242
59979W        W32404  31.883  41.583  14.859
59980W        W32405  32.796   4.395   2.282
59981W        W32406  11.086  36.874  12.013
59982W        W32407  40.817  24.621   3.668
59983W        W32408  32.740  15.794  14.947
59984W        W32409  44.815  25.037  10.710
59985W        W32410  32.444   7.462   1.243
59986W        W32411  15.014  43.076  11.354
59987W        W32412  41.533  42.365   9.754
59988W        W32413   8.844  43.418  10.765
59989W        W32414  10.333  14.510   4.890
59990W        W32415  19.990  43.734   2.705
59991W        W32416  17.527  41.937  11.353
59992W        W32417  14.806  38.330   2.187
59993W        W32418  22.741  19.918  12.178
59994W        W32419  44.963  28.173   4.391
59995W        W32420  40.448   9.130  13.436
59996W        W32421  39.848  10.141  12.504
59997W        W32422   1.274  25.890  11.059
59998W        W32423  41.816  27.030   3.565
59999W        W32424  40.474   2.777   2.027
60000W        W32425   3.755   3.958  14.281
60001W        W32426  28.747   8.646  13.940
60002W        W32427  10.544   8.705  11.109
60003W        W32428  39.287   7.218  10.632
60004W        W32429  43.275  23.925  12.075
60005W        W32430  40.327  26.746   0.124
60006W        W32431  27.117  33.472  13.377
60007W        W32432  24.477  25.581  11.214
60008W        W32433  32.482  36.948  14.839
60009W        W32434  26.647  16.585  14.956
60010W        W32435   7.217  35.432   2.187
60011W        W32436  20.187  25.080  14.316
60012W        W32437   6.641  33.839   3.258
60013W        W32438   3.437  42.979   1.717
60014W        W32439  25.942  12.063   2.866
60015W        W32440  12.238  32.339   0.312
60016W        W32441  27.594  13.728   2.837
60017W        W32442  14.662  34.348   1.759
60018W        W32443  13.285   8.650   1.161
60019W        W32444  24.687  44.325  11.854
60020W        W32445   2.187  20.145  10.501
60021W        W32446  24.673  16.827   4.473
60022W        W32447   5.776  27.576   4.640
60023W        W32448   3.253  30.931   4.576
60024W        W32449   7.935  13.744  13.106
60025W        W32450  13.811   5.390   2.395
60026W        W32451   5.759   9.108  12.089
60027W        W32452  18.268  21.786  12.934
60028W        W32453  37.582  37.107  12.808
60029W        W32454   3.795  34.994  13.999
60030W        W32455   9.088   3.396  14.616
60031W        W32456  10.366  44.584  14.444
60032W        W32457  20.193   8.927  10.917
60033W        W32458  33.138  10.245  13.732
60034W        W32459   5.008  21.613   4.190
60035W        W32460  18.243  11.787  14.626
60036W        W32461  17.052  11.609  10.727
60037W        W32462  33.380  14.696  10.387
60038W        W32463  34.188  31.559   3.366
60039W        W32464  39.970  37.631  14.459
60040W        W32465   4.852  24.512  10.948
60041W        W32466   1.618  17.951   1.920
60042W        W32467   1.444  16.656   0.423
60043W        W32468  22.018   7.345   1.864
60044W        W32469   7.504  42.023  14.291
60045W        W32470  20.139  17.804   2.325
60046W        W32471  39.057   2.833   1.702
60047W        W32472   8.688  39.925   4.106
60048W        W32473   0.477  20.584   4.378
60049W        W32474  37.505  26.663   1.720
60050W        W32475  16.159  28.503  12.996
60051W        W32476   2.448  21.549   1.818
60052W        W32477  44.368  22.186   3.079
60053W        W32478  27.611  10.899   1.677
60054W        W32479  39.122  10.267  11.103
60055W        W32480  28.691  32.827   3.778
60056W        W32481   1.160  10.329  12.152
60057W        W32482  15.446  24.205   4.211
60058W        W32483  19.147  30.577   1.874
60059W        W32484  14.679  11.259   2.838
60060W        W32485  43.852  24.921  14.516
60061W        W32486  17.314  15.399  10.184
60062W        W32487  14.319  22.971  10.626
60063W        W32488   4.208  24.189   3.800
60064W        W32489  41.716   0.941   0.051
60065W        W32490  21.711  16.617  12.400
60066W        W32491  33.487  40.655   1.790
60067W        W32492  38.664  18.797  13.324
60068W        W32493   6.039   9.337  10.731
60069W        W32494   6.559   0.155  13.913
60070W        W32495  22.483  15.674   0.761
60071W        W32496   9.267  19.558   0.726
60072W        W32497  39.095   9.911   1.844
60073W        W32498  42.684  16.043  10.661
60074W        W32499  26.213  39.238  13.549
60075W        W32500  23.714   3.758  11.712
60076W        W32501  28.266   7.739  14.022
60077W        W32502  22.471  30.420  11.572
60078W        W32503   3.749   2.873   0.182
60079W        W32504  34.947  26.032  13.507
60080W        W32505   1.418  12.211   1.242
60081W        W32506  17.822  39.396  10.727
60082W        W32507  37.448  13.383   3.038
60083W        W32508   1.853   8.904  12.956
60084W        W32509  23.825  44.671   0.251
60085W        W32510  20.895  14.891  12.781
60086W        W32511  35.040   4.185  13.835
60087W        W32512  17.284  28.763   3.359
60088W        W32513  40.367  34.282   3.332
60089W        W32514  38.242  24.148   5.104
60090W        W32515  18.624  11.433  14.559
60091W        W32516   4.288  28.061  14.298
60092W        W32517  31.233  34.614  12.202
60093W        W32518  36.901  16.342   2.891
60094W        W32519  37.390  26.002  11.413
60095W        W32520  19.620  11.421  13.514
60096W        W32521   1.956  31.123   3.187
60097W        W32522  27.451  30.087  13.110
60098W        W32523  22.215  40.590  11.425
60099W        W32524  31.664  38.752   0.956
60100W        W32525  32.109  15.300   2.731
60101W        W32526  10.246  41.681   3.223
60102W        W32527  13.784  36.121   1.230
60103W        W32528   0.207  17.443   4.767
60104W        W32529  16.516  26.198   1.860
60105W        W32530   5.473  18.811   1.903
60106W        W32531  42.935  38.443   1.777
60107W        W32532  41.902   7.685  10.929
60108W        W32533  25.521  41.600  11.055
60109W        W32534  13.597  18.332  11.947
60110W        W32535  13.619  12.705   1.415
60111W        W32536  29.677  33.127  13.369
60112W        W32537  28.010  34.479   4.821
60113W        W32538   1.711  10.898  12.661
60114W        W32539  37.330  26.507  13.512
60115W        W32540  44.157   6.633  12.884
60116W        W32541  30.428  20.558  14.397
60117W        W32542  39.300  20.708   1.315
60118W        W32543  16.554  39.021   3.299
60119W        W32544  32.634   6.310  13.424
60120W        W32545   8.690   7.685  11.976
60121W        W32546   3.645   0.500  13.094
60122W        W32547  10.283  36.690  12.449
60123W        W32548  26.383  12.621  12.591
60124W        W32549  34.317   0.762  13.611
60125W        W32550   4.215  21.208  13.219
60126W        W32551  10.526   7.764   4.544
60127W        W32552  34.027  17.080   3.839
60128W        W32553  44.430  43.243   3.345
60129W        W32554   5.685  16.685   1.924
60130W        W32555  30.562  20.245   3.654
60131W        W32556  18.476  21.705  11.552
60132W        W32557  21.483  25.469  12.016
60133W        W32558  39.856   3.745  10.809
60134W        W32559  18.361  11.185   4.281
60135W        W32560  11.070  24.173  13.624
60136W        W32561   1.226   6.273  13.415
60137W        W32562  26.252  43.739   0.770
60138W        W32563  37.576  31.366   1.178
60139W        W32564  38.488  37.239   1.352
60140W        W32565   2.835  20.774   3.600
60141W        W32566   7.897  19.096   1.660
60142W        W32567  32.373   3.246   3.413
60143W        W32568  38.569  38.321  12.971
60144W        W32569  37.865  30.449   4.341
60145W        W32570   8.758   2.827  13.982
60146W        W32571  18.072   3.946   1.964
60147W        W32572  33.034   5.294  11.910
60148W        W32573  36.476  39.694  11.552
60149W        W32574  37.378  43.957  12.396
60150W        W32575  36.401  32.726   1.633
60151W        W32576  44.779  30.156   1.047
60152W        W32577   7.448   7.041  10.719
60153W        W32578  28.678  44.931  10.780
60154W        W32579  14.770  44.459   0.704
60155W        W32580  28.944   9.298  10.956
60156W        W32581  24.990  13.576   0.404
60157W        W32582  41.303  27.146   3.359
60158W        W32583  35.950   9.651  12.343
60159W        W32584  21.535  36.305  11.087
60160W        W32585  19.966   5.392   3.227
60161W        W32586  36.543  37.932   3.322
60162W        W32587  30.131   0.009   2.190
60163W        W32588  14.665  40.963  11.432
60164W        W32589   7.262  13.803   2.344
60165W        W32590  23.527  41.978   1.763
60166W        W32591  29.185  14.843   2.726
60167W        W32592  33.952  16.724   3.495
60168W        W32593  23.273  29.559   3.430
60169W        W32594   2.288  19.495   2.255
60170W        W32595   5.175  11.094   0.420
60171W        W32596  38.126  20.976  11.674
60172W        W32597   0.347  43.257  12.015
60173W        W32598  16.751  26.185  11.407
60174W        W32599   8.420  17.853  12.780
60175W        W32600   5.849   6.879   3.174
60176W        W32601   6.876  34.596  13.128
60177W        W32602  24.760  43.034   0.867
60178W        W32603  24.445  13.531  13.460
60179W        W32604  44.824  36.287  10.627
60180W        W32605   9.791  27.583  14.276
60181W        W32606  34.758  18.866   2.320
60182W        W32607  32.335   3.110  10.144
60183W        W32608  34.395  14.308  14.296
60184W        W32609  26.625  40.299   2.382
60185W        W32610  38.831   2.251   5.048
60186W        W32611  21.849   9.139   9.855
60187W        W32612   1.270  19.395  14.432
60188W        W32613  37.981   3.443   4.198
60189W        W32614  41.293  35.387  11.027
60190W        W32615   2.531  30.187  11.432
60191W        W32616  27.223  31.546  12.762
60192W        W32617  27.770  23.641  10.721
60193W        W32618   3.843   9.878   3.150
60194W        W32619   5.430  25.920  13.879
60195W        W32620  20.594  13.185   0.882
60196W        W32621   3.731  42.977  12.599
60197W        W32622   3.002   6.250  14.766
60198W        W32623   2.140  39.885  12.705
60199W        W32624  29.523  26.377  10.276
60200W        W32625  39.825  37.855  11.047
60201W        W32626  17.372  39.520  10.963
60202W        W32627   3.827  44.649   0.410
60203W        W32628  42.461  22.151   1.030
60204W        W32629  22.232   9.602  10.592
60205W        W32630  31.418  34.997   1.945
60206W        W32631  39.017  29.271  13.846
60207W        W32632  25.741   6.992   0.315
60208W        W32633  40.123  39.337   1.872
60209W        W32634   4.885  14.105   1.744
60210W        W32635  15.247  44.733  14.094
60211W        W32636  21.034   4.351  13.637
60212W        W32637  26.054  17.609   2.143
60213W        W32638  44.978   0.012  11.644
60214W        W32639  19.317  37.351  10.572
60215W        W32640  30.228   7.772   3.258
60216W        W32641  22.633  24.691   3.864
60217W        W32642  12.892  44.383   4.218
60218W        W32643   7.458  33.071   0.541
60219W        W32644  29.897  36.591  11.519
60220W        W32645   1.902   3.193   1.877
60221W        W32646   9.830  27.641  11.055
60222W        W32647  37.931   0.617  13.850
60223W        W32648  23.782  17.203   4.174
60224W        W32649  10.326  11.302  13.421
60225W        W32650  40.816  21.626  13.794
60226W        W32651  15.804  37.300   4.144
60227W        W32652  27.614   8.234  10.787
60228W        W32653  28.932  23.489   1.714
60229W        W32654  15.180   7.274   1.363
60230W        W32655  42.848  13.127  12.454
60231W        W32656  30.343  15.667  13.146
60232W        W32657  38.697  42.345  14.840
60233W        W32658   8.777  41.035  13.995
60234W        W32659   4.834  27.398   4.609
60235W        W32660   2.832  21.317  10.658
60236W        W32661  44.302  11.821   3.593
60237W        W32662  38.633  27.194   4.943
60238W        W32663  38.122  14.895   3.685
60239W        W32664  40.342   3.651  11.525
60240W        W32665  17.541  35.043   3.619
60241W        W32666  23.167  32.659   1.810
60242W        W32667   1.497  10.433  12.550
60243W        W32668  35.418  42.490   1.091
60244W        W32669  43.310  38.371   3.134
60245W        W32670  39.314  28.561   4.360
60246W        W32671   8.585  13.335   1.369
60247W        W32672  22.803  18.366  13.905
60248W        W32673  29.850  38.897   3.638
60249W        W32674  40.114  31.118  12.387
60250W        W32675  42.833  40.504   0.026
60251W        W32676  19.007  14.508   3.787
60252W        W32677  13.724  16.524  14.474
60253W        W32678  15.090  42.268  11.993
60254W        W32679  34.527  27.046  10.675
60255W        W32680  15.590  35.054  10.501
60256W        W32681  25.284  35.185   2.465
60257W        W32682  14.659  11.394   1.357
60258W        W32683  39.427   5.978   4.626
60259W        W32684  14.238  44.991  13.990
60260W        W32685  35.620  39.594   4.588
60261W        W32686  35.148  39.936  13.058
60262W        W32687  24.638  26.979   0.358
60263W        W32688  37.519  38.776   5.066
60264W        W32689  11.210  22.619   0.227
60265W        W32690  18.202  41.482  12.958
60266W        W32691  17.152  15.066   2.900
60267W        W32692  44.313  32.311  13.808
60268W        W32693  14.167  18.853  11.551
60269W        W32694  31.039  20.805  12.979
60270W        W32695  17.934  38.831  13.967
60271W        W32696  29.560  36.540  11.054
60272W        W32697  39.792  44.196   1.950
60273W        W32698  36.414  33.352   9.814
60274W        W32699  34.316  17.305  13.239
60275W        W32700  15.076  24.552  13.345
60276W        W32701  33.607  21.443  12.611
60277W        W32702  37.511  43.280   1.076
60278W        W32703  18.659  32.006  14.866
60279W        W32704  19.477  32.674   1.278
60280W        W32705  29.555  23.776   2.894
60281W        W32706  22.128   4.729   0.754
60282W        W32707   1.866   5.263  12.909
60283W        W32708  32.618  24.272   4.701
60284W        W32709  18.395  42.829  13.377
60285W        W32710  33.946  41.974  10.675
60286W        W32711  11.835  32.590  11.106
60287W        W32712  11.715  27.956  13.284
60288W        W32713  35.642  24.079   3.161
60289W        W32714  25.722  44.949  12.966
60290W        W32715  25.232  36.590   4.367
60291W        W32716  16.354  25.098  11.149
60292W        W32717   8.969  30.048   2.596
60293W        W32718  31.366  17.736   2.188
60294W        W32719  18.125  14.925   3.657
60295W        W32720  44.176  43.274   4.154
60296W        W32721  14.156  40.931   0.565
60297W        W32722  20.496  26.544   2.889
60298W        W32723  21.725  19.577  14.498
60299W        W32724   0.309  22.131   2.525
60300W        W32725  31.492  14.538   2.429
60301W        W32726   4.659  35.429  12.076
60302W        W32727  32.506  26.039  14.027
60303W        W32728  14.875  13.750  13.464
60304W        W32729  38.505  29.229   0.872
60305W        W32730  22.633   5.749   2.406
60306W        W32731  29.570  44.869   1.704
60307W        W32732  29.116  22.571  12.023
60308W        W32733  41.341  32.510   3.171
60309W        W32734  19.333  37.570   1.414
60310W        W32735  37.325   1.834  10.732
60311W        W32736  23.010  11.136   2.824
60312W        W32737  24.703  32.317   0.871
60313W        W32738  20.465  11.292  12.566
60314W        W32739   1.293  15.297   4.475
60315W        W32740  25.038  18.253  11.247
60316W        W32741  11.227  31.247   3.232
60317W        W32742  27.392  36.848  12.936
60318W        W32743  40.248  23.582  14.306
60319W        W32744  40.579  40.779   1.957
60320W        W32745  33.189   0.833  11.350
60321W        W32746  14.844  21.538   2.813
60322W        W32747   3.538  12.847  11.584
60323W        W32748   6.307  10.050   4.494
60324W        W32749  25.455  16.824  10.422
60325W        W32750  44.105   3.449  10.915
60326W        W32751  23.375   0.337  13.901
60327W        W32752  20.308  41.450   3.717
60328W        W32753  37.583   9.668   3.748
60329W        W32754   9.132  17.698   3.253
60330W        W32755  31.044  31.130  12.399
60331W        W32756  14.768  25.973  12.892
60332W        W32757  33.875  40.224   4.071
60333W        W32758   9.334  23.809   1.384
60334W        W32759  12.247  23.361  10.579
60335W        W32760   5.008  10.318   1.767
60336W        W32761   5.847  13.067   0.427
60337W        W32762  44.091  11.791   2.200
60338W        W32763  34.613  20.990   0.123
60339W        W32764   4.458   8.339  10.776
60340W        W32765  38.327  11.535   1.803
60341W        W32766  36.373  14.104  13.366
60342W        W32767  22.509  29.477   0.657
60343W        W32768  10.543  28.617   4.824
60344W        W32769  18.191  18.271  13.580
60345W        W32770   8.273  24.434  12.550
60346W        W32771  35.076  31.566   0.810
60347W        W32772  43.343  38.911   4.277
60348W        W32773  36.039  24.525  14.507
60349W        W32774  40.337  39.847  14.381
60350W        W32775   3.140  28.680   2.389
60351W        W32776  24.377  24.997   0.741
60352W        W32777  30.631   3.227  11.081
60353W        W32778  32.161  33.091   4.162
60354W        W32779  32.961   7.925  10.768
60355W        W32780  24.183  18.476  13.034
60356W        W32781  43.792  31.663  14.235
60357W        W32782  33.783  21.121   0.999
60358W        W32783  19.377  25.081  11.554
60359W        W32784  30.183  43.776   4.242
60360W        W32785  37.567  33.937  14.904
60361W        W32786  24.530   3.351  10.923
60362W        W32787  35.524  24.445  14.490
60363W        W32788  13.771  15.172   2.312
60364W        W32789  22.458  33.939  13.876
60365W        W32790   4.236  36.994  11.092
60366W        W32791  21.295  40.768   3.223
60367W        W32792  42.472   3.287  13.873
60368W        W32793  40.864  38.993   3.232
60369W        W32794  30.023  27.495   3.331
60370W        W32795  12.230  42.356  12.507
60371W        W32796   3.964   9.292  14.801
60372W        W32797   9.980  13.818   1.818
60373W        W32798  14.015  11.896  13.440
60374W        W32799  10.660  11.253   3.675
60375W        W32800  23.216  19.732  12.049
60376W        W32801  22.048   3.832  14.125
60377W        W32802  21.133  11.801  13.586
60378W        W32803  20.043  26.682  10.538
60379W        W32804   8.315   3.422  10.292
60380W        W32805  13.704  28.311   0.103
60381W        W32806  19.772  10.383  10.609
60382W        W32807  24.235  40.475  13.931
60383W        W32808  10.754   6.609   0.768
60384W        W32809  14.624  41.335   1.685
60385W        W32810  21.917  40.552   4.038
60386W        W32811   1.424  14.318  13.522
60387W        W32812  38.645   4.837  10.538
60388W        W32813  28.649  11.121  14.030
60389W        W32814  22.114  13.445   2.481
60390W        W32815  17.360   3.482  13.559
60391W        W32816   6.429  37.763  14.512
60392W        W32817  16.555  38.865   0.237
60393W        W32818  21.143  36.979  14.018
60394W        W32819  33.371  41.155   1.764
60395W        W32820   2.063   4.838   2.190
60396W        W32821  25.020  20.635   4.814
60397W        W32822  12.042  35.656   2.174
60398W        W32823  31.382   5.669  10.779
60399W        W32824  23.101  10.528  14.378
60400W        W32825  35.747  42.510  13.935
60401W        W32826  13.045  13.855   4.093
60402W        W32827  17.224  23.136  10.113
60403W        W32828  25.894  25.101   3.542
60404W        W32829  31.935  35.885   2.772
60405W        W32830  33.600  20.230   3.512
60406W        W32831  31.565  29.721   1.773
60407W        W32832  37.011  29.564  13.424
60408W        W32833  36.446  16.111   1.816
60409W        W32834   7.828   7.012   1.936
60410W        W32835  31.711  17.159   2.804
60411W        W32836  21.682  30.358  13.651
60412W        W32837  12.754  23.098  10.528
60413W        W32838  34.428  44.697  12.148
60414W        W32839   4.306  17.790   2.684
60415W        W32840  28.146  27.194  13.331
60416W        W32841  25.009  14.818   4.259
60417W        W32842  36.841  16.057  13.461
60418W        W32843  34.138  23.898   1.608
60419W        W32844   6.623  13.244   1.235
60420W        W32845   0.269  35.848  10.697
60421W        W32846  32.866  41.006   1.857
60422W        W32847  33.749  44.378   1.415
60423W        W32848   6.860   9.459   4.291
60424W        W32849  29.732  28.525   1.527
60425W        W32850  29.102  41.811   4.599
60426W        W32851  35.459  19.654   0.276
60427W        W32852  26.727  20.231   3.993
60428W        W32853  20.554  12.343  13.994
60429W        W32854  13.091  41.738  14.007
60430W        W32855  43.942  29.591   4.438
60431W        W32856  33.109   5.645   2.707
60432W        W32857  31.921  26.247   2.099
60433W        W32858  20.617  30.992  13.376
60434W        W32859  30.693  33.601   0.772
60435W        W32860  23.199  14.795  12.122
60436W        W32861  10.937  36.449  11.415
60437W        W32862  14.885   9.385   1.464
60438W        W32863  32.978   0.869  13.309
60439W        W32864  11.613   5.835   2.420
60440W        W32865  33.557  11.757  10.476
60441W        W32866  13.549  10.716  13.842
60442W        W32867  41.245  31.071   2.138
60443W        W32868   6.784  22.904   4.064
60444W        W32869  37.602  38.141   2.426
60445W        W32870  15.328  17.013   4.574
60446W        W32871   7.764  29.170  14.249
60447W        W32872   5.227  36.885  13.292
60448W        W32873  31.524  42.014  11.231
60449W        W32874   8.184  23.361   4.020
60450W        W32875  42.535  27.746  13.107
60451W        W32876  43.349  22.176   4.122
60452W        W32877  12.079  39.340   2.742
60453W        W32878  19.136  34.453   1.173
60454W        W32879  16.684   0.222  11.544
60455W        W32880  39.521  17.073  13.099
60456W        W32881  35.035  24.150   2.446
60457W        W32882  41.254  20.712  12.948
60458W        W32883  19.797  34.459  11.556
60459W        W32884  24.545  27.717   0.772
60460W        W32885   1.254  30.178  13.339
60461W        W32886   2.324  24.976   5.042
60462W        W32887   4.418   5.722   2.372
60463W        W32888  21.763  25.580   3.745
60464W        W32889  23.986  10.342   1.260
60465W        W32890   3.804   1.218   4.511
60466W        W32891  39.342   1.862   3.580
60467W        W32892   0.341  18.597   1.852
60468W        W32893  15.361  19.214  12.021
60469W        W32894  28.098  30.112  10.290
60470W        W32895  31.239   9.570  14.984
60471W        W32896  21.203  15.973  14.720
60472W        W32897  38.359  22.528  10.831
60473W        W32898  19.555  12.059   3.679
60474W        W32899   8.345  28.290  11.216
60475W        W32900   7.856  24.916   2.254
60476W        W32901  30.670  17.665  10.956
60477W        W32902  35.375  34.904   0.811
60478W        W32903   5.394  25.202   4.075
60479W        W32904  12.088  13.400   3.758
60480W        W32905  15.699  12.801   0.749
60481W        W32906  20.599  40.915   2.566
60482W        W32907  13.510  37.602  13.728
60483W        W32908   5.696  35.606   4.724
60484W        W32909   9.937   1.030   0.931
60485W        W32910  20.209  44.719  11.180
60486W        W32911  43.488   2.279  11.516
60487W        W32912  14.570   6.374   4.708
60488W        W32913  29.613   7.442   1.357
60489W        W32914  44.545  36.039  14.871
60490W        W32915  34.815  21.253  10.844
60491W        W32916  22.536  38.846   5.498
60492W        W32917   3.447  28.614   4.305
60493W        W32918  23.628   6.202   2.276
60494W        W32919  35.369  15.566   4.285
60495W        W32920  20.741  34.826   2.547
60496W        W32921  22.205   9.424   1.886
60497W        W32922  29.998  43.825  13.267
60498W        W32923  40.539  26.757  10.640
60499W        W32924   4.051   8.633  12.207
60500W        W32925  41.329  22.675   4.402
60501W        W32926   1.445  24.426  13.777
60502W        W32927  26.672  10.258   1.778
60503W        W32928  25.080  36.049   1.247
60504W        W32929  39.938  10.628   3.800
60505W        W32930  32.846  39.649  14.883
60506W        W32931  32.908  13.061  12.364
60507W        W32932  25.396  24.429   2.281
60508W        W32933  16.706  12.651  11.106
60509W        W32934  14.788  23.081  12.854
60510W        W32935  29.310  23.149   4.862
60511W        W32936  43.829  25.221   1.672
60512W        W32937  16.111  16.682  10.401
60513W        W32938  29.463  42.346  12.902
60514W        W32939  10.829  25.541  11.599
60515W        W32940  11.343  38.269  14.626
60516W        W32941  42.762  34.298  14.885
60517W        W32942  37.504   5.542   1.392
60518W        W32943  22.114  13.978  14.319
60519W        W32944   9.696   5.963  10.588
60520W        W32945  42.359  24.323  12.061
60521W        W32946  25.446  42.116  11.103
60522W        W32947  14.891  28.363   1.656
60523W        W32948  26.586  28.922   2.340
60524W        W32949   2.542  17.710   1.617
60525W        W32950  29.115  33.941  12.392
60526W        W32951  34.128  43.950  12.531
60527W        W32952   9.320   0.160  13.387
60528W        W32953  36.241  38.636   4.211
60529W        W32954  42.146  23.452  11.532
60530W        W32955   1.201   2.017  11.784
60531W        W32956  41.295  12.353   4.266
60532W        W32957  11.561  11.667   2.758
60533W        W32958  40.672  26.485  11.563
60534W        W32959  34.597  32.186   3.836
60535W        W32960  15.282  18.587   0.748
60536W        W32961  17.815  32.958   0.185
60537W        W32962  27.187  16.255   1.082
60538W        W32963  15.573   1.975   1.615
60539W        W32964  11.648  28.498  11.548
60540W        W32965   4.708  11.087   4.704
60541W        W32966  23.244  32.366  14.267
60542W        W32967  41.823  23.589  13.633
60543W        W32968  24.365  16.724   0.034
60544W        W32969  25.557   2.551  11.127
60545W        W32970  42.986  13.374   5.086
60546W        W32971   1.498   7.215   0.674
60547W        W32972  15.374  12.352  11.056
60548W        W32973  36.865   1.425   3.362
60549W        W32974  37.355   3.771   3.227
60550W        W32975  15.376   1.405   0.953
60551W        W32976  32.589  40.906   3.362
60552W        W32977  24.890  21.682  14.937
60553W        W32978  29.382  20.590  13.353
60554W        W32979  25.965  32.507   0.704
60555W        W32980  19.825  23.207  11.914
60556W        W32981   0.599  27.059   3.840
60557W        W32982   5.828  17.051   2.273
60558W        W32983  32.547  35.921  14.276
60559W        W32984   8.126  15.873  12.005
60560W        W32985  11.940  14.569   2.418
60561W        W32986  34.034  36.792  13.372
60562W        W32987  20.973  22.622  14.333
60563W        W32988  24.558  26.198  14.848
60564W        W32989   6.869  12.100   3.837
60565W        W32990  31.925  38.418  12.966
60566W        W32991   8.926   1.661  13.377
60567W        W32992  12.269  35.955  12.690
60568W        W32993  36.936  23.179   3.221
60569W        W32994  17.573  30.468  11.123
60570W        W32995  31.175   6.420  12.879
60571W        W32996  29.419  39.587   3.232
60572W        W32997  22.963  27.189  13.830
60573W        W32998  21.326  28.071  13.973
60574W        W32999  12.872  18.655   4.762
60575W        W33000  11.766  18.838   0.064
60576W        W33001  19.738  31.045  13.160
60577W        W33002  41.763  10.473   2.601
60578W        W33003   4.019  37.137   3.292
60579W        W33004  31.950  22.333  12.124
60580W        W33005  44.678  44.494   2.842
60581W        W33006  11.235  19.704   4.356
60582W        W33007  26.984  11.316   3.666
60583W        W33008  25.948  32.434   2.060
60584W        W33009  44.241   1.549   1.697
60585W        W33010  23.317  33.650   1.883
60586W        W33011  29.724  44.633  14.458
60587W        W33012  42.086  43.923  12.992
60588W        W33013  17.108  19.537   0.024
60589W        W33014   7.402  15.573  10.728
60590W        W33015  28.179   8.308   0.343
60591W        W33016  43.018  10.901   1.657
60592W        W33017  21.449  29.711   0.375
60593W        W33018  39.303   2.056  14.280
60594W        W33019   8.888  43.833  12.502
60595W        W33020  19.555  30.364   0.510
60596W        W33021  13.005  17.693  10.602
60597W        W33022   7.148   1.412   3.840
60598W        W33023   2.881  24.426  11.898
60599W        W33024  37.129  38.201  12.990
60600W        W33025  24.685   7.319  13.014
60601W        W33026  21.707  23.753   4.940
60602W        W33027  29.945  15.722  12.275
60603W        W33028  43.385  23.099   4.712
60604W        W33029  27.412  22.067  11.383
60605W        W33030   7.603  36.544   1.232
60606W        W33031  35.655  18.037   2.347
60607W        W33032  40.158  22.596   2.819
60608W        W33033  23.427  30.792   4.530
60609W        W33034  41.547  14.865   1.874
60610W        W33035  13.572   5.455   3.249
60611W        W33036  16.599  26.628   0.558
60612W        W33037  43.721  31.464  14.691
60613W        W33038   8.430  10.790  13.015
60614W        W33039   6.467   4.894   0.315
60615W        W33040   6.673  35.490   2.146
60616W        W33041   5.379  40.073  12.915
60617W        W33042   7.833  36.433   2.821
60618W        W33043   0.646  22.593  11.411
60619W        W33044  13.162   1.229   1.591
60620W        W33045  15.744  41.460  14.873
60621W        W33046  22.348  41.148   9.914
60622W        W33047   2.972  25.542  13.103
60623W        W33048  19.451  31.436   2.764
60624W        W33049  26.525  24.269  12.988
60625W        W33050  40.540  10.586  10.701
60626W        W33051  28.240  24.920  12.117
60627W        W33052  14.291   6.738   2.574
60628W        W33053  31.541  38.117  13.960
60629W        W33054   8.344  24.154   0.031
60630W        W33055  22.179  11.094  13.017
60631W        W33056  16.641   4.907   4.693
60632W        W33057  38.546   3.864  12.886
60633W        W33058  16.386  20.985   0.810
60634W        W33059   6.863   6.773  13.788
60635W        W33060  21.187  36.568   4.069
60636W        W33061  20.606   7.922  13.866
60637W        W33062   8.446  37.653   1.717
60638W        W33063  18.724  43.811  13.313
60639W        W33064  36.159  10.657  11.865
60640W        W33065  44.891   8.610  14.433
60641W        W33066  12.819   9.695  12.967
60642W        W33067  24.023   8.326   4.142
60643W        W33068  21.780  13.591  10.565
60644W        W33069  28.781  40.882  11.921
60645W        W33070  18.067  34.587   2.273
60646W        W33071  27.454   8.591  13.941
60647W        W33072  36.202  41.620  12.900
60648W        W33073  13.589  25.603   2.107
60649W        W33074  29.523  22.739  13.343
60650W        W33075  29.030  40.519   3.068
60651W        W33076  11.248  16.662   2.320
60652W        W33077  39.796  12.645  10.826
60653W        W33078   2.485   8.288   4.541
60654W        W33079  16.852  20.476  13.299
60655W        W33080  23.898  10.904   3.247
60656W        W33081  32.925  19.025  12.450
60657W        W33082  31.881  31.071   4.098
60658W        W33083  11.342  17.811   0.818
60659W        W33084  29.016  14.580   4.391
60660W        W33085  27.733  40.883  11.973
60661W        W33086  14.668  17.327  12.490
60662W        W33087  13.065   8.695   2.726
60663W        W33088  15.982  27.351  11.644
60664W        W33089  41.318  17.783   4.740
60665W        W33090  25.497  16.186  12.508
60666W        W33091   7.905   7.741  10.256
60667W        W33092  36.939  10.393   1.448
60668W        W33093  31.256  23.732  14.579
60669W        W33094  34.376  25.045  11.350
60670W        W33095  19.256  39.675   1.169
60671W        W33096   5.454   5.544   4.724
60672W        W33097  15.697  31.535   3.872
60673W        W33098  33.295  13.266  14.779
60674W        W33099  16.210   3.682   4.677
60675W        W33100  34.499  34.359  11.483
60676W        W33101  37.365  10.236  11.353
60677W        W33102  23.190  43.745  10.953
60678W        W33103  24.044   6.191  14.555
60679W        W33104  25.838  28.511  12.551
60680W        W33105   5.797  39.489  14.924
60681W        W33106  27.819   5.729  11.130
60682W        W33107  40.353  43.351  13.888
60683W        W33108  21.608  12.699  12.111
60684W        W33109   3.315  42.443  10.655
60685W        W33110  36.913  17.695  14.371
60686W        W33111  13.036  22.877   3.712
60687W        W33112  41.119  44.492   3.635
60688W        W33113   1.996  32.921  10.916
60689W        W33114  37.611  21.463  10.687
60690W        W33115   3.467  37.567  13.952
60691W        W33116  39.920  21.763  14.379
60692W        W33117   3.049  28.156   1.224
60693W        W33118   6.865  42.528  14.546
60694W        W33119   1.610  11.414  14.470
60695W        W33120  35.368  21.517   1.404
60696W        W33121   1.409  42.011  12.030
60697W        W33122  21.248   0.860  12.972
60698W        W33123   4.181  44.039  11.266
60699W        W33124  12.850  25.773   2.921
60700W        W33125   3.714   8.268  13.332
60701W        W33126  31.872  25.469  11.913
60702W        W33127   5.784  16.101  13.545
60703W        W33128  28.384  24.473  14.799
60704W        W33129   4.861  11.284  14.374
60705W        W33130  13.579  21.675   5.117
60706W        W33131  26.443  30.869  11.534
60707W        W33132   7.964  23.744   0.737
60708W        W33133   0.325  13.179   2.202
60709W        W33134  10.773  38.302   0.336
60710W        W33135   1.947  16.265  13.999
60711W        W33136  28.215  35.482  14.322
60712W        W33137   7.256  21.660  14.306
60713W        W33138   3.065  44.875   1.822
60714W        W33139  31.854  30.890  13.008
60715W        W33140  22.209   5.809   1.653
60716W        W33141  42.278  43.103  11.824
60717W        W33142   9.394  11.453   2.873
60718W        W33143   7.109  12.185  10.788
60719W        W33144   3.473  13.924   1.669
60720W        W33145   0.247  35.295   2.673
60721W        W33146  22.244   5.299  11.835
60722W        W33147  30.984  27.455  14.038
60723W        W33148  10.334  38.223  13.882
60724W        W33149  14.367  19.296  11.737
60725W        W33150  32.737   4.812  14.973
60726W        W33151  18.986  33.317  12.863
60727W        W33152   4.761  26.214  10.562
60728W        W33153   0.401  42.130   2.130
60729W        W33154  11.351  27.522   4.405
60730W        W33155   0.493  13.793   3.321
60731W        W33156  38.944  36.494   3.197
60732W        W33157   8.658  16.831   3.258
60733W        W33158  40.031   0.764   4.641
60734W        W33159  17.585   6.264   2.475
60735W        W33160  10.696  16.223  14.383
60736W        W33161  43.500  34.167   3.219
60737W        W33162  12.780  26.779   0.205
60738W        W33163  41.898  31.391  13.879
60739W        W33164  32.467  16.449   2.412
60740W        W33165  18.192  26.324   1.428
60741W        W33166  28.014  15.338  10.912
60742W        W33167   9.375   6.624   0.262
60743W        W33168  35.650  35.802  14.529
60744W        W33169  13.767   4.701  14.890
60745W        W33170  27.018   6.824   3.641
60746W        W33171  20.089  24.435   3.129
60747W        W33172   0.972  22.123  14.967
60748W        W33173   4.841  30.880   3.754
60749W        W33174   9.945  26.973  12.535
60750W        W33175  24.545   7.699  10.996
60751W        W33176  24.667   8.730   3.597
60752W        W33177   4.994   1.234  12.432
60753W        W33178  41.705  16.180   2.383
60754W        W33179   5.683  31.883   4.121
60755W        W33180  27.285  32.723   1.021
60756W        W33181  30.950  41.037  10.769
60757W        W33182  42.516  22.838  13.101
60758W        W33183  11.887  10.689  10.461
60759W        W33184   4.821  35.376  11.591
60760W        W33185  30.166   0.541   3.857
60761W        W33186  22.531   7.593  13.884
60762W        W33187  18.339  26.600   4.975
60763W        W33188  28.085  39.581  11.738
60764W        W33189  17.545  23.786   1.520
60765W        W33190  26.109  26.195   3.268
60766W        W33191  39.053   9.326  10.511
60767W        W33192  35.729   4.751  12.165
60768W        W33193  23.155  10.215  11.892
60769W        W33194   2.024  28.359   1.870
60770W        W33195  10.229   8.628  11.642
60771W        W33196  30.578  26.583  12.506
60772W        W33197   4.197  39.970   1.269
60773W        W33198   1.491  14.134  11.002
60774W        W33199  30.441  16.388  10.316
60775W        W33200  31.423  40.265  11.868
60776W        W33201   6.165  19.766   3.656
60777W        W33202  18.567  39.407   2.319
60778W        W33203  10.611   8.696   1.437
60779W        W33204  44.899  23.972   3.274
60780W        W33205  16.629  29.690   1.986
60781W        W33206   0.831  33.069  12.919
60782W        W33207  14.929   3.292  12.577
60783W        W33208   1.382  20.736   4.406
60784W        W33209  36.402  39.287   2.426
60785W        W33210  19.871  10.404  14.334
60786W        W33211  29.533  41.442  14.666
60787W        W33212  21.000  23.174   4.202
60788W        W33213  25.169  35.958   2.182
60789W        W33214  35.944   5.168  10.526
60790W        W33215   2.394  39.883   0.285
60791W        W33216  33.677  18.174   3.141
60792W        W33217  21.190  31.240   4.318
60793W        W33218  25.090   7.181   2.147
60794W        W33219  37.710  20.788  11.336
60795W        W33220  35.325  20.416   1.483
60796W        W33221  22.980   9.358  11.423
60797W        W33222   4.050  35.963   2.130
60798W        W33223  29.550  31.201  11.633
60799W        W33224  13.156  19.563  12.419
60800W        W33225   1.136  43.333  13.313
60801W        W33226  23.292   9.350   4.319
60802W        W33227  32.488  17.001  13.865
60803W        W33228  22.587  15.649  12.021
60804W        W33229  39.346  22.943  13.226
60805W        W33230  33.103   4.915  12.410
60806W        W33231   8.793  13.387  13.555
60807W        W33232  37.120  24.044  13.987
60808W        W33233  43.296  41.373  14.735
60809W        W33234   3.279  40.362  13.599
60810W        W33235  20.066  15.202  11.639
60811W        W33236   1.795  33.994  12.345
60812W        W33237  43.130  37.935  12.968
60813W        W33238  43.615  43.091   3.973
60814W        W33239  31.029   6.224  11.521
60815W        W33240   8.135   5.739  10.910
60816W        W33241   6.933  26.224  14.094
60817W        W33242   9.893   9.376   5.473
60818W        W33243  35.589  17.796   3.035
60819W        W33244  41.423  11.397  14.899
60820W        W33245  30.161  21.067  11.073
60821W        W33246  35.692  34.632  13.078
60822W        W33247  25.449  22.653   2.688
60823W        W33248  15.610  44.208  11.689
60824W        W33249  28.430  33.555  12.970
60825W        W33250  24.072  17.698  14.996
60826W        W33251  10.119  33.136   4.627
60827W        W33252   4.759  24.139   3.745
60828W        W33253  34.374  20.264   3.101
60829W        W33254   1.171   7.504  11.943
60830W        W33255   5.767  27.622   1.809
60831W        W33256  17.649  34.209  10.455
60832W        W33257  28.479  36.758   3.247
60833W        W33258  39.345  21.601  12.071
60834W        W33259  15.723   8.292  14.072
60835W        W33260  42.288  17.065   0.881
60836W        W33261  20.322  32.750  10.570
60837W        W33262  25.118  25.406  12.867
60838W        W33263  39.945  43.630  13.765
60839W        W33264  41.777  12.590   0.726
60840W        W33265  43.889  34.861  13.935
60841W        W33266  23.623  23.162  13.486
60842W        W33267  17.739  10.233  13.773
60843W        W33268  37.057   5.488  14.299
60844W        W33269  40.503  13.300  14.910
60845W        W33270  38.393  20.661   3.933
60846W        W33271  14.576  27.192   5.096
60847W        W33272  20.569  36.618  12.017
60848W        W33273  18.613  23.929  11.202
60849W        W33274  22.142  37.950   0.848
60850W        W33275   1.266   4.525   9.878
60851W        W33276  36.569  28.950   4.579
60852W        W33277  13.641  33.095   0.302
60853W        W33278  37.404  32.965  14.988
60854W        W33279  30.700  26.990  11.577
60855W        W33280  31.717   7.000   0.236
60856W        W33281  33.079  35.653   1.096
60857W        W33282  33.880  44.874  13.715
60858W        W33283  33.136  15.781   2.092
60859W        W33284  15.894  11.791   2.641
60860W        W33285  28.062  14.736  11.551
60861W        W33286  14.100  30.716   3.789
60862W        W33287  10.884  19.621  12.492
60863W        W33288  19.613  21.726  12.625
60864W        W33289  38.083  11.758  14.820
60865W        W33290  34.407   7.150   4.741
60866W        W33291  34.093  20.711   0.906
60867W        W33292  12.815   3.694   0.347
60868W        W33293  32.314  44.903   0.308
60869W        W33294  29.971  29.489   3.443
60870W        W33295  11.543  44.189  12.253
60871W        W33296  26.632   0.653   5.061
60872W        W33297  12.856  40.904   1.352
60873W        W33298   1.975  15.501  12.069
60874W        W33299  38.052  33.211  12.168
60875W        W33300  37.067  33.117  11.288
60876W        W33301  38.837  40.986  12.523
60877W        W33302  34.772  17.653  10.947
60878W        W33303  19.469  25.409   0.366
60879W        W33304  10.496  23.861  12.078
60880W        W33305  12.401   5.842  12.856
60881W        W33306  31.333  18.117  13.559
60882W        W33307   7.920   0.228   3.679
60883W        W33308   7.653   7.869   0.878
60884W        W33309  25.372  40.366  13.452
60885W        W33310  41.994  22.895   2.674
60886W        W33311   6.927  27.530   2.854
60887W        W33312  38.499  44.608  12.021
60888W        W33313  22.109  10.176  13.758
60889W        W33314  36.613  16.547   4.088
60890W        W33315   2.959  21.642  14.012
60891W        W33316  37.815  16.183   3.052
60892W        W33317  18.133  29.891   5.425
60893W        W33318  39.158  10.304  10.198
60894W        W33319  28.724  43.994  11.047
60895W        W33320   9.008  10.662   2.762
60896W        W33321  35.104  17.774   2.725
60897W        W33322  16.682  42.433   1.800
60898W        W33323   6.294  25.457  13.844
60899W        W33324  14.997  32.086   4.880
60900W        W33325  28.996  39.386  13.655
60901W        W33326   8.238  10.382   0.028
60902W        W33327  29.335  37.963  12.114
60903W        W33328  10.640  41.130   5.117
60904W        W33329  18.528  23.985   2.196
60905W        W33330  11.334  19.782   4.878
60906W        W33331  39.044  43.155   5.182
60907W        W33332  38.383   5.127   4.117
60908W        W33333  34.496  20.695  12.786
60909W        W33334  30.159  40.007  12.602
60910W        W33335   1.156  18.165   1.828
60911W        W33336  29.213  19.746   0.815
60912W        W33337   7.719  18.953   1.187
60913W        W33338  43.840  15.758   4.899
60914W        W33339  38.071  21.092   2.428
60915W        W33340  36.098  16.161  13.963
60916W        W33341  39.287  24.634   4.482
60917W        W33342  28.093  22.703   1.541
60918W        W33343  10.819  23.901   3.464
60919W        W33344  10.629  14.631  12.484
60920W        W33345  11.613  21.679  12.989
60921W        W33346  39.861  16.510   0.707
60922W        W33347  15.063  41.560   1.412
60923W        W33348  44.791  39.765  13.989
60924W        W33349  17.138  36.201  11.230
60925W        W33350  41.319  41.863   0.349
60926W        W33351  31.025   8.808   4.163
60927W        W33352  16.528   7.745  11.607
60928W        W33353  43.896  18.201   1.957
60929W        W33354  28.960  15.291   2.694
60930W        W33355   6.670  41.963   0.431
60931W        W33356  17.181  13.570  10.460
60932W        W33357   7.135  12.832  14.330
60933W        W33358  12.389   6.262   0.407
60934W        W33359  29.115   4.907   1.686
60935W        W33360  13.961   1.936   1.010
60936W        W33361  35.060  16.132  11.402
60937W        W33362  19.040  24.571   3.708
60938W        W33363  19.313  27.535  12.360
60939W        W33364  22.023   1.471  14.024
60940W        W33365   4.546  31.107   4.610
60941W        W33366  17.535  32.192   3.690
60942W        W33367  44.732  25.127   2.784
60943W        W33368  43.976  24.201   1.385
60944W        W33369   6.084   3.273  13.446
60945W        W33370  13.491  22.856  13.197
60946W        W33371  38.054  43.037   5.034
60947W        W33372  23.093  40.422   2.958
60948W        W33373  13.908  20.570  13.028
60949W        W33374   4.062   0.398  13.448
60950W        W33375  20.119  19.265  12.098
60951W        W33376  42.122  12.297   4.635
60952W        W33377  26.192   0.398  13.560
60953W        W33378   9.168  21.059  11.090
60954W        W33379  26.162  31.099  10.222
60955W        W33380   0.250  35.590   3.129
60956W        W33381  21.237   1.914   1.838
60957W        W33382   2.871   8.874   1.936
60958W        W33383  42.948   5.186   4.087
60959W        W33384  35.603  16.492  14.811
60960W        W33385  19.563  27.663  13.875
60961W        W33386  28.718  38.050  14.339
60962W        W33387  24.203  30.784  14.917
60963W        W33388  18.132   8.777   2.818
60964W        W33389  32.321   3.963   4.134
60965W        W33390  11.683  39.574  12.960
60966W        W33391  40.551   3.392   3.689
60967W        W33392  40.275   1.775  14.387
60968W        W33393  28.634  23.996  14.010
60969W        W33394  28.405   0.564   0.919
60970W        W33395  37.721   6.892  10.926
60971W        W33396  34.983  27.497  14.296
60972W        W33397  19.728   0.478   1.419
60973W        W33398   3.235  34.656   1.317
60974W        W33399  14.247  35.848  14.597
60975W        W33400  34.660   8.240  12.766
60976W        W33401  22.013  32.643   2.822
60977W        W33402  11.903   7.188  14.559
60978W        W33403  43.550  22.318   3.104
60979W        W33404  12.232   5.989   4.117
60980W        W33405  29.960  21.483  10.866
60981W        W33406  25.477  25.618  12.494
60982W        W33407   7.727  25.917   2.329
60983W        W33408  40.083  21.435  13.357
60984W        W33409  26.575  23.480   0.087
60985W        W33410  31.661  10.745  12.424
60986W        W33411   4.136   0.597  12.990
60987W        W33412  11.173  25.172  13.462
60988W        W33413  33.991  23.214   0.195
60989W        W33414  11.732   6.623   2.920
60990W        W33415  28.464  35.415  10.775
60991W        W33416   8.144  15.275   1.748
60992W        W33417  25.112   7.624   0.344
60993W        W33418  10.221  21.753   0.389
60994W        W33419   1.886  29.417   0.988
60995W        W33420  32.815  37.469  11.602
60996W        W33421   5.543  39.476   3.878
60997W        W33422  12.240   5.143  14.790
60998W        W33423  22.283  21.116   0.405
60999W        W33424  23.047  41.028  11.049
61000W        W33425  44.419  24.494  13.392
61001W        W33426  36.283  16.641   1.762
61002W        W33427  17.889  17.189  12.038
61003W        W33428  21.491  20.781   3.425
61004W        W33429  16.632  42.641  10.746
61005W        W33430  12.244   2.800  13.073
61006W        W33431  16.712  13.317   4.516
61007W        W33432  21.733  44.807   0.957
61008W        W33433  13.887  10.320  13.994
61009W        W33434  12.570  14.613   1.677
61010W        W33435  41.454   6.619  14.773
61011W        W33436  24.719  27.113  11.090
61012W        W33437  29.430   6.917   4.620
61013W        W33438  39.804  43.304  14.932
61014W        W33439  29.579  12.540   3.822
61015W        W33440  28.462  15.161  14.527
61016W        W33441  22.028  16.591   3.422
61017W        W33442  25.539  41.109  12.917
61018W        W33443  19.053  10.315   1.436
61019W        W33444  16.510  44.269   4.586
61020W        W33445   5.342  41.684  14.889
61021W        W33446   8.204  16.255   0.648
61022W        W33447  10.531  44.442   9.654
61023W        W33448  37.143  28.689   3.712
61024W        W33449  33.566  18.742  13.447
61025W        W33450  42.184  34.404  11.480
61026W        W33451  28.162  37.019  12.820
61027W        W33452   9.409  11.862   1.953
61028W        W33453  39.305  25.724  13.234
61029W        W33454  38.876  24.458   3.606
61030W        W33455  31.634   9.211   0.034
61031W        W33456   6.672   1.551  11.532
61032W        W33457  22.542  30.024  10.602
61033W        W33458  34.856  21.084  11.578
61034W        W33459  41.419  20.548  11.179
61035W        W33460  13.318  27.114  12.305
61036W        W33461  36.033  44.814  14.865
61037W        W33462  23.762  29.883  11.707
61038W        W33463   1.835  28.027   3.174
61039W        W33464  42.225  23.195  12.447
61040W        W33465   6.634  20.723   0.969
61041W        W33466  41.311  15.335   0.768
61042W        W33467  44.472   5.927   3.298
61043W        W33468  22.018  33.513  12.546
61044W        W33469  36.369  25.504  14.381
61045W        W33470  25.186  44.917  10.404
61046W        W33471  25.214  18.290  11.986
61047W        W33472  20.793  19.724   2.327
61048W        W33473  11.883  19.998   0.354
61049W        W33474  30.379   3.862   1.297
61050W        W33475  13.763  28.919  11.847
61051W        W33476  41.821  31.344   4.214
61052W        W33477  13.384   2.839   0.803
61053W        W33478   4.857  28.199   5.061
61054W        W33479   2.237  15.566  11.623
61055W        W33480  12.707  26.616   2.229
61056W        W33481  29.214  20.566   3.144
61057W        W33482  37.105  27.466  13.824
61058W        W33483  37.548  24.805   5.135
61059W        W33484  13.358  26.938  11.012
61060W        W33485  25.849  37.834   2.820
61061W        W33486  31.861  15.246   4.035
61062W        W33487  32.703  41.128   1.362
61063W        W33488   0.721  18.613   3.218
61064W        W33489  14.697  36.524   4.009
61065W        W33490  21.234   6.248  14.107
61066W        W33491  21.227   7.242  14.383
61067W        W33492  28.012   3.914   0.754
61068W        W33493  39.607  18.728   1.355
61069W        W33494  38.329   5.644  11.529
61070W        W33495  36.049  39.305  14.822
61071W        W33496  30.023  31.596  12.178
61072W        W33497   1.755  43.366  12.087
61073W        W33498  41.165  33.357   0.800
61074W        W33499  39.015  38.357  12.582
61075W        W33500  17.725  35.978  14.362
61076W        W33501   6.923   9.412  13.366
61077W        W33502  39.517  40.952  13.969
61078W        W33503  11.389  43.931   3.669
61079W        W33504  32.096  14.787  14.481
61080W        W33505  13.806  12.685  14.499
61081W        W33506  43.768  41.757   1.254
61082W        W33507  31.650   7.236  13.061
61083W        W33508  33.059   2.850  13.191
61084W        W33509  19.526   8.798  13.841
61085W        W33510   7.136  44.258   3.296
61086W        W33511   3.868   6.816  11.152
61087W        W33512  26.569  19.313   1.279
61088W        W33513  11.193  33.433   1.365
61089W        W33514  35.294  13.758  12.057
61090W        W33515   6.783  39.411   1.944
61091W        W33516  19.675  27.129   2.336
61092W        W33517  40.516  41.453  12.981
61093W        W33518  28.172  38.318   0.773
61094W        W33519  12.132  35.429  10.928
61095W        W33520  36.127  21.192   1.216
61096W        W33521  41.836  29.981   0.385
61097W        W33522  41.442  24.091   4.630
61098W        W33523  18.314  25.462  13.823
61099W        W33524  21.993  28.048   2.587
61100W        W33525  11.774  13.348   4.161
61101W        W33526  14.813  18.399  11.010
61102W        W33527  38.488  25.499   3.212
61103W        W33528   8.518  24.239  11.202
61104W        W33529  42.260  34.042  14.882
61105W        W33530  16.442  13.675   2.898
61106W        W33531  41.436  13.818   0.784
61107W        W33532  12.259  33.407  12.890
61108W        W33533  32.761  31.846   3.601
61109W        W33534  41.904  40.473   4.673
61110W        W33535   4.841  17.127   1.948
61111W        W33536   5.856  40.841   1.468
61112W        W33537  22.941   2.205   3.152
61113W        W33538  22.955  19.988  11.692
61114W        W33539  26.018  11.928   4.960
61115W        W33540  31.498  28.688   2.534
61116W        W33541  33.632  22.596   5.202
61117W        W33542  17.017  43.436   0.669
61118W        W33543  12.572   4.342   3.684
61119W        W33544  42.308  33.833  11.138
61120W        W33545   6.626  30.005   0.906
61121W        W33546  44.022  31.656   0.035
61122W        W33547  29.387   3.740   4.252
61123W        W33548  31.093  16.591   4.491
61124W        W33549  43.315  15.120   4.935
61125W        W33550  31.247  38.067  13.522
61126W        W33551  12.668   4.644  12.515
61127W        W33552  37.318  22.455   1.871
61128W        W33553   7.576  25.092  14.457
61129W        W33554  41.165  19.047  11.617
61130W        W33555  28.446   1.666  12.896
61131W        W33556  13.211  31.325  12.893
61132W        W33557   3.044   5.482  11.096
61133W        W33558   9.912   0.665  12.118
61134W        W33559  44.013  24.620   2.739
61135W        W33560   1.469  37.442  11.642
61136W        W33561  41.001  22.662  14.420
61137W        W33562   2.762  11.367   4.857
61138W        W33563  10.414  27.722  13.803
61139W        W33564  16.256  35.207   2.417
61140W        W33565  16.091  39.854  10.712
61141W        W33566  43.371  30.900  13.339
61142W        W33567  21.972  24.142  13.539
61143W        W33568  29.504  17.065  14.519
61144W        W33569  35.056  13.010   3.766
61145W        W33570  41.600  12.427  12.188
61146W        W33571  30.433   4.334  11.633
61147W        W33572  40.295  15.306   3.674
61148W        W33573  14.840   4.121   4.976
61149W        W33574  18.617  17.877  13.894
61150W        W33575  41.712  35.567   1.292
61151W        W33576  34.826   1.866   1.238
61152W        W33577  42.506  21.278  13.860
61153W        W33578  22.843  15.249  10.753
61154W        W33579  40.751  11.974  14.885
61155W        W33580  18.132   1.795  13.041
61156W        W33581  27.959  32.487  11.155
61157W        W33582  16.879  34.010   0.920
61158W        W33583  42.736  37.384  11.255
61159W        W33584  15.139  10.872  12.447
61160W        W33585  36.541  18.437  12.937
61161W        W33586  18.158  26.029   2.375
61162W        W33587   0.466   7.545  14.947
61163W        W33588  40.137   0.875   4.153
61164W        W33589  31.849   4.922  14.480
61165W        W33590  37.640  38.362   0.757
61166W        W33591   4.348  33.865  14.294
61167W        W33592  43.418   3.761  14.427
61168W        W33593  26.498  25.970   1.455
61169W        W33594  31.596  39.783  11.931
61170W        W33595  34.434  11.136  14.566
61171W        W33596  15.791  31.361   1.150
61172W        W33597   9.465  40.408   1.407
61173W        W33598  40.399  36.926  13.782
61174W        W33599  21.561  43.860  13.476
61175W        W33600   9.570  32.175  14.466
61176W        W33601  25.889  29.899   1.344
61177W        W33602   8.969  35.455  10.692
61178W        W33603  26.049   6.534  14.350
61179W        W33604  32.487  34.639   2.329
61180W        W33605  31.148  17.285   1.657
61181W        W33606  16.193  38.380  10.557
61182W        W33607  40.400   9.102  14.786
61183W        W33608  33.958  29.482   4.958
61184W        W33609  32.172   7.536  14.754
61185W        W33610  15.862  23.191  13.849
61186W        W33611  23.074  34.086  14.831
61187W        W33612  12.274  16.813  14.614
61188W        W33613  42.843  20.727  14.417
61189W        W33614  40.324  29.075  11.987
61190W        W33615  19.618  15.560   2.095
61191W        W33616  11.454  33.386  12.337
61192W        W33617  37.288   1.887   3.491
61193W        W33618   8.686   0.346   4.721
61194W        W33619  11.953  40.759   1.858
61195W        W33620  44.200  13.180  10.935
61196W        W33621   7.948  17.218   2.819
61197W        W33622  13.855  12.844   0.961
61198W        W33623  11.749  19.404   1.456
61199W        W33624   6.887   3.990  11.099
61200W        W33625  40.725   3.292  12.449
61201W        W33626  19.231  26.908  10.688
61202W        W33627  40.551  29.878  14.238
61203W        W33628  30.236   0.992  14.328
61204W        W33629  22.691   9.819   4.880
61205W        W33630   2.372  31.883   4.858
61206W        W33631  20.324  24.163  13.349
61207W        W33632  24.247  21.737   4.513
61208W        W33633  40.501  13.795   0.615
61209W        W33634  33.807  19.242   3.828
61210W        W33635  44.426  33.066   1.775
61211W        W33636  35.063   9.853   1.364
61212W        W33637  43.025  15.090   4.504
61213W        W33638  38.590   5.265  12.532
61214W        W33639  35.579  17.548   2.597
61215W        W33640  18.928   4.339  12.063
61216W        W33641   2.425   4.328  10.636
61217W        W33642  25.794  11.262  12.448
61218W        W33643  22.363  17.006  11.919
61219W        W33644  15.899  20.245  10.443
61220W        W33645   8.111   5.317  14.890
61221W        W33646  28.183  20.012   4.221
61222W        W33647   2.166  15.179  11.230
61223W        W33648  17.875  33.512   3.813
61224W        W33649  43.471  24.417  12.020
61225W        W33650  36.074  40.051  12.742
61226W        W33651   1.952  21.978   1.357
61227W        W33652  12.291  23.136  11.432
61228W        W33653   0.221  40.426   1.961
61229W        W33654   9.247   0.559   2.256
61230W        W33655   8.421   0.086   2.359
61231W        W33656  19.283  38.853  11.887
61232W        W33657   1.431  19.931  11.585
61233W        W33658  16.300   5.601  12.627
61234W        W33659   1.870  19.943   0.692
61235W        W33660  25.027  32.521   2.239
61236W        W33661  43.810  12.181   3.714
61237W        W33662  24.285  19.150  13.266
61238W        W33663  34.809  39.462   3.702
61239W        W33664   2.333  12.716   4.597
61240W        W33665  24.382  36.529  13.374
61241W        W33666  22.954  33.128   1.839
61242W        W33667  14.006  36.655  12.403
61243W        W33668  37.953  14.385   4.922
61244W        W33669   4.840  34.086   1.913
61245W        W33670   8.546  24.479   3.159
61246W        W33671  30.193  43.234  14.915
61247W        W33672  29.496  41.916   1.581
61248W        W33673  42.840  23.573  12.705
61249W        W33674   9.739   6.316   2.041
61250W        W33675   4.224  22.032  13.498
61251W        W33676  30.973   5.832   1.158
61252W        W33677  32.567  17.369   2.776
61253W        W33678  18.730  33.485  12.423
61254W        W33679   7.364  43.488  13.727
61255W        W33680   7.641  17.392  12.956
61256W        W33681  10.744  18.116   3.455
61257W        W33682  17.272   2.056   4.108
61258W        W33683   8.725  35.826  10.371
61259W        W33684  42.833  18.687  13.423
61260W        W33685  14.057  13.741  11.658
61261W        W33686  34.908  34.633  12.436
61262W        W33687   7.422  18.273  10.643
61263W        W33688  22.420  15.861   2.976
61264W        W33689   6.061  31.492   4.301
61265W        W33690   7.044  30.500   4.915
61266W        W33691   1.765  37.410   1.041
61267W        W33692  22.460  25.647  12.118
61268W        W33693  21.257  18.295   4.545
61269W        W33694  10.328  37.947   1.319
61270W        W33695   4.493  43.555   0.154
61271W        W33696  11.444  20.663  12.407
61272W        W33697  33.582   7.796   0.365
61273W        W33698  15.371  33.355   1.328
61274W        W33699  20.412  44.036   2.719
61275W        W33700  25.650   8.197  10.741
61276W        W33701  19.743  12.248   3.232
61277W        W33702  11.584  25.905  11.643
61278W        W33703  36.192   0.332   4.135
61279W        W33704  42.527   8.737  14.366
61280W        W33705  43.523  15.873   0.849
61281W        W33706  13.605  34.064  11.455
61282W        W33707  26.170  39.039  13.080
61283W        W33708  17.427  13.042  14.217
61284W        W33709  24.152  31.433   1.401
61285W        W33710  43.952  26.752   1.774
61286W        W33711  39.035  30.703  13.932
61287W        W33712   7.776   0.929  14.034
61288W        W33713  22.231   1.028  14.883
61289W        W33714   9.241  38.009  11.411
61290W        W33715  41.713   6.461  10.796
61291W        W33716  17.309  38.310   2.323
61292W        W33717  21.438  15.221  11.075
61293W        W33718  32.284  10.083  14.450
61294W        W33719  21.536  30.975   0.747
61295W        W33720  14.605  21.197  12.693
61296W        W33721  13.303  11.142   4.153
61297W        W33722  16.217  15.868  13.459
61298W        W33723  37.522  36.328  11.480
61299W        W33724  44.702  24.618   1.260
61300W        W33725   7.058  37.258  11.544
61301W        W33726  13.756  13.256  10.722
61302W        W33727  14.740  35.839  12.964
61303W        W33728  11.351  31.185   4.645
61304W        W33729  16.799  12.878  12.872
61305W        W33730  31.015   6.666  14.456
61306W        W33731  28.141  13.494  13.791
61307W        W33732  21.632  16.055  11.110
61308W        W33733  21.080   4.247  12.261
61309W        W33734   0.025  39.346  13.793
61310W        W33735   8.146  29.232  13.299
61311W        W33736  28.407  12.887   4.706
61312W        W33737  27.714  12.568  11.517
61313W        W33738  26.003  16.816   4.312
61314W        W33739  44.475  17.121  10.533
61315W        W33740  21.739   6.835  13.417
61316W        W33741  39.964  33.951  10.613
61317W        W33742  35.972   9.876   1.728
61318W        W33743  30.714  19.248  10.051
61319W        W33744   4.138  25.183   4.542
61320W        W33745   2.692   5.136   0.837
61321W        W33746   3.967   6.745   1.301
61322W        W33747  38.438  10.736   4.102
61323W        W33748  22.098   1.489   0.845
61324W        W33749   7.336  10.351   1.485
61325W        W33750  26.753   2.329   1.844
61326W        W33751  31.183  11.657  10.190
61327W        W33752  17.194  26.605   4.283
61328W        W33753  18.589  11.667   1.143
61329W        W33754  28.916  38.293   3.641
61330W        W33755   8.240  27.142   1.962
61331W        W33756  39.924  15.203  10.664
61332W        W33757  40.612  41.837   0.699
61333W        W33758  10.852  17.205   4.139
61334W        W33759  30.721  27.330  11.113
61335W        W33760  17.749  13.599  13.361
61336W        W33761  24.248  22.880  13.173
61337W        W33762  15.816   9.302  12.371
61338W        W33763  20.693  14.576   3.647
61339W        W33764  34.936   9.244  12.084
61340W        W33765  23.004  20.471  12.504
61341W        W33766  42.347  23.579  13.939
61342W        W33767  34.908  36.422   3.092
61343W        W33768  10.310  33.257  14.960
61344W        W33769   8.581  36.485   3.283
61345W        W33770   7.682  12.800   4.013
61346W        W33771  17.611  29.434  11.160
61347W        W33772  12.559  10.141  14.880
61348W        W33773  31.554  25.155  11.629
61349W        W33774  16.307  29.696   4.069
61350W        W33775  11.901  10.729   3.993
61351W        W33776  22.561  37.383   2.952
61352W        W33777   8.862  19.089  10.431
61353W        W33778   7.574  38.092   1.275
61354W        W33779   3.756  13.044  12.525
61355W        W33780  13.754  17.172  10.506
61356W        W33781  16.186  36.068  13.301
61357W        W33782  35.894  35.349  14.463
61358W        W33783  20.952  11.498   2.405
61359W        W33784  40.074  26.557  10.637
61360W        W33785  36.557  19.685  13.488
61361W        W33786  13.110  20.190  14.281
61362W        W33787  28.004  28.372   1.926
61363W        W33788  20.018  43.370  10.686
61364W        W33789  27.434   7.222  14.700
61365W        W33790  31.026  30.582   0.036
61366W        W33791  22.775   0.485   0.415
61367W        W33792  15.077  25.566  14.496
61368W        W33793  43.349  25.467   1.680
61369W        W33794  32.412   4.034   2.418
61370W        W33795  33.006  26.382  14.449
61371W        W33796  17.227  23.584   0.860
61372W        W33797  38.825  39.866  13.497
61373W        W33798  17.506  29.035  12.636
61374W        W33799   1.180  21.950   3.262
61375W        W33800  24.796  11.422   5.146
61376W        W33801   5.219  11.126   3.673
61377W        W33802  29.857   4.777   1.254
61378W        W33803  33.397  11.361   3.691
61379W        W33804   7.157  24.223   4.559
61380W        W33805  32.532   0.400   2.458
61381W        W33806   1.895   7.722  13.454
61382W        W33807  31.948   9.815   2.099
61383W        W33808  22.131   9.148   2.325
61384W        W33809  26.454  12.025  12.216
61385W        W33810  29.134  25.973   1.786
61386W        W33811  36.121  26.693  12.038
61387W        W33812  40.859  11.996  14.310
61388W        W33813  12.100   2.960   2.670
61389W        W33814  32.335   9.132  14.434
61390W        W33815  35.429  16.996  11.134
61391W        W33816  29.753  41.927  12.160
61392W        W33817  20.988  35.326  11.918
61393W        W33818  40.986  33.384  14.119
61394W        W33819  23.257   2.507  11.213
61395W        W33820  25.472  26.641  10.604
61396W        W33821  20.828  26.119  13.567
61397W        W33822  17.531  23.764   4.183
61398W        W33823  34.946  41.547   0.471
61399W        W33824  17.200  43.874  14.464
61400W        W33825  44.296  26.104   1.722
61401W        W33826   5.231   0.199  10.950
61402W        W33827  39.300  25.270   3.722
61403W        W33828   0.507  22.862   3.114
61404W        W33829  19.896  16.546   4.733
61405W        W33830   2.183   2.768   1.750
61406W        W33831  10.300  26.233  14.381
61407W        W33832   7.293  21.504   2.776
61408W        W33833   3.016  39.293   3.129
61409W        W33834  32.084  12.354   3.191
61410W        W33835  42.766   7.829   2.220
61411W        W33836   3.923  28.573  13.005
61412W        W33837  11.116   4.363  13.409
61413W        W33838  19.514  28.431   4.176
61414W        W33839  35.408  30.628   3.337
61415W        W33840  14.266   5.510   3.857
61416W        W33841   8.751  26.683   0.239
61417W        W33842  43.507   0.335   3.336
61418W        W33843   1.364  12.119  13.791
61419W        W33844  36.785  17.814  13.887
61420W        W33845  12.314   8.787   4.123
61421W        W33846  41.598   5.791   0.288
61422W        W33847   0.600  31.160   1.744
61423W        W33848  27.991  28.140  14.432
61424W        W33849   6.626  40.347   2.992
61425W        W33850  11.672   4.412   1.266
61426W        W33851  42.678  13.364  11.610
61427W        W33852  42.520  32.727   1.877
61428W        W33853  19.803  23.671  11.648
61429W        W33854  16.040  14.613   0.843
61430W        W33855  22.717   9.922   3.873
61431W        W33856  27.882  13.642   2.413
61432W        W33857  19.475   4.242  14.039
61433W        W33858   4.403  21.127   0.246
61434W        W33859  43.153  35.541   2.167
61435W        W33860  31.372  41.050   3.506
61436W        W33861  36.787  10.331  10.713
61437W        W33862  38.897  36.540  12.643
61438W        W33863  15.635   7.270   3.531
61439W        W33864  43.449  41.748  10.561
61440W        W33865  19.485   2.220  14.794
61441W        W33866  33.623  32.469  11.276
61442W        W33867  35.381  16.826   3.521
61443W        W33868  14.473  34.680   2.131
61444W        W33869   6.606  35.934   0.982
61445W        W33870  18.380  15.042  13.817
61446W        W33871   6.245  43.058  11.486
61447W        W33872  25.634  41.271  13.429
61448W        W33873   5.438  27.400  14.256
61449W        W33874  38.571  40.855  14.744
61450W        W33875  19.306  35.425   1.040
61451W        W33876  16.241  15.090  14.960
61452W        W33877  34.009  15.323  12.503
61453W        W33878   3.452  38.871  14.797
61454W        W33879  15.829  12.905   1.688
61455W        W33880  15.816   9.876  12.047
61456W        W33881   7.378   4.168   0.911
61457W        W33882   4.657  18.438   1.275
61458W        W33883  26.120  40.035   1.310
61459W        W33884  34.418  27.856  12.909
61460W        W33885  24.529   9.663   3.265
61461W        W33886  23.596  26.471  14.429
61462W        W33887  21.083   8.274   0.237
61463W        W33888  36.125  31.629  14.926
61464W        W33889  32.737  33.520  11.498
61465W        W33890   9.902  42.425   1.347
61466W        W33891  43.751  43.773  11.109
61467W        W33892  28.221  18.886  14.221
61468W        W33893  22.548   2.865  13.967
61469W        W33894   1.565   9.417   3.419
61470W        W33895  30.989  24.130   4.580
61471W        W33896  29.375  22.136  11.884
61472W        W33897  24.302  15.837  11.327
61473W        W33898  17.107  18.783  14.294
61474W        W33899   7.621  29.017   4.270
61475W        W33900  27.098   1.508   0.261
61476W        W33901  16.739   4.368  12.400
61477W        W33902  38.358  13.114  13.971
61478W        W33903  17.009  21.996   3.701
61479W        W33904  42.790   9.665  14.934
61480W        W33905  31.807  25.291  12.932
61481W        W33906  15.936  20.199   2.118
61482W        W33907  31.666  30.901   2.657
61483W        W33908  22.845   5.652  11.980
61484W        W33909  31.278  27.487   0.321
61485W        W33910  11.861  22.051  14.592
61486W        W33911  32.294  15.732   4.366
61487W        W33912  27.667  38.792  12.738
61488W        W33913   3.856  16.339   4.658
61489W        W33914  24.155  10.681  10.216
61490W        W33915  44.840  23.742  14.018
61491W        W33916  24.700  33.395  13.781
61492W        W33917  11.210  30.014   0.398
61493W        W33918  32.969  37.505  13.969
61494W        W33919  37.599  37.583   1.271
61495W        W33920  29.378  37.576   1.812
61496W        W33921  43.299  10.334   3.412
61497W        W33922  41.245  19.694  10.794
61498W        W33923   8.277   3.206   4.300
61499W        W33924  38.966  12.395  14.791
61500W        W33925   8.551  37.488   2.291
61501W        W33926  38.475   2.048   3.751
61502W        W33927   9.502   7.585   0.658
61503W        W33928  44.901  44.240   4.624
61504W        W33929  27.978  23.059  12.025
61505W        W33930  23.218  25.457   2.758
61506W        W33931  25.966  31.881  13.936
61507W        W33932   0.952  20.359  11.169
61508W        W33933  17.536  35.593   1.395
61509W        W33934  27.932  38.565   1.988
61510W        W33935  39.171   9.108   5.062
61511W        W33936   6.663   4.521  14.942
61512W        W33937  36.955   5.977  14.543
61513W        W33938   0.978  28.236  10.905
61514W        W33939  29.525  21.078  14.537
61515W        W33940  29.069   1.188  12.584
61516W        W33941  29.905   2.201   0.749
61517W        W33942  21.143  14.399  11.506
61518W        W33943  42.983   9.680   3.145
61519W        W33944  21.074   7.610  12.679
61520W        W33945   3.280  18.217  13.301
61521W        W33946  21.527  27.179  11.464
61522W        W33947  18.075  14.335   4.322
61523W        W33948  18.690  14.247  12.174
61524W        W33949  13.752  42.603  11.930
61525W        W33950  14.378  44.487  13.914
61526W        W33951   9.837   8.251   0.355
61527W        W33952  39.775  13.722  12.696
61528W        W33953  31.012  37.937  12.579
61529W        W33954  24.418   7.949   3.537
61530W        W33955  44.515  31.137  12.608
61531W        W33956  36.236  37.554   5.085
61532W        W33957  26.219   0.852   4.121
61533W        W33958  25.076  10.659   4.661
61534W        W33959  35.323  20.162  11.548
61535W        W33960  42.303   9.157  11.964
61536W        W33961   1.745   7.176   0.212
61537W        W33962  43.448  21.344  14.359
61538W        W33963  38.559  23.559   4.378
61539W        W33964  10.496  21.932   4.098
61540W        W33965  34.110  21.540   3.626
61541W        W33966  17.682  16.256   1.421
61542W        W33967  29.628  12.890   3.380
61543W        W33968   9.965  43.399   0.528
61544W        W33969  39.326  27.996  14.812
61545W        W33970   1.033  35.155  12.122
61546W        W33971   2.269  44.797   1.355
61547W        W33972  34.956   0.383  14.490
61548W        W33973   2.961  35.220  10.659
61549W        W33974   9.604   1.983  11.459
61550W        W33975   1.518  31.542  13.480
61551W        W33976  12.045  15.568   2.439
61552W        W33977  33.441  17.672   3.691
61553W        W33978   7.777  38.955   1.227
61554W        W33979  26.463  19.115  13.899
61555W        W33980  43.847  16.649   2.646
61556W        W33981  22.271  41.998   0.823
61557W        W33982  38.052  10.872   2.838
61558W        W33983  42.291  13.631   3.357
61559W        W33984   5.582  11.634  10.359
61560W        W33985  12.601   7.846  12.499
61561W        W33986  11.787   5.068  12.757
61562W        W33987  15.926  22.003   0.935
61563W        W33988   8.711  20.690   0.550
61564W        W33989  39.998  13.100   4.395
61565W        W33990  27.189  10.403  11.154
61566W        W33991  40.129  29.431   0.272
61567W        W33992  22.865  21.509  12.191
61568W        W33993  33.002  39.143   0.024
61569W        W33994  40.021  20.024   3.766
61570W        W33995  43.843   9.319  11.110
61571W        W33996   3.942  28.960  10.463
61572W        W33997  13.169   7.714  10.463
61573W        W33998  37.291  13.833   3.235
61574W        W33999  38.129  26.474  13.862
61575W        W34000  24.647  31.943  13.566
61576W        W34001  10.150  20.496  13.829
61577W        W34002  10.199  27.993   3.530
61578W        W34003  24.782  22.958  12.580
61579W        W34004  24.603   8.610  14.025
61580W        W34005  25.614  38.961   0.357
61581W        W34006  26.855  16.684   4.782
61582W        W34007  36.757   5.030  14.369
61583W        W34008  40.505  12.550   3.758
61584W        W34009  10.052  37.608   3.837
61585W        W34010  32.356  30.399   2.761
61586W        W34011   4.673  35.623  10.177
61587W        W34012   2.230  42.997   0.552
61588W        W34013  28.571  32.600   3.296
61589W        W34014  36.032   1.209   2.768
61590W        W34015  29.820  40.287   2.439
61591W        W34016  43.864  26.028   4.840
61592W        W34017  16.329  27.898  11.593
61593W        W34018  13.605  42.036  14.836
61594W        W34019  16.229  21.033   4.602
61595W        W34020  26.427   2.451  12.034
61596W        W34021  21.685  23.991   1.919
61597W        W34022  36.782  35.403   1.723
61598W        W34023  36.929  24.266  14.448
61599W        W34024  18.270  32.951  10.709
61600W        W34025  32.006   0.557  12.174
61601W        W34026  21.059   2.677  13.801
61602W        W34027  37.480  33.471   0.312
61603W        W34028  27.959   2.489  11.601
61604W        W34029  11.803  31.835  13.279
61605W        W34030  20.162  28.132   2.177
61606W        W34031  24.647  24.636   1.697
61607W        W34032   7.862  13.497   4.659
61608W        W34033  18.221  26.871  10.407
61609W        W34034  26.410  14.409   1.285
61610W        W34035  14.376   7.384   0.254
61611W        W34036  14.865  19.216  14.535
61612W        W34037  19.619  19.652   3.343
61613W        W34038  18.760  29.225   0.761
61614W        W34039  13.276  18.721  11.800
61615W        W34040  21.737  23.514   1.722
61616W        W34041  44.871  11.594  12.816
61617W        W34042  32.539   5.323   4.282
61618W        W34043  40.243  24.765  11.509
61619W        W34044   5.903  41.420   2.764
61620W        W34045  15.633  33.105  13.509
61621W        W34046  23.851  16.842  13.757
61622W        W34047   1.468  31.187  13.870
61623W        W34048  29.476  26.463   2.239
61624W        W34049  14.268   3.045   2.384
61625W        W34050  28.072  43.728  14.421
61626W        W34051   9.663  41.611  11.014
61627W        W34052  32.659  43.928   4.930
61628W        W34053  22.709  34.532   4.228
61629W        W34054  43.920  42.506  13.948
61630W        W34055   6.224  39.551  11.604
61631W        W34056  41.097  12.247  12.092
61632W        W34057   2.406  26.279   1.740
61633W        W34058  33.889   7.178   2.613
61634W        W34059  40.445   1.346  12.759
61635W        W34060  27.431   6.845   0.774
61636W        W34061  14.363  40.487  13.394
61637W        W34062   9.459  25.492   1.694
61638W        W34063  10.720   9.101   0.893
61639W        W34064  10.386  19.951  10.959
61640W        W34065  28.444  18.513  11.808
61641W        W34066  23.056  33.316   3.169
61642W        W34067  34.322  23.289  12.923
61643W        W34068  36.391  18.659  13.404
61644W        W34069   5.008  23.984   4.253
61645W        W34070   5.015  41.760   2.292
61646W        W34071  41.481   0.288  10.377
61647W        W34072   2.218   9.383   0.920
61648W        W34073  29.890  21.466   3.564
61649W        W34074  30.553  16.683   5.583
61650W        W34075   6.130  12.954   3.267
61651W        W34076  35.856  41.585  12.494
61652W        W34077  39.259  37.705  14.280
61653W        W34078  13.277  21.016   1.748
61654W        W34079  41.714   5.820  12.599
61655W        W34080  40.589  10.732   0.681
61656W        W34081  24.092   4.282  13.262
61657W        W34082  12.274  21.810   2.181
61658W        W34083  18.840  43.349   2.344
61659W        W34084   8.028  33.212  10.149
61660W        W34085  43.917  38.824   3.709
61661W        W34086  17.725  15.262  10.486
61662W        W34087  29.412  37.423  13.385
61663W        W34088  30.296  19.247  12.959
61664W        W34089  13.497   9.843   0.051
61665W        W34090   7.770  38.789   2.689
61666W        W34091   1.752  18.296   4.619
61667W        W34092  16.058  28.096   1.633
61668W        W34093  19.514  22.593  10.390
61669W        W34094  32.873   5.863   1.217
61670W        W34095  41.597  10.552   3.491
61671W        W34096  22.979   4.225  11.082
61672W        W34097  43.929  24.003   2.337
61673W        W34098  33.893  23.123   1.077
61674W        W34099  12.093   0.428   4.706
61675W        W34100   0.261  40.025  11.220
61676W        W34101  14.245   7.868   0.376
61677W        W34102   7.041  11.707   5.002
61678W        W34103  15.681   3.407  13.763
61679W        W34104  19.809  40.315  14.481
61680W        W34105  42.545  25.049   0.747
61681W        W34106   9.350  15.089  13.535
61682W        W34107  12.646  23.795   1.747
61683W        W34108  35.986   7.468  14.117
61684W        W34109  39.589   3.834   3.721
61685W        W34110  23.660   6.329  13.780
61686W        W34111  36.518   6.191   2.200
61687W        W34112  12.050   3.167   3.739
61688W        W34113  10.569  21.151   2.200
61689W        W34114  14.610  11.348  13.589
61690W        W34115  44.460  38.577  14.837
61691W        W34116   4.493   5.702  12.580
61692W        W34117  42.420  37.408  13.885
61693W        W34118  11.751  21.276  10.267
61694W        W34119   5.980  10.532   4.105
61695W        W34120  26.990  22.804   1.899
61696W        W34121   2.538  31.102  11.125
61697W        W34122  31.344   8.230   0.821
61698W        W34123   8.909   0.330  12.438
61699W        W34124   6.392  22.286  11.559
61700W        W34125  15.234  35.988  12.859
61701W        W34126  31.833  36.350  10.868
61702W        W34127  15.168   6.292  10.664
61703W        W34128  17.181   9.222   2.928
61704W        W34129  38.084  38.821  12.467
61705W        W34130  17.914  38.856   2.870
61706W        W34131  34.575  11.714   2.231
61707W        W34132   5.950   5.366  13.432
61708W        W34133  29.192  32.167   1.485
61709W        W34134  33.927  39.974  11.650
61710W        W34135   9.643  20.708   2.713
61711W        W34136  30.163  37.619   3.245
61712W        W34137  30.548  44.278   3.174
61713W        W34138  12.799  42.350  11.675
61714W        W34139  33.117  29.935  13.469
61715W        W34140  39.124  13.748  13.330
61716W        W34141  26.248  21.646   4.057
61717W        W34142  18.246   4.911  11.467
61718W        W34143  35.738  16.484   4.239
61719W        W34144  24.943  20.575   2.836
61720W        W34145   0.368   3.676   1.770
61721W        W34146  26.969  11.829  12.327
61722W        W34147  11.257  18.239  10.731
61723W        W34148  14.680  17.487   4.183
61724W        W34149  33.156  13.223  13.386
61725W        W34150  35.923   7.980  14.087
61726W        W34151  25.342  22.597  10.692
61727W        W34152   8.039  35.088   9.834
61728W        W34153  44.852  16.130  13.454
61729W        W34154  25.739  27.857   5.043
61730W        W34155  23.177  44.081  14.851
61731W        W34156  16.729  14.905  12.571
61732W        W34157  38.096  18.595   1.609
61733W        W34158  12.999  34.968  12.974
61734W        W34159   8.892  29.554   4.532
61735W        W34160  27.048   3.451   0.807
61736W        W34161  22.759   9.341   3.140
61737W        W34162  25.478  13.858   2.191
61738W        W34163  13.968   1.455   0.800
61739W        W34164  27.090  25.976  13.623
61740W        W34165  23.122   1.062  12.883
61741W        W34166  35.555  30.155   2.587
61742W        W34167  32.448  35.919   2.902
61743W        W34168  17.851   8.371  13.477
61744W        W34169  11.237  24.145   3.700
61745W        W34170  17.600  29.184  14.682
61746W        W34171  40.442  18.046  14.505
61747W        W34172  36.073  33.482  11.623
61748W        W34173  40.061  34.852   0.029
61749W        W34174  10.220  35.067  11.463
61750W        W34175  26.158   1.490  11.454
61751W        W34176   3.123  44.511   9.855
61752W        W34177  44.947   3.411   0.303
61753W        W34178  36.904  39.297  13.894
61754W        W34179  11.873  20.284   1.400
61755W        W34180   2.489   2.802  13.911
61756W        W34181   4.418   1.281  14.458
61757W        W34182  17.702   3.751   4.172
61758W        W34183  15.267  30.549   2.376
61759W        W34184  24.164  35.543   1.799
61760W        W34185   8.820  32.594   3.223
61761W        W34186  41.602  16.198  12.556
61762W        W34187  20.771  21.563  11.258
61763W        W34188  12.126  37.887  13.729
61764W        W34189  13.277  13.573   0.249
61765W        W34190  35.814  40.938   3.669
61766W        W34191  38.832  30.115   0.258
61767W        W34192  40.370  20.605   0.419
61768W        W34193  23.732  28.267  13.868
61769W        W34194  24.551  15.524   2.675
61770W        W34195  40.556  17.169  14.981
61771W        W34196  43.372  36.922   2.448
61772W        W34197  14.176  12.384   0.851
61773W        W34198   4.883  42.501   2.757
61774W        W34199  13.333  26.226  10.273
61775W        W34200  36.715  23.083   9.733
61776W        W34201  14.973  11.230  14.544
61777W        W34202  39.573  15.982   0.590
61778W        W34203  20.211  24.626   1.408
61779W        W34204  34.043  27.411  14.478
61780W        W34205  20.001  13.861  11.886
61781W        W34206  31.465   7.425   0.838
61782W        W34207   1.895  39.993   0.431
61783W        W34208  24.530  40.992  14.523
61784W        W34209   2.409  31.334  12.977
61785W        W34210  25.507   8.984   1.805
61786W        W34211  13.650  27.806   0.044
61787W        W34212  37.991  14.804  13.416
61788W        W34213  11.402   8.869  13.765
61789W        W34214  37.477  33.000  10.983
61790W        W34215  35.522  26.647   1.641
61791W        W34216  37.695  17.974  10.738
61792W        W34217  19.682  12.893   3.644
61793W        W34218  27.937  19.025  11.063
61794W        W34219  19.854  28.146   4.898
61795W        W34220  27.435   0.650  10.547
61796W        W34221  37.995   9.919   3.569
61797W        W34222  37.363  26.944   0.407
61798W        W34223  27.232  36.404   1.212
61799W        W34224  25.987  35.288  11.405
61800W        W34225   3.603  14.351  12.832
61801W        W34226   1.487  37.802   4.307
61802W        W34227  35.196  23.684  12.104
61803W        W34228  21.741   8.316   5.177
61804W        W34229  10.794   9.338   3.124
61805W        W34230   2.566  19.574   1.777
61806W        W34231  44.105  23.454   0.912
61807W        W34232  19.177  41.358   3.078
61808W        W34233  35.192  25.048   1.445
61809W        W34234  26.703  11.362  10.297
61810W        W34235  43.147  31.095  12.011
61811W        W34236  24.055   5.814  11.114
61812W        W34237  34.534  30.684  14.307
61813W        W34238  17.057   7.151  14.962
61814W        W34239   7.291  23.142  12.116
61815W        W34240  20.023  19.075  11.639
61816W        W34241  44.540  26.092  14.649
61817W        W34242   5.714  31.386  13.975
61818W        W34243  17.875  24.470  12.973
61819W        W34244  10.778  29.494  11.323
61820W        W34245  32.650  23.054  13.132
61821W        W34246  38.694  37.950  12.633
61822W        W34247  10.013  13.696  11.595
61823W        W34248  23.101  40.949  12.547
61824W        W34249  30.234  18.279  13.963
61825W        W34250  10.353  29.042   0.397
61826W        W34251  18.016  38.448  10.676
61827W        W34252  13.125  29.197   0.214
61828W        W34253  26.157  28.107   0.806
61829W        W34254  14.022  29.791  11.978
61830W        W34255  42.845   7.331  10.237
61831W        W34256   4.756  11.536  12.271
61832W        W34257  17.768  10.208   1.585
61833W        W34258   8.773   9.633  10.539
61834W        W34259   2.923  36.583   3.228
61835W        W34260  36.491  24.570   2.334
61836W        W34261  42.931  18.771  14.540
61837W        W34262  18.130   9.731   4.499
61838W        W34263  29.070   8.604  12.069
61839W        W34264  39.543  27.537   0.821
61840W        W34265  20.748   3.781   4.146
61841W        W34266   2.745  34.154  10.785
61842W        W34267   0.258  22.910  11.618
61843W        W34268  14.037   4.794  11.212
61844W        W34269  29.459  20.505  11.073
61845W        W34270  27.937  24.783  12.577
61846W        W34271  23.781  27.107   2.721
61847W        W34272  14.899   0.011  13.314
61848W        W34273  42.946   6.745  11.973
61849W        W34274  38.468   0.397   1.145
61850W        W34275  31.995  40.801  11.704
61851W        W34276  26.650  44.835   2.956
61852W        W34277  18.624   7.103   3.672
61853W        W34278  22.295  26.092  11.890
61854W        W34279  34.387   0.814  10.698
61855W        W34280  36.829  37.036  12.144
61856W        W34281   5.760  28.044   3.338
61857W        W34282  38.934  37.048  12.961
61858W        W34283  30.666   2.850   1.714
61859W        W34284  25.350  17.266  14.377
61860W        W34285  44.920   5.956  13.528
61861W        W34286   2.867   5.389  14.274
61862W        W34287  18.907  14.651   3.292
61863W        W34288  27.280   2.735   1.327
61864W        W34289   0.361  37.114   4.769
61865W        W34290  36.846  20.536  12.343
61866W        W34291   4.850   7.679  12.098
61867W        W34292  30.648  41.067   4.134
61868W        W34293  15.228  34.955   2.198
61869W        W34294  29.368   2.026  14.334
61870W        W34295  18.535  35.964  13.504
61871W        W34296  43.547  13.749   2.688
61872W        W34297   7.370  26.002   0.763
61873W        W34298  38.367  40.852  11.407
61874W        W34299  15.991   5.523   4.159
61875W        W34300   9.837  22.061   1.701
61876W        W34301   7.271  30.975  12.511
61877W        W34302   9.407  24.613  14.311
61878W        W34303  33.255  10.094  14.284
61879W        W34304  17.019  18.500   3.703
61880W        W34305  18.190   2.250   0.886
61881W        W34306  20.052  28.660   1.332
61882W        W34307  32.978  20.592   2.790
61883W        W34308  41.719   1.129  13.446
61884W        W34309   3.763  41.410   1.479
61885W        W34310  22.575   1.492  12.456
61886W        W34311  20.115  29.885  13.731
61887W        W34312  42.378  10.377   3.315
61888W        W34313  35.246  31.446   2.349
61889W        W34314  15.709   4.871  13.551
61890W        W34315  42.127  18.714   1.301
61891W        W34316  22.650  20.358  11.938
61892W        W34317  13.655   8.227  12.963
61893W        W34318  26.712  40.941  11.062
61894W        W34319  22.114   3.755   1.019
61895W        W34320  39.925  14.631  12.226
61896W        W34321  24.168   7.839   0.005
61897W        W34322   0.293   8.379   1.422
61898W        W34323  42.378  20.682   1.236
61899W        W34324  34.838  20.018   4.654
61900W        W34325  27.697  26.668   4.660
61901W        W34326   6.197   9.427  12.106
61902W        W34327  37.841  25.056   1.871
61903W        W34328  10.420   5.770   2.211
61904W        W34329  25.710   9.902  11.479
61905W        W34330  34.386  20.234  11.982
61906W        W34331  22.027   9.149   5.053
61907W        W34332  43.351  10.848  11.166
61908W        W34333  22.713  34.944   2.491
61909W        W34334  14.360  18.616  13.444
61910W        W34335  12.752   1.922  13.621
61911W        W34336  38.327  25.035  11.432
61912W        W34337  35.180  42.723  11.602
61913W        W34338  39.824   2.313   2.348
61914W        W34339  42.570   5.236  14.733
61915W        W34340  31.474   5.251  13.544
61916W        W34341  25.829  31.534   4.331
61917W        W34342  21.758  33.313  12.969
61918W        W34343  34.093  15.761  14.277
61919W        W34344  30.061  29.462  11.550
61920W        W34345  15.885  15.333  10.592
61921W        W34346  19.148  11.383   1.710
61922W        W34347  38.743  22.243   1.814
61923W        W34348  32.781  23.961   4.323
61924W        W34349  21.833   4.006  13.295
61925W        W34350   8.360   9.137   5.518
61926W        W34351  19.240  32.563   1.744
61927W        W34352  21.841  35.111   4.207
61928W        W34353  36.402  20.682   2.387
61929W        W34354  35.317  17.075   5.178
61930W        W34355  30.293  30.360  10.516
61931W        W34356  12.821  30.808   5.070
61932W        W34357  29.887  40.886  12.813
61933W        W34358  23.185  26.290   0.328
61934W        W34359   1.325   8.508  11.831
61935W        W34360  42.513  29.859   4.853
61936W        W34361   0.441  23.598   0.288
61937W        W34362   0.071  21.063  11.746
61938W        W34363   1.838  26.295  12.435
61939W        W34364  33.021   7.512   3.153
61940W        W34365  29.899  25.719  10.668
61941W        W34366   9.483  30.581   0.366
61942W        W34367  34.252  36.941   1.742
61943W        W34368   7.281  26.618   3.868
61944W        W34369  21.926  11.364  12.345
61945W        W34370  14.196  30.556  14.052
61946W        W34371  13.284  18.707   0.380
61947W        W34372  15.240  30.609  12.261
61948W        W34373  23.071  17.980   2.234
61949W        W34374  24.961  13.363   3.172
61950W        W34375  25.237  18.825   1.731
61951W        W34376  10.918  10.788   3.742
61952W        W34377   3.260  36.422   4.197
61953W        W34378   8.181  33.999   2.686
61954W        W34379  10.183   7.396   4.496
61955W        W34380   8.607  37.604   3.627
61956W        W34381  13.878  19.258   1.891
61957W        W34382   3.089  19.239  11.510
61958W        W34383   6.193  41.600   1.259
61959W        W34384  24.222  13.653  13.017
61960W        W34385  28.397  38.019   1.947
61961W        W34386  25.693  16.104   3.988
61962W        W34387  43.016  17.780   3.152
61963W        W34388   7.907   5.276  14.414
61964W        W34389  27.007  32.005   0.437
61965W        W34390  43.032   6.641  12.488
61966W        W34391  21.975  32.444  13.936
61967W        W34392   9.840  14.194   1.473
61968W        W34393  28.013  13.496   1.891
61969W        W34394  35.641   9.126   4.010
61970W        W34395  43.919  36.585  14.328
61971W        W34396   8.980  41.985   2.830
61972W        W34397  15.030  22.665   4.148
61973W        W34398   4.061  18.444   3.756
61974W        W34399  32.219  20.294   2.803
61975W        W34400  20.385  14.900  13.467
61976W        W34401   1.833  44.333  14.053
61977W        W34402  29.513  43.256  11.651
61978W        W34403  10.180  44.914   1.166
61979W        W34404  39.019   9.833   0.374
61980W        W34405  30.178  27.470  11.101
61981W        W34406  17.114  35.960   2.856
61982W        W34407  18.532  11.865  11.212
61983W        W34408  12.744   5.189  12.479
61984W        W34409  16.248  22.922  11.873
61985W        W34410  18.043  40.078  11.416
61986W        W34411   2.733   0.513  14.597
61987W        W34412  30.850  16.182   1.752
61988W        W34413   6.203  16.233  12.927
61989W        W34414  35.299   9.214   0.767
61990W        W34415  37.623  42.447   3.771
61991W        W34416   1.764  38.843   1.276
61992W        W34417  23.224  37.460  10.683
61993W        W34418  35.777   5.003  12.608
61994W        W34419  22.512  27.608   0.033
61995W        W34420  39.697  15.491  12.056
61996W        W34421  32.195  15.151  12.501
61997W        W34422   6.015  37.275   1.709
61998W        W34423  38.966  33.807  13.042
61999W        W34424   0.485   7.352  13.826
62000W        W34425  30.351  16.220   0.653
62001W        W34426  21.992  20.654   0.356
62002W        W34427  40.086  15.292   4.160
62003W        W34428  31.841  14.110   0.909
62004W        W34429  40.776  19.831  12.932
62005W        W34430  37.324  26.925  10.676
62006W        W34431   5.670  19.578  10.820
62007W        W34432  41.066  33.810  11.306
62008W        W34433  12.305  31.034  11.565
62009W        W34434  16.795   9.136   4.065
62010W        W34435  23.178   8.895  13.922
62011W        W34436  24.485  20.175   4.176
62012W        W34437  16.858  24.225  12.953
62013W        W34438  30.162  35.576   0.769
62014W        W34439  34.015  22.240  11.104
62015W        W34440  16.358  20.709   0.368
62016W        W34441   7.289  43.192   4.983
62017W        W34442  39.370  31.335   1.531
62018W        W34443  11.279  14.324  13.754
62019W        W34444   7.177   6.442  14.858
62020W        W34445  36.155   8.208   4.744
62021W        W34446  28.996  14.635   4.954
62022W        W34447   1.744  43.883  13.772
62023W        W34448   6.185  40.263  13.899
62024W        W34449  22.228  37.873   1.344
62025W        W34450   4.142  15.856  12.556
62026W        W34451  21.080  12.904   3.219
62027W        W34452  40.851  29.057  12.039
62028W        W34453  21.014  17.822   2.288
62029W        W34454  35.108   7.398   3.035
62030W        W34455  10.914   4.738  12.475
62031W        W34456  38.519  41.225   3.692
62032W        W34457  32.078  40.255  10.612
62033W        W34458   7.805  17.189  11.114
62034W        W34459  44.554  13.344   0.785
62035W        W34460  42.716  38.475   2.277
62036W        W34461  16.369  33.854   0.979
62037W        W34462  19.501  20.314   1.319
62038W        W34463  38.365  12.887  14.536
62039W        W34464  37.502  17.714   1.894
62040W        W34465  24.999  11.199   1.973
62041W        W34466  15.669   1.237   0.425
62042W        W34467  19.527  23.786  12.079
62043W        W34468   5.100  13.361  13.579
62044W        W34469  11.684  15.122   1.453
62045W        W34470  29.379  40.163   4.180
62046W        W34471  20.589  18.253   1.226
62047W        W34472  20.166  25.420   1.786
62048W        W34473  22.784  21.240  10.943
62049W        W34474  29.789  31.817   4.410
62050W        W34475   5.894  42.454   2.874
62051W        W34476  24.610   6.717   0.947
62052W        W34477  18.712  24.396  14.964
62053W        W34478   6.604  11.154   3.511
62054W        W34479   4.012  38.305   0.627
62055W        W34480  14.755  43.196   1.819
62056W        W34481   5.071   1.042  10.548
62057W        W34482  31.993  19.724  11.868
62058W        W34483   6.372  35.299  11.657
62059W        W34484   0.932  28.626  11.261
62060W        W34485  22.190  22.260  13.773
62061W        W34486  22.635  14.614   4.097
62062W        W34487   4.187  20.159  10.766
62063W        W34488  20.377  17.355  14.774
62064W        W34489  18.112  24.952   3.703
62065W        W34490   6.450  11.630   0.843
62066W        W34491  31.727  26.998  12.573
62067W        W34492   2.992  41.342   4.735
62068W        W34493   2.754  21.229   4.503
62069W        W34494   1.216  29.114   4.122
62070W        W34495  22.586  14.165  12.562
62071W        W34496   8.737  10.057   0.874
62072W        W34497  17.201  21.183   1.889
62073W        W34498  24.277  38.103   4.031
62074W        W34499   7.867  29.661   4.518
62075W        W34500   8.371  43.255  14.620
62076W        W34501  14.723  12.884  13.795
62077W        W34502  27.085  27.628   2.325
62078W        W34503  30.687  29.839  11.597
62079W        W34504  27.998  23.001  12.940
62080W        W34505  29.731  33.493  10.597
62081W        W34506  15.067  35.517  14.428
62082W        W34507  35.508  14.710  12.169
62083W        W34508   1.435  28.643   3.644
62084W        W34509  38.053  12.345  10.855
62085W        W34510  29.808  42.347  13.859
62086W        W34511  16.611  22.511   1.400
62087W        W34512  19.943   0.345   0.422
62088W        W34513  28.364   5.313  12.421
62089W        W34514  38.409  24.119   9.774
62090W        W34515  10.229  13.505   4.550
62091W        W34516   9.563  40.236  12.503
62092W        W34517  41.868  18.019   2.732
62093W        W34518   3.084  33.613  11.268
62094W        W34519  13.427  38.794   4.266
62095W        W34520  23.057  19.252  12.076
62096W        W34521   2.188  36.554  10.730
62097W        W34522  39.958  38.181  11.427
62098W        W34523  33.941  41.300  12.953
62099W        W34524  29.583  33.504   1.146
62100W        W34525  22.711  38.941   4.953
62101W        W34526  34.842  18.501  13.318
62102W        W34527  41.094  31.200   2.817
62103W        W34528  12.258  37.923  13.242
62104W        W34529  36.604  42.624   0.192
62105W        W34530  36.831   5.991  10.795
62106W        W34531  13.555  24.934   1.015
62107W        W34532  44.969  38.597  11.114
62108W        W34533  34.033  16.962   9.906
62109W        W34534   5.452  44.275  13.977
62110W        W34535  40.584  40.935   2.440
62111W        W34536  13.274  34.968   3.627
62112W        W34537  28.675  41.880  12.044
62113W        W34538  43.502   3.343   2.610
62114W        W34539  15.394  30.095   4.653
62115W        W34540  38.058  10.768  11.590
62116W        W34541  17.892  32.597   3.709
62117W        W34542   7.362  17.722   1.322
62118W        W34543  37.816  14.787   2.138
62119W        W34544  19.672  27.961   3.920
62120W        W34545  12.822  34.385   4.191
62121W        W34546  18.700   2.775  13.514
62122W        W34547   3.850   2.835   0.710
62123W        W34548   2.022  23.640  14.379
62124W        W34549   3.700   0.723  12.392
62125W        W34550  44.380  22.035  13.502
62126W        W34551   4.704  33.634  13.350
62127W        W34552  27.757  28.144  13.548
62128W        W34553   8.192  15.118   3.123
62129W        W34554  24.842  24.908  12.583
62130W        W34555  32.930   9.825   2.219
62131W        W34556  20.087   1.844   0.428
62132W        W34557  38.066   3.897  13.229
62133W        W34558  11.077  14.782  13.938
62134W        W34559  32.979  24.238   2.315
62135W        W34560  44.251  18.579  13.959
62136W        W34561   3.943  28.108   1.225
62137W        W34562  42.893  36.455   0.282
62138W        W34563  43.330  33.974   4.552
62139W        W34564  40.310  10.213  11.620
62140W        W34565  36.520   1.428   2.763
62141W        W34566   3.031  40.811  13.791
62142W        W34567  30.053   3.075  14.620
62143W        W34568  33.036  35.206   1.326
62144W        W34569   1.692  40.009   2.349
62145W        W34570  28.370  43.434  13.553
62146W        W34571  39.793   4.666  11.253
62147W        W34572   3.577  12.832   2.543
62148W        W34573  23.133  40.491   1.508
62149W        W34574  38.025  39.590  14.526
62150W        W34575  17.843  25.017  11.178
62151W        W34576   8.434  17.351   3.681
62152W        W34577  14.704  29.085  12.865
62153W        W34578   1.141  29.700  13.478
62154W        W34579  23.087  14.596  11.176
62155W        W34580   9.835   6.965  10.714
62156W        W34581   5.356   8.561   1.808
62157W        W34582  19.249   1.797  11.395
62158W        W34583  26.238  25.117  12.943
62159W        W34584  24.866   9.079  11.178
62160W        W34585  26.400  17.878   0.313
62161W        W34586   9.467  38.303   1.706
62162W        W34587   9.086   8.115   4.168
62163W        W34588  40.910  39.838   4.598
62164W        W34589   8.315  37.981   5.163
62165W        W34590  37.992  30.697  12.078
62166W        W34591  25.694  37.108   2.131
62167W        W34592  44.322  31.647  14.338
62168W        W34593  14.360  38.801  13.123
62169W        W34594  17.487  17.161   0.424
62170W        W34595  33.392  19.275  12.470
62171W        W34596   0.315   8.954   3.765
62172W        W34597  21.493   3.191  12.988
62173W        W34598  10.605  16.545   0.406
62174W        W34599  20.409  19.164  11.279
62175W        W34600   7.728  24.570   3.657
62176W        W34601  29.323  40.023  14.279
62177W        W34602   3.743  39.740   4.578
62178W        W34603  21.046  23.549  12.052
62179W        W34604   5.471  40.131  14.681
62180W        W34605   2.738   9.144  13.819
62181W        W34606   4.770   1.645   2.941
62182W        W34607  22.638   0.334   1.429
62183W        W34608  19.730  43.540  13.797
62184W        W34609  43.370  44.403   3.177
62185W        W34610  32.514  29.144   0.229
62186W        W34611  40.309  38.081  14.898
62187W        W34612  26.949   7.149  13.876
62188W        W34613  29.514  11.563  10.347
62189W        W34614   8.705  14.888  12.647
62190W        W34615  13.102  14.799  14.846
62191W        W34616  30.198  19.229   5.049
62192W        W34617   4.901   8.304   1.924
62193W        W34618  33.019  18.868   0.577
62194W        W34619  17.755  35.818   1.852
62195W        W34620  14.178  44.767  12.163
62196W        W34621   4.514  23.562  12.448
62197W        W34622  11.920   9.293   1.475
62198W        W34623   9.611  37.629  12.337
62199W        W34624  39.912  31.156   0.793
62200W        W34625  14.503  19.817  10.597
62201W        W34626  11.635  35.482  13.498
62202W        W34627  34.996  12.382  11.082
62203W        W34628   5.460  32.022   0.669
62204W        W34629   0.491   0.036  11.551
62205W        W34630  11.029  14.021  14.545
62206W        W34631  43.941   2.723   1.970
62207W        W34632  31.529  37.345   3.227
62208W        W34633  22.916  36.142  12.790
62209W        W34634  15.142  21.534  14.682
62210W        W34635  34.650  41.460  11.207
62211W        W34636  43.378  20.087  10.494
62212W        W34637  19.787   8.119  11.098
62213W        W34638  23.793  44.486   4.999
62214W        W34639  43.087  21.080  11.999
62215W        W34640  26.645  13.698   0.241
62216W        W34641   5.685  15.904  14.546
62217W        W34642  42.861   8.239   0.055
62218W        W34643  29.999  36.788  11.053
62219W        W34644   8.861   4.931  10.179
62220W        W34645   0.607  19.740  11.108
62221W        W34646  40.323  32.527   2.915
62222W        W34647  40.168  26.437  11.554
62223W        W34648  14.092  13.312   0.948
62224W        W34649  18.643  40.811   0.184
62225W        W34650   0.907   2.378  10.409
62226W        W34651  28.638  10.569   1.722
62227W        W34652  25.192  15.581  10.777
62228W        W34653  25.690   8.136  11.908
62229W        W34654  30.219  44.773  12.411
62230W        W34655  36.562  13.256  14.442
62231W        W34656  25.446  26.467  12.255
62232W        W34657   5.672  43.834   4.266
62233W        W34658  35.584   3.402   5.012
62234W        W34659   4.818   4.806  12.007
62235W        W34660  21.478  38.044  10.682
62236W        W34661  25.972   6.111   4.652
62237W        W34662  15.105  30.683   1.575
62238W        W34663  40.424  39.343  14.363
62239W        W34664  34.828  36.003   4.652
62240W        W34665  29.378   1.935  12.465
62241W        W34666  36.098   0.261  10.844
62242W        W34667  28.958  27.665  12.448
62243W        W34668  30.484  31.385  11.943
62244W        W34669  18.275   7.456   0.391
62245W        W34670  10.362  25.912   1.699
62246W        W34671  43.798  14.229  12.509
62247W        W34672  40.447  42.750  13.376
62248W        W34673  17.060   3.989   2.439
62249W        W34674  25.611   8.809   1.039
62250W        W34675   2.839   3.273  14.982
62251W        W34676  34.411  37.375  14.973
62252W        W34677  33.394  32.878   0.253
62253W        W34678  22.669  10.829  14.855
62254W        W34679  23.653  41.265  12.431
62255W        W34680  27.756  16.928   3.736
62256W        W34681  28.090   7.406   3.772
62257W        W34682   5.162  35.507   1.746
62258W        W34683  14.036  17.573  10.721
62259W        W34684  27.573  33.673  12.419
62260W        W34685  12.613  18.097   3.068
62261W        W34686  11.416  36.973   4.593
62262W        W34687  27.560  30.841   0.749
62263W        W34688  18.983   6.920   4.225
62264W        W34689  34.996  26.840  10.547
62265W        W34690  30.422  32.714   0.785
62266W        W34691  10.363  12.205  10.787
62267W        W34692  40.754  28.495   3.876
62268W        W34693  27.423  41.756   0.082
62269W        W34694  23.518  31.765   1.909
62270W        W34695   0.889  22.736   4.261
62271W        W34696  33.397  32.424   4.157
62272W        W34697  28.352  40.076   3.652
62273W        W34698  24.643  22.968   4.441
62274W        W34699  44.826  17.685   4.532
62275W        W34700   4.976  40.302   1.419
62276W        W34701   9.704  37.241   1.896
62277W        W34702  21.916   8.362   1.340
62278W        W34703   2.370  25.590  12.426
62279W        W34704  32.168  19.697  14.960
62280W        W34705  35.591  30.736  10.614
62281W        W34706  16.253  10.076   0.252
62282W        W34707  13.686  30.061   1.977
62283W        W34708  44.434  33.459   0.869
62284W        W34709   4.866  34.358  10.077
62285W        W34710   7.301  41.025   1.790
62286W        W34711  25.663  34.343   0.510
62287W        W34712  25.267   0.399  11.216
62288W        W34713   2.701  38.793  10.620
62289W        W34714  24.528  22.618  11.725
62290W        W34715  33.562  29.359  14.793
62291W        W34716  20.661  29.269  12.928
62292W        W34717  28.480  44.832  13.408
62293W        W34718   0.615  18.430  13.518
62294W        W34719  18.831  39.479  12.435
62295W        W34720  19.299  17.712   1.024
62296W        W34721  24.227   8.866  11.028
62297W        W34722  25.610  15.320   0.352
62298W        W34723  19.384   2.928   3.774
62299W        W34724  43.982  41.584   1.754
62300W        W34725  18.573  26.435  12.997
62301W        W34726   4.473   0.879   4.118
62302W        W34727  35.447  27.425   3.352
62303W        W34728  10.216  15.218  14.045
62304W        W34729  44.488   8.121   1.733
62305W        W34730  33.551  23.211   2.419
62306W        W34731  33.132  34.502  11.468
62307W        W34732  25.078  22.789  11.085
62308W        W34733   7.067  29.195  11.495
62309W        W34734  20.623  38.909   4.127
62310W        W34735   0.715   4.973  12.304
62311W        W34736  29.944  44.258   4.247
62312W        W34737  21.601  44.994   4.248
62313W        W34738  22.270  39.902  12.007
62314W        W34739  42.543   7.854   1.760
62315W        W34740  11.419  10.885  14.894
62316W        W34741  26.391   0.422  11.973
62317W        W34742  36.568  26.719   2.794
62318W        W34743  31.580   3.106   2.406
62319W        W34744  13.141  37.947  12.355
62320W        W34745  38.912   8.933  14.991
62321W        W34746  23.608   8.346  10.578
62322W        W34747   4.690  19.627   3.721
62323W        W34748  36.041  35.157  14.015
62324W        W34749  43.905  21.122  14.225
62325W        W34750  33.857  12.451  10.917
62326W        W34751   5.455  32.289   1.673
62327W        W34752   4.335  30.005  14.099
62328W        W34753  10.148  15.084  11.651
62329W        W34754  33.121  20.032  10.774
62330W        W34755  32.092  28.977   0.493
62331W        W34756  16.315  41.877   1.825
62332W        W34757  34.066  35.807  10.616
62333W        W34758   9.636   9.801   4.037
62334W        W34759  13.482  35.016  14.279
62335W        W34760  22.986  36.806   3.351
62336W        W34761  27.080  10.031   3.840
62337W        W34762  32.874   3.367   4.689
62338W        W34763   9.844  42.291  14.446
62339W        W34764  36.159  13.477   4.187
62340W        W34765  15.027  18.107   2.497
62341W        W34766  27.390  30.454   5.154
62342W        W34767  17.790   1.937   0.724
62343W        W34768  21.725  42.446   0.305
62344W        W34769  10.290  32.633   4.642
62345W        W34770  30.587  37.111  11.211
62346W        W34771  25.176  35.292  11.141
62347W        W34772  14.648  18.740  12.427
62348W        W34773  41.808   3.170  10.740
62349W        W34774  16.232  18.971  14.010
62350W        W34775  39.286  35.603  12.076
62351W        W34776  35.913  24.250  11.934
62352W        W34777  34.611  19.572   3.513
62353W        W34778  30.156   2.830  13.262
62354W        W34779  26.094  10.102  12.395
62355W        W34780  34.011  18.563   1.322
62356W        W34781  35.451  44.569  13.312
62357W        W34782   8.675  31.725  11.191
62358W        W34783  38.359   9.611   0.434
62359W        W34784  22.235  21.302   4.642
62360W        W34785  35.159   1.200  10.541
62361W        W34786  43.455   0.752  13.700
62362W        W34787  22.066   9.728   1.472
62363W        W34788   5.866  27.955   2.854
62364W        W34789  26.488  33.164   4.543
62365W        W34790  39.012  14.809  13.422
62366W        W34791   6.448  24.347   1.383
62367W        W34792  34.889  31.849  10.988
62368W        W34793   6.812  14.724   0.820
62369W        W34794  12.337  33.318   0.378
62370W        W34795  20.671  14.984   1.568
62371W        W34796   1.347  24.557   3.234
62372W        W34797  14.811  31.490   0.886
62373W        W34798  28.625   5.341  11.972
62374W        W34799   9.404   4.910  13.817
62375W        W34800   9.775  10.788  10.551
62376W        W34801  34.397  43.178   1.722
62377W        W34802  44.216  25.537   1.286
62378W        W34803  32.795   9.444  12.497
62379W        W34804  29.790  33.865   2.373
62380W        W34805  23.674  24.747   1.218
62381W        W34806  40.069  25.267   1.229
62382W        W34807  18.796  32.266  14.113
62383W        W34808  41.809   1.926   0.804
62384W        W34809   2.206  29.096  14.408
62385W        W34810  21.185  24.191   1.927
62386W        W34811  13.983  23.654  12.910
62387W        W34812  39.437   1.960   2.473
62388W        W34813  25.735  32.120  10.233
62389W        W34814   2.756  22.448   1.746
62390W        W34815   7.278   5.347   3.541
62391W        W34816  36.998   0.692   1.207
62392W        W34817  37.860   9.831  10.690
62393W        W34818  24.989  28.991  12.909
62394W        W34819  25.987  17.824  13.572
62395W        W34820   7.042   7.257   3.811
62396W        W34821   7.672   2.016   3.190
62397W        W34822  17.511  42.030   3.305
62398W        W34823  16.192  22.996   2.369
62399W        W34824  15.386  43.949  12.538
62400W        W34825  26.581  43.433  13.663
62401W        W34826  32.783  34.355  11.127
62402W        W34827  42.853  30.814   4.111
62403W        W34828  32.550  34.881  13.895
62404W        W34829  34.458  42.773   1.302
62405W        W34830  15.363  27.845   2.345
62406W        W34831  44.908  32.413  12.467
62407W        W34832  28.086  18.038  12.525
62408W        W34833  13.124  33.053  10.773
62409W        W34834  14.253  40.772   3.146
62410W        W34835   1.896  18.730  13.133
62411W        W34836  33.531   0.554  13.001
62412W        W34837  23.160  18.572  10.711
62413W        W34838  37.417  13.776  10.907
62414W        W34839  35.814   8.317   1.744
62415W        W34840  41.720  38.395  11.363
62416W        W34841  44.339   8.656   3.730
62417W        W34842  17.145  33.154   3.914
62418W        W34843   3.753   1.281   0.501
62419W        W34844  20.446  31.331   4.740
62420W        W34845  40.597  37.431   9.971
62421W        W34846   8.638  23.403  12.719
62422W        W34847  31.583  17.074   0.859
62423W        W34848  26.708   5.977   4.183
62424W        W34849  43.609  21.637   4.019
62425W        W34850  28.305  34.002  11.174
62426W        W34851  41.505   1.107  11.363
62427W        W34852  39.268  30.785  12.324
62428W        W34853  32.120  44.715  12.397
62429W        W34854  25.932   7.907   0.357
62430W        W34855   4.413  42.983  10.985
62431W        W34856  14.063  35.648   0.346
62432W        W34857  19.931  26.739   0.872
62433W        W34858   1.867  42.571   0.533
62434W        W34859  26.473  14.525  10.938
62435W        W34860  11.174  15.109  13.105
62436W        W34861  17.812  26.764  13.404
62437W        W34862  22.080  26.909   1.266
62438W        W34863  18.844  17.049  12.121
62439W        W34864  32.232  36.936   4.869
62440W        W34865  40.207   7.808   2.570
62441W        W34866  19.614  37.586   4.683
62442W        W34867  31.306   1.749   2.163
62443W        W34868  26.954   4.017  14.956
62444W        W34869  38.500  12.682  13.488
62445W        W34870   7.266  28.734   3.779
62446W        W34871  20.110   8.214  14.487
62447W        W34872  29.699  39.996   3.359
62448W        W34873   4.638  43.511   3.590
62449W        W34874  29.173  19.697   4.834
62450W        W34875   7.766   1.293  12.606
62451W        W34876  28.200   8.701  12.269
62452W        W34877   5.838  37.030  14.900
62453W        W34878  12.735   9.879  10.654
62454W        W34879   2.884  31.319  12.412
62455W        W34880  42.365  31.363   1.480
62456W        W34881  26.158  17.179   0.889
62457W        W34882  24.728  21.611   3.213
62458W        W34883   1.861  30.587   0.350
62459W        W34884   7.907  31.435  10.464
62460W        W34885   2.420  42.472   1.245
62461W        W34886  20.602  12.219   0.917
62462W        W34887  26.406  44.275   4.138
62463W        W34888  12.761  39.859  13.706
62464W        W34889  12.596  19.617   4.031
62465W        W34890  29.764  42.875  10.593
62466W        W34891  29.969  34.494   4.593
62467W        W34892  24.493   5.486  10.576
62468W        W34893   3.122  42.059  13.798
62469W        W34894  28.979   1.302   3.143
62470W        W34895  18.563  19.657  10.558
62471W        W34896  35.926  39.887   3.336
62472W        W34897   9.050  22.895  14.518
62473W        W34898   4.430   7.763   1.338
62474W        W34899  43.741   2.030  14.946
62475W        W34900  26.374  32.008   1.807
62476W        W34901  11.321  27.371  14.859
62477W        W34902  30.591  43.356  10.340
62478W        W34903  38.957   1.717   5.056
62479W        W34904  35.831  29.027  12.424
62480W        W34905  19.557  34.648   3.783
62481W        W34906   8.670   8.322   3.313
62482W        W34907  24.211  16.120   1.908
62483W        W34908  31.026   4.630   2.126
62484W        W34909  36.893  42.834   1.282
62485W        W34910  15.914   5.303   3.265
62486W        W34911   7.954  42.931   4.583
62487W        W34912  33.078  26.484   3.655
62488W        W34913   0.973  18.230   0.753
62489W        W34914  31.313  15.053   2.313
62490W        W34915  16.148  28.601   0.742
62491W        W34916  12.112  35.323  13.321
62492W        W34917   9.378  38.108   1.234
62493W        W34918  42.050   2.319   4.966
62494W        W34919  39.789  11.283  10.518
62495W        W34920  40.293  30.103   2.325
62496W        W34921   5.634   6.141   3.219
62497W        W34922  13.067  10.268  10.944
62498W        W34923   2.959  22.381  12.162
62499W        W34924  20.425  37.639   4.277
62500W        W34925   9.712   8.745  13.554
62501W        W34926  37.969  36.010   1.806
62502W        W34927  21.394  19.709  12.111
62503W        W34928  33.884  12.134  14.496
62504W        W34929  21.785  24.419  11.104
62505W        W34930   3.502  40.360  13.138
62506W        W34931  25.916  13.713   2.436
62507W        W34932  25.266   4.903   0.030
62508W        W34933  19.027  16.274   0.318
62509W        W34934  21.641  38.375   1.535
62510W        W34935  41.880  42.851  13.854
62511W        W34936  13.710   5.431  10.725
62512W        W34937  11.375   3.146  12.103
62513W        W34938  37.719  33.488   2.753
62514W        W34939   6.333   4.345  11.180
62515W        W34940  26.378  26.276   1.876
62516W        W34941  43.734  20.986   2.342
62517W        W34942  26.360  41.799   4.095
62518W        W34943  11.360  29.757   4.178
62519W        W34944  17.945  17.043  11.111
62520W        W34945  10.544  43.533  11.518
62521W        W34946  32.919   2.463  13.653
62522W        W34947  36.086   1.732   2.704
62523W        W34948  28.187  22.885  13.858
62524W        W34949  41.403  44.772   2.247
62525W        W34950  16.659  42.672   3.217
62526W        W34951  14.381  21.780   2.806
62527W        W34952  37.535  31.636  12.011
62528W        W34953  27.677  35.630  11.686
62529W        W34954  18.244  10.437  10.317
62530W        W34955   7.372  41.297  11.231
62531W        W34956  19.311  24.735   4.159
62532W        W34957  10.447  24.968  14.160
62533W        W34958  24.303   7.739   2.281
62534W        W34959   0.739  42.531   3.805
62535W        W34960  44.229  25.998  13.031
62536W        W34961  37.795  32.128  11.121
62537W        W34962   4.442   4.770   0.555
62538W        W34963  32.497  39.124   4.515
62539W        W34964  23.780  30.542  13.582
62540W        W34965  40.114  25.159  13.858
62541W        W34966   7.229  34.379   1.748
62542W        W34967  12.541  22.457   4.188
62543W        W34968  12.051  31.595   0.107
62544W        W34969  42.893  15.906   5.114
62545W        W34970  16.952  25.863  12.091
62546W        W34971  12.225   8.732   0.910
62547W        W34972   6.928  39.018  14.757
62548W        W34973  37.504  35.254   2.725
62549W        W34974  14.501  17.491  13.392
62550W        W34975  37.628  11.733   2.253
62551W        W34976  24.992  41.065  13.807
62552W        W34977  34.548  42.110  12.344
62553W        W34978  37.831  11.184   0.536
62554W        W34979  40.578  21.615  14.813
62555W        W34980   0.450  39.378   3.991
62556W        W34981  24.056  26.086   1.658
62557W        W34982  14.322  26.182   2.586
62558W        W34983  42.980  28.438   2.343
62559W        W34984  14.038  37.109  12.136
62560W        W34985   8.186   7.340   5.444
62561W        W34986  25.184   3.652   3.895
62562W        W34987  30.975  13.589   0.267
62563W        W34988  20.778  34.480   2.153
62564W        W34989   2.288  41.441   0.406
62565W        W34990   5.879  20.865   2.865
62566W        W34991  19.720  37.105   4.538
62567W        W34992  22.687  43.158   2.863
62568W        W34993  19.738  34.028  11.846
62569W        W34994  10.333  21.197  11.895
62570W        W34995  14.345   8.355   0.196
62571W        W34996   2.424  16.350   1.444
62572W        W34997  37.531   0.452  12.569
62573W        W34998  18.329  19.813   4.614
62574W        W34999  20.457  34.093  14.870
62575W        W35000   3.062  28.639   0.727
62576W        W35001  23.446  20.413   2.926
62577W        W35002  12.552  11.159   3.675
62578W        W35003   6.731   6.601  11.952
62579W        W35004  26.901  14.659  10.708
62580W        W35005  19.176  11.670  13.368
62581W        W35006  13.929  27.129  13.041
62582W        W35007  37.433  44.281   2.732
62583W        W35008  20.919  43.040   2.313
62584W        W35009  33.925  25.914  11.021
62585W        W35010   4.337  24.698   3.248
62586W        W35011   6.690  17.520   1.945
62587W        W35012   1.410  31.922   1.187
62588W        W35013   9.663  17.875  13.408
62589W        W35014  20.435  26.060  13.895
62590W        W35015  29.454  21.922   0.612
62591W        W35016  41.459  36.958   1.972
62592W        W35017  39.569  28.210   4.659
62593W        W35018  18.068  39.873   0.428
62594W        W35019  26.475  32.039   0.401
62595W        W35020  24.879  10.949   5.035
62596W        W35021  22.684  37.237  13.516
62597W        W35022  17.324  36.049   1.305
62598W        W35023  11.908  17.598  12.405
62599W        W35024  27.088  39.397   3.141
62600W        W35025  28.157  34.866  12.075
62601W        W35026  42.241  40.844   3.140
62602W        W35027  26.160   7.882  11.848
62603W        W35028   6.634   5.805  12.911
62604W        W35029  38.890   9.761   2.297
62605W        W35030  12.499  24.544   4.949
62606W        W35031  12.730  36.056   4.122
62607W        W35032  11.139  33.041  13.514
62608W        W35033  36.527  13.546   3.850
62609W        W35034  15.920   0.204   1.394
62610W        W35035  38.399   6.005   1.730
62611W        W35036  42.896  12.684   4.608
62612W        W35037   0.623   0.950   1.837
62613W        W35038  29.162  44.736   2.048
62614W        W35039  36.381   5.766   1.284
62615W        W35040  31.357  21.087   3.564
62616W        W35041  16.232  25.059   2.326
62617W        W35042  20.658  18.287  14.789
62618W        W35043  30.623  34.333   2.903
62619W        W35044  44.422   5.267   0.369
62620W        W35045  24.687  20.023   1.226
62621W        W35046  19.830  42.740  13.299
62622W        W35047  13.185  31.138   1.021
62623W        W35048   7.392  40.300   0.712
62624W        W35049   8.485   0.755   0.384
62625W        W35050  12.332  42.681  12.943
62626W        W35051  26.659   2.845  11.195
62627W        W35052   2.705  42.305   3.240
62628W        W35053  39.397   5.710  10.657
62629W        W35054  27.873   0.832  12.752
62630W        W35055  17.056  31.878   0.894
62631W        W35056  30.937  23.245  12.425
62632W        W35057  42.751  21.925  13.036
62633W        W35058   8.235   1.843  14.751
62634W        W35059   4.465  34.559   4.582
62635W        W35060  10.647   1.011   2.285
62636W        W35061  16.879  41.697  10.763
62637W        W35062   4.749   0.403  11.095
62638W        W35063   9.349  19.273   2.870
62639W        W35064  34.986  38.544   3.752
62640W        W35065   8.135  36.576  11.949
62641W        W35066  28.640  16.106   3.178
62642W        W35067  25.944   2.715   0.478
62643W        W35068  21.940   0.789   4.756
62644W        W35069  43.137  15.351  12.986
62645W        W35070  14.324  31.331   1.439
62646W        W35071  33.077  35.342  14.668
62647W        W35072   9.731   7.683   2.701
62648W        W35073   8.450  28.570   4.242
62649W        W35074  15.069  12.736   2.263
62650W        W35075  12.776  26.574   0.674
62651W        W35076   0.790   9.365   2.004
62652W        W35077  21.560  42.318  12.913
62653W        W35078  21.040  31.904   2.798
62654W        W35079  40.269  23.460   2.365
62655W        W35080  17.132   1.495   1.335
62656W        W35081  24.351  25.012   3.401
62657W        W35082  24.572  31.638   4.344
62658W        W35083  15.135  10.485  12.811
62659W        W35084  27.954  10.633   3.122
62660W        W35085  14.620  22.693  14.686
62661W        W35086  19.579  16.126   4.676
62662W        W35087  20.080  15.247   4.559
62663W        W35088  15.105  16.680  12.578
62664W        W35089   9.738  40.786   2.694
62665W        W35090  12.704   6.750   4.533
62666W        W35091   7.094   3.542  14.921
62667W        W35092  20.053  24.954  12.934
62668W        W35093  27.817   6.411  14.411
62669W        W35094  22.816  27.622   2.779
62670W        W35095  11.963  26.213   4.337
62671W        W35096  19.686   0.504   4.737
62672W        W35097  23.783  24.163  12.894
62673W        W35098  35.546  14.856   1.471
62674W        W35099  18.994   2.649  11.896
62675W        W35100   0.920  39.428  14.914
62676W        W35101  30.967  16.326  11.435
62677W        W35102  33.640  17.235  14.351
62678W        W35103  20.261  31.226   1.302
62679W        W35104   6.360   9.472   0.032
62680W        W35105   8.050  23.771  11.983
62681W        W35106  13.186  16.592  13.975
62682W        W35107   6.271  30.973  12.607
62683W        W35108  10.142  12.920  13.903
62684W        W35109  14.548  41.125  10.347
62685W        W35110  42.991  42.984   0.457
62686W        W35111   9.450  16.230   1.365
62687W        W35112  15.708  35.584  14.898
62688W        W35113   1.712  18.235   2.348
62689W        W35114  42.337  27.952   3.719
62690W        W35115  27.325  39.905   0.250
62691W        W35116  38.395  34.012   3.634
62692W        W35117  18.959   1.922  13.610
62693W        W35118  19.815  13.310   4.559
62694W        W35119   8.331  25.695  12.495
62695W        W35120  33.944  30.578   3.403
62696W        W35121  15.793  26.060   0.232
62697W        W35122  36.842  28.869   4.133
62698W        W35123  22.604  34.987  12.446
62699W        W35124  31.653  13.226  11.217
62700W        W35125  44.339  35.169   1.205
62701W        W35126  39.834  28.269  13.942
62702W        W35127  10.763  28.537   4.329
62703W        W35128  14.221  14.029   2.744
62704W        W35129   3.724  19.187  13.892
62705W        W35130  26.481   9.973   3.927
62706W        W35131   1.991   7.236   4.615
62707W        W35132  41.410  26.987   4.237
62708W        W35133  20.165   8.217   3.365
62709W        W35134  38.862  31.342  11.670
62710W        W35135  31.940  31.751  11.073
62711W        W35136  26.698  37.601  12.926
62712W        W35137  23.597  27.046   0.428
62713W        W35138  11.272  18.211   4.225
62714W        W35139  14.333   0.244  12.381
62715W        W35140  22.964  36.652  12.895
62716W        W35141  25.048  31.623   4.617
62717W        W35142  12.849  43.653  11.960
62718W        W35143  43.536  34.270  12.171
62719W        W35144   3.392  38.384   4.250
62720W        W35145  39.564  33.173  12.932
62721W        W35146  29.110  39.578  10.945
62722W        W35147  33.439  22.772   0.224
62723W        W35148  22.660   1.738   3.711
62724W        W35149  27.744  13.150  12.366
62725W        W35150  11.923   5.849   2.021
62726W        W35151  23.283   3.411  14.037
62727W        W35152   4.179  24.606  14.778
62728W        W35153  24.112   8.136  10.559
62729W        W35154  24.967  19.245   3.685
62730W        W35155   5.796  22.663   4.587
62731W        W35156  35.615  19.822  14.374
62732W        W35157   2.950  16.659   1.919
62733W        W35158  30.474   6.661   2.611
62734W        W35159  21.755  13.161   0.817
62735W        W35160  27.903  13.083  13.999
62736W        W35161  30.118  36.035  11.968
62737W        W35162  25.834  18.676  11.555
62738W        W35163  18.271  34.079  11.454
62739W        W35164  23.311  23.609   2.276
62740W        W35165  34.758   9.296   1.465
62741W        W35166  30.489  33.827   3.133
62742W        W35167  12.660  15.394  12.056
62743W        W35168  24.069  24.334  11.915
62744W        W35169   2.202   1.409   0.255
62745W        W35170  20.053  21.922  11.585
62746W        W35171  29.175  18.228   2.153
62747W        W35172   4.610  26.996   1.187
62748W        W35173  44.754  17.886  13.600
62749W        W35174  41.900  37.011  12.093
62750W        W35175  16.723  11.936   0.687
62751W        W35176  32.828  14.111   3.819
62752W        W35177  25.231  37.506  12.536
62753W        W35178  20.575  24.515   3.270
62754W        W35179   4.926   4.056   1.887
62755W        W35180  41.203   2.588   0.634
62756W        W35181  23.457  10.283   1.110
62757W        W35182   7.915  36.586   0.813
62758W        W35183  31.474   3.339  11.503
62759W        W35184   2.970   5.890  12.832
62760W        W35185   7.928  33.586  11.626
62761W        W35186   8.596   7.723   1.932
62762W        W35187  13.877   6.621  11.910
62763W        W35188  25.327  11.954   4.146
62764W        W35189  42.995   4.622   4.112
62765W        W35190  38.856  14.181  10.860
62766W        W35191   9.172  11.238  11.079
62767W        W35192  29.902   8.790   4.808
62768W        W35193  25.436  35.801  10.713
62769W        W35194  18.654  18.039   4.606
62770W        W35195  14.680  30.896   4.036
62771W        W35196  37.337  23.304   4.963
62772W        W35197  25.531  32.388  11.574
62773W        W35198  24.951  39.009  11.676
62774W        W35199  36.235  21.237  13.455
62775W        W35200  34.614  33.918  14.469
62776W        W35201  38.462  16.031  14.028
62777W        W35202  11.192  31.510   2.777
62778W        W35203  36.380   2.455   0.783
62779W        W35204  21.960  38.415   0.734
62780W        W35205  12.114   8.400  14.522
62781W        W35206  25.478  24.300   3.911
62782W        W35207  28.883  38.493   2.367
62783W        W35208  24.743  25.729   3.261
62784W        W35209  27.159  24.050  11.612
62785W        W35210   7.153  30.366  11.016
62786W        W35211   2.285  15.235  10.725
62787W        W35212  35.466  10.070   0.198
62788W        W35213  31.219  25.935  14.001
62789W        W35214  40.800  42.411  12.148
62790W        W35215  34.651   5.569  11.141
62791W        W35216   7.164  18.727  10.676
62792W        W35217  26.463   1.351   1.928
62793W        W35218  36.318  28.781   4.147
62794W        W35219  10.646   9.795   3.382
62795W        W35220  34.385  22.523  10.848
62796W        W35221   0.298  18.580  12.529
62797W        W35222  21.618   0.346   1.326
62798W        W35223  20.093   6.528  12.941
62799W        W35224   1.342  39.565   1.743
62800W        W35225  33.192   5.416   1.283
62801W        W35226  18.270  13.008  13.907
62802W        W35227  15.555  14.694   1.008
62803W        W35228   2.880   9.173   3.440
62804W        W35229  36.499  23.729  12.368
62805W        W35230   0.343  10.299   3.042
62806W        W35231  13.214   7.456   3.299
62807W        W35232  24.149  22.923  11.016
62808W        W35233  25.097  17.861  12.268
62809W        W35234   8.909  14.150   0.948
62810W        W35235   9.117  11.108   3.292
62811W        W35236   9.750   4.507  10.446
62812W        W35237   2.979  13.297   3.587
62813W        W35238   1.249  41.412   3.414
62814W        W35239  30.910  22.479   4.417
62815W        W35240   1.357   1.226  12.480
62816W        W35241   9.684  35.382  10.219
62817W        W35242  42.476   0.250  12.562
62818W        W35243  31.027  26.412   3.336
62819W        W35244  34.438  29.568  11.722
62820W        W35245  33.187   3.403  13.956
62821W        W35246  31.657   5.228   0.392
62822W        W35247  15.717  11.362  13.865
62823W        W35248  36.039  13.284   1.020
62824W        W35249   4.333  15.074   3.722
62825W        W35250  18.188  19.830  12.023
62826W        W35251  21.016   5.127  13.321
62827W        W35252  43.527  34.183   2.345
62828W        W35253  31.958   5.287  14.937
62829W        W35254  26.558   7.230  11.122
62830W        W35255  12.108  25.853  12.940
62831W        W35256   9.299   0.634  12.569
62832W        W35257  23.140  29.100   4.035
62833W        W35258  10.765  22.818   4.862
62834W        W35259  19.118  15.731  10.822
62835W        W35260  20.263  30.412   4.593
62836W        W35261  44.505  42.463   2.347
62837W        W35262  33.952   9.227   3.519
62838W        W35263   8.611   9.894   3.914
62839W        W35264  18.495  11.744   3.098
62840W        W35265   6.185   8.438  12.477
62841W        W35266   8.169  37.964   1.397
62842W        W35267  26.270  43.585  11.673
62843W        W35268  17.752  34.331  12.993
62844W        W35269   7.591  33.049  14.984
62845W        W35270  34.914  41.251  11.634
62846W        W35271   3.952  10.658  13.608
62847W        W35272  32.187  34.948  12.135
62848W        W35273   6.597  34.273  14.442
62849W        W35274  14.050  22.808   2.768
62850W        W35275  20.585  33.092  14.399
62851W        W35276  24.528  18.620   4.828
62852W        W35277  24.303  11.714   1.706
62853W        W35278  29.439   7.092   1.739
62854W        W35279  42.568  21.241   2.528
62855W        W35280  21.216  16.560  11.519
62856W        W35281  36.914  19.283  12.112
62857W        W35282  18.540  31.928   3.729
62858W        W35283  36.901  44.863   1.486
62859W        W35284  11.288  39.121  11.299
62860W        W35285   8.641   4.461  12.046
62861W        W35286  36.571   1.314  12.912
62862W        W35287  33.012   4.517  11.467
62863W        W35288   3.369  39.363  14.218
62864W        W35289  36.008  42.468   4.504
62865W        W35290  19.505   9.798   2.686
62866W        W35291   2.799   5.410  11.932
62867W        W35292   5.755  22.091   0.570
62868W        W35293  43.373  38.287   2.618
62869W        W35294  39.051   1.778  11.445
62870W        W35295  33.854  25.604   4.644
62871W        W35296  28.558  39.382   1.640
62872W        W35297  15.321  29.117   1.910
62873W        W35298  12.107  13.752  10.703
62874W        W35299  25.253  11.792   4.630
62875W        W35300  39.688  12.127   3.217
62876W        W35301  23.879  21.597   2.855
62877W        W35302  28.285  20.679   3.052
62878W        W35303   3.325  34.992  10.947
62879W        W35304  35.304  13.273   1.435
62880W        W35305  14.241  36.224  12.224
62881W        W35306  37.127   0.500  11.000
62882W        W35307  40.582   1.809  13.976
62883W        W35308  36.972  40.550  11.139
62884W        W35309  32.527  28.183  10.899
62885W        W35310  25.194   8.605   2.657
62886W        W35311  30.221  31.282  14.517
62887W        W35312  37.963  38.645  14.276
62888W        W35313  44.964  10.348   4.162
62889W        W35314  20.654  22.729   3.744
62890W        W35315  13.874   2.818  11.522
62891W        W35316  36.853  29.248  12.406
62892W        W35317  41.450  22.672  13.337
62893W        W35318  13.371  41.165   2.227
62894W        W35319  29.173  11.485  11.838
62895W        W35320  31.463   7.821  14.979
62896W        W35321  26.768  42.072  14.069
62897W        W35322  14.690  20.844   0.735
62898W        W35323  33.607   3.919  12.935
62899W        W35324  35.495   1.953   0.848
62900W        W35325  26.920   8.987  14.743
62901W        W35326  23.604  26.027  10.625
62902W        W35327  33.567  18.083   2.220
62903W        W35328  38.029  29.120   3.612
62904W        W35329  24.202  26.412  13.935
62905W        W35330  21.534  37.048   4.214
62906W        W35331  40.447  29.598  13.753
62907W        W35332  41.300   7.389   0.802
62908W        W35333   9.864   6.431  10.642
62909W        W35334  42.275  25.987  10.845
62910W        W35335  13.705   4.427   0.466
62911W        W35336  20.093  44.134   1.425
62912W        W35337   6.355  30.963   2.439
62913W        W35338  35.137  37.094   2.945
62914W        W35339   2.668   4.355  13.336
62915W        W35340  44.321  21.897   4.581
62916W        W35341  33.812  26.928   4.108
62917W        W35342  25.297  23.710  12.996
62918W        W35343  33.063  34.298   0.423
62919W        W35344   4.958  27.542  14.375
62920W        W35345  34.897  20.133  10.678
62921W        W35346  38.811  37.910   1.837
62922W        W35347   7.956  29.996   2.517
62923W        W35348  44.813  34.869   1.504
62924W        W35349  37.555  25.885   1.327
62925W        W35350  19.137  11.113   3.780
62926W        W35351   4.913  23.110   0.601
62927W        W35352   0.456  13.881  13.477
62928W        W35353  26.704  33.508   3.314
62929W        W35354  18.297  27.699  11.468
62930W        W35355  29.446  44.779  13.800
62931W        W35356  44.834  11.856   4.290
62932W        W35357  28.163  10.430   1.884
62933W        W35358  21.952  44.650  11.464
62934W        W35359  31.980   3.408  10.558
62935W        W35360  42.985  39.721  13.862
62936W        W35361  24.234  31.336  11.194
62937W        W35362   9.378   6.221  11.957
62938W        W35363   5.861  42.904  14.840
62939W        W35364  40.956  33.294   2.620
62940W        W35365   8.204  37.104  10.537
62941W        W35366  33.049  14.840   1.796
62942W        W35367   0.843  38.463  10.151
62943W        W35368  16.817  14.673   0.376
62944W        W35369  29.485  29.521  13.362
62945W        W35370  16.679   6.865  14.768
62946W        W35371  30.649   3.744   1.731
62947W        W35372  33.122  34.427  13.372
62948W        W35373   2.872  44.334  10.608
62949W        W35374  15.303  22.947   0.359
62950W        W35375   9.259  22.515   0.895
62951W        W35376  15.200  26.963   1.741
62952W        W35377  41.440   6.794  10.505
62953W        W35378  28.377  33.088   3.294
62954W        W35379  21.539  41.937  14.485
62955W        W35380   4.673   3.659  13.296
62956W        W35381  42.813  33.857  11.140
62957W        W35382  26.111  32.628   5.154
62958W        W35383   8.346  42.829  12.951
62959W        W35384   8.938  39.859  14.802
62960W        W35385  43.270  43.551  11.218
62961W        W35386   3.462   0.407  14.057
62962W        W35387  11.152  42.431  12.430
62963W        W35388  28.142   7.681  12.478
62964W        W35389  35.529  38.029  14.752
62965W        W35390  16.638  34.041   2.867
62966W        W35391  35.165  30.511   1.370
62967W        W35392  38.120  11.776  13.852
62968W        W35393  27.168  40.876  13.183
62969W        W35394   0.760   0.869   3.641
62970W        W35395  17.828  27.558  14.538
62971W        W35396  35.241  26.352   0.268
62972W        W35397  17.296  14.529   0.337
62973W        W35398  14.914   9.344   0.025
62974W        W35399   5.713  11.886   2.544
62975W        W35400  41.994   9.828   0.264
62976W        W35401  33.298  39.128   1.921
62977W        W35402   1.540  11.631  11.535
62978W        W35403  44.466   8.586  13.112
62979W        W35404  19.123   9.270  14.739
62980W        W35405  20.979  35.499   4.002
62981W        W35406  28.183   0.328  13.333
62982W        W35407   4.049  15.751   2.818
62983W        W35408  12.203  21.507   0.842
62984W        W35409  26.822  24.192   2.142
62985W        W35410  32.644  14.276  12.484
62986W        W35411  37.126  29.603   5.134
62987W        W35412  18.751  32.451  14.586
62988W        W35413  41.622  43.169  10.310
62989W        W35414  15.587  33.928  13.490
62990W        W35415   3.971   8.234  13.791
62991W        W35416  15.244  15.680   2.460
62992W        W35417   9.699  17.631  10.857
62993W        W35418  37.888  12.817   1.907
62994W        W35419   7.401  11.176  11.565
62995W        W35420  16.233  16.846  13.311
62996W        W35421  18.230  26.529   2.272
62997W        W35422  43.384  42.584   1.208
62998W        W35423  26.746   2.087   2.873
62999W        W35424  41.616  18.722  10.687
63000W        W35425  38.109  32.205  11.975
63001W        W35426  27.846   6.349   1.465
63002W        W35427   7.934  38.451   1.421
63003W        W35428   6.913   1.272   2.927
63004W        W35429  40.930  10.389   4.090
63005W        W35430  31.076  23.934   1.001
63006W        W35431  39.010  11.103   4.165
63007W        W35432  32.014  41.101   0.763
63008W        W35433  22.035  39.982   0.512
63009W        W35434  22.999   0.191  12.620
63010W        W35435  11.081  24.595   1.779
63011W        W35436  21.599  17.780   0.097
63012W        W35437  37.004  37.677   3.611
63013W        W35438   7.774  24.982  13.971
63014W        W35439   9.556  13.437  10.727
63015W        W35440  44.556  23.684   0.985
63016W        W35441  26.915  40.765   1.787
63017W        W35442  41.453   3.357   0.236
63018W        W35443  44.291  14.148  14.248
63019W        W35444  42.990  33.859  12.881
63020W        W35445  12.562  11.307  13.561
63021W        W35446  20.362   0.322  11.161
63022W        W35447  13.678  25.519   3.133
63023W        W35448  16.690  43.713   3.206
63024W        W35449   1.904  27.307  12.414
63025W        W35450  27.572  16.156   4.164
63026W        W35451  37.010  14.754   2.806
63027W        W35452  14.164  21.849  14.812
63028W        W35453  21.706  15.643   3.372
63029W        W35454  21.211  24.701   3.429
63030W        W35455   5.490  32.479  12.912
63031W        W35456  28.954  35.074   2.801
63032W        W35457  10.849  14.058   0.423
63033W        W35458   4.917  14.741  12.138
63034W        W35459  27.681  17.100  13.332
63035W        W35460  16.113   9.388   1.829
63036W        W35461  16.433  13.122   3.230
63037W        W35462  18.971  33.829  14.768
63038W        W35463   3.795  38.375  14.781
63039W        W35464  35.089   0.586   1.668
63040W        W35465  11.592  41.367   0.476
63041W        W35466   5.427  29.076   0.417
63042W        W35467   4.932  35.383  14.774
63043W        W35468  17.796  31.749   4.562
63044W        W35469  12.725  35.315   4.606
63045W        W35470  32.138  27.620   0.633
63046W        W35471   0.245  16.736   4.150
63047W        W35472  14.681  10.634  11.209
63048W        W35473   1.722  14.237   3.141
63049W        W35474  41.267   4.864  13.528
63050W        W35475   5.279   6.757  13.551
63051W        W35476   4.207  41.017  12.999
63052W        W35477  31.631  39.522   4.900
63053W        W35478   4.862  32.916  12.874
63054W        W35479   3.402  36.397  14.952
63055W        W35480  26.374  16.586   4.620
63056W        W35481  44.776  37.391   2.217
63057W        W35482  29.137  15.669   0.927
63058W        W35483  35.459  33.984  13.760
63059W        W35484  19.985  29.396  12.059
63060W        W35485  10.795  24.513  13.148
63061W        W35486   2.819  36.828  14.335
63062W        W35487  40.877   7.212  14.061
63063W        W35488  30.765   1.055   0.818
63064W        W35489  21.025  15.065   4.552
63065W        W35490  39.867  36.592   4.655
63066W        W35491  38.455  21.780   2.298
63067W        W35492  23.299  37.423   4.468
63068W        W35493   1.636  44.953  12.711
63069W        W35494  15.285   3.379  10.274
63070W        W35495  27.400  40.334  14.546
63071W        W35496  43.472  33.384   2.753
63072W        W35497  21.122  26.242  12.173
63073W        W35498  26.081  43.515  14.586
63074W        W35499  30.133  24.121   4.902
63075W        W35500  30.112   9.125   2.000
63076W        W35501  19.041  12.818   0.004
63077W        W35502  32.283   8.221  14.309
63078W        W35503  17.273  30.621  11.695
63079W        W35504  40.919   0.845   1.841
63080W        W35505  24.507  26.570  13.475
63081W        W35506  24.740  27.007  13.738
63082W        W35507  24.442   1.424  13.932
63083W        W35508  25.651  40.998   3.656
63084W        W35509  41.428  30.431  13.478
63085W        W35510   9.908  41.214  14.374
63086W        W35511  30.205  44.739  14.400
63087W        W35512  31.706  21.180   3.931
63088W        W35513  14.866   8.097   4.332
63089W        W35514   8.830   9.084   0.310
63090W        W35515  27.483   7.095  13.878
63091W        W35516   4.915  14.657  12.660
63092W        W35517   0.487  37.816   1.295
63093W        W35518   1.746   3.749   4.478
63094W        W35519  32.551   5.866   3.381
63095W        W35520  10.577  37.796  10.673
63096W        W35521   5.511   0.495  13.960
63097W        W35522  44.980  17.809  14.061
63098W        W35523   5.314  29.079   2.249
63099W        W35524  27.626  36.864  13.544
63100W        W35525  22.935  43.955   1.832
63101W        W35526  25.305  33.608  11.366
63102W        W35527   9.324  29.279   2.793
63103W        W35528  19.280  37.981   4.706
63104W        W35529  30.434  42.459  13.147
63105W        W35530  24.107  30.883  11.515
63106W        W35531  37.029   5.780  12.688
63107W        W35532  29.462   2.042   0.958
63108W        W35533   9.408  31.143  11.469
63109W        W35534  33.267  12.708   2.757
63110W        W35535   4.230   1.125   0.998
63111W        W35536  27.789  34.154  12.463
63112W        W35537  15.830  40.288   0.384
63113W        W35538  27.614  41.829  14.620
63114W        W35539   5.620  37.286  14.493
63115W        W35540  17.256  16.553   1.379
63116W        W35541  17.217  16.384   4.086
63117W        W35542   3.032  42.025   1.381
63118W        W35543  44.356   6.130   0.720
63119W        W35544  43.327   1.887   5.141
63120W        W35545  24.735   0.294  11.627
63121W        W35546  17.053   8.103  13.086
63122W        W35547   1.198  35.804  10.807
63123W        W35548  29.033   6.807  14.968
63124W        W35549   1.844  38.280  14.103
63125W        W35550   6.280   0.334   1.314
63126W        W35551  19.783  11.586  14.834
63127W        W35552  12.739  16.555  14.278
63128W        W35553   5.708  27.933  13.923
63129W        W35554  20.130  33.196  13.467
63130W        W35555   1.841  12.845  10.969
63131W        W35556   6.750   3.385   0.697
63132W        W35557  44.356  39.559   3.441
63133W        W35558  20.084  43.514   3.365
63134W        W35559   6.646  37.503   3.859
63135W        W35560  13.176  14.197   4.466
63136W        W35561  11.068  27.927   3.227
63137W        W35562  15.065  18.560   2.230
63138W        W35563  34.489  25.296   2.462
63139W        W35564  41.319   2.263  11.206
63140W        W35565   0.054   9.203   2.361
63141W        W35566  22.445   4.974  12.577
63142W        W35567   4.737  19.661   4.623
63143W        W35568  35.411  34.865  11.214
63144W        W35569  27.232  42.382   1.913
63145W        W35570   7.148   8.474   1.221
63146W        W35571  19.374  39.758   2.012
63147W        W35572  25.932  40.759   1.812
63148W        W35573  12.678  14.307  12.329
63149W        W35574  17.552  30.875  14.406
63150W        W35575  30.655  20.710   0.287
63151W        W35576  40.853  27.557  11.855
63152W        W35577  23.200   3.747  11.696
63153W        W35578  17.511  31.628   0.321
63154W        W35579  12.857  20.697  11.136
63155W        W35580  20.649  34.973   2.036
63156W        W35581  15.129  44.489   1.939
63157W        W35582  22.669  34.130  10.885
63158W        W35583  34.294  21.129  13.003
63159W        W35584  11.573  32.748  13.560
63160W        W35585  33.762  26.074   3.094
63161W        W35586   8.181   6.533   2.713
63162W        W35587  31.327  18.605   0.100
63163W        W35588   1.767  14.983  14.383
63164W        W35589  11.822  11.592  12.876
63165W        W35590  14.524  13.347   1.834
63166W        W35591  23.510  17.241   2.737
63167W        W35592  35.645   2.402  13.065
63168W        W35593   8.285  40.845  13.297
63169W        W35594  43.454   3.515  12.976
63170W        W35595   0.957  17.083   2.147
63171W        W35596   9.356  15.593  12.332
63172W        W35597  39.076  10.750  11.510
63173W        W35598  15.441  23.039  13.622
63174W        W35599  23.082  26.547   0.774
63175W        W35600  33.943  19.840  12.148
63176W        W35601   3.155   9.306  12.854
63177W        W35602  35.529  17.714   1.153
63178W        W35603  20.538  36.922  12.525
63179W        W35604  43.519   7.086   4.732
63180W        W35605  12.864  41.262  13.961
63181W        W35606   2.741   7.804   2.696
63182W        W35607  27.538  44.028   0.280
63183W        W35608  36.074  24.948   0.363
63184W        W35609  38.357   2.875   3.339
63185W        W35610  15.825   2.447   3.484
63186W        W35611  40.935   0.698   0.748
63187W        W35612  23.726  43.413  14.761
63188W        W35613  26.716   1.235   2.393
63189W        W35614  16.718  14.733  10.623
63190W        W35615  19.827  34.627  12.467
63191W        W35616   2.982  26.592  13.001
63192W        W35617  19.102  22.463   4.118
63193W        W35618   5.135   1.498  11.455
63194W        W35619  20.901  30.138   1.444
63195W        W35620  23.827  42.966  14.992
63196W        W35621  30.020  16.376   3.202
63197W        W35622  18.499  30.774   3.385
63198W        W35623  43.065  28.809  14.925
63199W        W35624   3.729  39.909  12.997
63200W        W35625  35.489  38.587   2.204
63201W        W35626  14.161  33.471  12.719
63202W        W35627  37.769   7.437   4.674
63203W        W35628  38.332  29.558   2.670
63204W        W35629  14.047   6.850  13.900
63205W        W35630  27.307  39.913   3.162
63206W        W35631   0.839  18.772   4.682
63207W        W35632  27.639   3.190   1.785
63208W        W35633  33.804  36.317   3.665
63209W        W35634  19.021  32.831   0.861
63210W        W35635  17.579  35.048  12.579
63211W        W35636  20.689   0.710  10.403
63212W        W35637  32.990  21.693  10.912
63213W        W35638  29.332  24.671   3.772
63214W        W35639  14.786  32.103   3.531
63215W        W35640  17.362  22.187   0.902
63216W        W35641  15.841   5.690  13.957
63217W        W35642  10.909  43.303   4.518
63218W        W35643   5.760  36.381   1.791
63219W        W35644  11.641   6.305   1.667
63220W        W35645  30.185  14.665   0.731
63221W        W35646  20.482  41.171   0.682
63222W        W35647  20.274  42.023   2.324
63223W        W35648  32.228   1.869  12.104
63224W        W35649  20.248  15.749   3.604
63225W        W35650  40.646  23.261   0.543
63226W        W35651   8.169   7.787  13.257
63227W        W35652  29.797  15.211  12.481
63228W        W35653  29.270   4.828   3.543
63229W        W35654  39.434  43.056   4.469
63230W        W35655  13.456  30.404  12.082
63231W        W35656  13.613  36.947  11.898
63232W        W35657  13.356  14.932  11.087
63233W        W35658  11.729   2.455   4.214
63234W        W35659   3.189  26.040  10.645
63235W        W35660  12.455  15.194   4.645
63236W        W35661  19.380  31.419  14.962
63237W        W35662   1.347  16.578  14.521
63238W        W35663  21.327  42.627   4.162
63239W        W35664   1.912  28.916   2.717
63240W        W35665  17.279  33.911  12.957
63241W        W35666  37.196  36.468  11.104
63242W        W35667  36.094  39.249   3.729
63243W        W35668   1.411  35.345   4.641
63244W        W35669   3.755  32.021   2.243
63245W        W35670  17.363  33.609   3.786
63246W        W35671  14.781  14.281   0.628
63247W        W35672  18.232  21.223  12.210
63248W        W35673  30.712  16.211  14.377
63249W        W35674  13.764  41.800   2.659
63250W        W35675  27.699  36.503   0.955
63251W        W35676  17.167  44.202  12.326
63252W        W35677  30.229  28.058   3.897
63253W        W35678  39.892  23.828  11.574
63254W        W35679  15.798  38.423  13.487
63255W        W35680  35.561  32.649  13.404
63256W        W35681  40.224   3.151  11.607
63257W        W35682  31.511  36.868  13.362
63258W        W35683  16.902  37.475  13.359
63259W        W35684  21.500  41.882   2.615
63260W        W35685  40.041  28.510   1.855
63261W        W35686  22.687  28.392  11.558
63262W        W35687  37.104  38.827  10.638
63263W        W35688  35.388  32.418   2.316
63264W        W35689  27.454   0.744  13.039
63265W        W35690  35.988  31.450  11.431
63266W        W35691  40.318   7.223   3.173
63267W        W35692  13.099  21.581   4.866
63268W        W35693  11.387  11.542   3.225
63269W        W35694   6.348  38.087  13.309
63270W        W35695  12.594  29.660  13.448
63271W        W35696  14.186  17.661   1.397
63272W        W35697  26.153  16.098   4.732
63273W        W35698  38.888  31.843  14.505
63274W        W35699  10.133  44.369   5.052
63275W        W35700  18.092  40.162  14.084
63276W        W35701  28.169   4.398  14.307
63277W        W35702  22.655  27.498   3.888
63278W        W35703  39.326  31.507  14.477
63279W        W35704  13.842  12.754   1.917
63280W        W35705  20.061  35.983  14.860
63281W        W35706  29.221  43.345  13.783
63282W        W35707  22.492   6.001  12.491
63283W        W35708  24.483   9.804   3.784
63284W        W35709  31.687  30.659   1.478
63285W        W35710  34.143  41.050  11.329
63286W        W35711  17.649  44.207   0.345
63287W        W35712  38.446  42.897  12.977
63288W        W35713  10.207  17.991  12.525
63289W        W35714  27.132  31.967  12.361
63290W        W35715   8.413   1.840   4.585
63291W        W35716  26.614   7.044   1.419
63292W        W35717   3.680  11.840   4.060
63293W        W35718  11.650   5.517  12.981
63294W        W35719  33.858  29.473   1.410
63295W        W35720  28.131   4.888  13.531
63296W        W35721  18.304  39.592  11.489
63297W        W35722   3.383   3.274  11.548
63298W        W35723  10.354  35.522   2.635
63299W        W35724  43.382  37.526  13.466
63300W        W35725  36.878  20.434   2.217
63301W        W35726  24.575  24.212  12.057
63302W        W35727   5.941  12.755   3.791
63303W        W35728  12.985   5.533  12.151
63304W        W35729   1.034  31.129   4.094
63305W        W35730  44.732   3.748  14.919
63306W        W35731  32.577  40.000   1.974
63307W        W35732  31.566  31.935   3.586
63308W        W35733   7.837   5.264   1.410
63309W        W35734   4.405  17.866  10.574
63310W        W35735  43.280  23.152   1.763
63311W        W35736  18.236   5.839  10.467
63312W        W35737  34.028  28.647   2.249
63313W        W35738   0.590  18.970  14.601
63314W        W35739   9.397  36.630   4.155
63315W        W35740  15.085  40.005  13.441
63316W        W35741  18.800  31.013  14.818
63317W        W35742  43.041  35.975  13.009
63318W        W35743  21.401  42.118   4.252
63319W        W35744  12.693  13.190   1.118
63320W        W35745  15.601   0.906  11.600
63321W        W35746  15.262   0.976   0.680
63322W        W35747  41.079  23.470  10.715
63323W        W35748  13.942   0.846  14.272
63324W        W35749  40.571  41.433   1.016
63325W        W35750  30.074   1.926  13.048
63326W        W35751  13.051  26.569  14.201
63327W        W35752  23.005   0.691  12.469
63328W        W35753  14.614  11.763  12.422
63329W        W35754  16.908  41.146  12.435
63330W        W35755  29.604  40.020   0.262
63331W        W35756  10.523  43.646   2.539
63332W        W35757  11.931   9.535   0.287
63333W        W35758   3.608  21.369  11.895
63334W        W35759  30.599  18.076   5.390
63335W        W35760  40.927   7.458  13.602
63336W        W35761   3.169  12.027  12.943
63337W        W35762  33.978  27.082   1.810
63338W        W35763  27.603  39.026  10.428
63339W        W35764   5.050  38.917   2.700
63340W        W35765   9.854  39.466  11.919
63341W        W35766  10.302  37.096  11.074
63342W        W35767  34.976  43.316   3.445
63343W        W35768  25.513   1.498   4.293
63344W        W35769   2.908  11.147   2.355
63345W        W35770  44.557  25.200   3.257
63346W        W35771  26.889   5.867   4.651
63347W        W35772  27.580   7.446   4.006
63348W        W35773   5.801  10.256   4.495
63349W        W35774  41.533   6.911  11.015
63350W        W35775  41.083   7.338  12.200
63351W        W35776  15.943  13.727  11.266
63352W        W35777   0.373   2.570  12.090
63353W        W35778  31.553  42.843  14.680
63354W        W35779  38.879   5.715  13.930
63355W        W35780  17.067  10.058  13.909
63356W        W35781  24.450   0.315  10.734
63357W        W35782  18.551  27.557  11.033
63358W        W35783   4.981  39.514   3.497
63359W        W35784  39.071  18.702   2.759
63360W        W35785  21.047   3.715  12.200
63361W        W35786  39.625  20.561  13.575
63362W        W35787  11.684  23.089   4.014
63363W        W35788  28.267  35.110   1.482
63364W        W35789  18.780  32.775  14.075
63365W        W35790  12.586  18.833   1.273
63366W        W35791  32.521  15.655  12.562
63367W        W35792   1.143  19.801  13.325
63368W        W35793   7.884  21.866  11.043
63369W        W35794   6.754  25.696  14.915
63370W        W35795  25.506  16.280   3.535
63371W        W35796   2.265  14.090  14.520
63372W        W35797   1.302  38.472   1.246
63373W        W35798  22.996  27.317   2.291
63374W        W35799  17.631  14.537   0.742
63375W        W35800   2.804   4.849  13.499
63376W        W35801  16.593  22.742  11.044
63377W        W35802  26.488  25.034   4.234
63378W        W35803  12.650   4.783  11.624
63379W        W35804  27.202   5.306  10.637
63380W        W35805  39.359  39.308  14.860
63381W        W35806  26.448  30.045   2.913
63382W        W35807  30.855  12.605   1.295
63383W        W35808  21.230  42.071   2.204
63384W        W35809  32.405  41.316   2.707
63385W        W35810  43.277  21.820  14.496
63386W        W35811  40.386  31.529   1.286
63387W        W35812  16.355  10.202  13.463
63388W        W35813  42.759  35.495  13.800
63389W        W35814   2.322  35.896   2.867
63390W        W35815  37.810  27.179  11.527
63391W        W35816  16.663  25.617   0.331
63392W        W35817  40.302   3.267   1.317
63393W        W35818  22.740  20.413  13.146
63394W        W35819  37.025  27.420  12.430
63395W        W35820  10.356  36.031  11.966
63396W        W35821  30.666  29.187   3.181
63397W        W35822   7.188  34.044   2.590
63398W        W35823  24.162  41.504  12.139
63399W        W35824  36.930  10.063  11.606
63400W        W35825   8.058  35.278  12.924
63401W        W35826  22.522   8.481   4.347
63402W        W35827  11.060   7.676  13.382
63403W        W35828  26.571  19.357  11.020
63404W        W35829   8.446  20.809  14.799
63405W        W35830  21.261  14.202   0.350
63406W        W35831  37.396   5.818   0.963
63407W        W35832  11.292  32.688   3.835
63408W        W35833  15.969  27.120  14.430
63409W        W35834  15.998  27.121  11.174
63410W        W35835  39.462  39.961  11.439
63411W        W35836   5.191  25.277  14.929
63412W        W35837  40.209  36.374  10.452
63413W        W35838  33.381  20.633  12.844
63414W        W35839   4.965  10.387   0.888
63415W        W35840  39.487  19.227  12.191
63416W        W35841   6.870  19.788  12.089
63417W        W35842  14.375   1.446   1.623
63418W        W35843  17.028  26.508  14.661
63419W        W35844  21.937  27.078   4.039
63420W        W35845  15.305  21.178   3.810
63421W        W35846  34.176  14.670   1.182
63422W        W35847  40.760  17.771  11.964
63423W        W35848  34.615   7.337   3.259
63424W        W35849  16.123  11.313  11.140
63425W        W35850  11.853  33.506   3.171
63426W        W35851  34.093  37.890  14.305
63427W        W35852   9.139   1.213  12.526
63428W        W35853  14.546  14.638  14.923
63429W        W35854  42.086  29.485   1.264
63430W        W35855  10.034  37.866  11.410
63431W        W35856   1.220  39.445  11.326
63432W        W35857   6.800  10.713   3.302
63433W        W35858   7.822  21.012   0.359
63434W        W35859  22.420  10.236   4.651
63435W        W35860  41.908  44.674   1.310
63436W        W35861  34.877  21.800  11.369
63437W        W35862   4.841  21.318   0.465
63438W        W35863  34.496  44.504  14.243
63439W        W35864  31.183  24.138   2.798
63440W        W35865  33.056  32.359  14.534
63441W        W35866  24.984  38.446   4.595
63442W        W35867  23.224  33.582   2.757
63443W        W35868  37.686  28.951  11.937
63444W        W35869  23.746  36.925   4.083
63445W        W35870  34.229  32.628   0.177
63446W        W35871  16.113  11.300  11.656
63447W        W35872  42.519   9.415  10.688
63448W        W35873  25.982  25.074   4.043
63449W        W35874  39.453  12.071  14.281
63450W        W35875   6.664  38.409  11.189
63451W        W35876  27.049  10.873  14.043
63452W        W35877  39.227  32.140   4.367
63453W        W35878  13.298  31.114   2.738
63454W        W35879  41.829  27.550  10.824
63455W        W35880  25.081  27.294  14.011
63456W        W35881  38.459   6.717   1.011
63457W        W35882  22.490  19.355   3.292
63458W        W35883   6.548  14.730   1.306
63459W        W35884  38.366  11.161  11.716
63460W        W35885   2.219  20.184   1.570
63461W        W35886   3.966   2.967  14.302
63462W        W35887  36.138  28.087  12.517
63463W        W35888  12.326  15.114  14.687
63464W        W35889  23.500   7.403  11.870
63465W        W35890   8.022   7.895   0.493
63466W        W35891  17.333  12.254   1.731
63467W        W35892  43.265  36.231   2.259
63468W        W35893  15.646   3.443   2.676
63469W        W35894   3.375  40.403   2.419
63470W        W35895   4.687  33.458   3.718
63471W        W35896  31.215   7.715   3.921
63472W        W35897  29.367   8.709  13.282
63473W        W35898  43.260   6.189  11.947
63474W        W35899  28.139  38.836   2.446
63475W        W35900   5.590   5.399  11.395
63476W        W35901  42.550  33.156  14.234
63477W        W35902  17.285  19.517   3.662
63478W        W35903  27.173  36.550   3.632
63479W        W35904  10.248   3.840  11.404
63480W        W35905  22.345  40.105  11.523
63481W        W35906  24.768  43.502   4.097
63482W        W35907  12.096  42.825   4.185
63483W        W35908   4.325  22.636   0.293
63484W        W35909  22.429  37.107  10.714
63485W        W35910   0.310  41.885   2.707
63486W        W35911  39.803  28.086   3.803
63487W        W35912   5.391   2.242  14.993
63488W        W35913  11.839   8.189   3.723
63489W        W35914   9.228  40.275   2.327
63490W        W35915  14.982   5.331  13.857
63491W        W35916  26.838  12.059  13.516
63492W        W35917  40.882  44.366  10.723
63493W        W35918   4.624   9.968   0.933
63494W        W35919  35.601  22.663   0.342
63495W        W35920  29.539   0.953  13.419
63496W        W35921  19.548  34.610   2.876
63497W        W35922   8.628   3.496   3.515
63498W        W35923  25.998  28.610  12.011
63499W        W35924  34.375   5.325   0.775
63500W        W35925  32.999   5.275  11.000
63501W        W35926   4.871  36.417  10.692
63502W        W35927  22.869  12.128   9.901
63503W        W35928  21.676  34.046   2.538
63504W        W35929  42.897  36.976   0.721
63505W        W35930  22.510  21.090   0.907
63506W        W35931  18.222  29.053   1.843
63507W        W35932  24.364  36.533   3.785
63508W        W35933   1.005   7.919  12.158
63509W        W35934  34.384  41.904   4.589
63510W        W35935  30.032   3.319  10.322
63511W        W35936  24.781  30.457  11.108
63512W        W35937  20.793  18.060  11.983
63513W        W35938  28.544  36.413  13.356
63514W        W35939  26.505  24.052  10.675
63515W        W35940  32.178  19.494  14.006
63516W        W35941  27.656  44.219  11.570
63517W        W35942   4.990  19.247   2.687
63518W        W35943   2.007  33.462  14.239
63519W        W35944  34.026  10.621  11.112
63520W        W35945  29.042  17.359  14.474
63521W        W35946  40.050  11.664   1.440
63522W        W35947  36.925   2.206   1.247
63523W        W35948  17.381  16.517   4.578
63524W        W35949   6.793  41.579   3.328
63525W        W35950  17.517   1.764  14.120
63526W        W35951  39.962  18.267   1.888
63527W        W35952  30.478  40.806   3.724
63528W        W35953   4.755  44.888  12.507
63529W        W35954   2.373  19.931  11.439
63530W        W35955  43.263   2.786  12.676
63531W        W35956  10.765  36.265  14.717
63532W        W35957  43.322  33.633  13.896
63533W        W35958  32.425  36.018   4.824
63534W        W35959  14.778   1.939  14.298
63535W        W35960  12.810  18.352   3.484
63536W        W35961  16.076   9.068   0.555
63537W        W35962  42.857  13.614  14.631
63538W        W35963  11.183   6.934  14.784
63539W        W35964   1.548  18.145  11.502
63540W        W35965  40.577  32.150  14.984
63541W        W35966  15.631  29.019   1.447
63542W        W35967  15.928   0.909  14.116
63543W        W35968  42.981  38.948  13.605
63544W        W35969  16.020  27.622  14.984
63545W        W35970  38.823  10.966  13.323
63546W        W35971  22.558   7.090   2.622
63547W        W35972  32.925   1.808   0.823
63548W        W35973  30.260  17.991  13.540
63549W        W35974  15.097  40.092   0.983
63550W        W35975   0.733  14.299  10.313
63551W        W35976  12.409   9.160   4.913
63552W        W35977   7.690  40.168   0.263
63553W        W35978  18.816  25.458  12.832
63554W        W35979  40.219   7.409  12.603
63555W        W35980  10.876  16.982   0.493
63556W        W35981   0.014   0.406  12.431
63557W        W35982  30.499  19.009  10.993
63558W        W35983   7.971   1.750   1.705
63559W        W35984  29.115  21.780  10.831
63560W        W35985   9.324  44.411  11.894
63561W        W35986   4.473  44.284   1.053
63562W        W35987   0.316  34.989  10.934
63563W        W35988  39.782  34.410  12.899
63564W        W35989   0.261  23.668  14.367
63565W        W35990   5.144  20.126   0.424
63566W        W35991   3.797  26.141   0.283
63567W        W35992  42.003  17.912  13.724
63568W        W35993  24.630  37.943  10.944
63569W        W35994   7.798  44.410   4.519
63570W        W35995   8.682  39.366  14.412
63571W        W35996  29.844   9.570  10.440
63572W        W35997  27.854  12.578  14.911
63573W        W35998  16.198   4.963  12.052
63574W        W35999   2.450  10.864   3.176
63575W        W36000  42.597  24.927  13.374
63576W        W36001  25.962   9.387   0.213
63577W        W36002  24.234  34.135   0.944
63578W        W36003   8.085  28.472  12.055
63579W        W36004  37.120   0.912  11.309
63580W        W36005  14.018   9.760   0.009
63581W        W36006  40.833  35.368  10.522
63582W        W36007  44.975  34.987  12.417
63583W        W36008   2.672  22.717  10.678
63584W        W36009  23.039  15.512  10.353
63585W        W36010  39.350  34.766  13.124
63586W        W36011   3.154  30.422  14.823
63587W        W36012  41.762  25.956  10.983
63588W        W36013  33.066  17.715  10.737
63589W        W36014  30.015  16.110  11.066
63590W        W36015   9.671  35.978  10.493
63591W        W36016  40.835   3.823  13.344
63592W        W36017  42.044  10.635  12.050
63593W        W36018  11.384  25.684   2.847
63594W        W36019   7.796  15.707   0.998
63595W        W36020  33.296  41.158   5.000
63596W        W36021  36.710  10.190  14.037
63597W        W36022  40.754  35.563   4.804
63598W        W36023   7.434  42.278  12.017
63599W        W36024   7.292  44.407   4.773
63600W        W36025  28.100   4.476   1.864
63601W        W36026  44.416   2.181  10.609
63602W        W36027  33.014  28.050  11.146
63603W        W36028  12.241  13.087   0.165
63604W        W36029  10.725  17.353  14.451
63605W        W36030  31.612  36.621   0.335
63606W        W36031  31.650  40.385   1.891
63607W        W36032   1.008   4.197   4.103
63608W        W36033  29.965  31.404  14.942
63609W        W36034  28.961  32.947  11.575
63610W        W36035  20.497   9.819  10.267
63611W        W36036  27.513  34.142  13.015
63612W        W36037  13.122  15.535  12.247
63613W        W36038  35.389  23.794   2.306
63614W        W36039   9.117   7.171   3.211
63615W        W36040  41.131  42.887  11.154
63616W        W36041  39.091  17.448   2.476
63617W        W36042   9.151  16.500   1.701
63618W        W36043   0.098  21.198  11.189
63619W        W36044  30.271  39.186   0.985
63620W        W36045   6.416  28.169   2.190
63621W        W36046  36.369   6.676   3.230
63622W        W36047  37.587  29.184  10.679
63623W        W36048  29.069  43.459  11.353
63624W        W36049  13.792  14.578   1.325
63625W        W36050  16.734   6.679  12.824
63626W        W36051   6.347  23.513   1.803
63627W        W36052  21.476  37.161  14.870
63628W        W36053  11.120  25.076   0.336
63629W        W36054  25.953  43.413   0.508
63630W        W36055   8.522   0.508  14.898
63631W        W36056   9.732   2.196   1.696
63632W        W36057  23.167  30.431  12.165
63633W        W36058  18.887  44.044  11.479
63634W        W36059  11.450  26.658   3.704
63635W        W36060  40.394   7.496   1.300
63636W        W36061  30.954   3.288   1.753
63637W        W36062  36.095   8.578   5.092
63638W        W36063  33.662  26.597   4.521
63639W        W36064  11.836  25.516   4.616
63640W        W36065   1.402  42.962   4.516
63641W        W36066  21.958   9.245  12.403
63642W        W36067   1.598  33.034   3.292
63643W        W36068  32.685  25.486  10.727
63644W        W36069   7.456  30.045   1.302
63645W        W36070  32.594   1.008  12.988
63646W        W36071  21.191  11.782   1.828
63647W        W36072  18.475  12.719   3.110
63648W        W36073  10.337  28.738  14.000
63649W        W36074   8.475   7.299   1.000
63650W        W36075   4.916  30.732  11.225
63651W        W36076  20.112  17.210  10.651
63652W        W36077   8.666  39.253  11.385
63653W        W36078  42.389  11.747   1.297
63654W        W36079  10.150   3.833  13.922
63655W        W36080  43.278  35.478  13.815
63656W        W36081  44.950   1.836   4.732
63657W        W36082  12.348  24.235   1.722
63658W        W36083  39.380  18.568   3.155
63659W        W36084  20.125   1.157  13.523
63660W        W36085  37.939   6.514  13.957
63661W        W36086  39.753  28.925  13.450
63662W        W36087  22.066  40.546   4.532
63663W        W36088  22.145  15.880  11.829
63664W        W36089  11.151  38.001   0.915
63665W        W36090  43.825  30.085   4.677
63666W        W36091  44.302  16.730  12.586
63667W        W36092   2.455  18.768   0.813
63668W        W36093  15.692  11.212   0.383
63669W        W36094  21.050   1.279   2.412
63670W        W36095   4.410  28.920  10.693
63671W        W36096   4.893  33.622  12.178
63672W        W36097  27.416  33.041   3.217
63673W        W36098  39.861  10.224   0.507
63674W        W36099  28.047  30.965  14.952
63675W        W36100  17.622  20.117  11.289
63676W        W36101  27.358   9.867   5.067
63677W        W36102   8.759  32.952  10.700
63678W        W36103   4.449  34.376   2.719
63679W        W36104  40.320  25.924  13.476
63680W        W36105  25.681  14.393   0.317
63681W        W36106  40.105  13.340  12.573
63682W        W36107  34.937   5.236  12.007
63683W        W36108   3.255  14.626  13.390
63684W        W36109  34.217  26.842   2.788
63685W        W36110   5.245  20.709   3.525
63686W        W36111  13.420  20.067   2.092
63687W        W36112  29.674  32.659  10.493
63688W        W36113  10.160  44.312  11.831
63689W        W36114  40.879  12.948  14.950
63690W        W36115  22.421   7.871  12.881
63691W        W36116  37.049  23.147   2.316
63692W        W36117   4.436   9.171  12.326
63693W        W36118  11.717  34.426  13.055
63694W        W36119   9.506  25.054   1.428
63695W        W36120   5.253  11.854  10.686
63696W        W36121  25.187  17.687   2.714
63697W        W36122   3.156  37.854  13.018
63698W        W36123   9.476  26.682  11.074
63699W        W36124   2.967  28.540   4.121
63700W        W36125  38.626  28.059   3.227
63701W        W36126  10.402  37.779  12.966
63702W        W36127  15.542  37.916   1.922
63703W        W36128  23.665  16.840  11.906
63704W        W36129  15.100  35.207   1.699
63705W        W36130  27.245  40.850  11.791
63706W        W36131  31.122  16.382   2.594
63707W        W36132  20.952   6.675   4.700
63708W        W36133  33.604   2.718  13.955
63709W        W36134  35.795  30.090  13.038
63710W        W36135  44.517  35.168  10.692
63711W        W36136   4.932  42.289   1.457
63712W        W36137  43.203   7.962   0.345
63713W        W36138  20.200  27.861   1.725
63714W        W36139  19.778  14.213  11.526
63715W        W36140  16.881  10.278  13.458
63716W        W36141  18.721  42.164   1.222
63717W        W36142  33.926  27.687   2.324
63718W        W36143  18.109  25.000  13.986
63719W        W36144  22.842  19.725   1.951
63720W        W36145  35.646  34.020  14.759
63721W        W36146   0.322  34.010  14.903
63722W        W36147  32.108   6.996  11.806
63723W        W36148  14.648  36.023   1.245
63724W        W36149   0.961  10.265   1.898
63725W        W36150  11.248  23.685   2.696
63726W        W36151  27.095   4.622  12.164
63727W        W36152  26.805  25.930   1.905
63728W        W36153   1.401  11.776  12.412
63729W        W36154   4.623  41.931  11.937
63730W        W36155   5.277  19.622  13.111
63731W        W36156   9.395  41.780   0.967
63732W        W36157  15.197   0.165  13.791
63733W        W36158   8.552  18.782   0.452
63734W        W36159  41.074  27.154  13.146
63735W        W36160  44.318  11.340   2.411
63736W        W36161   3.243   2.447  12.455
63737W        W36162  14.106  27.287  12.506
63738W        W36163   4.396   5.433   0.173
63739W        W36164  41.660  18.829   2.146
63740W        W36165  36.847  13.889  14.908
63741W        W36166  43.925  29.626  14.154
63742W        W36167  13.282  21.812   2.196
63743W        W36168  40.337  28.078   3.890
63744W        W36169  34.545  23.473   4.594
63745W        W36170   8.039   7.214  10.235
63746W        W36171   5.824  30.752  12.405
63747W        W36172  18.127   0.676   3.297
63748W        W36173  15.136   0.709   0.252
63749W        W36174   1.440  41.357   4.892
63750W        W36175  30.061  17.800   4.678
63751W        W36176   5.751  28.687   2.627
63752W        W36177  16.837  30.675   4.530
63753W        W36178   3.852   5.923  11.437
63754W        W36179  18.517   6.688   1.792
63755W        W36180  18.110   6.350   1.871
63756W        W36181  18.272  37.748  13.331
63757W        W36182  19.062   7.800  12.515
63758W        W36183  15.540  24.167  12.518
63759W        W36184  12.384  31.944  10.612
63760W        W36185  41.403  27.275  14.051
63761W        W36186  11.790   7.250   1.773
63762W        W36187  35.997  12.858   0.265
63763W        W36188  33.549  12.608   0.526
63764W        W36189  21.939  23.090  14.335
63765W        W36190  11.885  40.072   4.171
63766W        W36191  28.222  42.849  14.989
63767W        W36192  35.494   0.557  13.542
63768W        W36193  18.667   4.337   2.426
63769W        W36194  18.633   6.343   1.243
63770W        W36195  20.919  44.814  13.861
63771W        W36196  42.949   1.350  10.545
63772W        W36197  38.746  15.746  12.788
63773W        W36198   8.604  19.548  12.616
63774W        W36199  44.431  40.102   4.105
63775W        W36200  44.860  43.221   1.617
63776W        W36201  37.482  27.006  13.561
63777W        W36202  28.170  43.555  10.489
63778W        W36203  18.582   5.386   0.872
63779W        W36204  44.534  14.296  13.231
63780W        W36205  10.801   4.860   0.183
63781W        W36206   8.348  20.833   4.583
63782W        W36207   6.211  10.892   4.941
63783W        W36208  15.153  25.150   4.255
63784W        W36209  41.492   5.330   1.765
63785W        W36210  14.657   5.782   1.184
63786W        W36211   5.896  41.760  11.750
63787W        W36212  33.877  12.553   3.661
63788W        W36213   5.955  26.077   0.832
63789W        W36214  11.831  40.586   3.118
63790W        W36215  34.050  28.448   0.726
63791W        W36216  18.682  34.705  13.058
63792W        W36217  10.823  44.438  13.603
63793W        W36218  14.628  23.140   3.379
63794W        W36219  16.865   3.230   2.847
63795W        W36220  29.087  28.013  14.983
63796W        W36221  10.158  21.455  11.172
63797W        W36222  21.195  19.124  13.814
63798W        W36223  39.922  31.641  11.425
63799W        W36224  17.262   6.782  13.994
63800W        W36225  11.805  26.003  13.326
63801W        W36226  33.031  42.899  10.001
63802W        W36227  10.752  29.775  14.380
63803W        W36228   1.953  39.526  14.605
63804W        W36229  28.126  27.343  10.853
63805W        W36230  24.999  31.356  14.763
63806W        W36231   9.877  42.875   3.724
63807W        W36232  16.684  38.022  10.756
63808W        W36233  29.594  31.709  13.869
63809W        W36234  16.197   0.762  12.356
63810W        W36235  27.412   6.491   3.707
63811W        W36236   1.359  20.752   0.742
63812W        W36237  39.489   4.441   2.627
63813W        W36238  26.620  10.343  14.887
63814W        W36239  24.684  27.965  12.384
63815W        W36240   6.310  32.146   1.302
63816W        W36241  22.205  24.214  11.887
63817W        W36242  12.344  27.520  13.964
63818W        W36243  31.476  17.070  13.394
63819W        W36244  26.104  22.559   0.075
63820W        W36245  37.042  22.962   0.915
63821W        W36246  18.783  30.992   4.916
63822W        W36247   4.365  15.014  13.012
63823W        W36248  18.503   5.876   1.023
63824W        W36249  40.849  33.200  13.522
63825W        W36250  21.103  21.015   2.693
63826W        W36251  31.611  20.330   4.129
63827W        W36252  29.208  20.444   2.177
63828W        W36253  38.797  21.225   5.112
63829W        W36254  13.987  17.378  11.890
63830W        W36255  18.783   8.308  14.464
63831W        W36256  23.249  40.616   0.994
63832W        W36257  27.679  30.471  10.174
63833W        W36258  41.674  27.386  11.345
63834W        W36259  29.173  42.784  11.223
63835W        W36260   1.075  30.052   1.426
63836W        W36261  25.501  25.224  14.460
63837W        W36262  22.307  21.540  11.178
63838W        W36263   2.301  41.045  14.485
63839W        W36264   7.937   6.080  13.295
63840W        W36265  29.366  14.311   0.929
63841W        W36266  21.081  39.421   2.983
63842W        W36267  12.777  18.087  14.917
63843W        W36268  12.769  41.919   2.101
63844W        W36269   5.780  36.609   3.791
63845W        W36270  24.764  34.143  12.560
63846W        W36271  31.699  27.656  10.961
63847W        W36272  12.096  31.152   4.048
63848W        W36273  18.637  22.294   1.405
63849W        W36274  12.529  26.972  11.252
63850W        W36275   5.496  38.959   3.005
63851W        W36276  20.865  17.682  13.898
63852W        W36277  27.983  24.984   4.178
63853W        W36278   0.851  12.118  13.279
63854W        W36279  19.653  26.993   4.842
63855W        W36280  30.517  34.595   2.434
63856W        W36281  27.949  23.115  13.446
63857W        W36282  42.194   8.930  12.415
63858W        W36283   1.305  30.928  11.631
63859W        W36284  29.717   1.764  11.132
63860W        W36285  39.535   1.885   1.025
63861W        W36286   8.299   7.013   3.463
63862W        W36287  32.501  29.708   0.248
63863W        W36288  23.461  30.194  11.424
63864W        W36289  16.805  41.372  14.234
63865W        W36290  20.545  24.929  10.680
63866W        W36291  43.441  14.743   4.527
63867W        W36292  39.082   5.623   4.773
63868W        W36293   6.362  13.893  13.020
63869W        W36294  18.739   9.311  11.572
63870W        W36295  36.464  24.783  13.763
63871W        W36296  32.995  10.887  12.981
63872W        W36297  20.548  25.125  13.875
63873W        W36298  20.131  27.749   0.839
63874W        W36299  20.495  12.813  11.607
63875W        W36300  40.470   4.286  10.749
63876W        W36301  41.447  16.784  13.805
63877W        W36302  10.367  15.602  12.461
63878W        W36303  12.124  28.867  12.875
63879W        W36304  34.102  12.831   0.744
63880W        W36305  19.035  14.348   1.948
63881W        W36306  38.936  18.405   1.894
63882W        W36307  42.130  18.801  14.069
63883W        W36308  33.416  34.144  11.714
63884W        W36309  32.646   8.588   2.214
63885W        W36310   1.322   7.695  14.313
63886W        W36311   0.840  37.253   3.127
63887W        W36312  33.383  14.817  11.950
63888W        W36313   7.089   6.886  12.912
63889W        W36314  11.285  21.525  11.058
63890W        W36315  41.759  43.928  10.436
63891W        W36316  39.320  28.423  10.711
63892W        W36317  30.044  28.709   2.468
63893W        W36318  36.925   5.558   2.645
63894W        W36319  44.802  12.021   3.650
63895W        W36320  32.879   9.947  10.783
63896W        W36321   6.239  17.380  12.130
63897W        W36322  33.452   9.321   1.647
63898W        W36323  15.708  22.744  11.987
63899W        W36324  43.742  44.765   1.172
63900W        W36325  19.412  29.338   3.704
63901W        W36326  31.357  21.188  12.917
63902W        W36327  30.036  11.662  13.995
63903W        W36328  14.233   9.203  14.238
63904W        W36329   8.806  28.122  14.289
63905W        W36330  12.770   9.806  12.006
63906W        W36331  25.757  10.361  14.862
63907W        W36332  14.375  29.538   1.877
63908W        W36333  24.705   5.653   2.341
63909W        W36334  17.099  26.339   2.999
63910W        W36335   6.808  24.065   4.944
63911W        W36336  20.345  23.257   0.447
63912W        W36337  29.408  36.409  14.915
63913W        W36338  10.553  41.303  11.367
63914W        W36339  43.476  26.387   3.753
63915W        W36340   0.537  11.046   1.088
63916W        W36341  26.967   9.924   1.459
63917W        W36342  43.934  42.403   3.332
63918W        W36343  42.423  38.118  11.601
63919W        W36344   1.431  32.912   4.441
63920W        W36345  31.878  21.398   0.820
63921W        W36346  28.647  37.847  11.489
63922W        W36347  17.060  44.252  11.843
63923W        W36348  35.575  25.206  12.011
63924W        W36349  38.848  40.143  14.107
63925W        W36350  35.846  19.488   1.494
63926W        W36351  23.214  42.342   0.418
63927W        W36352   0.515  27.002  14.092
63928W        W36353   9.027  29.709   3.725
63929W        W36354  17.273   5.337  13.424
63930W        W36355  22.801  26.384  12.900
63931W        W36356  18.789  35.650   4.540
63932W        W36357  18.858  12.339  14.930
63933W        W36358  25.619  19.604  12.984
63934W        W36359  32.072  15.783  12.340
63935W        W36360   9.283  41.092   2.706
63936W        W36361   8.300  31.895  14.570
63937W        W36362  17.757   2.951  13.467
63938W        W36363   3.846  30.807  11.376
63939W        W36364  11.928  42.474   3.795
63940W        W36365   6.168  23.549   2.382
63941W        W36366   2.473  11.669  14.274
63942W        W36367  24.743  27.909  14.789
63943W        W36368  28.228  40.758   0.231
63944W        W36369   9.972   5.243  13.308
63945W        W36370   4.328  16.559  13.036
63946W        W36371  34.992  36.975   4.660
63947W        W36372  42.413  14.185  10.361
63948W        W36373  11.946  30.168  11.897
63949W        W36374  27.776  32.141   3.356
63950W        W36375  20.010   3.218  13.364
63951W        W36376  27.461  44.447   0.765
63952W        W36377  19.972  42.142   4.222
63953W        W36378  25.100   0.252  14.387
63954W        W36379  35.424  44.059  13.307
63955W        W36380  39.618  19.262   4.834
63956W        W36381  18.330  28.758  10.733
63957W        W36382  19.955  23.804  10.816
63958W        W36383  41.302   7.504  14.924
63959W        W36384  16.732  19.299  10.759
63960W        W36385  19.845   8.049  12.001
63961W        W36386  36.643  21.178   1.244
63962W        W36387  37.377  40.469   1.416
63963W        W36388   5.908  36.436  12.843
63964W        W36389   7.233  33.385  12.104
63965W        W36390  14.126  39.841  10.579
63966W        W36391   7.413  44.783   0.835
63967W        W36392  24.713  18.281  12.144
63968W        W36393  35.679  43.072  12.416
63969W        W36394  24.173  40.413   4.600
63970W        W36395  10.703   2.208   5.018
63971W        W36396   9.881  14.393  10.655
63972W        W36397  44.925  33.209  14.488
63973W        W36398   4.833  33.834   3.384
63974W        W36399  14.381  42.640   0.134
63975W        W36400  32.033  33.932   0.272
63976W        W36401   1.943   6.346   0.786
63977W        W36402  33.147  40.878   1.388
63978W        W36403  39.745  19.825  14.401
63979W        W36404  41.759  31.385  14.383
63980W        W36405  32.668  24.816   2.964
63981W        W36406  19.632   8.254  13.828
63982W        W36407   7.707  12.103  11.514
63983W        W36408  32.138  34.511  12.385
63984W        W36409  23.651  27.462   0.705
63985W        W36410  23.116  20.368  14.980
63986W        W36411   5.520   1.229  14.603
63987W        W36412  17.846  41.567  12.192
63988W        W36413  33.801   0.917  12.166
63989W        W36414  33.324  43.455   4.254
63990W        W36415  37.185  23.441  14.554
63991W        W36416  25.982  22.185  12.023
63992W        W36417  37.472   0.339   2.711
63993W        W36418  36.236  14.836   5.197
63994W        W36419  19.812  25.046   4.583
63995W        W36420   9.581   0.378  11.728
63996W        W36421  36.730   9.345  13.927
63997W        W36422  27.628  38.731   1.266
63998W        W36423  42.461   5.902  12.461
63999W        W36424   0.432  42.472  10.915
64000W        W36425  21.894  24.970  10.938
64001W        W36426  12.191   6.834   1.228
64002W        W36427   5.177  30.038   3.623
64003W        W36428  33.030  13.182  12.876
64004W        W36429  24.262  32.319  11.063
64005W        W36430  44.428  42.008   0.121
64006W        W36431  20.547   1.566  14.212
64007W        W36432  37.544   9.414  10.658
64008W        W36433  11.659  27.517   2.125
64009W        W36434   7.428  30.430  13.469
64010W        W36435  40.806  19.069   1.100
64011W        W36436   8.815   4.632  14.781
64012W        W36437  25.028  31.616   0.458
64013W        W36438  42.737  43.420   4.034
64014W        W36439  15.025  39.059   2.956
64015W        W36440  29.832  40.866   3.293
64016W        W36441  38.624  21.739  13.393
64017W        W36442  41.960  26.737  10.220
64018W        W36443  40.593  26.762   3.731
64019W        W36444   7.243   6.495  12.030
64020W        W36445   9.696  12.360  10.653
64021W        W36446  23.258  11.725   0.009
64022W        W36447  21.547  39.335   1.383
64023W        W36448  27.052  25.084   0.068
64024W        W36449  11.135   8.715  13.316
64025W        W36450  18.186  21.005   3.360
64026W        W36451   7.448  34.542   3.694
64027W        W36452   8.424  26.197   4.688
64028W        W36453  29.037  19.128  13.582
64029W        W36454  26.161  16.651   3.591
64030W        W36455   4.590  41.440  10.227
64031W        W36456   2.681  22.820   4.462
64032W        W36457  27.192  32.291  11.975
64033W        W36458  11.412  30.596   4.079
64034W        W36459  41.442  19.999  11.174
64035W        W36460  33.525  37.747   0.920
64036W        W36461  40.089   2.168   3.607
64037W        W36462  40.359  34.557  13.899
64038W        W36463  23.086   2.164  10.858
64039W        W36464  36.849  26.335  14.870
64040W        W36465   5.438   9.329  14.796
64041W        W36466  15.153  40.271  11.569
64042W        W36467  10.904  24.679  11.139
64043W        W36468  10.450  31.991  11.614
64044W        W36469  21.481   5.005  10.800
64045W        W36470  40.485   7.004   1.309
64046W        W36471  20.191  19.560   1.388
64047W        W36472   0.150   9.177  13.357
64048W        W36473  24.423  23.908  11.684
64049W        W36474  19.265  23.766   2.832
64050W        W36475  21.703  20.125   4.287
64051W        W36476  27.622  35.901   3.249
64052W        W36477  23.878  19.574   1.901
64053W        W36478   0.236  43.743  11.873
64054W        W36479  28.067  12.735  10.276
64055W        W36480   0.072  43.553  14.693
64056W        W36481  17.206  35.843   3.836
64057W        W36482  32.174  17.248  12.563
64058W        W36483  32.643  44.375   2.820
64059W        W36484  27.682  44.515  12.057
64060W        W36485  28.663  38.368  11.470
64061W        W36486   6.401  17.958   0.868
64062W        W36487   1.122  11.190   0.243
64063W        W36488  17.599   8.088   4.085
64064W        W36489  34.990  39.880   3.448
64065W        W36490  13.446  31.626   2.828
64066W        W36491  34.375  17.815  14.989
64067W        W36492  42.644  25.340   3.541
64068W        W36493  21.538  44.542  10.715
64069W        W36494  21.768  25.598  14.997
64070W        W36495  42.940  41.461  14.359
64071W        W36496  28.376  31.650  12.425
64072W        W36497   3.835  25.058   4.109
64073W        W36498  34.810  44.473  13.850
64074W        W36499   0.180  27.918  10.681
64075W        W36500   2.904  28.766   3.669
64076W        W36501   7.466  34.993   1.449
64077W        W36502  16.514  11.838  10.566
64078W        W36503  16.081   5.398  13.044
64079W        W36504  35.342  17.685  12.243
64080W        W36505  13.122  31.630   1.633
64081W        W36506  29.661  17.765   1.371
64082W        W36507   4.462   3.806   0.952
64083W        W36508  11.437  23.365   9.697
64084W        W36509  41.552   2.868  12.522
64085W        W36510  26.114  38.296  12.065
64086W        W36511  38.046  34.073  12.491
64087W        W36512  43.480  19.014  13.588
64088W        W36513   1.767  24.608   4.847
64089W        W36514  16.365  26.056   2.354
64090W        W36515  23.218  15.052   2.321
64091W        W36516  11.250  40.604  11.062
64092W        W36517  22.496  31.660  10.729
64093W        W36518  33.041   7.040   1.764
64094W        W36519  32.587  22.036   4.508
64095W        W36520  27.143  13.357   0.855
64096W        W36521   4.257  34.864  11.121
64097W        W36522   6.834  37.087   2.339
64098W        W36523  33.640  37.435  14.409
64099W        W36524  20.664  13.179   1.964
64100W        W36525  23.237   0.402   3.844
64101W        W36526  30.058  17.524   3.806
64102W        W36527  25.424   0.877   3.723
64103W        W36528  43.491  35.943  13.859
64104W        W36529  15.699  29.461  12.453
64105W        W36530  38.978  15.058  14.279
64106W        W36531  31.815   9.749  11.443
64107W        W36532  12.769   7.723  14.011
64108W        W36533  43.261   2.211  13.519
64109W        W36534  43.988  43.813  14.366
64110W        W36535   9.189  23.303   1.392
64111W        W36536   2.933  27.172  13.850
64112W        W36537  39.960  23.949  14.527
64113W        W36538  27.620  17.028   1.454
64114W        W36539  42.483  16.037  13.576
64115W        W36540  23.075   8.904   0.762
64116W        W36541   5.712   8.893  10.763
64117W        W36542  11.782  28.936  14.357
64118W        W36543  11.210  35.072   2.901
64119W        W36544  11.279  20.732   4.043
64120W        W36545   5.444  43.947   4.745
64121W        W36546  11.329  34.319  10.661
64122W        W36547  33.360   3.870   0.682
64123W        W36548  26.104  27.879  10.936
64124W        W36549  29.664   6.882  12.881
64125W        W36550  29.669  40.955  11.869
64126W        W36551  33.321  37.347  11.564
64127W        W36552   6.248  36.240   1.767
64128W        W36553  25.179   7.316  10.493
64129W        W36554  13.160  35.937  13.275
64130W        W36555  32.098   4.808  12.581
64131W        W36556   8.774  13.771  11.093
64132W        W36557  43.004  41.392   1.788
64133W        W36558  13.899   9.123   0.489
64134W        W36559   2.470  25.271  14.838
64135W        W36560  35.328   6.165  12.744
64136W        W36561  20.626   0.538  14.345
64137W        W36562  12.668  36.677   1.897
64138W        W36563  37.799   1.913  11.967
64139W        W36564  13.805  42.016  13.447
64140W        W36565  21.136  27.919   3.215
64141W        W36566  29.433  13.357   0.688
64142W        W36567   2.232  38.943   4.176
64143W        W36568  33.981  40.803  10.919
64144W        W36569   6.281   6.173   0.327
64145W        W36570  15.452  40.998  14.626
64146W        W36571  15.689  31.424   4.387
64147W        W36572  26.155  37.353   4.621
64148W        W36573  17.799  28.599  13.430
64149W        W36574  39.014  23.456  14.864
64150W        W36575   1.294  43.563  12.074
64151W        W36576  31.662  30.553   4.103
64152W        W36577  32.014  26.718  11.810
64153W        W36578  27.129   6.405   4.958
64154W        W36579  27.580  25.211  13.204
64155W        W36580   8.548  24.546   2.642
64156W        W36581   1.386   5.783  14.052
64157W        W36582  10.300  38.443   1.682
64158W        W36583  14.290   0.951   2.317
64159W        W36584  34.919  25.051   2.512
64160W        W36585  36.567  28.523   0.375
64161W        W36586  14.551   8.691  13.888
64162W        W36587  13.792   2.054   1.926
64163W        W36588   3.234  28.192   3.261
64164W        W36589  20.128  21.169  12.424
64165W        W36590   5.196  35.098   3.139
64166W        W36591  18.676   7.381  14.803
64167W        W36592  38.977   8.698  13.190
64168W        W36593   6.712  19.593  10.711
64169W        W36594  24.895  33.908  12.993
64170W        W36595  14.321  20.152   2.265
64171W        W36596   2.849  16.701   3.603
64172W        W36597  30.542  19.032   0.306
64173W        W36598  15.763  44.613   0.269
64174W        W36599  20.242  28.515  13.150
64175W        W36600  33.531  28.487  12.952
64176W        W36601  44.757   6.275  12.152
64177W        W36602  18.833  24.038   0.327
64178W        W36603  25.749  27.109  11.116
64179W        W36604   5.850  22.166   0.076
64180W        W36605  33.928  41.921  11.766
64181W        W36606  13.374  10.732   3.646
64182W        W36607   9.805   4.324  13.826
64183W        W36608   2.556   5.877  13.477
64184W        W36609  14.326  13.376  14.764
64185W        W36610  26.945  27.694  12.338
64186W        W36611  42.104   6.726   2.180
64187W        W36612   6.342  14.148  11.228
64188W        W36613  27.292  22.135  12.241
64189W        W36614   6.803   8.689  14.980
64190W        W36615  15.871  14.322   2.747
64191W        W36616  41.834  36.579  13.829
64192W        W36617  20.237  41.637   5.028
64193W        W36618  26.673  29.202  12.382
64194W        W36619  31.469  38.806  12.046
64195W        W36620   1.463   6.464  12.060
64196W        W36621  42.061  23.960  11.499
64197W        W36622  37.740  22.493   4.781
64198W        W36623  35.386  35.351  14.451
64199W        W36624   3.970   7.374   0.680
64200W        W36625  31.474  16.689  12.071
64201W        W36626  33.251  16.201   0.662
64202W        W36627   1.926   3.349  10.240
64203W        W36628  14.830  44.429   4.176
64204W        W36629  23.158  36.784  11.522
64205W        W36630  22.677  23.417   0.434
64206W        W36631  34.655  12.001   1.773
64207W        W36632  27.173  43.823   3.752
64208W        W36633  10.707  16.002  13.882
64209W        W36634   1.594  30.410   0.862
64210W        W36635  16.242  28.103  14.889
64211W        W36636   3.492   4.645  12.898
64212W        W36637  33.897  19.157  13.430
64213W        W36638  12.356  22.089  11.170
64214W        W36639  40.156  24.103   3.523
64215W        W36640  15.691  14.503   3.225
64216W        W36641  26.599  40.553   5.102
64217W        W36642  23.844  37.804   4.073
64218W        W36643  44.796  23.815   1.906
64219W        W36644  42.542  23.985   1.788
64220W        W36645   0.092  17.081   1.838
64221W        W36646  44.827   7.628   0.319
64222W        W36647  18.154  41.133  11.975
64223W        W36648  17.184  31.138   5.132
64224W        W36649  41.448   1.393   0.005
64225W        W36650   8.774   4.200  10.691
64226W        W36651   4.419  41.121  13.950
64227W        W36652  29.303   2.654   2.355
64228W        W36653   1.358  39.021  10.628
64229W        W36654  17.574  34.405   4.867
64230W        W36655   1.535  31.144   3.830
64231W        W36656  44.464   8.632  11.690
64232W        W36657  21.012  30.240   0.920
64233W        W36658   8.291  21.056  13.030
64234W        W36659  27.742  32.012  11.105
64235W        W36660   9.228  22.405  14.493
64236W        W36661  40.369  17.537  12.212
64237W        W36662  33.998  13.825  14.859
64238W        W36663  40.040   8.122  13.111
64239W        W36664  25.574   7.444   2.811
64240W        W36665  15.363  33.163   1.809
64241W        W36666  28.424   3.238   3.375
64242W        W36667  18.199  30.465   4.597
64243W        W36668  42.725  32.288  11.214
64244W        W36669   9.334  29.310   4.586
64245W        W36670  25.939  20.492  13.448
64246W        W36671  20.728  14.777  11.875
64247W        W36672   7.742  20.461   0.359
64248W        W36673  19.207  37.295   3.830
64249W        W36674   1.971  18.004   0.359
64250W        W36675   8.663   5.176  13.934
64251W        W36676  30.322  40.941  14.549
64252W        W36677   1.374  20.065   2.353
64253W        W36678  10.336  40.446  11.168
64254W        W36679  40.889  17.071   3.107
64255W        W36680  20.709  39.698  14.655
64256W        W36681  39.939  30.450   0.511
64257W        W36682  30.623   8.330   2.264
64258W        W36683   2.309  38.500  13.027
64259W        W36684  34.650   6.478  11.627
64260W        W36685  44.990  11.303   4.137
64261W        W36686  23.765  25.471  10.439
64262W        W36687  14.059  26.288  13.536
64263W        W36688   8.284  40.376   2.388
64264W        W36689  44.414  14.199   0.203
64265W        W36690  36.954  19.371   3.696
64266W        W36691  25.303  39.936  11.713
64267W        W36692   2.127  31.041   0.423
64268W        W36693  32.893  31.918   0.825
64269W        W36694  30.440  23.499   0.447
64270W        W36695  13.732   9.414   3.670
64271W        W36696  11.570  21.604  11.564
64272W        W36697   8.383   4.408  11.200
64273W        W36698  39.020   1.415   4.612
64274W        W36699  12.775   4.873   3.697
64275W        W36700  36.341  36.408   4.357
64276W        W36701   4.693   7.319  13.352
64277W        W36702  41.374  15.594   3.398
64278W        W36703  17.649  21.579  10.778
64279W        W36704  40.048  21.226   1.605
64280W        W36705  31.453  27.891   4.650
64281W        W36706  19.245  37.706   0.152
64282W        W36707   6.463   2.495   1.269
64283W        W36708  29.019  15.748  12.983
64284W        W36709   3.444  15.753   4.509
64285W        W36710  34.282  34.460   4.047
64286W        W36711   7.277  43.494  13.208
64287W        W36712  31.047   2.561   5.084
64288W        W36713  14.228  37.550   3.347
64289W        W36714  38.851  26.294  10.593
64290W        W36715   1.160  18.760   1.233
64291W        W36716   9.700  22.113  11.732
64292W        W36717  28.000   2.553  13.134
64293W        W36718  12.318  23.799   1.348
64294W        W36719   2.055  17.304  12.536
64295W        W36720   7.384  24.453  13.414
64296W        W36721  28.643  15.717  12.428
64297W        W36722  43.070  23.481   0.805
64298W        W36723  13.593  20.745   4.688
64299W        W36724   5.580  32.787   2.317
64300W        W36725  22.282   9.685  12.399
64301W        W36726   3.683  27.615  14.869
64302W        W36727  24.841  31.808   0.930
64303W        W36728  32.856   1.002  11.015
64304W        W36729  10.243  43.039   1.328
64305W        W36730  33.531  12.209   2.350
64306W        W36731  33.315  43.861  13.832
64307W        W36732  39.951  22.709  13.057
64308W        W36733   1.963   9.112   3.207
64309W        W36734  37.367  23.345  13.288
64310W        W36735  27.592  37.393  11.149
64311W        W36736  14.764  33.428  11.572
64312W        W36737  27.074  30.543   1.364
64313W        W36738  40.776  19.269  13.950
64314W        W36739  42.627   7.861  14.767
64315W        W36740   9.771  36.569  12.431
64316W        W36741  12.687   8.451   4.557
64317W        W36742  34.112  16.659  14.698
64318W        W36743  13.152  29.514   4.199
64319W        W36744  20.844  27.777   3.865
64320W        W36745   0.298  38.380  14.462
64321W        W36746  33.395  15.088  13.328
64322W        W36747  24.672   3.929  12.181
64323W        W36748  24.699  28.258  13.948
64324W        W36749  17.263  13.336  12.089
64325W        W36750   6.735  37.940  11.461
64326W        W36751   4.691   6.941   5.154
64327W        W36752   9.535  14.301   0.280
64328W        W36753  16.931  42.295  14.733
64329W        W36754  11.433  32.212   2.770
64330W        W36755   5.857  38.637  13.890
64331W        W36756  15.659   6.357   3.849
64332W        W36757  26.679  12.668   0.436
64333W        W36758  22.600  17.536   0.841
64334W        W36759  22.085  44.391   4.734
64335W        W36760  12.353  30.392   1.637
64336W        W36761  38.117   6.443   4.127
64337W        W36762  37.053   3.080   4.473
64338W        W36763   5.177  42.186  12.628
64339W        W36764  12.096  32.952   1.615
64340W        W36765  17.232  41.797  13.848
64341W        W36766  24.940   8.209  14.095
64342W        W36767  17.219   6.606  12.611
64343W        W36768  40.323  32.595   3.415
64344W        W36769  23.580   4.735  13.371
64345W        W36770  24.554  28.761  13.942
64346W        W36771  34.636   6.602   1.072
64347W        W36772  19.246  10.873  12.814
64348W        W36773   4.119  10.728  11.444
64349W        W36774  22.164  42.307   3.607
64350W        W36775  43.029  24.954   4.726
64351W        W36776  27.635  19.665  12.059
64352W        W36777  26.579   1.530  14.013
64353W        W36778  23.317  21.832  13.949
64354W        W36779  16.717  14.636   2.631
64355W        W36780  21.968   7.261  14.980
64356W        W36781  33.315  30.104  13.020
64357W        W36782  12.655  17.120   3.031
64358W        W36783   8.245  20.122   1.446
64359W        W36784  42.062  14.309  14.367
64360W        W36785  44.768  11.827  10.372
64361W        W36786  31.590  21.793   3.610
64362W        W36787   5.865  20.231   3.720
64363W        W36788  12.653  37.577   4.437
64364W        W36789  13.409  17.592  14.871
64365W        W36790  44.498   2.237   0.539
64366W        W36791  10.808  29.348   3.082
64367W        W36792   2.855  43.777   4.172
64368W        W36793   9.170  14.635   3.274
64369W        W36794  21.196   0.330  13.113
64370W        W36795  37.807  31.415  11.600
64371W        W36796  19.006   8.692   0.994
64372W        W36797  25.470  34.309  10.722
64373W        W36798   6.851  44.021   4.855
64374W        W36799  17.493  25.151   4.252
64375W        W36800  33.621  16.064  13.018
64376W        W36801  12.704  41.760  12.903
64377W        W36802   7.294   3.702  13.446
64378W        W36803  12.912  35.999  11.110
64379W        W36804  27.871  33.417   2.750
64380W        W36805  31.571  16.812  10.268
64381W        W36806  23.587   5.773  10.875
64382W        W36807  30.233  21.537  14.302
64383W        W36808  21.173  42.504   3.673
64384W        W36809   1.366  28.768  14.359
64385W        W36810  40.366  41.055   3.770
64386W        W36811  37.094  13.154   0.665
64387W        W36812  31.874  20.853   3.578
64388W        W36813   2.388   7.269   2.390
64389W        W36814   0.736  24.543  14.348
64390W        W36815   7.210  36.504   0.236
64391W        W36816  30.329  41.287   2.804
64392W        W36817  36.003  21.772  10.687
64393W        W36818  32.025  28.545  12.501
64394W        W36819  44.047   8.505   1.856
64395W        W36820  32.609  29.188  11.833
64396W        W36821  38.083  23.259  11.017
64397W        W36822   4.723  22.616   4.593
64398W        W36823  33.788   7.950   2.813
64399W        W36824  11.084  33.035  11.453
64400W        W36825  35.786   2.959  11.506
64401W        W36826  13.766  36.796  14.759
64402W        W36827  29.260  15.643   5.083
64403W        W36828  41.012   3.248  12.905
64404W        W36829  15.093  40.529   0.611
64405W        W36830   8.108  16.862  12.030
64406W        W36831  33.618   7.849  11.186
64407W        W36832  12.642  23.103  12.878
64408W        W36833   3.241  34.583  14.996
64409W        W36834  21.036   5.648   0.732
64410W        W36835   9.812  16.141   0.964
64411W        W36836  19.803   5.904   3.226
64412W        W36837  37.435  22.232  12.383
64413W        W36838   3.018  32.921   3.662
64414W        W36839  30.009  16.132  12.900
64415W        W36840   8.354  17.262   1.310
64416W        W36841  30.944  10.629  13.791
64417W        W36842   0.435  35.708   2.332
64418W        W36843  12.590  15.629   0.658
64419W        W36844  14.035   0.455   3.492
64420W        W36845  28.961  28.556  11.918
64421W        W36846  26.289  12.389   0.641
64422W        W36847   5.262  17.122  11.942
64423W        W36848  31.911  44.506   4.196
64424W        W36849  29.640  14.755   2.961
64425W        W36850  44.805  30.634   0.364
64426W        W36851  42.366   3.258   5.352
64427W        W36852  40.434  21.613  10.385
64428W        W36853   0.777   8.398   1.243
64429W        W36854  43.514   6.135   1.634
64430W        W36855  35.324  34.390  14.547
64431W        W36856  14.881  28.157   0.567
64432W        W36857  34.080  16.277  14.351
64433W        W36858  40.916  14.614  11.149
64434W        W36859  40.612  16.031   0.388
64435W        W36860   8.640   6.072   4.265
64436W        W36861  13.363  21.531  13.177
64437W        W36862   7.889  24.109   3.798
64438W        W36863  42.277  27.467  13.444
64439W        W36864  27.090  42.579  13.995
64440W        W36865   1.287  34.460  10.526
64441W        W36866  14.839   7.382  13.540
64442W        W36867  20.313  36.906  14.336
64443W        W36868   8.309  41.345  14.410
64444W        W36869  41.559  36.090   3.391
64445W        W36870   2.332  27.668   1.756
64446W        W36871   0.096   0.556   4.125
64447W        W36872  26.601   3.975  11.593
64448W        W36873  15.766  10.653   1.301
64449W        W36874  43.301  28.401   1.526
64450W        W36875  25.053  23.295  13.824
64451W        W36876  31.561  19.568  12.097
64452W        W36877  11.648   8.226   1.741
64453W        W36878   6.015  41.564  10.904
64454W        W36879  30.006  42.308  14.875
64455W        W36880  11.336  25.954  10.406
64456W        W36881  16.274  20.356  14.413
64457W        W36882  22.118   2.008   0.988
64458W        W36883  26.133  29.233   4.799
64459W        W36884  38.522  22.703   2.480
64460W        W36885   2.979  37.433  13.841
64461W        W36886  10.119  27.111   1.274
64462W        W36887   8.216  25.902  13.078
64463W        W36888  44.685  25.784   0.368
64464W        W36889  28.896  26.646  11.932
64465W        W36890   4.808  19.131   4.598
64466W        W36891  42.286  25.647  13.451
64467W        W36892  37.766  35.473  12.891
64468W        W36893  13.918  25.293   1.161
64469W        W36894  12.008   8.919  14.525
64470W        W36895  25.047   3.027   2.956
64471W        W36896  13.778  27.182   2.867
64472W        W36897  43.475  18.164  11.504
64473W        W36898  26.554  20.706   4.162
64474W        W36899  34.984   5.271   2.300
64475W        W36900  13.377  37.047   4.935
64476W        W36901  31.780   1.397   3.770
64477W        W36902  12.226  44.874   2.395
64478W        W36903  31.462  40.570  12.316
64479W        W36904  29.941   6.269  10.721
64480W        W36905   1.694  15.341   3.205
64481W        W36906   1.861  30.578  10.847
64482W        W36907  25.503   8.437  12.881
64483W        W36908  28.469  22.615   3.837
64484W        W36909   3.404  26.034  12.618
64485W        W36910   6.108  27.604   3.829
64486W        W36911   7.639  15.729  11.950
64487W        W36912  15.061   5.973   0.918
64488W        W36913  11.741  42.371  10.787
64489W        W36914  34.493  20.427   4.449
64490W        W36915  19.914  10.112   4.584
64491W        W36916  24.958   8.336  12.142
64492W        W36917  37.339   1.036  14.422
64493W        W36918  39.385  21.707   2.232
64494W        W36919  40.008   1.987  11.567
64495W        W36920  22.793  33.460   0.924
64496W        W36921  19.281   2.414  10.739
64497W        W36922   6.131   1.431  12.364
64498W        W36923  18.099  11.202  12.376
64499W        W36924  41.331   6.063   0.647
64500W        W36925  37.738   2.448  13.406
64501W        W36926  24.346  43.235   3.925
64502W        W36927  27.159  24.155   4.568
64503W        W36928   0.719  32.945   2.860
64504W        W36929  12.277  22.602  11.291
64505W        W36930  18.719  15.597  13.361
64506W        W36931   7.844  20.685   4.668
64507W        W36932  28.617  26.519   3.797
64508W        W36933   7.228  25.029  13.941
64509W        W36934   2.903   8.807   0.047
64510W        W36935   8.674  39.077   1.055
64511W        W36936  41.547  10.148  12.812
64512W        W36937  26.898  34.907   0.822
64513W        W36938  12.617  27.490   2.198
64514W        W36939   8.297  21.717   2.227
64515W        W36940  26.574  22.287  14.107
64516W        W36941  24.133  44.701  11.214
64517W        W36942  35.145   8.180  11.998
64518W        W36943  29.724  36.246  12.658
64519W        W36944  42.972  22.293   3.732
64520W        W36945   1.404  29.955  12.864
64521W        W36946  43.871   7.808   4.080
64522W        W36947  40.392  16.145   4.256
64523W        W36948   8.740  11.940  10.822
64524W        W36949  23.260  22.127   3.945
64525W        W36950  14.501  27.862  14.074
64526W        W36951  15.628  13.398   2.768
64527W        W36952  34.592  38.856   4.298
64528W        W36953  15.035  26.013  13.482
64529W        W36954   9.779  42.530   3.339
64530W        W36955  32.459  16.092   1.642
64531W        W36956  42.200  12.928   0.802
64532W        W36957  30.658  28.930  11.498
64533W        W36958   3.974  41.378  13.841
64534W        W36959  36.905  39.333   2.260
64535W        W36960  39.405  29.624   4.966
64536W        W36961  28.929  44.761  13.654
64537W        W36962  36.364   4.947  10.287
64538W        W36963   1.576  30.191  12.348
64539W        W36964  25.535  40.365  14.407
64540W        W36965  41.505  39.295   1.230
64541W        W36966  38.806  33.607  12.598
64542W        W36967   7.753  41.430  12.151
64543W        W36968  41.588  30.766   1.175
64544W        W36969  31.149   4.348   1.300
64545W        W36970   6.905  37.562  11.116
64546W        W36971  11.879   0.761   0.517
64547W        W36972  10.238   3.769  13.383
64548W        W36973  29.980  23.079  13.507
64549W        W36974  29.814  33.882   1.451
64550W        W36975   8.234  19.202   0.357
64551W        W36976  30.653  42.740   4.562
64552W        W36977  11.452  31.187  11.989
64553W        W36978  44.502  37.975   1.162
64554W        W36979  16.151  19.097   2.869
64555W        W36980   4.887  14.252   3.304
64556W        W36981   6.830   4.391  13.399
64557W        W36982   6.782  11.637  14.802
64558W        W36983   2.957  39.060   4.601
64559W        W36984  29.934   4.275  14.935
64560W        W36985  11.092  31.364  11.071
64561W        W36986  30.846  35.596   4.634
64562W        W36987  36.406   1.206  11.951
64563W        W36988  34.439  28.935   1.472
64564W        W36989   4.823  40.333  11.905
64565W        W36990  36.709  31.903  12.024
64566W        W36991  41.942  13.382  13.086
64567W        W36992  24.605  40.323  14.842
64568W        W36993  42.997  37.102   1.212
64569W        W36994   0.325  39.396   2.647
64570W        W36995  33.849  23.575  12.483
64571W        W36996  41.971   2.323  12.926
64572W        W36997  15.729  24.128  12.006
64573W        W36998  33.524   9.367   0.195
64574W        W36999  17.287  34.043  14.420
64575W        W37000  31.912  19.796   4.556
64576W        W37001  23.033  30.463   4.718
64577W        W37002  37.886  44.297   3.807
64578W        W37003   2.301  13.853  13.680
64579W        W37004  42.320   3.356  11.585
64580W        W37005  28.091  20.196   3.181
64581W        W37006  18.619  22.646   4.134
64582W        W37007  33.526  21.986   1.490
64583W        W37008  31.639  31.082  14.058
64584W        W37009   9.443  18.088   0.123
64585W        W37010   6.364   5.366  12.584
64586W        W37011  35.191   1.238   0.837
64587W        W37012  15.789  11.905   1.754
64588W        W37013   5.185  38.928  13.967
64589W        W37014  15.954   4.315  14.797
64590W        W37015  18.174  43.587  11.085
64591W        W37016  30.430  38.282  11.479
64592W        W37017   9.677  17.059   2.335
64593W        W37018   9.377  29.110  13.925
64594W        W37019  36.575   1.776   1.770
64595W        W37020  10.944  27.477   1.414
64596W        W37021  28.590  25.251  14.403
64597W        W37022  31.970  25.839  12.259
64598W        W37023  22.816  39.019  12.922
64599W        W37024  12.281  20.974  14.962
64600W        W37025  15.957  29.920  12.527
64601W        W37026  23.062  11.459   3.681
64602W        W37027  40.311  44.429  12.957
64603W        W37028   8.905   3.356   2.362
64604W        W37029  36.499  20.656  14.967
64605W        W37030  40.720   8.837  11.198
64606W        W37031  34.683  17.225  11.221
64607W        W37032  33.162  15.207   4.647
64608W        W37033  17.515  37.953   1.639
64609W        W37034  15.497  23.517  10.741
64610W        W37035  23.549  26.986  14.381
64611W        W37036  33.060   1.278   0.454
64612W        W37037  15.862  34.705   1.370
64613W        W37038  23.598  38.069  13.677
64614W        W37039  10.730   2.245   2.711
64615W        W37040  33.349  11.108   0.102
64616W        W37041  16.784  22.238  14.348
64617W        W37042  21.135  25.116  13.657
64618W        W37043  12.289   5.028   1.819
64619W        W37044  13.778  19.363  11.203
64620W        W37045  38.492   0.966  14.349
64621W        W37046  20.565  20.189   2.891
64622W        W37047  26.223  13.250   3.636
64623W        W37048  20.599  13.541  14.841
64624W        W37049  26.483  34.385   1.432
64625W        W37050  41.584  22.374   0.978
64626W        W37051  11.271  34.097  14.722
64627W        W37052  36.920  16.051   2.232
64628W        W37053  15.469  32.018  14.071
64629W        W37054  16.611  34.694   0.721
64630W        W37055  42.332   6.270   0.472
64631W        W37056  31.933   7.730   0.180
64632W        W37057  44.359  44.079   0.311
64633W        W37058  20.097  30.917  13.514
64634W        W37059  36.998  42.191  11.528
64635W        W37060  28.044  16.419   0.745
64636W        W37061  25.247  26.463   4.076
64637W        W37062   9.580  16.613  12.116
64638W        W37063  42.312   7.321   1.494
64639W        W37064  40.046  15.660  12.401
64640W        W37065   7.299  11.695   1.088
64641W        W37066  35.482  19.671   3.329
64642W        W37067   9.404  36.821   1.669
64643W        W37068  44.634  41.914   4.172
64644W        W37069  29.077  29.813  11.678
64645W        W37070  10.046  13.318  10.871
64646W        W37071  39.311  34.468  12.674
64647W        W37072  32.920  30.098  12.083
64648W        W37073  12.731  21.602  11.990
64649W        W37074  16.794  24.898   1.877
64650W        W37075  17.579   3.291  13.143
64651W        W37076   8.899  14.220  14.491
64652W        W37077  29.727  19.574  11.277
64653W        W37078  31.622   3.895   2.832
64654W        W37079  42.262  14.380   0.775
64655W        W37080  28.354  19.084   0.735
64656W        W37081  13.814  22.994  13.564
64657W        W37082  41.742   3.481  11.522
64658W        W37083   9.013  14.716  13.617
64659W        W37084  23.812  14.259  14.368
64660W        W37085  26.623  43.494  14.454
64661W        W37086  43.368  22.660   4.416
64662W        W37087  29.376  32.925  12.440
64663W        W37088   3.209  31.762  14.812
64664W        W37089  43.136  44.423  10.837
64665W        W37090  37.850   5.498   0.705
64666W        W37091   7.031  35.052   1.193
64667W        W37092   2.285   5.802  11.160
64668W        W37093  44.306  14.284  12.411
64669W        W37094  29.578  25.272   0.878
64670W        W37095  20.913  26.090  14.079
64671W        W37096  22.972  17.817   3.622
64672W        W37097   4.215  27.727  12.519
64673W        W37098  12.887  23.984   5.535
64674W        W37099  13.862   6.166   1.790
64675W        W37100  18.799   5.789  13.348
64676W        W37101  22.656   8.870  12.809
64677W        W37102  39.044  27.611  14.019
64678W        W37103  31.488   7.915  12.677
64679W        W37104  38.606  19.755   4.138
64680W        W37105  28.089  21.793   1.816
64681W        W37106  39.001  19.328  12.042
64682W        W37107  44.921   4.471  10.774
64683W        W37108  43.430  32.188  10.559
64684W        W37109  22.106  33.863  11.584
64685W        W37110   9.108   9.389   2.626
64686W        W37111  36.447  33.415   3.394
64687W        W37112  35.106  25.054   3.346
64688W        W37113  43.020  16.562  14.421
64689W        W37114  20.941  41.391   0.821
64690W        W37115  19.595  21.135  14.879
64691W        W37116  37.885  34.132   3.610
64692W        W37117  17.700  22.379   1.254
64693W        W37118  28.520  19.804   1.923
64694W        W37119  41.700  37.964   1.962
64695W        W37120  21.228  13.540   2.414
64696W        W37121   9.765   2.612   0.266
64697W        W37122  29.968  19.465  13.335
64698W        W37123  18.266  44.514  11.049
64699W        W37124  44.732  36.491   0.114
64700W        W37125  16.619  19.254   2.725
64701W        W37126  16.864  14.647   1.666
64702W        W37127   0.252  11.735  10.676
64703W        W37128  12.061   4.293   3.663
64704W        W37129   2.983   6.684  10.707
64705W        W37130  17.656  40.774  14.527
64706W        W37131  15.227   4.633  14.256
64707W        W37132   0.772   2.786   4.245
64708W        W37133  35.612   6.221  13.796
64709W        W37134   5.664  32.096  14.528
64710W        W37135  11.588  17.581  10.642
64711W        W37136  19.708   8.773   1.794
64712W        W37137  35.825  21.167   0.243
64713W        W37138  25.243   7.497  14.359
64714W        W37139  26.180  33.903   2.717
64715W        W37140  30.385  34.359  11.023
64716W        W37141  31.710  18.104  13.910
64717W        W37142  36.394  35.717   5.075
64718W        W37143   2.184  11.292  12.434
64719W        W37144   1.421  11.419   3.572
64720W        W37145  36.323  41.273  11.415
64721W        W37146  24.019   9.426   1.284
64722W        W37147   8.948   0.827   4.629
64723W        W37148  18.586  34.810  11.673
64724W        W37149   9.534   9.788  11.103
64725W        W37150  22.987   3.377  13.158
64726W        W37151  41.038  13.235  14.194
64727W        W37152  28.503  18.055   3.504
64728W        W37153  34.210  43.971   0.824
64729W        W37154   7.647  27.818  11.559
64730W        W37155  41.766  27.658  12.276
64731W        W37156  34.945  42.009   3.759
64732W        W37157   8.047  30.100  14.212
64733W        W37158  37.596  31.665   4.213
64734W        W37159  40.999  13.494  11.201
64735W        W37160  32.527  17.277   1.467
64736W        W37161  19.540  28.394   2.173
64737W        W37162  18.205  13.030   0.488
64738W        W37163  40.562   0.240   3.527
64739W        W37164  42.056  36.589   4.416
64740W        W37165   4.889  35.333  12.527
64741W        W37166  36.806  19.016  13.474
64742W        W37167   6.816  19.158  13.998
64743W        W37168  23.519  15.592  12.231
64744W        W37169  28.020  37.133  13.310
64745W        W37170  34.844  21.235  13.889
64746W        W37171  35.611  23.693   2.783
64747W        W37172   8.991  35.477  13.513
64748W        W37173   2.306  42.773  13.879
64749W        W37174  25.907   3.273  12.456
64750W        W37175  38.322   7.261   2.389
64751W        W37176  16.572  27.374   1.209
64752W        W37177  36.065  12.732   3.835
64753W        W37178  37.998  38.751   0.727
64754W        W37179  18.215  42.060  11.088
64755W        W37180  33.090  32.914  11.991
64756W        W37181  30.611  42.180   0.439
64757W        W37182   5.835  31.507   1.780
64758W        W37183  19.477   8.470  13.374
64759W        W37184  23.622  12.659   5.066
64760W        W37185  14.840  34.580   3.412
64761W        W37186   6.195  33.144  14.296
64762W        W37187  43.354  14.172   1.359
64763W        W37188   5.352  21.495   5.218
64764W        W37189  32.230   9.290  12.940
64765W        W37190   0.133  39.113   3.041
64766W        W37191   5.812   6.308   1.564
64767W        W37192  32.925   9.614   3.737
64768W        W37193  20.239  41.609   2.015
64769W        W37194   5.319  27.701   4.394
64770W        W37195  25.087  24.001  14.950
64771W        W37196  42.377  14.713   1.153
64772W        W37197   4.193   5.192  14.205
64773W        W37198  14.322  44.265   0.806
64774W        W37199  21.505  23.993   0.418
64775W        W37200  38.549   3.704   1.302
64776W        W37201  42.895   6.847   4.062
64777W        W37202  13.191  28.205  13.148
64778W        W37203  32.229  14.316   3.705
64779W        W37204   4.311  32.524  12.471
64780W        W37205  22.663  36.064   0.321
64781W        W37206  44.384  10.852  12.484
64782W        W37207  38.088  15.092   0.898
64783W        W37208  16.622  24.760   4.175
64784W        W37209  16.622  30.492   5.114
64785W        W37210  42.497   8.785   0.799
64786W        W37211  20.751  14.747   3.098
64787W        W37212   7.411  35.953   4.928
64788W        W37213   8.884   1.837  10.802
64789W        W37214  37.518   4.566  12.954
64790W        W37215  36.180  24.536  12.647
64791W        W37216  24.818   2.812   4.674
64792W        W37217  23.674  44.969  10.830
64793W        W37218   5.311  23.022  11.622
64794W        W37219   5.370  33.680   3.237
64795W        W37220  37.956  23.444   2.625
64796W        W37221  21.987  44.108  11.525
64797W        W37222  39.008  35.667   0.270
64798W        W37223  11.543  31.639   0.003
64799W        W37224  40.823   1.317   4.160
64800W        W37225  23.384  29.408   1.856
64801W        W37226   3.288  23.198  11.871
64802W        W37227  11.729  11.870   3.617
64803W        W37228  37.818  18.803  14.739
64804W        W37229  31.629  34.378  12.543
64805W        W37230  19.002   3.219  11.381
64806W        W37231   6.151   7.427   2.214
64807W        W37232  22.976  15.935  14.952
64808W        W37233  28.181  31.870  13.391
64809W        W37234  22.196  32.603  12.614
64810W        W37235   2.708   1.854   2.632
64811W        W37236  11.177  26.163   1.345
64812W        W37237  29.752  32.370   4.358
64813W        W37238  20.638  11.944  10.408
64814W        W37239  13.564  26.460  11.059
64815W        W37240   0.173  38.428  12.477
64816W        W37241   4.556  42.105   0.549
64817W        W37242  14.303   7.845   1.930
64818W        W37243   6.241  25.924   1.260
64819W        W37244  43.721  29.561  13.135
64820W        W37245  27.862  14.160   1.385
64821W        W37246  31.244  13.338  10.917
64822W        W37247  38.084  29.988   4.162
64823W        W37248  17.489  43.026   9.966
64824W        W37249  36.828  15.636  12.538
64825W        W37250  26.571  27.776  11.137
64826W        W37251  40.775   8.946  12.528
64827W        W37252  39.189  20.553  14.954
64828W        W37253   6.398  44.676  11.149
64829W        W37254   6.427  12.526   3.182
64830W        W37255  10.376   5.317  10.994
64831W        W37256  31.165  26.643   2.239
64832W        W37257  44.068  34.410  11.140
64833W        W37258  39.452  24.451   2.803
64834W        W37259   1.324   3.018   0.253
64835W        W37260   8.803  10.802  14.508
64836W        W37261   7.247   2.914  12.413
64837W        W37262  28.659  10.236   2.728
64838W        W37263   7.364  32.840  10.638
64839W        W37264  12.087  23.007  14.791
64840W        W37265  17.740  33.551  13.715
64841W        W37266  14.716  27.523  11.190
64842W        W37267  43.335  42.989  13.331
64843W        W37268  22.176   1.506   2.808
64844W        W37269  20.105  34.860   0.741
64845W        W37270   9.609  42.014  10.705
64846W        W37271  16.742   4.366   2.248
64847W        W37272   0.197   9.191  13.927
64848W        W37273  40.879  29.075  10.514
64849W        W37274  40.804  14.122   4.222
64850W        W37275  26.140   6.456  12.904
64851W        W37276  43.304  33.637  11.633
64852W        W37277  40.828  26.590   1.194
64853W        W37278  18.243  29.192   2.778
64854W        W37279  22.784  22.950   0.227
64855W        W37280  32.615   8.767   0.771
64856W        W37281   1.163  30.119  14.499
64857W        W37282  20.223   4.918  13.841
64858W        W37283   9.270  40.593   0.086
64859W        W37284   4.181  40.357   0.212
64860W        W37285   4.240  38.485   3.049
64861W        W37286  42.662  16.035   3.435
64862W        W37287  39.538   8.340  14.558
64863W        W37288  16.562  14.616   0.829
64864W        W37289   9.382  13.377   2.739
64865W        W37290  32.293   1.502   3.738
64866W        W37291   4.989  39.121   3.165
64867W        W37292  25.302  43.492   2.826
64868W        W37293  26.637  31.098  12.067
64869W        W37294   1.563  26.146   0.296
64870W        W37295   9.193  21.071   3.266
64871W        W37296  18.008   1.276   1.393
64872W        W37297  35.183   2.358  12.184
64873W        W37298   6.816   3.732  14.509
64874W        W37299  44.602  42.826   0.026
64875W        W37300  18.081  14.393   1.764
64876W        W37301  35.630  17.348   3.309
64877W        W37302  44.472   3.181   0.207
64878W        W37303  38.086  17.022  13.098
64879W        W37304  15.531  40.932   2.880
64880W        W37305  39.507  36.049  12.018
64881W        W37306  13.775  39.965   0.507
64882W        W37307  31.691   3.833  13.447
64883W        W37308  32.637  40.139  12.161
64884W        W37309  44.607  25.599  10.296
64885W        W37310  15.588  17.052  14.497
64886W        W37311   6.578   5.266  10.355
64887W        W37312   8.231  18.602   1.800
64888W        W37313  18.269   6.849   2.225
64889W        W37314  28.341  13.380  14.263
64890W        W37315  27.402  11.321   2.819
64891W        W37316  10.731  26.253   4.407
64892W        W37317  20.129  16.837  14.780
64893W        W37318   4.390  17.273  13.372
64894W        W37319  16.305  34.457  13.644
64895W        W37320   8.736  28.068   0.808
64896W        W37321  36.987  41.788   1.272
64897W        W37322  21.592  40.988   4.042
64898W        W37323  20.606  43.173  12.551
64899W        W37324  15.962   7.902  12.538
64900W        W37325  15.504  15.828   1.261
64901W        W37326   8.456   3.902  11.010
64902W        W37327  11.694  27.476   2.634
64903W        W37328   5.268  17.748   4.350
64904W        W37329  22.124  34.112   1.643
64905W        W37330  39.314   3.191   1.120
64906W        W37331  38.125  26.057   0.415
64907W        W37332  14.527   0.348   3.623
64908W        W37333  17.216  18.638  10.748
64909W        W37334  15.353  41.563  11.213
64910W        W37335  27.382  26.638  14.385
64911W        W37336  30.396  36.142  14.693
64912W        W37337  39.561   8.327  11.638
64913W        W37338  26.786  30.103  10.402
64914W        W37339  35.466  40.571   2.858
64915W        W37340   6.695  24.281   2.796
64916W        W37341  20.231  31.425   1.927
64917W        W37342  33.515  35.372   2.024
64918W        W37343   6.184   7.415   3.702
64919W        W37344   2.418  37.620   9.734
64920W        W37345  29.069  21.020  13.299
64921W        W37346  10.183   5.274   3.339
64922W        W37347  28.623   7.889   0.901
64923W        W37348  35.354   2.717   0.243
64924W        W37349  19.829   7.300  12.453
64925W        W37350  21.931  38.831   1.439
64926W        W37351  38.851  34.865   4.488
64927W        W37352  35.299  37.419  10.717
64928W        W37353  10.343   9.647   2.994
64929W        W37354  41.901  44.788  13.929
64930W        W37355   9.380  43.019   3.762
64931W        W37356  16.864  14.890  13.859
64932W        W37357  26.023  23.630  11.203
64933W        W37358  30.901  29.920  12.072
64934W        W37359   2.348   0.310   0.079
64935W        W37360  10.882  30.954  14.005
64936W        W37361  11.223   7.315   4.485
64937W        W37362   0.809  15.188  10.694
64938W        W37363   3.892  18.344  12.260
64939W        W37364   0.509  19.071   0.499
64940W        W37365  40.559  30.029  11.032
64941W        W37366  29.682   0.882  13.921
64942W        W37367  29.930   4.340  11.629
64943W        W37368  20.818  14.240   0.030
64944W        W37369  33.928  34.187   0.227
64945W        W37370  15.252  35.820  14.880
64946W        W37371  14.184  39.272  13.821
64947W        W37372  26.618  17.582   2.828
64948W        W37373  19.101  20.694   3.903
64949W        W37374  28.636  37.374   3.985
64950W        W37375   5.958  39.032  11.170
64951W        W37376  14.099   9.692   1.445
64952W        W37377  12.023  12.248  11.979
64953W        W37378  19.625   7.976  14.279
64954W        W37379  27.167  44.815   2.789
64955W        W37380  13.097  38.417  12.121
64956W        W37381   1.922  40.464  12.328
64957W        W37382  36.393   4.783   3.078
64958W        W37383  22.105   2.192  14.467
64959W        W37384  21.745   4.018  11.587
64960W        W37385   3.792  37.013   3.737
64961W        W37386  19.165  15.160   4.058
64962W        W37387  13.636  26.486   3.642
64963W        W37388  12.628   2.690  12.386
64964W        W37389   2.944  12.186   0.016
64965W        W37390  39.168  11.309  11.320
64966W        W37391  40.487  28.594  11.797
64967W        W37392  35.628  36.941  13.877
64968W        W37393  27.961  27.155   2.701
64969W        W37394  22.141   6.829   1.861
64970W        W37395  33.515   9.359  12.021
64971W        W37396  42.573  41.690   1.727
64972W        W37397  24.541  25.670  10.721
64973W        W37398  15.763   3.852  14.382
64974W        W37399  29.119  15.967  12.492
64975W        W37400   0.526   4.164   4.404
64976W        W37401   1.036  39.639   9.804
64977W        W37402  21.753  21.587   3.176
64978W        W37403  12.180  28.006  14.976
64979W        W37404  21.741   5.712   0.398
64980W        W37405  41.885   4.642  12.676
64981W        W37406  19.549  38.419  11.942
64982W        W37407  22.151   6.860  10.680
64983W        W37408  28.868   0.810   0.957
64984W        W37409   2.515  14.721  12.078
64985W        W37410  34.954  32.856   3.665
64986W        W37411  19.004  37.455  10.979
64987W        W37412  26.634  42.336   4.671
64988W        W37413   8.600   1.474  14.674
64989W        W37414  19.379   3.899   0.263
64990W        W37415  14.711   6.499  10.495
64991W        W37416  17.031   1.802   3.638
64992W        W37417  34.748  37.948  11.074
64993W        W37418   5.252  30.612   0.799
64994W        W37419  23.723  17.477  13.506
64995W        W37420  24.612  23.058   0.797
64996W        W37421  12.963   3.756  12.642
64997W        W37422  18.967   1.372  12.446
64998W        W37423  33.537  27.637  12.887
64999W        W37424  14.600  43.270   0.825
65000W        W37425  20.118  33.329  11.402
65001W        W37426   8.352   5.462   3.790
65002W        W37427  32.026  44.375   0.828
65003W        W37428  24.359   4.293  11.461
65004W        W37429  30.889  23.637   4.736
65005W        W37430   6.806   1.500  12.498
65006W        W37431  17.346  41.272  13.880
65007W        W37432   1.019  28.408   2.799
65008W        W37433  18.067   3.023   0.355
65009W        W37434  37.771  20.199   3.210
65010W        W37435  20.026  23.052   1.947
65011W        W37436   8.182  33.554   1.723
65012W        W37437  38.825   8.381  14.866
65013W        W37438  14.741  40.894   3.281
65014W        W37439  41.086  35.189  12.946
65015W        W37440  28.679  31.701  13.353
65016W        W37441  28.256  37.627   2.285
65017W        W37442  12.683   3.247  10.705
65018W        W37443   0.984   2.399  13.401
65019W        W37444   3.006   1.879  10.749
65020W        W37445  26.675  23.740  13.003
65021W        W37446  31.840  16.902  12.400
65022W        W37447  32.674  33.215   1.030
65023W        W37448  16.876  41.417   2.111
65024W        W37449   3.201   1.738  11.706
65025W        W37450  40.030  40.571  11.267
65026W        W37451  34.304  11.746  13.828
65027W        W37452  26.728  12.829  11.635
65028W        W37453  20.980  27.084  10.568
65029W        W37454  41.342  27.953   0.939
65030W        W37455  34.411   4.151  12.721
65031W        W37456  24.070  12.302   4.181
65032W        W37457  41.845  27.810  14.229
65033W        W37458  27.759  15.407   0.211
65034W        W37459  42.784  32.708   4.829
65035W        W37460  14.843  14.132   2.262
65036W        W37461  37.108  26.000  12.055
65037W        W37462  41.340  28.883  12.144
65038W        W37463  17.650   7.464  14.947
65039W        W37464  11.715  32.079  14.279
65040W        W37465  36.116  18.692   2.625
65041W        W37466  14.700  42.904   2.704
65042W        W37467  38.328  14.268  10.766
65043W        W37468  33.784  24.572   0.417
65044W        W37469  14.332  41.569  14.058
65045W        W37470  35.850  38.845  13.019
65046W        W37471  35.770  40.399   2.103
65047W        W37472  30.240  20.237  10.744
65048W        W37473  10.007   7.439   0.867
65049W        W37474  11.699  33.149  11.061
65050W        W37475  37.491   5.848   4.989
65051W        W37476  33.150   7.827  14.436
65052W        W37477  34.908  22.146  14.790
65053W        W37478  40.453   0.716  10.571
65054W        W37479  37.276  17.314  10.632
65055W        W37480  22.162   4.860   4.225
65056W        W37481  36.996   5.318   0.313
65057W        W37482  40.506  39.013  11.181
65058W        W37483  33.393   9.594   4.675
65059W        W37484  14.192  43.773   0.692
65060W        W37485  21.523  26.735   1.478
65061W        W37486  23.043  42.095   1.910
65062W        W37487  29.502  19.191  11.926
65063W        W37488   0.235  29.953   4.121
65064W        W37489  21.592  44.503   4.649
65065W        W37490  23.464   7.408  12.397
65066W        W37491  39.702  19.491   1.813
65067W        W37492   5.932  43.522  10.714
65068W        W37493  43.887   1.922  12.175
65069W        W37494  29.101  30.357   3.738
65070W        W37495  15.450  24.548  11.849
65071W        W37496  30.613  23.160  14.460
65072W        W37497  26.086  34.416  13.912
65073W        W37498  41.274  44.089   3.372
65074W        W37499   2.399  28.057  11.458
65075W        W37500  12.224  20.014  12.412
65076W        W37501  17.279  17.766  14.368
65077W        W37502  24.241  43.025  12.832
65078W        W37503  36.888  40.237   1.428
65079W        W37504  40.636  17.155   3.707
65080W        W37505  31.215  41.799   3.569
65081W        W37506   6.553   7.061   3.845
65082W        W37507  19.346   3.031  14.736
65083W        W37508  42.309   3.822  14.980
65084W        W37509  32.676  17.930  13.883
65085W        W37510  10.378  13.717   0.225
65086W        W37511  16.657  30.660  10.939
65087W        W37512   6.666  26.021   3.439
65088W        W37513  11.297   7.885   1.401
65089W        W37514  11.707  37.451   2.352
65090W        W37515  40.449  25.109  11.850
65091W        W37516   6.172  11.227  12.120
65092W        W37517  11.655   5.247   0.794
65093W        W37518  25.415  36.328  12.978
65094W        W37519  11.912  14.141   3.235
65095W        W37520  10.572  14.228  14.543
65096W        W37521  15.257  39.451   2.203
65097W        W37522  37.326  39.201  11.161
65098W        W37523  32.550  20.030  11.401
65099W        W37524  33.946   7.536   3.925
65100W        W37525  41.416  11.207  13.948
65101W        W37526  40.929  24.248  12.864
65102W        W37527  21.188  30.029  13.044
65103W        W37528  30.272  41.875  14.258
65104W        W37529  24.694  21.335  11.882
65105W        W37530  12.163   9.704   3.211
65106W        W37531  25.449  21.527  13.977
65107W        W37532   1.316  27.534   0.268
65108W        W37533  29.570  35.545  13.421
65109W        W37534  41.068   2.553  14.462
65110W        W37535  32.243   6.449  13.066
65111W        W37536  34.113  29.872  14.369
65112W        W37537  23.941  21.275   4.555
65113W        W37538  21.256  23.677   2.630
65114W        W37539  37.777   6.374   2.786
65115W        W37540  32.495  33.339   2.053
65116W        W37541  36.328  11.869  12.668
65117W        W37542  42.843  21.003  11.033
65118W        W37543  40.515  24.027  13.076
65119W        W37544  15.733  18.316   0.800
65120W        W37545  38.802  40.018   0.944
65121W        W37546   0.385   4.820   2.662
65122W        W37547   2.334   5.258   3.132
65123W        W37548  40.585  13.287  10.696
65124W        W37549  24.206  27.089   1.253
65125W        W37550   5.093  32.605  13.228
65126W        W37551  42.432  27.791   1.966
65127W        W37552   8.315  24.929  14.005
65128W        W37553   6.306  38.538   0.847
65129W        W37554  41.916  31.860   4.086
65130W        W37555  15.606  44.180  14.462
65131W        W37556  44.370  25.717   4.511
65132W        W37557  41.013  20.660   1.815
65133W        W37558  34.467  25.688   1.759
65134W        W37559   1.890  41.920  12.682
65135W        W37560  25.162  25.734   1.014
65136W        W37561  16.052  21.469   3.178
65137W        W37562   3.295  12.155  10.688
65138W        W37563  38.989  31.938  12.767
65139W        W37564  25.249  43.840  11.571
65140W        W37565  37.743  23.332   9.697
65141W        W37566  18.321   6.653  11.160
65142W        W37567  27.894  35.805  12.115
65143W        W37568  43.355  30.442   2.482
65144W        W37569  44.518  38.964  13.521
65145W        W37570  29.886  30.821   9.652
65146W        W37571   5.264  44.890  12.639
65147W        W37572  23.655  42.319   1.362
65148W        W37573  36.076  37.053   2.939
65149W        W37574  37.094  37.588   1.140
65150W        W37575  25.437  18.594  10.650
65151W        W37576  26.510  16.118  12.397
65152W        W37577  23.023  39.396   4.426
65153W        W37578  44.792  20.203   1.867
65154W        W37579   2.592  23.534  14.371
65155W        W37580  23.913   1.790   1.766
65156W        W37581  11.173  13.838  13.558
65157W        W37582   7.296   4.295   4.942
65158W        W37583   5.870  10.348  10.353
65159W        W37584  11.153  15.716  14.900
65160W        W37585  44.038  12.760   0.956
65161W        W37586  25.495  28.933  12.946
65162W        W37587   1.069   1.860   4.248
65163W        W37588  15.267   6.818   4.564
65164W        W37589  10.815  25.025  13.796
65165W        W37590  42.118  26.829   0.448
65166W        W37591  20.074  24.208  14.243
65167W        W37592  26.480  26.011   4.159
65168W        W37593  33.954  22.103  12.730
65169W        W37594  30.699  43.762   4.502
65170W        W37595  19.913  34.689   2.097
65171W        W37596  16.129  36.517  12.965
65172W        W37597  44.039   2.797  13.051
65173W        W37598  27.207  42.993   1.388
65174W        W37599  41.478   8.636   0.910
65175W        W37600  40.197  17.162  11.467
65176W        W37601  23.669  31.838   3.810
65177W        W37602  26.935  37.599  12.017
65178W        W37603  34.045  39.436   0.920
65179W        W37604  26.558  40.982   2.803
65180W        W37605  21.654  12.729   2.848
65181W        W37606  34.541  28.124  11.132
65182W        W37607  37.385  31.688   2.787
65183W        W37608   1.825  15.988  14.412
65184W        W37609   0.727  22.604   3.790
65185W        W37610  29.553  17.623   2.379
65186W        W37611  22.824  15.692  13.005
65187W        W37612  44.231  40.633   0.729
65188W        W37613  15.693  13.262  10.926
65189W        W37614  40.914  36.385  10.439
65190W        W37615   2.750  18.708   3.550
65191W        W37616   9.299  20.180  12.869
65192W        W37617   0.692  41.777  10.540
65193W        W37618   8.429   9.324   3.192
65194W        W37619  23.791  33.942  12.512
65195W        W37620   1.990   1.746  13.030
65196W        W37621  25.048  40.592   2.626
65197W        W37622  26.259  31.938  14.927
65198W        W37623  28.631   8.094   4.060
65199W        W37624   7.919  17.552  11.513
65200W        W37625   4.521   2.822  12.499
65201W        W37626  40.420  38.086  11.196
65202W        W37627  22.363  19.563   2.850
65203W        W37628  33.004   3.326  10.637
65204W        W37629  13.040   1.886  11.105
65205W        W37630  26.709  32.224   4.154
65206W        W37631  20.729  12.609  12.007
65207W        W37632  19.633  18.695   3.848
65208W        W37633  17.291  37.992   2.725
65209W        W37634   4.710  32.424  12.771
65210W        W37635  41.897  34.568  13.649
65211W        W37636  28.707  43.336  13.928
65212W        W37637   4.225  41.794  10.723
65213W        W37638  41.194  34.477   3.139
65214W        W37639  11.130  39.579  11.496
65215W        W37640  13.612  35.124   2.824
65216W        W37641  12.736  16.077  14.513
65217W        W37642   1.414   0.300   3.553
65218W        W37643  41.311  21.827   3.360
65219W        W37644   5.500  13.535  12.044
65220W        W37645  33.181  27.530   1.585
65221W        W37646   2.891  34.846  13.491
65222W        W37647  34.938  14.043  14.890
65223W        W37648  12.484  34.627  12.411
65224W        W37649  44.872  22.658  13.136
65225W        W37650  35.471   7.449   1.270
65226W        W37651  19.574   0.756   1.827
65227W        W37652   1.879  32.838  13.410
65228W        W37653  29.259  14.446  13.750
65229W        W37654  11.583  19.493  11.752
65230W        W37655  21.150  31.685   4.083
65231W        W37656   7.871  20.364  11.116
65232W        W37657  19.259   9.845  11.039
65233W        W37658  15.840  34.365  14.024
65234W        W37659   4.286   0.962  11.726
65235W        W37660  39.492  34.828   2.223
65236W        W37661  29.014   6.231  13.276
65237W        W37662  42.124  26.372  12.057
65238W        W37663  21.651  20.647  13.759
65239W        W37664   8.199  11.952  11.660
65240W        W37665  21.212  29.716   1.258
65241W        W37666  31.762  24.910  10.781
65242W        W37667  16.949  10.411   5.094
65243W        W37668  33.999  20.915   2.383
65244W        W37669  18.208   0.771  12.470
65245W        W37670  20.820  23.934  11.724
65246W        W37671  14.645   7.319   2.186
65247W        W37672  15.376   7.417  14.741
65248W        W37673  12.858  38.006  11.916
65249W        W37674  14.230  15.056  10.963
65250W        W37675  33.344  25.742   3.128
65251W        W37676  35.641  37.523   4.553
65252W        W37677  29.981  19.084  12.124
65253W        W37678  24.959  16.071  14.068
65254W        W37679   8.862   7.101   2.760
65255W        W37680   8.033   8.070   5.412
65256W        W37681  37.401  14.215  11.181
65257W        W37682  31.046  23.958  11.964
65258W        W37683  43.920  15.739  12.004
65259W        W37684  24.216  10.336  12.456
65260W        W37685  10.878  37.427  12.057
65261W        W37686  24.615  11.069   2.825
65262W        W37687  29.540  23.182   0.078
65263W        W37688  38.899  42.650   5.035
65264W        W37689  11.347   1.149  12.007
65265W        W37690  42.920   6.252   2.706
65266W        W37691  40.081  26.715   1.894
65267W        W37692   7.714  24.262   1.652
65268W        W37693  23.520   8.980  10.275
65269W        W37694  22.606   7.117  11.495
65270W        W37695  19.012  20.578   4.816
65271W        W37696  36.897  23.062  11.887
65272W        W37697  23.787   4.217   1.687
65273W        W37698  27.028   5.335  11.651
65274W        W37699  33.880  35.021   1.810
65275W        W37700  36.531  35.948  13.827
65276W        W37701  32.018  33.517   0.567
65277W        W37702  39.120  36.148   1.573
65278W        W37703  36.195  21.041  11.161
65279W        W37704  43.081  11.486  13.996
65280W        W37705  21.567  25.993  12.016
65281W        W37706  17.771   0.833  11.470
65282W        W37707  14.349  16.169   0.184
65283W        W37708   8.307  13.547   4.089
65284W        W37709  35.318  25.962  13.907
65285W        W37710  37.070   5.233   1.276
65286W        W37711  39.439   0.186   9.744
65287W        W37712  27.438  34.892  10.513
65288W        W37713  38.828   8.184   0.841
65289W        W37714  17.073  25.963   2.611
65290W        W37715  41.694  12.396   3.931
65291W        W37716  42.032  12.348   3.043
65292W        W37717  34.605  35.695  13.772
65293W        W37718  32.551  18.035   4.675
65294W        W37719  18.233  19.004  10.820
65295W        W37720  24.874  35.883  12.697
65296W        W37721  21.773  32.536   0.268
65297W        W37722  14.046   3.688   4.168
65298W        W37723  29.603  41.422   1.977
65299W        W37724  12.243  14.456  11.160
65300W        W37725  17.161  37.023  14.578
65301W        W37726   5.323  42.634   1.426
65302W        W37727  28.498  12.515  14.017
65303W        W37728  15.402  41.222  11.590
65304W        W37729  38.388  44.872  11.068
65305W        W37730  27.659   7.328   1.405
65306W        W37731  29.945  12.109   0.431
65307W        W37732  26.942  23.777  12.526
65308W        W37733  22.276  22.232   3.670
65309W        W37734  41.406  37.341   2.364
65310W        W37735  30.458   5.106   3.538
65311W        W37736  26.629  28.032  12.610
65312W        W37737  21.442  32.604  11.894
65313W        W37738  29.099  36.825  14.393
65314W        W37739   4.909  12.854  13.467
65315W        W37740  16.793  24.561   2.834
65316W        W37741  42.390  40.950  11.899
65317W        W37742  15.303  16.233   2.605
65318W        W37743  31.764  42.066  10.770
65319W        W37744  15.276   3.752  13.060
65320W        W37745   0.512  11.342   3.423
65321W        W37746   2.265  15.359   1.957
65322W        W37747  40.817  25.176  13.225
65323W        W37748  12.763  36.558   0.980
65324W        W37749   5.343  36.657  10.902
65325W        W37750  40.423  31.923  11.534
65326W        W37751   7.637   0.007  10.663
65327W        W37752  38.436  27.998   1.861
65328W        W37753  30.569   8.863  13.326
65329W        W37754  20.569  33.270  11.098
65330W        W37755  10.898  40.013  11.596
65331W        W37756  21.787  29.498  13.914
65332W        W37757  33.682  10.883  11.418
65333W        W37758  25.900  38.997   0.935
65334W        W37759  31.168  33.471  11.180
65335W        W37760  24.638  17.612  14.907
65336W        W37761   4.056   7.190   0.212
65337W        W37762   7.400  38.575  14.333
65338W        W37763  26.694  19.026   2.779
65339W        W37764   4.781  28.694   0.792
65340W        W37765  13.348  11.534   1.733
65341W        W37766  31.104  41.507  12.154
65342W        W37767   9.416  19.671   5.192
65343W        W37768  38.407  35.550  11.707
65344W        W37769  18.308   8.176   2.012
65345W        W37770  40.195  29.972  12.281
65346W        W37771  10.624  29.078   4.077
65347W        W37772  19.930  11.384  11.250
65348W        W37773  15.888  12.503  14.398
65349W        W37774  32.064  38.836  14.602
65350W        W37775  33.339   6.205   3.363
65351W        W37776   9.434  22.452   4.026
65352W        W37777  29.469   7.215   3.243
65353W        W37778  14.710   0.257  10.576
65354W        W37779  34.186   7.245   0.734
65355W        W37780  42.062  32.351  14.127
65356W        W37781  25.672  30.646   0.812
65357W        W37782  20.241  36.891  11.489
65358W        W37783   9.970  44.961  11.510
65359W        W37784  11.640  12.088   4.625
65360W        W37785  15.079  33.044   3.808
65361W        W37786  15.761  29.868   1.885
65362W        W37787  37.428  40.516  14.463
65363W        W37788  24.889  20.788   0.116
65364W        W37789  42.534  32.505   2.360
65365W        W37790  30.007  30.042   2.906
65366W        W37791  40.812  22.020   4.803
65367W        W37792  34.802   6.183  10.415
65368W        W37793  24.428  19.072   1.383
65369W        W37794  10.844  13.624   2.165
65370W        W37795   0.351  26.732  13.694
65371W        W37796  12.063  28.780  13.404
65372W        W37797   0.671   6.774   4.848
65373W        W37798  17.158  28.389  12.045
65374W        W37799  19.620  40.259  12.661
65375W        W37800  22.562  19.193   2.475
65376W        W37801  26.516  11.395  13.024
65377W        W37802  37.409  30.994  14.400
65378W        W37803  42.466  30.850   2.232
65379W        W37804  41.057  27.873   0.076
65380W        W37805  34.278   4.179  11.241
65381W        W37806  34.709  16.391  13.751
65382W        W37807  11.170  35.835   4.186
65383W        W37808  20.214  32.905   3.784
65384W        W37809  10.721  24.682  11.923
65385W        W37810  37.858   7.211  11.361
65386W        W37811  22.103  26.958  12.876
65387W        W37812  25.574   6.763  14.363
65388W        W37813  17.039  13.803  12.012
65389W        W37814  43.938   0.815   3.795
65390W        W37815  10.255  25.420  12.155
65391W        W37816  11.250  44.848   4.693
65392W        W37817  38.517  14.183  13.888
65393W        W37818  14.342  31.038   2.754
65394W        W37819   1.486   5.853   4.179
65395W        W37820  21.570  10.619  13.481
65396W        W37821  25.776  30.620  12.179
65397W        W37822  12.491  16.338  14.935
65398W        W37823  35.102  37.107   0.886
65399W        W37824  37.365  23.566  14.082
65400W        W37825   4.052  19.928   4.998
65401W        W37826  23.036  42.525  14.911
65402W        W37827   0.941  12.425  11.177
65403W        W37828  43.849   2.354   3.361
65404W        W37829  36.435  33.451   4.383
65405W        W37830  15.584   4.273   0.237
65406W        W37831  18.049   8.253   4.314
65407W        W37832   9.520  14.094   2.447
65408W        W37833  43.304  36.989  11.875
65409W        W37834  10.414   7.104   0.763
65410W        W37835   0.686  26.376   1.018
65411W        W37836  13.134  35.579   4.926
65412W        W37837   7.771  24.899   3.243
65413W        W37838  39.301   1.568   2.775
65414W        W37839  43.427  11.844   3.532
65415W        W37840  22.758  22.958   1.395
65416W        W37841  13.112  29.601  12.045
65417W        W37842  37.472  22.357  13.265
65418W        W37843  16.732  11.726  13.023
65419W        W37844  22.062   7.368  13.987
65420W        W37845  19.588  33.544   1.289
65421W        W37846  23.759  42.893   4.599
65422W        W37847  19.520   1.382   2.963
65423W        W37848  42.450  35.556  11.456
65424W        W37849  43.740  39.991  11.111
65425W        W37850  14.324  34.217   1.357
65426W        W37851  42.165   3.311  14.309
65427W        W37852   8.392  26.729   1.180
65428W        W37853  25.237  44.304   1.422
65429W        W37854  40.006  39.606   1.391
65430W        W37855  12.838  29.128  10.632
65431W        W37856  20.146  29.420   3.421
65432W        W37857  37.063   4.167  14.771
65433W        W37858  25.585  10.627   9.864
65434W        W37859  27.380  15.093  12.994
65435W        W37860  34.229  28.540   2.722
65436W        W37861  36.811  32.057  14.285
65437W        W37862   2.943  32.550   3.284
65438W        W37863  18.997  41.208   0.249
65439W        W37864  37.822  43.324   3.270
65440W        W37865  33.680  18.590  11.760
65441W        W37866  16.084  19.020  14.762
65442W        W37867  35.304  22.218   4.400
65443W        W37868   7.940  33.074  11.504
65444W        W37869   8.659  12.973  10.348
65445W        W37870  30.943  12.594  10.577
65446W        W37871  21.067  22.305  12.401
65447W        W37872  21.196   0.498   2.741
65448W        W37873  35.871  31.931   4.304
65449W        W37874  35.285  18.307  14.350
65450W        W37875  43.484  24.084   2.064
65451W        W37876  22.811  11.273   4.141
65452W        W37877  40.561  18.168   1.800
65453W        W37878  34.005  34.387  12.185
65454W        W37879  41.229  31.487  14.417
65455W        W37880  28.085  10.649  14.900
65456W        W37881  12.839   8.546   0.205
65457W        W37882  18.120  31.433   4.890
65458W        W37883  43.432  29.355   1.148
65459W        W37884  22.172  35.994   2.300
65460W        W37885  42.994   1.777  10.879
65461W        W37886  15.311  36.335  11.931
65462W        W37887  22.033   0.695  13.380
65463W        W37888  12.554  12.317   3.301
65464W        W37889  23.174  29.519  12.559
65465W        W37890  41.478  37.019   3.459
65466W        W37891  37.581  21.706  12.492
65467W        W37892  15.773  39.448  11.663
65468W        W37893   1.815  25.924  13.305
65469W        W37894  41.511   2.389  13.096
65470W        W37895   2.370   8.189  12.991
65471W        W37896  35.856  37.088   1.855
65472W        W37897  15.597  10.742  12.686
65473W        W37898  11.299   9.607   4.824
65474W        W37899   0.496  23.506  13.465
65475W        W37900  12.184  19.105   1.445
65476W        W37901  41.361  10.684  14.552
65477W        W37902  20.490  17.352  11.453
65478W        W37903  39.547   5.373   1.720
65479W        W37904  43.460  18.556  14.768
65480W        W37905  38.568  32.867   0.908
65481W        W37906  34.907  17.026   3.621
65482W        W37907  14.454  30.496  13.025
65483W        W37908  14.147  29.706  14.137
65484W        W37909   0.517  18.126   0.444
65485W        W37910   4.459  28.649   4.474
65486W        W37911  22.612   8.917   2.377
65487W        W37912  30.487  42.395   3.201
65488W        W37913  12.293  28.462  12.203
65489W        W37914   6.674  35.408  13.428
65490W        W37915  14.755  38.799   4.670
65491W        W37916  13.494  12.200  11.567
65492W        W37917  14.889  40.758  13.008
65493W        W37918  31.544  10.820   0.307
65494W        W37919  18.555  20.419   0.990
65495W        W37920  20.627  36.956   2.144
65496W        W37921   5.746  11.763  10.837
65497W        W37922  20.808  39.337  13.776
65498W        W37923  43.287  21.745   4.426
65499W        W37924  38.269  20.108  14.477
65500W        W37925   1.564   0.929   1.868
65501W        W37926   6.435   7.895   4.026
65502W        W37927   3.249  25.179  11.126
65503W        W37928  22.780  44.035   0.933
65504W        W37929  13.214   4.315   0.271
65505W        W37930  12.263   3.283   3.042
65506W        W37931  23.811  10.557  10.606
65507W        W37932  33.482  42.813  11.383
65508W        W37933  12.614  36.549   0.491
65509W        W37934  11.622  35.784   2.963
65510W        W37935  13.878  26.389  12.452
65511W        W37936  36.670   9.042  11.599
65512W        W37937   0.314  37.448   2.947
65513W        W37938  20.176  34.370   1.478
65514W        W37939  29.669   9.103  12.430
65515W        W37940  43.296  16.197  12.420
65516W        W37941  12.186  17.142  12.446
65517W        W37942  22.174   9.211  10.252
65518W        W37943  16.830  27.241  12.871
65519W        W37944  19.652  38.520   4.012
65520W        W37945   5.311  11.225  12.425
65521W        W37946  10.851  40.525  12.513
65522W        W37947  39.906  29.473   4.351
65523W        W37948  41.914  17.319   3.173
65524W        W37949  27.911  21.314  10.900
65525W        W37950  21.519   4.284   4.196
65526W        W37951  39.376   3.904   2.790
65527W        W37952  25.850  25.914  12.003
65528W        W37953  33.799  39.478   1.415
65529W        W37954  26.101  43.992  13.311
65530W        W37955  15.896  20.923   3.410
65531W        W37956  38.402  42.562  11.923
65532W        W37957   2.261   0.484  13.380
65533W        W37958  37.260   8.328   2.220
65534W        W37959   0.537  27.406   0.905
65535W        W37960   9.263  21.887  14.441
65536W        W37961  32.439  11.149  10.526
65537W        W37962  14.869   4.460  13.609
65538W        W37963  36.473  26.318  10.011
65539W        W37964   8.873  35.577   1.238
65540W        W37965  12.880   6.654  13.063
65541W        W37966   0.499  18.988   4.263
65542W        W37967  38.785  40.769   3.528
65543W        W37968  23.672  10.239   0.608
65544W        W37969  25.953  35.956  13.573
65545W        W37970  15.282  41.535   4.232
65546W        W37971  24.596  26.492  12.543
65547W        W37972  16.675   5.189   3.746
65548W        W37973  27.018  37.255   0.667
65549W        W37974  31.606  38.474   1.394
65550W        W37975  44.347  40.800  11.451
65551W        W37976   1.235  16.167  13.731
65552W        W37977  20.173  41.903  13.059
65553W        W37978  37.808  30.177   3.209
65554W        W37979   4.519  36.392   4.824
65555W        W37980  44.925  22.528   2.500
65556W        W37981  24.033  24.170   4.563
65557W        W37982  34.322   2.247  12.658
65558W        W37983   9.406   3.183   3.241
65559W        W37984   1.333  33.981  13.087
65560W        W37985  29.030  27.414   3.801
65561W        W37986   2.831  34.997   3.562
65562W        W37987  10.402  36.441  11.494
65563W        W37988   5.151  19.853   1.302
65564W        W37989  28.416  40.968   1.379
65565W        W37990  27.925  38.814   5.033
65566W        W37991  24.764   4.993  13.493
65567W        W37992  10.554  43.522   3.028
65568W        W37993   4.521  40.149   1.620
65569W        W37994   3.408  15.539   5.242
65570W        W37995   2.786  26.331  12.534
65571W        W37996  23.733  13.929   3.852
65572W        W37997  20.925  19.099  14.296
65573W        W37998  15.218  37.350  14.475
65574W        W37999   6.812  19.644  14.524
65575W        W38000  11.888  19.849   1.660
65576W        W38001  43.568   9.529  13.214
65577W        W38002   9.238   2.045   4.212
65578W        W38003   4.899  19.074   1.722
65579W        W38004  40.476  40.366  10.370
65580W        W38005  23.073  17.028  12.875
65581W        W38006  39.903  44.032   3.617
65582W        W38007  10.165  28.678  13.027
65583W        W38008  30.646  10.767  13.366
65584W        W38009  19.570   0.397  11.538
65585W        W38010   1.989  26.122  14.310
65586W        W38011  44.284  15.791  12.372
65587W        W38012  34.980  35.889  14.078
65588W        W38013   0.508   3.293   4.296
65589W        W38014   1.266  17.375  12.870
65590W        W38015  30.574  42.691   0.384
65591W        W38016  17.804  42.439  14.701
65592W        W38017   4.430   7.672   2.342
65593W        W38018  21.487  16.909  12.791
65594W        W38019  15.701  16.369  14.899
65595W        W38020  13.774  44.061  12.125
65596W        W38021  19.158  19.229   3.617
65597W        W38022  17.220   2.809  11.155
65598W        W38023   7.132  12.171   3.261
65599W        W38024  25.910   5.155  14.332
65600W        W38025  15.539  14.854  14.928
65601W        W38026  33.842  25.255   3.648
65602W        W38027  10.144   2.846  10.750
65603W        W38028   4.525  30.604  12.480
65604W        W38029   1.167   7.254   1.638
65605W        W38030   2.406   4.455  14.920
65606W        W38031  38.583  28.429  13.580
65607W        W38032  43.021  12.710   3.698
65608W        W38033  31.790  37.952  12.151
65609W        W38034   7.782  24.424   2.146
65610W        W38035  33.491  19.632   0.767
65611W        W38036  24.263  22.180  11.617
65612W        W38037   3.415  21.119   0.530
65613W        W38038   0.226  30.422   2.315
65614W        W38039   4.070  11.088  13.345
65615W        W38040   2.292  17.456   4.565
65616W        W38041  13.675   6.924  13.519
65617W        W38042  27.678  12.736   1.979
65618W        W38043   0.755  10.378  14.836
65619W        W38044  32.161   1.397   0.823
65620W        W38045  34.377  21.879   0.458
65621W        W38046  20.507   8.869   2.701
65622W        W38047  36.598  23.033  14.997
65623W        W38048  23.010  14.908   0.963
65624W        W38049  31.175   2.403   0.766
65625W        W38050  43.161  20.738   4.173
65626W        W38051   5.372  14.415  11.098
65627W        W38052   4.018  43.406   0.811
65628W        W38053   4.044  17.830   2.237
65629W        W38054  34.839  22.330   2.232
65630W        W38055  32.624  26.517  11.707
65631W        W38056  32.423  17.494   3.994
65632W        W38057  41.258  43.972   2.363
65633W        W38058  26.536   0.250  12.422
65634W        W38059  38.410   5.501  14.026
65635W        W38060  18.836  25.068  12.489
65636W        W38061   3.880  38.805  10.151
65637W        W38062  16.531   0.675   0.420
65638W        W38063   7.916  22.215   4.393
65639W        W38064  39.867  15.743   0.182
65640W        W38065  10.303  34.773  11.939
65641W        W38066  34.880  34.424   2.808
65642W        W38067  15.967  18.399  14.843
65643W        W38068  23.541  35.853  12.397
65644W        W38069   8.496  23.958  12.863
65645W        W38070  16.624  30.836   3.290
65646W        W38071  29.829  11.189  14.878
65647W        W38072  42.449  21.573  10.794
65648W        W38073   8.618  42.327  13.439
65649W        W38074   8.451  40.392  13.514
65650W        W38075  23.038   3.149  14.448
65651W        W38076   8.877  13.434  10.315
65652W        W38077  34.528  19.884   5.108
65653W        W38078   2.845  27.906   4.786
65654W        W38079  15.644  18.819   4.962
65655W        W38080  10.256  43.422  13.941
65656W        W38081  14.818  17.161  14.132
65657W        W38082  19.047  23.453  12.160
65658W        W38083  29.377  39.813   1.746
65659W        W38084  28.489  23.043   4.126
65660W        W38085  22.174  18.710  12.233
65661W        W38086  10.467  29.604   4.191
65662W        W38087   6.867   3.954   3.481
65663W        W38088   4.612  29.522   2.320
65664W        W38089  40.792  13.061   4.162
65665W        W38090  38.903   8.808  11.189
65666W        W38091  30.757  36.203  12.434
65667W        W38092  41.947   6.500  14.917
65668W        W38093  32.981   6.413  12.427
65669W        W38094  10.669  41.365   0.776
65670W        W38095  38.190  15.352   2.845
65671W        W38096   3.068  15.660   2.446
65672W        W38097  34.539  24.782   2.246
65673W        W38098  20.777  10.585  14.783
65674W        W38099   8.011  10.674   4.065
65675W        W38100  41.804   4.377   1.377
65676W        W38101  25.384  20.768  11.648
65677W        W38102  12.519  12.076   4.579
65678W        W38103  28.969  19.520   1.792
65679W        W38104  41.031  15.549  12.680
65680W        W38105  44.436  14.528   4.731
65681W        W38106  27.616  37.719   3.293
65682W        W38107  30.543  17.180   2.672
65683W        W38108  20.795   9.678  14.974
65684W        W38109  17.883  12.208  13.301
65685W        W38110  32.001  42.484  14.077
65686W        W38111  14.095  41.497  11.051
65687W        W38112  44.221  13.850  13.838
65688W        W38113  13.316  34.536  14.809
65689W        W38114  10.065   4.270  13.364
65690W        W38115  17.262  35.841  12.134
65691W        W38116  17.756  38.651  14.840
65692W        W38117   4.353  10.912   1.767
65693W        W38118  23.963  37.411  13.266
65694W        W38119  22.563   9.618   0.902
65695W        W38120  25.992   9.494   2.584
65696W        W38121  41.611  23.113   3.654
65697W        W38122  18.921  44.839   1.440
65698W        W38123  10.495  10.555   4.903
65699W        W38124  36.460  40.514  12.123
65700W        W38125  21.010  40.304   3.354
65701W        W38126  13.108   3.456  11.455
65702W        W38127  11.299   1.714   2.740
65703W        W38128  22.001  18.583   2.831
65704W        W38129  29.308  13.190  11.064
65705W        W38130   8.086  15.603   2.159
65706W        W38131  40.781  32.860   2.318
65707W        W38132  32.588  36.122  10.936
65708W        W38133  27.074   1.668  14.078
65709W        W38134   4.648   6.280   3.469
65710W        W38135   9.458  16.949  13.542
65711W        W38136  25.093  26.864   1.840
65712W        W38137  25.630  41.724   2.312
65713W        W38138   6.363  17.513   4.159
65714W        W38139   6.174  16.796  10.699
65715W        W38140  11.149  43.576  12.399
65716W        W38141  37.775  34.490  12.392
65717W        W38142  16.758   9.663   4.079
65718W        W38143  42.309  26.819   4.684
65719W        W38144  36.458  15.829   0.537
65720W        W38145   7.273  39.619   3.605
65721W        W38146   8.656  14.333  13.279
65722W        W38147   3.623  14.245  14.636
65723W        W38148  28.552   2.312  10.510
65724W        W38149  44.249  39.329   4.178
65725W        W38150  21.279   3.765  14.959
65726W        W38151  36.415  17.183   0.912
65727W        W38152  20.899  36.917   2.607
65728W        W38153  11.573  14.969   2.949
65729W        W38154  36.444  39.951  12.399
65730W        W38155  36.359  29.028   0.416
65731W        W38156  13.249  17.049   1.396
65732W        W38157  27.801  29.518  12.482
65733W        W38158  23.079  19.481  11.592
65734W        W38159  30.495  26.506   1.774
65735W        W38160  43.144  39.874  13.157
65736W        W38161  10.807  19.710   3.649
65737W        W38162  33.415   6.304   4.268
65738W        W38163  10.188   0.483  14.415
65739W        W38164   6.332  40.599   1.418
65740W        W38165  21.578  13.602   1.013
65741W        W38166   5.223  24.478   4.603
65742W        W38167  43.325  12.927  12.576
65743W        W38168  40.920  33.425  12.031
65744W        W38169  30.922  24.068   3.218
65745W        W38170  25.189  30.117  12.003
65746W        W38171  26.056  13.413  14.540
65747W        W38172  29.897  37.114  14.673
65748W        W38173  43.041   1.070   3.719
65749W        W38174   9.267   4.304  10.543
65750W        W38175  30.926  25.231  14.533
65751W        W38176   9.668  39.088   3.340
65752W        W38177  40.138  29.829   1.887
65753W        W38178  33.623  16.611   3.103
65754W        W38179  38.049  44.700  11.415
65755W        W38180  36.337  36.284  14.418
65756W        W38181  38.334  44.991   4.102
65757W        W38182  12.339  14.234  10.707
65758W        W38183  33.558   4.822   0.220
65759W        W38184  37.210  24.686  10.109
65760W        W38185  34.980   3.191   3.644
65761W        W38186  36.520  32.437  10.923
65762W        W38187   8.967  18.902   1.297
65763W        W38188  25.459   2.241   3.696
65764W        W38189  34.883  20.808   0.554
65765W        W38190   6.751   4.307   3.101
65766W        W38191  24.718   7.250   4.047
65767W        W38192  37.523  14.159   2.619
65768W        W38193  39.049  29.359  11.623
65769W        W38194  44.286  24.398  10.250
65770W        W38195  35.808   3.014   3.711
65771W        W38196  28.802   0.070   2.873
65772W        W38197  34.981  42.363  12.563
65773W        W38198  14.560  29.170   4.535
65774W        W38199  20.163  42.953  12.382
65775W        W38200  26.294  25.747  12.961
65776W        W38201   4.314  16.520   4.034
65777W        W38202   5.366  30.443  13.397
65778W        W38203  36.514  44.211  13.910
65779W        W38204   8.994   5.304   1.687
65780W        W38205  24.510  44.348  11.385
65781W        W38206  43.822  44.920   0.157
65782W        W38207  42.491  25.608  12.502
65783W        W38208  40.496  28.878  10.795
65784W        W38209  23.360   5.270   2.308
65785W        W38210  25.649  21.290  14.757
65786W        W38211  42.836   2.112   1.911
65787W        W38212  23.709  23.155  10.870
65788W        W38213  12.418  34.376   4.586
65789W        W38214  23.613  43.225   2.784
65790W        W38215  32.068  11.355   4.111
65791W        W38216  29.888  27.529   1.346
65792W        W38217  16.041  35.324  13.404
65793W        W38218  10.674  39.821  13.014
65794W        W38219  27.782  12.026  14.782
65795W        W38220  25.643  14.241   4.508
65796W        W38221  38.270  23.543  12.386
65797W        W38222   2.152  28.144  14.405
65798W        W38223  28.887  28.654   3.267
65799W        W38224  16.699  35.363   1.684
65800W        W38225  32.907  26.845  13.527
65801W        W38226  29.364   6.777   2.936
65802W        W38227   8.924  36.879  13.927
65803W        W38228  12.672  13.297   3.238
65804W        W38229   7.286   4.620  13.558
65805W        W38230   2.287   2.007   0.763
65806W        W38231  32.362  14.932   4.841
65807W        W38232  29.111  39.184  11.517
65808W        W38233  33.455  10.574  12.925
65809W        W38234   3.325  40.772  14.764
65810W        W38235  23.326  10.576  11.011
65811W        W38236  24.252   6.192   3.462
65812W        W38237  15.664  17.850  10.381
65813W        W38238  37.331  22.760  11.012
65814W        W38239  32.754  27.999   2.295
65815W        W38240  17.879  22.536   4.665
65816W        W38241  37.118  26.618   4.289
65817W        W38242  20.137  37.152   2.195
65818W        W38243  34.014  11.730  10.222
65819W        W38244  37.803  12.661   0.756
65820W        W38245  24.231  31.257   4.433
65821W        W38246  26.023  37.349   2.686
65822W        W38247  15.001  35.481  10.700
65823W        W38248   7.305   2.149   0.976
65824W        W38249   0.739   7.766   4.537
65825W        W38250  22.034  27.092  11.532
65826W        W38251  31.925   1.321  14.109
65827W        W38252  28.118   1.870   0.961
65828W        W38253  24.477  24.495   3.284
65829W        W38254  18.590   0.065  12.063
65830W        W38255  21.819  30.151   0.433
65831W        W38256  25.649  33.128   3.609
65832W        W38257  19.049   4.273  13.717
65833W        W38258  29.644  19.160   2.323
65834W        W38259  36.355  35.495  10.635
65835W        W38260  44.150  21.794  11.157
65836W        W38261  38.346  15.128   3.288
65837W        W38262  26.210  20.067  11.609
65838W        W38263  19.156  30.049   0.304
65839W        W38264  28.119  32.066  10.296
65840W        W38265  29.893   0.393   1.343
65841W        W38266  16.733  11.835   2.926
65842W        W38267  25.002  41.550   1.770
65843W        W38268  41.360   0.880   4.715
65844W        W38269  28.521  18.142  14.225
65845W        W38270  11.601   6.803  13.494
65846W        W38271  33.941  29.763   0.500
65847W        W38272  33.977  10.096   4.088
65848W        W38273  31.364  14.689   3.352
65849W        W38274  20.528  19.507  11.853
65850W        W38275  17.593  36.437   2.329
65851W        W38276  21.167  44.565  11.983
65852W        W38277   7.843  36.574  13.345
65853W        W38278  26.634  34.045   0.678
65854W        W38279  18.500  36.992   4.203
65855W        W38280   0.794  18.635  12.615
65856W        W38281  32.388   7.934   0.999
65857W        W38282  41.997  40.848   0.058
65858W        W38283  14.375  21.700   1.395
65859W        W38284  38.530  31.335   3.252
65860W        W38285   6.233  12.207   0.313
65861W        W38286  23.447  42.993  11.144
65862W        W38287  24.742  23.612  10.800
65863W        W38288  23.689   6.687   0.777
65864W        W38289  37.874   9.433  11.061
65865W        W38290  26.976  44.024  12.715
65866W        W38291   6.887  19.221   0.863
65867W        W38292  36.979  17.014  12.598
65868W        W38293  14.149  22.580  10.913
65869W        W38294  22.499  40.240  14.893
65870W        W38295  15.311  36.702  13.568
65871W        W38296  25.011  19.645   2.673
65872W        W38297  10.679  10.497   3.354
65873W        W38298  38.049   3.979  10.620
65874W        W38299  43.399   1.844   2.729
65875W        W38300  20.777  10.433   0.678
65876W        W38301  32.605  16.735   0.722
65877W        W38302  15.349  24.124  14.308
65878W        W38303  30.873  12.137   3.247
65879W        W38304   7.590  22.115  11.439
65880W        W38305  14.751  34.847  12.866
65881W        W38306   8.002  21.019  14.259
65882W        W38307  22.153  15.368  11.931
65883W        W38308  23.583  12.510  12.061
65884W        W38309   2.887  41.201  13.043
65885W        W38310  27.965   0.879   2.480
65886W        W38311  32.546  26.992   2.137
65887W        W38312  13.188  27.458   4.417
65888W        W38313  15.669  32.131  13.607
65889W        W38314   7.832  20.857  10.997
65890W        W38315  13.320  16.539   3.371
65891W        W38316  12.733  27.067   0.896
65892W        W38317  29.770   3.588   5.155
65893W        W38318  44.858  43.246   3.630
65894W        W38319  18.001   7.197  13.997
65895W        W38320  16.356   3.162  12.449
65896W        W38321  11.587  23.546  14.358
65897W        W38322  40.850  15.530   0.563
65898W        W38323   7.364   5.018  14.893
65899W        W38324  23.054  41.843   3.862
65900W        W38325  12.097  14.761  13.990
65901W        W38326  28.857  25.182  13.430
65902W        W38327  38.535  13.692   2.413
65903W        W38328   4.887  37.853  13.413
65904W        W38329  32.368  38.021   3.686
65905W        W38330  27.955  41.893   0.654
65906W        W38331  16.180  22.383  14.018
65907W        W38332  16.498  40.069   3.716
65908W        W38333  40.474  44.557   1.363
65909W        W38334  36.736  39.718   1.492
65910W        W38335  38.906   9.341   4.628
65911W        W38336  32.171  30.590   4.149
65912W        W38337  22.291   1.912  13.995
65913W        W38338  10.624  34.875  10.685
65914W        W38339  34.449  41.920   3.674
65915W        W38340  14.861   1.576   4.869
65916W        W38341  36.095   2.110   3.713
65917W        W38342  30.160   3.358   4.355
65918W        W38343  21.063   4.665   3.363
65919W        W38344  36.838  29.860  13.812
65920W        W38345  11.044  39.611   4.720
65921W        W38346  22.110  33.055   4.709
65922W        W38347  27.664  19.170  11.937
65923W        W38348  36.611  10.692   2.254
65924W        W38349  14.761   7.617   3.262
65925W        W38350  40.590  39.311  12.407
65926W        W38351  13.630  43.476  11.427
65927W        W38352  10.609  39.890  13.536
65928W        W38353   4.902  40.742   4.156
65929W        W38354  21.791   2.785  12.902
65930W        W38355  16.120  29.909   1.272
65931W        W38356  36.948  19.235  12.988
65932W        W38357  13.240   5.666   2.910
65933W        W38358  38.072  29.406  12.412
65934W        W38359   5.046  30.634  13.779
65935W        W38360  36.332  33.000   1.195
65936W        W38361  19.337  36.594  14.444
65937W        W38362   8.936  17.191   0.292
65938W        W38363   5.306  23.950  11.869
65939W        W38364  37.620   6.311   3.272
65940W        W38365  32.534  30.929   1.432
65941W        W38366   8.175  14.799   2.707
65942W        W38367  40.735  26.802  12.358
65943W        W38368  38.595  18.805  13.823
65944W        W38369   8.695  16.569   0.782
65945W        W38370   5.752  44.053  11.535
65946W        W38371  27.506   5.960  14.430
65947W        W38372  15.800   8.808  13.072
65948W        W38373  24.723  33.912  13.478
65949W        W38374   0.450   6.935  14.265
65950W        W38375  28.546  27.527  11.147
65951W        W38376  15.106   8.276  11.408
65952W        W38377  19.127  18.277   4.563
65953W        W38378  36.372  42.416  11.175
65954W        W38379  25.671  26.739  11.905
65955W        W38380  26.191  11.340  10.625
65956W        W38381   5.745  13.587  14.390
65957W        W38382   0.410   2.697   0.407
65958W        W38383  38.356  18.899   2.411
65959W        W38384  43.959  17.117   0.819
65960W        W38385  16.629  32.269   3.641
65961W        W38386  10.899  44.736   3.391
65962W        W38387  33.831  40.873  13.592
65963W        W38388   1.192  29.194  13.509
65964W        W38389  23.161  23.695  13.538
65965W        W38390  10.957  42.437  13.894
65966W        W38391  15.765  40.206  13.421
65967W        W38392  38.005  26.585   3.139
65968W        W38393   0.843  17.314  11.084
65969W        W38394  12.342   1.227  14.989
65970W        W38395   1.476   5.650  11.470
65971W        W38396  43.337  36.227  11.209
65972W        W38397  37.815   8.706   4.058
65973W        W38398   7.606  27.474  12.407
65974W        W38399  27.513  35.348   0.463
65975W        W38400  13.616  28.451   2.327
65976W        W38401  28.943  24.928   2.805
65977W        W38402  36.440   9.841   1.389
65978W        W38403  18.592  31.870  13.840
65979W        W38404  18.308  16.872   3.332
65980W        W38405  15.141  19.381   3.431
65981W        W38406   3.855  40.533   3.210
65982W        W38407  40.917  31.491   1.410
65983W        W38408   6.868   5.988  14.794
65984W        W38409  24.480  40.309  11.205
65985W        W38410   6.325  37.063   3.994
65986W        W38411  30.380  28.969   2.763
65987W        W38412   8.217   0.425  10.707
65988W        W38413  26.033   1.457  10.608
65989W        W38414  37.093  18.576   4.546
65990W        W38415  30.127  13.712   0.220
65991W        W38416  30.568  36.576   2.836
65992W        W38417   5.056  10.148  13.558
65993W        W38418  28.509  34.415   0.547
65994W        W38419  44.033  20.682  14.951
65995W        W38420  41.347  31.014   0.781
65996W        W38421  20.009  31.538   0.510
65997W        W38422  33.309  15.964  10.805
65998W        W38423   2.837  40.302  10.496
65999W        W38424   5.840  21.712  14.259
66000W        W38425   1.502  37.434   0.309
66001W        W38426  25.478  35.851   4.976
66002W        W38427  35.344  36.820  12.516
66003W        W38428   0.195   4.729   3.751
66004W        W38429  42.897  35.835   0.080
66005W        W38430  29.879  41.606  12.547
66006W        W38431  40.484  15.861  12.024
66007W        W38432  23.205  42.270   2.386
66008W        W38433  35.497   3.000   0.658
66009W        W38434  10.733  44.996   0.504
66010W        W38435   1.324   3.209  13.837
66011W        W38436  40.812  34.542   4.659
66012W        W38437   7.321  14.818  12.053
66013W        W38438  17.170  42.568   1.659
66014W        W38439  20.603   4.631  10.649
66015W        W38440   8.879  43.193   3.652
66016W        W38441   9.773  26.218  14.078
66017W        W38442  33.491  35.677  12.140
66018W        W38443  27.415  19.678  10.567
66019W        W38444  36.165  41.528   4.736
66020W        W38445  29.643  17.508  12.948
66021W        W38446   1.727  20.721   3.721
66022W        W38447  14.065  28.232   3.335
66023W        W38448  36.131  28.625  12.876
66024W        W38449  35.700   2.306  12.176
66025W        W38450  34.077  13.135  14.326
66026W        W38451  10.837  44.723  10.991
66027W        W38452   9.776   1.713   2.693
66028W        W38453  44.968   6.465  13.640
66029W        W38454   1.334  39.735  12.548
66030W        W38455  42.435  44.821  11.147
66031W        W38456  29.207  35.820  11.320
66032W        W38457   6.134  42.913   4.220
66033W        W38458   3.657  24.935  10.980
66034W        W38459  32.255  38.529   2.641
66035W        W38460  41.422   8.648   3.125
66036W        W38461   4.119   2.921  14.823
66037W        W38462  39.591  38.032  14.486
66038W        W38463  44.336  42.032   3.703
66039W        W38464  31.021  43.313   0.927
66040W        W38465  38.132   9.685   0.955
66041W        W38466  44.927  14.090   2.728
66042W        W38467   1.622  17.344  11.761
66043W        W38468  30.974  15.316  13.549
66044W        W38469  13.854  10.820   1.941
66045W        W38470  26.154  16.117   3.665
66046W        W38471  11.183   7.111  11.865
66047W        W38472  39.835   6.219   2.408
66048W        W38473  15.049  27.877  11.056
66049W        W38474  27.945  19.554  13.458
66050W        W38475  24.682  10.451  12.901
66051W        W38476  24.975  18.819  13.276
66052W        W38477  10.751  20.500   0.470
66053W        W38478   9.454  28.964   4.958
66054W        W38479   0.390   8.390  14.313
66055W        W38480  32.933  30.543  12.323
66056W        W38481  11.557  10.984   4.561
66057W        W38482  41.919  21.446  12.119
66058W        W38483  35.281   5.943   3.295
66059W        W38484   4.440  24.200  14.148
66060W        W38485   1.676  35.403  12.864
66061W        W38486   4.089  12.952   1.127
66062W        W38487   0.821  25.964   4.261
66063W        W38488  44.333  29.334   4.688
66064W        W38489  10.561  13.366   1.788
66065W        W38490  28.832  10.750   3.508
66066W        W38491  41.377  14.095   2.302
66067W        W38492  21.210  10.181  13.403
66068W        W38493   4.314   1.381  12.959
66069W        W38494  20.539  34.122   0.746
66070W        W38495  25.775  30.695  14.361
66071W        W38496  31.646  36.497   1.357
66072W        W38497  43.972  29.642   3.930
66073W        W38498  31.510  20.240  13.087
66074W        W38499  10.138  42.473  11.451
66075W        W38500   9.853  14.960  13.432
66076W        W38501  32.228   6.694   2.781
66077W        W38502  13.630  40.411  11.392
66078W        W38503  37.919  33.374  12.888
66079W        W38504  18.081  11.705  13.397
66080W        W38505   2.241  12.871   0.020
66081W        W38506  30.111  31.905   3.276
66082W        W38507  31.562  10.558  14.801
66083W        W38508  24.649  23.284   0.283
66084W        W38509  34.096  41.434   4.730
66085W        W38510  14.665  12.413  10.523
66086W        W38511  32.512  30.418   1.188
66087W        W38512  11.342   9.761  13.379
66088W        W38513  11.796  19.682  12.589
66089W        W38514  17.505  10.366   3.668
66090W        W38515  31.402  11.602   4.083
66091W        W38516   1.468   2.778   2.299
66092W        W38517  10.726  42.439   1.761
66093W        W38518  43.071   9.388  10.655
66094W        W38519  35.154   5.423  13.836
66095W        W38520  37.813  40.712   4.013
66096W        W38521  33.423  14.724   4.094
66097W        W38522   5.469  30.556  14.061
66098W        W38523  18.363   1.580  14.466
66099W        W38524  35.443  27.182   1.755
66100W        W38525   4.205  10.575  14.565
66101W        W38526  35.923  19.857   3.588
66102W        W38527  21.586   9.781  13.008
66103W        W38528  30.868  26.646   0.260
66104W        W38529  13.096  36.801  13.432
66105W        W38530  29.690  34.541  13.930
66106W        W38531  11.674  34.385  13.559
66107W        W38532   5.465  40.483  10.668
66108W        W38533  12.283   0.237   3.720
66109W        W38534  18.993   4.799  14.434
66110W        W38535  10.587  20.603  13.086
66111W        W38536  44.205  37.141   3.374
66112W        W38537  27.261  27.126   0.298
66113W        W38538  44.645  37.868  12.932
66114W        W38539  14.388  25.207  13.496
66115W        W38540  31.665  37.236   0.154
66116W        W38541  13.742  33.906   0.728
66117W        W38542  14.671  18.004   0.422
66118W        W38543  44.324  17.625   4.737
66119W        W38544  22.429  42.798  11.534
66120W        W38545  38.084  10.569   3.271
66121W        W38546  12.589  21.799  11.537
66122W        W38547  31.744  12.652   0.962
66123W        W38548  26.594  40.206   3.288
66124W        W38549  10.718   6.294  12.354
66125W        W38550  43.291  26.795  11.097
66126W        W38551  19.830  37.349  10.657
66127W        W38552  30.432  17.084  13.556
66128W        W38553  14.195  15.873  11.192
66129W        W38554  42.728  41.997  14.701
66130W        W38555  22.541  38.625  12.599
66131W        W38556  41.987   9.301  13.873
66132W        W38557  35.178  33.604  13.526
66133W        W38558  25.572  18.840   2.954
66134W        W38559  11.632  38.962  13.366
66135W        W38560   1.331  26.966   4.623
66136W        W38561  19.716   1.812   4.567
66137W        W38562  12.343   4.735   3.401
66138W        W38563  24.215  34.939   2.208
66139W        W38564  15.099  13.527   4.819
66140W        W38565  25.564  26.032   1.390
66141W        W38566  44.798  16.436   4.207
66142W        W38567  29.371  33.025   3.278
66143W        W38568  41.451  29.611   3.520
66144W        W38569  34.811   4.443   1.087
66145W        W38570  22.396  21.238   9.897
66146W        W38571   8.942  12.038   1.754
66147W        W38572  20.808  10.386   2.825
66148W        W38573  37.900  44.075  10.212
66149W        W38574   9.409  37.949   0.359
66150W        W38575  29.558   2.294  12.119
66151W        W38576  14.080  43.346  11.712
66152W        W38577  14.298  34.537  11.674
66153W        W38578  12.637  18.541   2.760
66154W        W38579  38.488  37.493   4.106
66155W        W38580  35.071   7.941   4.076
66156W        W38581  16.704  44.304  13.076
66157W        W38582   8.324  42.115   1.753
66158W        W38583  39.575  43.311   0.397
66159W        W38584  42.330  42.578  13.109
66160W        W38585  43.437  19.894   1.342
66161W        W38586  29.647  10.290   0.243
66162W        W38587  41.552  11.587   4.205
66163W        W38588   8.405  32.042  12.558
66164W        W38589  43.216  24.548  11.595
66165W        W38590  34.032  13.191  13.067
66166W        W38591  11.181   2.463   1.816
66167W        W38592  31.110  28.893   4.614
66168W        W38593  37.079  20.936   3.745
66169W        W38594  32.941  17.253  12.963
66170W        W38595  32.412   7.891  12.949
66171W        W38596  31.930  41.278  11.900
66172W        W38597  16.389  21.173   1.282
66173W        W38598  22.618  30.911  10.631
66174W        W38599  13.190  35.035  10.643
66175W        W38600  20.155   3.746   1.203
66176W        W38601  39.967  39.919   0.058
66177W        W38602  26.648  14.203   3.706
66178W        W38603  19.188  42.520  14.760
66179W        W38604  41.517  29.544  10.777
66180W        W38605  38.064  38.843   2.187
66181W        W38606  29.480   3.432  13.537
66182W        W38607  15.674   3.867  14.905
66183W        W38608  35.463  18.614   3.933
66184W        W38609  16.845   4.771  11.526
66185W        W38610  22.614   7.849   0.335
66186W        W38611  37.176  40.843   2.640
66187W        W38612  21.793  31.968  13.977
66188W        W38613  38.906  20.341  12.048
66189W        W38614  32.666  30.469   1.689
66190W        W38615  27.160  19.492  10.976
66191W        W38616  27.520  41.258   2.451
66192W        W38617  14.432  17.684   0.071
66193W        W38618  39.158   4.445   1.170
66194W        W38619  22.058  37.295   3.652
66195W        W38620  29.702  38.127  12.456
66196W        W38621   3.377   0.842   5.163
66197W        W38622  43.586   3.678  11.809
66198W        W38623   8.244  39.478   3.637
66199W        W38624  21.102  12.609  12.893
66200W        W38625  37.409  31.633   0.714
66201W        W38626  30.635  43.547   2.664
66202W        W38627  43.928  16.771  10.928
66203W        W38628  34.090   9.771   1.197
66204W        W38629  14.453  33.868  12.918
66205W        W38630   4.331   1.698   1.825
66206W        W38631  41.027  34.673  12.826
66207W        W38632  29.656  23.104   1.325
66208W        W38633  23.631  26.025   0.373
66209W        W38634   1.010  37.328  14.058
66210W        W38635  22.030  37.905  11.801
66211W        W38636   2.996   4.941  11.999
66212W        W38637  24.821  18.077  11.683
66213W        W38638  43.270  38.661  11.509
66214W        W38639  17.560   7.734  11.559
66215W        W38640  10.265  22.741   5.374
66216W        W38641  26.571  28.443   4.928
66217W        W38642  27.720  19.657  14.790
66218W        W38643  19.069  16.868   4.621
66219W        W38644  14.239   4.939  14.710
66220W        W38645  41.532  42.118   2.721
66221W        W38646  22.055  42.011   1.733
66222W        W38647  26.734  25.265  12.933
66223W        W38648  13.311  32.097  13.947
66224W        W38649  18.090  13.694  11.512
66225W        W38650  12.288  42.478   4.599
66226W        W38651  10.311  24.637   0.047
66227W        W38652  26.815   3.728  11.183
66228W        W38653  26.618  36.874   5.237
66229W        W38654  22.667  20.026   4.153
66230W        W38655   6.347   5.613  10.668
66231W        W38656  36.441  41.036   4.695
66232W        W38657  29.597   6.461   2.585
66233W        W38658  23.219  40.056   3.323
66234W        W38659  21.231  43.511  13.709
66235W        W38660  21.990  23.034   3.210
66236W        W38661   6.998  38.035  11.916
66237W        W38662  17.682  11.890   0.737
66238W        W38663  17.289  25.533  12.307
66239W        W38664  24.733  25.747   4.271
66240W        W38665  20.462  32.652  14.077
66241W        W38666   3.280  34.141   1.733
66242W        W38667  40.143  26.453   3.708
66243W        W38668  30.556  18.692  13.913
66244W        W38669   7.935   1.043   4.615
66245W        W38670   2.123  24.860   2.619
66246W        W38671   4.310   6.459  13.084
66247W        W38672   5.888  28.156   1.921
66248W        W38673  37.967   2.728   4.787
66249W        W38674  25.046  32.385  13.885
66250W        W38675  42.221  40.236   2.775
66251W        W38676  37.476  36.819   2.741
66252W        W38677  41.815  37.991  13.322
66253W        W38678  33.262  30.906  11.039
66254W        W38679  23.241  22.842  13.168
66255W        W38680   5.129  26.535   1.957
66256W        W38681  33.799  28.055  14.775
66257W        W38682  28.923  43.815   3.764
66258W        W38683  32.823   8.922   2.598
66259W        W38684  23.267  16.657  14.468
66260W        W38685   2.844  35.116  13.914
66261W        W38686   3.627  20.489   2.360
66262W        W38687  32.776  41.788  13.985
66263W        W38688  28.605  17.192  14.795
66264W        W38689  26.441  31.273  12.512
66265W        W38690  19.512  14.707  14.400
66266W        W38691  31.654  36.018   4.081
66267W        W38692  13.440  11.352  14.427
66268W        W38693  16.606  35.987   4.600
66269W        W38694  14.696  29.693   1.437
66270W        W38695  15.117  18.854   2.681
66271W        W38696  13.918   3.244  14.955
66272W        W38697  29.176  12.602   2.211
66273W        W38698  21.264   3.846   4.149
66274W        W38699   7.776  37.983  14.708
66275W        W38700  43.942  25.109   1.186
66276W        W38701  26.967   6.359   4.452
66277W        W38702   2.813  18.390  13.419
66278W        W38703  29.050  25.464   1.754
66279W        W38704  20.733  34.134   3.112
66280W        W38705  23.481  19.696   0.411
66281W        W38706  34.619   3.291   0.950
66282W        W38707  17.610   9.610  12.097
66283W        W38708  41.981   9.575  12.044
66284W        W38709  38.099  34.924  11.536
66285W        W38710  31.514  38.062   0.532
66286W        W38711  26.556  44.647  10.723
66287W        W38712  11.286  21.827  11.977
66288W        W38713   5.013   1.768   0.219
66289W        W38714  44.449  43.913  13.337
66290W        W38715   9.202   9.401  13.976
66291W        W38716  42.499   7.836  12.879
66292W        W38717  25.708   9.426   4.739
66293W        W38718   8.879   0.843   5.162
66294W        W38719  17.230   3.155  12.536
66295W        W38720  18.317  28.350  13.877
66296W        W38721  13.123   7.788  13.321
66297W        W38722  23.135  38.700   3.637
66298W        W38723   2.299  19.470  14.520
66299W        W38724  19.116  19.536   4.111
66300W        W38725  34.392   5.660  13.545
66301W        W38726  29.650  43.054  13.807
66302W        W38727  26.529  37.230  14.410
66303W        W38728  12.619  11.740   1.380
66304W        W38729  10.131  33.339  12.196
66305W        W38730  24.544  44.741   2.294
66306W        W38731  28.602  38.777   2.742
66307W        W38732  26.879  41.215   4.619
66308W        W38733   6.889  14.838  14.887
66309W        W38734   9.459  29.049   1.450
66310W        W38735  31.045  19.995   2.387
66311W        W38736  17.595  33.319  10.903
66312W        W38737  10.245  18.789  13.057
66313W        W38738   0.456   5.932  12.959
66314W        W38739  27.069  15.307  10.999
66315W        W38740  38.305  11.304   2.757
66316W        W38741  21.234  24.422  11.041
66317W        W38742   9.167   1.743  13.843
66318W        W38743  24.207  16.961  12.119
66319W        W38744  21.237  11.728   0.884
66320W        W38745  14.802   2.363   0.568
66321W        W38746  28.207  39.516   3.713
66322W        W38747  33.608   8.229   4.422
66323W        W38748  14.705  28.600   0.243
66324W        W38749  39.162  35.188   0.447
66325W        W38750  22.508  10.475   2.361
66326W        W38751  42.564   8.751  12.788
66327W        W38752  43.933  27.340  14.480
66328W        W38753  33.057  19.135   2.912
66329W        W38754  44.879  36.648   3.906
66330W        W38755  16.152   6.606  13.490
66331W        W38756  44.393  39.645   0.733
66332W        W38757   5.853   7.315  10.670
66333W        W38758  35.098  23.728   2.757
66334W        W38759  42.511  26.468   3.514
66335W        W38760  34.575  40.552  13.815
66336W        W38761  35.696  43.303  12.885
66337W        W38762   3.258  34.387   3.181
66338W        W38763  26.695  34.638  10.105
66339W        W38764  19.968  12.684   0.538
66340W        W38765  38.770   4.846  11.039
66341W        W38766  40.753   7.819   3.216
66342W        W38767  24.434  10.890  14.528
66343W        W38768  34.838  41.917  14.701
66344W        W38769   5.167  23.680   2.194
66345W        W38770   8.623  24.584   4.325
66346W        W38771  34.357  36.900   4.025
66347W        W38772  32.816   2.811  12.714
66348W        W38773  36.041  41.504  11.034
66349W        W38774  15.524   2.931   4.280
66350W        W38775  41.619  29.910  11.134
66351W        W38776  28.104  39.589   1.795
66352W        W38777  21.682  29.951   4.638
66353W        W38778   0.397  14.830  13.115
66354W        W38779   2.293  15.324   1.447
66355W        W38780  17.143   0.013  11.508
66356W        W38781   8.599  12.275  11.489
66357W        W38782  40.467  28.693   0.687
66358W        W38783  21.525  25.680  14.527
66359W        W38784  23.140  14.573   4.153
66360W        W38785  26.759  43.910   4.025
66361W        W38786  25.869  34.174  14.305
66362W        W38787  25.538  22.543   0.827
66363W        W38788  12.604  43.671   5.063
66364W        W38789  37.071  41.001  14.977
66365W        W38790  14.710  26.945  11.902
66366W        W38791   2.942  26.596   3.650
66367W        W38792   9.543  24.593   0.649
66368W        W38793  18.948  25.510   3.260
66369W        W38794  11.614  10.319  11.830
66370W        W38795   9.336   6.183  13.465
66371W        W38796  16.059  15.036  12.842
66372W        W38797  13.678  17.120  13.131
66373W        W38798  21.941   2.522  14.846
66374W        W38799  16.247  26.885   0.255
66375W        W38800  32.124  11.813   3.191
66376W        W38801   7.642  22.194   3.292
66377W        W38802  26.429  31.190   0.865
66378W        W38803   3.817  10.603  11.945
66379W        W38804  19.991   5.820  11.944
66380W        W38805  17.273  40.740   1.216
66381W        W38806   6.748   8.847   2.192
66382W        W38807   5.459  14.366  13.881
66383W        W38808  34.435  26.300  12.304
66384W        W38809  20.686  27.223  10.973
66385W        W38810  34.512  24.149  11.150
66386W        W38811  22.029  23.708   1.142
66387W        W38812  30.082   6.134  13.449
66388W        W38813  10.927  43.837   3.352
66389W        W38814  30.345   1.529   1.556
66390W        W38815  24.559  40.442   2.691
66391W        W38816   1.488   7.793   1.313
66392W        W38817  27.939   9.672  12.032
66393W        W38818   5.363   3.004  11.373
66394W        W38819  30.316  17.163   4.133
66395W        W38820  32.089  34.718   1.339
66396W        W38821  35.558  18.617  13.903
66397W        W38822  20.800  43.806   4.535
66398W        W38823  26.039   9.510  11.543
66399W        W38824  25.614  28.927   3.367
66400W        W38825   8.307  18.298  14.333
66401W        W38826   8.643  30.404   4.234
66402W        W38827  13.772  17.024  14.611
66403W        W38828  26.284  30.805   1.316
66404W        W38829   8.923   6.898  12.528
66405W        W38830  31.440  14.636  10.582
66406W        W38831   8.958   5.886  14.973
66407W        W38832  22.165  42.311   3.096
66408W        W38833   4.985  37.969  11.201
66409W        W38834   7.832  36.967   1.444
66410W        W38835  27.635  35.095  10.062
66411W        W38836  35.141  31.110  11.454
66412W        W38837  15.473  42.977  11.553
66413W        W38838  39.130  16.567  13.930
66414W        W38839  31.836   6.791   1.132
66415W        W38840   6.199  25.472  14.966
66416W        W38841  21.313  17.955  10.207
66417W        W38842  33.656  27.676   3.901
66418W        W38843   2.749  31.547   2.640
66419W        W38844   4.587  36.636   2.523
66420W        W38845  25.250  35.511  13.509
66421W        W38846  13.571  29.663   0.773
66422W        W38847   4.351  19.349  14.327
66423W        W38848  22.716  19.247  10.257
66424W        W38849   4.973  27.323   1.347
66425W        W38850  34.853   8.339   3.303
66426W        W38851  22.779  13.309  10.687
66427W        W38852  23.471   0.890  12.539
66428W        W38853   9.088  32.473   0.925
66429W        W38854  33.993  10.018   0.741
66430W        W38855  35.690   2.514  14.429
66431W        W38856   0.737  12.833   4.590
66432W        W38857  11.591  26.479  14.007
66433W        W38858  36.647  14.089   0.851
66434W        W38859  11.878  40.938   2.337
66435W        W38860   7.821  38.094  14.196
66436W        W38861  35.835  44.295  13.531
66437W        W38862  29.639  37.432   3.615
66438W        W38863   3.040  42.776   0.221
66439W        W38864  37.976  31.673   1.347
66440W        W38865  15.591  37.940  14.923
66441W        W38866  25.438   6.437  12.526
66442W        W38867  40.372  25.570   0.297
66443W        W38868  36.987  16.588   0.017
66444W        W38869  17.853   7.966  14.874
66445W        W38870   4.058  29.980  13.263
66446W        W38871  12.573  26.084  11.577
66447W        W38872  42.851  27.720   1.609
66448W        W38873  44.643  39.778   4.847
66449W        W38874  12.652  12.813   0.288
66450W        W38875  19.598  42.370   0.065
66451W        W38876  34.385  40.359  11.964
66452W        W38877  27.007  32.177  11.506
66453W        W38878  21.197  18.078  13.884
66454W        W38879  25.461  38.637  12.864
66455W        W38880   6.195  26.799  11.099
66456W        W38881  23.156  14.791   3.627
66457W        W38882  31.211  26.958  12.475
66458W        W38883  34.912   8.936  13.383
66459W        W38884   7.764  28.404   0.749
66460W        W38885  12.241  13.472   1.115
66461W        W38886  10.723  12.722   3.550
66462W        W38887  25.729  38.335   1.706
66463W        W38888   3.342  16.277   4.582
66464W        W38889  42.942  24.984  12.533
66465W        W38890  44.008  28.983  12.117
66466W        W38891  22.279   5.731   0.650
66467W        W38892  33.404  31.356  12.540
66468W        W38893   3.882  25.714  10.209
66469W        W38894  36.079  27.900  14.852
66470W        W38895  34.988  24.143   4.248
66471W        W38896  27.224   6.057   1.959
66472W        W38897  21.048  12.118  12.741
66473W        W38898  39.304  17.015   4.022
66474W        W38899  25.728  25.743   4.651
66475W        W38900  36.580  42.314  10.708
66476W        W38901   6.309  31.127  14.600
66477W        W38902  34.029   7.808   1.362
66478W        W38903  33.246  21.333   5.105
66479W        W38904  19.162   5.975  12.513
66480W        W38905  16.024  19.654  12.672
66481W        W38906  25.466   2.990  12.602
66482W        W38907  25.246  23.681  10.798
66483W        W38908  42.429  12.710  14.041
66484W        W38909   8.122  19.105   3.360
66485W        W38910   8.111  19.736   3.729
66486W        W38911  23.592  44.544   4.013
66487W        W38912  18.726   7.019  14.446
66488W        W38913  22.710  25.446   2.208
66489W        W38914  35.853  24.798  10.565
66490W        W38915   3.228  13.762  12.053
66491W        W38916  19.114  31.635   0.370
66492W        W38917  14.157  34.985   3.251
66493W        W38918   8.912  34.976   5.242
66494W        W38919  20.686  25.647  11.125
66495W        W38920  23.175  26.260  12.410
66496W        W38921   2.664   5.933   2.773
66497W        W38922  12.194  11.860  11.069
66498W        W38923  19.518   0.076  12.866
66499W        W38924  41.231  21.907   4.131
66500W        W38925   8.540   3.167  11.725
66501W        W38926  35.334  28.271  12.990
66502W        W38927  11.320  10.613  14.463
66503W        W38928  16.248  40.103   0.918
66504W        W38929  13.143  16.886  14.423
66505W        W38930  18.281  41.562   3.774
66506W        W38931  42.842  19.723   2.625
66507W        W38932  42.170  15.032  13.799
66508W        W38933  25.269  10.776   3.623
66509W        W38934  30.151  34.042   4.367
66510W        W38935  15.423  10.333  11.824
66511W        W38936  11.811   4.489   3.214
66512W        W38937  43.837   8.208  14.025
66513W        W38938   3.047  18.018   1.647
66514W        W38939  18.078  42.512   4.959
66515W        W38940  24.526  21.138   3.195
66516W        W38941  38.279  16.383   2.800
66517W        W38942  22.576  23.087  10.589
66518W        W38943  38.590  33.570  14.571
66519W        W38944  17.661  33.332  11.444
66520W        W38945   8.226   5.459  13.943
66521W        W38946  33.526   4.634   4.346
66522W        W38947  40.565  42.893   2.754
66523W        W38948   1.035  13.264   4.541
66524W        W38949  23.192  12.353  10.227
66525W        W38950  16.559  16.027  11.986
66526W        W38951  13.277  35.451   3.878
66527W        W38952  15.850  35.538   2.382
66528W        W38953  22.150  40.294  10.640
66529W        W38954  15.848  11.816   0.805
66530W        W38955  16.754  14.811   3.958
66531W        W38956   5.613  38.882  14.272
66532W        W38957   3.595  20.316   1.411
66533W        W38958  17.478  30.503   0.960
66534W        W38959  16.220  35.602  13.007
66535W        W38960  21.625  38.093   2.367
66536W        W38961  19.800   2.319  10.764
66537W        W38962  17.041  38.771  10.241
66538W        W38963  26.707   7.269  13.095
66539W        W38964  17.022  37.365  14.220
66540W        W38965  41.995  30.460   0.286
66541W        W38966  40.395  19.672  10.702
66542W        W38967  44.369   1.071   3.672
66543W        W38968   9.062  20.656  10.288
66544W        W38969  37.406  29.005   1.377
66545W        W38970  16.158  21.596  13.061
66546W        W38971  25.182  24.951   0.036
66547W        W38972  22.476  36.439  14.589
66548W        W38973  19.324  26.355   0.064
66549W        W38974  20.015  39.972   2.743
66550W        W38975   1.321  19.595   3.780
66551W        W38976  26.679  41.761   1.040
66552W        W38977  38.433  36.623   4.633
66553W        W38978  20.604  39.536  13.339
66554W        W38979  43.403  17.287   2.079
66555W        W38980   6.653  16.038   0.514
66556W        W38981   8.523   7.382   4.134
66557W        W38982  32.124  41.396  13.546
66558W        W38983  10.759  15.840  12.933
66559W        W38984  27.935  16.781  11.980
66560W        W38985   8.483  19.728   1.204
66561W        W38986  42.505  42.895   2.156
66562W        W38987   4.874  28.441   3.726
66563W        W38988  17.586  13.300   0.168
66564W        W38989   2.129   6.016   2.756
66565W        W38990  44.924  40.283  13.849
66566W        W38991  14.711   7.042  10.616
66567W        W38992  32.565  36.617  11.067
66568W        W38993  39.941  22.062  14.821
66569W        W38994  10.868  13.171  13.069
66570W        W38995  39.544  14.167  13.070
66571W        W38996  27.132  44.823   1.800
66572W        W38997  22.503  25.822   3.313
66573W        W38998  14.688  35.947   0.730
66574W        W38999   6.908  29.748   3.657
66575W        W39000  10.390  33.622   0.414
66576W        W39001  25.164   7.833   4.696
66577W        W39002  23.712  20.012   2.787
66578W        W39003  26.566  22.183   4.369
66579W        W39004  39.884  19.167  11.220
66580W        W39005  42.380  13.688  10.503
66581W        W39006   0.259  25.476   1.223
66582W        W39007   4.144  34.977   3.307
66583W        W39008  29.577  35.344   3.724
66584W        W39009  10.632  23.308  14.290
66585W        W39010  18.846  13.321   4.434
66586W        W39011  41.543  20.647  12.528
66587W        W39012  15.193  19.278  11.548
66588W        W39013  31.629  21.126  12.474
66589W        W39014  44.494  10.806  11.026
66590W        W39015  38.521   0.220   1.825
66591W        W39016  16.660  12.076   2.118
66592W        W39017   4.501  19.530   4.188
66593W        W39018  31.013  36.784   0.675
66594W        W39019  20.644  44.895  10.970
66595W        W39020   7.826   7.338   9.794
66596W        W39021  35.867  28.527  13.621
66597W        W39022   8.705   6.611   2.668
66598W        W39023   4.919  27.491   4.104
66599W        W39024  40.301  38.592  14.881
66600W        W39025   9.499   7.989  12.592
66601W        W39026  14.082   0.917   2.856
66602W        W39027  36.372  20.952  13.892
66603W        W39028  29.495   3.300  14.076
66604W        W39029   9.707  44.861  11.937
66605W        W39030  27.185  22.765   1.414
66606W        W39031  27.930  28.664   4.244
66607W        W39032  13.168  31.633  12.454
66608W        W39033  20.844  11.903   4.993
66609W        W39034   0.294  10.150   0.027
66610W        W39035  41.538   6.190   2.795
66611W        W39036  18.925  21.601   0.892
66612W        W39037  26.191  34.700  10.540
66613W        W39038  27.247  36.024  12.873
66614W        W39039  17.229  18.640   4.159
66615W        W39040  12.751  18.789  11.215
66616W        W39041  14.661  32.400  11.796
66617W        W39042  25.200  20.614   1.922
66618W        W39043  28.971  31.544   0.742
66619W        W39044  40.705  38.125  13.104
66620W        W39045   0.851  38.666  13.078
66621W        W39046   7.952  33.493  12.673
66622W        W39047  38.072  43.279   1.670
66623W        W39048  19.997  29.592   4.944
66624W        W39049   9.287  38.108   3.996
66625W        W39050   4.225  21.272   4.336
66626W        W39051  30.020  24.977  11.501
66627W        W39052   8.215   9.917  11.493
66628W        W39053  34.280  16.299  13.448
66629W        W39054   6.391  36.847  14.190
66630W        W39055  35.146  24.529  11.354
66631W        W39056  15.559   1.246   4.176
66632W        W39057  12.643  38.988   4.919
66633W        W39058  35.442  32.767  12.547
66634W        W39059   1.328  37.509   2.286
66635W        W39060   6.790  13.660   2.192
66636W        W39061  33.597  33.861   3.163
66637W        W39062  37.506   8.113   0.377
66638W        W39063  30.031  44.959   4.333
66639W        W39064  17.201  23.166   0.557
66640W        W39065   0.262  23.137  11.140
66641W        W39066  42.264  31.316   2.656
66642W        W39067  22.828  17.674   2.833
66643W        W39068  28.632   7.455  12.512
66644W        W39069  17.215   3.522   1.925
66645W        W39070  36.936  11.428   4.762
66646W        W39071  30.728  18.610   5.457
66647W        W39072  21.056  39.367  14.229
66648W        W39073  26.247  36.440   3.103
66649W        W39074  27.607  41.986  11.987
66650W        W39075  24.468  28.053  14.366
66651W        W39076  35.379  11.207  14.354
66652W        W39077   0.203  16.077  12.063
66653W        W39078   1.802  18.795   3.709
66654W        W39079  27.463  28.590   0.488
66655W        W39080  29.862  38.540   3.241
66656W        W39081   4.332  11.059  14.390
66657W        W39082   2.755  33.980  14.594
66658W        W39083   3.447  39.997   3.749
66659W        W39084   7.361  39.916  11.464
66660W        W39085  17.035  15.835   3.177
66661W        W39086  23.745   1.902   4.524
66662W        W39087  30.675   3.228   3.677
66663W        W39088  28.619  12.407  14.535
66664W        W39089  44.594  10.339  10.788
66665W        W39090  44.365  32.445   1.875
66666W        W39091  10.152  18.198   1.204
66667W        W39092  13.936  18.059  13.912
66668W        W39093  39.421  22.178  13.923
66669W        W39094  11.493  30.015   2.636
66670W        W39095  21.635  37.682  12.083
66671W        W39096  27.067  28.548  12.994
66672W        W39097   8.895  35.186  12.491
66673W        W39098  24.900  34.481   3.496
66674W        W39099  19.257  41.876  12.926
66675W        W39100  21.106  42.372   1.802
66676W        W39101  30.990  13.830   2.722
66677W        W39102  30.508  27.078   0.706
66678W        W39103  40.609  20.631  13.456
66679W        W39104  39.330  25.689   4.661
66680W        W39105  14.193  17.535   2.695
66681W        W39106  28.693  12.552   3.856
66682W        W39107  25.783  24.923   3.058
66683W        W39108   8.928  13.064   3.606
66684W        W39109  43.765  40.422   1.827
66685W        W39110  35.975  41.134   4.391
66686W        W39111   0.318  42.998   3.216
66687W        W39112  15.297   6.768  12.327
66688W        W39113  32.441  35.813  11.852
66689W        W39114  25.607  41.263  11.430
66690W        W39115  18.216   4.864  13.823
66691W        W39116  15.101  39.007  13.228
66692W        W39117  14.650   8.574   4.283
66693W        W39118  34.112  37.066  10.631
66694W        W39119   8.964   9.190  10.349
66695W        W39120   6.258   4.999  14.407
66696W        W39121  41.870  43.632   5.499
66697W        W39122   1.335  14.103   0.011
66698W        W39123  14.695  22.233   4.313
66699W        W39124   4.299  12.295   2.507
66700W        W39125   2.611  35.857   5.064
66701W        W39126   3.287   2.488   4.022
66702W        W39127   4.368  33.975  11.114
66703W        W39128   3.812   4.474   0.923
66704W        W39129  12.682   5.147   0.486
66705W        W39130  28.871  42.677   3.660
66706W        W39131  22.519  20.303  12.452
66707W        W39132   9.602  37.563   2.675
66708W        W39133   8.994  16.718  13.861
66709W        W39134  14.557   1.574   0.556
66710W        W39135   5.803  38.369   1.785
66711W        W39136  19.167   0.896   0.821
66712W        W39137  18.213   4.431   3.202
66713W        W39138  32.514   3.344  11.553
66714W        W39139  33.985  37.278   3.337
66715W        W39140   2.972   3.945  13.098
66716W        W39141  12.219   5.790  14.277
66717W        W39142  38.969  38.130   3.593
66718W        W39143  19.722   1.605  14.265
66719W        W39144  28.542  38.742   0.399
66720W        W39145  42.810  42.488  12.971
66721W        W39146  38.836  22.026  10.325
66722W        W39147  23.186  17.959   4.073
66723W        W39148  26.554  31.892  11.646
66724W        W39149  12.813   7.477   2.291
66725W        W39150   9.104  26.090  12.096
66726W        W39151  18.789  20.761  14.916
66727W        W39152  40.744  27.750   4.067
66728W        W39153   2.659  20.818  14.549
66729W        W39154  42.727  40.462   5.132
66730W        W39155  12.380  36.544   1.328
66731W        W39156  39.835  41.108   0.316
66732W        W39157  35.578  15.315   3.069
66733W        W39158  25.938  41.631   4.399
66734W        W39159  22.708  44.430   1.877
66735W        W39160  17.756  10.947   4.510
66736W        W39161   6.720  30.988  14.861
66737W        W39162  25.917  22.130   2.264
66738W        W39163  25.713   0.390   4.806
66739W        W39164  28.150   0.398   0.467
66740W        W39165  26.560  44.319   0.803
66741W        W39166  21.751  43.718   0.069
66742W        W39167  25.544  26.217  11.526
66743W        W39168   7.253   2.718   1.609
66744W        W39169   9.952  14.656   1.253
66745W        W39170  24.174  18.879  14.255
66746W        W39171  14.865  29.974  10.723
66747W        W39172   5.741  32.930  14.930
66748W        W39173  14.905  32.536   3.805
66749W        W39174  32.219  22.663   4.583
66750W        W39175   9.412  18.353  10.680
66751W        W39176  17.580  28.142  13.525
66752W        W39177   8.167  14.485   0.922
66753W        W39178   8.925  18.055  14.949
66754W        W39179  39.860  22.012   3.552
66755W        W39180   6.345  24.247  12.929
66756W        W39181  20.371  13.889   5.091
66757W        W39182  26.458  10.270  14.318
66758W        W39183  28.330  42.591   5.031
66759W        W39184  42.318  10.629  13.282
66760W        W39185  27.422  31.980   4.549
66761W        W39186  33.581  26.669   3.718
66762W        W39187   8.598  41.464  13.760
66763W        W39188  18.679  44.169   1.907
66764W        W39189  23.972  15.534   0.977
66765W        W39190  26.943  26.374   0.781
66766W        W39191   9.645  29.464   2.353
66767W        W39192  17.737  37.549  14.902
66768W        W39193  12.922  34.867  14.868
66769W        W39194  25.980   9.877   2.217
66770W        W39195   8.902  13.161   4.562
66771W        W39196  42.295  28.581   1.364
66772W        W39197   1.347  19.807  12.853
66773W        W39198   9.213   5.689   4.134
66774W        W39199  17.634  40.745  13.496
66775W        W39200   1.928   8.675  14.998
66776W        W39201  37.255  13.506   2.204
66777W        W39202  30.948  15.562  11.002
66778W        W39203  39.054  28.796   2.773
66779W        W39204  18.435   6.126   3.866
66780W        W39205  16.727   7.369  12.454
66781W        W39206  28.051  27.719   3.410
66782W        W39207  14.092  24.966   2.135
66783W        W39208   1.788  26.612   2.651
66784W        W39209  31.615  34.138  12.068
66785W        W39210  11.845  18.698   2.309
66786W        W39211  44.804  32.550   2.688
66787W        W39212  31.978  23.932   2.274
66788W        W39213   2.953  39.373   1.106
66789W        W39214  14.286  35.302   4.116
66790W        W39215  19.847  14.672   1.894
66791W        W39216  31.456  11.823  14.327
66792W        W39217  21.485  42.906   2.356
66793W        W39218  29.165  19.776   2.677
66794W        W39219  39.292  28.315  12.712
66795W        W39220  11.893   2.960  11.897
66796W        W39221   6.340   7.929   1.273
66797W        W39222  40.573  23.576  13.341
66798W        W39223  27.614  41.501   4.303
66799W        W39224  24.974  37.362  11.963
66800W        W39225  20.473  40.873  12.880
66801W        W39226  34.916  29.225  13.458
66802W        W39227  24.738  43.161   5.032
66803W        W39228  10.122  30.853   2.726
66804W        W39229   1.691  14.551   0.018
66805W        W39230  20.410  24.130  11.190
66806W        W39231  19.537  19.274  11.503
66807W        W39232  34.703  41.244   1.959
66808W        W39233   1.935  11.813  14.290
66809W        W39234  24.470   3.438  14.968
66810W        W39235  14.317   2.404  13.454
66811W        W39236  10.849  27.941  14.005
66812W        W39237  13.811  13.666   4.822
66813W        W39238   6.194   0.422   4.867
66814W        W39239  37.968  43.570  14.851
66815W        W39240  31.399  11.146  14.003
66816W        W39241  24.013  34.487  12.419
66817W        W39242   7.215  33.618  11.242
66818W        W39243  30.385  32.952   3.187
66819W        W39244   0.794  13.327   0.909
66820W        W39245  44.876   5.985   4.220
66821W        W39246  24.963  14.836  13.011
66822W        W39247  40.554  20.098  14.316
66823W        W39248   7.367   7.439  11.944
66824W        W39249  43.945   8.750  12.949
66825W        W39250   7.892  35.287   0.810
66826W        W39251  33.078  35.463  13.015
66827W        W39252  34.905  25.581  13.181
66828W        W39253   7.609  19.216   3.255
66829W        W39254  33.084  17.058   0.757
66830W        W39255  29.185  31.609   5.150
66831W        W39256  16.307  12.192  13.455
66832W        W39257  10.126   8.435   1.261
66833W        W39258   3.284  32.528  13.064
66834W        W39259  43.342   0.591   0.468
66835W        W39260  35.561  24.196   2.655
66836W        W39261  36.804  13.684  14.014
66837W        W39262  23.665  16.783  10.588
66838W        W39263   2.767  14.337  12.390
66839W        W39264  40.214  44.224   4.536
66840W        W39265  42.724   5.797   1.851
66841W        W39266  28.823  38.494   3.152
66842W        W39267  11.428   4.513  14.852
66843W        W39268   8.396  42.387   0.436
66844W        W39269  31.975  39.968   9.854
66845W        W39270  18.368  23.650   1.827
66846W        W39271  30.162   5.203   0.319
66847W        W39272  37.090   3.689   3.674
66848W        W39273  24.739  33.548   2.819
66849W        W39274   0.684  21.227  11.970
66850W        W39275   4.795  15.536   0.618
66851W        W39276  14.794   4.468   2.211
66852W        W39277  35.019  18.970   3.359
66853W        W39278  42.479  22.801   2.326
66854W        W39279   3.867   0.906  13.326
66855W        W39280  21.244  43.544   1.659
66856W        W39281  27.764  33.283  10.887
66857W        W39282   5.177  14.427   4.550
66858W        W39283  17.168  16.556   2.753
66859W        W39284  27.137  26.584   2.589
66860W        W39285  10.421  20.671   4.129
66861W        W39286  14.684  35.071   3.640
66862W        W39287  13.559  43.696  14.410
66863W        W39288  34.137  18.842  11.986
66864W        W39289  36.771  31.213  11.027
66865W        W39290   0.040  36.096  11.085
66866W        W39291  30.072  13.898   0.684
66867W        W39292  44.242   7.174  14.571
66868W        W39293   9.951  15.559   1.749
66869W        W39294  11.240   8.808   1.185
66870W        W39295   1.757  23.907   1.185
66871W        W39296  11.180  28.040   1.943
66872W        W39297  11.323  33.431  10.263
66873W        W39298  42.641   2.132   4.272
66874W        W39299  15.343  40.337   2.146
66875W        W39300  23.077  44.546   0.086
66876W        W39301  29.950  10.697   4.696
66877W        W39302   5.228  36.939   4.697
66878W        W39303  11.693  15.571   1.728
66879W        W39304  11.637   2.712   2.748
66880W        W39305  40.769  40.788   3.580
66881W        W39306   0.302   5.659   4.145
66882W        W39307  26.825   3.761  11.991
66883W        W39308  17.832  41.527   4.057
66884W        W39309  40.115  10.192  12.956
66885W        W39310  38.151  36.000  11.688
66886W        W39311  39.487  16.323   2.312
66887W        W39312  26.175   3.355   2.075
66888W        W39313  11.368  12.320  10.824
66889W        W39314  33.760  28.744  11.363
66890W        W39315  43.856  44.533   3.260
66891W        W39316  36.591   8.289   0.435
66892W        W39317  21.266  41.003  12.557
66893W        W39318   2.514  12.771   1.417
66894W        W39319  40.400  11.897   4.690
66895W        W39320  19.698  39.211  10.733
66896W        W39321  19.498  27.189   1.376
66897W        W39322  20.411   9.625   0.452
66898W        W39323  36.675  19.822   1.362
66899W        W39324  22.622   3.103   0.321
66900W        W39325  40.554  21.467   1.498
66901W        W39326   5.941  35.028  11.152
66902W        W39327   0.388  43.250   0.460
66903W        W39328  28.162  34.145   3.689
66904W        W39329  20.399  22.458   5.095
66905W        W39330  28.938  27.638   0.286
66906W        W39331   9.107  26.530   0.576
66907W        W39332  17.090  33.904   1.929
66908W        W39333  11.696   3.409  11.713
66909W        W39334  25.236  42.583  11.143
66910W        W39335  22.420  32.168  14.557
66911W        W39336  16.301  10.712   1.318
66912W        W39337  28.102  20.825   5.042
66913W        W39338  28.411  22.457   2.332
66914W        W39339  15.627  33.902   4.342
66915W        W39340  33.912  24.205  13.021
66916W        W39341  37.055  34.408   1.682
66917W        W39342   6.560  25.854  14.052
66918W        W39343  13.200  12.851   3.188
66919W        W39344  27.484  29.210  11.588
66920W        W39345  22.871  40.602  14.767
66921W        W39346  38.628   8.900   4.726
66922W        W39347  38.818  26.720  11.927
66923W        W39348  13.800  24.896   0.299
66924W        W39349  35.930  20.766  14.078
66925W        W39350  14.155  12.383   3.370
66926W        W39351  35.072  39.548   0.727
66927W        W39352  18.690  10.693   1.749
66928W        W39353  11.769  24.876  12.397
66929W        W39354  44.724  30.157   0.544
66930W        W39355  20.830   4.281   0.979
66931W        W39356  43.953  11.343   3.184
66932W        W39357  28.702   1.346  10.695
66933W        W39358  30.885   5.750   3.155
66934W        W39359  17.621  20.841  14.974
66935W        W39360  32.569  31.491  14.305
66936W        W39361   0.808  28.619   2.378
66937W        W39362  20.761  33.072   2.384
66938W        W39363   2.450  38.643  11.769
66939W        W39364  33.421  13.658  13.525
66940W        W39365  12.370  23.734   3.244
66941W        W39366   6.689  33.369   0.978
66942W        W39367  16.991  27.451  11.780
66943W        W39368  23.027  21.473  11.702
66944W        W39369  28.868  37.019  12.005
66945W        W39370  30.142  21.738  13.281
66946W        W39371   5.248   4.790   2.380
66947W        W39372  36.816  11.902  11.784
66948W        W39373  16.460  41.129  13.878
66949W        W39374  29.136  38.286   2.767
66950W        W39375   4.182  40.590  14.360
66951W        W39376  34.280  14.905  13.505
66952W        W39377   7.803  12.300   4.892
66953W        W39378  28.941  17.626   4.566
66954W        W39379  43.974   1.317   4.571
66955W        W39380  32.922  14.669  10.688
66956W        W39381   1.918  10.866  12.180
66957W        W39382  20.943  44.876  12.386
66958W        W39383  21.050  29.262  12.562
66959W        W39384   6.803   5.165   4.177
66960W        W39385  41.449  37.633  13.483
66961W        W39386  16.780  35.077   1.278
66962W        W39387   1.225  24.126   1.827
66963W        W39388  19.661  31.421  14.523
66964W        W39389  14.584   4.913   2.392
66965W        W39390  38.111  44.783  14.767
66966W        W39391  17.313  27.400   2.819
66967W        W39392  44.665  11.897  14.831
66968W        W39393  26.076   1.405  14.527
66969W        W39394  34.928  30.970   2.804
66970W        W39395  13.174  22.107  13.648
66971W        W39396   5.275  10.865  13.661
66972W        W39397  33.891  37.391   0.848
66973W        W39398   8.855  25.613   0.951
66974W        W39399  15.948   3.446  14.669
66975W        W39400  14.813  35.116  14.664
66976W        W39401  39.514  38.017   0.308
66977W        W39402  12.692  42.628  11.244
66978W        W39403  17.323  31.671  14.824
66979W        W39404  26.228   7.452  12.199
66980W        W39405  42.353  19.220  12.415
66981W        W39406  39.583  16.197   3.690
66982W        W39407  10.053  14.767   2.235
66983W        W39408   8.183   6.358  12.135
66984W        W39409  38.638  42.311   5.367
66985W        W39410  23.670  39.458   1.874
66986W        W39411   9.174  18.013  13.311
66987W        W39412  21.003  35.138   0.336
66988W        W39413  33.871  15.717   3.659
66989W        W39414  41.402  14.795  13.375
66990W        W39415   3.476  23.986   4.671
66991W        W39416  12.044   6.723  14.367
66992W        W39417  21.772  42.839  13.696
66993W        W39418  37.843  13.976  11.877
66994W        W39419  27.793  38.094   2.839
66995W        W39420  16.532  19.745  10.879
66996W        W39421   5.148  22.816  12.565
66997W        W39422  14.738  41.553  14.736
66998W        W39423   4.688  13.390  10.409
66999W        W39424  31.971  28.144  14.421
67000W        W39425  40.481  19.115   2.828
67001W        W39426  23.679  22.737   2.090
67002W        W39427   7.385  16.612  12.514
67003W        W39428   9.654  12.534  11.132
67004W        W39429  41.388  37.068  11.930
67005W        W39430  18.561   4.299  13.500
67006W        W39431  31.430  16.105  11.432
67007W        W39432  21.483  14.825   4.769
67008W        W39433   7.784  12.704   2.647
67009W        W39434   4.747  31.914   3.092
67010W        W39435   8.381  43.518   1.468
67011W        W39436  19.827   5.198  13.998
67012W        W39437  14.682  15.018   4.182
67013W        W39438  44.355   7.432   2.670
67014W        W39439  21.781  38.758   3.728
67015W        W39440  39.490  23.216   1.167
67016W        W39441  16.848   7.863   2.404
67017W        W39442  13.297  34.096   4.645
67018W        W39443  44.116  28.458  11.935
67019W        W39444  15.575  25.643   0.408
67020W        W39445   9.288  34.612  13.660
67021W        W39446  22.697  43.858   2.313
67022W        W39447  24.972  40.110  12.076
67023W        W39448  34.671  44.946  13.560
67024W        W39449  40.172   9.603  14.805
67025W        W39450   1.938  37.764   4.033
67026W        W39451  42.403  31.574   3.069
67027W        W39452  19.140  33.109  14.304
67028W        W39453  44.188  41.440   3.055
67029W        W39454  24.059  22.990   1.320
67030W        W39455   2.793   0.912  13.417
67031W        W39456   9.264   3.351   0.113
67032W        W39457  25.499  19.526  14.858
67033W        W39458  31.576  44.553  11.121
67034W        W39459   9.246   6.697  10.232
67035W        W39460  25.282   3.921   0.901
67036W        W39461   9.863  15.225   0.998
67037W        W39462  25.723  11.799  12.605
67038W        W39463  35.583   8.159  13.420
67039W        W39464  24.126  44.895  12.039
67040W        W39465   0.096  21.724   3.652
67041W        W39466   6.079  32.430  10.206
67042W        W39467  43.770  42.459   2.833
67043W        W39468  10.133  18.097  14.307
67044W        W39469  15.320  18.174  10.583
67045W        W39470  31.162  18.741   0.549
67046W        W39471  25.158  19.522   1.271
67047W        W39472   2.960  33.089  13.968
67048W        W39473  28.956  39.766  13.999
67049W        W39474  34.791  30.007  11.789
67050W        W39475  26.526  13.379  14.833
67051W        W39476   6.142   0.765   2.723
67052W        W39477  40.507   1.194   2.774
67053W        W39478  34.942   8.970  14.022
67054W        W39479  42.829  44.857  12.502
67055W        W39480   2.842  29.318  11.408
67056W        W39481  33.527  25.533  14.484
67057W        W39482  11.248  10.139  10.616
67058W        W39483   8.269  13.819  11.999
67059W        W39484   1.458   6.643  10.797
67060W        W39485  20.742  37.131   3.568
67061W        W39486   1.966  19.836   3.672
67062W        W39487  29.570   5.715  14.302
67063W        W39488  34.843  27.665  11.048
67064W        W39489  36.115  44.937  13.981
67065W        W39490  15.060  12.166  14.242
67066W        W39491  21.711  33.551   3.250
67067W        W39492   8.398  31.004   4.593
67068W        W39493  44.360   1.698   2.456
67069W        W39494   9.665  23.200   2.422
67070W        W39495   0.563  40.799   1.726
67071W        W39496   5.681   6.230   4.593
67072W        W39497  14.592   6.925   0.165
67073W        W39498  40.722  24.249   1.881
67074W        W39499  19.638  23.737   2.393
67075W        W39500  30.825  15.079   2.481
67076W        W39501  25.720  37.364   1.290
67077W        W39502  36.090  19.041   1.701
67078W        W39503  28.861  21.114   2.632
67079W        W39504  16.013  32.325   1.378
67080W        W39505   4.737   9.214   1.433
67081W        W39506  19.829   8.148   2.238
67082W        W39507  21.602   8.265  11.558
67083W        W39508  15.534  12.768  13.613
67084W        W39509   9.358  15.647  11.522
67085W        W39510  28.079  33.638   3.584
67086W        W39511  23.100  17.534  12.840
67087W        W39512   4.251  38.834   3.840
67088W        W39513  22.610  34.719   4.696
67089W        W39514  23.142  10.868   1.405
67090W        W39515  15.725  31.855  12.488
67091W        W39516  34.014  37.428  14.009
67092W        W39517   6.720   6.911   0.703
67093W        W39518  44.744  33.682  13.899
67094W        W39519  39.903   7.701   4.763
67095W        W39520  35.582   7.533   1.812
67096W        W39521   0.835   1.934   1.204
67097W        W39522  16.251  22.330   0.283
67098W        W39523  35.861  26.801   5.041
67099W        W39524   9.122  20.638   1.456
67100W        W39525   0.403  36.894   3.808
67101W        W39526   8.312  25.127   2.004
67102W        W39527   9.269  28.695  12.169
67103W        W39528  14.846  44.988   3.391
67104W        W39529   2.766   7.386   1.698
67105W        W39530  15.867  13.790   1.883
67106W        W39531   8.335  10.415  13.766
67107W        W39532  12.212  25.102  11.817
67108W        W39533  37.129   5.343   3.223
67109W        W39534  22.131   3.248   0.316
67110W        W39535  15.353   2.373   1.248
67111W        W39536   1.800   1.793   2.656
67112W        W39537  28.420  19.710  13.272
67113W        W39538  11.656   8.075   0.864
67114W        W39539  44.991  13.456  14.042
67115W        W39540   3.601  10.293  11.598
67116W        W39541  19.913  24.031  11.302
67117W        W39542  20.603  22.480  13.564
67118W        W39543   8.064   6.832  11.940
67119W        W39544  24.161  20.704   1.025
67120W        W39545  21.674   2.818   1.961
67121W        W39546   0.830  16.017   3.300
67122W        W39547  24.238   0.689  10.406
67123W        W39548  13.746  13.819   2.784
67124W        W39549  22.341  27.946  13.821
67125W        W39550  26.720   2.833  12.198
67126W        W39551   7.431  21.011  13.412
67127W        W39552   2.284   5.776   0.054
67128W        W39553   1.426  23.649  10.993
67129W        W39554   6.253  35.622   3.290
67130W        W39555  42.051  35.850  11.619
67131W        W39556  41.998  41.602  12.013
67132W        W39557  36.694  22.760   3.454
67133W        W39558   5.966  19.103   2.752
67134W        W39559   2.584  35.980  13.954
67135W        W39560   1.777  20.440   0.758
67136W        W39561  43.684  36.552   2.289
67137W        W39562  41.631  39.327  12.421
67138W        W39563  19.187   7.402   0.517
67139W        W39564  43.636  40.387  10.817
67140W        W39565  36.612  14.635  11.444
67141W        W39566  29.291  44.154   0.943
67142W        W39567  31.212  13.821   3.841
67143W        W39568  33.551   7.545  14.659
67144W        W39569  17.650   1.383  11.444
67145W        W39570   3.247  43.021  14.534
67146W        W39571  43.865  39.744  12.053
67147W        W39572   0.514  35.906  12.553
67148W        W39573  12.704  35.816  14.924
67149W        W39574  38.046   0.463   1.858
67150W        W39575  15.380  14.590  14.078
67151W        W39576   0.033  22.984   3.326
67152W        W39577  22.076  26.664  13.395
67153W        W39578  44.299   6.757   0.519
67154W        W39579  20.859   5.397   3.838
67155W        W39580  28.107  32.474   4.618
67156W        W39581  37.423  38.412   4.724
67157W        W39582  28.402  17.080   3.224
67158W        W39583  42.771  39.061  10.707
67159W        W39584  24.284  21.147   0.357
67160W        W39585  25.714  23.630  14.912
67161W        W39586  38.880   1.936   4.605
67162W        W39587  20.152  29.620   2.174
67163W        W39588  44.643  14.498  12.786
67164W        W39589  28.465   1.481  11.131
67165W        W39590  10.321  21.047   4.788
67166W        W39591  12.658  42.491   1.294
67167W        W39592  33.547   6.725   3.320
67168W        W39593  24.849  35.182   4.096
67169W        W39594   6.762  31.859   4.723
67170W        W39595  39.077   2.414   4.569
67171W        W39596  16.690  43.480   1.953
67172W        W39597  14.587   1.689   3.706
67173W        W39598   9.172   7.936  11.872
67174W        W39599  15.008  43.769  12.886
67175W        W39600   7.850  40.614  10.212
67176W        W39601   2.038  40.832   2.625
67177W        W39602   8.347  43.552   1.995
67178W        W39603   8.242  30.841   1.827
67179W        W39604   4.287  37.111   1.766
67180W        W39605  27.630  25.221   0.533
67181W        W39606  11.056  18.245   2.109
67182W        W39607  18.630  38.836  13.033
67183W        W39608  33.948   5.859   3.166
67184W        W39609   6.868   4.909  13.538
67185W        W39610  39.436  24.934  12.440
67186W        W39611  38.261  19.522  12.936
67187W        W39612  27.332  14.597   3.368
67188W        W39613   1.399  22.301   0.443
67189W        W39614  41.249  40.515  14.019
67190W        W39615  39.004  10.674   0.885
67191W        W39616  32.567  28.376  14.046
67192W        W39617   3.498  13.689   3.610
67193W        W39618  29.375  37.895   3.673
67194W        W39619  38.845  39.354  11.407
67195W        W39620  42.121  39.050   3.736
67196W        W39621  19.277  13.743  12.554
67197W        W39622   7.952  38.192   9.725
67198W        W39623   9.592  10.220   2.250
67199W        W39624   2.729  44.515   3.720
67200W        W39625  38.280  32.641   1.626
67201W        W39626   5.316  44.565  13.527
67202W        W39627  16.147  15.974  11.632
67203W        W39628  36.051  22.828   1.406
67204W        W39629  19.849  38.072  12.155
67205W        W39630  39.849   7.081  13.454
67206W        W39631   0.382  13.369   1.687
67207W        W39632  37.390  15.343  12.140
67208W        W39633  26.552  24.712   4.643
67209W        W39634  31.623  16.582  13.524
67210W        W39635   7.376  37.361  14.889
67211W        W39636   7.289   8.315   1.693
67212W        W39637  11.623  20.799   2.908
67213W        W39638  14.849  37.910  11.753
67214W        W39639  18.542  43.433  10.749
67215W        W39640  17.847  34.953   3.193
67216W        W39641   1.245  38.404   0.687
67217W        W39642  30.583   3.521   2.236
67218W        W39643  30.871   0.831  14.928
67219W        W39644  23.662  29.053  10.760
67220W        W39645   2.727  18.012   2.418
67221W        W39646  24.928   6.317  11.344
67222W        W39647  25.235   2.852  13.563
67223W        W39648  13.889  27.743   0.714
67224W        W39649   5.548   0.944   0.700
67225W        W39650   9.459  40.422  10.805
67226W        W39651  37.918  17.599   3.128
67227W        W39652   2.727   1.384   0.324
67228W        W39653  32.473  37.547   1.665
67229W        W39654  33.336  18.728   0.965
67230W        W39655  29.156  44.873  10.966
67231W        W39656  36.464   7.263   0.362
67232W        W39657  39.821   5.266   1.291
67233W        W39658  41.719  42.995   2.853
67234W        W39659  22.630  20.764  12.715
67235W        W39660  23.157  24.122  11.651
67236W        W39661  10.732   6.813   2.739
67237W        W39662  22.511  14.682   0.285
67238W        W39663   4.004   1.027  14.726
67239W        W39664  40.064  38.891   3.392
67240W        W39665  28.143  27.839  10.994
67241W        W39666  39.940  17.791  12.788
67242W        W39667  22.155  36.381  10.739
67243W        W39668  17.118  22.698   2.253
67244W        W39669  24.694  18.410  12.949
67245W        W39670  30.160  33.937   1.871
67246W        W39671  34.323  20.774  12.255
67247W        W39672  19.654  19.564  12.864
67248W        W39673  20.735   0.367  13.380
67249W        W39674   9.326  20.983  13.966
67250W        W39675   4.907  36.482   2.073
67251W        W39676   1.498  19.314   2.948
67252W        W39677  35.900   7.237  10.546
67253W        W39678  35.146   4.860  11.665
67254W        W39679   8.276   6.338  13.607
67255W        W39680  28.905  31.115   5.166
67256W        W39681  33.637   1.268  12.519
67257W        W39682  29.591  23.274   2.827
67258W        W39683  34.076  10.745  12.119
67259W        W39684  28.086   0.853   4.303
67260W        W39685  28.770  31.286   1.156
67261W        W39686  41.658   1.102   5.072
67262W        W39687  40.471  32.864  13.328
67263W        W39688  38.115   6.942   3.716
67264W        W39689   7.330   9.818  10.556
67265W        W39690   5.924   3.883  13.584
67266W        W39691   0.181  44.391   2.930
67267W        W39692  40.557  37.991   3.261
67268W        W39693  12.061  26.972  13.073
67269W        W39694  11.937   9.956  11.090
67270W        W39695  28.002  23.208   2.417
67271W        W39696  38.194  12.145  14.329
67272W        W39697  27.132   7.362   4.802
67273W        W39698  10.673  36.010  11.551
67274W        W39699   7.783   2.210  11.429
67275W        W39700  19.087   7.774  13.518
67276W        W39701  15.047  37.930  13.744
67277W        W39702  25.653  23.147   2.630
67278W        W39703  16.624  26.437   3.585
67279W        W39704  27.138   3.791  13.618
67280W        W39705  18.780  13.947  12.597
67281W        W39706  30.659  31.858  13.946
67282W        W39707  36.529  16.779  12.978
67283W        W39708  19.806  41.028   1.438
67284W        W39709  27.023   1.471   5.089
67285W        W39710  42.061  34.702  11.102
67286W        W39711  17.033  24.695  12.825
67287W        W39712  24.227  16.332   3.935
67288W        W39713  39.087  16.992   1.612
67289W        W39714   0.528  20.316   2.704
67290W        W39715   8.757  19.670  14.454
67291W        W39716   3.704   0.746  11.883
67292W        W39717  15.774  37.287   0.959
67293W        W39718  10.357   5.395  12.855
67294W        W39719  10.688  35.080  11.157
67295W        W39720  18.952  31.826  14.445
67296W        W39721  37.156  26.236   1.609
67297W        W39722  16.337  30.719   2.653
67298W        W39723  20.758  37.715  10.525
67299W        W39724  37.360  41.831  14.398
67300W        W39725  15.828  11.715  13.044
67301W        W39726  27.320  20.644   0.957
67302W        W39727  43.936  11.332  13.094
67303W        W39728  21.368  43.659   4.452
67304W        W39729   0.400  15.109  12.341
67305W        W39730  38.554  13.116  13.164
67306W        W39731  16.861  25.323  11.110
67307W        W39732   5.819  44.582  10.831
67308W        W39733  11.807   3.844  14.426
67309W        W39734  14.077  14.116  14.396
67310W        W39735  41.777  23.513   3.114
67311W        W39736  34.626  20.165  13.480
67312W        W39737  30.604  24.677  12.054
67313W        W39738  36.912  41.264   1.214
67314W        W39739  13.758  22.478  12.924
67315W        W39740  21.319  23.767  12.438
67316W        W39741  44.841  10.165   3.227
67317W        W39742   7.689  26.066  12.121
67318W        W39743   4.015  20.735  13.424
67319W        W39744  29.481  20.242   1.721
67320W        W39745  28.188   2.914   4.593
67321W        W39746  24.612  24.532   0.682
67322W        W39747  19.184  21.575  13.044
67323W        W39748  14.084  18.822   2.223
67324W        W39749  10.623  42.626  14.230
67325W        W39750  38.758  11.199   0.285
67326W        W39751  35.286  32.381  13.885
67327W        W39752  27.234  28.061  12.887
67328W        W39753   2.352  29.658  12.226
67329W        W39754  27.163   1.106  12.789
67330W        W39755   2.158  12.600   0.477
67331W        W39756  12.742  34.124   3.251
67332W        W39757  14.152  27.125  10.690
67333W        W39758   8.433  28.966   1.177
67334W        W39759   1.475  30.954   4.307
67335W        W39760   6.872  30.808  10.964
67336W        W39761  34.773  13.322   0.550
67337W        W39762  24.077   9.867   4.136
67338W        W39763  23.003   3.798   4.557
67339W        W39764  27.758  10.834  10.584
67340W        W39765  39.593  32.398   3.625
67341W        W39766  35.993  26.687   0.694
67342W        W39767  43.858  36.411   3.408
67343W        W39768  19.766   6.048  13.591
67344W        W39769  16.125   3.340  12.856
67345W        W39770  17.671  15.656  13.409
67346W        W39771  10.961  40.609  13.403
67347W        W39772  13.919  37.081  10.935
67348W        W39773  11.528   8.906  12.045
67349W        W39774  29.393  41.429  10.019
67350W        W39775  27.105  23.792   1.371
67351W        W39776  35.830  33.429   2.830
67352W        W39777  35.464  12.869   0.324
67353W        W39778  21.043   1.666   1.425
67354W        W39779  11.381   4.000   2.030
67355W        W39780  28.239  26.233   3.013
67356W        W39781   2.825   1.699   3.678
67357W        W39782   0.534   3.537  10.890
67358W        W39783   2.339  42.292   4.715
67359W        W39784  21.115  37.161   1.279
67360W        W39785  32.480   1.419  14.369
67361W        W39786   0.360  36.841   4.318
67362W        W39787   7.656   7.944   1.788
67363W        W39788  18.082  19.637   4.170
67364W        W39789  36.982   8.672  12.579
67365W        W39790   4.171   9.818  13.512
67366W        W39791  11.312  23.971   4.211
67367W        W39792  32.407   7.244   0.774
67368W        W39793  12.670  10.570  11.080
67369W        W39794  44.057  15.350   0.356
67370W        W39795  12.528  25.518  11.957
67371W        W39796  14.329   6.770   1.256
67372W        W39797  12.162  36.332   2.710
67373W        W39798  42.352   6.357   3.753
67374W        W39799   3.297   1.514  14.781
67375W        W39800  11.846   3.631  13.509
67376W        W39801  21.090  24.041   4.186
67377W        W39802  21.063  42.544  13.892
67378W        W39803  10.154  34.340   2.730
67379W        W39804   7.655  13.942  14.532
67380W        W39805  21.433  26.881   0.548
67381W        W39806   6.387  40.618  14.286
67382W        W39807  33.817  33.889   4.969
67383W        W39808  30.952  10.733   4.513
67384W        W39809  22.662  20.365   3.226
67385W        W39810  24.138  39.758  12.497
67386W        W39811  43.245   4.727  10.238
67387W        W39812   2.400  22.081   2.840
67388W        W39813  30.756  26.577  14.326
67389W        W39814   5.697  20.800   4.266
67390W        W39815   0.244   1.456   4.486
67391W        W39816  36.397  10.187  14.469
67392W        W39817  32.798  27.437  12.527
67393W        W39818   8.730  39.552  12.345
67394W        W39819  30.633  24.057   1.909
67395W        W39820   8.654  25.625  11.541
67396W        W39821   1.860  22.918   3.785
67397W        W39822  22.907  13.698  12.158
67398W        W39823   7.706  29.707   0.617
67399W        W39824  34.685  40.807  12.345
67400W        W39825  41.085   5.783   0.285
67401W        W39826  20.797  33.927  12.843
67402W        W39827  43.169  31.108  12.884
67403W        W39828  41.568  42.524  14.115
67404W        W39829  26.246  10.317   3.631
67405W        W39830  22.392   4.899   2.205
67406W        W39831  43.818  37.081  11.731
67407W        W39832  35.041   3.477   1.227
67408W        W39833  39.537  24.553   5.456
67409W        W39834  11.759  14.543  14.408
67410W        W39835  42.697  12.389  14.413
67411W        W39836  15.771  43.293  14.042
67412W        W39837  22.364  17.528  13.398
67413W        W39838   2.296  40.431  11.957
67414W        W39839   3.238  11.158   4.543
67415W        W39840  31.211  12.588  13.427
67416W        W39841  30.969  17.332  11.504
67417W        W39842  32.473   9.022   1.221
67418W        W39843  10.336   3.250  14.318
67419W        W39844  17.526  26.100   2.793
67420W        W39845   9.788  10.858  14.509
67421W        W39846  39.264  44.318  13.503
67422W        W39847  23.799   5.946  12.959
67423W        W39848  27.406  29.512   4.092
67424W        W39849  40.988  14.742   2.719
67425W        W39850  44.848  21.659   4.585
67426W        W39851  15.752  41.763   1.251
67427W        W39852  25.256  26.954  12.975
67428W        W39853   3.201  27.707  10.931
67429W        W39854  43.225  19.895   4.689
67430W        W39855  40.711   3.294  11.597
67431W        W39856  42.752  39.628  14.322
67432W        W39857  14.154  25.902  14.040
67433W        W39858  18.128   3.637  11.103
67434W        W39859  37.319   4.385   1.688
67435W        W39860  38.997  12.679   1.402
67436W        W39861  42.900  36.302  14.782
67437W        W39862  24.498   9.339  14.345
67438W        W39863  13.884  31.642   1.343
67439W        W39864  19.133   8.274  13.695
67440W        W39865  28.999  13.329   2.785
67441W        W39866  33.055  27.726  10.733
67442W        W39867  36.651  20.853   3.426
67443W        W39868  10.141  14.314   3.285
67444W        W39869  16.615   0.791  11.549
67445W        W39870  28.926  35.949   2.930
67446W        W39871  43.449  33.953   0.631
67447W        W39872  23.931  36.986   3.159
67448W        W39873  24.943  29.061   2.774
67449W        W39874  18.877  15.267  13.804
67450W        W39875   6.152   5.900  12.012
67451W        W39876  42.695  37.629   2.854
67452W        W39877  28.003  11.661   2.371
67453W        W39878  12.758  30.063   1.037
67454W        W39879   5.971  19.977   4.149
67455W        W39880  39.449  14.442  12.136
67456W        W39881   7.396  40.077  12.182
67457W        W39882  44.317  18.513   0.002
67458W        W39883  35.481  27.218  12.990
67459W        W39884  21.383  30.723   1.259
67460W        W39885  40.974  38.310   1.841
67461W        W39886  35.604  14.269   2.326
67462W        W39887  20.247  26.825   1.746
67463W        W39888  15.028  39.249   4.690
67464W        W39889  30.851  44.250   1.198
67465W        W39890  15.188  41.394  12.014
67466W        W39891  16.594  30.913  13.508
67467W        W39892  43.053  33.877   4.116
67468W        W39893   1.297  29.385   3.150
67469W        W39894  15.796  33.483   2.700
67470W        W39895   7.567  13.192   4.971
67471W        W39896  23.018  12.648   1.093
67472W        W39897  35.176  37.525   3.741
67473W        W39898  29.439  11.517   5.179
67474W        W39899  10.059  34.421  12.894
67475W        W39900  25.962   6.683   2.890
67476W        W39901  25.035  16.834   1.791
67477W        W39902  29.905  11.672   2.303
67478W        W39903  23.762  44.748  14.251
67479W        W39904  30.397  43.220   3.010
67480W        W39905  25.723  19.143   0.411
67481W        W39906  20.710   3.181   3.312
67482W        W39907  14.100  31.564   3.414
67483W        W39908   8.125   6.525  14.956
67484W        W39909  12.271   0.370  13.446
67485W        W39910  13.322  40.906  14.703
67486W        W39911  41.056  39.485  11.089
67487W        W39912   2.499  13.179   2.823
67488W        W39913  40.642   8.900   0.207
67489W        W39914  14.137  27.432   4.496
67490W        W39915  34.130  18.292  11.989
67491W        W39916  33.810  19.044   0.169
67492W        W39917  19.632  21.156  11.040
67493W        W39918  20.695  29.423  14.281
67494W        W39919  40.174  23.034   0.463
67495W        W39920  12.270  36.549  13.559
67496W        W39921   1.452  34.346  14.878
67497W        W39922  41.854   3.478   1.261
67498W        W39923  28.612  43.245   4.173
67499W        W39924   2.497  29.903  14.978
67500W        W39925  40.095   7.278  12.136
67501W        W39926  12.873  40.113   0.311
67502W        W39927  11.651  33.655  11.954
67503W        W39928  35.349  20.999  11.575
67504W        W39929  31.955   4.742   0.477
67505W        W39930  11.853  35.912  13.929
67506W        W39931  28.160  22.224   0.826
67507W        W39932   8.085  29.347   0.902
67508W        W39933  16.746  44.859   1.280
67509W        W39934  44.665  37.111   3.139
67510W        W39935  37.307   9.330   0.861
67511W        W39936  38.980   5.267  11.249
67512W        W39937  13.555  34.307   2.485
67513W        W39938   2.775  42.429  10.666
67514W        W39939  40.333  14.576   3.146
67515W        W39940  31.343  10.221  13.567
67516W        W39941  17.569  15.553   0.874
67517W        W39942  40.667  24.521   0.738
67518W        W39943  15.146   6.228  13.654
67519W        W39944  28.855   3.922   4.485
67520W        W39945  29.632  32.633  12.050
67521W        W39946   5.847  12.554  14.350
67522W        W39947   0.774  23.967   3.493
67523W        W39948  11.223  39.758   0.677
67524W        W39949  14.915  43.538   4.296
67525W        W39950   0.862  13.599   0.432
67526W        W39951   0.713  11.047  11.379
67527W        W39952   0.964  31.658  13.426
67528W        W39953  16.213  14.290  14.444
67529W        W39954  15.695  34.167   2.968
67530W        W39955   1.420  38.955  11.545
67531W        W39956  10.674   8.717  14.542
67532W        W39957  27.980  44.758   3.341
67533W        W39958  43.354  37.565   4.636
67534W        W39959  13.509  31.157   4.626
67535W        W39960  18.736  19.243  12.532
67536W        W39961   7.886  41.658  11.282
67537W        W39962  36.105  17.380  13.413
67538W        W39963  43.519  16.937  10.194
67539W        W39964  36.370  27.488   0.350
67540W        W39965  32.652  26.207   3.830
67541W        W39966   8.757  22.466   1.047
67542W        W39967  25.406  33.934  12.940
67543W        W39968   9.268   8.678   1.786
67544W        W39969   0.122  28.237   3.879
67545W        W39970  40.423  41.846  11.544
67546W        W39971  15.078  10.637   4.846
67547W        W39972  35.703  41.892   2.861
67548W        W39973  44.295  28.901   1.250
67549W        W39974  29.910  20.213   3.214
67550W        W39975  20.368  40.954   0.206
67551W        W39976   3.944  38.591  13.298
67552W        W39977  29.638  22.592   1.782
67553W        W39978   1.912  38.339  11.186
67554W        W39979  19.088  34.144   0.728
67555W        W39980   0.408   4.201  11.444
67556W        W39981   3.896  16.254  12.264
67557W        W39982  13.375  35.005   4.131
67558W        W39983   3.046   7.209   0.722
67559W        W39984  21.150  12.913   5.174
67560W        W39985   4.909  28.974  10.797
67561W        W39986   7.144  20.540  14.539
67562W        W39987  12.378  17.767   0.855
67563W        W39988   0.191  19.767  14.851
67564W        W39989   5.625  24.166  10.613
67565W        W39990  25.983  42.452  13.989
67566W        W39991  29.729  21.549  14.412
67567W        W39992   4.601  43.506  12.080
67568W        W39993  37.756  17.408   0.646
67569W        W39994   6.380  24.687  11.568
67570W        W39995  12.026  24.709  14.463
67571W        W39996  39.757  37.350  11.104
67572W        W39997  14.094  18.081   2.748
67573W        W39998  30.594   8.277  13.041
67574W        W39999  37.161   8.879   0.570
67575W        W40000   1.227  36.628  11.985
67576W        W40001  31.741  18.902   5.146
67577W        W40002  42.404  40.467   0.972
67578W        W40003  21.280  27.574   0.390
67579W        W40004  27.282  27.573  12.730
67580W        W40005  15.182  23.248   3.375
67581W        W40006   5.529   3.970   1.903
67582W        W40007  19.184  44.714   2.361
67583W        W40008  19.065  32.275  11.448
67584W        W40009  30.525  26.089  12.654
67585W        W40010  44.918  44.036  14.913
67586W        W40011  42.972  44.679  14.656
67587W        W40012   6.786  26.563   0.415
67588W        W40013   9.888  19.985  11.073
67589W        W40014   8.429  32.042   0.370
67590W        W40015  24.499  26.230  13.038
67591W        W40016   2.652   4.099   0.651
67592W        W40017  19.386  34.096   4.941
67593W        W40018  31.031  14.115   0.288
67594W        W40019   8.753   4.719   4.606
67595W        W40020  38.569  23.475  13.311
67596W        W40021  24.946   7.906   4.185
67597W        W40022   2.793  36.644   2.319
67598W        W40023   3.718   5.995   0.973
67599W        W40024  26.240  23.611  10.740
67600W        W40025  18.762  37.952   4.791
67601W        W40026   9.846   7.088  13.557
67602W        W40027  38.771  37.107   2.314
67603W        W40028  20.068  39.612   1.438
67604W        W40029   9.107   2.634  13.340
67605W        W40030  38.095  20.930  10.085
67606W        W40031  16.275  33.118  10.674
67607W        W40032  35.769  29.658   3.884
67608W        W40033  35.547   8.020   0.276
67609W        W40034  27.584   9.711  14.897
67610W        W40035  12.090  18.737   1.010
67611W        W40036  21.220  30.677   2.345
67612W        W40037  20.589  34.900  11.476
67613W        W40038  39.850  44.979   2.331
67614W        W40039  30.912  29.496   2.363
67615W        W40040  29.637  29.440   4.560
67616W        W40041  35.858   3.371  10.753
67617W        W40042  30.364   5.704   0.357
67618W        W40043  22.041  32.647  13.478
67619W        W40044   6.911  11.196  10.671
67620W        W40045  41.866  30.422  10.720
67621W        W40046  24.818  35.165   5.171
67622W        W40047   2.993  19.041  12.408
67623W        W40048  22.029   8.276   3.801
67624W        W40049  11.680   9.480   3.266
67625W        W40050  39.048  35.159   1.358
67626W        W40051  43.689  41.099  14.056
67627W        W40052  15.507  30.664   3.712
67628W        W40053   5.871   7.666   4.685
67629W        W40054   2.407  18.989   2.318
67630W        W40055   2.094  16.709   0.771
67631W        W40056  14.379  26.641  11.643
67632W        W40057  22.736  19.982  12.807
67633W        W40058  25.956  44.475   3.947
67634W        W40059  10.349  18.753  10.610
67635W        W40060  28.185  16.295   4.843
67636W        W40061  39.075  24.141   4.286
67637W        W40062  35.537  18.266   1.845
67638W        W40063  27.878  18.770   5.056
67639W        W40064  23.829  16.672   3.892
67640W        W40065   7.747   1.458  12.094
67641W        W40066   2.449  32.557   3.116
67642W        W40067  32.810  33.470  14.914
67643W        W40068  30.887   4.493   0.867
67644W        W40069  32.088  29.034   4.810
67645W        W40070  18.710   4.509   1.435
67646W        W40071   2.099  13.723   4.159
67647W        W40072  44.834  36.830  13.393
67648W        W40073   4.671  43.200  13.468
67649W        W40074  15.296  42.434  12.429
67650W        W40075  16.183  25.463   2.723
67651W        W40076   2.848  33.686  14.996
67652W        W40077  17.482  15.819  12.968
67653W        W40078  18.247  37.879   3.772
67654W        W40079   6.225  12.532  10.461
67655W        W40080  31.135  43.562  14.948
67656W        W40081  31.918   9.801  13.841
67657W        W40082  12.697   6.421   3.759
67658W        W40083  36.094  43.098   2.916
67659W        W40084   0.568  18.080  11.672
67660W        W40085  24.991   9.805  10.670
67661W        W40086  34.583  20.680  14.351
67662W        W40087  27.632  31.799   0.777
67663W        W40088  24.232  30.668  13.883
67664W        W40089  31.966   9.293  10.758
67665W        W40090  18.107  36.311  13.524
67666W        W40091   9.924  43.036  12.031
67667W        W40092  18.794  11.203  13.120
67668W        W40093  12.776  25.716   1.510
67669W        W40094  38.651   0.925   2.234
67670W        W40095  34.579  20.922  11.184
67671W        W40096  39.077  37.060  10.598
67672W        W40097  37.963   5.355   1.209
67673W        W40098  21.022  11.070   4.556
67674W        W40099  21.097   2.427   3.863
67675W        W40100   3.947   4.377  12.898
67676W        W40101  10.751   2.593  12.834
67677W        W40102   2.947  21.725  13.510
67678W        W40103  40.126  36.811   3.368
67679W        W40104  40.313  17.013   0.406
67680W        W40105  38.794  31.639   0.372
67681W        W40106   4.676   3.808  12.798
67682W        W40107   4.364  38.546  13.012
67683W        W40108  29.471  39.402  12.729
67684W        W40109   7.445  27.901   0.448
67685W        W40110   4.196   6.866   1.729
67686W        W40111   2.011  21.176   9.948
67687W        W40112   9.937   9.273   2.259
67688W        W40113  18.132  33.339  12.093
67689W        W40114  33.141   8.290  13.126
67690W        W40115  19.070  27.602  11.016
67691W        W40116  42.983   2.280  14.320
67692W        W40117  22.123  21.002  12.572
67693W        W40118  29.160  41.139  12.211
67694W        W40119  40.585  28.551   2.628
67695W        W40120   7.700  14.331  12.455
67696W        W40121  18.505  25.661  13.388
67697W        W40122  34.127  29.210   2.249
67698W        W40123  39.777  14.825   0.423
67699W        W40124   8.737  38.372   2.823
67700W        W40125  11.428  43.859  11.867
67701W        W40126  21.247  23.788  13.954
67702W        W40127  44.797  33.583   9.671
67703W        W40128  12.599   2.656   1.958
67704W        W40129  38.981   0.215   5.426
67705W        W40130  33.801   2.775   2.312
67706W        W40131   5.742  25.173   1.357
67707W        W40132  26.056  26.252   1.427
67708W        W40133   3.564  22.440  14.335
67709W        W40134  14.907  39.609  14.735
67710W        W40135  33.208  11.061   3.287
67711W        W40136  26.206  20.166   1.472
67712W        W40137  11.581   3.895   1.452
67713W        W40138  39.229  15.592   0.713
67714W        W40139  16.571  33.039   0.870
67715W        W40140  31.029   9.803  13.443
67716W        W40141   0.373  32.015   2.248
67717W        W40142  35.620  19.153  13.818
67718W        W40143  28.517  16.680  13.392
67719W        W40144  20.345   2.925  11.506
67720W        W40145  15.305  12.411   0.879
67721W        W40146  27.724   2.946   0.930
67722W        W40147  37.785  42.839   3.037
67723W        W40148   3.326  35.828  13.013
67724W        W40149   2.722   2.464  12.506
67725W        W40150  32.497  38.285   1.707
67726W        W40151  30.539  39.788  13.838
67727W        W40152  18.482   9.776   1.782
67728W        W40153  21.042  33.411  10.918
67729W        W40154  18.473  33.444  14.784
67730W        W40155  24.572  35.974  14.981
67731W        W40156  34.782  12.571  11.640
67732W        W40157   4.057  15.788  13.482
67733W        W40158   1.303   4.691   3.628
67734W        W40159  32.943  11.095  14.795
67735W        W40160  12.257  31.987  13.503
67736W        W40161  33.099  32.848  11.094
67737W        W40162  37.972  26.144  12.467
67738W        W40163   4.966  15.817   3.158
67739W        W40164  36.184  22.178  14.255
67740W        W40165  40.418  34.502  14.895
67741W        W40166  28.135  24.786  13.895
67742W        W40167  29.287   9.446  12.420
67743W        W40168   9.055  39.935   3.710
67744W        W40169  39.069   0.700  11.497
67745W        W40170  26.591  11.501  12.134
67746W        W40171  10.487  22.590  10.535
67747W        W40172  23.118  28.586   4.230
67748W        W40173  17.587  34.516   1.386
67749W        W40174  28.400  38.254   0.307
67750W        W40175  37.884  22.650   5.576
67751W        W40176  25.481   3.869   2.165
67752W        W40177  16.043  31.909  12.049
67753W        W40178  41.490  13.136  12.912
67754W        W40179  19.073  43.286  12.185
67755W        W40180  15.232  44.313  11.008
67756W        W40181  13.658  17.127  12.613
67757W        W40182  42.195  35.587  12.163
67758W        W40183  41.064  32.055   4.304
67759W        W40184  29.557  31.822   2.332
67760W        W40185  23.463  11.110   3.549
67761W        W40186   2.175  42.287   0.232
67762W        W40187  15.353  10.291   1.209
67763W        W40188   0.218  16.614  12.621
67764W        W40189  16.231  38.124   4.200
67765W        W40190  41.913  21.427   2.601
67766W        W40191  39.933   2.661   2.824
67767W        W40192  19.517  17.262   0.842
67768W        W40193  29.789  31.367  10.064
67769W        W40194  16.889  44.980   2.799
67770W        W40195  42.904   3.209   1.400
67771W        W40196  29.679  39.909   3.857
67772W        W40197  35.549  17.768  10.383
67773W        W40198   0.282  36.280   1.514
67774W        W40199  42.874  14.220  10.606
67775W        W40200  27.979  23.235   4.817
67776W        W40201   4.835  12.703  10.020
67777W        W40202  19.986  10.951   3.397
67778W        W40203   2.136  24.256   1.314
67779W        W40204  18.157  43.765  10.603
67780W        W40205   3.560  11.886   2.755
67781W        W40206  23.582  27.528  11.329
67782W        W40207   0.322  14.907  11.043
67783W        W40208  32.555   7.195  10.970
67784W        W40209  12.025  20.529   2.047
67785W        W40210  20.389  38.506  12.884
67786W        W40211  13.793  44.465   0.451
67787W        W40212  18.570  40.342   1.367
67788W        W40213  20.285   9.299   4.336
67789W        W40214   8.667   8.867  12.459
67790W        W40215   4.790   0.346  14.708
67791W        W40216  21.186  16.974   0.092
67792W        W40217  19.046  25.830  13.340
67793W        W40218  31.109  30.649  13.427
67794W        W40219  11.776   6.368   3.552
67795W        W40220  41.413  24.073   5.143
67796W        W40221  32.137   5.327   1.327
67797W        W40222   2.996  41.886   3.187
67798W        W40223  11.926  23.220   1.779
67799W        W40224  37.894   1.455   1.769
67800W        W40225  26.128  39.236   1.789
67801W        W40226  19.000  39.399   4.718
67802W        W40227  16.678  14.398   3.651
67803W        W40228  13.266  30.025  13.451
67804W        W40229  26.581  18.855   0.987
67805W        W40230  32.675  23.607   0.263
67806W        W40231  35.974  19.468  14.112
67807W        W40232  25.643   9.789  12.392
67808W        W40233  43.918   3.739   1.695
67809W        W40234  15.505  38.957   2.786
67810W        W40235   4.513  18.150  10.132
67811W        W40236  20.240  16.162   2.921
67812W        W40237  44.815  18.727   0.724
67813W        W40238  37.614  44.453   0.476
67814W        W40239  10.679  26.235  12.090
67815W        W40240  39.335  11.861  13.391
67816W        W40241   2.231  16.019   2.871
67817W        W40242  18.481  26.071   2.789
67818W        W40243  32.533  35.323  12.011
67819W        W40244  44.172  13.183   4.195
67820W        W40245  41.693  39.383  13.523
67821W        W40246  17.190  26.754   3.772
67822W        W40247  34.009  42.228   3.650
67823W        W40248  27.241  16.200  13.869
67824W        W40249  16.617  38.828   1.175
67825W        W40250  19.767  12.570   1.962
67826W        W40251  17.489  35.790  11.182
67827W        W40252  17.270  44.980   1.437
67828W        W40253  16.045   7.494  14.990
67829W        W40254   7.563  43.073  12.431
67830W        W40255  36.978  22.722  13.283
67831W        W40256   2.253  25.133  13.538
67832W        W40257  12.230  30.411   2.530
67833W        W40258  39.197  35.880   3.745
67834W        W40259   1.034   0.739  11.601
67835W        W40260  17.732  43.872   3.281
67836W        W40261  25.051  20.005   3.342
67837W        W40262  30.171  33.858  12.455
67838W        W40263  25.153  27.414  12.068
67839W        W40264  32.798  16.035   2.386
67840W        W40265  10.230   7.813   4.132
67841W        W40266  32.115  32.324  13.795
67842W        W40267  38.846  10.411   1.908
67843W        W40268  12.896  18.993   3.832
67844W        W40269  19.588  15.154  11.037
67845W        W40270   9.472  42.994  12.396
67846W        W40271  37.300  21.608  13.154
67847W        W40272  17.187   4.063  12.550
67848W        W40273  31.885   1.933  13.364
67849W        W40274  44.877  44.507   0.096
67850W        W40275   1.030  37.840  14.101
67851W        W40276  25.200   7.397  11.504
67852W        W40277  36.584  29.414  13.918
67853W        W40278  12.754  32.072   4.115
67854W        W40279  39.150  18.503  10.375
67855W        W40280  40.565  27.937  10.653
67856W        W40281   7.041  30.055  13.153
67857W        W40282  42.919  13.798  13.086
67858W        W40283  38.438   6.464  13.718
67859W        W40284  27.121  39.221  10.382
67860W        W40285  10.866  10.811   4.602
67861W        W40286  42.860  18.786  10.644
67862W        W40287  38.909  10.164  12.914
67863W        W40288  24.746  26.461   0.430
67864W        W40289  43.088  17.053  11.927
67865W        W40290  30.422   3.700  14.069
67866W        W40291  41.197   6.292  13.541
67867W        W40292   0.391  11.328   2.520
67868W        W40293  30.669  29.859  12.532
67869W        W40294  36.415  36.406   0.945
67870W        W40295  21.125   6.301  14.591
67871W        W40296  33.969  38.344   4.026
67872W        W40297   2.793  17.770   0.250
67873W        W40298  36.563  12.618   3.842
67874W        W40299  38.665  17.173   0.702
67875W        W40300  14.827  19.238   2.928
67876W        W40301  40.273  19.048   0.325
67877W        W40302  42.717  43.777   3.182
67878W        W40303  29.654  12.093   0.855
67879W        W40304  42.942  27.499  14.997
67880W        W40305  44.111  15.675  11.500
67881W        W40306  28.595  31.355   2.351
67882W        W40307   0.201   2.982   2.513
67883W        W40308   7.581  23.527   4.152
67884W        W40309  43.159  22.173  12.143
67885W        W40310  14.880  37.124  14.793
67886W        W40311  21.619  25.464   0.487
67887W        W40312   4.714  26.927   0.320
67888W        W40313  25.178   8.740   3.523
67889W        W40314  16.851  19.474  12.410
67890W        W40315  10.918  21.531  13.530
67891W        W40316  30.590  22.703  11.051
67892W        W40317  16.331  12.607  11.468
67893W        W40318  32.085  25.950  14.313
67894W        W40319  24.491  16.367   2.259
67895W        W40320  18.863  26.887  13.973
67896W        W40321  20.975  16.699  11.944
67897W        W40322  16.106  32.058   1.837
67898W        W40323   0.444  30.016   3.287
67899W        W40324  17.124  36.904  13.053
67900W        W40325  24.098   0.921  11.508
67901W        W40326   7.504  31.404  14.120
67902W        W40327  14.199  32.634  11.684
67903W        W40328  31.803  42.957   3.673
67904W        W40329   6.172  19.577  13.209
67905W        W40330  42.841  16.685   1.653
67906W        W40331  16.169   8.156  13.431
67907W        W40332  41.944  31.342  14.885
67908W        W40333  14.745   7.225   2.686
67909W        W40334  35.626  34.029   4.139
67910W        W40335  31.208  39.891  12.633
67911W        W40336  19.845  18.701  12.995
67912W        W40337   0.430  37.723  11.076
67913W        W40338  12.446  21.038  12.520
67914W        W40339  13.281  19.743   0.182
67915W        W40340   3.229  23.074   1.306
67916W        W40341  37.294   4.701   0.331
67917W        W40342  10.342  25.668  11.669
67918W        W40343  26.535  17.627  10.901
67919W        W40344  19.604   3.018  11.155
67920W        W40345  29.020  37.853   1.158
67921W        W40346  11.563  29.643   0.444
67922W        W40347  13.112  33.082   4.641
67923W        W40348  28.181  16.876  14.824
67924W        W40349  28.126  37.429   0.760
67925W        W40350  40.117  19.725   2.108
67926W        W40351  33.367  39.982  14.261
67927W        W40352  44.754  27.981  10.964
67928W        W40353  29.876  18.278   1.389
67929W        W40354  11.278  22.077  13.347
67930W        W40355  25.238  43.798   0.504
67931W        W40356  42.884  36.603   1.258
67932W        W40357  44.928  22.684   4.658
67933W        W40358  12.227   4.125  12.551
67934W        W40359  12.666  16.035  10.674
67935W        W40360  27.606  24.311  11.536
67936W        W40361  15.707   8.423  13.567
67937W        W40362  40.350   4.892  14.524
67938W        W40363   7.213  30.900   4.046
67939W        W40364  37.248  42.361  13.772
67940W        W40365  37.940   8.911  11.047
67941W        W40366  39.846  40.921   0.785
67942W        W40367   2.539  11.735  12.315
67943W        W40368  14.185   2.818   2.842
67944W        W40369  42.281  29.424   0.794
67945W        W40370  44.011  41.295   2.194
67946W        W40371  38.767   3.367   0.356
67947W        W40372  18.760  28.922  11.611
67948W        W40373  31.694  23.751   0.467
67949W        W40374   5.789  10.833  11.105
67950W        W40375  11.863  43.278   4.124
67951W        W40376  12.232   9.740  10.745
67952W        W40377  14.950  20.882  11.079
67953W        W40378  27.274  43.074  14.068
67954W        W40379  17.681  11.251   3.725
67955W        W40380  31.524  40.019  14.596
67956W        W40381  23.645  41.384  13.806
67957W        W40382  19.240  22.653  13.856
67958W        W40383   8.092   9.614  11.119
67959W        W40384   6.380  25.898  11.989
67960W        W40385  27.646  41.819   1.274
67961W        W40386  10.691   7.463  13.057
67962W        W40387  43.864  14.572  14.889
67963W        W40388  11.401  33.874  14.273
67964W        W40389  10.399  39.993  11.704
67965W        W40390  18.155  18.530   4.207
67966W        W40391  28.232  21.501   0.307
67967W        W40392   9.364  37.581  13.030
67968W        W40393  25.469  44.993  13.814
67969W        W40394  13.245  27.179   2.701
67970W        W40395   1.811  35.568  14.799
67971W        W40396  33.753  13.298   0.432
67972W        W40397  37.939  19.300  14.521
67973W        W40398   5.349  42.202  14.897
67974W        W40399  30.683  10.407   0.426
67975W        W40400  43.781  37.052   0.313
67976W        W40401  42.991   6.721   3.143
67977W        W40402  25.025  12.399  13.521
67978W        W40403  36.767  29.631   1.702
67979W        W40404  24.633  44.531  14.889
67980W        W40405  15.809  34.450  10.362
67981W        W40406  14.617  24.088   5.134
67982W        W40407  43.448   1.882  11.119
67983W        W40408  18.710  40.600  13.549
67984W        W40409  20.348  16.602   3.242
67985W        W40410  40.964   2.243   0.315
67986W        W40411  38.494  35.248  10.748
67987W        W40412  19.213  26.666  11.502
67988W        W40413  24.867   9.298  10.204
67989W        W40414   5.789   7.018  12.855
67990W        W40415  17.022   7.832   0.904
67991W        W40416  28.276  41.953   0.245
67992W        W40417   4.813  10.614  13.729
67993W        W40418  16.654  37.711  12.962
67994W        W40419  13.180  23.934   2.812
67995W        W40420  12.688  35.376  12.974
67996W        W40421  34.025  31.902   4.505
67997W        W40422  34.462  15.360   1.916
67998W        W40423  40.747  42.086  11.223
67999W        W40424  25.648  17.843  11.413
68000W        W40425  37.465   2.750   4.110
68001W        W40426  36.165  42.025   0.856
68002W        W40427   7.768  25.410   2.356
68003W        W40428  25.139  43.546   4.928
68004W        W40429  32.090  44.128  12.369
68005W        W40430   5.869  31.548   3.326
68006W        W40431  37.979  21.649   3.103
68007W        W40432  27.564  12.188   1.190
68008W        W40433  19.527  14.196   4.148
68009W        W40434   3.764  39.145   3.134
68010W        W40435  19.133  19.085   0.012
68011W        W40436  11.140  21.543  14.449
68012W        W40437  36.256  24.999  14.421
68013W        W40438   8.102  32.471   0.424
68014W        W40439  28.174  21.005   1.447
68015W        W40440   5.442  23.674  12.806
68016W        W40441  22.326  39.848   2.892
68017W        W40442  38.572  19.314   2.148
68018W        W40443  10.471  38.975  14.787
68019W        W40444   3.880  10.851   3.037
68020W        W40445  17.762  43.441  12.035
68021W        W40446  38.463  26.141  13.623
68022W        W40447  33.008  14.651  11.197
68023W        W40448   7.684  43.306   2.773
68024W        W40449  26.237  25.449  10.681
68025W        W40450  17.220   0.256  10.157
68026W        W40451   3.458  37.927  12.232
68027W        W40452   9.334  25.031   2.840
68028W        W40453  36.514  41.563   1.387
68029W        W40454   4.650  24.155  13.261
68030W        W40455   7.024   1.275   4.340
68031W        W40456  21.171  18.260  14.850
68032W        W40457  19.269  19.755   1.764
68033W        W40458  25.924  36.042   0.360
68034W        W40459   2.533  34.660  12.930
68035W        W40460  22.754  44.996  10.255
68036W        W40461  42.498  28.462  10.683
68037W        W40462  23.803  16.865  14.769
68038W        W40463  18.563   3.972   1.441
68039W        W40464   8.727  38.082   1.489
68040W        W40465  20.771   6.345  12.504
68041W        W40466  10.627  13.696   3.077
68042W        W40467   2.379  23.049   4.821
68043W        W40468  38.477  14.932  14.228
68044W        W40469  44.371  27.695  10.245
68045W        W40470  35.276  33.340  11.185
68046W        W40471  40.125  30.332   1.873
68047W        W40472  39.292  28.991  11.959
68048W        W40473   1.932  42.533   1.034
68049W        W40474   5.704  15.285   1.761
68050W        W40475   3.991   0.649   2.321
68051W        W40476  29.470  28.479  11.951
68052W        W40477  14.574   0.755  10.406
68053W        W40478  26.875  38.973   1.036
68054W        W40479  43.042  16.096  11.023
68055W        W40480  34.801  15.610   1.202
68056W        W40481   6.881  32.338  13.578
68057W        W40482  25.967  34.328  10.842
68058W        W40483  31.314  40.738   2.094
68059W        W40484  32.696   2.368   3.223
68060W        W40485  39.247   9.462  13.900
68061W        W40486  21.942   7.171   0.902
68062W        W40487  21.230  11.812   2.741
68063W        W40488  32.524  26.989   0.666
68064W        W40489  42.072  28.961  14.949
68065W        W40490  27.050  17.929  13.463
68066W        W40491  39.605  32.638   0.203
68067W        W40492  31.161  42.098  12.987
68068W        W40493   3.719  20.509  11.174
68069W        W40494   9.314   5.665   1.944
68070W        W40495  43.289  36.919  14.170
68071W        W40496  42.504  27.892   1.127
68072W        W40497   5.202   9.028   3.678
68073W        W40498  42.335  14.596  12.047
68074W        W40499   2.237   0.682   3.201
68075W        W40500  41.234  20.042   1.454
68076W        W40501  31.084  22.432   2.154
68077W        W40502   6.957  25.711  11.192
68078W        W40503  28.825  23.063   4.969
68079W        W40504  35.621   1.350  14.885
68080W        W40505   7.181  42.084   4.163
68081W        W40506  36.537   7.892   2.856
68082W        W40507  44.811  41.256   3.628
68083W        W40508  18.635  27.049   2.817
68084W        W40509  34.875  14.785   4.016
68085W        W40510   9.480  33.461   2.757
68086W        W40511  35.119  20.620   1.926
68087W        W40512  39.844   0.702  11.135
68088W        W40513  35.498  21.260  11.983
68089W        W40514  13.811  10.362  11.457
68090W        W40515  13.138   3.866   3.881
68091W        W40516  35.751  15.996  14.986
68092W        W40517  40.585  31.778   0.865
68093W        W40518  18.008   3.950   0.013
68094W        W40519  17.199   6.151   0.845
68095W        W40520  19.320  39.562  12.396
68096W        W40521   8.217  33.208  13.615
68097W        W40522  16.782  17.943  14.399
68098W        W40523   1.847  30.016  13.140
68099W        W40524  20.806  13.591   1.671
68100W        W40525  30.576  22.047   3.253
68101W        W40526  27.880   3.141   4.973
68102W        W40527  16.718  36.027  13.362
68103W        W40528  24.479   9.252  11.531
68104W        W40529   9.227  44.501  10.596
68105W        W40530  34.094  19.138  12.954
68106W        W40531  23.560  26.757   3.744
68107W        W40532  13.050  19.821   4.139
68108W        W40533   8.280  21.539  10.906
68109W        W40534  18.565   3.965   3.148
68110W        W40535  20.475  26.574  10.231
68111W        W40536   7.641  10.586  13.345
68112W        W40537  17.710  41.939  14.888
68113W        W40538  35.377  20.933   1.433
68114W        W40539  35.676  23.020   9.790
68115W        W40540  31.597  28.939   4.726
68116W        W40541  41.818  40.989  11.877
68117W        W40542  17.266   3.165  12.000
68118W        W40543   7.246  31.639   4.618
68119W        W40544  32.668  43.858   0.794
68120W        W40545  37.415  21.025   0.073
68121W        W40546  30.270   9.261  13.496
68122W        W40547   0.981  25.197  14.776
68123W        W40548  35.143  11.668  10.628
68124W        W40549   0.445  42.069   1.278
68125W        W40550   4.417   4.525  10.561
68126W        W40551  40.578   6.978   3.542
68127W        W40552  28.640  27.051   3.248
68128W        W40553  44.488   4.162   0.486
68129W        W40554  16.521   0.259   2.359
68130W        W40555  16.357  16.074   3.226
68131W        W40556  21.822  23.630   0.639
68132W        W40557  18.233  28.959   2.333
68133W        W40558  43.591   3.409  11.022
68134W        W40559  11.851  32.451  14.933
68135W        W40560  10.567  38.290  13.067
68136W        W40561  30.117  23.315  13.964
68137W        W40562  35.024   3.697   2.684
68138W        W40563  13.372  41.912   0.272
68139W        W40564  29.988  29.872  12.954
68140W        W40565  12.099   8.764  11.093
68141W        W40566  27.140  27.449   3.883
68142W        W40567   1.370   7.714  13.459
68143W        W40568  30.518   3.190  10.526
68144W        W40569  28.052  18.268  10.539
68145W        W40570  15.609  29.502   0.924
68146W        W40571  32.470  35.748  12.862
68147W        W40572  16.899  43.192   2.329
68148W        W40573  34.294  15.420   2.410
68149W        W40574  26.420  23.468   0.967
68150W        W40575  27.308  32.186   0.911
68151W        W40576  12.311  17.749   2.823
68152W        W40577   8.470  38.435   4.664
68153W        W40578  40.591  26.856   1.935
68154W        W40579  24.233   4.800  12.184
68155W        W40580  15.484   5.593   0.001
68156W        W40581  38.134   8.845   2.820
68157W        W40582  21.193  24.383  14.911
68158W        W40583  23.476  28.516  12.671
68159W        W40584  36.476  28.435   4.517
68160W        W40585  10.289  32.101   4.709
68161W        W40586   5.735  10.124   2.692
68162W        W40587  12.686   8.612   0.689
68163W        W40588  22.817  27.946   0.751
68164W        W40589  18.723  14.818  11.421
68165W        W40590  34.077  20.643  10.459
68166W        W40591  28.915  41.458  11.869
68167W        W40592  21.650   3.465  13.429
68168W        W40593  17.080  29.183   1.400
68169W        W40594  10.238   2.211   1.448
68170W        W40595  37.122  41.766   2.598
68171W        W40596   3.376  44.359  12.434
68172W        W40597  37.097  28.511   2.682
68173W        W40598  33.087  17.139   2.302
68174W        W40599   7.923  31.953   0.373
68175W        W40600  23.835  40.801  11.204
68176W        W40601  11.206  25.011  11.907
68177W        W40602   5.066  30.865  13.307
68178W        W40603  32.166  17.824  10.749
68179W        W40604  41.978  16.523  12.396
68180W        W40605  35.350   7.837   3.178
68181W        W40606  35.350   1.901   4.168
68182W        W40607  33.929   4.176  14.802
68183W        W40608  34.361  30.045  12.990
68184W        W40609  10.763  26.722  12.992
68185W        W40610  13.193   0.124   3.645
68186W        W40611   1.602  21.717   2.357
68187W        W40612  18.735  23.978   3.038
68188W        W40613  28.132   7.996  11.527
68189W        W40614  15.448  40.997   4.365
68190W        W40615  16.569   3.396  13.106
68191W        W40616  16.310   5.861  11.829
68192W        W40617  26.159  26.974   4.058
68193W        W40618   8.486  14.597   1.540
68194W        W40619  20.791  22.149  10.586
68195W        W40620   2.092   0.954  10.625
68196W        W40621  14.230  12.194   4.242
68197W        W40622  11.723  30.614   0.836
68198W        W40623   9.648  12.889  10.733
68199W        W40624  28.051  18.820  14.722
68200W        W40625  18.834  30.169   1.976
68201W        W40626   1.451  41.752   0.123
68202W        W40627  42.442   6.427   0.001
68203W        W40628  29.750   6.153  12.613
68204W        W40629  38.420  42.866  11.502
68205W        W40630   7.440   1.763   3.600
68206W        W40631  19.517  14.172   3.312
68207W        W40632   4.983  34.399   3.841
68208W        W40633  18.558  14.386   4.159
68209W        W40634  25.684  39.432   3.748
68210W        W40635  16.289  15.995   3.736
68211W        W40636   0.761  10.149   0.299
68212W        W40637  40.712  16.141  14.889
68213W        W40638   4.188  31.026  13.388
68214W        W40639  12.153  23.759   1.886
68215W        W40640   4.487   1.093  14.928
68216W        W40641  44.562   8.422  10.518
68217W        W40642  36.459  13.678  13.045
68218W        W40643  32.401  41.464  12.085
68219W        W40644  18.729  42.148  11.104
68220W        W40645  42.682   4.426   2.838
68221W        W40646  19.412  17.871  14.316
68222W        W40647   0.342   3.722  12.895
68223W        W40648   1.398  21.985  14.011
68224W        W40649   2.928  17.887  14.363
68225W        W40650  37.900  42.548  11.094
68226W        W40651   6.823  37.985  14.809
68227W        W40652   8.970   9.900  14.364
68228W        W40653  15.800  11.641   1.304
68229W        W40654  30.930  44.399   9.735
68230W        W40655  12.777   0.034  13.840
68231W        W40656  39.838   3.333  14.265
68232W        W40657  44.954  10.052  11.020
68233W        W40658  13.339  41.044  11.665
68234W        W40659  13.208  40.544  11.671
68235W        W40660   9.198  40.198   0.424
68236W        W40661  29.638  43.341   4.278
68237W        W40662  36.448  32.042  14.804
68238W        W40663   5.942  27.105  13.496
68239W        W40664   3.005   7.725  14.994
68240W        W40665   4.138  27.319  11.169
68241W        W40666  40.556  11.684   1.355
68242W        W40667   8.637  38.890  12.214
68243W        W40668  24.149  14.620  14.576
68244W        W40669   7.218  18.637   2.629
68245W        W40670  18.514  30.007  13.575
68246W        W40671  15.717  17.248   3.663
68247W        W40672  41.758   1.772   3.709
68248W        W40673  41.935  22.694  14.511
68249W        W40674  36.010  44.790  13.417
68250W        W40675  15.771   8.777   2.689
68251W        W40676  42.462  30.167  14.452
68252W        W40677  11.577  24.480   2.904
68253W        W40678  36.630  35.056   1.385
68254W        W40679   3.538  30.380  12.663
68255W        W40680  29.705  29.072   3.277
68256W        W40681  44.397   9.772  13.556
68257W        W40682  33.617  27.225  14.177
68258W        W40683   3.459   4.862  10.687
68259W        W40684  13.337  12.792   0.959
68260W        W40685  27.373  40.282   2.749
68261W        W40686  14.174  22.235   9.734
68262W        W40687  21.189  39.752  13.465
68263W        W40688  39.572  18.258   3.619
68264W        W40689   2.291   0.262  11.880
68265W        W40690   9.940  33.552  11.763
68266W        W40691  23.344  38.553  13.949
68267W        W40692  36.272  30.693   3.736
68268W        W40693  26.789  14.888  11.155
68269W        W40694  44.761  39.876   0.450
68270W        W40695  41.561  26.602   2.295
68271W        W40696   8.194  16.565   3.296
68272W        W40697  11.938  37.859  14.199
68273W        W40698   6.208  14.617   2.893
68274W        W40699  15.201  14.067   3.869
68275W        W40700  38.539  21.498  12.471
68276W        W40701  19.588  19.008  14.751
68277W        W40702  32.428  21.334  11.507
68278W        W40703   5.932   0.894  10.850
68279W        W40704  19.178  44.861   4.657
68280W        W40705  34.502  43.822   4.630
68281W        W40706  15.670  19.115  10.670
68282W        W40707  12.116  17.655   4.273
68283W        W40708   3.716   4.442  14.088
68284W        W40709  37.474   5.161   0.443
68285W        W40710   1.487   5.433  14.857
68286W        W40711   3.138  18.777   5.008
68287W        W40712  34.540  16.498   4.179
68288W        W40713   0.260  27.734   3.763
68289W        W40714  23.071  28.044  10.218
68290W        W40715  15.335  33.464  14.208
68291W        W40716  11.428  22.382  11.119
68292W        W40717  36.795  28.580   0.856
68293W        W40718   3.980  19.526   3.419
68294W        W40719   6.515   7.198  12.034
68295W        W40720  30.821   4.571  13.852
68296W        W40721   8.084  22.060  11.517
68297W        W40722  12.279  11.712  11.571
68298W        W40723   7.793  28.661  14.372
68299W        W40724  17.120  16.799  11.911
68300W        W40725  18.895  26.085   4.887
68301W        W40726  34.008  14.642   1.684
68302W        W40727  38.553  24.155  14.895
68303W        W40728  23.128   2.642   2.390
68304W        W40729   2.361   9.630   1.826
68305W        W40730   4.456   2.831  14.441
68306W        W40731   5.818  44.804  13.287
68307W        W40732  19.592  20.668   1.707
68308W        W40733  35.289  40.869   0.787
68309W        W40734  17.610  14.297   2.000
68310W        W40735   1.416  12.923  10.551
68311W        W40736  35.006  11.572  14.317
68312W        W40737  21.774  10.437  10.327
68313W        W40738  43.885  33.060   2.953
68314W        W40739  44.044  35.595   0.750
68315W        W40740  25.399  37.418  13.384
68316W        W40741  32.447  22.659   3.354
68317W        W40742  13.616  34.517   0.505
68318W        W40743   1.478  39.479   1.227
68319W        W40744   5.938  20.162   0.892
68320W        W40745  21.721  34.457   1.718
68321W        W40746   3.104  20.181   1.332
68322W        W40747  28.299  20.290  12.139
68323W        W40748  36.188   4.172   0.063
68324W        W40749  31.434  13.823   0.161
68325W        W40750   9.116   2.834   0.758
68326W        W40751  19.108  18.128   3.209
68327W        W40752   5.125  31.080  12.161
68328W        W40753   5.605  17.927   4.761
68329W        W40754  39.851   7.241  14.974
68330W        W40755  26.661  16.338  10.429
68331W        W40756   2.843  12.824   3.315
68332W        W40757  21.751  41.003   3.173
68333W        W40758   4.590  39.842  14.499
68334W        W40759   7.961  26.669  11.851
68335W        W40760   1.713  11.155  10.626
68336W        W40761  19.366  11.899  11.932
68337W        W40762  34.176   1.159  11.908
68338W        W40763  21.276   9.197  14.132
68339W        W40764  41.550  32.435   0.807
68340W        W40765  20.239  40.526  12.161
68341W        W40766   0.141  33.591   1.742
68342W        W40767  41.524  16.289  13.603
68343W        W40768  20.293   3.368  14.778
68344W        W40769  35.778  25.436   4.955
68345W        W40770  32.627  32.957  12.217
68346W        W40771  34.023   4.978   0.430
68347W        W40772  40.142  28.012   1.325
68348W        W40773   0.805  10.057  11.424
68349W        W40774  15.040  16.453   0.835
68350W        W40775  17.580   7.239  13.688
68351W        W40776  20.593   5.707  11.456
68352W        W40777  14.757  10.146   1.052
68353W        W40778  35.500  10.622  11.100
68354W        W40779  36.149  12.180   4.066
68355W        W40780  11.359  36.388  12.701
68356W        W40781   9.121  19.145  14.511
68357W        W40782   2.690  10.832   2.712
68358W        W40783  10.272  31.401  14.020
68359W        W40784  10.013  13.834  12.494
68360W        W40785   5.711   9.017   1.448
68361W        W40786   9.809  17.143  13.913
68362W        W40787  40.252   9.833  10.803
68363W        W40788  16.678  38.441  11.058
68364W        W40789  35.505  28.128   2.102
68365W        W40790  35.147   5.729   0.043
68366W        W40791  10.267  11.435   2.705
68367W        W40792  43.283  21.796  10.921
68368W        W40793  16.715  28.973  12.007
68369W        W40794  15.600  44.447   1.709
68370W        W40795  29.030  15.582  12.096
68371W        W40796  20.906  33.147  11.692
68372W        W40797  11.456   9.096   4.871
68373W        W40798   2.251  18.987  14.761
68374W        W40799  25.500  26.593   3.626
68375W        W40800  35.467  27.784  12.873
68376W        W40801  29.098  40.903   0.228
68377W        W40802  43.881  15.498   0.825
68378W        W40803  41.184  18.499  14.010
68379W        W40804  39.592  19.663   0.783
68380W        W40805  17.629  37.440   1.636
68381W        W40806  43.544  42.257  13.692
68382W        W40807   4.310  31.169  10.637
68383W        W40808  29.098  36.842  12.467
68384W        W40809  38.161   7.184   3.223
68385W        W40810   7.396   5.964  12.059
68386W        W40811  14.141   3.424   0.906
68387W        W40812  34.487  41.016   3.210
68388W        W40813  42.915  21.558   3.233
68389W        W40814   4.957  32.086   2.650
68390W        W40815  12.127   1.474   4.777
68391W        W40816  10.148   9.272  12.895
68392W        W40817   2.153  14.428  12.865
68393W        W40818   3.982  19.097   0.903
68394W        W40819  42.396  44.173   3.347
68395W        W40820   5.867  35.094   0.435
68396W        W40821  31.164  34.281  10.848
68397W        W40822  24.497  42.839  10.998
68398W        W40823  32.598  21.064   4.590
68399W        W40824   6.415   1.262  14.364
68400W        W40825  12.635  19.100   1.760
68401W        W40826  37.651  37.052   3.198
68402W        W40827  17.284   1.516   1.823
68403W        W40828  43.995  19.540   0.791
68404W        W40829  31.339  43.294   2.297
68405W        W40830  32.463  22.486   1.224
68406W        W40831  13.057  11.115   3.709
68407W        W40832  23.537  22.416   3.081
68408W        W40833  39.742  36.982   0.947
68409W        W40834   3.330  42.988   4.165
68410W        W40835  41.025   8.666  12.887
68411W        W40836  17.504  38.432   3.713
68412W        W40837  31.027  24.385  14.128
68413W        W40838   8.323  15.441   1.261
68414W        W40839  40.480   2.692  13.913
68415W        W40840  24.938  43.449  14.401
68416W        W40841  30.091  33.444   1.413
68417W        W40842   1.573  12.804   0.054
68418W        W40843  18.934   1.528  10.013
68419W        W40844  14.814  36.400   0.442
68420W        W40845  36.352   3.972   3.277
68421W        W40846   3.247  26.047   4.175
68422W        W40847   8.325   9.399   1.186
68423W        W40848  17.896  29.211  12.953
68424W        W40849  16.883  32.396   5.124
68425W        W40850   3.937  17.547   1.814
68426W        W40851  10.601  29.402   0.123
68427W        W40852  14.828  13.061   4.194
68428W        W40853  29.153  10.598   1.615
68429W        W40854  10.227  36.441   4.553
68430W        W40855  23.592  27.615  12.354
68431W        W40856  44.944  37.636   1.267
68432W        W40857  37.520  10.330  10.875
68433W        W40858  26.181  12.244   2.393
68434W        W40859  12.073  42.348   2.689
68435W        W40860  38.310  11.744  11.869
68436W        W40861   1.093   3.814   3.121
68437W        W40862  25.634  18.535   1.974
68438W        W40863  23.775  44.814   0.746
68439W        W40864  14.886   6.864   2.308
68440W        W40865  15.941  15.152  11.566
68441W        W40866   5.400  36.809  14.335
68442W        W40867  16.014   1.738  10.701
68443W        W40868  26.137  10.614   0.929
68444W        W40869   6.302  25.545  13.341
68445W        W40870  43.884  19.479  11.557
68446W        W40871  25.771  30.407  11.294
68447W        W40872  28.093  17.251   4.633
68448W        W40873  37.614   4.929  12.561
68449W        W40874  32.623  12.597   3.385
68450W        W40875  14.334  42.925  11.895
68451W        W40876  43.299   4.479   0.827
68452W        W40877  11.389  36.979   0.287
68453W        W40878  30.722  33.737   2.135
68454W        W40879   2.285   5.850   4.629
68455W        W40880  14.215  16.198   3.708
68456W        W40881  40.271  43.976   0.246
68457W        W40882   6.952  40.379   4.102
68458W        W40883  15.203   0.489  14.272
68459W        W40884  17.227  11.751  12.886
68460W        W40885  28.139  43.358   4.744
68461W        W40886  36.579  12.386   0.720
68462W        W40887  39.740   3.990   1.698
68463W        W40888  31.892  41.087   3.689
68464W        W40889  33.128  26.434   4.532
68465W        W40890  35.390  27.646  12.012
68466W        W40891  26.690   8.844   4.590
68467W        W40892  29.038   0.769  14.247
68468W        W40893   9.704  35.397   4.098
68469W        W40894  16.278  29.053   3.290
68470W        W40895  18.751  13.580  13.470
68471W        W40896  36.430  40.057   4.136
68472W        W40897  30.152   4.155   4.989
68473W        W40898  16.479  18.711   2.802
68474W        W40899  33.856  14.715  10.640
68475W        W40900  23.245  11.898  11.554
68476W        W40901  42.540  10.768   4.458
68477W        W40902  17.045  22.678  13.290
68478W        W40903  13.746   5.042  12.080
68479W        W40904  36.342  37.397  11.609
68480W        W40905   9.736  22.112  14.507
68481W        W40906  12.281  24.730   2.421
68482W        W40907  13.657  10.554   2.343
68483W        W40908  31.046   7.215  11.694
68484W        W40909  23.603  21.630   0.527
68485W        W40910  33.778  19.073  11.548
68486W        W40911  17.541  15.941   3.267
68487W        W40912  27.484  31.116  13.570
68488W        W40913  21.082  26.666  14.390
68489W        W40914  20.076  41.561  10.263
68490W        W40915  27.066  21.159   0.976
68491W        W40916  19.717   6.218  13.100
68492W        W40917   1.458   0.900  14.721
68493W        W40918  29.642  16.776  14.935
68494W        W40919  25.412  27.179  14.395
68495W        W40920   9.669  38.265   5.139
68496W        W40921   5.475  43.258  13.957
68497W        W40922  37.781  43.767   4.163
68498W        W40923  19.040  13.666   4.028
68499W        W40924  29.418  40.978   1.020
68500W        W40925  41.434  10.262  10.907
68501W        W40926   2.353  22.124   4.698
68502W        W40927   1.431  32.432   1.919
68503W        W40928   8.819  12.291   1.316
68504W        W40929  20.015   7.436   1.829
68505W        W40930  26.327  10.494   1.394
68506W        W40931  18.268   9.455   2.158
68507W        W40932  40.883  35.604  14.998
68508W        W40933  10.831  33.976   0.437
68509W        W40934  35.420  12.372   4.592
68510W        W40935  31.614   7.864   1.030
68511W        W40936   4.527  18.103  14.922
68512W        W40937   4.095  26.737  14.487
68513W        W40938  35.270  44.481   2.420
68514W        W40939   8.372  39.529   0.599
68515W        W40940  22.692  39.261  14.768
68516W        W40941  22.396  15.367   1.441
68517W        W40942  15.986  37.701  11.145
68518W        W40943  15.544   5.002  12.465
68519W        W40944  21.476   4.190  11.209
68520W        W40945   6.625  32.038  14.099
68521W        W40946  14.759  33.103  11.132
68522W        W40947  42.608  21.019  12.871
68523W        W40948   8.199  31.466  13.222
68524W        W40949  36.550  26.014  14.324
68525W        W40950   2.004  39.671  13.505
68526W        W40951  29.158   8.811  14.233
68527W        W40952   2.728  12.543   2.199
68528W        W40953  29.466  36.771   2.319
68529W        W40954   6.676  20.185   3.231
68530W        W40955  30.064  39.056   2.631
68531W        W40956  30.682  14.539  13.928
68532W        W40957  39.762  18.587   2.313
68533W        W40958  20.108  35.587  14.024
68534W        W40959  23.665  40.410   1.312
68535W        W40960  42.859   9.974   1.779
68536W        W40961  12.235  42.308  11.595
68537W        W40962  10.724  27.464   2.346
68538W        W40963  21.239  30.116  11.881
68539W        W40964  17.580  10.931  12.101
68540W        W40965  41.279  36.477  11.851
68541W        W40966  11.383  36.836  12.436
68542W        W40967  43.585  24.877   0.893
68543W        W40968   0.676  16.829  10.989
68544W        W40969   2.699  14.418  14.324
68545W        W40970  17.176  26.133  11.702
68546W        W40971  27.058  39.111  12.946
68547W        W40972  25.696  29.525  12.503
68548W        W40973  44.760  44.885   4.213
68549W        W40974  29.646   8.239   0.375
68550W        W40975  41.544  18.495  11.161
68551W        W40976  39.867  19.326   4.047
68552W        W40977   1.717  16.550  12.008
68553W        W40978   4.810  40.443   2.816
68554W        W40979  39.289  26.181  13.489
68555W        W40980  25.991  10.593   3.281
68556W        W40981  30.087   5.886   4.598
68557W        W40982  35.330  25.240   4.570
68558W        W40983  42.740  38.796   0.016
68559W        W40984   1.239  32.952  14.751
68560W        W40985   2.974  43.240  14.960
68561W        W40986  35.790  32.796   2.367
68562W        W40987  30.181  30.384   5.177
68563W        W40988  37.000  12.688   2.022
68564W        W40989   5.373  30.493   4.609
68565W        W40990  21.032   9.594  11.098
68566W        W40991  33.477  20.324  11.012
68567W        W40992  18.023  17.309  13.404
68568W        W40993  44.333  15.247  13.314
68569W        W40994   0.482  12.149   1.789
68570W        W40995  42.035  25.178  10.046
68571W        W40996  35.122  31.429  14.681
68572W        W40997  20.292  29.432  13.459
68573W        W40998  22.428  20.681   3.593
68574W        W40999  24.669  44.972   4.111
68575W        W41000  38.508  44.520   5.094
68576W        W41001  38.482  38.122   4.925
68577W        W41002   3.718  41.363  14.290
68578W        W41003  21.340  19.818  13.563
68579W        W41004  42.401  10.175   2.794
68580W        W41005  18.018   8.879  13.392
68581W        W41006  22.343  23.742  12.583
68582W        W41007  23.981  23.168   3.163
68583W        W41008   6.262  21.833  13.913
68584W        W41009  19.840  31.500  10.259
68585W        W41010  36.805  40.405  13.010
68586W        W41011   1.514  34.957  12.419
68587W        W41012  16.074  19.768  10.623
68588W        W41013  44.420  23.929   2.240
68589W        W41014   6.885   8.725  13.150
68590W        W41015  27.274  39.947   0.779
68591W        W41016  10.631  25.747   4.220
68592W        W41017  20.023  32.081   2.945
68593W        W41018  20.523   6.193   2.406
68594W        W41019  36.363   3.959  11.941
68595W        W41020   1.337  35.608   0.801
68596W        W41021  28.569   8.861  12.579
68597W        W41022   0.900  15.601   4.818
68598W        W41023   5.722   9.821   3.122
68599W        W41024  37.862  14.360  10.979
68600W        W41025   1.651   1.218  10.605
68601W        W41026  39.120  30.211   2.980
68602W        W41027  33.678  42.134   4.165
68603W        W41028   9.389  35.566  11.661
68604W        W41029   9.558   9.242   0.800
68605W        W41030  38.368  22.958   2.887
68606W        W41031  12.626  31.872  14.511
68607W        W41032   5.856  32.569   2.735
68608W        W41033  33.359   1.886  13.362
68609W        W41034   3.179  23.929  13.251
68610W        W41035  30.475  29.055  12.629
68611W        W41036  13.774  20.851   1.794
68612W        W41037  43.986  36.144  12.008
68613W        W41038  15.369  28.085  11.494
68614W        W41039   0.384   2.488   3.694
68615W        W41040  17.476   6.307  13.794
68616W        W41041  32.486  25.767   4.676
68617W        W41042  11.396   0.346  11.601
68618W        W41043  30.030  36.578  12.898
68619W        W41044  20.698  34.110   4.442
68620W        W41045  38.607  14.813   4.672
68621W        W41046   6.172  26.850   2.165
68622W        W41047  13.822  41.031  13.857
68623W        W41048  11.477  34.478   2.315
68624W        W41049  17.015  27.511   2.402
68625W        W41050  28.480  10.087   1.674
68626W        W41051  27.553  32.860   1.494
68627W        W41052  13.013  17.996  12.508
68628W        W41053  22.257  44.329  11.145
68629W        W41054  30.997  33.381  13.502
68630W        W41055   8.551   2.298   4.827
68631W        W41056  28.742  26.139   4.611
68632W        W41057  22.653  29.139  10.904
68633W        W41058  37.659   9.286   4.350
68634W        W41059  26.827  39.993  13.331
68635W        W41060  35.750   7.012   1.206
68636W        W41061  42.312  35.115  14.901
68637W        W41062  11.720  11.189   4.117
68638W        W41063   6.129  37.810  14.066
68639W        W41064  15.388  39.445  10.641
68640W        W41065  18.775   8.154  11.639
68641W        W41066   0.706  39.878   0.782
68642W        W41067   6.646  10.711   2.168
68643W        W41068  15.396  11.311   3.259
68644W        W41069  44.718  30.391   2.173
68645W        W41070  22.227   3.922  11.489
68646W        W41071  12.724   1.804   3.204
68647W        W41072   8.197  25.491  10.717
68648W        W41073   8.264  23.097  12.928
68649W        W41074  34.619  13.751  12.645
68650W        W41075  20.068  13.680  11.373
68651W        W41076   7.230  18.253   0.356
68652W        W41077  25.136  10.077  11.078
68653W        W41078  44.547   7.356   4.080
68654W        W41079   5.249   3.493  11.231
68655W        W41080   5.059   3.900   3.260
68656W        W41081   9.882  36.226  14.708
68657W        W41082   8.340   1.358   1.009
68658W        W41083  29.710  33.961   0.928
68659W        W41084  17.673  17.531   0.758
68660W        W41085  37.262  26.446   0.365
68661W        W41086  27.135  28.385  11.598
68662W        W41087  29.133  23.037   2.868
68663W        W41088   1.403  33.881  12.014
68664W        W41089  21.372  16.965   3.302
68665W        W41090  15.695  42.630  10.595
68666W        W41091   2.186  29.685   2.327
68667W        W41092  15.109  41.089  11.177
68668W        W41093  37.440  44.078  10.553
68669W        W41094  22.683   4.668  14.335
68670W        W41095  23.205  25.688   4.749
68671W        W41096  32.972  14.519   4.074
68672W        W41097  25.535  36.838  10.714
68673W        W41098   8.287  11.664   0.756
68674W        W41099  38.806  13.397   4.679
68675W        W41100  36.060  28.079  13.384
68676W        W41101  25.173  28.034  12.959
68677W        W41102  21.148  16.223  13.706
68678W        W41103   6.587  27.723  11.590
68679W        W41104  33.885  32.546  11.918
68680W        W41105  20.274  25.277   0.892
68681W        W41106  41.426  17.703  13.490
68682W        W41107   2.389  11.278  13.835
68683W        W41108  28.174  20.652  14.935
68684W        W41109  23.710  30.998  10.568
68685W        W41110  38.030  31.471  13.332
68686W        W41111  26.440  42.989   0.317
68687W        W41112  20.637  10.314   4.968
68688W        W41113  26.626   0.874   0.807
68689W        W41114  28.568  30.093   4.092
68690W        W41115  44.364  12.886   2.400
68691W        W41116  21.615   0.518  11.539
68692W        W41117  28.925  23.100  14.958
68693W        W41118  38.427  32.530   4.883
68694W        W41119  11.196   9.330   3.899
68695W        W41120  40.794   3.702  12.835
68696W        W41121  41.356  34.465  12.489
68697W        W41122  11.102   6.237   3.438
68698W        W41123  26.754  28.491   2.153
68699W        W41124  21.977  44.842  13.965
68700W        W41125   9.821  39.326  13.524
68701W        W41126  39.339  32.839   3.390
68702W        W41127  27.755  42.637   4.160
68703W        W41128  28.708  26.204  11.358
68704W        W41129  16.094   6.344   3.133
68705W        W41130  40.898  12.255   2.188
68706W        W41131  19.747  16.216  11.592
68707W        W41132  17.589   4.949   1.201
68708W        W41133  44.530   8.279   2.222
68709W        W41134   9.247  24.494  12.515
68710W        W41135  43.024  30.574   0.216
68711W        W41136   4.881  37.540  13.822
68712W        W41137  26.666   4.522   2.829
68713W        W41138  16.125  34.818  12.484
68714W        W41139  43.004  36.790   3.735
68715W        W41140   7.274  40.412  11.808
68716W        W41141  43.700  29.899  14.833
68717W        W41142   8.185  25.445   2.798
68718W        W41143  17.681  28.449  13.939
68719W        W41144  31.898  27.767  14.788
68720W        W41145  44.959  16.199  11.173
68721W        W41146  24.240  15.861  14.664
68722W        W41147  40.913  33.541   4.347
68723W        W41148  25.263  15.720   2.268
68724W        W41149  28.221  34.953  14.483
68725W        W41150   4.241   3.233  13.985
68726W        W41151  21.722  42.294  12.398
68727W        W41152  28.277  18.710   1.809
68728W        W41153   0.344  17.185  11.197
68729W        W41154  15.519  43.010   3.932
68730W        W41155  22.404   7.985   3.559
68731W        W41156  25.240   0.134   9.711
68732W        W41157   5.401  38.022  10.385
68733W        W41158  35.489  20.518  14.975
68734W        W41159  17.760  43.999   3.785
68735W        W41160  41.481  19.745   4.171
68736W        W41161   7.252  44.619  12.901
68737W        W41162  24.167  27.835   1.125
68738W        W41163  21.334   7.179  12.656
68739W        W41164   8.146  14.066  12.453
68740W        W41165  19.645   9.927  14.326
68741W        W41166  20.622  38.679  14.507
68742W        W41167   6.366  17.345   3.676
68743W        W41168  15.491  26.923   2.181
68744W        W41169  14.327   9.673  13.280
68745W        W41170  35.339  20.568  12.430
68746W        W41171  12.365  17.127   4.250
68747W        W41172  12.350  29.663   0.253
68748W        W41173   1.183  43.838   0.938
68749W        W41174   3.843  43.568  11.422
68750W        W41175  30.729   8.278   4.935
68751W        W41176  28.168   1.203  12.996
68752W        W41177  23.582  33.073   1.323
68753W        W41178  16.249   9.065  13.050
68754W        W41179  29.969  33.954  10.628
68755W        W41180  25.137  39.664   3.629
68756W        W41181  17.510  38.412  12.983
68757W        W41182  15.946  38.719   2.160
68758W        W41183  35.294  40.314   1.874
68759W        W41184   3.887  32.032  13.308
68760W        W41185  36.183  27.173  11.839
68761W        W41186  24.213  16.780   4.209
68762W        W41187  14.598   1.388  13.468
68763W        W41188  20.664  25.393   4.831
68764W        W41189  35.079  39.910   3.935
68765W        W41190  42.616  22.535  11.519
68766W        W41191  40.301  23.125  14.039
68767W        W41192  16.396  15.397  12.610
68768W        W41193  36.554   1.537  13.410
68769W        W41194  38.512  30.629  13.995
68770W        W41195  11.907   7.478  11.717
68771W        W41196  29.014  31.821  11.970
68772W        W41197  32.893  13.027  13.891
68773W        W41198  10.108   2.806  12.473
68774W        W41199   2.230  43.848   0.737
68775W        W41200  32.391  36.400   3.122
68776W        W41201  38.329   8.283  13.638
68777W        W41202  18.085  38.932  11.440
68778W        W41203   5.180  12.244  10.285
68779W        W41204  39.844   3.193   2.905
68780W        W41205  23.865   7.012   5.298
68781W        W41206  30.459   1.310   2.842
68782W        W41207  14.513   5.279   2.761
68783W        W41208  35.716  42.250   0.716
68784W        W41209  14.640  43.496  11.078
68785W        W41210  26.574  39.446  14.918
68786W        W41211  39.821   1.765   3.786
68787W        W41212   4.206  25.947   0.553
68788W        W41213  23.713  42.299   0.461
68789W        W41214   3.943  14.144   0.631
68790W        W41215  42.327  37.920  13.886
68791W        W41216   5.288  33.632  14.406
68792W        W41217   4.898   7.304   3.269
68793W        W41218  17.475  32.574   5.216
68794W        W41219  28.042  17.982   3.043
68795W        W41220   0.424  21.222   3.704
68796W        W41221  11.807  25.196  14.663
68797W        W41222  35.356  18.238  11.599
68798W        W41223  20.395  40.897   3.662
68799W        W41224  15.384   2.121  12.235
68800W        W41225  44.886  23.635   2.864
68801W        W41226   4.319  43.373   4.358
68802W        W41227  15.294   6.264   1.281
68803W        W41228  44.861  32.594  11.943
68804W        W41229  30.981   1.924   0.731
68805W        W41230  12.162   9.411  13.518
68806W        W41231   3.677  16.608  13.539
68807W        W41232   8.913   0.446   0.226
68808W        W41233   6.671  30.805   4.667
68809W        W41234  42.604  41.880  12.240
68810W        W41235   3.166  13.801   2.062
68811W        W41236  29.513  18.365  14.992
68812W        W41237  30.055  31.050   1.918
68813W        W41238  25.408   0.923   4.579
68814W        W41239  28.577   5.198   0.265
68815W        W41240  43.611  33.591   1.893
68816W        W41241  39.366  20.112   0.728
68817W        W41242   8.109  19.586   2.278
68818W        W41243  29.354  39.076   0.797
68819W        W41244  31.232  15.696  10.102
68820W        W41245  36.346  20.176   0.775
68821W        W41246   2.196  43.827  14.625
68822W        W41247  13.133  40.090  10.757
68823W        W41248  15.715  42.534  11.505
68824W        W41249  35.390  11.690  12.418
68825W        W41250  42.942  20.518   0.851
68826W        W41251   3.518  32.042   0.699
68827W        W41252   6.836   0.531   3.395
68828W        W41253  14.749  23.940   2.425
68829W        W41254  30.661  28.122   2.276
68830W        W41255   6.692   4.748  14.477
68831W        W41256  19.987  16.542  12.395
68832W        W41257   9.371   2.969   1.190
68833W        W41258  42.380  28.631   2.897
68834W        W41259  24.254  10.788   3.703
68835W        W41260   3.421  19.103  11.107
68836W        W41261   2.383  27.209  11.395
68837W        W41262   4.287  34.024   0.186
68838W        W41263  39.800  16.024   3.250
68839W        W41264   5.382  27.656   1.309
68840W        W41265  41.496  19.147   3.343
68841W        W41266  40.154  18.108  11.810
68842W        W41267  21.156   4.924   2.718
68843W        W41268  17.982   9.202   1.240
68844W        W41269  33.464   0.007  12.863
68845W        W41270  20.425  14.287  14.283
68846W        W41271  14.289  35.973  10.763
68847W        W41272  23.431  41.838  13.079
68848W        W41273  16.073  10.872   3.961
68849W        W41274  44.538  32.107  14.239
68850W        W41275   8.259  31.379  11.171
68851W        W41276  27.185  28.868  10.957
68852W        W41277  31.502   3.643  11.928
68853W        W41278  27.086  33.083   1.645
68854W        W41279  17.179  23.620   0.289
68855W        W41280  39.842  18.779   0.473
68856W        W41281  10.119  16.593  12.955
68857W        W41282  27.243  25.915   4.760
68858W        W41283  38.386  38.851   3.751
68859W        W41284  38.430  15.212  13.761
68860W        W41285  31.202  23.307   0.406
68861W        W41286  34.490  13.742  13.523
68862W        W41287  24.757  35.575   2.638
68863W        W41288  27.078   5.755  14.249
68864W        W41289  40.016   0.848  13.987
68865W        W41290  44.859  23.609  11.725
68866W        W41291  42.903  17.048   3.589
68867W        W41292  23.285   8.276  13.061
68868W        W41293  12.679  40.882  14.969
68869W        W41294   2.443   0.714  12.093
68870W        W41295  43.369  37.054  13.692
68871W        W41296  29.382  38.975   3.851
68872W        W41297  20.327   2.709   2.837
68873W        W41298  37.737  31.925  11.621
68874W        W41299  27.021  23.948   0.466
68875W        W41300   8.439   6.733  14.371
68876W        W41301  12.559   2.907  13.480
68877W        W41302  40.033  36.400   2.314
68878W        W41303   1.029  30.354   5.047
68879W        W41304  20.271  37.416  14.353
68880W        W41305   7.263  25.557  10.727
68881W        W41306   6.910  36.933   2.842
68882W        W41307  13.249  14.281   3.900
68883W        W41308  29.691  19.960   0.882
68884W        W41309  21.214  22.401  14.794
68885W        W41310   3.382  13.540   4.645
68886W        W41311   0.955  34.644  14.285
68887W        W41312  10.102  43.950   4.670
68888W        W41313   0.744  36.075   1.960
68889W        W41314   3.204  39.925   3.274
68890W        W41315  32.391  39.973   3.941
68891W        W41316  42.511   6.623   0.814
68892W        W41317  10.789  28.045  11.131
68893W        W41318   8.988  22.999  12.502
68894W        W41319  42.775  26.283   0.465
68895W        W41320  17.213  33.686   1.475
68896W        W41321  43.226  32.934  12.660
68897W        W41322  31.216  26.040  10.670
68898W        W41323  26.394  23.544   3.291
68899W        W41324  36.824   9.365   1.794
68900W        W41325  10.293  32.445  11.373
68901W        W41326   3.284  12.845   3.019
68902W        W41327  29.012  20.645   4.136
68903W        W41328   3.687  38.965   3.838
68904W        W41329  21.242  21.665   1.810
68905W        W41330   5.937  38.951   3.283
68906W        W41331  31.995  19.489   4.126
68907W        W41332   8.739  16.793  11.177
68908W        W41333   2.049  13.342   4.564
68909W        W41334  34.363  39.304   4.108
68910W        W41335  38.449  24.141   3.580
68911W        W41336  44.642  41.634  14.860
68912W        W41337  15.344  34.538   3.132
68913W        W41338  30.260  22.113  12.515
68914W        W41339  17.343  27.077   2.417
68915W        W41340  28.969   6.608  12.644
68916W        W41341   9.737  28.116  14.333
68917W        W41342   6.815  36.080  13.880
68918W        W41343   8.642  34.106  13.934
68919W        W41344  11.586   7.585  12.555
68920W        W41345   1.698  40.893   4.905
68921W        W41346  16.878   6.482   4.195
68922W        W41347  25.637   9.232  14.356
68923W        W41348  24.051   4.047  12.808
68924W        W41349   2.392  23.063  14.299
68925W        W41350  14.544  38.345  12.947
68926W        W41351  12.214  25.262   0.715
68927W        W41352  18.715  26.016  11.965
68928W        W41353   3.995  10.220   1.744
68929W        W41354   6.593  11.225  13.071
68930W        W41355  33.422   3.900  14.303
68931W        W41356  34.627  38.942  11.557
68932W        W41357  31.226  28.082   3.618
68933W        W41358   0.367   7.952   1.960
68934W        W41359  37.613  36.150   4.861
68935W        W41360   5.819  23.245   2.820
68936W        W41361  27.124   0.350  13.154
68937W        W41362   3.787  22.972   1.349
68938W        W41363  18.749  27.668  13.346
68939W        W41364   6.705  25.225   4.882
68940W        W41365  22.345  39.606  11.590
68941W        W41366  39.974  10.396  10.776
68942W        W41367  33.895  18.060  10.667
68943W        W41368  27.120  20.078  10.715
68944W        W41369  44.216  42.507   1.904
68945W        W41370  32.048   6.630   3.280
68946W        W41371  38.341  19.292   4.187
68947W        W41372   3.324   1.007   4.130
68948W        W41373  30.806   1.367  11.368
68949W        W41374  20.687  31.110   5.670
68950W        W41375  26.593  12.781  12.139
68951W        W41376  40.202  29.643  11.025
68952W        W41377   6.342  28.053   3.084
68953W        W41378  24.976  20.025   4.116
68954W        W41379  37.503   8.615   2.669
68955W        W41380  38.292  34.523  12.437
68956W        W41381  20.654  41.141  13.841
68957W        W41382  11.655  19.616   2.062
68958W        W41383   9.848   2.709   1.664
68959W        W41384  26.117  29.691   0.912
68960W        W41385  19.313  14.692   1.656
68961W        W41386  29.231  11.373   3.178
68962W        W41387  29.221  44.667   0.821
68963W        W41388   1.216  33.091   3.642
68964W        W41389  43.707  44.044   3.349
68965W        W41390  43.320   6.716  11.261
68966W        W41391  10.983   1.102  13.974
68967W        W41392  18.785   4.882   3.373
68968W        W41393   8.346  17.086  12.462
68969W        W41394  24.640  17.521   4.201
68970W        W41395   2.944  12.367   4.086
68971W        W41396  10.459  15.155   3.760
68972W        W41397  32.594  17.792   3.066
68973W        W41398  41.621   7.283  12.018
68974W        W41399  35.562  40.739   1.768
68975W        W41400  40.356   7.510   4.530
68976W        W41401  39.446  11.805  12.465
68977W        W41402  19.074  19.054  12.872
68978W        W41403  33.865  44.996  14.877
68979W        W41404  33.323   6.083   2.458
68980W        W41405  34.131  32.184  13.176
68981W        W41406  27.623  19.638   2.376
68982W        W41407  13.091  44.355  12.436
68983W        W41408  11.798  35.187  12.511
68984W        W41409  25.764   3.779  14.198
68985W        W41410  17.041   4.494  10.122
68986W        W41411  31.710   5.767  11.159
68987W        W41412  20.464  24.840  11.507
68988W        W41413  14.772  33.905  10.464
68989W        W41414   9.696  42.872   1.189
68990W        W41415  13.771  43.318  12.917
68991W        W41416  36.101  26.961   1.139
68992W        W41417  15.207  35.535  13.153
68993W        W41418   6.451   4.163   1.419
68994W        W41419  32.019   3.885  11.910
68995W        W41420  27.017  16.233   0.102
68996W        W41421  32.557  19.425  12.426
68997W        W41422  39.413  25.733   3.225
68998W        W41423  32.171   9.356  13.952
68999W        W41424   3.823  14.814   4.194
69000W        W41425  20.227  14.020  10.987
69001W        W41426  38.840  27.473  13.514
69002W        W41427  23.560  17.811  10.723
69003W        W41428  40.486  41.146  13.977
69004W        W41429  24.983  34.655   0.320
69005W        W41430   8.946  34.912  11.951
69006W        W41431  39.794  14.104  12.346
69007W        W41432   0.355   1.018  10.973
69008W        W41433  20.250  38.558  11.492
69009W        W41434  42.938   8.917   2.775
69010W        W41435  40.055  20.721   1.776
69011W        W41436   4.203  36.482  12.356
69012W        W41437  37.343  15.809   1.034
69013W        W41438  25.470   9.816  10.490
69014W        W41439  15.052  31.067   0.650
69015W        W41440  32.149   0.825  14.136
69016W        W41441   3.680   8.408   0.836
69017W        W41442   2.935  25.372   3.161
69018W        W41443  12.225  24.758   5.348
69019W        W41444  37.398  30.427   4.603
69020W        W41445  38.425   1.008   4.205
69021W        W41446  11.513  34.673  11.178
69022W        W41447  20.326  43.416   3.822
69023W        W41448  33.615   6.908  14.567
69024W        W41449  20.907  20.075  11.412
69025W        W41450  20.893  28.097   1.152
69026W        W41451  28.950  19.034  14.920
69027W        W41452  22.050  30.651  11.728
69028W        W41453  11.395  34.274   3.241
69029W        W41454   3.450  11.385  12.093
69030W        W41455  17.529  17.733   4.520
69031W        W41456  21.143  13.055  14.248
69032W        W41457   2.691   1.857   1.675
69033W        W41458  20.729  34.614   1.656
69034W        W41459  34.382  10.856  11.419
69035W        W41460   0.976   5.729  11.534
69036W        W41461  20.092  33.338   4.694
69037W        W41462  12.357  41.978   2.896
69038W        W41463  11.433  41.834  11.579
69039W        W41464  34.088  11.152  11.083
69040W        W41465   2.803   9.635  13.523
69041W        W41466  33.104  35.913   3.676
69042W        W41467   4.395  28.905   2.682
69043W        W41468   4.653  20.162  14.474
69044W        W41469  37.118   5.648  13.668
69045W        W41470  13.106   0.451  12.938
69046W        W41471  29.959  42.035   1.373
69047W        W41472   4.258  44.039  13.675
69048W        W41473  12.561  14.867  12.192
69049W        W41474  35.865  30.346   3.279
69050W        W41475  27.741  44.508   4.151
69051W        W41476  21.081  20.708   0.826
69052W        W41477  33.915  26.443  10.923
69053W        W41478  11.302  24.642  13.075
69054W        W41479  37.050   8.679  11.683
69055W        W41480  37.698  36.556  11.055
69056W        W41481  20.323  21.767  11.102
69057W        W41482  21.504   5.213  13.082
69058W        W41483   3.209   1.455   4.551
69059W        W41484  28.674  22.051  11.023
69060W        W41485   8.129  33.404   0.815
69061W        W41486  28.610  19.563  11.990
69062W        W41487  29.384  29.982  10.536
69063W        W41488  31.997  27.297   1.499
69064W        W41489  20.133  41.446  10.763
69065W        W41490   5.339  32.878  14.072
69066W        W41491  37.535  40.423   2.804
69067W        W41492  16.306  23.040   4.088
69068W        W41493  34.216  44.920   3.370
69069W        W41494  33.941  38.997   4.546
69070W        W41495  20.993  28.552   0.624
69071W        W41496  21.647  12.629  12.972
69072W        W41497  14.734  40.492   2.235
69073W        W41498  23.155  22.931   1.809
69074W        W41499  40.367  37.992  12.715
69075W        W41500  13.230  12.956   4.037
69076W        W41501  13.379  27.648   0.862
69077W        W41502  25.677  22.142  14.898
69078W        W41503  34.547  21.490   1.894
69079W        W41504  32.185   7.328   4.847
69080W        W41505  22.252  14.824  14.770
69081W        W41506  34.921  24.151  12.054
69082W        W41507  20.981  37.568  11.712
69083W        W41508   1.307  23.964  12.861
69084W        W41509  24.215  10.080  14.879
69085W        W41510  19.945  44.019   1.928
69086W        W41511  41.152  43.304   5.452
69087W        W41512  14.353  44.198  14.408
69088W        W41513  23.326   6.614   2.156
69089W        W41514   4.019  23.669  14.459
69090W        W41515   4.551  20.252  13.934
69091W        W41516   1.362  26.761  13.355
69092W        W41517  43.929   3.217  13.885
69093W        W41518  23.582   4.512   1.280
69094W        W41519   2.450   0.503  14.157
69095W        W41520  19.773  31.030   2.814
69096W        W41521   9.543  26.145  11.659
69097W        W41522  16.206  25.819  13.044
69098W        W41523   5.251  37.046  11.268
69099W        W41524  27.431  32.307  13.239
69100W        W41525  21.492  14.648   2.369
69101W        W41526  21.221  42.997   3.659
69102W        W41527  17.456   1.756   0.348
69103W        W41528  32.351  17.977   4.196
69104W        W41529   3.186  15.705  10.060
69105W        W41530  31.838  27.283  14.569
69106W        W41531  19.292  20.269   2.693
69107W        W41532  11.862  25.637   3.735
69108W        W41533   4.214  40.256  12.404
69109W        W41534  31.348  32.959   0.827
69110W        W41535  19.782   0.476  12.023
69111W        W41536  22.944  37.547  11.122
69112W        W41537  32.960  38.149   2.888
69113W        W41538  29.971  21.329  14.863
69114W        W41539  39.371  10.387  14.040
69115W        W41540   6.138   9.354  14.019
69116W        W41541   1.504  42.225   0.380
69117W        W41542  26.062  20.806   0.108
69118W        W41543  32.612  39.414  14.457
69119W        W41544   7.030  44.907  14.433
69120W        W41545  15.463   2.776  14.330
69121W        W41546  39.441   1.283  10.467
69122W        W41547   9.390  35.862  14.059
69123W        W41548  33.196  26.934   2.674
69124W        W41549   8.111  44.872   2.747
69125W        W41550   3.488  26.665   4.735
69126W        W41551  12.120  23.296   3.148
69127W        W41552  31.575  17.150   1.377
69128W        W41553  43.447  37.492  10.159
69129W        W41554  26.546   4.476   0.326
69130W        W41555  32.447  27.522  12.898
69131W        W41556  34.749  12.826  11.204
69132W        W41557   8.433  44.334  11.057
69133W        W41558  39.926  16.577   2.253
69134W        W41559  19.361  26.453   4.340
69135W        W41560  24.416  24.691  11.176
69136W        W41561   5.729  17.065   3.278
69137W        W41562  43.051   3.595   2.689
69138W        W41563  27.540  37.838   0.629
69139W        W41564  25.879  43.447  13.114
69140W        W41565  31.807  24.499   2.768
69141W        W41566   5.489  15.668  13.532
69142W        W41567  37.388  33.741   0.788
69143W        W41568  27.202   9.247   2.742
69144W        W41569  12.805   0.497  11.397
69145W        W41570  37.166  17.246  14.474
69146W        W41571   3.006  31.755  11.570
69147W        W41572  28.421  25.406   3.493
69148W        W41573   0.673  28.584  11.708
69149W        W41574  25.488  22.977   3.104
69150W        W41575  15.606   0.167  14.360
69151W        W41576  26.945   8.433  13.887
69152W        W41577  28.078  13.360   1.050
69153W        W41578  37.764  11.289  12.425
69154W        W41579  30.042   5.205   1.734
69155W        W41580  36.320  24.641  13.284
69156W        W41581  19.605  32.075   5.228
69157W        W41582  18.269  23.958   3.756
69158W        W41583  16.381  12.688   0.169
69159W        W41584  28.990   0.724  12.362
69160W        W41585  30.397  11.812   1.353
69161W        W41586  39.852  22.723   4.659
69162W        W41587  44.441   4.705   0.480
69163W        W41588  38.357  13.999  11.209
69164W        W41589  23.412  13.024  14.939
69165W        W41590   1.677   2.897  10.926
69166W        W41591  19.353  28.226   4.656
69167W        W41592  21.715  32.982   3.334
69168W        W41593  22.473  26.067  12.626
69169W        W41594  33.623  13.231   2.219
69170W        W41595  20.158  10.272  14.980
69171W        W41596  12.695  16.246   2.868
69172W        W41597  32.826  41.083   3.880
69173W        W41598  35.579  44.214  14.190
69174W        W41599   9.770  32.588   3.851
69175W        W41600  40.849  10.455  12.373
69176W        W41601  14.096  19.086   4.576
69177W        W41602  28.606  26.528  13.319
69178W        W41603  24.135   6.303   2.398
69179W        W41604  15.367  37.601   9.775
69180W        W41605   6.991   5.753   1.379
69181W        W41606   8.213  15.211  13.585
69182W        W41607  25.442  27.075   4.674
69183W        W41608   3.281  10.247   3.998
69184W        W41609  21.051   8.213  14.713
69185W        W41610  10.339  33.896   1.625
69186W        W41611  26.087  37.200   0.956
69187W        W41612  36.680  41.491   4.742
69188W        W41613   3.947  24.555   2.846
69189W        W41614  25.666  43.023   3.793
69190W        W41615   5.577   3.873  12.606
69191W        W41616  10.764  17.445   2.243
69192W        W41617  39.025   3.935  10.196
69193W        W41618  36.571  22.276   4.614
69194W        W41619  37.556  10.696  11.614
69195W        W41620   6.949  10.823  14.339
69196W        W41621  38.326  19.024   0.688
69197W        W41622   4.733  35.874   1.375
69198W        W41623  30.519  18.560   1.669
69199W        W41624   5.853  39.069   3.782
69200W        W41625  38.986   2.428   0.004
69201W        W41626  32.827   7.833   1.304
69202W        W41627   7.656  32.576  12.762
69203W        W41628  13.124  42.315  11.106
69204W        W41629   7.196   6.953  14.786
69205W        W41630  25.224  28.851   0.707
69206W        W41631   9.270  11.604   3.346
69207W        W41632  35.037  17.829   4.984
69208W        W41633  20.065  34.559   2.908
69209W        W41634   4.025   7.248  13.818
69210W        W41635  20.068  27.976   3.556
69211W        W41636  15.182   2.386  11.266
69212W        W41637  42.781  40.915   1.319
69213W        W41638  27.490  25.629  12.484
69214W        W41639  25.608  10.392   3.755
69215W        W41640   7.784  21.986   1.333
69216W        W41641  18.572  41.080   2.192
69217W        W41642  23.465   7.383  10.381
69218W        W41643   9.100  35.209   9.865
69219W        W41644  16.817  37.080  14.976
69220W        W41645  31.490   0.389   2.119
69221W        W41646   7.241  37.583   1.615
69222W        W41647  16.527  14.350   4.164
69223W        W41648  10.570  28.579   0.390
69224W        W41649  35.314  35.311  12.485
69225W        W41650  42.872   7.680  11.697
69226W        W41651  36.607  10.600   3.234
69227W        W41652   2.465   0.604  10.636
69228W        W41653   4.389  30.339  14.476
69229W        W41654  11.400   6.238  12.223
69230W        W41655   1.862  23.732   0.318
69231W        W41656   0.973  13.381  14.443
69232W        W41657  23.263  18.174  12.950
69233W        W41658  26.865  34.017   1.189
69234W        W41659  18.694  35.380  14.789
69235W        W41660   6.931  26.283   0.842
69236W        W41661   6.687  40.557  13.091
69237W        W41662  39.139   4.562  14.357
69238W        W41663  23.712  28.110   3.263
69239W        W41664  13.628  28.152   4.263
69240W        W41665   4.182  43.070  11.437
69241W        W41666  34.503  41.535   2.396
69242W        W41667  33.326   9.668  14.801
69243W        W41668  35.055  41.591   0.997
69244W        W41669  21.923  13.849  13.244
69245W        W41670  27.046  30.893   5.179
69246W        W41671  35.351   3.285   4.589
69247W        W41672   0.007  24.613  10.923
69248W        W41673  32.197  20.598  12.063
69249W        W41674   6.924  34.616   2.802
69250W        W41675  25.036  32.620   0.628
69251W        W41676  28.348   5.336  11.551
69252W        W41677  10.556   4.623   2.250
69253W        W41678  21.916  40.820  11.781
69254W        W41679  13.328  29.997   3.119
69255W        W41680  13.584   6.345   2.210
69256W        W41681  36.029  22.627  11.548
69257W        W41682   7.808   7.617  13.592
69258W        W41683  18.772  38.928   2.109
69259W        W41684  11.143  22.271  12.292
69260W        W41685  32.741  15.670  10.194
69261W        W41686   1.553  21.035  14.720
69262W        W41687   5.808   8.162   1.755
69263W        W41688   6.818  18.559   4.182
69264W        W41689   7.350  38.398  12.093
69265W        W41690   0.137  12.560  13.015
69266W        W41691  21.206  15.369   3.307
69267W        W41692  29.965  38.005   0.227
69268W        W41693  37.407  12.980   2.178
69269W        W41694  41.324   2.654   2.380
69270W        W41695  18.079   2.447  14.472
69271W        W41696   8.733  34.321  10.268
69272W        W41697   9.379   8.400   2.249
69273W        W41698  44.466   8.404  14.763
69274W        W41699   2.752  11.654  10.958
69275W        W41700  42.745  41.737  12.740
69276W        W41701   6.656  12.104   2.863
69277W        W41702  14.730  32.454  10.426
69278W        W41703  21.115  32.919  13.555
69279W        W41704   1.793  34.416  13.371
69280W        W41705  21.598  14.255  11.295
69281W        W41706  19.317   6.851   1.365
69282W        W41707  44.364   9.252  10.966
69283W        W41708  17.363  12.036   3.709
69284W        W41709  31.364   4.481   1.755
69285W        W41710  36.859  15.294  14.897
69286W        W41711  23.113  10.299   0.675
69287W        W41712   7.256  43.441   4.535
69288W        W41713  21.271   0.491   3.637
69289W        W41714   8.693  41.762   3.776
69290W        W41715  11.662  14.396   2.828
69291W        W41716  36.345  17.544  12.567
69292W        W41717   4.122  20.155   0.415
69293W        W41718  16.787   5.764   2.155
69294W        W41719   4.326  39.881   0.353
69295W        W41720  13.065  22.382   3.526
69296W        W41721  36.518  19.210  11.603
69297W        W41722  24.555  35.470  12.544
69298W        W41723  13.372  34.009  13.630
69299W        W41724  35.349   4.569  10.176
69300W        W41725  25.722   1.385   4.766
69301W        W41726  11.221  14.402  11.353
69302W        W41727  31.837  30.777  10.955
69303W        W41728  33.210   1.791   0.321
69304W        W41729  13.215  44.551  14.806
69305W        W41730  20.149   4.164  11.260
69306W        W41731  31.939  12.578   1.974
69307W        W41732  24.094  39.134   1.983
69308W        W41733   4.185  28.238   3.232
69309W        W41734  44.761  29.199   4.065
69310W        W41735   2.275  24.814   4.217
69311W        W41736  28.707  11.130  10.597
69312W        W41737   2.941  20.638  11.692
69313W        W41738   0.956  25.993   0.777
69314W        W41739   8.778   9.685   3.451
69315W        W41740  27.910  10.831   2.124
69316W        W41741  41.157  22.355   3.334
69317W        W41742  44.343  21.353  12.867
69318W        W41743  44.604  27.997  14.244
69319W        W41744  22.609   2.150  14.418
69320W        W41745  18.318  26.065   0.050
69321W        W41746  10.730  14.347  12.072
69322W        W41747  33.360  29.510   1.157
69323W        W41748  35.351  31.614  13.412
69324W        W41749  24.766   9.429   1.789
69325W        W41750  44.441  38.124   0.667
69326W        W41751  36.945  33.627   2.494
69327W        W41752  39.286  23.493   0.757
69328W        W41753  31.866  22.105   1.822
69329W        W41754  44.773  27.524  11.973
69330W        W41755  43.569  22.635   4.919
69331W        W41756   1.688  29.185  14.403
69332W        W41757   2.859  13.276  11.215
69333W        W41758  22.571  36.818   2.252
69334W        W41759   1.747  24.656   2.333
69335W        W41760  22.035  15.679  10.603
69336W        W41761  21.171  24.769   4.732
69337W        W41762  33.409  28.035  13.205
69338W        W41763  15.730   8.993  13.541
69339W        W41764  37.685  40.835   2.541
69340W        W41765  38.602  15.352  14.525
69341W        W41766   4.368  41.288   0.195
69342W        W41767   6.699  19.855   3.675
69343W        W41768   2.031  29.092  11.626
69344W        W41769  29.168   5.307  12.828
69345W        W41770  40.507  10.842  12.395
69346W        W41771   7.905  14.535   4.166
69347W        W41772  26.915  32.397  13.711
69348W        W41773  23.230   0.689   3.315
69349W        W41774  18.050  28.445  14.305
69350W        W41775   4.148  26.251   2.959
69351W        W41776  32.086   2.174   2.161
69352W        W41777  27.212  28.185  13.393
69353W        W41778  19.340  35.865  11.604
69354W        W41779  39.961  31.126  13.288
69355W        W41780  42.395  31.559   0.057
69356W        W41781  43.096  22.242   2.840
69357W        W41782  31.111  23.411   2.351
69358W        W41783  34.810  40.273  12.888
69359W        W41784  18.754  15.835  11.157
69360W        W41785   5.842  24.880  11.552
69361W        W41786  30.041  40.066  10.733
69362W        W41787  16.865  44.352  10.873
69363W        W41788  11.268  17.747  14.002
69364W        W41789  30.557  30.385  14.299
69365W        W41790  24.540  11.286  10.665
69366W        W41791  40.855   2.042   3.579
69367W        W41792  41.449  33.381   1.232
69368W        W41793   9.789  29.099   4.574
69369W        W41794  19.632  40.893   4.113
69370W        W41795   7.762  19.137  13.410
69371W        W41796  17.012  24.444   4.381
69372W        W41797  37.814  11.341   0.023
69373W        W41798  13.693  41.875   3.705
69374W        W41799  42.638  31.414   3.573
69375W        W41800  28.491  40.427   1.835
69376W        W41801  16.297  31.509   9.841
69377W        W41802  22.714  28.958  12.563
69378W        W41803  16.665  31.432  10.655
69379W        W41804  33.839  30.497   0.781
69380W        W41805   0.038   4.271   4.557
69381W        W41806  27.617  40.486   4.156
69382W        W41807  11.789  23.114  13.948
69383W        W41808   5.930  20.115   1.800
69384W        W41809  31.537  41.384   0.845
69385W        W41810   6.865  43.644  13.851
69386W        W41811  26.104  38.394  11.560
69387W        W41812  36.395  41.075   2.260
69388W        W41813  25.453  17.647   0.384
69389W        W41814   7.937  41.498   5.164
69390W        W41815  13.232  25.057   4.729
69391W        W41816  26.191  41.006   2.191
69392W        W41817  13.835   9.700  12.607
69393W        W41818   5.388  10.250  10.122
69394W        W41819   4.388  19.848   3.365
69395W        W41820  42.530  44.657  14.418
69396W        W41821  43.274  30.994   1.380
69397W        W41822  21.732  33.056   3.858
69398W        W41823   1.787  30.404   1.658
69399W        W41824  33.861  12.191  10.479
69400W        W41825  34.975  38.064   2.046
69401W        W41826  18.000  15.098   3.176
69402W        W41827  22.683   0.983   0.182
69403W        W41828   7.584  35.650   3.191
69404W        W41829  27.371  16.755   4.670
69405W        W41830  42.982  25.495  12.603
69406W        W41831   4.256  26.007  10.515
69407W        W41832  26.576  27.497   2.215
69408W        W41833  36.209  25.218  13.935
69409W        W41834  17.173  13.772   3.359
69410W        W41835  32.168  30.561  11.899
69411W        W41836  44.568  18.133  11.643
69412W        W41837  11.602   2.882   1.148
69413W        W41838  21.485   2.817   3.903
69414W        W41839  10.692  24.222  14.522
69415W        W41840  34.983   5.808  10.744
69416W        W41841  19.293  36.415  12.925
69417W        W41842  15.052   7.712   4.652
69418W        W41843  22.078  39.361   2.696
69419W        W41844  19.538  42.463   4.385
69420W        W41845  36.409  37.296   4.656
69421W        W41846   7.964  19.627  10.314
69422W        W41847  38.253  39.018   0.342
69423W        W41848   5.502  14.826   4.643
69424W        W41849  33.005  19.085  10.814
69425W        W41850  38.001  31.765  14.803
69426W        W41851   3.359   9.318  11.897
69427W        W41852  32.305   4.455  11.113
69428W        W41853  20.568   2.809   0.873
69429W        W41854  14.350  22.556  14.283
69430W        W41855  16.345   0.426   3.261
69431W        W41856  23.207  24.472  11.117
69432W        W41857  24.156  12.402  13.820
69433W        W41858  19.484  24.222  12.360
69434W        W41859  12.300  14.257  14.871
69435W        W41860  11.767  39.045  12.882
69436W        W41861   1.953   5.696   3.203
69437W        W41862  41.855  41.952   0.342
69438W        W41863  40.987  22.043   3.711
69439W        W41864  11.169  19.645   2.408
69440W        W41865  29.990  10.310  11.520
69441W        W41866  22.512  29.140   4.636
69442W        W41867   8.101  38.979  13.390
69443W        W41868  26.786  27.568  12.814
69444W        W41869  32.409  25.544   0.296
69445W        W41870  34.516  34.572   2.413
69446W        W41871  27.495  11.083  11.891
69447W        W41872   9.773  40.864   3.814
69448W        W41873  11.625  16.880  11.098
69449W        W41874   0.916  14.099  13.365
69450W        W41875  22.566  25.182   3.695
69451W        W41876   1.692  43.034   1.813
69452W        W41877  36.820  21.331  14.304
69453W        W41878  21.694   1.963   4.748
69454W        W41879   0.959  19.610   0.327
69455W        W41880  14.695   0.789   4.179
69456W        W41881  22.748   8.721   1.378
69457W        W41882  36.274  16.646  13.908
69458W        W41883  26.901  17.185  12.975
69459W        W41884  20.419  15.573  11.504
69460W        W41885  41.519  35.937   3.907
69461W        W41886   5.680   2.971  13.375
69462W        W41887  35.977  10.420  13.498
69463W        W41888  38.553   8.587  14.479
69464W        W41889   3.898  33.948  11.374
69465W        W41890   4.286   5.900  11.746
69466W        W41891  28.428  19.088  14.988
69467W        W41892   0.386  24.717   0.691
69468W        W41893  30.485  40.059   0.784
69469W        W41894   0.870  39.246  10.635
69470W        W41895   1.836  40.445   4.198
69471W        W41896  36.516  16.514  14.818
69472W        W41897  15.300  27.612  12.420
69473W        W41898   8.606  35.682   3.278
69474W        W41899   8.924  42.261   1.317
69475W        W41900  20.438  19.878   3.277
69476W        W41901  37.539   9.863  14.036
69477W        W41902  19.355  26.981   3.165
69478W        W41903  37.912   3.815   0.217
69479W        W41904  28.973  42.343  14.885
69480W        W41905  36.401   2.662  10.743
69481W        W41906  10.203  42.801  13.251
69482W        W41907  12.251   9.260   3.873
69483W        W41908  32.958  20.736   1.500
69484W        W41909  20.486  35.861   0.140
69485W        W41910   9.625  26.909  11.556
69486W        W41911  25.712  15.158   4.702
69487W        W41912  18.437  31.647   2.880
69488W        W41913  14.121   6.851  14.416
69489W        W41914  31.099  40.338   1.218
69490W        W41915   5.165  27.020  11.085
69491W        W41916   8.628  18.964  14.981
69492W        W41917   7.699  35.910   2.758
69493W        W41918  34.855  44.637  11.823
69494W        W41919  17.090  42.336  11.479
69495W        W41920  13.516   5.187  12.942
69496W        W41921  23.216  37.780  14.374
69497W        W41922   8.334  23.649  14.794
69498W        W41923   1.887  41.984   4.508
69499W        W41924   1.100  42.528  12.129
69500W        W41925  22.474  21.720  13.511
69501W        W41926  40.312  10.571  12.010
69502W        W41927  34.877  41.770  11.555
69503W        W41928   2.195   5.971  12.199
69504W        W41929  14.166  18.810  12.593
69505W        W41930  17.444  34.048  11.876
69506W        W41931  32.078  25.065  11.556
69507W        W41932  14.826   1.681   1.239
69508W        W41933   0.787  29.657  10.662
69509W        W41934  17.904  16.981  13.793
69510W        W41935  10.310  15.467   4.586
69511W        W41936  36.410  19.138  12.098
69512W        W41937  20.254   1.784   4.565
69513W        W41938  28.128  27.183   3.211
69514W        W41939  35.170   8.036   3.593
69515W        W41940  34.168   1.001   2.720
69516W        W41941  13.636  34.427  12.312
69517W        W41942  17.215  28.430   0.887
69518W        W41943  10.165  38.071   2.024
69519W        W41944  10.236  23.376   2.861
69520W        W41945  24.396  29.199   1.191
69521W        W41946  36.465   3.945   4.136
69522W        W41947  11.967   8.123  10.467
69523W        W41948   6.320   0.992   2.242
69524W        W41949  10.625   3.001  10.637
69525W        W41950  23.588  19.953   3.282
69526W        W41951  44.625  25.693   4.081
69527W        W41952  12.664  15.792   3.130
69528W        W41953  19.155   4.358   2.664
69529W        W41954   2.189  39.234  11.790
69530W        W41955  33.411   7.848   3.172
69531W        W41956  14.144  40.239  14.923
69532W        W41957  24.999  25.448   0.009
69533W        W41958  25.664  33.389   4.602
69534W        W41959  15.888   4.260  13.774
69535W        W41960   0.593  28.217  10.541
69536W        W41961  40.325   7.892  12.696
69537W        W41962  22.194  12.359   1.316
69538W        W41963   9.218  18.740  12.967
69539W        W41964  28.921  27.690  13.291
69540W        W41965  25.548  19.435   0.920
69541W        W41966  33.090   4.166   1.911
69542W        W41967   8.474  12.726  11.229
69543W        W41968   0.569  27.326   0.035
69544W        W41969   7.178  43.522  11.045
69545W        W41970  24.516  41.684  13.365
69546W        W41971  22.956  18.750   0.415
69547W        W41972   3.932  26.291   4.776
69548W        W41973  33.623  18.828  10.183
69549W        W41974   2.847  15.635  13.849
69550W        W41975   4.077  11.856   2.744
69551W        W41976  33.024  16.032   4.255
69552W        W41977  24.198  23.365   0.637
69553W        W41978  39.591  33.117   2.618
69554W        W41979  20.604  29.678  13.839
69555W        W41980  24.035  11.432  10.623
69556W        W41981  41.330  31.446  13.560
69557W        W41982   4.988  16.275  11.543
69558W        W41983  25.941  44.252  14.063
69559W        W41984   4.758  30.573  14.746
69560W        W41985  39.981  25.942  11.585
69561W        W41986  38.889   5.078   2.432
69562W        W41987  33.477   5.669  13.379
69563W        W41988  37.542  39.973   1.253
69564W        W41989  12.152  44.768  14.611
69565W        W41990   3.459  41.895   0.381
69566W        W41991  31.542  19.979  14.529
69567W        W41992  29.082  40.874   2.712
69568W        W41993   8.437  42.435   2.139
69569W        W41994  15.822  13.693  14.912
69570W        W41995  19.010   8.368   4.115
69571W        W41996  16.149   4.417   0.803
69572W        W41997  19.000  10.112  12.406
69573W        W41998  32.108  35.404   2.866
69574W        W41999  36.439  27.791   2.662
69575W        W42000  31.408   5.356  12.362
69576W        W42001  23.782  16.022  12.203
69577W        W42002  40.101  10.688  11.546
69578W        W42003  20.047  39.396  11.978
69579W        W42004  37.794  10.805   4.556
69580W        W42005  40.559  29.205  12.443
69581W        W42006  23.475  14.837  14.275
69582W        W42007  42.399  23.492   3.878
69583W        W42008  18.213  12.371  11.855
69584W        W42009   6.274   9.636   2.961
69585W        W42010  40.050  19.571   4.463
69586W        W42011  33.418  40.333   3.821
69587W        W42012  20.259  35.796  11.719
69588W        W42013  42.345  14.836   4.573
69589W        W42014  17.160  14.211   1.722
69590W        W42015   2.681  31.398   1.723
69591W        W42016  43.475  11.148  12.967
69592W        W42017   3.020  34.642  13.033
69593W        W42018  43.859  40.767  12.077
69594W        W42019   5.341  44.429  11.500
69595W        W42020  34.371  31.524   4.266
69596W        W42021   2.513  12.455  14.854
69597W        W42022  44.051  41.359   4.086
69598W        W42023  21.400   9.746  12.085
69599W        W42024  31.769  30.385   0.626
69600W        W42025   6.649  43.670   2.809
69601W        W42026  19.273   9.349  11.143
69602W        W42027   6.593  18.335   2.332
69603W        W42028   3.179  18.939   3.738
69604W        W42029  44.536  44.836  13.942
69605W        W42030   3.465  42.926  10.861
69606W        W42031  15.053  24.754   0.383
69607W        W42032  41.961  30.089  12.509
69608W        W42033   9.942  23.101  14.509
69609W        W42034  12.341  41.654  12.526
69610W        W42035  40.025   8.832   1.389
69611W        W42036   5.798  22.390  13.013
69612W        W42037   2.776  21.794   2.644
69613W        W42038  42.757  32.167   2.696
69614W        W42039   9.125   3.049   4.063
69615W        W42040  36.450  27.117  13.430
69616W        W42041   3.316   5.987  10.206
69617W        W42042  31.885  13.048  12.401
69618W        W42043  31.821   3.670   4.578
69619W        W42044  43.708  35.425  11.133
69620W        W42045  30.455  15.285   2.763
69621W        W42046  20.998  14.177   3.810
69622W        W42047  17.174  44.928   0.523
69623W        W42048  16.289  15.474   4.663
69624W        W42049   3.217  26.146  14.340
69625W        W42050  41.883  34.679   5.047
69626W        W42051  10.853  16.097   1.787
69627W        W42052  38.812  17.521   2.055
69628W        W42053  42.293  16.543   0.955
69629W        W42054   6.261   2.467  10.779
69630W        W42055   6.427  23.177  10.700
69631W        W42056  43.698   8.413  11.547
69632W        W42057  41.643  35.336   3.113
69633W        W42058  23.414   6.946  13.120
69634W        W42059  19.256  11.333   3.232
69635W        W42060   8.373   0.740   1.723
69636W        W42061   9.610  39.893  12.108
69637W        W42062  11.831  17.103   0.268
69638W        W42063  30.723  12.600   3.108
69639W        W42064  29.114  32.917   0.496
69640W        W42065   4.294  29.760   0.583
69641W        W42066  13.391   3.883  11.404
69642W        W42067  35.102   3.663  12.431
69643W        W42068   8.210   8.518   4.658
69644W        W42069   9.031  24.721   2.542
69645W        W42070   2.472  12.262   1.275
69646W        W42071  25.555  34.543  11.160
69647W        W42072  21.807  16.388   4.781
69648W        W42073   7.449   0.741   2.248
69649W        W42074  28.699  12.835   4.288
69650W        W42075  24.738  35.521  13.496
69651W        W42076  14.855  29.873   0.601
69652W        W42077  42.512  18.296  14.852
69653W        W42078  39.794  16.019  12.100
69654W        W42079  15.200  30.098  13.940
69655W        W42080  21.076  20.555   3.628
69656W        W42081   2.374  22.628   4.052
69657W        W42082  15.074  35.609   4.158
69658W        W42083  16.908   9.113   2.498
69659W        W42084   2.914  22.603   4.076
69660W        W42085  16.069  27.218  13.303
69661W        W42086  40.960  24.700   2.218
69662W        W42087   8.206  30.864  14.557
69663W        W42088  40.800  14.551  13.865
69664W        W42089  25.759  28.084  13.861
69665W        W42090  10.397  23.095  11.095
69666W        W42091  13.555  26.061   1.432
69667W        W42092   9.692  43.482  13.097
69668W        W42093  10.350   8.158   0.270
69669W        W42094  37.975  40.683   3.034
69670W        W42095  16.224   6.134   1.715
69671W        W42096  15.515  25.366   3.226
69672W        W42097  13.117  13.066   0.412
69673W        W42098  41.492  42.852   1.814
69674W        W42099  10.577  10.654   0.898
69675W        W42100  25.344  36.374  14.580
69676W        W42101  19.956  21.771  14.257
69677W        W42102  37.977   8.326   0.271
69678W        W42103  32.102  26.219  12.561
69679W        W42104  24.245  35.582   2.707
69680W        W42105   3.153  19.569   2.404
69681W        W42106   8.198  30.342  11.073
69682W        W42107  14.595  19.713   2.316
69683W        W42108  16.831   5.914   0.105
69684W        W42109  10.105   5.167  14.265
69685W        W42110  37.909  13.828  11.052
69686W        W42111  39.997  24.931  14.315
69687W        W42112   5.155  31.720   4.126
69688W        W42113  16.146  43.408  10.775
69689W        W42114  13.675   0.401   1.192
69690W        W42115  32.640   9.102   2.134
69691W        W42116  40.554   5.964   3.681
69692W        W42117  13.848  28.648  14.735
69693W        W42118  30.874  41.336   2.737
69694W        W42119  21.997  40.338  14.385
69695W        W42120  44.179  44.302  10.530
69696W        W42121  32.320  41.792   2.167
69697W        W42122  41.253  28.750   3.800
69698W        W42123  41.505  44.816  11.233
69699W        W42124  23.075  10.867   3.259
69700W        W42125  44.276   3.353   4.973
69701W        W42126   9.190  19.029  13.990
69702W        W42127  29.184  44.271  13.664
69703W        W42128   2.864  17.269   0.335
69704W        W42129  23.592  30.031  10.912
69705W        W42130  38.372  42.495   4.196
69706W        W42131   1.875  21.042  10.701
69707W        W42132  11.982  40.800   3.560
69708W        W42133  35.162  43.979  12.535
69709W        W42134   5.457  33.461  11.067
69710W        W42135  12.317  34.392   1.890
69711W        W42136  41.113  40.912   4.869
69712W        W42137  29.960   1.997   3.715
69713W        W42138   4.476  30.143   4.079
69714W        W42139  17.756  43.685  13.497
69715W        W42140  37.592   7.591   1.127
69716W        W42141  23.057  35.962  11.807
69717W        W42142  28.658  42.760   0.871
69718W        W42143  44.815  18.028   3.230
69719W        W42144  20.185  11.240   4.072
69720W        W42145  33.551  19.082   2.719
69721W        W42146  26.513  10.869   2.803
69722W        W42147  36.473   0.713   1.377
69723W        W42148  35.005   5.548  11.592
69724W        W42149  38.816  39.862   4.532
69725W        W42150  37.368  36.906   1.836
69726W        W42151  10.282  22.166   3.643
69727W        W42152  19.702  37.819  14.583
69728W        W42153  15.345  30.107   1.658
69729W        W42154  14.627  35.881   3.183
69730W        W42155  26.108  13.252  10.743
69731W        W42156  26.540  44.652  11.604
69732W        W42157  39.372   0.752   2.946
69733W        W42158  26.656   1.249  12.590
69734W        W42159  27.930  34.165  13.377
69735W        W42160  29.369  11.853   0.500
69736W        W42161   8.923  18.260  12.122
69737W        W42162  44.550   6.417   4.116
69738W        W42163  16.919  19.254  11.229
69739W        W42164  11.705  19.104   1.862
69740W        W42165  14.746  30.335  11.099
69741W        W42166  41.985  39.217  14.970
69742W        W42167  29.577  34.114   2.852
69743W        W42168  42.620   2.363   2.302
69744W        W42169   0.994   5.423  12.339
69745W        W42170  38.081  38.392   2.448
69746W        W42171   7.754  32.891  11.007
69747W        W42172  33.603  42.708   5.135
69748W        W42173   7.187  39.575   2.698
69749W        W42174   7.689  44.537  13.181
69750W        W42175  11.330  24.954  13.946
69751W        W42176  43.851   6.471   2.823
69752W        W42177   8.726  24.177   1.741
69753W        W42178  39.854  34.351   3.613
69754W        W42179   3.723  21.677   3.640
69755W        W42180  25.947  39.343  12.395
69756W        W42181  19.713  14.817  12.978
69757W        W42182   2.311  42.937   3.051
69758W        W42183  30.646  22.590   0.839
69759W        W42184  25.411  32.990  14.440
69760W        W42185  14.570  29.723  13.429
69761W        W42186  38.257   8.742  13.332
69762W        W42187  18.634  32.564  12.180
69763W        W42188  35.650  25.115   1.236
69764W        W42189  28.736  34.826   0.374
69765W        W42190  36.998   4.626  13.999
69766W        W42191  37.091  24.810   4.028
69767W        W42192  17.702  35.830   0.946
69768W        W42193  40.150  24.039  14.035
69769W        W42194  29.601   4.725  14.271
69770W        W42195  43.128  41.736   4.125
69771W        W42196  37.797  19.745  12.885
69772W        W42197   5.411  31.507   3.086
69773W        W42198  39.563  25.419  12.512
69774W        W42199   8.417  43.441  11.047
69775W        W42200  13.861   3.489   3.434
69776W        W42201   9.930  42.824   1.685
69777W        W42202  14.626  36.409  13.849
69778W        W42203  33.364  33.112  13.378
69779W        W42204   0.339  39.905   1.190
69780W        W42205  23.381  29.541  13.045
69781W        W42206  29.448   8.137   1.763
69782W        W42207  10.147  38.028  14.943
69783W        W42208   5.957  11.041   4.140
69784W        W42209  28.440  42.375  14.900
69785W        W42210   6.344  28.008  10.532
69786W        W42211  12.832  30.116   4.967
69787W        W42212  33.762  41.863  14.251
69788W        W42213  11.366  33.760   1.774
69789W        W42214  18.092  39.857   1.778
69790W        W42215   0.949  27.519   3.255
69791W        W42216  18.256  44.345  13.358
69792W        W42217  35.820  36.466  13.804
69793W        W42218  28.432  13.866   1.769
69794W        W42219  15.559  43.808   3.346
69795W        W42220   7.445  42.150  12.544
69796W        W42221   2.506   8.548   1.765
69797W        W42222  42.773   2.058  13.345
69798W        W42223  29.573  19.083  14.422
69799W        W42224   9.566  36.792   9.833
69800W        W42225  27.346   2.017  11.162
69801W        W42226   4.732  23.323   3.221
69802W        W42227  42.291  27.230  10.376
69803W        W42228   8.802  30.136   1.730
69804W        W42229  11.774  30.053  14.499
69805W        W42230   0.310  29.913   2.408
69806W        W42231  37.626  19.662  11.198
69807W        W42232  39.510   5.737  12.500
69808W        W42233  34.035  16.055  13.842
69809W        W42234  11.873  23.032   0.832
69810W        W42235   6.127  12.545  11.939
69811W        W42236  42.815  10.392   4.164
69812W        W42237   8.231   8.295   4.188
69813W        W42238  31.482  15.782   0.420
69814W        W42239  30.540  10.602   2.829
69815W        W42240  28.654   9.168   4.413
69816W        W42241   7.509  34.997   3.964
69817W        W42242  10.707  41.876   0.359
69818W        W42243  25.476   5.866   1.840
69819W        W42244  24.964  40.833  14.277
69820W        W42245  25.693   3.030   4.134
69821W        W42246  26.605  24.813  13.928
69822W        W42247  39.591   7.082   3.610
69823W        W42248   4.635   4.074  12.262
69824W        W42249   4.378  19.231   1.249
69825W        W42250   0.925  27.235  13.874
69826W        W42251  29.121  31.316  11.908
69827W        W42252  43.187  29.482  12.159
69828W        W42253  38.074   1.924   3.243
69829W        W42254  42.912  36.899   1.700
69830W        W42255  14.712   1.325   2.393
69831W        W42256  28.454   7.683   4.293
69832W        W42257   9.664   0.309   3.605
69833W        W42258  21.907  12.514  14.477
69834W        W42259   9.457  32.061  11.504
69835W        W42260   6.714  19.679   5.017
69836W        W42261  40.005  17.225  12.431
69837W        W42262  34.048  23.036   3.133
69838W        W42263  22.255   7.653   2.195
69839W        W42264  18.249  33.855   0.927
69840W        W42265  37.503  37.416   1.777
69841W        W42266  21.650  23.272  13.299
69842W        W42267  11.791  28.234   0.838
69843W        W42268   5.672  37.713  11.609
69844W        W42269   7.778  10.924   1.868
69845W        W42270  25.465  22.572   3.637
69846W        W42271  40.191   7.321  11.636
69847W        W42272  15.528  36.435  12.384
69848W        W42273  24.132  40.672   4.153
69849W        W42274  10.222  39.596  13.353
69850W        W42275   2.329  29.716   1.810
69851W        W42276  22.281  24.685  11.151
69852W        W42277  44.019  39.324  14.868
69853W        W42278  28.049   5.412  14.407
69854W        W42279  32.328  27.025   4.814
69855W        W42280  13.261  36.014   1.674
69856W        W42281  35.983  28.429  14.165
69857W        W42282  16.904  31.713  13.880
69858W        W42283  37.040  16.761  13.043
69859W        W42284   5.185  10.157  14.436
69860W        W42285  10.100  11.231   0.323
69861W        W42286   6.262  14.373  14.193
69862W        W42287  25.187   4.376   2.650
69863W        W42288  29.135  10.290  13.949
69864W        W42289  16.550   2.789   4.224
69865W        W42290  27.193   4.910   2.717
69866W        W42291  13.114   5.944  14.249
69867W        W42292   1.037  16.020   4.133
69868W        W42293  11.292  44.535  11.155
69869W        W42294  29.094  38.658  11.581
69870W        W42295  37.267  38.289  13.515
69871W        W42296  24.793   6.785   0.045
69872W        W42297  13.786   3.973  12.278
69873W        W42298  37.782  22.397   1.315
69874W        W42299  21.153  33.504  14.019
69875W        W42300  22.246  12.217  11.824
69876W        W42301  28.711  39.673   3.635
69877W        W42302  41.990  11.407  11.422
69878W        W42303  38.096  16.624   2.361
69879W        W42304  15.392  20.140  10.583
69880W        W42305  35.885  14.044   1.375
69881W        W42306   9.732  41.111  11.091
69882W        W42307  35.208  44.275  11.671
69883W        W42308  29.826   5.672   3.249
69884W        W42309  16.398  44.539   0.009
69885W        W42310  37.339  22.298   9.791
69886W        W42311  17.424  37.516  14.495
69887W        W42312  22.384  44.848  11.278
69888W        W42313  12.463  27.010   3.310
69889W        W42314  27.521  28.335   0.932
69890W        W42315  11.437  22.102   0.974
69891W        W42316  40.157  32.911   0.863
69892W        W42317  15.311  25.767  11.001
69893W        W42318  23.427  21.387   2.813
69894W        W42319  17.903  34.714   3.950
69895W        W42320  11.926  24.384   0.807
69896W        W42321  36.865  15.109   4.698
69897W        W42322  12.294  43.379  11.173
69898W        W42323   6.222  21.422   4.822
69899W        W42324  35.296  23.102   0.582
69900W        W42325   3.828  19.711   0.451
69901W        W42326  30.750  34.949  14.298
69902W        W42327  38.290  39.561  12.338
69903W        W42328  44.423  14.916   2.782
69904W        W42329  15.395  21.453   1.391
69905W        W42330  42.594  23.968  13.729
69906W        W42331  27.220  29.678   4.542
69907W        W42332   2.895   2.666   0.276
69908W        W42333  13.644  20.485   2.898
69909W        W42334  32.360   8.923   2.833
69910W        W42335   5.733   4.578   2.343
69911W        W42336  25.069  25.375   1.401
69912W        W42337  19.638  16.337   2.688
69913W        W42338  30.915  30.473  13.898
69914W        W42339  20.261  27.494   0.382
69915W        W42340  11.837  40.740  10.835
69916W        W42341  27.193   6.057  10.637
69917W        W42342  12.297  13.561  13.022
69918W        W42343   4.750  11.103  11.918
69919W        W42344  42.034  24.269   1.320
69920W        W42345  23.556  18.602   0.973
69921W        W42346   2.496   6.376   1.235
69922W        W42347  44.165   8.791  14.899
69923W        W42348  38.428  11.802   2.683
69924W        W42349  19.494  39.501   0.717
69925W        W42350  26.646   0.030  12.865
69926W        W42351  23.104  37.898   4.558
69927W        W42352  25.977  23.012   4.185
69928W        W42353  31.519  18.281   4.566
69929W        W42354  31.049  43.391   4.399
69930W        W42355  15.358  17.977  13.430
69931W        W42356   7.219  39.425  14.927
69932W        W42357  15.606  16.510   4.157
69933W        W42358  29.012  12.371  14.188
69934W        W42359  16.667  28.951   0.388
69935W        W42360  42.186  13.297  13.556
69936W        W42361  13.741  11.114   0.557
69937W        W42362  21.565   8.936  11.112
69938W        W42363  43.851  42.754   0.458
69939W        W42364  24.949  28.472   0.917
69940W        W42365   4.756  21.890   1.294
69941W        W42366  28.685   6.584  11.367
69942W        W42367  33.099   0.908  13.795
69943W        W42368  23.096  19.385  14.813
69944W        W42369   3.875  39.760   2.733
69945W        W42370  44.615  13.333   3.292
69946W        W42371  24.732  44.349   4.750
69947W        W42372  26.914  10.782   4.856
69948W        W42373  33.111  20.450  11.925
69949W        W42374  16.607  40.560  13.916
69950W        W42375  22.799  29.042   3.641
69951W        W42376  43.319  13.824  14.776
69952W        W42377  19.132   3.809  11.210
69953W        W42378   0.210   8.611  11.081
69954W        W42379  42.968  11.891   1.239
69955W        W42380   6.201  17.267  11.641
69956W        W42381  10.775  14.266  12.981
69957W        W42382  11.689   0.002  14.527
69958W        W42383   9.484   1.973   2.114
69959W        W42384  31.830  43.563  11.593
69960W        W42385  30.549  39.994  14.334
69961W        W42386  17.046  18.611   1.104
69962W        W42387   9.020  31.028   1.608
69963W        W42388   3.780  44.936  10.383
69964W        W42389  40.720   4.157   1.202
69965W        W42390  43.453  32.912   4.227
69966W        W42391  25.111  35.951  13.780
69967W        W42392  43.371  34.134  13.819
69968W        W42393  30.407  18.391  12.568
69969W        W42394  11.167   6.286   2.200
69970W        W42395  12.577  24.648  11.833
69971W        W42396  35.753  29.794   5.213
69972W        W42397  21.226   0.255  12.596
69973W        W42398  29.123   8.349   1.387
69974W        W42399  17.762  40.100  11.890
69975W        W42400  28.502  23.789  13.000
69976W        W42401  13.870   2.361  12.137
69977W        W42402  16.602  27.139  13.342
69978W        W42403  42.007  10.766   0.255
69979W        W42404   8.897  31.902   4.762
69980W        W42405  24.020   3.322  11.621
69981W        W42406  33.586  19.077  13.004
69982W        W42407  42.648  11.552   2.929
69983W        W42408  20.567   3.754   2.326
69984W        W42409   9.717  13.641  11.175
69985W        W42410  26.272   2.480  11.130
69986W        W42411  40.059  21.783  11.641
69987W        W42412  20.768  13.245   4.985
69988W        W42413  43.595   7.580  14.817
69989W        W42414  15.789  28.115   0.161
69990W        W42415   7.865  40.821   0.882
69991W        W42416   1.429   2.820   0.726
69992W        W42417   4.895  31.619  12.960
69993W        W42418  26.938  17.134  14.811
69994W        W42419  21.945  15.197   1.272
69995W        W42420  30.382  20.008   3.215
69996W        W42421  43.587  14.130  13.563
69997W        W42422  36.056   4.029   1.274
69998W        W42423   3.276  15.131  13.390
69999W        W42424  36.879  13.158   4.404
70000W        W42425   5.503  21.055  12.186
70001W        W42426  27.679  43.479  12.845
70002W        W42427  41.522  15.419   1.805
70003W        W42428  41.986  12.250  11.874
70004W        W42429  11.265  14.324  14.887
70005W        W42430   4.267   9.597   3.282
70006W        W42431  21.256   8.383  13.957
70007W        W42432  36.489  14.755  14.361
70008W        W42433  41.673  43.000   4.943
70009W        W42434  17.708  32.868  10.656
70010W        W42435  23.505  35.895  14.884
70011W        W42436  37.025  14.152   3.553
70012W        W42437   5.041   0.706   3.292
70013W        W42438  33.463  31.696  11.656
70014W        W42439   0.303  41.896  12.983
70015W        W42440  11.139  20.316   0.797
70016W        W42441  11.259  10.544   1.233
70017W        W42442  38.062  43.232  13.051
70018W        W42443  37.518  42.330  11.473
70019W        W42444  35.572  31.590   1.399
70020W        W42445   6.408  38.284  14.749
70021W        W42446  18.524  39.134  11.596
70022W        W42447   3.193   7.855   1.839
70023W        W42448  31.909  43.029   4.799
70024W        W42449   2.228  24.932   0.664
70025W        W42450  42.448  41.486  14.043
70026W        W42451  17.610  36.318   0.807
70027W        W42452  32.549  37.913  11.639
70028W        W42453  20.896  23.939  11.192
70029W        W42454  18.053  15.288   1.835
70030W        W42455  44.319  15.526  12.862
70031W        W42456  34.714   6.871  13.202
70032W        W42457  12.714   6.476   0.052
70033W        W42458  32.156   6.159  13.490
70034W        W42459  44.233  37.839   0.263
70035W        W42460  20.678  34.602   4.615
70036W        W42461  18.714  30.997  13.843
70037W        W42462  41.316   4.253  13.948
70038W        W42463  15.086   7.028   0.875
70039W        W42464  20.229  31.393  12.767
70040W        W42465   0.868  41.467  13.962
70041W        W42466  26.100  23.686  12.146
70042W        W42467  34.682   8.911   3.735
70043W        W42468  26.929  19.708   0.521
70044W        W42469  28.323  37.253   2.914
70045W        W42470   7.110  31.678   1.730
70046W        W42471  10.216  18.510  14.863
70047W        W42472  10.422  30.690   3.141
70048W        W42473  33.369  18.801  12.639
70049W        W42474  17.617   2.127  13.747
70050W        W42475  41.233  17.656   0.374
70051W        W42476  34.122  28.598  11.752
70052W        W42477  23.994   4.919   0.411
70053W        W42478  14.293   6.175  10.514
70054W        W42479  41.328  25.568   1.974
70055W        W42480  17.837  13.233   4.845
70056W        W42481  22.770   2.640  14.386
70057W        W42482  15.367  28.585  13.307
70058W        W42483  17.106  29.097   3.767
70059W        W42484  11.247  35.982   0.077
70060W        W42485  23.416  32.079   4.179
70061W        W42486  27.164  41.636   4.513
70062W        W42487   9.745  36.645  13.399
70063W        W42488  32.947  22.565  10.869
70064W        W42489  23.458  21.137  12.934
70065W        W42490  31.099  20.425  13.332
70066W        W42491  10.842   3.382   3.350
70067W        W42492   6.531  40.401  12.595
70068W        W42493  43.733   5.460  13.851
70069W        W42494  19.881  18.101  14.342
70070W        W42495   4.268  38.515  14.561
70071W        W42496  35.424  29.210   2.865
70072W        W42497  13.124  27.626   2.957
70073W        W42498   7.351  26.429   2.988
70074W        W42499  18.578  19.569   1.237
70075W        W42500  40.766  35.544  11.022
70076W        W42501  22.520  20.138   1.829
70077W        W42502  37.936  10.700   0.835
70078W        W42503   4.593  25.015  14.354
70079W        W42504   2.713  28.953   2.251
70080W        W42505   2.444  35.455  14.019
70081W        W42506  43.894  19.623  12.409
70082W        W42507  31.662   2.365   0.907
70083W        W42508   3.395  30.140   1.235
70084W        W42509  31.401  28.110   1.768
70085W        W42510  10.110   9.935  10.140
70086W        W42511  33.526  29.926   3.926
70087W        W42512   8.521  44.843   4.774
70088W        W42513  41.517  11.608   1.404
70089W        W42514  16.725  39.332   0.431
70090W        W42515  18.697  17.236   3.452
70091W        W42516   8.452  32.695   5.050
70092W        W42517  44.554  10.797  11.985
70093W        W42518  19.422  37.487  12.840
70094W        W42519  36.444   1.257  14.452
70095W        W42520  18.544  31.887   1.902
70096W        W42521  16.020  19.930   1.682
70097W        W42522  15.887   6.330   0.305
70098W        W42523  13.758  42.742   0.860
70099W        W42524  41.432  10.426   4.764
70100W        W42525  22.237   3.711   3.350
70101W        W42526  24.533  44.339   0.878
70102W        W42527  19.338  38.015   2.745
70103W        W42528   7.820  42.298   1.661
70104W        W42529  20.202  20.750   0.249
70105W        W42530   7.332  15.794  14.170
70106W        W42531  44.262  18.048  13.217
70107W        W42532  19.202  37.919  11.051
70108W        W42533  36.408  12.319  12.888
70109W        W42534  31.548  26.018   2.836
70110W        W42535  25.476  23.457   3.314
70111W        W42536  17.105  44.388   1.408
70112W        W42537  30.222   2.464   0.425
70113W        W42538  16.793  21.268  14.892
70114W        W42539  39.280  19.338   2.111
70115W        W42540   1.229   1.405  12.972
70116W        W42541  42.410  27.610  11.668
70117W        W42542  37.415  23.755  10.322
70118W        W42543  32.709  11.131   3.237
70119W        W42544  24.734  24.359  12.541
70120W        W42545  20.662  25.551   2.372
70121W        W42546  32.629  27.075  11.533
70122W        W42547  31.023  43.203   2.700
70123W        W42548  10.777  41.356   4.533
70124W        W42549  32.156   9.645  11.085
70125W        W42550  21.684  39.343   0.488
70126W        W42551   9.717  36.781  13.932
70127W        W42552  35.106  13.076  13.035
70128W        W42553  14.917  17.751  14.840
70129W        W42554  34.484  43.075   2.238
70130W        W42555  30.840  35.304  13.902
70131W        W42556  28.122   8.896  14.622
70132W        W42557   1.267  16.303   3.243
70133W        W42558   0.788  15.603   1.459
70134W        W42559  22.725  25.056  14.113
70135W        W42560   9.129   0.370   4.422
70136W        W42561  43.870  26.578  13.034
70137W        W42562  13.079  38.511  12.996
70138W        W42563  36.677  23.478  14.739
70139W        W42564  31.865  10.371  14.407
70140W        W42565  18.470  44.894   3.636
70141W        W42566  18.158  16.518  12.373
70142W        W42567  24.592   5.482  13.529
70143W        W42568  20.178  15.389  14.774
70144W        W42569  23.545  11.213   2.752
70145W        W42570   2.896  36.098  11.749
70146W        W42571   4.219  21.718   4.608
70147W        W42572   1.352  15.226  12.592
70148W        W42573   0.170  42.819  11.167
70149W        W42574   9.805   4.815   0.626
70150W        W42575  25.089  10.033   5.228
70151W        W42576  27.233  38.953  11.234
70152W        W42577  44.446  43.345   0.883
70153W        W42578  36.536  34.368  10.549
70154W        W42579  42.366  14.585   5.162
70155W        W42580   6.336  21.006   1.270
70156W        W42581  38.391   0.242  14.807
70157W        W42582  19.944  20.483  13.985
70158W        W42583  31.972   1.426  12.054
70159W        W42584  31.790  38.046   2.239
70160W        W42585  38.487   7.556  14.816
70161W        W42586  43.008  10.032  13.067
70162W        W42587  32.768   0.449   4.498
70163W        W42588  26.063  12.207  11.144
70164W        W42589  24.073  34.383   1.383
70165W        W42590  29.874  40.453  12.533
70166W        W42591  40.853  30.036   1.241
70167W        W42592  43.545  42.767   2.231
70168W        W42593  34.735  16.177   0.030
70169W        W42594   2.391   9.871   1.249
70170W        W42595  21.179   8.122  11.217
70171W        W42596   8.280  31.488   3.783
70172W        W42597  25.516   9.904   2.926
70173W        W42598  33.736  31.419  13.442
70174W        W42599  35.948  14.541   1.260
70175W        W42600  13.214   3.869  10.541
70176W        W42601  10.404  18.734   5.069
70177W        W42602   5.870  17.419  13.717
70178W        W42603   5.416  36.646   4.227
70179W        W42604  13.988   5.748   3.346
70180W        W42605  22.036  36.899   4.178
70181W        W42606   2.362  36.581  14.354
70182W        W42607  33.288  20.449   3.171
70183W        W42608  44.333  12.435  12.610
70184W        W42609  29.180  15.481   1.880
70185W        W42610  26.814   1.421   1.460
70186W        W42611  44.797  16.625  10.926
70187W        W42612  38.968  28.689  14.655
70188W        W42613  25.030  31.562   4.096
70189W        W42614  34.146  29.163   1.101
70190W        W42615  31.916  26.671   0.259
70191W        W42616  15.385  24.562   5.007
70192W        W42617  28.326  31.340  13.411
70193W        W42618  16.928  32.961   4.813
70194W        W42619  28.954  38.623  10.668
70195W        W42620  14.800  44.873   2.470
70196W        W42621   3.992  10.725  14.124
70197W        W42622  42.941  40.813   0.475
70198W        W42623  23.064  10.392  10.147
70199W        W42624  29.332   5.397   0.766
70200W        W42625  36.931  23.364   1.243
70201W        W42626   2.996  34.589   0.450
70202W        W42627  30.183   9.336   3.305
70203W        W42628  44.470  40.876   0.324
70204W        W42629  21.689  10.124   5.179
70205W        W42630  20.103  18.104   1.165
70206W        W42631   7.728  36.009  14.743
70207W        W42632   9.626  39.063  10.718
70208W        W42633  34.643  13.647   3.657
70209W        W42634  17.689  30.014   3.837
70210W        W42635  27.455  28.871   0.924
70211W        W42636  31.941  14.682  10.464
70212W        W42637   7.659  38.305   1.831
70213W        W42638  41.858  15.511   2.685
70214W        W42639  32.135  43.860   0.849
70215W        W42640   6.293  20.765  12.355
70216W        W42641  35.152  18.265  12.942
70217W        W42642  22.296  11.406   4.189
70218W        W42643   5.827  42.685  12.043
70219W        W42644   7.531  32.472   1.738
70220W        W42645  20.654  10.720  11.157
70221W        W42646  23.400   2.226  12.529
70222W        W42647  30.434  22.630  11.533
70223W        W42648   1.042  26.382   4.491
70224W        W42649   0.460  23.088  14.270
70225W        W42650  32.781  17.829  12.842
70226W        W42651  12.437  41.874  13.392
70227W        W42652  34.130  16.591   4.506
70228W        W42653  12.284  21.756   3.713
70229W        W42654   0.386   1.743   3.141
70230W        W42655  23.046   8.565   4.150
70231W        W42656  44.573  13.476   4.940
70232W        W42657  28.713  29.896   3.650
70233W        W42658  43.540   5.492  14.862
70234W        W42659  11.620  10.275  10.299
70235W        W42660  10.148   0.378   3.414
70236W        W42661  24.694  17.047  10.973
70237W        W42662   2.018  40.024  14.912
70238W        W42663  13.243  34.509  11.980
70239W        W42664  20.780   3.456  13.457
70240W        W42665  28.861  32.449  13.912
70241W        W42666  27.770  43.301  10.670
70242W        W42667  12.066  17.069  11.961
70243W        W42668   3.164  32.028  12.896
70244W        W42669   9.954   6.427  11.949
70245W        W42670  10.769  39.461   3.377
70246W        W42671  33.300  17.302   2.760
70247W        W42672  22.439  31.913   4.218
70248W        W42673  15.780  14.825  12.437
70249W        W42674  41.138   5.481   0.714
70250W        W42675   6.601  24.941  14.416
70251W        W42676  10.842  24.436   2.343
70252W        W42677  37.790  38.561   3.401
70253W        W42678   4.414  10.988   1.145
70254W        W42679  43.279  14.827   3.148
70255W        W42680  24.947   6.951  11.446
70256W        W42681  13.615   0.917  10.403
70257W        W42682  24.652   3.321   2.287
70258W        W42683  15.121  29.216   3.418
70259W        W42684   1.945  31.333  13.277
70260W        W42685  18.625  34.210   0.421
70261W        W42686  10.701   5.361   4.467
70262W        W42687  25.898   3.671   1.326
70263W        W42688  37.669  24.289   2.129
70264W        W42689  37.466   4.557  10.034
70265W        W42690   2.432  39.480  13.287
70266W        W42691  34.926  21.464   4.624
70267W        W42692  38.052  13.080   3.349
70268W        W42693  37.235  21.173   2.737
70269W        W42694  29.153  17.062   0.786
70270W        W42695  24.001  40.090   5.150
70271W        W42696  18.295  24.557   0.441
70272W        W42697  30.579   5.987  11.669
70273W        W42698   0.759  16.760   4.025
70274W        W42699  42.925  23.219   0.349
70275W        W42700  18.726   2.468  14.396
70276W        W42701  43.815  14.724   3.258
70277W        W42702  32.309  22.336   1.695
70278W        W42703  20.715  16.573   2.883
70279W        W42704  18.687  10.763  12.900
70280W        W42705   8.311  43.873  13.844
70281W        W42706  30.993  17.325  12.384
70282W        W42707  37.082  38.866  12.388
70283W        W42708  42.026  26.662   3.220
70284W        W42709  10.595   8.801  14.048
70285W        W42710  14.411  43.987  12.557
70286W        W42711  40.509  12.704   2.841
70287W        W42712  33.150   8.671  12.368
70288W        W42713   3.348   8.746  14.771
70289W        W42714  28.763  26.781  14.301
70290W        W42715   9.452   4.713   3.274
70291W        W42716  32.934  25.543   3.940
70292W        W42717  29.629  17.939  12.653
70293W        W42718  44.974  12.214  10.701
70294W        W42719  32.990  13.677  11.644
70295W        W42720  23.165  24.938   0.007
70296W        W42721  28.121  35.714   4.534
70297W        W42722  44.446  24.841   2.033
70298W        W42723  39.957  12.654  10.307
70299W        W42724  13.716   0.941   1.079
70300W        W42725  42.821  32.850  13.867
70301W        W42726  35.170  40.379  12.383
70302W        W42727  21.493   0.058  10.752
70303W        W42728  38.748  44.248   4.245
70304W        W42729   4.735  34.880  10.892
70305W        W42730  44.488  18.249   0.424
70306W        W42731  32.622  27.236   3.391
70307W        W42732  28.864  30.856  14.707
70308W        W42733  24.521   1.555  11.219
70309W        W42734  25.285  26.689   2.792
70310W        W42735   7.878  41.565   2.172
70311W        W42736   0.976  34.606  12.984
70312W        W42737  34.964   2.432  11.734
70313W        W42738  15.601  14.639   2.394
70314W        W42739  20.259   8.239  11.704
70315W        W42740  34.848  29.548   2.804
70316W        W42741  30.080  39.929  13.105
70317W        W42742   0.791  42.959  12.098
70318W        W42743  34.541  22.522  12.536
70319W        W42744  23.529  16.722   4.291
70320W        W42745  40.354  11.730  13.464
70321W        W42746   2.973   0.314   3.520
70322W        W42747  33.576  35.619  13.002
70323W        W42748  11.914  15.380   2.920
70324W        W42749  15.697   8.524  10.826
70325W        W42750  15.125  30.403  11.800
70326W        W42751  19.593  44.491   4.539
70327W        W42752   3.197  38.883  14.301
70328W        W42753   7.698  36.945  14.744
70329W        W42754  35.943  30.941  13.787
70330W        W42755  23.215  31.067  11.546
70331W        W42756  15.965  21.717  11.492
70332W        W42757  19.561  24.544   3.735
70333W        W42758   9.238  39.649   4.119
70334W        W42759  11.726  42.768   0.436
70335W        W42760  22.618  24.516  11.854
70336W        W42761  34.539  42.327   4.267
70337W        W42762  35.862   6.639  12.165
70338W        W42763  14.204   0.377   1.354
70339W        W42764  27.961   8.822  11.824
70340W        W42765  28.437  43.345  14.408
70341W        W42766   2.753  17.346   1.305
70342W        W42767   1.882  23.633   4.320
70343W        W42768  28.984  11.593   4.364
70344W        W42769   7.852   6.344  12.829
70345W        W42770  44.325  36.430   1.472
70346W        W42771  31.982  15.256  13.373
70347W        W42772  33.368  41.377   1.280
70348W        W42773   9.391  42.339   0.400
70349W        W42774   4.739  41.766  14.201
70350W        W42775  11.143   1.429  12.415
70351W        W42776  31.932  14.889   1.279
70352W        W42777  34.685  36.640   3.718
70353W        W42778  15.426  29.368  11.603
70354W        W42779  33.896  36.510   2.653
70355W        W42780  12.321  31.154  14.931
70356W        W42781  35.508  32.901   0.174
70357W        W42782  29.955  42.381   2.345
70358W        W42783  20.503  24.582   0.340
70359W        W42784  19.806  43.092   1.004
70360W        W42785  23.896  14.715   0.466
70361W        W42786  26.230  25.011  10.968
70362W        W42787  11.455  42.660  12.055
70363W        W42788  11.332  23.539  11.036
70364W        W42789  17.618  18.086  12.414
70365W        W42790  42.906  20.773   1.343
70366W        W42791  42.785  26.722  11.162
70367W        W42792  25.000  18.784   4.722
70368W        W42793   9.086   0.290  11.965
70369W        W42794  15.837  30.678  12.925
70370W        W42795   8.861  37.037   2.467
70371W        W42796   5.594  13.187  13.661
70372W        W42797  26.243  40.524   1.480
70373W        W42798  34.326  22.491  13.458
70374W        W42799  22.781  10.678  13.952
70375W        W42800  36.552  43.854  11.159
70376W        W42801   9.884   7.409   4.063
70377W        W42802   9.573   5.299  14.913
70378W        W42803   5.908   0.935  12.426
70379W        W42804  12.668  30.097   0.533
70380W        W42805  19.541  40.498  13.580
70381W        W42806  11.913  39.900  11.679
70382W        W42807  23.713   0.346  14.984
70383W        W42808  17.842   9.134   2.282
70384W        W42809   2.385  13.118   1.007
70385W        W42810  18.653   7.290  10.329
70386W        W42811   1.368  20.577   2.215
70387W        W42812  23.985  19.231   0.046
70388W        W42813  26.327  12.076  13.492
70389W        W42814  30.518  20.788   3.668
70390W        W42815  26.000  41.107   4.482
70391W        W42816  12.300  22.132  13.080
70392W        W42817  43.620  22.404  11.488
70393W        W42818   9.772  32.959  12.929
70394W        W42819   0.913  24.282  11.581
70395W        W42820  27.904  40.360   2.752
70396W        W42821  29.213  23.810  10.642
70397W        W42822  26.533   8.534  10.876
70398W        W42823  26.517   5.733  12.403
70399W        W42824  30.017  37.893   0.767
70400W        W42825  27.785  43.067  11.118
70401W        W42826   1.729   9.268  14.043
70402W        W42827  18.550  33.553   2.903
70403W        W42828  38.035  19.749  13.348
70404W        W42829   3.609  37.476  10.508
70405W        W42830  20.061  35.239   4.268
70406W        W42831  28.924  36.928   3.888
70407W        W42832  18.308  11.266  10.725
70408W        W42833  26.149   8.882   1.132
70409W        W42834  18.030  25.623   2.076
70410W        W42835  40.435   1.209   2.160
70411W        W42836  41.558  16.565   3.389
70412W        W42837  25.802  42.887   1.539
70413W        W42838  21.336  14.608  14.522
70414W        W42839  23.479  13.858  13.338
70415W        W42840  31.010  39.781   3.230
70416W        W42841  19.722  15.790   3.547
70417W        W42842  28.130  17.791   4.822
70418W        W42843  19.091  30.039  14.270
70419W        W42844   0.479  19.204  11.540
70420W        W42845  25.498  23.107  10.734
70421W        W42846  21.593   2.294  14.488
70422W        W42847   1.348  32.934   1.823
70423W        W42848  18.938  35.635  13.397
70424W        W42849  28.604  10.921   2.685
70425W        W42850  34.037  27.545  13.130
70426W        W42851  43.252  24.500   0.748
70427W        W42852  41.430  36.703  10.572
70428W        W42853  42.444  23.114   2.865
70429W        W42854  20.272  30.505  14.357
70430W        W42855  29.089  32.472   0.781
70431W        W42856  33.032  14.527  12.201
70432W        W42857   4.660  33.112  13.321
70433W        W42858  42.559  30.353   2.259
70434W        W42859  24.775   0.472  11.097
70435W        W42860  14.092  41.086  14.314
70436W        W42861  43.310   5.331  12.436
70437W        W42862  19.997  30.779   9.550
70438W        W42863  16.954  38.710   2.347
70439W        W42864  23.093  35.055   4.779
70440W        W42865  24.110  39.084   3.651
70441W        W42866  17.192   9.733   3.125
70442W        W42867  15.259  14.888  13.664
70443W        W42868  16.319   6.661  12.093
70444W        W42869  20.184  23.117   2.787
70445W        W42870   8.892  24.608  11.199
70446W        W42871   0.793  31.467   0.343
70447W        W42872   3.421   0.150  10.698
70448W        W42873   6.321  18.802   0.459
70449W        W42874  34.090  43.606  14.026
70450W        W42875  14.166  39.325  10.704
70451W        W42876   5.406   2.481   4.811
70452W        W42877   1.258  41.489   2.896
70453W        W42878  38.288  15.559  11.078
70454W        W42879   1.219   7.716  10.718
70455W        W42880   6.463   5.788   4.511
70456W        W42881   1.426  11.099  11.071
70457W        W42882  26.917  41.656   4.971
70458W        W42883  30.512  11.790  14.310
70459W        W42884   2.403  19.441   0.025
70460W        W42885  27.626   3.713   1.894
70461W        W42886  33.836   2.896  14.416
70462W        W42887  41.000  18.744  12.012
70463W        W42888  36.892   9.912   1.681
70464W        W42889   3.321  36.012  10.676
70465W        W42890  40.379  37.393   4.957
70466W        W42891  37.577  18.790   0.211
70467W        W42892  13.138  18.519   0.887
70468W        W42893   1.988  36.127   4.085
70469W        W42894  20.112   0.051  10.802
70470W        W42895  10.653  40.849   4.222
70471W        W42896  24.123  11.267   2.822
70472W        W42897   3.405  31.567  12.209
70473W        W42898   7.904  21.573  10.555
70474W        W42899   1.257  41.008   3.087
70475W        W42900   4.242  30.090   4.532
70476W        W42901  16.300  41.831   2.725
70477W        W42902  21.616  44.884   0.448
70478W        W42903   5.815  21.419  10.793
70479W        W42904  11.245  29.586  14.424
70480W        W42905  17.092  13.757  11.437
70481W        W42906  23.561  14.219  11.578
70482W        W42907  17.364  12.123   1.150
70483W        W42908   4.239  11.339   4.637
70484W        W42909  25.678  15.018  10.568
70485W        W42910  17.243   4.025   1.444
70486W        W42911  30.450   7.030   1.344
70487W        W42912  29.160   9.316  11.474
70488W        W42913   1.414  13.772   1.325
70489W        W42914  44.726   2.396   4.986
70490W        W42915   8.223   6.246  14.543
70491W        W42916  16.216  35.924  10.345
70492W        W42917  29.350  11.341  14.981
70493W        W42918  44.422  14.587   4.217
70494W        W42919   6.885   3.325  13.260
70495W        W42920  41.965  12.859   3.809
70496W        W42921  39.533  14.725  11.175
70497W        W42922  24.693  17.318  13.936
70498W        W42923  37.912  14.699  12.571
70499W        W42924   4.327   6.716   2.728
70500W        W42925  17.056  31.882  11.514
70501W        W42926   6.808  25.026   3.875
70502W        W42927  28.387  37.052   4.788
70503W        W42928   2.410  11.180  12.947
70504W        W42929  33.078  28.572  14.789
70505W        W42930  15.567  18.150  12.084
70506W        W42931  27.752  41.840   4.661
70507W        W42932   4.812  19.531  13.330
70508W        W42933   1.223  44.986  11.112
70509W        W42934  30.010  38.536  11.636
70510W        W42935  10.817  35.031  12.041
70511W        W42936  23.063  11.234   0.082
70512W        W42937  31.933  23.099   3.826
70513W        W42938   4.163   0.713  12.152
70514W        W42939  18.587   3.249  12.602
70515W        W42940  24.721  19.683   3.860
70516W        W42941  27.041  14.568  11.466
70517W        W42942  44.059  15.576   2.276
70518W        W42943   5.153   5.496  14.285
70519W        W42944  40.479  24.783   4.630
70520W        W42945  24.423  35.025   2.707
70521W        W42946  31.331  40.277   2.337
70522W        W42947  43.750  38.913  14.138
70523W        W42948  18.827  19.124   4.030
70524W        W42949  29.250  39.109   4.337
70525W        W42950  16.987   6.510  11.476
70526W        W42951  44.518  17.311  14.720
70527W        W42952  19.020  20.679   0.889
70528W        W42953  15.112  10.366   3.333
70529W        W42954  30.424   4.167   3.397
70530W        W42955  26.429   5.154  14.237
70531W        W42956   8.552  31.343   4.218
70532W        W42957  42.547  17.215   4.530
70533W        W42958  29.677   9.391  12.010
70534W        W42959   5.248  41.506  12.662
70535W        W42960  17.155  25.176  13.016
70536W        W42961  18.269   8.810   4.301
70537W        W42962  34.318  22.394   0.535
70538W        W42963  42.065   3.198   1.655
70539W        W42964  39.482   0.285   0.084
70540W        W42965  25.487  40.044  10.880
70541W        W42966  42.513   9.790   0.371
70542W        W42967  33.035   8.725  12.867
70543W        W42968  38.035  29.636  14.824
70544W        W42969  11.333  10.987  11.148
70545W        W42970  10.485   9.856  12.606
70546W        W42971  22.257   3.607  14.978
70547W        W42972  35.272  19.622   2.805
70548W        W42973   4.853  29.632   2.758
70549W        W42974  18.430   0.763   4.288
70550W        W42975  16.112  18.739   3.253
70551W        W42976   6.472   1.049  11.568
70552W        W42977   2.190  37.143   3.749
70553W        W42978  14.641  17.486   0.519
70554W        W42979   0.289  10.138   0.551
70555W        W42980  25.904   4.209  13.368
70556W        W42981  37.786  25.499  10.635
70557W        W42982  25.108  27.228   1.450
70558W        W42983  41.275   4.849   1.704
70559W        W42984  27.182  32.796  12.030
70560W        W42985  37.436  13.669  11.962
70561W        W42986  22.032  30.947   1.810
70562W        W42987  31.542   0.046   0.845
70563W        W42988  21.801  24.277  14.466
70564W        W42989  26.756  36.708   4.407
70565W        W42990  40.232   7.718   3.080
70566W        W42991   3.362  12.006   3.251
70567W        W42992   1.878  28.100  10.754
70568W        W42993  14.169   1.306  14.232
70569W        W42994  38.509   5.832   0.342
70570W        W42995  22.788   1.674  14.489
70571W        W42996  33.306   8.355   3.011
70572W        W42997  24.996  28.133   2.774
70573W        W42998  13.822   3.245   3.935
70574W        W42999  20.158  24.665  13.386
70575W        W43000  17.766  36.500  14.091
70576W        W43001  19.002  28.732   0.415
70577W        W43002  38.427  14.258   0.322
70578W        W43003  11.836  16.103  10.685
70579W        W43004   5.696  38.072   1.344
70580W        W43005  22.680  44.242  14.898
70581W        W43006  34.072  18.472   4.189
70582W        W43007  43.696  33.149  12.511
70583W        W43008  12.974  12.779   2.317
70584W        W43009  21.993  25.840   3.325
70585W        W43010  18.812   2.175  10.733
70586W        W43011   3.703  36.352   2.593
70587W        W43012   6.330  25.259   0.425
70588W        W43013  20.570  20.008   1.936
70589W        W43014  27.048   0.242   0.854
70590W        W43015   4.610   3.455   4.687
70591W        W43016  26.536  14.700  14.385
70592W        W43017  13.807   6.703  11.171
70593W        W43018   3.364  28.122   4.595
70594W        W43019  13.248  10.681   0.203
70595W        W43020   0.887   9.298   1.488
70596W        W43021  15.633  20.761   1.319
70597W        W43022   7.592  13.142   2.462
70598W        W43023  43.551  44.828   3.603
70599W        W43024  30.341  20.794  11.826
70600W        W43025  19.632  28.011   1.018
70601W        W43026  12.408  44.827  13.534
70602W        W43027  12.287   5.736   4.568
70603W        W43028  23.475  15.837  11.744
70604W        W43029  25.549  32.855  11.332
70605W        W43030   6.807  23.200   1.835
70606W        W43031  24.939   5.423  11.448
70607W        W43032  11.529  33.839   2.968
70608W        W43033  36.910  17.384   2.695
70609W        W43034  40.386  29.523   5.123
70610W        W43035   5.339  29.929   0.290
70611W        W43036  37.801  39.862   3.661
70612W        W43037   4.496  37.046   0.502
70613W        W43038   2.818  39.047  11.056
70614W        W43039  10.196  32.923   4.159
70615W        W43040  34.179  12.782  10.673
70616W        W43041   0.487   2.175   0.441
70617W        W43042  29.394  27.620   0.521
70618W        W43043  40.528   1.994  12.178
70619W        W43044   4.724  22.108   4.287
70620W        W43045  16.266  44.755   2.385
70621W        W43046   4.848  39.020  12.509
70622W        W43047   8.424   6.025   3.791
70623W        W43048   2.803  37.035   0.493
70624W        W43049  41.857  25.114  12.317
70625W        W43050  13.602  26.269  14.798
70626W        W43051   9.856  15.628  12.317
70627W        W43052  12.740  14.165   1.988
70628W        W43053  29.471  39.132   0.279
70629W        W43054   4.475  17.452  13.883
70630W        W43055  10.765  12.559   0.337
70631W        W43056  21.706  38.609   3.238
70632W        W43057   4.133  41.781   4.164
70633W        W43058  39.142  20.157   2.766
70634W        W43059  22.681  44.056  13.609
70635W        W43060  29.665  11.788  14.826
70636W        W43061  37.826   0.929  11.883
70637W        W43062   8.175  21.258  12.530
70638W        W43063  39.107  27.889   3.212
70639W        W43064   4.396  30.989  14.927
70640W        W43065  37.847  38.929  11.982
70641W        W43066   6.694   0.565  11.478
70642W        W43067   9.651  42.607   2.430
70643W        W43068  43.997  25.250   0.702
70644W        W43069   2.951   6.283   3.735
70645W        W43070  29.485  36.081  13.395
70646W        W43071   8.728   1.374   0.184
70647W        W43072  38.732  40.707  12.082
70648W        W43073  29.711  23.672  10.691
70649W        W43074  38.422  19.208   1.161
70650W        W43075  18.892  13.428  12.588
70651W        W43076  18.768   2.254  11.643
70652W        W43077  26.002  10.235  13.762
70653W        W43078  19.804  24.152  13.319
70654W        W43079  34.113  34.076   0.760
70655W        W43080  34.863  17.531  14.464
70656W        W43081  17.618  14.088   3.278
70657W        W43082  42.186  37.547   2.820
70658W        W43083  12.746  27.072   2.488
70659W        W43084  27.945   3.000   3.254
70660W        W43085  13.339  32.664  12.491
70661W        W43086  37.531  33.116   1.719
70662W        W43087  14.788  25.517   1.753
70663W        W43088  34.719  16.421   0.875
70664W        W43089   3.766  18.819  12.108
70665W        W43090  28.213  21.973  14.427
70666W        W43091  42.747  28.894  13.336
70667W        W43092  38.949  27.045  11.544
70668W        W43093   9.799   4.169   2.648
70669W        W43094  27.909  17.822   0.814
70670W        W43095  11.137  32.601  13.808
70671W        W43096   7.598  37.325  11.658
70672W        W43097   1.950  28.447  11.154
70673W        W43098  24.195  40.755   2.360
70674W        W43099  25.204  36.965   2.817
70675W        W43100  34.937   4.425   2.093
70676W        W43101  26.953   5.518   0.909
70677W        W43102  33.436  19.376   0.320
70678W        W43103  35.854   3.792   1.735
70679W        W43104  33.204  26.061   0.325
70680W        W43105  35.030  38.121  12.089
70681W        W43106   0.943  34.472  14.943
70682W        W43107  11.850  18.749   3.236
70683W        W43108  13.437  16.139   1.416
70684W        W43109  11.554  21.632   2.649
70685W        W43110  22.438   8.524  14.724
70686W        W43111  34.831  28.952  12.661
70687W        W43112  14.341  44.922   4.753
70688W        W43113  32.097   4.344  14.450
70689W        W43114  24.622   9.152   2.831
70690W        W43115   6.370  32.821  12.788
70691W        W43116  41.451  34.026   2.353
70692W        W43117  15.802  44.122   2.657
70693W        W43118  38.432  17.891  10.353
70694W        W43119   1.456  25.594   3.012
70695W        W43120  20.583  11.938  11.445
70696W        W43121  39.145   9.333   2.216
70697W        W43122   5.600  37.369   2.034
70698W        W43123  33.858  32.577  12.866
70699W        W43124  41.420   1.019   2.837
70700W        W43125  11.397  16.442  13.482
70701W        W43126  36.980   0.994  12.175
70702W        W43127  26.061   2.475   2.545
70703W        W43128  11.967   4.408  13.859
70704W        W43129  30.262  10.658  11.145
70705W        W43130  20.094   1.920  12.916
70706W        W43131  32.576  38.431  10.749
70707W        W43132  12.148  25.617  13.815
70708W        W43133   6.786   0.886  11.101
70709W        W43134   1.558  40.964   1.717
70710W        W43135  32.208  12.457   0.134
70711W        W43136  22.334  10.368  12.462
70712W        W43137  25.969  24.267   3.055
70713W        W43138  17.325   3.176  10.431
70714W        W43139  16.147  22.153  11.341
70715W        W43140  28.588  38.882  13.447
70716W        W43141  16.540  32.794  14.425
70717W        W43142  30.467  19.291  13.434
70718W        W43143  28.500  36.924  13.429
70719W        W43144  24.954  21.060  11.517
70720W        W43145  28.559   3.943  11.940
70721W        W43146  16.174  32.912   3.195
70722W        W43147   7.571   5.789  11.608
70723W        W43148  29.101  34.561   3.596
70724W        W43149   6.459  15.293   3.598
70725W        W43150  14.176   0.681  11.928
70726W        W43151  10.924  28.980  11.084
70727W        W43152  17.680  39.596   0.120
70728W        W43153  18.720  13.267  13.895
70729W        W43154   2.604  16.515  12.342
70730W        W43155  39.240  36.457   2.776
70731W        W43156  31.712  27.076  11.600
70732W        W43157  44.993  10.535   0.357
70733W        W43158  17.157  12.729  14.527
70734W        W43159   6.857  34.411  12.663
70735W        W43160  29.812   7.805   2.037
70736W        W43161  18.833  28.085  13.018
70737W        W43162  35.139  41.487   4.577
70738W        W43163   7.652  44.334  11.665
70739W        W43164  26.716   9.322  14.393
70740W        W43165  39.655  40.285   1.854
70741W        W43166  10.917  17.628  12.979
70742W        W43167  39.856   3.763  13.668
70743W        W43168  41.782   3.733  13.149
70744W        W43169  25.561   4.867   4.051
70745W        W43170  31.566  12.815  12.071
70746W        W43171  15.551  37.349   4.588
70747W        W43172  16.783   4.870  12.520
70748W        W43173  39.354  18.123  10.679
70749W        W43174   4.918  36.315   0.662
70750W        W43175  15.648  15.843  11.458
70751W        W43176  17.765   6.376   4.405
70752W        W43177  18.031  27.623  11.925
70753W        W43178   2.831  42.456   4.629
70754W        W43179  29.495  10.845   1.979
70755W        W43180  24.292   5.944  14.933
70756W        W43181   4.296  26.045   0.045
70757W        W43182  44.584  26.664   4.604
70758W        W43183  29.120  25.485   4.165
70759W        W43184  17.468   1.457   2.786
70760W        W43185  16.124  22.576   1.601
70761W        W43186  42.235   5.631   4.509
70762W        W43187  38.544  35.590  12.537
70763W        W43188  32.303  29.469  11.065
70764W        W43189  13.555  34.337  11.022
70765W        W43190   9.217   8.640   5.490
70766W        W43191   9.888  20.219   2.703
70767W        W43192  24.424  36.813  11.624
70768W        W43193  24.936   6.782  13.827
70769W        W43194  31.322  42.856   2.929
70770W        W43195  10.767  36.133   3.084
70771W        W43196   4.154   7.712   3.751
70772W        W43197  43.787  16.315  13.795
70773W        W43198  20.605   0.838  14.786
70774W        W43199  17.609   2.490  10.947
70775W        W43200  21.916  35.600   1.879
70776W        W43201   6.191  43.944   2.921
70777W        W43202  15.751   9.944   3.211
70778W        W43203   7.403   6.166   3.177
70779W        W43204   3.963   2.840  13.771
70780W        W43205  20.255  20.780  11.122
70781W        W43206  15.604  38.974  12.346
70782W        W43207  14.203  23.054  14.295
70783W        W43208  32.327   3.477  12.574
70784W        W43209  35.014  35.353  12.962
70785W        W43210  38.848  27.078   1.983
70786W        W43211  23.622   9.200  13.195
70787W        W43212  27.548   0.669  13.574
70788W        W43213  33.369  44.831   0.065
70789W        W43214  26.044  40.586  14.386
70790W        W43215  42.807  21.019   3.942
70791W        W43216  26.035  10.870  11.252
70792W        W43217  38.960  27.107  14.921
70793W        W43218   9.260  32.927  14.972
70794W        W43219  21.513  27.547   1.607
70795W        W43220   4.822  32.263  10.315
70796W        W43221  41.304  17.680  12.950
70797W        W43222  28.671   6.337  14.046
70798W        W43223  34.122  40.266   3.082
70799W        W43224  20.059  32.444  12.828
70800W        W43225  17.541  43.982  13.988
70801W        W43226   4.555  37.030  14.636
70802W        W43227  10.656  26.745   4.182
70803W        W43228  39.345  34.135   2.595
70804W        W43229   5.446   2.194  12.567
70805W        W43230  13.708   3.760  11.810
70806W        W43231  31.234   4.771  13.576
70807W        W43232  43.865  33.931   1.448
70808W        W43233  33.611  42.271  13.053
70809W        W43234  22.985  44.068   4.780
70810W        W43235  16.121   1.314  12.429
70811W        W43236  26.595  38.426   3.905
70812W        W43237  12.187  15.111   2.209
70813W        W43238  36.686   6.836   1.981
70814W        W43239  12.390   9.867  14.421
70815W        W43240  11.689  18.144   3.897
70816W        W43241  19.769   1.862   2.864
70817W        W43242  36.117  37.076  14.507
70818W        W43243  17.181  29.404  14.850
70819W        W43244   2.566  14.300   2.222
70820W        W43245  17.762  21.122  10.957
70821W        W43246  13.087  31.989   2.855
70822W        W43247  35.598   1.756  13.937
70823W        W43248  21.731  24.061   1.424
70824W        W43249   9.953  20.018   3.663
70825W        W43250  32.463  28.006  13.080
70826W        W43251  22.333   2.762  12.039
70827W        W43252  26.010  16.075  11.051
70828W        W43253  43.415  40.133  13.970
70829W        W43254  20.538  25.577   1.355
70830W        W43255   4.999  20.611  14.429
70831W        W43256  33.343  34.896  14.631
70832W        W43257   3.252  17.593  11.214
70833W        W43258  29.136   9.659   1.922
70834W        W43259  13.076  24.090   3.592
70835W        W43260  41.237  26.567   4.611
70836W        W43261  29.703  28.088  10.570
70837W        W43262  30.774   1.335   3.651
70838W        W43263   1.433  37.994  14.392
70839W        W43264  40.033  30.502  13.986
70840W        W43265   9.532  14.687   4.056
70841W        W43266  33.926  31.351  14.293
70842W        W43267   1.005  38.367  14.059
70843W        W43268  23.279   5.905  13.743
70844W        W43269   6.476   8.021  12.410
70845W        W43270  36.995  27.601  14.712
70846W        W43271  27.439  13.325  14.032
70847W        W43272  39.764   4.379  13.071
70848W        W43273   2.735  37.629  12.108
70849W        W43274  34.804  21.125   2.720
70850W        W43275   8.614   5.636   0.846
70851W        W43276  17.881  32.494  10.985
70852W        W43277  24.193  38.318   0.352
70853W        W43278  44.753  20.037   2.861
70854W        W43279  10.832   2.382  11.154
70855W        W43280  43.791  43.756  13.492
70856W        W43281  27.729   0.415   1.677
70857W        W43282  18.604   5.671  14.992
70858W        W43283   6.805   9.740  14.819
70859W        W43284  36.147   2.509   0.299
70860W        W43285   3.267  32.491   0.559
70861W        W43286   6.345  43.736   4.863
70862W        W43287  12.979  40.377   3.031
70863W        W43288  24.035  11.042   5.409
70864W        W43289  26.575  41.010   3.734
70865W        W43290   6.858  25.745   4.776
70866W        W43291  36.990  14.635   0.341
70867W        W43292  38.581   3.795  11.878
70868W        W43293  33.083  22.554  11.398
70869W        W43294   1.318  42.716  11.620
70870W        W43295  23.996  16.192  14.357
70871W        W43296  14.290  25.942  11.221
70872W        W43297  36.037  43.999  12.773
70873W        W43298  30.442  27.100  14.195
70874W        W43299  18.937  11.799   5.086
70875W        W43300  42.605  41.227  13.621
70876W        W43301  23.532  40.511   1.821
70877W        W43302  10.734  38.066   2.246
70878W        W43303  21.019  38.867  13.772
70879W        W43304   4.327  38.271  12.553
70880W        W43305  16.855  32.998  12.372
70881W        W43306  35.676   8.604  11.244
70882W        W43307  19.126  25.285   2.820
70883W        W43308  28.083   7.620   0.060
70884W        W43309  41.762  12.344   1.181
70885W        W43310  12.045  30.582  11.593
70886W        W43311  28.297  29.478   3.029
70887W        W43312   8.991  37.511   3.309
70888W        W43313  42.866  19.949  11.152
70889W        W43314   7.410  42.718  12.789
70890W        W43315  37.854   8.342  13.441
70891W        W43316  24.627  12.412   2.852
70892W        W43317   6.163  31.934  13.019
70893W        W43318   7.536  34.876   9.873
70894W        W43319  30.466   6.456  11.435
70895W        W43320  14.345  28.814   4.193
70896W        W43321  20.622  21.234  14.038
70897W        W43322   5.354  15.340  12.416
70898W        W43323   0.571  42.853   4.190
70899W        W43324   7.136  30.036  13.667
70900W        W43325  35.068  17.032   3.118
70901W        W43326  44.597  36.982  13.920
70902W        W43327  39.472  36.299  11.561
70903W        W43328  16.269  16.367   0.638
70904W        W43329  22.945  22.448   1.848
70905W        W43330  14.826  39.538   1.444
70906W        W43331   8.936  10.873   3.870
70907W        W43332  28.013   8.693  13.283
70908W        W43333  19.318  11.831  14.910
70909W        W43334  26.650   6.713   4.974
70910W        W43335   6.184  15.813   0.372
70911W        W43336  22.734  27.078   3.488
70912W        W43337  27.570  11.792   2.873
70913W        W43338  23.348  40.760  11.342
70914W        W43339   3.111  20.740   0.778
70915W        W43340  19.682  34.426   4.239
70916W        W43341  29.188  35.807  14.134
70917W        W43342  27.060   4.624   4.747
70918W        W43343  10.354   6.366   9.794
70919W        W43344  31.404  25.635  13.037
70920W        W43345  39.905  28.698  14.923
70921W        W43346  10.666  20.949  12.205
70922W        W43347  38.432  37.589   1.721
70923W        W43348  32.062  37.991  13.899
70924W        W43349   9.007   7.320   0.888
70925W        W43350   6.823   1.858   0.993
70926W        W43351  15.129  11.156  13.823
70927W        W43352  20.646   3.456   4.587
70928W        W43353  18.466   4.741  12.539
70929W        W43354  28.441  30.393  11.641
70930W        W43355  32.239   5.122  14.056
70931W        W43356  24.257  44.411  12.144
70932W        W43357   8.918   5.756   4.568
70933W        W43358  28.168   3.271   4.214
70934W        W43359   5.325  27.042  14.619
70935W        W43360  38.767   8.411   4.665
70936W        W43361  20.194  31.843   3.753
70937W        W43362  26.760  41.731  12.854
70938W        W43363   2.988  39.662  12.580
70939W        W43364  24.373  12.450   2.105
70940W        W43365  28.916  43.203   3.764
70941W        W43366  42.447  42.945   0.187
70942W        W43367  38.075  11.168   1.003
70943W        W43368  18.030  15.871   0.817
70944W        W43369  10.282  30.230   0.003
70945W        W43370   8.214  19.003  12.079
70946W        W43371  27.938  25.799  13.797
70947W        W43372  26.016  31.109   0.569
70948W        W43373  16.168  17.001   3.671
70949W        W43374   3.230  40.332   1.884
70950W        W43375   4.991  21.115  11.301
70951W        W43376  32.549  42.341   4.583
70952W        W43377   4.043  40.430   1.467
70953W        W43378   3.236  19.395   0.614
70954W        W43379  40.911  15.619   1.083
70955W        W43380  20.672  19.195  13.836
70956W        W43381  15.461   9.965   1.591
70957W        W43382  31.012  19.274   3.616
70958W        W43383  11.565  42.477   1.972
70959W        W43384   9.469  24.746  12.919
70960W        W43385  16.203   8.634   0.300
70961W        W43386  31.035   3.289   2.272
70962W        W43387  43.881   0.780   1.412
70963W        W43388  36.486   5.182   0.432
70964W        W43389  12.704   0.995  13.503
70965W        W43390  12.304  28.017  11.209
70966W        W43391  28.322  14.222   5.036
70967W        W43392  39.443  34.033  12.961
70968W        W43393  25.737  34.923   3.336
70969W        W43394   2.667  27.987  12.583
70970W        W43395  44.068  27.021  13.833
70971W        W43396  29.979   3.450  13.361
70972W        W43397   3.387  22.116  12.315
70973W        W43398  14.216  25.221  10.012
70974W        W43399  43.305  40.957   1.271
70975W        W43400  17.985  44.812   3.515
70976W        W43401  32.377  18.503   1.646
70977W        W43402  27.688   8.426  12.137
70978W        W43403  38.275  20.112   3.244
70979W        W43404  15.828  20.114  11.891
70980W        W43405   5.734   7.211   4.903
70981W        W43406  34.858  35.332  13.481
70982W        W43407  16.774   7.945  11.994
70983W        W43408   7.578  36.977   0.919
70984W        W43409  18.363   7.868   4.484
70985W        W43410  17.542  11.600   2.251
70986W        W43411  44.907  25.949  13.540
70987W        W43412  16.810  22.670   2.801
70988W        W43413  21.416   7.142   0.857
70989W        W43414  15.411   8.144   0.301
70990W        W43415  31.997  38.254   0.435
70991W        W43416  16.234  36.785  14.433
70992W        W43417  11.549  18.951  14.262
70993W        W43418  30.791   9.324  13.502
70994W        W43419  10.625   4.303  12.489
70995W        W43420  38.742   1.977  11.005
70996W        W43421  10.188   1.065   3.807
70997W        W43422  34.832   7.277  10.040
70998W        W43423  30.062  34.494   3.592
70999W        W43424  43.936  34.552   2.274
71000W        W43425   0.393  11.643   1.678
71001W        W43426  21.047  29.172   3.516
71002W        W43427  29.967  32.348   2.739
71003W        W43428   7.812  20.591  12.973
71004W        W43429  18.875  43.157  11.055
71005W        W43430  36.929  22.898   1.472
71006W        W43431  39.583  34.576   2.728
71007W        W43432  15.204  11.741   3.098
71008W        W43433   9.834  21.625  13.605
71009W        W43434  26.210  32.087  11.040
71010W        W43435  41.371  39.800   0.301
71011W        W43436  22.974  10.169  10.973
71012W        W43437  13.664   6.218   4.197
71013W        W43438  32.940  14.566   2.271
71014W        W43439  32.202  26.895   3.431
71015W        W43440  41.881  12.844  13.078
71016W        W43441  42.372   1.965   2.029
71017W        W43442  14.324   2.695  14.288
71018W        W43443  30.415  10.707   1.850
71019W        W43444  31.375  36.464  14.873
71020W        W43445  27.997   3.560   4.621
71021W        W43446   7.783  24.610  14.372
71022W        W43447   9.310  39.772  12.539
71023W        W43448  13.636  40.821  13.368
71024W        W43449  31.106  38.942  14.188
71025W        W43450  14.325  37.481   1.135
71026W        W43451  42.083  19.846   3.215
71027W        W43452  14.066  29.277  12.103
71028W        W43453  23.736  26.181   1.092
71029W        W43454  22.065  21.272   4.144
71030W        W43455  10.450  20.061   3.741
71031W        W43456  42.912  12.927  11.418
71032W        W43457   6.799  43.406   2.038
71033W        W43458  39.018  11.403  14.880
71034W        W43459  13.588  20.379  12.043
71035W        W43460  13.691  18.684  10.643
71036W        W43461  30.847   3.818  14.349
71037W        W43462  12.071  11.237  11.589
71038W        W43463  38.486   6.757  13.267
71039W        W43464  16.583  28.277   1.457
71040W        W43465  33.895  16.888   2.074
71041W        W43466  12.107  18.801  10.678
71042W        W43467  27.984   0.368   4.518
71043W        W43468  44.828  34.755   4.617
71044W        W43469  12.405  34.849   0.014
71045W        W43470   5.369  22.275   3.782
71046W        W43471  15.728   1.291  14.387
71047W        W43472  14.893  29.537  14.767
71048W        W43473  19.913  20.775   2.339
71049W        W43474  34.486  36.434  11.703
71050W        W43475  12.100  17.206  14.335
71051W        W43476  21.223  41.594   3.539
71052W        W43477  43.314  42.337  12.296
71053W        W43478  38.342  17.605   0.839
71054W        W43479  25.330  28.134  10.310
71055W        W43480  31.504  42.473   0.731
71056W        W43481  23.919  24.184  10.641
71057W        W43482  20.288  28.902   1.747
71058W        W43483  33.347  32.461  12.891
71059W        W43484   7.516  23.650  13.422
71060W        W43485  25.216   9.286  13.118
71061W        W43486  13.932  30.067  14.528
71062W        W43487  42.702   0.145  14.413
71063W        W43488  36.321  22.720   3.803
71064W        W43489  44.322  43.852  12.322
71065W        W43490   1.712   5.373   4.302
71066W        W43491   4.142  16.565   2.652
71067W        W43492  12.724  33.623  12.984
71068W        W43493  15.670   9.308   0.330
71069W        W43494  34.947   8.702   4.539
71070W        W43495  37.808  37.145  11.159
71071W        W43496  18.541  35.363  12.510
71072W        W43497  19.193  44.897   3.211
71073W        W43498  21.003  14.800   5.020
71074W        W43499  22.709  25.199  14.998
71075W        W43500  42.807  22.440   2.127
71076W        W43501  40.545  36.899   4.787
71077W        W43502  20.099   0.090   3.160
71078W        W43503  43.740   6.377   3.647
71079W        W43504   4.265  35.380  11.130
71080W        W43505   2.179   2.424   4.552
71081W        W43506  38.469  21.221  11.380
71082W        W43507   6.466   1.068   4.984
71083W        W43508  20.554  13.281  13.528
71084W        W43509  21.578  30.458   0.844
71085W        W43510  19.687  44.757   3.156
71086W        W43511   7.077   5.689  11.748
71087W        W43512  28.669  29.432   1.303
71088W        W43513  21.398   1.227  11.268
71089W        W43514  23.777  42.884   1.828
71090W        W43515  18.208  27.219  11.628
71091W        W43516   1.841  37.854  10.976
71092W        W43517  37.641  35.516   3.403
71093W        W43518  22.288  39.959   0.952
71094W        W43519  25.884  33.741   1.309
71095W        W43520   8.163  12.774   0.560
71096W        W43521  37.156  34.944   1.330
71097W        W43522   8.624  28.588   1.512
71098W        W43523   3.364  10.687   0.476
71099W        W43524  41.187  43.289   4.192
71100W        W43525  39.821  37.808  14.925
71101W        W43526   5.846  10.376  11.358
71102W        W43527   1.744  17.795   2.802
71103W        W43528  26.164  42.503   4.814
71104W        W43529  39.388   2.463   1.589
71105W        W43530   0.193   1.864   1.797
71106W        W43531  27.109  43.881  10.880
71107W        W43532  42.782   5.306   3.186
71108W        W43533  19.825  19.990   4.117
71109W        W43534   1.452  40.382   0.906
71110W        W43535  22.900  26.598  12.094
71111W        W43536  33.065   2.461  14.805
71112W        W43537   6.659  17.094   0.711
71113W        W43538  40.999  18.426   2.669
71114W        W43539  36.499  32.295  10.435
71115W        W43540  22.243   2.734  13.129
71116W        W43541  23.086  39.552   0.734
71117W        W43542  23.770  10.744  13.027
71118W        W43543  22.120  40.918   2.340
71119W        W43544  44.013   1.397  11.653
71120W        W43545  27.424  11.728  12.512
71121W        W43546  14.071  41.980   1.342
71122W        W43547  38.531   1.774   3.070
71123W        W43548  18.645   7.347  11.220
71124W        W43549  30.122  18.412  10.567
71125W        W43550  34.710   4.384  14.187
71126W        W43551  27.696  43.755  14.831
71127W        W43552  33.140  17.318  14.442
71128W        W43553   1.902   8.751  13.516
71129W        W43554  34.360  20.545   2.351
71130W        W43555  43.367   8.158   0.800
71131W        W43556  13.131  21.120  11.053
71132W        W43557  32.933  34.138  10.673
71133W        W43558  16.990  23.926  12.129
71134W        W43559  34.412  33.857   1.128
71135W        W43560   8.690  40.295   1.667
71136W        W43561  12.121  10.960  12.114
71137W        W43562  13.536   9.819  13.554
71138W        W43563  22.526  34.106  11.366
71139W        W43564  30.388  35.600  11.916
71140W        W43565  26.371  32.617  10.985
71141W        W43566  14.328  10.182   2.846
71142W        W43567  13.853  12.301   1.644
71143W        W43568  24.434  19.652   0.370
71144W        W43569  18.670  28.183   4.083
71145W        W43570  22.126  31.960  10.889
71146W        W43571  31.362   0.809  12.122
71147W        W43572  41.469  25.536   0.266
71148W        W43573   8.451  18.339   2.870
71149W        W43574  25.447  32.925   0.711
71150W        W43575  35.534  21.259  13.442
71151W        W43576   2.974  41.325  13.907
71152W        W43577  16.265  37.616  13.936
71153W        W43578  27.505  10.043  13.059
71154W        W43579  17.666  34.033  13.923
71155W        W43580  31.521  25.583   1.793
71156W        W43581   6.143  29.848  13.353
71157W        W43582  22.500  12.122  13.855
71158W        W43583  22.112   9.745  12.886
71159W        W43584  21.099   5.843   2.785
71160W        W43585  30.393   4.756   0.408
71161W        W43586  19.901   7.394  10.688
71162W        W43587  24.763  15.842  11.539
71163W        W43588  22.485  11.575   0.396
71164W        W43589  10.853  14.125  10.577
71165W        W43590  36.923  43.282  10.609
71166W        W43591  28.983  42.310   4.572
71167W        W43592  31.872  27.108   3.767
71168W        W43593  14.168   0.699   0.932
71169W        W43594  22.657  39.885   1.943
71170W        W43595   9.380  25.054   2.328
71171W        W43596  28.984  11.047  11.023
71172W        W43597  17.044  42.384  10.544
71173W        W43598  32.946  18.460   0.084
71174W        W43599  36.094  13.836  11.366
71175W        W43600  31.602  43.427  14.072
71176W        W43601  33.840  37.600   4.148
71177W        W43602  15.187  32.125   0.175
71178W        W43603  23.735  43.037  13.057
71179W        W43604  29.357  37.469  14.900
71180W        W43605  15.825  19.737  13.504
71181W        W43606  38.841  29.666  12.928
71182W        W43607   6.298  30.146  11.134
71183W        W43608  11.681  10.341  10.816
71184W        W43609  40.078  38.170  14.430
71185W        W43610   3.441  44.291   0.951
71186W        W43611  23.300  31.446  13.949
71187W        W43612   9.859  36.971  10.805
71188W        W43613  20.698  43.708   0.796
71189W        W43614   4.870  22.505   2.428
71190W        W43615  42.971   0.790   4.582
71191W        W43616  14.794  16.805   3.838
71192W        W43617  28.562  37.613  12.000
71193W        W43618  17.794   1.548  10.985
71194W        W43619   8.213  25.400  12.913
71195W        W43620  18.664  20.974  12.915
71196W        W43621  23.134  28.877  12.045
71197W        W43622  42.081  26.261  11.236
71198W        W43623  21.536  37.077  10.698
71199W        W43624  22.919   8.461   0.010
71200W        W43625  39.571  11.614  11.631
71201W        W43626  36.644   3.288   2.674
71202W        W43627  28.885   9.294   2.183
71203W        W43628  13.336  19.095  14.338
71204W        W43629   7.665   7.669   2.248
71205W        W43630  33.565  24.768  14.955
71206W        W43631  36.565  14.879  12.329
71207W        W43632  15.100  29.448   0.794
71208W        W43633  22.116  13.749  11.269
71209W        W43634  26.069  13.782  10.708
71210W        W43635  16.037  30.196  11.454
71211W        W43636  43.219  20.365   1.306
71212W        W43637  17.158  29.919  14.781
71213W        W43638  22.172  28.526   2.768
71214W        W43639  33.532  27.822  11.083
71215W        W43640   3.745  24.114   0.803
71216W        W43641  33.099  22.967  14.851
71217W        W43642  26.491  28.017  14.349
71218W        W43643   4.448  22.115   3.843
71219W        W43644  25.602  16.537   1.459
71220W        W43645   6.076  15.540  11.318
71221W        W43646   5.881  41.351   4.220
71222W        W43647  20.648  19.667   2.826
71223W        W43648  23.603  20.502  13.784
71224W        W43649  21.180   5.918   2.263
71225W        W43650  39.785  21.640   1.860
71226W        W43651  14.289  40.026  11.451
71227W        W43652  38.288  40.316  14.998
71228W        W43653   8.529  12.101   0.941
71229W        W43654   9.618  39.350  12.599
71230W        W43655  19.290  32.816   3.695
71231W        W43656   1.070  38.080   3.281
71232W        W43657  40.645  36.490  11.199
71233W        W43658  36.990  34.109  10.423
71234W        W43659  11.491  35.486   0.017
71235W        W43660  18.200   6.152  11.229
71236W        W43661  25.462  17.705  13.584
71237W        W43662  11.874  40.359  11.930
71238W        W43663  33.750  42.062  13.772
71239W        W43664  43.398   7.385   3.091
71240W        W43665  13.564   8.908   3.614
71241W        W43666   8.782   1.509   1.225
71242W        W43667  22.142  21.670   1.010
71243W        W43668  13.831   6.937   1.285
71244W        W43669  25.159  38.360   3.220
71245W        W43670  41.950  25.601  10.629
71246W        W43671  42.084  39.818   3.065
71247W        W43672  41.007  11.521  14.075
71248W        W43673   7.934  33.521   2.774
71249W        W43674  22.093  32.921  11.512
71250W        W43675   5.109  42.899   0.468
71251W        W43676  27.226   2.946  12.222
71252W        W43677   9.505  19.635   1.202
71253W        W43678  26.575   4.900  12.871
71254W        W43679   2.900   4.244   1.087
71255W        W43680  32.911  26.702  10.449
71256W        W43681  12.745  14.164   1.465
71257W        W43682  39.785  13.640  14.079
71258W        W43683  15.185   3.832   1.187
71259W        W43684  30.574   3.390   4.678
71260W        W43685  30.422  35.752   3.281
71261W        W43686  16.076  10.551   0.404
71262W        W43687  17.888  16.081  14.604
71263W        W43688  26.250  43.613   2.446
71264W        W43689  13.038  32.939   1.425
71265W        W43690  33.886   7.937  10.750
71266W        W43691  32.151  12.078   0.541
71267W        W43692  32.366   4.406   0.702
71268W        W43693  34.914  17.228   0.676
71269W        W43694  38.495   4.255  12.544
71270W        W43695  44.096  25.287  13.576
71271W        W43696  42.352  32.530   4.557
71272W        W43697  38.954  11.633   2.617
71273W        W43698   1.546  32.936   2.305
71274W        W43699  38.076  43.531  11.946
71275W        W43700  19.478   5.394  14.367
71276W        W43701  14.583   6.094  11.822
71277W        W43702  20.238  16.190  10.761
71278W        W43703   3.538  17.490   3.220
71279W        W43704   3.225  36.362   2.376
71280W        W43705  34.103  31.007  10.739
71281W        W43706  40.893  18.236   1.306
71282W        W43707   1.732  35.865  12.024
71283W        W43708   5.797   1.301   2.137
71284W        W43709   5.046  21.655   3.196
71285W        W43710  30.945  30.942  10.863
71286W        W43711  44.441   2.835   1.960
71287W        W43712  15.083  19.666  12.110
71288W        W43713  20.191  38.979  13.096
71289W        W43714  16.635  41.897  14.528
71290W        W43715  41.307  38.252   4.147
71291W        W43716  29.093   8.779  10.703
71292W        W43717  23.542  10.438  13.687
71293W        W43718  25.897  10.756   4.463
71294W        W43719  11.139   3.495  14.916
71295W        W43720   0.560   6.679  11.020
71296W        W43721  24.206  16.618  14.542
71297W        W43722   8.939  26.883   3.748
71298W        W43723   1.934  43.791   1.196
71299W        W43724  37.396  21.133   3.227
71300W        W43725  34.894  37.783   3.353
71301W        W43726  34.135   6.786   0.453
71302W        W43727   4.726  34.328   3.244
71303W        W43728  17.168  11.157   2.698
71304W        W43729  11.865  28.324  12.961
71305W        W43730  17.595  22.075  13.191
71306W        W43731  14.716   1.437  14.510
71307W        W43732  23.521   8.407   4.062
71308W        W43733  20.144   2.955   2.423
71309W        W43734  33.695  32.459  13.784
71310W        W43735   9.244   8.875  11.461
71311W        W43736  32.235  31.420   1.359
71312W        W43737  40.703  36.053  11.455
71313W        W43738   5.182  17.630  13.448
71314W        W43739  24.240  40.232   2.335
71315W        W43740  19.004  30.573  11.596
71316W        W43741  43.847  12.804  13.472
71317W        W43742  42.266  36.757   3.270
71318W        W43743  23.172  25.736   2.313
71319W        W43744  30.054   5.260  11.637
71320W        W43745  14.086  23.296   4.757
71321W        W43746   9.246  33.048  13.219
71322W        W43747  14.512   5.668   3.403
71323W        W43748   6.322  13.318   0.410
71324W        W43749  42.928  13.791   4.778
71325W        W43750  31.501  40.387  12.778
71326W        W43751  36.534  42.911  14.074
71327W        W43752  19.327  43.013  10.816
71328W        W43753  31.200  37.657  11.548
71329W        W43754  11.623  28.794  13.007
71330W        W43755  11.357  32.079  13.785
71331W        W43756   2.821  18.035   3.333
71332W        W43757  39.026   0.405   2.777
71333W        W43758  43.419  38.166  14.537
71334W        W43759  44.964  35.473   4.127
71335W        W43760  30.068  12.389   0.912
71336W        W43761  39.082   9.435  14.842
71337W        W43762   0.479  20.521   0.817
71338W        W43763  29.991  30.138   4.763
71339W        W43764   8.721   8.480   4.172
71340W        W43765  30.529   5.192  14.465
71341W        W43766  18.113   8.422  11.173
71342W        W43767  10.247  16.900   4.402
71343W        W43768  13.578  33.971   1.736
71344W        W43769  41.590  42.870  13.409
71345W        W43770   8.687  26.591  14.746
71346W        W43771  19.254  18.116  11.194
71347W        W43772   8.890  36.043   0.346
71348W        W43773  35.690  33.606  12.535
71349W        W43774   0.260  29.695  13.516
71350W        W43775  25.983  43.441   5.075
71351W        W43776  23.215  15.262   0.331
71352W        W43777  38.704  30.354  11.606
71353W        W43778  41.641  27.895  11.460
71354W        W43779  20.774   6.292   3.377
71355W        W43780  44.442  35.932  12.112
71356W        W43781  20.903   8.800   3.177
71357W        W43782  20.253  35.603  12.574
71358W        W43783   2.013   2.243  13.260
71359W        W43784  19.796  39.066   0.773
71360W        W43785  21.929  44.057   1.945
71361W        W43786  35.439   9.149   2.680
71362W        W43787  19.280  34.944  14.764
71363W        W43788  18.288   9.820  13.123
71364W        W43789  31.591  30.370  11.142
71365W        W43790  21.504   9.110  14.880
71366W        W43791  15.049  26.550   0.238
71367W        W43792   9.091   7.395   4.862
71368W        W43793   6.373  24.426  12.396
71369W        W43794   0.082   1.951   4.229
71370W        W43795  39.060  18.152  12.800
71371W        W43796  11.375   9.774   2.907
71372W        W43797   0.790  42.251   4.773
71373W        W43798  40.563   6.213   1.804
71374W        W43799  42.511  25.941  14.673
71375W        W43800  10.675  13.757  13.307
71376W        W43801  32.551   7.172   2.130
71377W        W43802   9.193  21.070  12.646
71378W        W43803  40.381  29.407  14.262
71379W        W43804   9.998  17.785  11.240
71380W        W43805  41.638   5.842   1.840
71381W        W43806   0.039  29.753  14.874
71382W        W43807  20.098   1.369   2.364
71383W        W43808  20.195  15.739   4.658
71384W        W43809  17.046  11.748   5.005
71385W        W43810   3.896  19.212   2.623
71386W        W43811   7.936   1.666   4.513
71387W        W43812  44.586  12.277   9.931
71388W        W43813  13.841  25.558   3.624
71389W        W43814  41.820  32.719   1.156
71390W        W43815  30.454   0.836   2.626
71391W        W43816  39.337  39.929   4.453
71392W        W43817  13.071  10.100   4.042
71393W        W43818  23.659   1.924  14.940
71394W        W43819  19.786   6.707   1.196
71395W        W43820  44.533  26.245  12.117
71396W        W43821  38.946  34.613   1.306
71397W        W43822  24.879  34.651   2.729
71398W        W43823   3.517  10.286   2.738
71399W        W43824  41.070  31.477  14.943
71400W        W43825  34.902  13.281  11.013
71401W        W43826  41.934   7.272   2.925
71402W        W43827  40.831  24.724   1.698
71403W        W43828  41.594  25.269   3.318
71404W        W43829  26.501  40.223  11.127
71405W        W43830  39.505  15.777  13.323
71406W        W43831  37.521  37.869  10.885
71407W        W43832   9.697   5.135  10.221
71408W        W43833  26.843  29.536  13.477
71409W        W43834  18.170   7.852   3.993
71410W        W43835   6.720   0.879  14.203
71411W        W43836  25.907  12.390  13.594
71412W        W43837   3.415  44.760  11.010
71413W        W43838  12.089   7.214  12.281
71414W        W43839  18.026  27.310   3.259
71415W        W43840  12.406  21.844   1.204
71416W        W43841  14.561  12.355   1.607
71417W        W43842  23.932  44.130   2.803
71418W        W43843  28.632  13.636   1.328
71419W        W43844  13.489   9.951  11.170
71420W        W43845  44.926  27.130   4.535
71421W        W43846   0.268   6.145   0.936
71422W        W43847  24.401  43.956   2.670
71423W        W43848  25.546  18.725  11.142
71424W        W43849  39.874  11.917   3.668
71425W        W43850  44.752  17.194   2.247
71426W        W43851  25.747  39.309  13.345
71427W        W43852  19.916  25.141  14.757
71428W        W43853  42.746  36.881  12.464
71429W        W43854  19.536  14.269   1.863
71430W        W43855  10.808  20.816   1.413
71431W        W43856  16.848   9.678  11.628
71432W        W43857  23.763  39.698   1.340
71433W        W43858   9.676  36.876  11.275
71434W        W43859  35.686  34.964   4.422
71435W        W43860  29.032   9.733  11.750
71436W        W43861   1.207  15.107   0.954
71437W        W43862  14.730   3.784  11.872
71438W        W43863  36.041  22.500   1.010
71439W        W43864   1.394  28.191  13.952
71440W        W43865  33.133   0.713   0.454
71441W        W43866   4.802  18.925   1.226
71442W        W43867  24.055  23.064   2.125
71443W        W43868  38.416   7.854  13.318
71444W        W43869  42.676  34.513   2.127
71445W        W43870  24.369  14.182   2.041
71446W        W43871  22.828  36.942   1.750
71447W        W43872   9.533  24.123   0.985
71448W        W43873  43.416  34.449   2.772
71449W        W43874  27.423  33.208  12.638
71450W        W43875   7.869  23.333   1.084
71451W        W43876  16.788  29.075  11.207
71452W        W43877  18.503   8.503  13.034
71453W        W43878  35.444  43.784  13.884
71454W        W43879   7.797  42.880   2.421
71455W        W43880  42.323  22.605  11.084
71456W        W43881  16.601   8.773   0.659
71457W        W43882  28.624  36.371   0.348
71458W        W43883   8.361  44.482  14.767
71459W        W43884   9.078  12.440   0.901
71460W        W43885   3.342  43.436  12.176
71461W        W43886  29.646  30.687  13.015
71462W        W43887   6.705  34.375   4.155
71463W        W43888  17.001  39.726  11.252
71464W        W43889  23.297  19.491  12.512
71465W        W43890  43.245  37.084   3.413
71466W        W43891  20.662  24.817  13.400
71467W        W43892  13.929  32.917  13.898
71468W        W43893  10.186  23.549  14.872
71469W        W43894   5.415  42.969   3.655
71470W        W43895  31.562  44.410   2.679
71471W        W43896  18.801  37.502   2.199
71472W        W43897  34.941  40.130  14.964
71473W        W43898  29.194   7.024   0.429
71474W        W43899  13.602  16.567  12.890
71475W        W43900  29.943  27.620  10.670
71476W        W43901  23.491  42.870  12.144
71477W        W43902  10.257   5.504   0.384
71478W        W43903   7.234  34.946  13.805
71479W        W43904  36.473  20.008   1.817
71480W        W43905  34.923  26.579   2.373
71481W        W43906   8.934  41.337   1.308
71482W        W43907   2.304  32.932   1.623
71483W        W43908  22.076  30.065  12.424
71484W        W43909  10.502   0.980   1.791
71485W        W43910   9.362  29.777   0.941
71486W        W43911   5.463   3.282   4.112
71487W        W43912  43.969  35.139   4.964
71488W        W43913  22.015  25.633  14.384
71489W        W43914  44.798  10.718  12.936
71490W        W43915  24.600  18.366  10.989
71491W        W43916  29.226  22.200   3.424
71492W        W43917   3.816   8.777   1.434
71493W        W43918  28.361   5.165  14.765
71494W        W43919   3.794   6.424  13.302
71495W        W43920  34.440  44.956  11.695
71496W        W43921  18.100  10.279  12.402
71497W        W43922  17.169  34.268  10.700
71498W        W43923  30.660  24.279   0.948
71499W        W43924  37.804  44.508   4.808
71500W        W43925  17.993  33.852  14.975
71501W        W43926  17.115   9.452  12.077
71502W        W43927  18.276   3.709  14.646
71503W        W43928  38.423  37.075   1.844
71504W        W43929   7.185  36.405  10.650
71505W        W43930  39.521  19.859  11.042
71506W        W43931  37.839  24.232  10.850
71507W        W43932  28.078   7.114   0.034
71508W        W43933  36.163  43.517  12.947
71509W        W43934  13.983  13.105   1.428
71510W        W43935  20.470   7.154  13.068
71511W        W43936  29.718  21.118   4.971
71512W        W43937  11.912  16.243  13.509
71513W        W43938  15.072  40.501  14.784
71514W        W43939  15.332  32.513   2.836
71515W        W43940  37.630  20.730   0.996
71516W        W43941  28.069  24.102  10.776
71517W        W43942  25.646  36.376   0.899
71518W        W43943   9.853  28.952  14.015
71519W        W43944  39.456  19.000   0.223
71520W        W43945  29.563  24.079   4.066
71521W        W43946  40.760  42.326   3.222
71522W        W43947   5.212  28.109   3.441
71523W        W43948  37.907  23.028  13.959
71524W        W43949  36.385  23.042   5.696
71525W        W43950  17.236  35.854  14.619
71526W        W43951  23.253  42.495  11.484
71527W        W43952  26.761  42.927  11.035
71528W        W43953  34.934  26.135  12.435
71529W        W43954  22.917  15.782   2.837
71530W        W43955  30.556   5.146   1.617
71531W        W43956  42.823  44.934   0.624
71532W        W43957  40.211  42.191  11.208
71533W        W43958  22.648   5.194  12.135
71534W        W43959   8.464   0.673  12.513
71535W        W43960   0.224   2.849   4.393
71536W        W43961  31.441  31.936   0.831
71537W        W43962  20.235  35.815   3.205
71538W        W43963   2.390  27.413  10.653
71539W        W43964   5.183  35.009  10.683
71540W        W43965   7.516  25.053   0.900
71541W        W43966  21.519  11.728   3.371
71542W        W43967  22.219  13.207  12.485
71543W        W43968  10.353   3.274  13.295
71544W        W43969   6.749  18.017   1.965
71545W        W43970  23.511  38.973  11.830
71546W        W43971  38.434  32.517  11.701
71547W        W43972  40.089  21.724  10.786
71548W        W43973  41.521   9.856  13.220
71549W        W43974  42.023  13.755  14.881
71550W        W43975  34.193  23.728  11.134
71551W        W43976  10.357  29.652   3.224
71552W        W43977  38.595  34.720   0.928
71553W        W43978  33.529  29.555  10.004
71554W        W43979   6.496   8.596  12.087
71555W        W43980  28.936  12.660  13.170
71556W        W43981  25.586   7.208   3.267
71557W        W43982   0.195  41.552   3.471
71558W        W43983  30.915  24.668  10.620
71559W        W43984  33.978  23.462   0.678
71560W        W43985  35.526   0.773   1.903
71561W        W43986   6.317  18.291   1.891
71562W        W43987  18.186  18.997  12.621
71563W        W43988  21.238  37.356  12.141
71564W        W43989  40.923  38.826   0.844
71565W        W43990  29.632  24.207   0.848
71566W        W43991  35.453  40.811   3.313
71567W        W43992  16.643   0.324  10.654
71568W        W43993  39.791   1.301   1.236
71569W        W43994  20.217   5.724  11.074
71570W        W43995   5.872  33.065  13.350
71571W        W43996  28.496  14.613   4.216
71572W        W43997  31.866  32.941   0.830
71573W        W43998  14.595   4.833   4.860
71574W        W43999  19.051  32.418  12.496
71575W        W44000  23.479   4.686  12.449
71576W        W44001  39.393   3.834  13.883
71577W        W44002   9.504  10.259  10.796
71578W        W44003  23.172  21.731   4.672
71579W        W44004  30.796  16.118  12.607
71580W        W44005  18.250   0.254   2.244
71581W        W44006  31.044  30.852   1.217
71582W        W44007  40.843  21.110   4.638
71583W        W44008   5.311  39.313   1.221
71584W        W44009   8.013  16.229   0.149
71585W        W44010  40.311   5.454   4.904
71586W        W44011  21.548   1.267   2.262
71587W        W44012  19.105   0.742  13.899
71588W        W44013  29.683  20.260   2.221
71589W        W44014  25.654  30.302   3.027
71590W        W44015  33.424  23.208  11.063
71591W        W44016  37.948  38.186   1.997
71592W        W44017   5.440   2.742  12.375
71593W        W44018  24.054  40.096  12.107
71594W        W44019  38.603  16.828  10.643
71595W        W44020  13.423  44.942  11.204
71596W        W44021  19.353  29.413  11.041
71597W        W44022  27.710   0.807  14.894
71598W        W44023  16.595  26.599  12.189
71599W        W44024  38.507  41.295  13.868
71600W        W44025   1.320  27.962   4.462
71601W        W44026  36.278  42.974  10.739
71602W        W44027   5.768  17.186  12.027
71603W        W44028  23.591  32.588   3.156
71604W        W44029  27.908  19.793  10.698
71605W        W44030  42.877  36.500   4.131
71606W        W44031  25.384  35.027  14.416
71607W        W44032  23.096  11.516   5.495
71608W        W44033   4.817  43.270   2.213
71609W        W44034  33.046  33.118   4.434
71610W        W44035  33.859  38.923  10.561
71611W        W44036  34.905  35.522  11.599
71612W        W44037  33.997   3.481  12.544
71613W        W44038  27.180  18.176   0.843
71614W        W44039  16.554  17.971  12.231
71615W        W44040  33.440   0.811  10.333
71616W        W44041   3.294  39.902  13.338
71617W        W44042  41.877   9.096   1.749
71618W        W44043  24.116  39.819  13.418
71619W        W44044   7.336   6.703   2.125
71620W        W44045  21.047  30.111  14.845
71621W        W44046  44.437  26.238  12.628
71622W        W44047  33.884  34.195  14.415
71623W        W44048  31.153  39.849   4.335
71624W        W44049   4.211  15.134   2.763
71625W        W44050  40.340  19.303  10.326
71626W        W44051  34.478  36.459   0.051
71627W        W44052  17.179  27.634  12.746
71628W        W44053  44.952   9.265  11.624
71629W        W44054  28.915  11.056  14.794
71630W        W44055  40.977  44.775   0.418
71631W        W44056  26.510  28.012   4.603
71632W        W44057  23.703  11.310  11.882
71633W        W44058  34.992   7.384  12.961
71634W        W44059  36.910  10.463  12.111
71635W        W44060  43.019  15.768   0.926
71636W        W44061  40.215  10.798   4.757
71637W        W44062  23.507  13.740  13.837
71638W        W44063  27.016   6.708   1.258
71639W        W44064  40.784  16.258  10.382
71640W        W44065  35.978  13.138   4.650
71641W        W44066  39.143  18.062   0.917
71642W        W44067  19.460  21.710   3.588
71643W        W44068  29.191  15.925  14.391
71644W        W44069  43.800  21.539   3.101
71645W        W44070  31.453  20.207   4.609
71646W        W44071   4.406   1.726  10.553
71647W        W44072  34.389  32.454  14.196
71648W        W44073   4.857  28.801  12.150
71649W        W44074  42.112  23.704   2.143
71650W        W44075  10.539  12.063  12.870
71651W        W44076  22.029  25.119  14.422
71652W        W44077  31.721  22.599   4.457
71653W        W44078  31.934  41.317  12.436
71654W        W44079  29.091   8.964  12.437
71655W        W44080  27.414  38.977  14.827
71656W        W44081  16.606  27.461  12.201
71657W        W44082   1.719  40.284  14.543
71658W        W44083  34.965   9.360  13.097
71659W        W44084  14.250  41.217   3.957
71660W        W44085  33.844  18.198  13.355
71661W        W44086  37.452  37.344   0.832
71662W        W44087  24.056  18.651   2.690
71663W        W44088  16.405  11.001  14.574
71664W        W44089  16.715  21.579   3.618
71665W        W44090  13.260  29.909   2.233
71666W        W44091  43.235  21.358   4.783
71667W        W44092  17.136  17.965   4.802
71668W        W44093  30.665  14.231  10.804
71669W        W44094  21.753  11.423   1.361
71670W        W44095  12.204   0.038   0.834
71671W        W44096  25.623   3.374  12.918
71672W        W44097  36.639   4.400  14.977
71673W        W44098   6.804  26.119  10.731
71674W        W44099  16.965  37.353   4.916
71675W        W44100  38.844  15.152   1.359
71676W        W44101  17.037   6.502  12.030
71677W        W44102   3.897   9.869  11.609
71678W        W44103  17.784  32.074   0.384
71679W        W44104   1.809  42.515  11.548
71680W        W44105  24.957   1.884  11.171
71681W        W44106  22.498   0.757   1.687
71682W        W44107   9.529   4.814   2.436
71683W        W44108   0.044  40.451  11.046
71684W        W44109  11.098  19.151  14.341
71685W        W44110  15.262  15.125   2.315
71686W        W44111  41.386  34.990  12.461
71687W        W44112  44.851  36.023  13.922
71688W        W44113  16.108  13.873  12.066
71689W        W44114   8.882  24.607  12.164
71690W        W44115  41.791  22.840  12.499
71691W        W44116   7.397  43.825   3.179
71692W        W44117   7.151   7.804   0.928
71693W        W44118   9.337  35.698   9.742
71694W        W44119  18.689  32.495   5.465
71695W        W44120   7.578  27.128   0.310
71696W        W44121  35.874  35.531   0.371
71697W        W44122  42.749  14.001  14.991
71698W        W44123  36.149   8.029   1.447
71699W        W44124  16.507  27.135  11.086
71700W        W44125  41.067   5.225  14.814
71701W        W44126  44.168  12.218   1.088
71702W        W44127   6.166  27.106   3.218
71703W        W44128  21.271  32.756   0.958
71704W        W44129  28.667  16.861  11.380
71705W        W44130   1.716  20.076  12.599
71706W        W44131  43.360  16.875   4.182
71707W        W44132  25.197  32.004  14.379
71708W        W44133  37.838  40.152  12.335
71709W        W44134  38.352   9.410  12.440
71710W        W44135  41.302  26.710  12.991
71711W        W44136  38.454  18.540  12.032
71712W        W44137  18.168   6.277   0.958
71713W        W44138  12.917  16.544   3.725
71714W        W44139  37.400   9.365  14.953
71715W        W44140  14.962   5.934   2.249
71716W        W44141  27.841  44.403  13.150
71717W        W44142  25.854   3.416  11.467
71718W        W44143  26.454  32.341  11.421
71719W        W44144  21.999  11.859   4.159
71720W        W44145  29.419  39.004  13.773
71721W        W44146  16.609  39.830   0.277
71722W        W44147  33.495  39.719  11.620
71723W        W44148  40.306  34.801   3.449
71724W        W44149  43.303  12.363   2.361
71725W        W44150  15.583  33.396  11.199
71726W        W44151  16.997  14.798  12.999
71727W        W44152  10.805  18.366   1.514
71728W        W44153  27.218  16.120  12.967
71729W        W44154  16.176  31.375  10.385
71730W        W44155  38.875  36.503  10.764
71731W        W44156   1.718  36.921  13.417
71732W        W44157  37.425  28.090   0.300
71733W        W44158  41.446  13.469   0.418
71734W        W44159  39.512  18.401   0.793
71735W        W44160  14.896  31.363   0.216
71736W        W44161  17.548  27.116   0.267
71737W        W44162  20.465  17.396  12.401
71738W        W44163  27.019   9.948  10.971
71739W        W44164   8.275   9.659   3.565
71740W        W44165  39.237  28.912  13.381
71741W        W44166   4.119  26.463   1.795
71742W        W44167  10.387  44.744   3.292
71743W        W44168  33.591  33.901   4.253
71744W        W44169  38.137  13.987   5.209
71745W        W44170  23.205   8.804   2.744
71746W        W44171  19.195   1.802   0.967
71747W        W44172  40.774  32.394   3.150
71748W        W44173  22.982  27.757  14.474
71749W        W44174  41.421  21.893   4.958
71750W        W44175  22.474  43.622  11.130
71751W        W44176  26.576  10.779  14.212
71752W        W44177  43.422  39.393   0.457
71753W        W44178  13.901   1.565   1.829
71754W        W44179   7.865  44.074  13.014
71755W        W44180  29.075  35.970   4.326
71756W        W44181  41.549   4.324   0.311
71757W        W44182   1.850  22.592  11.386
71758W        W44183  44.778   1.885  11.694
71759W        W44184  44.816  35.369   1.410
71760W        W44185  19.473  21.689  14.017
71761W        W44186  20.903  30.482   0.420
71762W        W44187  14.143  42.521   1.152
71763W        W44188   2.024  22.634  14.373
71764W        W44189  39.625  24.177  14.060
71765W        W44190  36.428  14.166  11.601
71766W        W44191  33.151   8.216  11.736
71767W        W44192   1.362  40.983   4.528
71768W        W44193  19.291  43.848   0.822
71769W        W44194  26.888  10.410   2.225
71770W        W44195  11.703   8.189   2.630
71771W        W44196  19.340  36.754   2.735
71772W        W44197   4.950  43.961   4.553
71773W        W44198  39.805  22.923   2.357
71774W        W44199   5.483  39.517  12.892
71775W        W44200   5.854  22.747   2.099
71776W        W44201  17.141  24.071   0.710
71777W        W44202  21.469   8.301   5.621
71778W        W44203  20.170  36.319  11.880
71779W        W44204   0.099   4.451   2.053
71780W        W44205  37.255  13.477   5.079
71781W        W44206  30.346  25.696   3.148
71782W        W44207  36.081   1.067   1.634
71783W        W44208  13.105  33.426   2.292
71784W        W44209   7.406   2.755  10.459
71785W        W44210  20.664  42.351   3.755
71786W        W44211  43.853  31.558   4.111
71787W        W44212  24.144  41.184   4.148
71788W        W44213  10.655  38.958   3.212
71789W        W44214  11.775   4.934   1.643
71790W        W44215  30.083   5.840   0.933
71791W        W44216  37.076   9.136  10.736
71792W        W44217  39.905   3.036  10.754
71793W        W44218  10.798   6.830   4.344
71794W        W44219  33.426   7.169  13.416
71795W        W44220  35.427   4.754  14.396
71796W        W44221  29.959  30.812  11.524
71797W        W44222  29.968   5.844   4.056
71798W        W44223  35.425  22.590  14.302
71799W        W44224  22.805  35.465  13.877
71800W        W44225  38.250   4.771  14.455
71801W        W44226  13.410  37.062   4.372
71802W        W44227  43.911  21.776  13.413
71803W        W44228  15.544  22.583  14.398
71804W        W44229   8.726  40.880  10.524
71805W        W44230  22.521  43.252   3.351
71806W        W44231  27.026   3.984   0.821
71807W        W44232  37.335  38.032  12.511
71808W        W44233  17.829  19.541   3.728
71809W        W44234  18.851  43.326  13.124
71810W        W44235  19.197   8.206   1.876
71811W        W44236  32.914   3.875   2.324
71812W        W44237  27.230  25.544  12.047
71813W        W44238   1.812  10.713   2.190
71814W        W44239  30.031   8.156   4.141
71815W        W44240  18.506  27.887  13.952
71816W        W44241   2.223  37.135  13.391
71817W        W44242  21.135  29.663   2.215
71818W        W44243  11.870   6.756   2.459
71819W        W44244   5.984  24.282  13.973
71820W        W44245  20.787   0.934   2.761
71821W        W44246  22.504  30.193  11.098
71822W        W44247  24.321   5.859  12.935
71823W        W44248  21.939  23.008   0.033
71824W        W44249  24.179  39.684   3.105
71825W        W44250  24.799  43.141   3.693
71826W        W44251  19.010  20.473  12.092
71827W        W44252  30.699   6.353  14.163
71828W        W44253  40.426  15.299   0.795
71829W        W44254  17.906  41.721   2.735
71830W        W44255   8.712  12.194  13.883
71831W        W44256  32.558  11.060  13.459
71832W        W44257  19.475  32.461   2.193
71833W        W44258  23.204  44.276  10.993
71834W        W44259   9.044  22.542  11.046
71835W        W44260   5.307   7.662   2.400
71836W        W44261  30.674  23.058  13.030
71837W        W44262   1.430  17.524  14.127
71838W        W44263  12.490  19.652   0.845
71839W        W44264  33.548   5.715   0.689
71840W        W44265  39.150   8.833   4.626
71841W        W44266  39.636  41.741   2.156
71842W        W44267  29.688  28.115  13.255
71843W        W44268  15.853  44.119  10.357
71844W        W44269  41.837  23.342   1.726
71845W        W44270  39.465  27.172  11.597
71846W        W44271  10.182  24.870  13.725
71847W        W44272  10.919  37.817  12.923
71848W        W44273   3.744   6.289  10.258
71849W        W44274   5.373  34.465  10.804
71850W        W44275   0.681  44.716   1.057
71851W        W44276  20.839  22.215   3.878
71852W        W44277   0.015  13.074  13.227
71853W        W44278  22.940   3.966   2.764
71854W        W44279  16.285  21.032  11.869
71855W        W44280  29.877  39.048   0.648
71856W        W44281  36.880   9.608   0.745
71857W        W44282  25.725  41.407  14.425
71858W        W44283  30.068   5.485  14.389
71859W        W44284  27.438  20.736  12.084
71860W        W44285  40.380  23.546  12.346
71861W        W44286   1.027   3.985  14.507
71862W        W44287   4.974  18.069   2.838
71863W        W44288  16.188   6.715   4.458
71864W        W44289  26.778   1.370   4.632
71865W        W44290   0.102   3.011   3.038
71866W        W44291  33.778   3.443   4.960
71867W        W44292  42.026   4.160   0.249
71868W        W44293  19.649   4.708  10.772
71869W        W44294  13.841   2.440  14.382
71870W        W44295  23.974  40.342  11.380
71871W        W44296  14.602  44.695  13.025
71872W        W44297  11.906  13.131  11.933
71873W        W44298   0.725  36.605  12.052
71874W        W44299   3.543  23.880  14.444
71875W        W44300  21.782  24.100  11.522
71876W        W44301  17.852  34.037   0.635
71877W        W44302  25.070  44.353  13.154
71878W        W44303  28.549  12.211  11.651
71879W        W44304   4.793  29.035   1.196
71880W        W44305   2.269  32.411   4.063
71881W        W44306  31.446  26.664   5.037
71882W        W44307  14.785  41.381   2.669
71883W        W44308   0.479  12.546   1.450
71884W        W44309   4.670  38.347   4.758
71885W        W44310  28.698  29.970   0.701
71886W        W44311   8.524   3.778   4.014
71887W        W44312  20.364   0.139  12.555
71888W        W44313  15.526  35.456  10.802
71889W        W44314   0.995   7.228   0.724
71890W        W44315  35.958  18.080  13.982
71891W        W44316   0.527   7.890   3.696
71892W        W44317  11.043  43.344   3.146
71893W        W44318  33.406  29.421  13.510
71894W        W44319  10.839   5.855   4.725
71895W        W44320   0.980  35.973   2.979
71896W        W44321  36.963  19.620   3.222
71897W        W44322   1.007   6.768   1.449
71898W        W44323   1.392  18.380  10.683
71899W        W44324   9.746   5.714   5.493
71900W        W44325  41.560  35.331  11.489
71901W        W44326  18.747   3.507   0.832
71902W        W44327  36.427  41.070   1.291
71903W        W44328  11.119  30.645  10.751
71904W        W44329  16.694  42.380  14.240
71905W        W44330  24.620  41.408  12.428
71906W        W44331  43.776  24.607  14.087
71907W        W44332  44.600  27.043  10.432
71908W        W44333  12.236  44.151   1.244
71909W        W44334  36.861  36.845  11.109
71910W        W44335  13.623  44.498  13.813
71911W        W44336  15.040  16.711   0.379
71912W        W44337  30.032  19.551   2.612
71913W        W44338  14.485  21.326   0.741
71914W        W44339  36.641   3.257  11.932
71915W        W44340  15.224  43.443   1.443
71916W        W44341  29.418  14.751  14.887
71917W        W44342  18.978  31.401  11.626
71918W        W44343   2.815   4.458  14.265
71919W        W44344  25.683  16.675   3.850
71920W        W44345  29.281  22.726  14.984
71921W        W44346   7.755  17.208  14.298
71922W        W44347  35.160  13.866   1.796
71923W        W44348  13.179  43.578  11.168
71924W        W44349  13.058  41.391  13.047
71925W        W44350  10.303   5.764  11.716
71926W        W44351  44.274  38.458  14.335
71927W        W44352  11.800  22.064   1.344
71928W        W44353  39.409  22.286   3.543
71929W        W44354   1.775   3.709  11.052
71930W        W44355  22.597  16.551  11.191
71931W        W44356  44.490   1.432  13.391
71932W        W44357  35.595   8.939  14.290
71933W        W44358   1.672  11.784  12.861
71934W        W44359   9.253  36.986  10.564
71935W        W44360  30.354  16.772   5.108
71936W        W44361  23.960  32.121   4.201
71937W        W44362  28.993  41.882   1.751
71938W        W44363  12.104  10.255   4.182
71939W        W44364  28.496  11.641   2.202
71940W        W44365  12.326  17.496  11.166
71941W        W44366  44.222   9.824   2.420
71942W        W44367  29.754  32.261  14.807
71943W        W44368  21.582   7.638   0.839
71944W        W44369  11.990  44.449   4.564
71945W        W44370   8.829  14.257  10.781
71946W        W44371  26.476   8.256  12.601
71947W        W44372   1.488   7.229  14.767
71948W        W44373   8.700  34.556   4.549
71949W        W44374  11.897  10.871   0.122
71950W        W44375  24.709  26.056  11.135
71951W        W44376  22.164  28.585  11.500
71952W        W44377   9.428  13.543  14.799
71953W        W44378  44.001  26.831  11.931
71954W        W44379  13.780  26.498  13.900
71955W        W44380  19.713  25.535   5.089
71956W        W44381  30.871   4.008  11.211
71957W        W44382   9.341  31.562   3.394
71958W        W44383  15.339  21.262   4.688
71959W        W44384  26.544  17.620  11.886
71960W        W44385  43.360   6.642   3.867
71961W        W44386  29.465  10.655   0.584
71962W        W44387   2.837  15.408  13.382
71963W        W44388   1.109   0.472   4.287
71964W        W44389  38.526  14.810   2.880
71965W        W44390  15.019  28.626  14.803
71966W        W44391   4.757  11.627  13.968
71967W        W44392  11.840  10.337  14.337
71968W        W44393  19.701   2.447   1.263
71969W        W44394  22.799  10.116   0.244
71970W        W44395  34.903  38.789  10.608
71971W        W44396  43.890  44.232   2.379
71972W        W44397   0.290  29.956  11.695
71973W        W44398  34.943  21.764  10.863
71974W        W44399  20.638   4.394  12.575
71975W        W44400  44.778   1.081  14.497
71976W        W44401  30.726  12.788  13.387
71977W        W44402   4.905   7.694  10.415
71978W        W44403  40.032  13.793   3.636
71979W        W44404  39.986  20.052   4.671
71980W        W44405  13.131  16.721   4.240
71981W        W44406  25.322  38.388  14.594
71982W        W44407  30.523  43.827   1.233
71983W        W44408  25.031  39.910  11.220
71984W        W44409   3.511  18.384  10.650
71985W        W44410  11.114   5.340   3.283
71986W        W44411  33.640   0.205   1.700
71987W        W44412  22.876  22.652   0.940
71988W        W44413   5.080  41.493  11.111
71989W        W44414  27.231  13.312   3.649
71990W        W44415  25.668  43.010  13.882
71991W        W44416  23.593  28.108   4.794
71992W        W44417  11.617  10.209  13.334
71993W        W44418  41.370  15.563   1.302
71994W        W44419  36.500  44.161  11.903
71995W        W44420  29.412  13.750   4.629
71996W        W44421  21.971  23.493  12.864
71997W        W44422  38.022  41.771   2.307
71998W        W44423  28.885  32.549  14.888
71999W        W44424  14.867  41.794  11.993
72000W        W44425  33.054  42.789   3.253
72001W        W44426  19.004  12.883   2.355
72002W        W44427  25.256  24.228  11.281
72003W        W44428  38.280  31.347   3.706
72004W        W44429   3.363  15.769   0.431
72005W        W44430  41.089   2.422  10.767
72006W        W44431  35.328   9.366   2.200
72007W        W44432  12.870  25.911  11.970
72008W        W44433  16.406  31.014   0.398
72009W        W44434  10.986  30.111   2.665
72010W        W44435  10.299  16.589  14.445
72011W        W44436  21.178  13.404   3.339
72012W        W44437  41.358   4.713  12.568
72013W        W44438  10.881  43.572   1.709
72014W        W44439  26.201  33.467   3.185
72015W        W44440  34.587   6.223   2.286
72016W        W44441  12.602   0.466  12.289
72017W        W44442  15.548   7.556   2.583
72018W        W44443  42.860   1.532   3.476
72019W        W44444   9.811  18.609   4.344
72020W        W44445  28.076  38.001   4.580
72021W        W44446  29.924   2.209   3.225
72022W        W44447  11.073   2.171  12.949
72023W        W44448  32.971   6.751   0.457
72024W        W44449   0.030  25.585   1.683
72025W        W44450  37.776  25.422  14.387
72026W        W44451  40.067  23.629  13.352
72027W        W44452  32.926   3.451  12.370
72028W        W44453   3.327  11.853  11.893
72029W        W44454  34.306  25.268   0.477
72030W        W44455  41.391  28.146  14.292
72031W        W44456  31.986  26.598   3.782
72032W        W44457  13.664  35.311   2.275
72033W        W44458  32.436  36.510   5.104
72034W        W44459  30.299   8.367  11.408
72035W        W44460  24.400   0.981  12.554
72036W        W44461  34.825  21.203   9.788
72037W        W44462  42.436  30.442   3.804
72038W        W44463  24.138   4.210   4.611
72039W        W44464  23.411   9.839   0.797
72040W        W44465  42.427  36.603  12.759
72041W        W44466  34.840  41.898  10.680
72042W        W44467  39.771  28.201  14.992
72043W        W44468  27.342  21.868  13.467
72044W        W44469   1.288  43.806   2.394
72045W        W44470  17.355  23.476   4.995
72046W        W44471  42.717  20.243  11.525
72047W        W44472  25.036   7.269  11.027
72048W        W44473   0.972   3.166   1.298
72049W        W44474  14.819  19.862  12.597
72050W        W44475  16.633  31.451  13.515
72051W        W44476  16.796   5.393   4.701
72052W        W44477  11.096  14.790   2.053
72053W        W44478  35.961  41.332   3.208
72054W        W44479  18.321  20.579   0.461
72055W        W44480   6.255  36.922  12.858
72056W        W44481  26.426  23.030  13.645
72057W        W44482  28.720   1.951  11.111
72058W        W44483  33.180  20.645   0.240
72059W        W44484   5.882  26.129  12.035
72060W        W44485  40.368  21.976  13.843
72061W        W44486   9.203  21.969  12.141
72062W        W44487  28.493  43.292  14.962
72063W        W44488  20.792  38.484   3.118
72064W        W44489  26.528  31.660   1.054
72065W        W44490   5.454  35.891   1.976
72066W        W44491  37.154  12.222   4.282
72067W        W44492  21.224  29.389   1.743
72068W        W44493   2.512  36.907  14.770
72069W        W44494  42.727   1.971  11.560
72070W        W44495  40.391  40.581   1.503
72071W        W44496   3.753  43.501   2.690
72072W        W44497  30.548  28.371  11.141
72073W        W44498  41.869   1.206  13.916
72074W        W44499  21.054  19.650   3.811
72075W        W44500  29.384  25.503  13.923
72076W        W44501  10.600  25.279  14.557
72077W        W44502   4.796  22.458   5.080
72078W        W44503  10.877  29.461  11.822
72079W        W44504   1.602  42.507  12.032
72080W        W44505  20.626  14.644   4.596
72081W        W44506  12.866  34.844  12.133
72082W        W44507  11.176  14.389   0.705
72083W        W44508  30.221  21.003  10.184
72084W        W44509  16.527   0.577  12.952
72085W        W44510  25.735  29.108  13.368
72086W        W44511  26.523  41.557   0.480
72087W        W44512  29.563  37.862  12.875
72088W        W44513   7.431  22.652   0.572
72089W        W44514  15.632  40.986  12.477
72090W        W44515  23.452  12.451  11.547
72091W        W44516  43.857  44.600   4.198
72092W        W44517  43.956   7.891  11.035
72093W        W44518  19.762  13.727  13.995
72094W        W44519  36.710  35.267  11.480
72095W        W44520  40.036   9.380  10.691
72096W        W44521  16.036  25.040  12.378
72097W        W44522  11.234  33.590   2.497
72098W        W44523  37.563  40.128   0.313
72099W        W44524   7.982   9.676  13.472
72100W        W44525  15.403  22.170   0.927
72101W        W44526  16.597  32.178   2.634
72102W        W44527  43.767  43.746   0.919
72103W        W44528  26.274   1.396   3.281
72104W        W44529   1.004  21.733  13.445
72105W        W44530  10.399  41.036   4.651
72106W        W44531  40.316   0.227  13.555
72107W        W44532  37.853  21.035   4.900
72108W        W44533   9.409  37.712  11.018
72109W        W44534  10.355  23.741   2.523
72110W        W44535  28.835  18.015   4.222
72111W        W44536   6.137  43.107  14.410
72112W        W44537  25.629  33.514  13.123
72113W        W44538  21.446  10.724   4.101
72114W        W44539  41.551   0.353  13.861
72115W        W44540  26.500  23.177  10.557
72116W        W44541  29.552   3.919  13.837
72117W        W44542   7.017   4.939   1.727
72118W        W44543   5.704  32.891  12.023
72119W        W44544  25.066  15.096  12.400
72120W        W44545  33.116  34.151   2.128
72121W        W44546   2.940  30.411   3.348
72122W        W44547  35.907  27.000   4.194
72123W        W44548  35.528  25.740  14.369
72124W        W44549  34.380  12.366   0.335
72125W        W44550  28.433  18.107   0.246
72126W        W44551   0.108  36.629   2.499
72127W        W44552   4.793  20.791   4.937
72128W        W44553  44.785  43.082  11.425
72129W        W44554  36.798   1.997   2.193
72130W        W44555  13.597  34.093   4.181
72131W        W44556  14.913   4.668  11.515
72132W        W44557  38.359  24.072  12.418
72133W        W44558  12.160  36.353  12.372
72134W        W44559   1.724   4.761  12.520
72135W        W44560  32.607  29.506  14.782
72136W        W44561  44.286  36.881  11.573
72137W        W44562   8.762  42.051  11.178
72138W        W44563   5.422   4.229  13.877
72139W        W44564   5.746  23.007   4.147
72140W        W44565  30.331  22.629  12.953
72141W        W44566  11.175  17.201   3.635
72142W        W44567  36.129  32.411   2.846
72143W        W44568  42.281  16.128  14.769
72144W        W44569  25.956  40.060  14.467
72145W        W44570  14.791  19.875   4.608
72146W        W44571  12.750  39.818   3.726
72147W        W44572  22.553  21.948  13.981
72148W        W44573  40.862   0.721   4.608
72149W        W44574   8.369  10.945   2.287
72150W        W44575  20.977  36.050   4.596
72151W        W44576  33.360  27.086  13.359
72152W        W44577  23.171  19.596   2.347
72153W        W44578  12.666   5.899  14.509
72154W        W44579  40.894   1.655   1.586
72155W        W44580  22.828  14.650   2.260
72156W        W44581  14.951  23.103  13.372
72157W        W44582  33.612  11.363   0.856
72158W        W44583  41.378  42.043   1.181
72159W        W44584  20.724   4.442   3.714
72160W        W44585   4.918  41.935  14.687
72161W        W44586  36.106  14.685  11.679
72162W        W44587  24.762  11.871  14.889
72163W        W44588   1.213  39.110   3.122
72164W        W44589  35.074  10.209  12.433
72165W        W44590   4.784  15.237  13.566
72166W        W44591  20.076  23.331  12.532
72167W        W44592  32.203  42.895  11.864
72168W        W44593   7.117  21.292  10.572
72169W        W44594  42.935  33.569   4.750
72170W        W44595  18.093  25.676   4.772
72171W        W44596  34.930   5.953   4.143
72172W        W44597   5.309   9.396  13.905
72173W        W44598  44.251  31.896   4.095
72174W        W44599  36.841  24.151   2.300
72175W        W44600  13.609  42.527  11.021
72176W        W44601  38.432   8.998   1.815
72177W        W44602  20.571  39.529  14.193
72178W        W44603  44.667  38.575  12.471
72179W        W44604  31.683  20.730  14.134
72180W        W44605   5.807  11.791   1.535
72181W        W44606  36.292  44.629  14.440
72182W        W44607  22.339  35.111  12.895
72183W        W44608   8.824  33.242  14.320
72184W        W44609  35.527   0.990   2.919
72185W        W44610   7.908  16.712   4.884
72186W        W44611  36.908  24.995   9.739
72187W        W44612  22.313   4.205  12.854
72188W        W44613  37.716  30.593  11.608
72189W        W44614   4.713  26.487   4.095
72190W        W44615  21.167   3.207  12.173
72191W        W44616  25.453  19.018  14.976
72192W        W44617  38.507  37.100   4.874
72193W        W44618  17.242  11.320  12.069
72194W        W44619   7.168  41.487   0.925
72195W        W44620  34.375   4.191   0.952
72196W        W44621   4.389  27.102  11.572
72197W        W44622  15.351  36.475   2.230
72198W        W44623  22.209   4.759  11.055
72199W        W44624  16.700  16.685  13.490
72200W        W44625  21.732  38.254   3.651
72201W        W44626  42.676  40.886  11.450
72202W        W44627  34.035  15.167  10.797
72203W        W44628   7.665  27.048  12.046
72204W        W44629  30.692  19.629   3.376
72205W        W44630  17.094  40.914  10.523
72206W        W44631  28.955  29.865  10.287
72207W        W44632  11.618  43.720   4.108
72208W        W44633  16.551  31.435   4.200
72209W        W44634  43.028  33.973   3.250
72210W        W44635  38.292   0.325   2.307
72211W        W44636   8.114   9.214   2.661
72212W        W44637  20.673  10.674   4.613
72213W        W44638  22.974  27.037  11.566
72214W        W44639  15.551  40.368  11.859
72215W        W44640  35.355  39.285   4.215
72216W        W44641   6.364  11.238  12.597
72217W        W44642  24.195   8.809   4.961
72218W        W44643  17.517  35.632   2.740
72219W        W44644  38.289  36.889   2.304
72220W        W44645  38.129  26.635  12.536
72221W        W44646  41.986  23.641  12.312
72222W        W44647  39.966  36.748  14.816
72223W        W44648  41.807  19.583   4.545
72224W        W44649  43.749  13.103  11.668
72225W        W44650  17.848  14.575  11.318
72226W        W44651  29.286   2.810  10.656
72227W        W44652  11.614   1.572  10.716
72228W        W44653  29.944  43.283   0.932
72229W        W44654   9.931  24.822  14.186
72230W        W44655   7.743  41.138  12.634
72231W        W44656  43.399  28.732   2.384
72232W        W44657  42.908  39.924   2.735
72233W        W44658  38.017  20.939  12.935
72234W        W44659  37.458  37.375   3.606
72235W        W44660  40.482  42.863   4.706
72236W        W44661  11.365  25.105   2.274
72237W        W44662  26.220  22.233   2.680
72238W        W44663  12.714  17.584   1.814
72239W        W44664  14.223   8.857   4.235
72240W        W44665  40.008   6.734  12.982
72241W        W44666  26.112   7.380   0.343
72242W        W44667  44.592   4.722   2.680
72243W        W44668  32.727  17.263  11.193
72244W        W44669  40.804  11.747  10.919
72245W        W44670  31.036  19.261  10.864
72246W        W44671   0.378  17.910  14.980
72247W        W44672  35.790   3.798  11.134
72248W        W44673  44.869   8.656   4.994
72249W        W44674  42.385  22.446  14.497
72250W        W44675  26.716  31.412  10.469
72251W        W44676   9.116  11.340   9.900
72252W        W44677  27.481  29.869   3.172
72253W        W44678   8.718  20.925  12.496
72254W        W44679  25.733  32.306   5.341
72255W        W44680  19.062  41.426  13.062
72256W        W44681  20.041   3.506  12.891
72257W        W44682  32.541   4.858   0.473
72258W        W44683  25.692  24.442  10.980
72259W        W44684  17.523  26.519  14.834
72260W        W44685   5.367  18.356  12.109
72261W        W44686   1.376   7.139   3.658
72262W        W44687   7.458  25.426  12.557
72263W        W44688   0.227  44.023  12.828
72264W        W44689   5.369   3.671  14.810
72265W        W44690  20.660  28.854   4.813
72266W        W44691  15.122  25.625  11.459
72267W        W44692  43.026  42.315  14.371
72268W        W44693  22.010  33.029  12.405
72269W        W44694  15.703  42.023  11.474
72270W        W44695  37.023   8.892  14.437
72271W        W44696  37.339  32.893   1.277
72272W        W44697  16.145   6.466  12.529
72273W        W44698  13.203  25.439   1.798
72274W        W44699  43.898  16.106  13.322
72275W        W44700   3.312   6.245   0.201
72276W        W44701  29.690  33.155  12.068
72277W        W44702  38.797   4.914  13.447
72278W        W44703  17.672  29.984   0.349
72279W        W44704  32.014  14.351  13.274
72280W        W44705  16.645  25.467   1.287
72281W        W44706  36.373  30.548  11.829
72282W        W44707  26.699  36.632   2.895
72283W        W44708  43.277  23.032  11.860
72284W        W44709  10.882  26.205   3.109
72285W        W44710   8.461  21.690   1.734
72286W        W44711  41.038  44.743  12.606
72287W        W44712  23.587  26.694  12.382
72288W        W44713  11.228  21.947  11.326
72289W        W44714   9.766  16.522   0.091
72290W        W44715   7.923  10.860  12.935
72291W        W44716  25.981  36.352  11.912
72292W        W44717  10.249  20.702  12.022
72293W        W44718  39.493   8.311   0.388
72294W        W44719  27.199   0.898   4.262
72295W        W44720  22.931   2.504  11.633
72296W        W44721  43.214  29.566  12.994
72297W        W44722  25.396   0.465  13.985
72298W        W44723   1.321  24.960   2.323
72299W        W44724  22.239   2.498   1.899
72300W        W44725   6.397  27.193   1.329
72301W        W44726   8.327  33.178  10.567
72302W        W44727   9.757  39.506  10.483
72303W        W44728  18.956  17.638   4.763
72304W        W44729  10.831  44.556   0.763
72305W        W44730  29.909  26.766   2.822
72306W        W44731  17.779   4.880   4.162
72307W        W44732   8.676   6.704  14.828
72308W        W44733  20.248   5.991   4.460
72309W        W44734  21.230  12.390  11.919
72310W        W44735  29.057  21.529  11.834
72311W        W44736   1.499  24.770  11.917
72312W        W44737  21.958  24.078   4.534
72313W        W44738   6.059   6.381  13.477
72314W        W44739  27.934  13.003   3.341
72315W        W44740  23.094   7.316  10.726
72316W        W44741  34.626  15.730   4.771
72317W        W44742   5.760  16.656  14.260
72318W        W44743  37.766  16.172  14.726
72319W        W44744  24.426  17.142   2.535
72320W        W44745  37.276  44.488  14.488
72321W        W44746  15.112  39.256  11.469
72322W        W44747  13.841   0.456  11.567
72323W        W44748  25.409  14.838   0.378
72324W        W44749  44.541  20.475  11.994
72325W        W44750  29.467  32.125   4.705
72326W        W44751  17.567  28.915  10.998
72327W        W44752   0.473  11.580  13.873
72328W        W44753  38.964  31.430  10.483
72329W        W44754  44.677  33.933   0.981
72330W        W44755   6.187  31.155  14.084
72331W        W44756  31.884  34.925  11.714
72332W        W44757  35.988  21.147   4.902
72333W        W44758  34.110  30.381  14.470
72334W        W44759  13.035  11.911   4.143
72335W        W44760  33.932   6.802  14.969
72336W        W44761  35.285  33.073  10.748
72337W        W44762  38.664   1.921   2.047
72338W        W44763   3.386  24.157  11.849
72339W        W44764  20.111  40.429   4.842
72340W        W44765  15.786  34.576  14.950
72341W        W44766  23.196  33.655   3.731
72342W        W44767  14.770   6.714   2.817
72343W        W44768  15.613  27.588   0.909
72344W        W44769  44.484  15.782   1.472
72345W        W44770  30.030  24.630  13.844
72346W        W44771   4.588  17.980   2.250
72347W        W44772  13.704  20.072   1.369
72348W        W44773  31.023  19.981  13.875
72349W        W44774  28.652  39.150   3.631
72350W        W44775  13.113  33.675   1.842
72351W        W44776   5.172  14.164   1.321
72352W        W44777  26.254  28.087  14.798
72353W        W44778   2.254  33.543   0.992
72354W        W44779  39.936  36.605   1.772
72355W        W44780  18.019  38.535  12.958
72356W        W44781  32.686  24.965  12.499
72357W        W44782   3.193   3.737  13.517
72358W        W44783  38.327  17.531  12.246
72359W        W44784  27.294  36.583  11.136
72360W        W44785   9.334  35.111   3.243
72361W        W44786  27.196  34.022  12.611
72362W        W44787  35.849  43.453   0.416
72363W        W44788  30.560   1.992   1.732
72364W        W44789  22.742   1.370  10.719
72365W        W44790  44.312  19.508  10.840
72366W        W44791  13.733  29.036  12.860
72367W        W44792  20.291  42.911   4.773
72368W        W44793   7.859  40.415   4.603
72369W        W44794   8.758   3.263   0.373
72370W        W44795   4.472  13.258   4.565
72371W        W44796  28.225  13.818  14.540
72372W        W44797  16.785  30.472  13.308
72373W        W44798  29.631  17.580   2.894
72374W        W44799  19.247  33.726  13.467
72375W        W44800  27.568   9.818  13.547
72376W        W44801  15.395  14.080   3.384
72377W        W44802  27.688   3.368  12.870
72378W        W44803  29.255  17.498   0.422
72379W        W44804  26.304  33.076  13.510
72380W        W44805  42.421   5.352   4.104
72381W        W44806  35.923  32.520   1.395
72382W        W44807  39.346  11.810   1.853
72383W        W44808   7.845  16.682  14.925
72384W        W44809  24.062  17.225   1.551
72385W        W44810  34.610   5.801   0.872
72386W        W44811  38.143   4.360   1.229
72387W        W44812  24.776  10.160   0.071
72388W        W44813  11.701   4.604  12.932
72389W        W44814   1.827   2.229  11.410
72390W        W44815  34.583   7.834   0.298
72391W        W44816  20.234   7.427   2.297
72392W        W44817  19.955  13.623   4.135
72393W        W44818  11.115   7.310   1.086
72394W        W44819  25.303  30.477  11.051
72395W        W44820  15.544  19.770   1.484
72396W        W44821   6.253  17.177  13.982
72397W        W44822  15.001  13.220  12.089
72398W        W44823  31.399  19.580  10.685
72399W        W44824  11.621  17.698  13.530
72400W        W44825  36.833  40.164  12.064
72401W        W44826   4.983  23.455   2.775
72402W        W44827   3.032  38.077  11.137
72403W        W44828  29.115   7.980   0.754
72404W        W44829  21.345  23.590   4.059
72405W        W44830  15.827  16.458   1.896
72406W        W44831  35.368   0.739  10.632
72407W        W44832  31.877  44.851  11.581
72408W        W44833  29.169   3.036  12.386
72409W        W44834  37.987  15.612   0.390
72410W        W44835  34.524   3.763  11.530
72411W        W44836  29.369   7.276   2.224
72412W        W44837  22.685  38.030  12.788
72413W        W44838  10.364  43.037   3.741
72414W        W44839  20.003  11.916   1.392
72415W        W44840  36.934  24.103   4.617
72416W        W44841   3.812  12.419   4.164
72417W        W44842  17.593  31.923  14.427
72418W        W44843   6.531  31.475  13.878
72419W        W44844  12.248  41.518   3.104
72420W        W44845  42.431   0.783  12.139
72421W        W44846  32.994  44.292  11.079
72422W        W44847  21.224  31.008   3.330
72423W        W44848  38.444  23.749   4.838
72424W        W44849   5.708  25.982  13.407
72425W        W44850   0.900  13.833   1.394
72426W        W44851  39.565  26.626  10.720
72427W        W44852  15.848  26.931  13.682
72428W        W44853  44.194  44.381   2.769
72429W        W44854  16.828  40.456  10.578
72430W        W44855   4.730  11.395   0.999
72431W        W44856  15.672   3.127  12.843
72432W        W44857  41.364  12.241  13.115
72433W        W44858  17.007  34.090   3.803
72434W        W44859  30.114  40.102  11.627
72435W        W44860  13.273  28.810   3.766
72436W        W44861  18.594  30.755   1.201
72437W        W44862  30.672  13.683  14.441
72438W        W44863  22.739  28.211  10.611
72439W        W44864   4.954   9.841  12.588
72440W        W44865  35.017   1.536  11.601
72441W        W44866  17.777  28.759   1.902
72442W        W44867  12.840  42.753   0.893
72443W        W44868  40.840  15.007   0.483
72444W        W44869   8.691  10.144  14.007
72445W        W44870  31.582  14.612  14.502
72446W        W44871  16.027  44.184   3.835
72447W        W44872  22.651  32.344  12.498
72448W        W44873  35.654  27.929  12.408
72449W        W44874   9.035  24.873   1.263
72450W        W44875  25.985  13.741   3.787
72451W        W44876  43.155  40.081   3.721
72452W        W44877   8.058  35.041  11.608
72453W        W44878  14.200   6.240   1.163
72454W        W44879  39.321  33.107  13.407
72455W        W44880   7.116  22.144  13.439
72456W        W44881  24.972   1.549   2.782
72457W        W44882   3.041  27.613  12.871
72458W        W44883  28.551  16.776   2.782
72459W        W44884  22.442  16.257  11.582
72460W        W44885   0.217   1.342  12.984
72461W        W44886  42.760  24.786   1.376
72462W        W44887  22.952  26.676   4.864
72463W        W44888  12.761  18.342  12.788
72464W        W44889  43.556  38.986   0.731
72465W        W44890   4.636   8.164  12.620
72466W        W44891  23.972  39.599   0.776
72467W        W44892   3.802  43.864   1.695
72468W        W44893  40.421  36.879   1.306
72469W        W44894  39.994  17.518   3.439
72470W        W44895  27.973  26.031  14.798
72471W        W44896  28.171  30.587   2.387
72472W        W44897  11.199  24.983   4.128
72473W        W44898  12.267  12.150   3.723
72474W        W44899  25.195   1.320   3.628
72475W        W44900   8.454   5.982  12.393
72476W        W44901  30.448  21.385   0.684
72477W        W44902  22.735  30.445  12.422
72478W        W44903  39.191  31.375   3.613
72479W        W44904  24.215   2.492  11.286
72480W        W44905  19.614  33.116  13.055
72481W        W44906  16.745  20.581   3.329
72482W        W44907  21.547  37.611  14.558
72483W        W44908   7.754  28.668   4.656
72484W        W44909  11.623  28.135  10.009
72485W        W44910  39.941   4.625  13.866
72486W        W44911  20.196  28.998   4.103
72487W        W44912  19.178  43.786   3.605
72488W        W44913  36.903  42.995   2.778
72489W        W44914  34.134  25.254  13.293
72490W        W44915  11.815  24.139   2.034
72491W        W44916   5.424  41.504   2.934
72492W        W44917   8.263   4.391  11.693
72493W        W44918   3.005  31.487   3.451
72494W        W44919  39.818  17.141  13.949
72495W        W44920  30.464   0.121  10.759
72496W        W44921  39.886  28.508   2.377
72497W        W44922  14.340  12.773  11.502
72498W        W44923  35.992  29.619   2.285
72499W        W44924  27.471   9.965  11.245
72500W        W44925  39.972  19.104   2.728
72501W        W44926  37.631  21.997   4.600
72502W        W44927  40.261  29.077   3.414
72503W        W44928  40.102  16.533   4.109
72504W        W44929  38.453  29.834   0.035
72505W        W44930  41.212   5.225  11.045
72506W        W44931   7.899   4.724   3.366
72507W        W44932  16.169  43.841  14.387
72508W        W44933  10.618  24.222   0.917
72509W        W44934  22.060  36.678  12.982
72510W        W44935  11.279   2.210   3.971
72511W        W44936   4.195  17.284   4.882
72512W        W44937  26.974  15.686   2.278
72513W        W44938  33.955  21.069  13.376
72514W        W44939  34.088  40.125   3.596
72515W        W44940  10.160   4.465   2.909
72516W        W44941   4.489  33.430   1.792
72517W        W44942  15.353  36.425   0.326
72518W        W44943  18.759   5.779   0.564
72519W        W44944  25.198  21.565  14.530
72520W        W44945  25.720  33.134  10.539
72521W        W44946   7.872   8.318   4.992
72522W        W44947  33.948  20.409   0.499
72523W        W44948  27.000   0.998  11.513
72524W        W44949  38.628  13.802  11.598
72525W        W44950  18.779   6.214   1.808
72526W        W44951  42.023  10.869   3.684
72527W        W44952   1.822   8.618  11.618
72528W        W44953  10.963  19.091  12.509
72529W        W44954  34.057  19.333  12.113
72530W        W44955  36.351  40.064  14.922
72531W        W44956  38.002  24.030   4.671
72532W        W44957  22.325  14.860  12.552
72533W        W44958  28.498  16.837   0.241
72534W        W44959  43.365   7.142   3.916
72535W        W44960   2.001   2.847   2.253
72536W        W44961  40.347  41.127   1.656
72537W        W44962  28.575  21.567   1.912
72538W        W44963   0.628  39.769  14.290
72539W        W44964  33.595  36.786   2.338
72540W        W44965  42.221  17.731   0.361
72541W        W44966   4.159   8.142  14.807
72542W        W44967  37.359  34.556   0.355
72543W        W44968  38.777  41.285  10.714
72544W        W44969  36.053  37.859  11.923
72545W        W44970  27.629  43.878   1.758
72546W        W44971   5.773  17.559   2.127
72547W        W44972   7.800  13.949   1.497
72548W        W44973  43.254  13.003  13.387
72549W        W44974   5.656  28.529  10.769
72550W        W44975  23.576   2.864   2.712
72551W        W44976   7.102  38.358   9.926
72552W        W44977  21.787  34.446   3.617
72553W        W44978  28.547  41.103  10.450
72554W        W44979   1.362  39.400  11.802
72555W        W44980   0.018   3.852   0.854
72556W        W44981  41.814  11.081  13.354
72557W        W44982   9.964  38.949  14.820
72558W        W44983  22.720  19.201   0.788
72559W        W44984  23.065  14.375   2.641
72560W        W44985   5.193  13.178   0.356
72561W        W44986  28.098  31.476   1.955
72562W        W44987  26.292  20.646   0.989
72563W        W44988   3.886  18.327  14.885
72564W        W44989  21.100  35.251   2.522
72565W        W44990  36.189  44.248   4.615
72566W        W44991  10.348   7.129  10.728
72567W        W44992  41.795  44.893   0.837
72568W        W44993  43.345  16.514   3.783
72569W        W44994  24.991  10.483   4.196
72570W        W44995  17.702   6.651   3.513
72571W        W44996  25.846  20.344   3.744
72572W        W44997  17.788   4.272   4.203
72573W        W44998   4.661   4.208   3.819
72574W        W44999  15.577   2.429  10.049
72575W        W45000   8.505  27.258   2.908
72576W        W45001  10.167  33.161   5.138
72577W        W45002  35.950   7.074  11.915
72578W        W45003  30.866  22.070   1.824
72579W        W45004  30.583  20.758   2.275
72580W        W45005  41.147   0.223   9.939
72581W        W45006   1.975  17.680  10.979
72582W        W45007  42.782  20.740  11.492
72583W        W45008  17.627  25.119  14.165
72584W        W45009   9.723  18.444   1.769
72585W        W45010  11.702   5.772   0.986
72586W        W45011  16.248   3.199  10.520
72587W        W45012   3.798  28.610  13.528
72588W        W45013   4.972  23.698  14.467
72589W        W45014  21.615  22.632   0.216
72590W        W45015  39.828  36.192  12.375
72591W        W45016  19.231  29.298   4.579
72592W        W45017  40.485  29.050   1.906
72593W        W45018  44.094  28.050  11.610
72594W        W45019  28.582  12.353   4.421
72595W        W45020   4.009  18.237   2.611
72596W        W45021  28.586  39.791  13.393
72597W        W45022  41.317  42.225  12.315
72598W        W45023  11.650  11.032   3.283
72599W        W45024  19.759  38.472   2.163
72600W        W45025   6.785  44.853  14.906
72601W        W45026   9.953  21.746  10.802
72602W        W45027   8.469  36.015  11.920
72603W        W45028  23.345  30.408  14.828
72604W        W45029   0.809   5.098  13.777
72605W        W45030   7.723  25.331  10.826
72606W        W45031  37.839  33.879  12.906
72607W        W45032  11.672  34.969  13.333
72608W        W45033  16.276  16.260   1.147
72609W        W45034  37.130  18.681  11.227
72610W        W45035  24.200   7.403   2.671
72611W        W45036  32.697  19.792  10.983
72612W        W45037  22.216   2.641  10.704
72613W        W45038   8.403  11.779  11.210
72614W        W45039  25.235  26.028  11.075
72615W        W45040   5.181  25.937  13.422
72616W        W45041  39.904  27.424  11.538
72617W        W45042  22.195  33.332  14.837
72618W        W45043  32.634  10.269  13.787
72619W        W45044   3.905  19.654  13.836
72620W        W45045  12.593   2.197   4.693
72621W        W45046  23.231  13.219  12.494
72622W        W45047  25.622  35.036  11.153
72623W        W45048  41.932  14.541   3.762
72624W        W45049  28.204  39.500  14.804
72625W        W45050  26.121  14.918   1.868
72626W        W45051   5.678  24.177   2.933
72627W        W45052  32.565  25.171   1.671
72628W        W45053  23.511  41.757  12.573
72629W        W45054  29.767  25.418  11.279
72630W        W45055   5.411  32.374   1.034
72631W        W45056  38.825  17.558   3.473
72632W        W45057  44.099  26.994  13.269
72633W        W45058   6.457  25.762   0.341
72634W        W45059  19.370  18.598   0.398
72635W        W45060   2.469  44.769  11.043
72636W        W45061  35.462  38.173   1.303
72637W        W45062  21.848  14.284   2.253
72638W        W45063  39.400  43.052   2.325
72639W        W45064   9.638  34.979   2.304
72640W        W45065  15.705  33.913   1.698
72641W        W45066  43.188  34.076  14.703
72642W        W45067  12.671  31.353   1.712
72643W        W45068  25.397  40.763  11.379
72644W        W45069  32.691  17.370   5.010
72645W        W45070  42.014  21.206  11.491
72646W        W45071  23.490   3.354   4.465
72647W        W45072  42.240  25.587   0.968
72648W        W45073  28.108  19.681   4.641
72649W        W45074  18.075  41.307  11.460
72650W        W45075  21.976  39.575   3.165
72651W        W45076  40.071  16.262  13.654
72652W        W45077  10.165  10.365   0.874
72653W        W45078  24.734  28.551   3.904
72654W        W45079   2.469  19.279   4.155
72655W        W45080   8.928  30.959  11.630
72656W        W45081  27.500  16.658  14.019
72657W        W45082  41.383  39.171  11.994
72658W        W45083   2.371  14.638   0.345
72659W        W45084  15.603  25.471  14.491
72660W        W45085   7.827  23.034  11.174
72661W        W45086  41.311  41.571   4.560
72662W        W45087  34.109  27.030  14.887
72663W        W45088  11.307  14.156  12.758
72664W        W45089  39.909  29.649   2.310
72665W        W45090   9.817  43.214  14.529
72666W        W45091  24.573  39.923  10.826
72667W        W45092  42.812  16.837   3.132
72668W        W45093  38.905   2.728  10.575
72669W        W45094  20.832  24.360  12.005
72670W        W45095  36.289  44.704   4.186
72671W        W45096   6.184  39.066  10.650
72672W        W45097  33.755  22.582  10.177
72673W        W45098   2.374  35.383   4.604
72674W        W45099  42.416  39.366   4.300
72675W        W45100   5.275   6.826  14.063
72676W        W45101  19.468  41.875  13.789
72677W        W45102  17.216   3.009  14.533
72678W        W45103   5.769  30.681  14.880
72679W        W45104  11.863  42.130  14.223
72680W        W45105  23.192  34.868  14.137
72681W        W45106   8.682   1.328  10.740
72682W        W45107  38.183   7.456  13.847
72683W        W45108   2.145  30.094  13.599
72684W        W45109  31.515   2.763   3.389
72685W        W45110   5.866  27.011   1.740
72686W        W45111  31.934  21.727   4.954
72687W        W45112  42.827  37.527  12.913
72688ION    NA+45113  32.668  21.292  12.282
72689ION    NA+45114  11.758  28.903  11.257
72690ION    NA+45115  24.940  37.048   0.029
72691ION    NA+45116  18.194  17.777   3.626
72692ION    NA+45117  29.680  29.663   3.039
72693ION    NA+45118  41.172  24.145  13.811
72694ION    NA+45119  10.483  26.524   3.001
72695ION    NA+45120  34.392  33.919   0.299
72696ION    NA+45121  24.507   5.115  11.434
72697ION    NA+45122  28.517  11.437   2.697
72698ION    NA+45123  42.391  24.969   4.718
72699ION    NA+45124  17.170  32.394   2.971
72700ION    NA+45125  19.060  23.985   2.346
72701ION    NA+45126  23.647  38.769   4.877
72702ION    NA+45127  25.592  37.236   4.564
72703ION    NA+45128  35.633  14.810   2.359
72704ION    NA+45129  26.725  19.349   1.839
72705ION    NA+45130  19.013   8.180  10.787
72706ION    NA+45131  39.947  33.582   4.634
72707ION    NA+45132  15.505  33.514  13.186
72708ION    NA+45133  14.957  24.841   5.458
72709ION    NA+45134   1.223   9.780   4.622
72710ION    NA+45135  16.715  17.597   2.215
72711ION    NA+45136  13.626   1.096   1.805
72712ION    NA+45137  20.481  26.054   2.329
72713ION    NA+45138  31.463  11.109   1.896
72714ION    NA+45139  25.278  24.822   0.529
72715ION    NA+45140  11.307  43.784   0.058
72716ION    NA+45141  41.475  42.086  12.773
72717ION    NA+45142   1.381   7.990   2.732
72718ION    NA+45143  34.856  29.931   4.104
72719ION    NA+45144  32.779  31.370   1.333
72720ION    NA+45145  36.245  31.531   2.206
72721ION    NA+45146  17.782   5.484  13.400
72722ION    NA+45147  22.018  38.853  13.564
72723ION    NA+45148  22.517  31.868   1.742
72724ION    NA+45149  31.432  39.377  13.539
72725ION    NA+45150  13.451  17.183   4.117
72726ION    NA+45151  31.652   2.565   2.558
72727ION    NA+45152  43.936  35.397   1.753
72728ION    NA+45153  38.378  36.410  14.819
72729ION    NA+45154  36.446  41.584  13.415
72730ION    NA+45155  11.167  12.446  12.389
72731ION    NA+45156   1.054  33.635   4.854
72732ION    NA+45157  27.744   9.098   2.479
72733ION    NA+45158  19.724  19.460   1.674
72734ION    NA+45159  30.659  20.158  11.838
72735ION    NA+45160  37.611  26.051   0.432
72736ION    NA+45161  31.322  12.019   2.565
72737ION    NA+45162  16.732  19.152   0.918
72738ION    NA+45163   3.954  30.177  10.729
72739ION    NA+45164  34.504  34.413  10.678
72740ION    NA+45165  30.103  23.541  11.004
72741ION    NA+45166  16.030  20.720   2.629
72742ION    NA+45167  15.626  24.142   5.207
72743ION    NA+45168  29.016   5.729  13.065
72744ION    NA+45169  14.101  38.216   2.723
72745ION    NA+45170  37.287  11.831   0.229
72746ION    NA+45171  15.086  43.214  11.825
72747ION    NA+45172  11.703  31.759   2.976
72748ION    NA+45173  10.350  24.011   4.882
72749ION    NA+45174  21.795  24.149   2.799
72750ION    NA+45175  28.583   9.297  10.230
72751ION    NA+45176  21.112  24.032  10.729
72752ION    NA+45177   1.057  17.745   4.566
72753ION    NA+45178  25.291  10.736   1.202
72754ION    NA+45179  28.897   3.863   2.728
72755ION    NA+45180  16.370  15.465   3.046
72756ION    NA+45181   5.019  44.673   0.872
72757ION    NA+45182   0.660  30.741   9.955
72758ION    NA+45183  22.179  10.979   5.362
72759ION    NA+45184  19.069  36.946  11.598
72760ION    NA+45185   4.806  38.068  12.547
72761ION    NA+45186  25.720  21.139  13.730
72762ION    NA+45187  20.007  17.273  11.153
72763ION    NA+45188  19.274  14.948   3.044
72764ION    NA+45189  17.380  41.367  12.390
72765ION    NA+45190  35.429  36.120   2.377
72766ION    NA+45191   1.727  16.960   3.826
72767ION    NA+45192   8.446  27.225   4.618
72768ION    NA+45193   1.094  26.698   1.027
72769ION    NA+45194  18.712  43.653  11.186
72770ION    NA+45195  23.561  37.761   1.697
72771ION    NA+45196  12.542  38.645  13.242
72772ION    NA+45197   0.587  26.898  11.404
72773ION    NA+45198  10.783  14.802  12.951
72774ION    NA+45199  34.035   2.242   4.630
72775ION    NA+45200  35.052  16.442   4.321
72776ION    NA+45201  39.970  15.256   1.292
72777ION    NA+45202  37.450   1.202   0.416
72778ION    NA+45203  41.642   4.421   3.040
72779ION    NA+45204   9.592  43.464  12.593
72780ION    NA+45205  10.349  44.886  10.757
72781ION    NA+45206   1.201  17.241  11.477
72782ION    NA+45207  36.886  18.293  14.882
72783ION    NA+45208  20.162  10.666  14.005
72784ION    NA+45209   8.414  12.550  10.491
72785ION    NA+45210  43.783   6.044  11.572
72786ION    NA+45211  36.071   6.733   2.818
72787ION    NA+45212  13.172   4.609  12.344
72788ION    NA+45213  30.284   0.193  13.669
72789ION    NA+45214  23.895   3.004  10.873
72790ION    NA+45215  23.613   9.767   4.441
72791ION    NA+45216  26.639   6.939   3.960
72792ION    NA+45217  21.960  25.638  12.084
72793ION    NA+45218   1.745  37.676  12.128
72794ION    NA+45219  30.423  10.431  10.309
72795ION    NA+45220  36.698   6.655  12.564
72796ION    NA+45221  35.976   4.049   4.270
72797ION    NA+45222   0.610   6.849   2.747
72798ION    NA+45223  39.392   7.174   1.332
72799ION    NA+45224  41.745  33.555  14.461
72800ION    NA+45225  31.723  33.006   1.834
72801ION    NA+45226  21.286  33.559   3.736
72802ION    NA+45227  38.532  31.413  14.975
72803ION    NA+45228   7.200   0.694  10.843
72804ION    NA+45229  28.818  31.250  14.364
72805ION    NA+45230  34.102   4.860   0.956
72806ION    NA+45231  25.576  19.519  12.476
72807ION    NA+45232  33.486  31.192   1.890
72808ION    NA+45233  43.263   0.885   0.889
72809ION    NA+45234  43.396   1.099  11.226
72810ION    NA+45235   3.322   4.980  13.442
72811ION    NA+45236  12.746   4.690   1.240
72812ION    NA+45237   4.606  25.655   3.998
72813ION    NA+45238   0.945  32.750  13.356
72814ION    NA+45239  42.778   1.219  12.003
72815ION    NA+45240  25.369  27.694   2.821
72816ION    NA+45241  41.194  15.782  11.293
72817ION    NA+45242  34.527  44.364   4.586
72818ION    NA+45243  18.866   3.672   1.850
72819ION    NA+45244   2.958  44.627   4.420
72820ION    NA+45245  24.306   3.235   3.627
72821ION    NA+45246  11.118  37.686  10.251
72822ION    NA+45247  29.763  23.480  14.470
72823ION    NA+45248   3.726  26.549   3.069
72824ION    NA+45249  40.531   7.998  13.165
72825ION    NA+45250   7.252  41.606  14.521
72826ION    NA+45251   7.661  21.111  14.863
72827ION    NA+45252  44.576  20.524   3.004
72828ION    NA+45253  38.043  32.954   2.815
72829ION    NA+45254   9.529  28.924   3.667
72830ION    NA+45255   6.366  19.397  14.187
72831ION    NA+45256  17.589  36.677   2.798
72832ION    NA+45257  32.020  33.095  10.722
72833ION    NA+45258  19.468  37.078   0.815
72834ION    NA+45259  14.362  41.376  13.421
72835ION    NA+45260  44.391  33.869  14.663
72836ION    NA+45261  40.606  10.254   9.596
72837ION    NA+45262  36.774  30.005   4.715
72838ION    NA+45263  23.886   1.308  14.799
72839ION    NA+45264  12.075   1.433   3.457
72840ION    NA+45265   2.207  42.069   3.673
72841ION    NA+45266  41.458  25.037  11.326
72842ION    NA+45267  17.687   2.991   0.724
72843ION    NA+45268  33.135  30.077   2.633
72844ION    NA+45269   1.568   3.220   3.974
72845ION    NA+45270  20.693   5.938  11.016
72846ION    NA+45271  30.176  33.416  11.379
72847ION    NA+45272  33.070  19.206  12.927
72848ION    NA+45273  10.832  41.925   2.480
72849ION    NA+45274  43.740  14.669  12.859
72850ION    NA+45275  27.116  26.588  14.839
72851ION    NA+45276  25.066  28.589  14.123
72852ION    NA+45277  12.647  21.302  11.119
72853ION    NA+45278  27.381  15.982   3.704
72854ION    NA+45279  25.274  20.126   1.892
72855ION    NA+45280   6.868  40.761  14.032
72856ION    NA+45281  23.480  16.974  11.040
72857ION    NA+45282  24.074  26.751   3.721
72858ION    NA+45283  21.415  34.787  11.937
72859ION    NA+45284  31.966   0.620   0.342
72860ION    NA+45285  31.095  33.864  13.708
72861ION    NA+45286   8.511  37.888  12.522
72862ION    NA+45287  20.129  15.391   2.235
72863ION    NA+45288   8.943  23.382   5.019
72864ION    NA+45289  11.302  22.084   3.715
72865ION    NA+45290  37.392   6.162   2.474
72866ION    NA+45291  25.489   3.022  10.119
72867ION    NA+45292   2.894  19.526   3.334
72868ION    NA+45293   4.029   4.970  12.074
72869ION    NA+45294  38.357  27.063   3.964
72870ION    NA+45295   6.814  44.760   4.105
72871ION    NA+45296   4.815   6.985  14.295
72872ION    NA+45297  25.209  23.505  14.828
72873ION    NA+45298  10.413  12.613   2.601
72874ION    NA+45299  14.640  40.606   2.839
72875ION    NA+45300  14.160  24.639   5.627
72876ION    NA+45301  38.056  28.204   3.892
72877ION    NA+45302  11.896  20.270  11.539
72878ION    NA+45303  35.377  22.781   2.838
72879ION    NA+45304   4.230  13.378  14.739
72880ION    NA+45305   2.971  38.014  14.966
72881ION    NA+45306  22.439  30.569   3.226
72882ION    NA+45307  20.032  30.985  14.354
72883ION    NA+45308  34.366  34.069  12.823
72884ION    NA+45309  17.243  19.247   5.082
72885ION    NA+45310  21.328  11.534  11.498
72886ION    NA+45311  14.387  21.267   2.714
72887ION    NA+45312  14.387   4.969   3.740
72888ION    NA+45313  24.097  44.303   0.512
72889ION    NA+45314  37.991  15.622   4.028
72890ION    NA+45315   4.726  16.327   2.341
72891ION    NA+45316  29.017   3.377  10.041
72892ION    NA+45317  36.801  38.428  13.730
72893ION    NA+45318  39.975   2.942   1.049
72894ION    NA+45319  40.766  12.711   0.441
72895ION    NA+45320   6.221  40.603   2.777
72896ION    NA+45321  23.141   7.073  14.400
72897ION    NA+45322  33.748  17.162   3.035
72898ION    NA+45323   8.032   3.940   4.757
72899ION    NA+45324  33.658  11.493  14.937
72900ION    NA+45325  36.317  24.819   4.652
72901ION    NA+45326  39.408  23.112  14.691
72902ION    NA+45327  10.288   4.719  13.505
72903ION    NA+45328  12.504   9.554  11.146
72904ION    NA+45329  16.092  18.864  12.363
72905ION    NA+45330   6.535  14.493  13.784
72906ION    NA+45331   3.823  39.973   4.119
72907ION    NA+45332  14.872  31.705   4.452
72908ION    NA+45333  32.017   9.381  11.768
72909ION    NA+45334  42.277  42.541   3.769
72910ION    NA+45335   9.050   8.813  10.976
72911ION    NA+45336   1.870  12.822  14.626
72912ION    NA+45337   4.483  35.501   5.383
72913ION    NA+45338   3.701  10.301   1.343
72914ION    NA+45339  30.689  25.695  13.455
72915ION    NA+45340   1.604   0.709   0.186
72916ION    NA+45341  42.959  36.445  13.302
72917ION    NA+45342  25.159  10.381   2.797
72918ION    NA+45343  12.541  17.099   3.711
72919ION    NA+45344  33.516  27.141   4.471
72920ION    NA+45345  25.334   7.326  11.996
72921ION    NA+45346  29.162  34.116   4.471
72922ION    NA+45347  21.393  40.547  13.796
72923ION    NA+45348  40.877  21.121   2.732
72924ION    NA+45349   7.891   4.955   1.855
72925ION    NA+45350   5.218  39.807   0.024
72926ION    NA+45351  29.728  36.064   4.111
72927ION    NA+45352  29.210  44.618  13.261
72928ION    NA+45353  33.076   4.719  14.180
72929ION    NA+45354  37.613  26.541  10.928
72930ION    NA+45355  30.569  19.185   2.386
72931ION    NA+45356  36.276   2.152   2.444
72932ION    NA+45357  27.963  31.346  12.546
72933ION    NA+45358  29.111   4.312   0.302
72934ION    NA+45359  27.916  43.192   0.770
72935ION    NA+45360  28.090   3.246   0.454
72936ION    NA+45361  31.523  21.669   4.117
72937ION    NA+45362  37.875  35.467   5.124
72938ION    NA+45363  40.778  32.441   2.640
72939ION    NA+45364  32.133  39.914   1.310
72940ION    NA+45365   1.326  34.332   1.327
72941ION    NA+45366  24.491  15.627  11.946
72942ION    NA+45367   0.303  43.914  12.342
72943ION    NA+45368  35.717  25.001  13.698
72944ION    NA+45369  27.032  40.529  11.457
72945ION    NA+45370  41.524   5.878   4.628
72946ION    NA+45371  15.968  44.122  11.220
72947ION    NA+45372  21.260  34.578  12.746
72948ION    NA+45373  24.227  31.339   2.244
72949ION    NA+45374  14.658   6.392  11.411
72950ION    NA+45375  32.868  34.874   1.710
72951ION    NA+45376   1.671  21.260  12.946
72952ION    NA+45377  12.971   1.837  12.014
72953ION    NA+45378  27.055  14.162   3.284
72954ION    NA+45379  22.755   9.453  12.393
72955ION    NA+45380  41.999  39.191  11.947
72956ION    NA+45381  42.486  38.405   0.783
72957ION    NA+45382  12.601  37.030   1.218
72958ION    NA+45383  11.401  40.148   0.980
72959ION    NA+45384  17.319  41.106  13.264
72960ION    NA+45385  17.112  22.927  11.029
72961ION    NA+45386  32.568  11.744   3.539
72962ION    NA+45387  21.952  35.604   0.925
72963ION    NA+45388   7.183  18.804  13.861
72964ION    NA+45389   4.801  18.669   4.102
72965ION    NA+45390  43.019   7.380   2.258
72966ION    NA+45391  28.700  37.406   2.601
72967ION    NA+45392   8.806  41.731   3.257
72968ION    NA+45393  17.812   9.914   3.632
72969ION    NA+45394   4.838  18.616  13.424
72970ION    NA+45395  11.066  43.009  10.739
72971ION    NA+45396   8.720  32.728  12.026
72972ION    NA+45397  13.356   2.255  10.948
72973ION    NA+45398  39.961  27.220  14.878
72974ION    NA+45399  35.364  10.625   0.258
72975ION    NA+45400  12.675  11.125  14.838
72976ION    NA+45401  42.847  12.658  12.632
72977ION    NA+45402  22.064  42.753   1.208
72978ION    NA+45403  19.283  10.647  11.223
72979ION    NA+45404  15.792  41.718  13.294
72980ION    NA+45405  32.563  39.007   2.456
72981ION    NA+45406  39.970   8.903  13.352
72982ION    NA+45407  44.461  12.171   5.059
72983ION    NA+45408  26.531   6.849   5.463
72984ION    NA+45409   7.871  11.277   1.493
72985ION    NA+45410   0.958  27.589  12.153
72986ION    NA+45411  41.040  25.194  12.220
72987ION    NA+45412  25.171   3.435   2.223
72988ION    NA+45413  20.649  19.065  12.104
72989ION    NA+45414   9.369  29.071  12.509
72990ION    NA+45415  28.562  27.081  13.935
72991ION    NA+45416  32.664  31.890  13.993
72992ION    NA+45417  33.234  40.383   0.040
72993ION    NA+45418   7.530  24.676   2.809
72994ION    NA+45419   8.849  17.812  11.156
72995ION    NA+45420  15.388  15.526  12.057
72996ION    NA+45421  25.867  31.619  12.464
72997ION    NA+45422  12.650   7.963   0.074
72998ION    NA+45423  31.237  24.665  12.467
72999ION    NA+45424  21.516  23.580   1.260
73000ION    NA+45425  37.663  27.002  14.984
73001ION    NA+45426  40.576  42.027   3.851
73002ION    NA+45427  12.372  40.269   3.683
73003ION    NA+45428  18.783  42.231  14.416
73004ION    NA+45429  16.994   8.751  12.598
73005ION    NA+45430  15.710  22.111  14.534
73006ION    NA+45431  30.247  29.398  14.422
73007ION    NA+45432  26.460  15.592   3.736
73008ION    NA+45433  15.477  33.602   0.867
73009ION    NA+45434   6.161  12.328   2.164
73010ION    NA+45435  26.883  34.396  10.978
73011ION    NA+45436  26.395  43.723   4.930
73012ION    NA+45437  17.797  20.557   4.178
73013ION    NA+45438  14.706  15.709   2.550
73014ION    NA+45439  17.282  22.434  14.788
73015ION    NA+45440   3.149  34.063  12.053
73016ION    NA+45441  35.899  13.352  11.677
73017ION    NA+45442   1.866  33.346   2.348
73018ION    NA+45443  39.511  20.492   1.774
73019ION    NA+45444  34.677  38.523  14.431
73020ION    NA+45445  14.869  31.183  10.768
73021ION    NA+45446  28.364  37.951  13.985
73022ION    NA+45447  28.874  19.670  10.660
73023ION    NA+45448  44.710  29.676  14.090
73024ION    NA+45449   8.985  29.714  11.847
73025ION    NA+45450  31.108  11.167  12.071
73026ION    NA+45451   6.139  32.653  14.150
73027ION    NA+45452  13.668  21.355   1.769
73028ION    NA+45453  36.363  19.717  10.861
73029ION    NA+45454  35.637  18.066   0.180
73030ION    NA+45455  42.794   2.684  11.072
73031ION    NA+45456   3.325   0.984  11.151
73032ION    NA+45457  35.597  33.393   0.428
73033ION    NA+45458   7.338  19.154   2.812
73034ION    NA+45459   9.704  17.673  11.655
73035ION    NA+45460  34.040  10.583   4.647
73036ION    NA+45461  44.017  41.200  11.169
73037ION    NA+45462  40.378  25.402  13.422
73038ION    NA+45463  43.215  15.156   2.719
73039ION    NA+45464  16.957   3.990   0.500
73040ION    NA+45465  38.511  43.410   3.059
73041ION    NA+45466  41.561  15.174  12.071
73042ION    NA+45467   8.810  44.266   2.415
73043ION    NA+45468  25.681   9.814   4.364
73044ION    NA+45469  13.254  30.847  14.621
73045ION    NA+45470  39.110  17.272   9.756
73046ION    NA+45471  20.827  15.498   4.171
73047ION    NA+45472  15.856  44.091  12.364
73048ION    NA+45473  28.665  37.004   1.810
73049ION    NA+45474  14.330  41.582   2.515
73050ION    NA+45475   5.397  16.114  14.915
73051ION    NA+45476   4.210   9.163  10.599
73052ION    NA+45477  35.835   8.531   3.129
73053ION    NA+45478  11.123  31.227  13.399
73054ION    NA+45479  18.638   2.274   0.299
73055ION    NA+45480  41.849  25.053  12.831
73056ION    NA+45481  41.130  16.928  11.090
73057ION    NA+45482  27.885   2.513   0.146
73058ION    NA+45483  35.949   5.050   4.509
73059ION    NA+45484  20.124   3.166  11.044
73060ION    NA+45485  37.032   4.812   1.666
73061ION    NA+45486  44.924  39.655  14.733
73062ION    NA+45487  44.610   1.188   1.556
73063ION    NA+45488  27.215  12.716   1.799
73064ION    NA+45489  26.440  27.185  14.236
73065ION    NA+45490   2.371   5.647  11.689
73066ION    NA+45491   0.960   4.141  12.460
73067ION    NA+45492  14.258  28.323   4.683
73068ION    NA+45493   1.062   5.867   1.917
73069ION    NA+45494  41.118  40.055   2.393
73070ION    NA+45495   0.696  13.838   3.795
73071ION    NA+45496  15.877   8.161  11.172
73072ION    NA+45497  35.737  33.618   2.020
73073ION    NA+45498   4.803  40.750   3.274
73074ION    NA+45499  22.819  25.631   3.696
73075ION    NA+45500   7.231   7.863  14.941
73076ION    NA+45501  44.544  34.419   5.106
73077ION    NA+45502  10.837  39.154  11.541
73078ION    NA+45503  12.840   1.348  10.318
73079ION    NA+45504  36.372  41.598  11.811
73080ION    NA+45505  22.562  38.061  13.285
73081ION    NA+45506  22.529  17.973   3.147
73082ION    NA+45507  28.653  14.864   4.640
73083ION    NA+45508  32.867  30.905  13.041
73084ION    NA+45509  17.178  40.522   4.377
73085ION    NA+45510  31.178   5.512  12.814
73086ION    NA+45511  12.647  26.528  12.502
73087ION    NA+45512  37.842  14.870   1.318
73088ION    NA+45513  36.293  12.820  14.480
73089ION    NA+45514   5.843   4.727  14.503
73090ION    NA+45515  30.946   1.957  11.550
73091ION    NA+45516  41.434  38.369  10.886
73092ION    NA+45517  11.978  18.778  14.450
73093ION    NA+45518  19.953  14.342  10.710
73094ION    NA+45519   2.809  25.711   4.753
73095ION    NA+45520  17.098  20.670   1.593
73096ION    NA+45521  40.802  42.863  11.651
73097ION    NA+45522  22.402  13.635  13.338
73098ION    NA+45523  16.856  16.471   0.472
73099ION    NA+45524  15.428  38.178  14.076
73100ION    NA+45525   5.520   1.670  12.976
73101ION    NA+45526   9.436   8.607  14.696
73102ION    NA+45527  28.142  14.224  11.502
73103ION    NA+45528   4.592  34.883  13.351
73104ION    NA+45529  41.425  37.874   9.793
73105ION    NA+45530   7.617   0.209  14.859
73106ION    NA+45531   8.404   1.044   2.168
73107ION    NA+45532  44.009  14.682  11.661
73108ION    NA+45533  38.175  44.888   0.713
73109ION    NA+45534  12.162  14.578  13.154
73110ION    NA+45535  26.446  20.681  13.451
73111ION    NA+45536  17.986  11.676   2.957
73112ION    NA+45537  16.535  41.849  11.111
73113ION    NA+45538  20.974  33.538   1.067
73114ION    NA+45539   8.164  35.197   2.178
73115ION    NA+45540  36.552  38.316   1.583
73116ION    NA+45541  36.942   5.770   1.260
73117ION    NA+45542  10.072  44.226   4.201
73118ION    NA+45543  11.341  42.688  13.654
73119ION    NA+45544  26.944  19.004  11.017
73120ION    NA+45545  28.567  21.464  14.877
73121ION    NA+45546  13.918  33.067   2.785
73122ION    NA+45547  12.914  28.608  10.732
73123ION    NA+45548  23.562  24.774  13.303
73124ION    NA+45549  42.272  27.946  12.704
73125ION    NA+45550  21.588  26.799   3.467
73126ION    NA+45551  44.116  43.066   0.125
73127ION    NA+45552  13.441  26.329  12.902
73128ION    NA+45553  32.067   8.674   0.346
73129ION    NA+45554  38.161  43.214  12.382
73130ION    NA+45555  13.788   9.918   1.802
73131ION    NA+45556  31.575   3.114  13.075
73132ION    NA+45557  25.224   1.693  11.565
73133ION    NA+45558  20.340  14.618   4.119
73134ION    NA+45559  44.998  26.521  12.152
73135ION    NA+45560   5.134  19.533  14.907
73136ION    NA+45561  21.675  44.241  13.872
73137ION    NA+45562   8.952  22.482   1.516
73138ION    NA+45563   7.706  37.280  10.772
73139ION    NA+45564  35.762  26.456   0.294
73140ION    NA+45565  11.566   2.299  13.066
73141ION    NA+45566  20.458  25.846   4.613
73142ION    NA+45567  21.170  30.823  12.130
73143ION    NA+45568  37.135  21.357  11.402
73144ION    NA+45569  18.833   2.701  10.657
73145ION    NA+45570  36.462  24.701   1.262
73146ION    NA+45571  28.137   3.101  14.614
73147ION    NA+45572  13.232  39.273   0.405
73148ION    NA+45573   5.569  35.371  11.137
73149ION    NA+45574  37.828  24.378  12.640
73150ION    NA+45575   2.898   3.166   0.484
73151ION    NA+45576  24.748   1.299   1.872
73152ION    NA+45577  21.493  41.827   0.399
73153ION    NA+45578  34.533   3.980   5.109
73154ION    NA+45579   5.755  29.753   4.628
73155ION    NA+45580  17.722  30.390  14.406
73156ION    NA+45581  21.303  23.752  13.426
73157ION    NA+45582  11.393  27.975   2.818
73158ION    NA+45583  13.833  13.955  10.824
73159ION    NA+45584  17.214  27.907   2.677
73160ION    NA+45585   1.734   6.805   0.896
73161ION    NA+45586  19.440   8.696   0.142
73162ION    NA+45587   9.769  28.292  12.993
73163ION    NA+45588  14.146  20.617  11.092
73164ION    NA+45589  32.998  14.057  14.037
73165ION    NA+45590  42.837  38.920  14.483
73166ION    NA+45591   4.823  24.745   2.939
73167ION    NA+45592  16.670  11.336  12.344
73168ION    NA+45593  39.663  23.305   4.193
73169ION    NA+45594  31.518   8.675   0.972
73170ION    NA+45595   8.775   1.746   2.622
73171ION    NA+45596   0.932  36.304  11.665
73172ION    NA+45597   2.183  22.182  13.487
73173ION    NA+45598  29.774  35.347   1.049
73174ION    NA+45599  43.555  42.335   0.772
73175ION    NA+45600  19.553  22.652   2.391
73176ION    NA+45601   5.225   6.469   4.913
73177ION    NA+45602  24.486  13.708   0.360
73178ION    NA+45603  39.629  13.048  10.291
73179ION    NA+45604   2.765  27.665   1.480
73180ION    NA+45605  34.422  13.622  11.814
73181ION    NA+45606  19.160  29.506  10.506
73182ION    NA+45607  27.785  20.875  14.638
73183ION    NA+45608   9.806  14.118  11.367
73184ION    NA+45609  37.944   7.187   1.795
73185ION    NA+45610  28.266   7.458  10.761
73186ION    NA+45611  28.670  34.931  12.117
73187ION    NA+45612   9.667  40.324  13.397
73188ION    NA+45613  29.239  13.620  14.401
73189ION    NA+45614  22.488   5.281   2.566
73190ION    NA+45615  20.001  10.506  12.358
73191ION    NA+45616  43.870  39.622   0.326
73192ION    NA+45617  36.370  10.804   0.806
73193ION    NA+45618  35.746  17.449  11.977
73194ION    NA+45619  33.558  11.660  12.133
73195ION    NA+45620  32.064  29.908   1.944
73196ION    NA+45621  26.506  38.239  14.171
73197ION    NA+45622  15.527  13.925  12.158
73198ION    NA+45623  35.802  39.263   0.281
73199ION    NA+45624   6.007  32.043  14.932
73200ION    NA+45625  24.261  17.570   2.690
73201ION    NA+45626   4.926  42.987   0.004
73202ION    NA+45627  27.280  34.915   3.433
73203ION    NA+45628  28.131  28.722   2.269
73204ION    NA+45629   4.761  28.543   2.578
73205ION    NA+45630  39.545  21.834   1.400
73206ION    NA+45631  13.380  12.072   1.754
73207ION    NA+45632  36.479  19.179   4.527
73208ION    NA+45633  24.455  21.857  13.315
73209ION    NA+45634  35.979   9.585   4.118
73210ION    NA+45635  27.194   9.023   1.757
73211ION    NA+45636  13.403  16.322  11.176
73212ION    NA+45637  20.749  35.608  14.280
73213ION    NA+45638   6.918  26.625   2.795
73214ION    NA+45639  21.237   6.231   3.104
73215ION    NA+45640  14.817   7.967   1.073
73216ION    NA+45641  43.740  28.096  12.629
73217ION    NA+45642  42.954  44.007  10.633
73218ION    NA+45643  38.874  12.655   0.271
73219ION    NA+45644  11.279  19.476   3.444
73220ION    NA+45645  17.531  12.451   2.800
73221ION    NA+45646   4.941  14.422  10.542
73222ION    NA+45647  39.842  14.469  13.574
73223ION    NA+45648  15.380  22.970  13.118
73224ION    NA+45649  37.663  28.627  13.135
73225ION    NA+45650   9.801   7.133  12.404
73226ION    NA+45651  35.807  17.222   4.218
73227ION    NA+45652  35.627   9.921  14.570
73228ION    NA+45653   5.191  44.350  11.977
73229ION    NA+45654   8.841  42.381  14.470
73230ION    NA+45655   0.646  22.615  14.182
73231ION    NA+45656   8.743  17.334   3.255
73232ION    NA+45657  40.960  18.634   3.717
73233ION    NA+45658  28.381  15.652  10.698
73234ION    NA+45659   2.250  26.052  12.592
73235ION    NA+45660  42.974   8.893  14.545
73236ION    NA+45661  11.113  11.397  14.007
73237ION    NA+45662   0.821  41.108   1.276
73238ION    NA+45663   6.936  43.097   3.906
73239ION    NA+45664   0.886  13.330   2.894
73240ION    NA+45665  30.534  23.087   0.806
73241ION    NA+45666  36.476  23.568   1.134
73242ION    NA+45667   1.813  33.737   3.998
73243ION    NA+45668   4.490  31.717   3.532
73244ION    NA+45669  13.553  25.058  14.005
73245ION    NA+45670  39.982  31.942  12.207
73246ION    NA+45671  17.015   4.625   4.885
73247ION    NA+45672  24.225  31.714  11.996
73248ION    NA+45673  21.411  34.136  14.031
73249ION    NA+45674   8.412  12.870  11.706
73250ION    NA+45675  18.779  20.062   1.980
73251ION    NA+45676  21.813  12.317   4.837
73252ION    NA+45677  41.637  42.767   0.974
73253ION    NA+45678  24.608  40.819   0.013
73254ION    NA+45679  34.151  28.689  13.998
73255ION    NA+45680  41.842  37.607  14.743
73256ION    NA+45681  23.094   5.089   0.450
73257ION    NA+45682  17.672  33.659   1.198
73258ION    NA+45683  29.660   9.358   3.296
73259ION    NA+45684   4.756  23.360  11.088
73260ION    NA+45685  30.137   4.297   0.418
73261ION    NA+45686   5.228  31.820  14.315
73262ION    NA+45687  17.841  37.032  14.926
73263ION    NA+45688  20.108  38.132   2.468
73264ION    NA+45689  43.575  28.574   1.927
73265ION    NA+45690  15.521  19.827  12.666
73266ION    NA+45691  44.500   3.769   0.857
73267ION    NA+45692  13.660  34.175  10.551
73268ION    NA+45693  15.106  24.487  11.460
73269ION    NA+45694  16.320  21.360  11.438
73270ION    NA+45695   3.740  24.571   2.356
73271ION    NA+45696  36.013   7.607  11.913
73272ION    NA+45697   6.026  22.203   1.690
73273ION    NA+45698   7.206  42.475  13.429
73274ION    NA+45699  11.863  19.385  13.622
73275ION    NA+45700   7.624  42.401   0.905
73276ION    NA+45701  30.330  14.267  11.194
73277ION    NA+45702  11.732   0.563  11.993
73278ION    NA+45703  10.271  35.478  14.923
73279ION    NA+45704  24.966  39.847   0.440
73280ION    NA+45705  41.626  34.048   0.371
73281ION    NA+45706   6.422   1.025  12.512
73282ION    NA+45707   9.573  15.820  11.939
73283ION    NA+45708  24.258  23.766  10.682
73284ION    NA+45709  10.082  33.222   0.423
73285ION    NA+45710  33.021  35.096  14.206
73286ION    NA+45711  44.186  21.285  10.934
73287ION    NA+45712  28.468  14.254  14.357
73288ION    NA+45713  38.645   7.056   3.777
73289ION    NA+45714  31.652  23.997   0.928
73290ION    NA+45715  23.246  19.237   4.605
73291ION    NA+45716   0.711  30.003   1.015
73292ION    NA+45717   6.310  34.417  14.950
73293ION    NA+45718  10.488  36.941  12.863
73294ION    NA+45719  32.624  24.720   3.975
73295ION    NA+45720  38.816   7.094  10.468
73296ION    NA+45721  13.994  28.495   1.034
73297ION    NA+45722   0.558  38.851   2.934
73298ION    NA+45723   6.768  29.971   2.636
73299ION    NA+45724  11.013  35.131  14.775
73300ION    NA+45725  44.041  13.767   2.341
73301ION    NA+45726  24.019  15.048   4.318
73302ION    NA+45727  11.223  30.651  14.211
73303ION    NA+45728  32.093  40.401  14.394
73304ION    NA+45729  43.245  25.488   4.671
73305ION    NA+45730  36.317  26.232  12.143
73306ION    NA+45731  33.129  21.642  14.494
73307ION    NA+45732  41.456   1.485   4.738
73308ION    NA+45733  38.606  24.969   1.459
73309ION    NA+45734  40.321  33.971  13.607
73310ION    NA+45735  10.394  25.626  13.431
73311ION    NA+45736  40.215  14.045   1.486
73312ION    NA+45737  12.194  39.292  12.788
73313ION    NA+45738  33.477  27.889   3.030
73314ION    NA+45739   1.375  44.433  11.618
73315ION    NA+45740  21.890   0.637  11.107
73316ION    NA+45741  32.719  39.807   0.503
73317ION    NA+45742   9.830  25.627  12.388
73318ION    NA+45743  19.433  16.945   1.252
73319ION    NA+45744  38.394  11.366  12.600
73320ION    NA+45745  13.092  28.063   1.043
73321ION    NA+45746  41.436  30.452  12.412
73322ION    NA+45747  36.633  36.457   3.920
73323ION    NA+45748  37.892  30.157  12.941
73324ION    NA+45749   6.960  14.887   4.183
73325ION    NA+45750  14.840  30.877  13.047
73326ION    NA+45751  13.948  11.414  10.968
73327ION    NA+45752  23.017  31.167   3.781
73328ION    NA+45753   8.093   5.984  10.471
73329ION    NA+45754  20.677  15.511  14.662
73330ION    NA+45755  21.258  16.874  12.328
73331ION    NA+45756  30.619  15.764  12.223
73332ION    NA+45757  39.607  34.879  12.681
73333ION    NA+45758   8.704   1.121   4.244
73334ION    NA+45759  11.558  12.163  11.716
73335ION    NA+45760  12.100  21.875   5.409
73336ION    NA+45761  33.629   9.669  11.324
73337ION    NA+45762  36.858  20.302  14.855
73338ION    NA+45763  33.350  26.453   2.797
73339ION    NA+45764  33.637  39.241  11.612
73340ION    NA+45765  13.215  38.788  11.138
73341ION    NA+45766  19.009  22.590  12.476
73342ION    NA+45767   5.262  36.461   1.681
73343ION    NA+45768  44.360   4.673  12.006
73344ION    NA+45769  38.815   6.021   3.829
73345ION    NA+45770  43.041  39.019   4.674
73346ION    NA+45771  26.116  38.529   1.050
73347ION    NA+45772  15.185  13.935   4.385
73348ION    NA+45773  42.576   1.705  11.152
73349ION    NA+45774  22.584   5.367   4.295
73350ION    NA+45775   7.975  34.329  10.244
73351ION    NA+45776  14.998   1.268   3.550
73352ION    NA+45777  28.066  16.584   2.516
73353ION    NA+45778  41.128  10.355   2.206
73354ION    NA+45779  26.250   6.228   1.135
73355ION    NA+45780  16.948  12.680   0.004
73356ION    NA+45781  30.840  34.651   1.353
73357ION    NA+45782   0.234  10.300  12.106
73358ION    NA+45783  44.907  25.567   4.535
73359ION    NA+45784  30.969   2.378  14.261
73360ION    NA+45785  32.203   2.604  12.223
73361ION    NA+45786  42.119  40.940   4.574
73362ION    NA+45787  33.927   5.326  14.918
73363ION    NA+45788   7.164  11.282   0.749
73364ION    NA+45789   2.066  11.311  14.236
73365ION    NA+45790  42.410   1.350  10.337
73366ION    NA+45791  16.547  37.592  10.381
73367ION    NA+45792   6.830  37.416   3.396
73368ION    NA+45793  28.912  21.335  10.606
73369ION    NA+45794   3.819  43.996  10.494
73370ION    NA+45795  15.048   6.724  14.329
73371ION    NA+45796  22.338  23.713   0.706
73372ION    NA+45797  38.211  34.908   0.437
73373ION    NA+45798  37.269  15.852   4.719
73374ION    NA+45799  19.719  32.707   0.347
73375ION    NA+45800   3.885  38.521  11.794
73376ION    NA+45801   6.286  33.834  13.193
73377ION    NA+45802  10.189   6.323   0.047
73378ION    NA+45803  30.432  33.449   1.819
73379ION    NA+45804  24.283  18.230   1.254
73380ION    NA+45805   5.003  15.424   1.097
73381ION    NA+45806  26.141  30.460   2.843
73382ION    NA+45807  23.939   8.397  10.974
73383ION    NA+45808  42.511  25.995   3.755
73384ION    NA+45809  22.225  19.185   2.072
73385ION    NA+45810  35.184  28.555  14.681
73386ION    NA+45811  24.919  15.094  14.995
73387ION    NA+45812   7.071  42.527  11.679
73388ION    NA+45813  29.149  38.831  14.954
73389ION    NA+45814  42.725  23.668   2.681
73390ION    NA+45815  16.613  23.810  13.935
73391ION    NA+45816  41.968   6.785  11.820
73392ION    NA+45817  11.829   3.780   1.910
73393ION    NA+45818   4.339  22.490  12.112
73394ION    NA+45819  35.468   0.757   0.453
73395ION    NA+45820  19.933  37.240  11.699
73396ION    NA+45821  23.123  37.303  11.539
73397ION    NA+45822  28.178  25.935  11.983
73398ION    NA+45823  43.925  19.490  12.913
73399ION    NA+45824  44.927  35.679   3.571
73400ION    NA+45825   3.095  30.909   2.433
73401ION    NA+45826  39.795  20.775   3.254
73402ION    NA+45827  26.412  34.477   3.665
73403ION    NA+45828  38.179  32.145  11.465
73404ION    NA+45829   9.921  31.766   2.744
73405ION    NA+45830  43.064  31.394  11.578
73406ION    NA+45831  23.347  42.272  12.807
73407ION    NA+45832  20.033   6.016   2.373
73408ION    NA+45833   4.202  14.344  12.785
73409ION    NA+45834  37.284   0.834   1.956
73410ION    NA+45835  43.465   2.793   0.918
73411ION    NA+45836  40.114  30.055  14.501
73412ION    NA+45837  28.881   0.221   2.385
73413ION    NA+45838  17.489  18.512   1.863
73414ION    NA+45839   2.850  23.535  12.980
73415ION    NA+45840  43.554   2.694  13.482
73416ION    NA+45841   6.946  30.784  12.138
73417ION    NA+45842  18.792  28.464   3.614
73418ION    NA+45843  14.938  12.220   2.489
73419ION    NA+45844  25.386  10.184  14.358
73420ION    NA+45845   2.367  19.502  12.173
73421ION    NA+45846  27.129  37.839   3.485
73422ION    NA+45847  41.724  32.732   2.781
73423ION    NA+45848  44.840  31.332  12.254
73424ION    NA+45849   2.160  23.000   2.415
73425ION    NA+45850  26.572  13.174   0.326
73426ION    NA+45851  26.440   6.397   0.165
73427ION    NA+45852  42.083  41.995   1.637
73428ION    NA+45853   9.277  16.173   4.526
73429ION    NA+45854  15.674  10.413   1.770
73430ION    NA+45855   9.857  13.061  12.166
73431ION    NA+45856   8.015  29.347  11.887
73432ION    NA+45857  34.259  24.078  10.707
73433ION    NA+45858  27.818   4.004  14.326
73434ION    NA+45859  31.170  36.852  11.381
73435ION    NA+45860  28.509  16.857   9.874
73436ION    NA+45861  44.461  25.242   2.367
73437ION    NA+45862  21.480  28.967   3.157
73438ION    NA+45863  28.937   4.265  10.763
73439ION    NA+45864  38.785  41.402  11.242
73440ION    NA+45865  15.994  14.852  11.979
73441ION    NA+45866  44.090  33.526  11.616
73442ION    NA+45867   7.584  36.445   5.075
73443ION    NA+45868   3.493  44.576   3.175
73444ION    NA+45869  42.101  22.205   1.921
73445ION    NA+45870  23.655  27.661  13.272
73446ION    NA+45871  40.574  38.442   1.579
73447ION    NA+45872   3.355  15.163  12.041
73448ION    NA+45873  26.524   9.318  14.866
73449ION    NA+45874  39.386  43.605   0.004
73450ION    NA+45875   8.386  26.176   3.801
73451ION    NA+45876  38.804  23.969  10.692
73452ION    NA+45877  25.199  36.019   4.133
73453ION    NA+45878  21.808  12.838  14.096
73454ION    NA+45879  38.697  19.726   1.862
73455ION    NA+45880  17.621   0.543  13.712
73456ION    NA+45881  17.151  40.438   5.602
73457ION    NA+45882  39.321  36.136   0.008
73458ION    NA+45883  15.705  19.048   3.121
73459ION    NA+45884  11.176  18.563  11.117
73460ION    NA+45885  15.668  17.133  13.012
73461ION    NA+45886  24.796   3.404  13.982
73462ION    NA+45887  15.166  33.920   3.525
73463ION    NA+45888  43.784  18.285  14.461
73464ION    NA+45889  14.387  38.663  11.593
73465ION    NA+45890   2.851  17.836   1.191
73466ION    NA+45891  23.212  12.218   9.548
73467ION    NA+45892  19.038   7.416   3.702
73468ION    NA+45893  36.998   2.043   3.910
73469ION    NA+45894  19.744  30.914   3.332
73470ION    NA+45895  23.257   9.393  14.099
73471ION    NA+45896   7.639  18.345   2.308
73472ION    NA+45897  10.997  19.871  11.717
73473ION    NA+45898   4.051  35.463   0.634
73474ION    NA+45899   1.327   2.705   1.267
73475ION    NA+45900  21.273   3.291  11.244
73476ION    NA+45901  28.460  11.154  12.265
73477ION    NA+45902  29.933   9.866   0.340
73478ION    NA+45903  38.082  12.989  13.376
73479ION    NA+45904  19.337  10.605  14.797
73480ION    NA+45905  25.093   2.611   3.786
73481ION    NA+45906  15.403   1.559   1.928
73482ION    NA+45907  35.012  43.489  13.985
73483ION    NA+45908   1.185  13.675  10.997
73484ION    NA+45909  34.625  12.089  11.715
73485ION    NA+45910  30.666  39.365   4.742
73486ION    NA+45911   4.457  11.259   3.371
73487ION    NA+45912  27.439  40.841   1.668
73488ION    NA+45913  38.808   1.067  12.149
73489ION    NA+45914  15.017  32.153   2.068
73490ION    NA+45915  36.019  17.564   1.247
73491ION    NA+45916  17.918  40.801   3.764
73492ION    NA+45917  41.519  22.964   5.149
73493ION    NA+45918  12.561   8.417   1.489
73494ION    NA+45919  32.576  43.264  12.885
73495ION    NA+45920   0.073  30.827  14.980
73496ION    NA+45921  29.138  43.832   2.417
73497ION    NA+45922  14.800  14.807   3.703
73498ION    NA+45923   8.985  13.092  14.720
73499ION    NA+45924  33.895  27.434  11.155
73500ION    NA+45925  33.643  19.120   0.750
73501ION    NA+45926   8.515   4.725   5.146
73502ION    NA+45927   1.430  25.246   0.034
73503ION    NA+45928  43.980  12.227   1.928
73504ION    NA+45929  35.859  39.048   4.182
73505ION    NA+45930  29.847  20.733   0.716
73506ION    NA+45931   8.951  37.490  11.101
73507ION    NA+45932   5.944  36.504  14.871
73508ION    NA+45933  25.302  11.494   5.043
73509ION    NA+45934  22.115  31.985  14.964
73510ION    NA+45935  40.306  40.220   3.205
73511ION    NA+45936  32.098  22.804  11.966
73512ION    NA+45937  24.027  11.864   0.445
73513ION    NA+45938  44.656  40.874  12.708
73514ION    NA+45939  22.425  44.445  12.680
73515ION    NA+45940  25.551  43.282  13.470
73516ION    NA+45941  13.395   3.351  12.010
73517ION    NA+45942  12.876  24.219   2.478
73518ION    NA+45943  28.820  19.978   1.104
73519ION    NA+45944  37.558   0.747  11.083
73520ION    NA+45945  42.655   0.900   4.073
73521ION    NA+45946  19.230  14.585  13.011
73522ION    NA+45947  19.387  21.180   3.535
73523ION    NA+45948  12.536  33.891  13.400
73524ION    NA+45949  11.137  39.775   1.870
73525ION    NA+45950  37.015   2.938   3.985
73526ION    NA+45951  43.023  31.440   0.274
73527ION    NA+45952  41.166  36.935   0.046
73528ION    NA+45953  42.561  42.401   0.859
73529ION    NA+45954  11.419  21.210   3.881
73530ION    NA+45955  43.358   3.274   3.116
73531ION    NA+45956  18.853  13.895   2.235
73532ION    NA+45957  44.787   4.223   3.060
73533ION    NA+45958  15.227  35.401  11.674
73534ION    NA+45959  14.417  42.349  13.644
73535ION    NA+45960  30.268  39.395   0.513
73536ION    NA+45961  15.945  24.589  14.609
73537ION    NA+45962  37.382  23.914  13.277
73538ION    NA+45963  19.542  20.043  12.720
73539ION    NA+45964  44.415  24.054  10.729
73540ION    NA+45965   3.960  14.307   4.296
73541ION    NA+45966  44.837  40.113   4.497
73542ION    NA+45967  12.884  29.876  13.844
73543ION    NA+45968  38.803  14.399   3.444
73544ION    NA+45969  29.374  40.294  12.572
73545ION    NA+45970  41.223   2.763  11.163
73546ION    NA+45971   2.015  41.066  13.537
73547ION    NA+45972  23.701   9.846   1.257
73548ION    NA+45973  39.905  40.075  12.463
73549ION    NA+45974  28.966  13.599  11.221
73550ION    NA+45975  15.904  39.217   3.898
73551ION    NA+45976  17.125   5.767   3.946
73552ION    NA+45977   5.187   6.720  12.103
73553ION    NA+45978  15.492   7.487  14.173
73554ION    NA+45979   4.723  31.346  11.971
73555ION    NA+45980  11.633  21.965   2.208
73556ION    NA+45981  39.772  40.395   0.847
73557ION    NA+45982  31.172  22.940   4.213
73558ION    NA+45983  23.367  11.068  11.154
73559ION    NA+45984  26.877   4.995   0.929
73560ION    NA+45985  31.428  30.444   3.657
73561ION    NA+45986  10.022  41.690  10.654
73562ION    NA+45987  13.851  23.406   1.309
73563ION    NA+45988   3.485  43.723  13.013
73564ION    NA+45989  22.791  41.425   3.712
73565ION    NA+45990   4.991   3.896  13.743
73566ION    NA+45991  36.078  19.785   2.337
73567ION    NA+45992  16.236  18.220   0.997
73568ION    NA+45993  27.896  34.960   2.841
73569ION    NA+45994  17.833  31.666  13.981
73570ION    NA+45995  29.407   9.815  12.088
73571ION    NA+45996  20.484  26.494  11.187
73572ION    NA+45997  10.331   2.792   0.949
73573ION    NA+45998  41.747  28.918   3.372
73574ION    NA+45999  26.501  13.590  12.470
73575ION    NA+46000  43.264  25.471   3.671
73576ION    NA+46001   9.141  40.854   1.447
73577ION    NA+46002  31.993  34.034   0.758
73578ION    NA+46003  19.237   9.330   4.932
73579ION    NA+46004  22.003  22.519  12.440
73580ION    NA+46005  38.831  40.378   1.341
73581ION    NA+46006  42.996  22.658   1.685
73582ION    NA+46007   8.650   4.095  12.454
73583ION    NA+46008  18.213   0.838   0.028
73584ION    NA+46009  43.474   8.283   2.463
73585ION    NA+46010   8.232   9.471  14.764
73586ION    NA+46011  34.203   9.865  13.586
73587ION    NA+46012   4.493  18.954  14.640
73588ION    NA+46013  13.703   7.383   4.679
73589ION    NA+46014   6.804  21.542  14.579
73590ION    NA+46015  44.992  31.717  13.179
73591ION    NA+46016  15.521   5.919   4.077
73592ION    NA+46017  23.194  30.002   3.722
73593ION    NA+46018   9.751  27.955   3.781
73594ION    NA+46019  39.439  14.479   1.944
73595ION    NA+46020  11.088   8.123  10.034
73596ION    NA+46021  41.299  32.576   4.529
73597ION    NA+46022  20.303  27.948  12.147
73598ION    NA+46023  37.429  26.484   2.627
73599ION    NA+46024  38.722  42.389   2.789
73600ION    NA+46025  33.477   0.939   2.271
73601ION    NA+46026  43.015   6.146  14.733
73602ION    NA+46027   3.883  19.347   1.341
73603ION    NA+46028  21.537  32.899   0.542
73604ION    NA+46029   3.842  27.150  14.242
73605ION    NA+46030  13.132   2.953   2.605
73606ION    NA+46031   3.170  14.498   3.713
73607ION    NA+46032  38.417   2.542  10.722
73608ION    NA+46033  16.193  20.570   4.772
73609ION    NA+46034  24.411  20.331   2.355
73610ION    NA+46035  35.227  10.782   2.977
73611ION    NA+46036   3.268   7.514  14.317
73612ION    NA+46037   6.296   3.465   0.997
73613ION    NA+46038  30.489  15.661   0.519
73614ION    NA+46039   2.451   5.778   3.218
73615ION    NA+46040  32.345  31.722  12.797
73616ION    NA+46041  26.414  36.646  11.508
73617ION    NA+46042  39.554  39.280  12.208
73618ION    NA+46043  16.790  41.608  14.975
73619ION    NA+46044   2.939  31.178  12.918
73620ION    NA+46045  33.135  27.643  13.485
73621ION    NA+46046  34.605  32.080  12.938
73622ION    NA+46047  36.018  27.869   1.744
73623ION    NA+46048  25.043   9.587   3.171
73624ION    NA+46049  40.424  43.461  10.945
73625ION    NA+46050  40.400  13.816   4.154
73626ION    NA+46051  40.248  20.035  12.901
73627ION    NA+46052   5.226   4.712  13.855
73628ION    NA+46053  27.184   8.640   4.505
73629ION    NA+46054   7.080  24.182  11.382
73630ION    NA+46055  27.953  16.175  13.482
73631ION    NA+46056  21.499  27.202   4.393
73632ION    NA+46057  36.432  14.775  12.823
73633ION    NA+46058  10.689  35.063   0.562
73634ION    NA+46059   4.484   8.668   3.331
73635ION    NA+46060  42.651  36.378  12.353
73636ION    NA+46061  27.809  26.120   1.637
73637ION    NA+46062  42.369  40.031  11.400
73638ION    NA+46063  32.736  16.856   5.133
73639ION    NA+46064  28.311  44.130  13.227
73640ION    NA+46065   8.344  34.099   1.060
73641ION    NA+46066  23.969  20.120   4.241
73642ION    NA+46067   5.994  28.658  11.144
73643ION    NA+46068  18.943  23.689  11.511
73644ION    NA+46069  15.848  30.415  13.390
73645ION    NA+46070   1.625  41.865  13.587
73646ION    NA+46071  38.443  34.865  13.071
73647ION    NA+46072  19.646  40.833  12.658
73648ION    NA+46073  29.241  35.263   1.943
73649ION    NA+46074  30.054  30.371  12.873
73650ION    NA+46075  32.178   3.896  12.916
73651ION    NA+46076  36.999   3.285   4.923
73652ION    NA+46077  38.021  19.363  12.050
73653ION    NA+46078  40.529   9.547   2.556
73654ION    NA+46079  20.149  41.097   4.078
73655ION    NA+46080  40.040  25.159  12.272
73656ION    NA+46081  16.364  42.592   1.377
73657ION    NA+46082  10.206  11.101  14.315
73658ION    NA+46083  11.406   1.011  14.714
73659ION    NA+46084  31.608  37.644   4.637
73660ION    NA+46085  28.333  43.561   2.945
73661ION    NA+46086  14.141  44.112   0.308
73662ION    NA+46087   2.546  39.837  12.410
73663ION    NA+46088   0.448  12.349   4.497
73664ION    NA+46089  23.968  25.174   1.706
73665ION    NA+46090   4.318   6.841  11.602
73666ION    NA+46091  29.356  24.416  12.917
73667ION    NA+46092   3.202  32.786   0.133
73668ION    NA+46093  17.032  33.553  12.612
73669ION    NA+46094   9.430  22.934  11.167
73670ION    NA+46095  31.874  31.871  13.667
73671ION    NA+46096  20.933  10.595   4.118
73672ION    NA+46097  32.911  36.464   0.859
73673ION    NA+46098  41.327  23.503   3.366
73674ION    NA+46099  42.821  19.695  12.148
73675ION    NA+46100  25.601  31.646   5.412
73676ION    NA+46101  23.161   0.188   2.306
73677ION    NA+46102   9.448  14.348  12.600
73678ION    NA+46103  17.263  35.905  14.104
73679ION    NA+46104  22.485  21.235  11.951
73680ION    NA+46105  28.883   4.408   4.671
73681ION    NA+46106   2.764   1.696   3.124
73682ION    NA+46107  29.679   2.638  13.170
73683ION    NA+46108  26.382  34.155  14.246
73684ION    NA+46109  33.188   8.388   0.322
73685ION    NA+46110  31.941  10.720  14.012
73686ION    NA+46111   3.479  22.141   3.818
73687ION    NA+46112   2.661  22.716  11.622
73688ION    NA+46113   5.449  30.002   2.323
73689ION    NA+46114  39.077  33.081   2.615
73690ION    NA+46115  38.142  15.312  13.333
73691ION    NA+46116  29.043  32.398   2.815
73692ION    NA+46117   2.457   7.859  11.213
73693ION    NA+46118  27.024  37.074   2.990
73694ION    NA+46119  39.201  32.289  13.778
73695ION    NA+46120  23.659  29.318   4.091
73696ION    NA+46121   5.420  42.997  12.046
73697ION    NA+46122  22.673  33.457  13.797
73698ION    NA+46123  38.376  11.781   3.554
73699ION    NA+46124  11.472  40.658   3.487
73700ION    NA+46125  20.203  38.007  11.333
73701ION    NA+46126  15.755  22.151  12.663
73702ION    NA+46127  12.116  40.866  13.117
73703ION    NA+46128  44.261  23.057   2.130
73704ION    NA+46129  19.168   9.910   0.496
73705ION    NA+46130  24.613   6.316  13.807
73706ION    NA+46131  14.352   8.930  11.626
73707ION    NA+46132  20.703  43.594   1.669
73708ION    NA+46133  40.305  25.228  11.310
73709ION    NA+46134  16.996  18.017   0.250
73710ION    NA+46135   7.239  22.419  12.514
73711ION    NA+46136  15.138  38.238  11.316
73712ION    NA+46137  31.927  17.848  14.765
73713ION    NA+46138  41.544  13.680  12.920
73714ION    NA+46139  38.579  24.565  11.595
73715ION    NA+46140   8.648  31.434  12.357
73716ION    NA+46141  31.526   7.846   0.500
73717ION    NA+46142  32.921  44.876   4.067
73718ION    NA+46143  39.473  22.957  12.382
73719ION    NA+46144  21.871  43.740   1.029
73720ION    NA+46145   7.411  19.193  10.698
73721ION    NA+46146  15.541  24.062  10.791
73722ION    NA+46147  25.428  32.519   4.959
73723ION    NA+46148  24.112  39.995  11.039
73724ION    NA+46149   7.206  31.985   2.960
73725ION    NA+46150  34.478  35.512  11.309
73726ION    NA+46151  13.570  27.451   0.413
73727ION    NA+46152  27.516  24.989   2.006
73728ION    NA+46153   5.416   4.693  10.719
73729ION    NA+46154  34.591  26.605   0.577
73730ION    NA+46155  36.205  22.015   1.159
73731ION    NA+46156  35.409   3.169   2.031
73732ION    NA+46157  32.271  20.829  11.609
73733ION    NA+46158  33.412   3.932  11.994
73734ION    NA+46159  43.528  14.591   0.303
73735ION    NA+46160  13.521  15.323  11.998
73736ION    NA+46161  15.641  18.794  14.906
73737ION    NA+46162   7.196  38.505   1.814
73738ION    NA+46163  31.445  41.093  10.600
73739ION    NA+46164   0.542  12.618  14.833
73740ION    NA+46165  42.220  17.850  12.531
73741ION    NA+46166  20.715  36.440   4.355
73742ION    NA+46167  33.455   5.619   4.001
73743ION    NA+46168  41.125  18.051  11.519
73744ION    NA+46169   9.892  43.081   2.840
73745ION    NA+46170  23.631  17.978  11.205
73746ION    NA+46171   3.473   2.450   3.116
73747ION    NA+46172  30.135  38.170   4.790
73748ION    NA+46173   7.310  28.616  10.640
73749ION    NA+46174   9.942  15.280  12.696
73750ION    NA+46175  43.536   3.583  13.941
73751ION    NA+46176  14.622  29.091   0.532
73752ION    NA+46177  27.272  37.167   1.125
73753ION    NA+46178  22.761  35.611   3.649
73754ION    NA+46179  38.442  38.884  14.380
73755ION    NA+46180  10.475  42.365  13.219
73756ION    NA+46181  11.142  20.811  12.027
73757ION    NA+46182  29.044  42.540   3.107
73758ION    NA+46183  18.750  40.473   2.854
73759ION    NA+46184  12.353  21.209  13.064
73760ION    NA+46185  22.966   7.362   0.804
73761ION    NA+46186   9.583  11.639   1.122
73762ION    NA+46187  20.472  11.543  11.138
73763ION    NA+46188  42.906  36.984   0.207
73764ION    NA+46189  22.690  33.710   2.346
73765ION    NA+46190  42.150   6.048  14.744
73766ION    NA+46191  29.443   4.408  12.514
73767ION    NA+46192  43.888  27.395  10.633
73768ION    NA+46193   5.052   1.808  13.969
73769ION    NA+46194  42.617   8.396   1.911
73770ION    NA+46195  37.519  32.335   3.401
73771ION    NA+46196  26.061  42.546  11.640
73772ION    NA+46197  23.944  34.989  13.409
73773ION    NA+46198  43.384  12.154  11.626
73774ION    NA+46199  23.695  27.552   2.327
73775ION    NA+46200  41.562  32.357  12.415
73776ION    NA+46201  41.601   1.491   2.938
73777ION    NA+46202   3.256  17.177   5.232
73778ION    NA+46203  11.679  21.542  14.518
73779ION    NA+46204  12.137  12.278  12.468
73780ION    NA+46205  42.498  22.716  10.581
73781ION    NA+46206   5.465   8.143  14.289
73782ION    NA+46207  31.260  10.428   9.761
73783ION    NA+46208  16.403   1.441   0.773
73784ION    NA+46209  40.940  32.692  13.484
73785ION    NA+46210  27.195  20.007  12.116
73786ION    NA+46211  38.076  19.710   4.056
73787ION    NA+46212  17.685  44.065   1.227
73788ION    NA+46213  10.601  31.654   1.459
73789ION    NA+46214  41.374  25.245   4.799
73790ION    NA+46215  14.392  39.274   2.125
73791ION    NA+46216  39.832  36.083   4.619
73792ION    NA+46217  10.157  37.312   1.627
73793ION    NA+46218  20.796  40.243   1.886
73794ION    NA+46219  10.314  26.479  10.747
73795ION    NA+46220  26.483  33.498  10.697
73796ION    NA+46221  14.293  33.668   2.230
73797ION    NA+46222  26.223   5.585   1.734
73798ION    NA+46223  15.843  27.953  14.613
73799ION    NA+46224  29.410  43.840  12.667
73800ION    NA+46225  22.081  39.570   3.688
73801ION    NA+46226   5.803   0.761  14.348
73802ION    NA+46227  35.677  30.934   4.142
73803ION    NA+46228  34.591  21.941  12.405
73804ION    NA+46229  41.677   8.112   1.715
73805ION    NA+46230  19.360  40.060  14.148
73806ION    NA+46231  23.914  24.032   0.952
73807ION    NA+46232  39.163  43.419   4.735
73808ION    NA+46233   4.864  10.034  13.090
73809ION    NA+46234  38.479  26.060  12.379
73810ION    NA+46235  43.748  27.603   4.443
73811ION    NA+46236  14.125  32.406  14.488
73812ION    NA+46237   9.881  34.038   1.405
73813ION    NA+46238  36.981  11.424   1.518
73814ION    NA+46239  21.491  15.287   3.715
73815ION    NA+46240  36.004   7.952  12.733
73816ION    NA+46241  18.397   0.797  10.628
73817ION    NA+46242   1.831  14.991  10.848
73818ION    NA+46243  42.063  35.946   1.292
73819ION    NA+46244  32.196  22.215   3.241
73820ION    NA+46245  42.138  42.148  12.162
73821ION    NA+46246   2.377  23.607   4.174
73822ION    NA+46247  12.535   2.976   3.841
73823ION    NA+46248  44.383  12.767  11.189
73824ION    NA+46249   8.900  44.258   1.393
73825ION    NA+46250  33.805  16.013   1.752
73826ION    NA+46251  32.233   8.954   3.714
73827ION    NA+46252   0.820  27.848  11.197
73828ION    NA+46253  15.828   0.822   2.539
73829ION    NA+46254  22.638  27.439  13.534
73830ION    NA+46255  24.417  14.728   0.660
73831ION    NA+46256  35.679  29.880   0.131
73832ION    NA+46257  37.530  11.942   4.063
73833ION    NA+46258  32.682  41.023  12.456
73834ION    NA+46259  13.323  43.901   3.367
73835ION    NA+46260  44.310  16.204  13.799
73836ION    NA+46261  42.615  33.847   1.240
73837ION    NA+46262  16.250  11.511  14.524
73838ION    NA+46263   1.693  14.303   4.452
73839ION    NA+46264  38.439  37.341  12.084
73840ION    NA+46265  19.624  31.812   0.297
73841ION    NA+46266   1.644  13.361   0.711
73842ION    NA+46267   9.440   0.967   0.782
73843ION    NA+46268  29.647   8.437   1.378
73844ION    NA+46269  41.475  23.152   0.310
73845ION    NA+46270  42.879   7.664   5.440
73846ION    NA+46271   0.853   3.166  12.133
73847ION    NA+46272   9.273   4.409   4.455
73848ION    NA+46273  34.377  19.954  11.553
73849ION    NA+46274  14.136  39.815   3.352
73850ION    NA+46275  25.963  18.105   1.998
73851ION    NA+46276  28.346  43.606  12.304
73852ION    NA+46277   0.098  31.163  10.468
73853ION    NA+46278  39.548  21.248  13.011
73854ION    NA+46279  11.564  17.814  12.716
73855ION    NA+46280  12.277   8.379  10.778
73856ION    NA+46281  39.779   3.265   3.432
73857ION    NA+46282  28.742  12.180  10.743
73858ION    NA+46283  26.043  43.592  12.144
73859ION    NA+46284   2.816  37.416   2.381
73860ION    NA+46285   1.118  18.538  13.478
73861ION    NA+46286  17.055  19.231   3.266
73862ION    NA+46287  18.759  41.757  12.777
73863ION    NA+46288  36.355  16.256   4.762
73864ION    NA+46289  10.240  44.854   2.033
73865ION    NA+46290  28.086  41.774  12.094
73866ION    NA+46291  16.863  20.701   3.832
73867ION    NA+46292  42.613  43.188   4.454
73868ION    NA+46293  24.830  17.591  12.637
73869ION    NA+46294  32.973   1.845  13.002
73870ION    NA+46295  25.116  33.925   2.738
73871ION    NA+46296  31.665   4.613  12.789
73872ION    NA+46297  10.038   4.603   1.040
73873ION    NA+46298   5.901  20.127  12.000
73874ION    NA+46299  15.253  36.627   1.735
73875ION    NA+46300  36.518  37.498   0.127
73876ION    NA+46301  40.815  18.816  11.115
73877ION    NA+46302  36.690  34.509   2.054
73878ION    NA+46303  32.060  15.749  14.299
73879ION    NA+46304  12.260  36.773  11.353
73880ION    NA+46305  31.582  42.080  14.093
73881ION    NA+46306  37.424  36.942  13.785
73882ION    NA+46307  22.683  28.346  13.952
73883ION    NA+46308  36.927  13.594   4.665
73884ION    NA+46309  33.944   3.252  14.890
73885ION    NA+46310   5.221  14.822   3.019
73886ION    NA+46311  27.387  15.397   2.003
73887ION    NA+46312  38.632  44.081  12.546
73888ION    NA+46313  16.202   8.932  11.571
73889ION    NA+46314   3.264  29.591  11.303
73890ION    NA+46315  20.183  39.397   1.894
73891ION    NA+46316  37.489  37.596   0.374
73892ION    NA+46317  18.230  37.100  14.007
73893ION    NA+46318  12.597  18.047   4.023
73894ION    NA+46319  29.182  39.839   2.844
73895ION    NA+46320  40.975   5.804   2.505
73896ION    NA+46321   9.019  30.633   3.480
73897ION    NA+46322  34.407  35.579  13.286
73898ION    NA+46323  11.476   3.695   0.260
73899ION    NA+46324  17.166   5.225   1.010
73900ION    NA+46325  33.110  15.369   3.783
73901ION    NA+46326  17.177   9.294   3.432
73902ION    NA+46327   8.975  35.987  13.783
73903ION    NA+46328   9.226  13.677   2.338
73904ION    NA+46329   8.768  18.911  13.748
73905ION    NA+46330  37.466  40.755  11.011
73906ION    NA+46331  37.945  29.741  12.019
73907ION    NA+46332   9.901  26.358   2.179
73908ION    NA+46333  44.857   0.349   2.623
73909ION    NA+46334  10.574  40.436   0.175
73910ION    NA+46335   1.057  23.672   4.418
73911ION    NA+46336  42.376  38.348   4.076
73912ION    NA+46337  42.139  33.575   3.216
73913ION    NA+46338  14.381   6.081  14.731
73914ION    NA+46339  36.622   5.901   2.881
73915ION    NA+46340  24.513  41.722   1.918
73916ION    NA+46341  23.921   1.513   2.482
73917ION    NA+46342  11.461   3.971  13.442
73918ION    NA+46343  34.107  22.326  14.757
73919ION    NA+46344  28.393  19.087   1.263
73920ION    NA+46345  35.467  27.947  11.184
73921ION    NA+46346  25.605  24.127  12.746
73922ION    NA+46347  37.949   3.695  13.700
73923ION    NA+46348  39.643  35.611   3.758
73924ION    NA+46349  15.228  10.520   3.819
73925ION    NA+46350  40.938  27.431  14.844
73926ION    NA+46351  38.185   7.103  14.254
73927ION    NA+46352   3.493  42.627  11.650
73928ION    NA+46353  37.474  25.398   1.176
73929ION    NA+46354   7.685  13.962   0.111
73930ION    NA+46355  10.165  10.252   1.757
73931ION    NA+46356   7.667  34.074   1.590
73932ION    NA+46357  42.411  31.868   3.491
73933ION    NA+46358  10.214   0.244   9.733
73934ION    NA+46359  38.504   8.026   1.308
73935ION    NA+46360  20.913  25.144  11.478
73936ION    NA+46361  34.637  35.595   1.380
73937ION    NA+46362  31.948  37.162  13.452
73938ION    NA+46363  18.605  29.660   0.362
73939ION    NA+46364  12.127  43.815  12.477
73940ION    NA+46365  10.829  30.943   3.370
73941ION    NA+46366  28.135  22.539  11.999
73942ION    NA+46367  38.181  18.138  10.741
73943ION    NA+46368  12.853  30.491   3.307
73944ION    NA+46369   4.065  31.696   1.758
73945ION    NA+46370  37.264  41.653  12.260
73946ION    NA+46371  22.888  31.358   2.808
73947ION    NA+46372   9.908   9.102  11.553
73948ION    NA+46373  26.456  42.366  12.541
73949ION    NA+46374  33.925  36.125   4.144
73950ION    NA+46375   7.664   4.606   2.619
73951ION    NA+46376  43.664  26.988  14.168
73952ION    NA+46377  41.901  27.623  10.310
73953ION    NA+46378  27.729  13.100  11.016
73954ION    NA+46379  31.300  34.313   2.175
73955ION    NA+46380  36.256  12.122  13.764
73956ION    NA+46381  14.517   8.074   3.223
73957ION    NA+46382  26.603  33.858  13.317
73958ION    NA+46383  36.659   2.373  11.103
73959ION    NA+46384  26.478   6.335   1.943
73960ION    NA+46385  39.346  35.491  13.786
73961ION    NA+46386  22.876  17.308  13.697
73962ION    NA+46387  36.422  32.418   0.192
73963ION    NA+46388  41.950  37.601  13.684
73964ION    NA+46389  43.881  26.548  11.519
73965ION    NA+46390  33.502   6.014   5.289
73966ION    NA+46391   6.255  24.982  14.035
73967ION    NA+46392   1.991   8.238  14.033
73968ION    NA+46393  22.142  27.001  10.713
73969ION    NA+46394  37.848  31.665   4.668
73970ION    NA+46395  12.016  19.316  12.094
73971ION    NA+46396   9.901  14.453  13.485
73972ION    NA+46397   8.298  29.635   3.312
73973ION    NA+46398  31.200   0.521   3.558
73974ION    NA+46399   1.193  20.295  13.427
73975ION    NA+46400   1.846   6.448   2.645
73976ION    NA+46401  40.591  27.804   1.513
73977ION    NA+46402   0.746   1.789  11.950
73978ION    NA+46403  41.720  41.675   2.533
73979ION    NA+46404  14.191  22.090  10.224
73980ION    NA+46405  18.128   3.928   0.890
73981ION    NA+46406  10.882   8.201   2.356
73982ION    NA+46407   5.551  14.538   1.335
73983ION    NA+46408  17.750  14.795   0.278
73984ION    NA+46409  16.869   0.945  10.533
73985ION    NA+46410   0.208  11.179   1.478
73986ION    NA+46411  40.241  43.956  10.189
73987ION    NA+46412  19.246  18.586  14.860
73988ION    NA+46413  19.902  23.495  14.826
73989ION    NA+46414   5.685  16.165   2.038
73990ION    NA+46415  22.681  38.497   3.502
73991ION    NA+46416   6.874  33.973  10.629
73992ION    NA+46417  10.092  25.341  14.231
73993ION    NA+46418  14.088  40.625  14.056
73994ION    NA+46419  23.852  32.983   4.158
73995ION    NA+46420  26.822  32.651  10.716
73996ION    NA+46421  17.369  30.986  10.598
73997ION    NA+46422  28.133   3.099  10.796
73998ION    NA+46423   8.062  38.442   3.547
73999ION    NA+46424  11.352  30.494   2.816
74000ION    NA+46425  15.707  10.848  13.161
74001ION    NA+46426  27.265  23.528  10.742
74002ION    NA+46427  19.006  19.449   0.860
74003ION    NA+46428  29.943  36.271   1.871
74004ION    NA+46429  30.059   1.296   2.096
74005ION    NA+46430  10.403  12.080  14.261
74006ION    NA+46431  18.071  20.765   1.920
74007ION    NA+46432  43.742  30.505   4.296
74008ION    NA+46433  16.801  32.182   0.536
74009ION    NA+46434  39.437   2.579   0.288
74010ION    NA+46435  44.371   7.852   4.000
74011ION    NA+46436  30.449  22.118  13.041
74012ION    NA+46437  27.439  27.285   2.180
74013ION    NA+46438   0.405  32.375  11.226
74014ION    NA+46439  10.161  35.817   1.058
74015ION    NA+46440   8.432   5.359  14.423
74016ION    NA+46441  27.251  14.045   0.534
74017ION    NA+46442  39.724  44.918   0.820
74018ION    NA+46443  30.031  40.969   0.242
74019ION    NA+46444  36.955  44.926  12.125
74020ION    NA+46445  10.880  29.030   0.393
74021ION    NA+46446  29.159  20.863   1.431
74022ION    NA+46447  12.870   0.904   0.422
74023ION    NA+46448  32.831   9.440  10.764
74024ION    NA+46449  30.588  11.945   0.124
74025ION    NA+46450  11.129   3.752   1.196
74026ION    NA+46451   7.129  33.942  12.005
74027ION    NA+46452   6.532  42.253   3.552
74028ION    NA+46453  15.101  20.660   2.265
74029ION    NA+46454  14.296  30.265  11.411
74030ION    NA+46455   1.015  30.388  12.914
74031ION    NA+46456  19.093  27.975  12.581
74032ION    NA+46457  31.299  33.080  14.414
74033ION    NA+46458  40.454  13.797  14.855
74034ION    NA+46459   3.875   8.843  13.487
74035ION    NA+46460  19.175   7.424   4.903
74036ION    NA+46461  28.645  15.345  12.975
74037ION    NA+46462  13.015  17.879   3.304
74038ION    NA+46463  43.853  42.146  12.168
74039ION    NA+46464  38.481  23.960   3.037
74040ION    NA+46465  40.032  23.429   3.107
74041ION    NA+46466   0.685  12.115  11.513
74042ION    NA+46467  21.066  39.822   2.627
74043ION    NA+46468  19.082  17.315   4.354
74044ION    NA+46469  16.374  44.062  14.831
74045ION    NA+46470   2.298  14.922   4.751
74046ION    NA+46471  40.157  19.571   1.501
74047ION    NA+46472  32.559  19.189   4.678
74048ION    NA+46473  35.973  42.536   2.125
74049ION    NA+46474  35.350  29.692  10.716
74050ION    NA+46475   1.154   9.151  10.822
74051ION    NA+46476  17.090  43.487   2.953
74052ION    NA+46477  36.824  31.230  12.648
74053ION    NA+46478  37.354   5.041  10.954
74054ION    NA+46479  28.778  11.382  11.345
74055ION    NA+46480   8.909  38.973   3.510
74056ION    NA+46481  12.932  22.628   0.080
74057ION    NA+46482  11.852  38.796   0.917
74058ION    NA+46483  21.666  19.120  14.761
74059ION    NA+46484  17.192  12.988  13.761
74060ION    NA+46485  10.203  14.891   3.160
74061ION    NA+46486  14.529  37.741  14.042
74062ION    NA+46487  38.733   2.383  12.584
74063ION    NA+46488  29.108  30.689  12.935
74064ION    NA+46489  28.575  21.492  13.451
74065ION    NA+46490  27.629  25.660   4.503
74066ION    NA+46491   1.411  14.043  11.784
74067ION    NA+46492   4.910  41.879  11.466
74068ION    NA+46493  38.104  41.564  11.830
74069ION    NA+46494  18.506   9.995   4.780
74070ION    NA+46495  42.305  41.723   4.125
74071ION    NA+46496  25.640  15.865   2.613
74072ION    NA+46497   5.841  11.641   1.017
74073ION    NA+46498   6.444  22.794  13.422
74074ION    NA+46499   7.843  36.341  11.584
74075ION    NA+46500  39.232  14.310  11.170
74076ION    NA+46501  32.462   0.706   1.757
74077ION    NA+46502  10.694  19.040  11.851
74078ION    NA+46503  41.512  27.192  12.858
74079ION    NA+46504  11.135  35.499  13.800
74080ION    NA+46505  26.121  35.867  12.103
74081ION    NA+46506  22.045   8.847  14.532
74082ION    NA+46507   4.359  10.921   0.630
74083ION    NA+46508  17.073   6.039  13.549
74084ION    NA+46509  36.845  38.617  12.750
74085ION    NA+46510  14.246  23.788  10.308
74086ION    NA+46511  30.072   0.018   1.672
74087ION    NA+46512  30.684   4.476  12.931
74088ION    NA+46513   6.649  35.493   1.634
74089ION    NA+46514  34.736  12.521   1.740
74090ION    NA+46515   4.263   4.185   4.129
74091ION    NA+46516   1.375  18.484  11.179
74092ION    NA+46517   9.878  33.755  11.300
74093ION    NA+46518  16.271  13.519  11.628
74094ION    NA+46519  25.282  18.762  12.322
74095ION    NA+46520   5.292  21.835   2.064
74096ION    NA+46521  31.630  14.056   2.264
74097ION    NA+46522   3.471  14.400   0.575
74098ION    NA+46523   3.696  12.802  12.060
74099ION    NA+46524  33.460  28.333  11.109
74100ION    NA+46525  14.043  24.426   3.884
74101ION    NA+46526  18.724  16.427   0.691
74102ION    NA+46527  23.660  43.295  13.529
74103ION    NA+46528  20.560   4.058   1.385
74104ION    NA+46529  41.041  28.185   4.202
74105ION    NA+46530  42.810   0.185   2.354
74106ION    NA+46531   9.773   0.511  11.282
74107ION    NA+46532  26.099   0.852   1.628
74108ION    NA+46533  10.180  13.920   3.771
74109ION    NA+46534  26.457  37.993  12.581
74110ION    NA+46535  17.600  36.634  10.694
74111ION    NA+46536  29.173  42.875   2.129
74112ION    NA+46537  16.832  11.128  13.792
74113ION    NA+46538  13.995  39.579  11.510
74114ION    NA+46539  44.582  26.954   2.836
74115ION    NA+46540  33.225  42.864   0.846
74116ION    NA+46541   3.626  35.070  13.527
74117ION    NA+46542  29.204  23.584  11.182
74118ION    NA+46543  38.314  11.206   2.241
74119ION    NA+46544  40.736  10.162   3.124
74120ION    NA+46545  19.302  44.458  11.252
74121ION    NA+46546  12.538  36.534   4.056
74122ION    NA+46547   7.336  37.527   9.876
74123ION    NA+46548  30.640  44.292  10.164
74124ION    NA+46549  40.880  22.018  12.572
74125ION    NA+46550  44.435  17.515  11.021
74126ION    NA+46551   9.568  16.693   0.551
74127ION    NA+46552  38.742  30.528   0.948
74128ION    NA+46553  41.900  22.039   5.197
74129ION    NA+46554  33.926   2.498   1.880
74130ION    NA+46555  33.223   4.257   4.886
74131ION    NA+46556  35.560  25.075   3.113
74132ION    NA+46557  26.870  39.779   3.407
74133ION    NA+46558  39.333  44.545   4.668
74134ION    NA+46559  42.226  29.932  12.071
74135ION    NA+46560  43.570   3.460   4.076
74136ION    NA+46561  28.191  40.106   0.891
74137ION    NA+46562  14.011  22.996  11.590
74138ION    NA+46563  20.526   5.022  14.269
74139ION    NA+46564  22.511  41.886   2.053
74140ION    NA+46565  44.229  25.921  10.384
74141ION    NA+46566  12.223  22.792  12.317
74142ION    NA+46567  30.605  40.914  11.581
74143ION    NA+46568  41.016  43.512   0.010
74144ION    NA+46569  44.034   7.009  11.487
74145ION    NA+46570  12.544  39.507  14.457
74146ION    NA+46571  26.285  27.848   2.452
74147ION    NA+46572  42.838  10.525  13.093
74148ION    NA+46573  41.490   6.607   4.071
74149ION    NA+46574  25.597  28.507   5.315
74150ION    NA+46575  37.879  35.203  13.834
74151ION    NA+46576  42.292  44.383  14.813
74152ION    NA+46577  41.991  26.044   2.793
74153ION    NA+46578  30.853   8.968   9.621
74154ION    NA+46579  44.970   0.644  12.903
74155ION    NA+46580  35.096  35.377  13.982
74156ION    NA+46581  19.642  40.200  10.831
74157ION    NA+46582  44.310   2.399  11.077
74158ION    NA+46583  40.185  28.975  14.491
74159ION    NA+46584  37.800   6.463  11.242
74160ION    NA+46585   1.796  14.096  14.788
74161ION    NA+46586   3.293  20.025   4.665
74162ION    NA+46587   8.817  35.663   9.868
74163ION    NA+46588   3.466   4.042   0.917
74164ION    NA+46589  18.436  28.702  14.548
74165ION    NA+46590   3.006  23.650  11.531
74166ION    NA+46591   7.124  26.418  12.375
74167ION    NA+46592  17.470   6.694   4.091
74168ION    NA+46593  11.697  25.995   4.710
74169ION    NA+46594  38.107  18.076   0.838
74170ION    NA+46595  15.815  22.614   3.668
74171ION    NA+46596  42.343  10.943  10.336
74172ION    NA+46597  36.362  19.871   4.043
74173ION    NA+46598  10.456   1.196   4.260
74174ION    NA+46599  44.909  29.888  13.133
74175ION    NA+46600  24.912  31.469  12.717
74176ION    NA+46601  41.977  36.345  14.968
74177ION    NA+46602   0.204  36.306  12.741
74178ION    NA+46603   6.678  38.950   4.369
74179ION    NA+46604   8.340  38.286  14.272
74180ION    NA+46605  32.235   5.731   4.353
74181ION    NA+46606  34.827   6.498   5.538
74182ION    NA+46607   5.211  38.427   2.794
74183ION    NA+46608  14.628   0.486  12.043
74184ION    NA+46609  35.087  21.709   4.142
74185ION    NA+46610  42.313  30.747  13.621
74186ION    NA+46611  38.768  19.458   5.422
74187ION    NA+46612  17.047  21.867   2.865
74188ION    NA+46613  10.971  38.309  11.330
74189ION    NA+46614   5.133  37.369   3.679
74190ION    NA+46615  12.882  28.539   0.022
74191ION    NA+46616  25.742  34.703   0.132
74192ION    NA+46617  38.556   4.761  12.436
74193ION    NA+46618   1.007  37.576  14.560
74194ION    NA+46619  18.650  26.145   2.300
74195ION    NA+46620  10.681  24.955   4.875
74196ION    NA+46621  40.535  23.621  14.833
74197ION    NA+46622  13.015  31.244  13.734
74198ION    NA+46623   2.754  33.340  13.516
74199ION    NA+46624  19.661  22.744  11.734
74200ION    NA+46625  43.957   4.892   4.040
74201ION    NA+46626  39.507  41.228   4.510
74202ION    NA+46627  30.106  36.599  13.768
74203ION    NA+46628  28.429  24.110  12.060
74204ION    NA+46629  20.762   6.316   1.680
74205ION    NA+46630  41.879  36.846   4.851
74206ION    NA+46631  42.369   5.119   4.564
74207ION    NA+46632  18.331  42.258   1.576
74208ION    NA+46633  36.299  20.870   9.822
74209ION    NA+46634   3.802  38.282   4.606
74210ION    NA+46635  14.256  25.976  13.208
74211ION    NA+46636  10.627  28.107   4.630
74212ION    NA+46637  31.460  25.595   0.814
74213ION    NA+46638  14.855  43.187  13.317
74214ION    NA+46639  23.731  22.191  13.744
74215ION    NA+46640   5.424  25.730  11.864
74216ION    NA+46641  40.808  27.926  13.807
74217ION    NA+46642  15.983  39.816   0.567
74218ION    NA+46643  17.145   7.020   3.316
74219ION    NA+46644  17.311  34.360   1.821
74220ION    NA+46645  12.560   5.629   1.530
74221ION    NA+46646   2.206  44.485  12.802
74222ION    NA+46647  44.439  21.903  11.678
74223ION    NA+46648  43.896   1.588   4.089
74224ION    NA+46649  14.251  24.441  11.645
74225ION    NA+46650  30.054  25.109  14.033
74226ION    NA+46651  27.352   5.348  13.332
74227ION    NA+46652  25.241  10.217  11.987
74228ION    NA+46653  26.545  41.511   2.837
74229ION    NA+46654  31.797  43.633  12.376
74230ION    NA+46655  30.509  23.722   4.401
74231ION    NA+46656   7.242  43.357   0.722
74232ION    NA+46657   0.983  19.329   1.367
74233ION    NA+46658  32.642  10.555  13.242
74234ION    NA+46659   8.178  12.777   0.001
74235ION    NA+46660  19.185   6.368   3.807
74236ION    NA+46661  29.891  34.368   1.215
74237ION    NA+46662  23.816  39.771   0.028
74238ION    NA+46663  18.085  15.208   4.528
74239ION    NA+46664  17.984  37.029   4.192
74240ION    NA+46665  20.933  24.488  13.035
74241ION    NA+46666  15.077  30.538   4.664
74242ION    NA+46667  10.630  34.822   3.488
74243ION    NA+46668   4.744  39.360   4.370
74244ION    NA+46669  18.022  28.522  12.069
74245ION    NA+46670  38.416  11.758   4.554
74246ION    NA+46671  36.539  41.804   3.889
74247ION    NA+46672  31.079   2.316   0.268
74248ION    NA+46673  10.999  32.083   4.084
74249ION    NA+46674  12.136  15.727   1.956
74250ION    NA+46675   7.622  28.344  11.754
74251ION    NA+46676  27.152  38.489   1.248
74252ION    NA+46677  31.478  29.505   0.787
74253ION    NA+46678  14.528  29.231  14.547
74254ION    NA+46679   2.663  14.449  10.696
74255ION    NA+46680  41.462   3.243   4.691
74256ION    NA+46681  31.478  18.499   2.029
74257ION    NA+46682  27.807  16.199  11.642
74258ION    NA+46683  24.730  26.942   1.233
74259ION    NA+46684  44.498   6.967  10.602
74260ION    NA+46685  24.199  16.523  13.988
74261ION    NA+46686  42.142  29.562   2.716
74262ION    NA+46687  25.517  43.427   0.247
74263ION    NA+46688  44.986  41.270   0.074
74264ION    NA+46689  16.227  29.747  11.733
74265ION    NA+46690   1.047  33.601  11.244
74266ION    NA+46691  40.484  27.661   0.607
74267ION    NA+46692  33.104  38.872  12.595
74268ION    NA+46693  33.097  19.746   1.842
74269ION    NA+46694  10.272   9.842  12.143
74270ION    NA+46695   0.540   7.070  14.769
74271ION    NA+46696  14.683  31.915  10.301
74272ION    NA+46697   9.694  36.384   1.738
74273ION    NA+46698   0.021   1.381   2.448
74274ION    NA+46699  20.444  40.404  12.619
74275ION    NA+46700  19.078   5.827  12.043
74276ION    NA+46701   1.499  30.924   3.310
74277ION    NA+46702  21.966  32.844  13.013
74278ION    NA+46703   8.862  28.064   4.265
74279ION    NA+46704  40.738  37.093  14.156
74280ION    NA+46705   0.941  12.735  10.757
74281ION    NA+46706  20.776  15.280   3.037
74282ION    NA+46707  19.735  20.485  11.786
74283ION    NA+46708  34.394  31.048  12.050
74284ION    NA+46709  14.402   6.147   3.238
74285ION    NA+46710  32.668  24.504  13.738
74286ION    NA+46711  22.842  23.015  11.382
74287ION    NA+46712  11.875  20.229   3.774
74288ION    NA+46713  10.862  30.592   1.822
74289ION    NA+46714  30.107   2.477  10.883
74290ION    NA+46715   6.522  39.861  12.025
74291ION    NA+46716   3.318  13.733   3.075
74292ION    NA+46717  35.896  43.514   3.637
74293ION    NA+46718   7.763  22.847  14.788
74294ION    NA+46719  24.428   5.795   4.463
74295ION    NA+46720  34.360  12.341   3.638
74296ION    NA+46721  21.070   6.122  13.638
74297ION    NA+46722   2.577  37.395   1.401
74298ION    NA+46723  42.993   6.851   0.900
74299ION    NA+46724  18.953  43.470  12.653
74300ION    NA+46725  14.873  36.903  10.651
74301ION    NA+46726  31.948  23.427   2.210
74302ION    NA+46727  37.644  22.736   0.032
74303ION    NA+46728  37.847  35.456  14.683
74304ION    NA+46729  38.046  35.895   4.119
74305ION    NA+46730  28.794   7.309  11.597
74306ION    NA+46731   7.980  40.010  10.810
74307ION    NA+46732   6.910   6.455  10.928
74308ION    NA+46733   0.694   9.264  14.045
74309ION    NA+46734  10.313  34.260  11.939
74310ION    NA+46735  29.037  14.218   0.018
74311ION    NA+46736  37.406  27.372   9.883
74312ION    NA+46737  21.224  29.945  12.374
74313ION    NA+46738  28.088   1.159  12.423
74314ION    NA+46739  19.839  11.332   0.277
74315ION    NA+46740  20.586  31.898  13.372
74316ION    NA+46741   4.041  33.073   0.365
74317ION    NA+46742  22.546  32.980  14.666
74318ION    NA+46743  11.004  40.919  10.734
74319ION    NA+46744   5.186  12.439   0.885
74320ION    NA+46745   2.934  22.958   1.741
74321ION    NA+46746  28.027  35.290  11.440
74322ION    NA+46747   4.024  18.251  13.993
74323ION    NA+46748  15.741  11.754  10.550
74324ION    NA+46749   0.918   0.989  12.622
74325ION    NA+46750  18.343  31.783  11.236
74326ION    NA+46751  40.645  19.787   2.347
74327ION    NA+46752  25.991   2.205  11.952
74328ION    NA+46753  21.702  16.008  12.560
74329ION    NA+46754  21.027  17.489   1.513
74330ION    NA+46755  23.951  42.196   4.062
74331ION    NA+46756  43.588  27.773   2.570
74332ION    NA+46757  20.178  38.963  10.768
74333ION    NA+46758   4.247  16.091   3.719
74334ION    NA+46759  38.379  41.484   4.145
74335ION    NA+46760  22.661  23.307  12.612
74336ION    NA+46761  29.550  31.577  12.809
74337ION    NA+46762  27.709   7.140   2.549
74338ION    NA+46763  38.407   2.142  13.499
74339ION    NA+46764  40.777  37.717  12.023
74340ION    NA+46765  27.542   9.593   3.353
74341ION    NA+46766  28.409  33.973   0.321
74342ION    NA+46767  38.518  31.333   2.222
74343ION    NA+46768  21.257  30.601   3.656
74344ION    NA+46769  27.537   0.504   0.869
74345ION    NA+46770   6.122   0.926   9.751
74346ION    NA+46771  15.902  25.781   3.705
74347ION    NA+46772  27.551  15.817   2.896
74348ION    NA+46773   2.688  42.764   1.950
74349ION    NA+46774  16.035   1.012   4.130
74350ION    NA+46775  22.473   8.894  11.019
74351ION    NA+46776  21.661   1.663   0.326
74352ION    NA+46777  41.083   4.341   3.777
74353ION    NA+46778  39.802   5.182  12.037
74354ION    NA+46779  16.749  35.886   1.657
74355ION    NA+46780   6.714  42.296   0.006
74356ION    NA+46781   2.421   7.672  12.922
74357ION    NA+46782  29.933  33.597   3.665
74358ION    NA+46783  24.401  25.487  11.726
74359ION    NA+46784   8.316  43.768   4.602
74360ION    NA+46785  21.793  40.956  11.322
74361ION    NA+46786  35.082   3.048  14.793
74362ION    NA+46787  17.340  28.677   3.921
74363ION    NA+46788   4.538  44.818   1.610
74364ION    NA+46789  43.831  17.372  12.282
74365ION    NA+46790   7.680  28.079   2.315
74366ION    NA+46791  24.619  16.685  11.924
74367ION    NA+46792   4.190  23.054   2.325
74368ION    NA+46793  24.759  19.276  12.625
74369ION    NA+46794   9.700  26.351   0.107
74370ION    NA+46795  28.288  27.466   1.925
74371ION    NA+46796  16.136  37.865   1.182
74372ION    NA+46797  12.906  19.084  11.615
74373ION    NA+46798   2.029  20.292  13.976
74374ION    NA+46799  27.984  43.287   3.841
74375ION    NA+46800   8.956  38.779  12.612
74376ION    NA+46801   8.050  12.149   0.769
74377ION    NA+46802   1.876  25.352   4.150
74378ION    NA+46803   9.837  10.500  13.438
74379ION    NA+46804  32.096  14.503  11.771
74380ION    NA+46805  13.374   6.768   2.769
74381ION    NA+46806  30.818  38.826   1.633
74382ION    NA+46807  43.998  41.477  14.287
74383ION    NA+46808  30.602   9.803   2.403
74384ION    NA+46809  40.814   0.830  12.436
74385ION    NA+46810  11.827  23.014  10.594
74386ION    NA+46811  23.949  11.560   2.428
74387ION    NA+46812  29.553  13.702   3.016
74388ION    NA+46813  26.134   5.508  12.060
74389ION    NA+46814  16.193  25.680  11.960
74390ION    NA+46815   7.668   9.211  11.900
74391ION    NA+46816  40.973  14.169   1.962
74392ION    NA+46817  36.116  35.081   0.475
74393ION    NA+46818   4.878  35.810   0.600
74394ION    NA+46819  38.115  15.190  14.488
74395ION    NA+46820  39.961  10.807  14.562
74396ION    NA+46821  35.741  12.041  12.787
74397ION    NA+46822   0.425  27.438   4.158
74398ION    NA+46823  44.554  31.344  11.186
74399ION    NA+46824  22.989  14.730  14.069
74400ION    NA+46825  39.951  32.993  12.640
74401ION    NA+46826  39.585   0.639  11.569
74402ION    NA+46827   8.417  35.452  11.595
74403ION    NA+46828  32.408  42.998   5.009
74404ION    NA+46829   3.822  15.319   2.478
74405ION    NA+46830   6.569  30.239  10.296
74406ION    NA+46831   6.173  14.095   2.927
74407ION    NA+46832  32.455  31.822   0.503
74408ION    NA+46833  26.687   4.991   4.642
74409ION    NA+46834  41.677  11.611  14.162
74410ION    NA+46835   6.273   3.910   4.049
74411ION    NA+46836   6.702  20.419   2.292
74412ION    NA+46837   9.255  26.501   2.929
74413ION    NA+46838   5.088  42.833   4.033
74414ION    NA+46839  17.541  14.078  11.549
74415ION    NA+46840  17.152  26.705   2.117
74416ION    NA+46841  26.068   4.724   0.573
74417ION    NA+46842  20.421  16.407   4.085
74418ION    NA+46843  24.165  18.591  10.622
74419ION    NA+46844  29.584  36.617  12.306
74420ION    NA+46845   8.242  13.483   2.340
74421ION    NA+46846  21.965  25.689   4.213
74422ION    NA+46847   0.755  35.293   4.884
74423ION    NA+46848  31.048  32.186   4.103
74424ION    NA+46849  12.791  16.893  10.629
74425ION    NA+46850  40.637   4.456  14.380
74426ION    NA+46851  21.029  21.825   4.626
74427ION    NA+46852   3.454  16.615   0.162
74428ION    NA+46853  39.665  14.328   0.268
74429ION    NA+46854  36.906  29.794   2.575
74430ION    NA+46855  44.576  35.837   2.384
74431ION    NA+46856   2.900  15.153  12.931
74432ION    NA+46857  35.656  24.627  11.401
74433ION    NA+46858  30.761   2.282   2.496
74434ION    NA+46859  24.899  34.738  14.753
74435ION    NA+46860  42.945  29.291   0.063
74436ION    NA+46861  31.392  30.947  11.149
74437ION    NA+46862  13.009  17.585  13.235
74438ION    NA+46863  37.551  38.324  14.387
74439ION    NA+46864  38.446   1.200   0.502
74440ION    NA+46865   4.224  37.852   0.759
74441ION    NA+46866   6.348   3.179   0.040
74442ION    NA+46867  18.962  21.637  13.902
74443ION    NA+46868   4.253   6.927   0.881
74444ION    NA+46869  19.768  34.485   3.336
74445ION    NA+46870  31.410  36.805   3.370
74446ION    NA+46871  40.334  16.981   4.221
74447ION    NA+46872   9.280  12.406   0.417
74448ION    NA+46873  28.689   9.827  13.267
74449ION    NA+46874  16.693  40.159  12.515
74450ION    NA+46875  18.029  17.706   4.609
74451ION    NA+46876  40.261  20.798   4.655
74452ION    NA+46877   0.569  41.027   9.805
74453ION    NA+46878  20.043  38.087  12.960
74454ION    NA+46879  14.760  19.796   3.779
74455ION    NA+46880  28.762  37.278   3.495
74456ION    NA+46881  32.406  33.091   0.003
74457ION    NA+46882   1.233  34.378   3.482
74458ION    NA+46883  19.095  30.714   1.360
74459ION    NA+46884  23.369  36.726  13.710
74460ION    NA+46885  12.161  28.282  13.561
74461ION    NA+46886  13.643   2.506   1.734
74462ION    NA+46887  18.214  12.739  14.557
74463ION    NA+46888  27.625  36.980  11.927
74464ION    NA+46889  20.003   4.158   3.651
74465ION    NA+46890  39.930  13.593  11.157
74466ION    NA+46891  22.584   3.264  11.121
74467ION    NA+46892  13.230  22.932  14.255
74468ION    NA+46893   9.891  27.472  12.409
74469ION    NA+46894  39.511  21.177   2.517
74470ION    NA+46895   9.114   4.900   0.797
74471ION    NA+46896  28.916  31.414   3.619
74472ION    NA+46897  40.577  29.145  13.528
74473ION    NA+46898  40.346   3.851  11.027
74474ION    NA+46899  33.643  37.094  12.952
74475ION    NA+46900   3.095  26.451   4.454
74476ION    NA+46901  23.486  17.137  14.471
74477ION    NA+46902  23.136  13.997  11.807
74478ION    NA+46903  36.902   2.514  12.241
74479ION    NA+46904   6.466  15.428   2.466
74480ION    NA+46905  37.149   8.875   1.073
74481ION    NA+46906  30.613  15.117  13.861
74482ION    NA+46907   5.027  36.658  12.527
74483ION    NA+46908  24.409   8.213  14.303
74484ION    NA+46909  20.134  38.083  14.520
74485ION    NA+46910  16.371  32.370  11.099
74486ION    NA+46911  19.098  34.770  12.366
74487ION    NA+46912  35.831   8.488  14.034
74488ION    NA+46913  34.301  19.736   1.985
74489ION    NA+46914  17.138  19.086  13.293
74490ION    NA+46915  27.456  28.749  11.788
74491ION    NA+46916   4.618  26.129   2.797
74492ION    NA+46917  32.456  34.389  14.631
74493ION    NA+46918  36.410   9.635  12.057
74494ION    NA+46919  24.494  26.921   2.205
74495ION    NA+46920  19.601  40.047  13.275
74496ION    NA+46921  23.992  38.657   1.806
74497ION    NA+46922  37.815  31.057  13.574
74498ION    NA+46923  20.556  21.043   0.013
74499ION    NA+46924  11.359  42.013  14.240
74500ION    NA+46925  31.459  43.415  13.561
74501ION    NA+46926  12.062  23.816  14.323
74502ION    NA+46927  42.953  13.168  14.394
74503ION    NA+46928   9.375  24.563  11.070
74504ION    NA+46929  25.637   0.881  11.150
74505ION    NA+46930  29.130  28.140   0.507
74506ION    NA+46931   7.604  14.997   3.526
74507ION    NA+46932  42.602  39.856  13.457
74508ION    NA+46933  10.525  12.425  10.348
74509ION    NA+46934   4.936   8.804   0.509
74510ION    NA+46935  42.513   5.899  13.364
74511ION    NA+46936  43.467   4.268   3.107
74512ION    NA+46937  43.507  41.006  13.554
74513ION    NA+46938  43.845  36.905   1.130
74514ION    NA+46939  13.322  35.884   4.181
74515ION    NA+46940  21.260  17.623  12.758
74516ION    NA+46941  14.718  42.206   4.764
74517ION    NA+46942  38.617  10.478  10.302
74518ION    NA+46943  13.190  29.043   9.857
74519ION    NA+46944  28.387   9.621   0.510
74520ION    CL-46945  22.182  15.311   2.809
74521ION    CL-46946   7.790  20.465   3.254
74522ION    CL-46947  13.661  19.976   2.816
74523ION    CL-46948  44.160  14.562  12.970
74524ION    CL-46949   0.578  29.945   1.438
74525ION    CL-46950  37.843  32.630   1.356
74526ION    CL-46951  22.005  31.581  12.762
74527ION    CL-46952  15.441   6.015   4.524
74528ION    CL-46953  26.575  10.027   9.741
74529ION    CL-46954  41.244   3.270  12.437
74530ION    CL-46955  28.387  24.016   2.198
74531ION    CL-46956  19.691  12.077   1.778
74532ION    CL-46957  10.491  26.345   3.411
74533ION    CL-46958  24.377  22.548   5.068
74534ION    CL-46959  16.379  17.029   1.414
74535ION    CL-46960   9.379  37.872   4.828
74536ION    CL-46961  13.819  12.894  13.038
74537ION    CL-46962  19.205  13.877   1.955
74538ION    CL-46963   9.314  35.907  13.489
74539ION    CL-46964  20.611  34.747  10.989
74540ION    CL-46965  10.145  12.306  14.546
74541ION    CL-46966  40.807   3.028  14.462
74542ION    CL-46967  30.415  11.301   1.306
74543ION    CL-46968  12.589  22.013   5.298
74544ION    CL-46969   6.212  42.972  13.422
74545ION    CL-46970  18.607   0.403   3.561
74546ION    CL-46971  25.019  11.858   5.110
74547ION    CL-46972   0.075  10.677  11.925
74548ION    CL-46973   2.131   9.888   0.760
74549ION    CL-46974  30.549  10.448  14.073
74550ION    CL-46975  24.807  21.593  13.202
74551ION    CL-46976  38.585  41.186  10.061
74552ION    CL-46977  41.073  10.431   3.274
74553ION    CL-46978  28.564  10.258   3.699
74554ION    CL-46979  27.771   2.075   0.193
74555ION    CL-46980  27.448  15.510   1.577
74556ION    CL-46981  11.383  32.004  12.391
74557ION    CL-46982  27.883  27.366   2.130
74558ION    CL-46983  12.367  19.007  14.561
74559ION    CL-46984  25.547  21.509  12.182
74560ION    CL-46985  43.089  44.985   2.642
74561ION    CL-46986  32.462  16.302  12.169
74562ION    CL-46987  27.718  10.340  11.477
74563ION    CL-46988  20.607  31.681  12.984
74564ION    CL-46989  22.915  41.949  14.079
74565ION    CL-46990   0.000  34.369   4.917
74566ION    CL-46991  35.950   8.107   3.244
74567ION    CL-46992  16.235  18.141  13.384
74568ION    CL-46993  38.722   0.837  13.469
74569ION    CL-46994  26.129  14.399   1.947
74570ION    CL-46995   0.118  24.593  12.343
74571ION    CL-46996  40.943  18.415  11.286
74572ION    CL-46997   6.937   0.950   1.365
74573ION    CL-46998  30.358  21.196  11.528
74574ION    CL-46999  22.619  31.600   1.398
74575ION    CL-47000  43.426  17.416  12.086
74576ION    CL-47001  36.261  19.639   2.717
74577ION    CL-47002   1.728  25.550   0.163
74578ION    CL-47003  26.495   4.808   0.760
74579ION    CL-47004  40.752  37.346   3.539
74580ION    CL-47005  18.461  12.380   9.840
74581ION    CL-47006   8.138  12.847  10.269
74582ION    CL-47007  16.315  34.817   1.126
74583ION    CL-47008   4.524  32.163   3.506
74584ION    CL-47009   6.453  23.580   0.926
74585ION    CL-47010  32.207  31.856  13.976
74586ION    CL-47011  39.367   3.703   2.312
74587ION    CL-47012  32.014  39.110   0.038
74588ION    CL-47013  10.698  22.760   0.832
74589ION    CL-47014  25.942  14.864   1.081
74590ION    CL-47015  43.739  17.900  14.684
74591ION    CL-47016  12.784  34.463   3.668
74592ION    CL-47017   9.838  37.260   4.184
74593ION    CL-47018   4.999  13.348  12.231
74594ION    CL-47019  22.982  35.461   4.006
74595ION    CL-47020  14.830  35.513  11.506
74596ION    CL-47021   0.347  18.245   2.226
74597ION    CL-47022  13.075  22.775  14.674
74598ION    CL-47023  40.807   5.404   2.401
74599ION    CL-47024  11.169  30.717   3.171
74600ION    CL-47025  17.011  35.494   3.070
74601ION    CL-47026   0.901  26.668   0.626
74602ION    CL-47027   3.095  14.544  10.768
74603ION    CL-47028  34.337  19.700   2.441
74604ION    CL-47029  19.696  32.027   4.722
74605ION    CL-47030  35.458  15.698  14.106
74606ION    CL-47031  37.405   9.111   1.349
74607ION    CL-47032  26.011  18.218   0.406
74608ION    CL-47033   5.303  43.229   0.010
74609ION    CL-47034  23.445  32.097  14.730
74610ION    CL-47035  12.291   4.845   0.305
74611ION    CL-47036  44.341  43.506   1.383
74612ION    CL-47037   8.592   1.395   2.389
74613ION    CL-47038  39.349  35.711  14.866
74614ION    CL-47039  41.339  39.008  13.410
74615ION    CL-47040  27.175  19.338   1.906
74616ION    CL-47041   3.827  19.803  14.316
74617ION    CL-47042  23.667  12.072  12.313
74618ION    CL-47043  13.883  10.966  11.036
74619ION    CL-47044  36.088   7.392  11.522
74620ION    CL-47045  40.715   8.144  10.822
74621ION    CL-47046   9.163  43.394  12.484
74622ION    CL-47047  41.510  11.081  12.470
74623ION    CL-47048   4.806   5.824  14.736
74624ION    CL-47049   8.155  28.513   1.319
74625ION    CL-47050   9.532  39.972   1.018
74626ION    CL-47051  27.406   4.151  14.239
74627ION    CL-47052  35.302  34.243   1.141
74628ION    CL-47053  39.672  21.072   2.933
74629ION    CL-47054  35.042  20.701  14.616
74630ION    CL-47055  12.767  17.859  12.966
74631ION    CL-47056   8.012  24.089  12.946
74632ION    CL-47057  20.620  36.683   4.738
74633ION    CL-47058  43.784  35.446   4.138
74634ION    CL-47059   2.912   9.538   4.421
74635ION    CL-47060  14.079  34.933  13.933
74636ION    CL-47061  31.784   8.433   0.652
74637ION    CL-47062  26.123  34.576   0.349
74638ION    CL-47063  24.940  12.607   3.710
74639ION    CL-47064   0.506  22.343  13.854
74640ION    CL-47065  40.173   8.680   4.642
74641ION    CL-47066  44.431  22.560  13.542
74642ION    CL-47067  42.498  21.053  10.640
74643ION    CL-47068  18.424  43.752  11.511
74644ION    CL-47069  11.747  18.601   1.804
74645ION    CL-47070   2.863   2.819   0.761
74646ION    CL-47071  27.040  26.036   3.768
74647ION    CL-47072  44.333  23.069   2.572
74648ION    CL-47073   1.515  44.861   1.841
74649ION    CL-47074  24.323   5.457   2.629
74650ION    CL-47075  31.687  25.396  10.620
74651ION    CL-47076  10.419   4.475  12.040
74652ION    CL-47077   3.075  17.119   4.477
74653ION    CL-47078  27.510  13.709   0.674
74654ION    CL-47079  22.521  23.498  12.992
74655ION    CL-47080   6.952   9.722   2.242
74656ION    CL-47081  42.251  41.346   4.399
74657ION    CL-47082  17.216  13.767   4.091
74658ION    CL-47083  44.773  20.326  10.278
74659ION    CL-47084  19.478   4.204  13.079
74660ION    CL-47085   0.804  15.516   3.558
74661ION    CL-47086  18.015  14.566   3.263
74662ION    CL-47087  17.517  18.927   1.668
74663ION    CL-47088  39.262  23.180   4.041
74664ION    CL-47089  25.203  20.141   4.917
74665ION    CL-47090   1.831   3.590   3.990
74666ION    CL-47091  13.354  23.045  13.829
74667ION    CL-47092  13.929  18.852  11.085
74668ION    CL-47093   8.954  25.731  11.109
74669ION    CL-47094   0.841  23.164  12.916
74670ION    CL-47095  42.232  10.330   1.152
74671ION    CL-47096   8.242  38.779   3.288
74672ION    CL-47097  27.540  33.401  10.027
74673ION    CL-47098   3.975  14.653  13.031
74674ION    CL-47099  10.372  40.134   0.438
74675ION    CL-47100  17.567  42.199  13.927
74676ION    CL-47101  18.650  16.921  13.010
74677ION    CL-47102  42.187  27.989  12.269
74678ION    CL-47103  42.891  20.581   3.669
74679ION    CL-47104  43.773   4.248   1.822
74680ION    CL-47105  44.680  17.322  11.342
74681ION    CL-47106  34.402  38.955   3.133
74682ION    CL-47107  15.338  24.286   3.237
74683ION    CL-47108   5.271  25.163  10.617
74684ION    CL-47109  19.434  40.013  13.699
74685ION    CL-47110  13.726  20.745  11.203
74686ION    CL-47111  35.332   7.597   2.260
74687ION    CL-47112  20.311  27.801  11.729
74688ION    CL-47113  17.056   4.618   2.957
74689ION    CL-47114   3.323  34.956  11.445
74690ION    CL-47115  24.557  42.494   0.035
74691ION    CL-47116  19.691   0.629  14.637
74692ION    CL-47117  15.705  28.218   5.186
74693ION    CL-47118  35.611  21.588  14.194
74694ION    CL-47119  33.020  21.558   2.923
74695ION    CL-47120  17.857  38.248  12.572
74696ION    CL-47121  35.942  15.804  13.237
74697ION    CL-47122  10.232   9.156  10.049
74698ION    CL-47123  41.944  28.012   1.874
74699ION    CL-47124  34.031  21.065   3.280
74700ION    CL-47125  37.340  30.661   0.972
74701ION    CL-47126  42.904  25.745   3.717
74702ION    CL-47127  13.403   7.370  13.482
74703ION    CL-47128  29.941  27.457  11.577
74704ION    CL-47129   7.441  39.876  13.978
74705ION    CL-47130   7.625   0.552  10.816
74706ION    CL-47131  38.655  23.547   9.696
74707ION    CL-47132   2.005   5.573  11.933
74708ION    CL-47133  34.852  37.545   2.870
74709ION    CL-47134  39.090  28.565   1.640
74710ION    CL-47135  17.447   5.816  13.407
74711ION    CL-47136  21.925  41.378  11.382
74712ION    CL-47137  41.353  27.467  12.542
74713ION    CL-47138  44.796  20.911   2.896
74714ION    CL-47139  20.542  40.300   1.509
74715ION    CL-47140  44.926   3.469  11.503
74716ION    CL-47141  24.122  18.361  14.367
74717ION    CL-47142  24.287  39.926   1.373
74718ION    CL-47143  29.472  19.655  13.379
74719ION    CL-47144   0.222  38.825   2.623
74720ION    CL-47145  11.367  26.901  14.648
74721ION    CL-47146  41.424  13.644   3.754
74722ION    CL-47147  23.908  25.059  13.397
74723ION    CL-47148  10.975  38.726  11.506
74724ION    CL-47149  21.729  27.280   0.350
74725ION    CL-47150  26.093  30.509   3.281
74726ION    CL-47151   0.643  44.152  12.503
74727ION    CL-47152   0.862  43.429  10.455
74728ION    CL-47153  44.702  40.955  12.270
74729ION    CL-47154  30.634  39.170   1.865
74730ION    CL-47155  30.713   5.590  12.264
74731ION    CL-47156  24.382  25.051  11.858
74732ION    CL-47157  22.074  24.317   1.800
74733ION    CL-47158  23.002   3.617  13.626
74734ION    CL-47159  22.504  11.621  13.961
74735ION    CL-47160  27.448  14.082   1.947
74736ION    CL-47161  38.595  38.928  11.550
74737ION    CL-47162  33.049   6.824  11.620
74738ION    CL-47163  37.274  10.723  11.182
74739ION    CL-47164  20.051  18.811  11.185
74740ION    CL-47165  41.194  34.058   1.896
74741ION    CL-47166  14.953   7.553   0.967
74742ION    CL-47167   1.290   2.861   4.009
74743ION    CL-47168  26.431  32.049   2.719
74744ION    CL-47169  42.578   6.137  14.613
74745ION    CL-47170  11.780  14.232  14.839
74746ION    CL-47171  32.447  32.226   0.696
74747ION    CL-47172  20.625  25.952  12.388
74748ION    CL-47173  23.293   5.535  10.400
74749ION    CL-47174  41.695   7.622  13.901
74750ION    CL-47175  38.849  28.860   4.117
74751ION    CL-47176  22.443  27.888   4.143
74752ION    CL-47177  18.674  12.600   3.990
74753ION    CL-47178   5.805  43.219  12.081
74754ION    CL-47179   8.860   2.319   3.805
74755ION    CL-47180  24.103  25.499  14.848
74756ION    CL-47181  18.524  43.494  12.788
74757ION    CL-47182  23.062  31.074   2.511
74758ION    CL-47183   3.654   9.716  14.928
74759ION    CL-47184  32.157  11.709   3.709
74760ION    CL-47185  29.791  40.970  10.421
74761ION    CL-47186  41.902  13.656  12.652
74762ION    CL-47187  10.782  34.755   0.888
74763ION    CL-47188   6.363   0.972  12.074
74764ION    CL-47189  35.482  24.300   2.172
74765ION    CL-47190  29.109  14.011  14.607
74766ION    CL-47191   2.696  26.177   3.467
74767ION    CL-47192   5.375  40.587  13.140
74768ION    CL-47193  35.684  42.713   1.833
74769ION    CL-47194  12.131  19.109   4.577
74770ION    CL-47195  33.139  41.515   0.671
74771ION    CL-47196  25.010  10.018   3.027
74772ION    CL-47197  15.930  27.857  14.183
74773ION    CL-47198  41.014  16.342   0.321
74774ION    CL-47199  28.395  41.946  10.958
74775ION    CL-47200   8.249  17.425  13.707
74776ION    CL-47201  23.920  43.004  13.745
74777ION    CL-47202  25.547  29.980  13.393
74778ION    CL-47203  17.936   1.920  14.451
74779ION    CL-47204  41.187  35.066  13.440
74780ION    CL-47205  13.338  25.321  10.108
74781ION    CL-47206  17.428  22.025  14.898
74782ION    CL-47207  40.360  43.692  10.558
74783ION    CL-47208  21.402  21.099  13.050
74784ION    CL-47209   1.893  35.853   3.156
74785ION    CL-47210  21.003  11.994   2.278
74786ION    CL-47211  35.309  21.007   2.413
74787ION    CL-47212  23.395  11.388  11.460
74788ION    CL-47213  40.948  43.560   5.026
74789ION    CL-47214  12.681  19.990  14.064
74790ION    CL-47215   4.989  28.525   2.183
74791ION    CL-47216  28.351  14.433  14.753
74792ION    CL-47217  19.514  37.038  11.641
74793ION    CL-47218  12.083  43.299   2.342
74794ION    CL-47219   7.057  44.037   2.824
74795ION    CL-47220  23.940  17.381   2.443
74796ION    CL-47221  11.982  33.846  10.501
74797ION    CL-47222  27.698  42.802   0.797
74798ION    CL-47223  23.156  28.600   1.881
74799ION    CL-47224   6.575  15.389   2.033
74800ION    CL-47225  19.663  12.031   2.777
74801ION    CL-47226  16.965  35.812   4.274
74802ION    CL-47227  34.572   5.683  10.375
74803ION    CL-47228   8.666  11.758  12.566
74804ION    CL-47229   4.310  26.801   0.795
74805ION    CL-47230  37.290  39.938   2.802
74806ION    CL-47231  28.971   0.124  14.968
74807ION    CL-47232  10.736   7.969  10.282
74808ION    CL-47233  31.594  22.678  10.710
74809ION    CL-47234   0.286  14.178  11.550
74810ION    CL-47235  25.814   1.103   1.395
74811ION    CL-47236  43.804  12.210   1.514
74812ION    CL-47237  13.020  26.497  12.765
74813ION    CL-47238  26.128  20.990  13.591
74814ION    CL-47239  43.689  35.054  12.755
74815ION    CL-47240  25.558  20.187  14.261
74816ION    CL-47241  36.378  22.878  10.592
74817ION    CL-47242  28.591  30.871   1.444
74818ION    CL-47243  35.950  42.317   5.140
74819ION    CL-47244  36.683  31.593   2.328
74820ION    CL-47245  31.989  27.352   3.308
74821ION    CL-47246  41.420   6.893   3.725
74822ION    CL-47247   0.290  25.555   0.328
74823ION    CL-47248  24.659  26.508   2.153
74824ION    CL-47249  31.609  24.836   4.878
74825ION    CL-47250  33.424  10.170  14.763
74826ION    CL-47251  37.536  16.282   0.727
74827ION    CL-47252  19.229  14.175  12.830
74828ION    CL-47253  22.999  24.983  10.407
74829ION    CL-47254  15.348  28.059   0.887
74830ION    CL-47255  43.116  29.561   0.371
74831ION    CL-47256  21.082  24.081  13.177
74832ION    CL-47257   4.602  16.082   3.999
74833ION    CL-47258  22.132  16.744   2.415
74834ION    CL-47259  20.700  39.144   0.459
74835ION    CL-47260  44.307  20.179   3.132
74836ION    CL-47261   9.151  42.845  13.320
74837ION    CL-47262  35.739  14.620   1.957
74838ION    CL-47263  15.365  23.992   0.593
74839ION    CL-47264   1.030   9.203  10.387
74840ION    CL-47265  37.256  22.405  10.652
74841ION    CL-47266  34.524  25.226   1.952
74842ION    CL-47267  42.371  31.706   3.907
74843ION    CL-47268  21.228  34.308  14.402
74844ION    CL-47269  22.560  44.869  12.583
74845ION    CL-47270  22.015   8.440  14.351
74846ION    CL-47271  23.812  33.565   1.867
74847ION    CL-47272  36.878  16.874   2.790
74848ION    CL-47273  35.339  12.158  12.627
74849ION    CL-47274  34.560  39.103   1.259
74850ION    CL-47275   3.016  43.869  12.076
74851ION    CL-47276  39.343  26.285   3.939
74852ION    CL-47277   5.886   5.333   3.947
74853ION    CL-47278  16.665  21.540  11.658
74854ION    CL-47279  39.448  42.527  10.602
74855ION    CL-47280   1.440  42.533   0.852
74856ION    CL-47281  31.800  10.818   1.928
74857ION    CL-47282  14.058  18.160   1.324
74858ION    CL-47283   1.334  22.434   3.208
74859ION    CL-47284  30.725  35.908  12.900
74860ION    CL-47285  20.284  23.464   4.102
74861ION    CL-47286   9.044   8.477  14.506
74862ION    CL-47287  36.838  32.692  10.576
74863ION    CL-47288   8.708  33.979   2.524
74864ION    CL-47289  12.867   9.366  11.326
74865ION    CL-47290  16.095  22.640  11.131
74866ION    CL-47291   2.940  29.804  11.521
74867ION    CL-47292   0.894  17.864   4.977
74868ION    CL-47293   3.346  43.482   1.341
74869ION    CL-47294  10.984  10.070  12.562
74870ION    CL-47295  39.901  31.073  10.598
74871ION    CL-47296   1.909  44.708  13.082
74872ION    CL-47297  33.432  41.703   4.243
74873ION    CL-47298   4.890  25.995   4.107
74874ION    CL-47299   6.207  16.819  14.477
74875ION    CL-47300  28.277  31.897   1.387
74876ION    CL-47301  35.116  36.352   2.600
74877ION    CL-47302   3.485   3.347  12.059
74878ION    CL-47303  13.473  41.947   4.371
74879ION    CL-47304  32.411  15.385  11.092
74880ION    CL-47305  28.565  37.208   2.203
74881ION    CL-47306  25.191   5.423   1.702
74882ION    CL-47307  14.072   1.075   1.837
74883ION    CL-47308  11.270  44.198   1.295
74884ION    CL-47309   0.381   1.976   0.941
74885ION    CL-47310  19.521  44.901  12.378
74886ION    CL-47311  36.444  43.768  12.590
74887ION    CL-47312  19.801  14.741  10.839
74888ION    CL-47313  42.917  37.361  14.970
74889ION    CL-47314  39.847  16.092  12.973
74890ION    CL-47315  37.256   0.555   2.314
74891ION    CL-47316   5.374   8.581  14.282
74892ION    CL-47317  27.496  44.877   5.116
74893ION    CL-47318  44.242  25.310  12.257
74894ION    CL-47319  37.647  24.182  13.018
74895ION    CL-47320  24.658  14.942   0.335
74896ION    CL-47321  27.650  28.789  11.382
74897ION    CL-47322  38.818  18.087  13.698
74898ION    CL-47323   7.760  19.901   1.398
74899ION    CL-47324  42.462  17.291   2.158
74900ION    CL-47325  17.044  44.684   3.220
74901ION    CL-47326  38.518  23.162   0.734
74902ION    CL-47327  14.817  28.125  13.692
74903ION    CL-47328  43.946  18.516   2.347
74904ION    CL-47329  39.846   1.059   1.698
74905ION    CL-47330   0.746  39.010   3.320
74906ION    CL-47331  12.420  25.756   0.673
74907ION    CL-47332   9.751  40.473   4.152
74908ION    CL-47333  10.097  39.742   5.034
74909ION    CL-47334  26.540  21.626  12.177
74910ION    CL-47335  16.312  41.543   4.307
74911ION    CL-47336  36.794  12.654  12.034
74912ION    CL-47337  43.525  42.086   4.123
74913ION    CL-47338  32.007  19.158   0.510
74914ION    CL-47339  17.185  10.451  13.045
74915ION    CL-47340  14.415  17.580  12.100
74916ION    CL-47341   9.401  26.154   0.375
74917ION    CL-47342  18.588   1.580   4.067
74918ION    CL-47343  36.923  12.223   2.239
74919ION    CL-47344  33.763   6.437   0.326
74920ION    CL-47345  39.206  14.316   2.288
74921ION    CL-47346  38.635   7.235   3.373
74922ION    CL-47347  33.103   4.624   1.669
74923ION    CL-47348  19.521   0.107  13.801
74924ION    CL-47349  13.062  29.183   1.813
74925ION    CL-47350   9.975  32.093  13.438
74926ION    CL-47351  12.621   5.648   3.278
74927ION    CL-47352  41.623  31.933  12.256
74928ION    CL-47353  42.149  38.349   1.089
74929ION    CL-47354  31.658  30.280   3.312
74930ION    CL-47355  28.192  22.103  11.924
74931ION    CL-47356   9.848  38.090  12.084
74932ION    CL-47357  35.608   0.859   0.043
74933ION    CL-47358  28.220   0.826  14.749
74934ION    CL-47359  25.001  39.943   4.629
74935ION    CL-47360  19.898  37.133   0.699
74936ION    CL-47361   1.414  18.192  13.566
74937ION    CL-47362  42.870  28.299  11.600
74938ION    CL-47363   2.064  28.872   4.519
74939ION    CL-47364  36.080  18.234  13.487
74940ION    CL-47365  15.905  25.464  14.054
74941ION    CL-47366  30.944  44.556   0.314
74942ION    CL-47367   6.255  17.354   2.190
74943ION    CL-47368  11.410  21.644   3.742
74944ION    CL-47369  14.832  36.851   3.121
74945ION    CL-47370  30.408  38.276  14.160
74946ION    CL-47371  37.583  16.751  12.946
74947ION    CL-47372   1.310  40.054  13.104
74948ION    CL-47373  43.060  43.161   4.420
74949ION    CL-47374  28.494   2.037   2.805
74950ION    CL-47375  26.044  31.138  11.351
74951ION    CL-47376  42.606  12.703  12.257
74952ION    CL-47377  36.097   8.567   1.399
74953ION    CL-47378   1.972  13.044   0.701
74954ION    CL-47379  25.563  32.401   4.530
74955ION    CL-47380  36.019  17.149  11.788
74956ION    CL-47381   3.372   3.582  13.046
74957ION    CL-47382  34.280   2.617   2.127
74958ION    CL-47383  37.203   2.885   5.023
74959ION    CL-47384  27.500  31.345   3.621
74960ION    CL-47385  29.384  31.180   4.962
74961ION    CL-47386  33.443  42.486   0.944
74962ION    CL-47387   9.928  21.758  14.978
74963ION    CL-47388  31.286  33.769  13.313
74964ION    CL-47389  18.425  41.993   1.923
74965ION    CL-47390   4.023  37.517   0.978
74966ION    CL-47391  27.716  30.438  14.261
74967ION    CL-47392  43.189  41.049  13.868
74968ION    CL-47393  44.304  10.255   3.290
74969ION    CL-47394  23.208  24.504  13.203
74970ION    CL-47395  27.721  20.463  14.802
74971ION    CL-47396   5.583   4.815  14.142
74972ION    CL-47397   1.989  14.593   4.638
74973ION    CL-47398  37.872  24.912  13.739
74974ION    CL-47399   9.251   7.455   3.649
74975ION    CL-47400  24.205  35.649   0.939
74976ION    CL-47401   1.885  15.128  10.417
74977ION    CL-47402   6.993  39.523   0.398
74978ION    CL-47403  19.854  30.490   3.442
74979ION    CL-47404  15.857  42.872  11.139
74980ION    CL-47405   0.612  37.447  14.723
74981ION    CL-47406   5.067   3.487  13.928
74982ION    CL-47407  17.744   4.185   2.375
74983ION    CL-47408  40.089  17.589  14.829
74984ION    CL-47409  23.725  44.221   1.732
74985ION    CL-47410  39.325  42.888  13.299
74986ION    CL-47411  43.812  42.581  12.079
74987ION    CL-47412  17.414  39.517  13.724
74988ION    CL-47413  44.208  17.536  12.469
74989ION    CL-47414  35.989  28.249   1.493
74990ION    CL-47415  11.951  40.297   3.532
74991ION    CL-47416   8.343   1.365   4.348
74992ION    CL-47417  24.934  23.278   4.756
74993ION    CL-47418  38.550   9.997   1.986
74994ION    CL-47419  23.078  12.066  14.648
74995ION    CL-47420  23.970  39.429   0.274
74996ION    CL-47421  22.059  25.631   0.703
74997ION    CL-47422  18.841  35.374   3.621
74998ION    CL-47423   3.044  16.409   0.140
74999ION    CL-47424   3.990  23.079   2.724
75000ION    CL-47425  13.418  22.497   4.962
75001ION    CL-47426   3.371   9.023   1.301
75002ION    CL-47427   2.530  15.233  12.693
75003ION    CL-47428  14.082  33.453   2.573
75004ION    CL-47429   3.981  21.615  14.416
75005ION    CL-47430  25.636   7.779   1.164
75006ION    CL-47431  33.018  39.208  12.876
75007ION    CL-47432  19.079   8.450   0.007
75008ION    CL-47433  25.953  17.140   3.905
75009ION    CL-47434  30.920  10.560   0.863
75010ION    CL-47435   2.726  20.658  12.587
75011ION    CL-47436  21.014  40.133   2.295
75012ION    CL-47437  17.600  41.406   1.220
75013ION    CL-47438  23.027  25.625   1.811
75014ION    CL-47439  39.353   4.094   4.152
75015ION    CL-47440  17.197   3.089   5.336
75016ION    CL-47441  35.066  13.846   3.934
75017ION    CL-47442  15.922  15.405   3.060
75018ION    CL-47443  20.021  40.571  12.678
75019ION    CL-47444   1.371  22.426  12.336
75020ION    CL-47445   3.713   8.729  13.885
75021ION    CL-47446  12.434   7.784   4.162
75022ION    CL-47447  25.320  34.724  14.931
75023ION    CL-47448  14.706  31.608  10.659
75024ION    CL-47449   4.551  16.947   4.706
75025ION    CL-47450  33.923  31.254   2.013
75026ION    CL-47451  18.834  26.961   3.284
75027ION    CL-47452  10.744  35.463   5.191
75028ION    CL-47453  18.780  23.736   2.588
75029ION    CL-47454  42.306  42.824  14.696
75030ION    CL-47455  22.628  14.596   1.753
75031ION    CL-47456  21.989  32.637   3.701
75032ION    CL-47457  27.961  12.815  14.449
75033ION    CL-47458  12.373  42.961  13.842
75034ION    CL-47459  42.553  27.018  13.430
75035ION    CL-47460  39.097  33.181   0.609
75036ION    CL-47461  12.725   2.865   1.242
75037ION    CL-47462   1.167  20.085  11.999
75038ION    CL-47463   9.608  36.017  11.473
75039ION    CL-47464  15.349  34.608  10.579
75040ION    CL-47465  34.322  12.769   3.760
75041ION    CL-47466  31.469  41.981  13.670
75042ION    CL-47467  41.095   8.207   3.378
75043ION    CL-47468  30.513   8.827  11.708
75044ION    CL-47469  43.710  34.471  13.584
75045ION    CL-47470  32.303   6.160  11.667
75046ION    CL-47471  21.078   7.787   0.013
75047ION    CL-47472   4.350  42.322   3.493
75048ION    CL-47473  42.240  26.422   2.764
75049ION    CL-47474  36.287  40.141   4.615
75050ION    CL-47475  27.080   5.687  10.961
75051ION    CL-47476  16.482  12.749  12.389
75052ION    CL-47477  23.460   8.557   5.327
75053ION    CL-47478   4.934  22.371   1.185
75054ION    CL-47479  17.542  26.560   1.956
75055ION    CL-47480  21.991   4.897  11.656
75056ION    CL-47481  10.474  33.006   0.378
75057ION    CL-47482  15.526  38.140   4.883
75058ION    CL-47483   3.218  41.503  14.339
75059ION    CL-47484  13.193  37.479  12.932
75060ION    CL-47485  43.247  10.914   0.376
75061ION    CL-47486  12.867   4.535  12.024
75062ION    CL-47487  39.582  34.686  14.867
75063ION    CL-47488  13.168  20.566  14.720
75064ION    CL-47489  22.841  23.727   2.112
75065ION    CL-47490   2.559  27.990   1.238
75066ION    CL-47491   5.018  12.843   0.982
75067ION    CL-47492  34.088  16.184   1.438
75068ION    CL-47493  12.627  11.550  10.778
75069ION    CL-47494  28.629  39.123  12.425
75070ION    CL-47495   2.470  10.163   1.802
75071ION    CL-47496  33.319  26.831   4.197
75072ION    CL-47497  23.456   7.617   1.860
75073ION    CL-47498  33.425   7.764   1.267
75074ION    CL-47499   7.758  34.356  13.141
75075ION    CL-47500   4.885  22.323  13.905
75076ION    CL-47501  14.220  34.361   3.610
75077ION    CL-47502  37.020  33.498  13.012
75078ION    CL-47503  16.037   9.319  11.746
75079ION    CL-47504  19.065   1.161   4.894
75080ION    CL-47505  37.594   6.096  11.086
75081ION    CL-47506   1.878  21.677  11.430
75082ION    CL-47507  29.037  40.265  14.718
75083ION    CL-47508  43.921  10.806   1.212
75084ION    CL-47509  36.091  30.693   1.460
75085ION    CL-47510  23.121  33.238   4.996
75086ION    CL-47511  17.279  17.697  12.881
75087ION    CL-47512   4.832   3.413   3.286
75088ION    CL-47513  44.392  23.542  14.210
75089ION    CL-47514   7.219  26.401  13.541
75090ION    CL-47515  28.430  11.618   3.094
75091ION    CL-47516  37.355   1.063   1.571
75092ION    CL-47517   4.354   0.096  14.848
75093ION    CL-47518  27.717  18.442  13.470
75094ION    CL-47519  44.603  10.699  13.446
75095ION    CL-47520  32.670   1.648   2.778
75096ION    CL-47521   4.711  13.262  11.277
75097ION    CL-47522  43.860  23.786  13.348
75098ION    CL-47523   9.181  16.265   2.888
75099ION    CL-47524  36.689  31.390  13.043
75100ION    CL-47525  17.428  33.445  12.787
75101ION    CL-47526   4.223  25.417   4.074
75102ION    CL-47527  11.969   1.204   3.834
75103ION    CL-47528  14.001  25.121   1.645
75104ION    CL-47529  41.239  11.198   0.352
75105ION    CL-47530  17.037  33.312   5.199
75106ION    CL-47531  26.389  33.035  12.405
75107ION    CL-47532  30.895   5.415   1.907
75108ION    CL-47533  22.137  17.018  14.857
75109ION    CL-47534  26.626  38.148  12.196
75110ION    CL-47535  34.846  32.459  12.937
75111ION    CL-47536  44.308  44.304  13.941
75112ION    CL-47537  11.508  32.804  14.771
75113ION    CL-47538  27.096  24.993  13.190
75114ION    CL-47539  41.788  24.090   2.372
75115ION    CL-47540  26.932   5.830   3.736
75116ION    CL-47541  26.697  38.106  14.553
75117ION    CL-47542   7.805   4.363   2.980
75118ION    CL-47543  20.189   6.293  11.937
75119ION    CL-47544   4.195  27.409   1.766
75120ION    CL-47545  42.214  38.798  11.916
75121ION    CL-47546  15.625   7.819  13.894
75122ION    CL-47547  24.513   8.385   3.239
75123ION    CL-47548  25.651   4.716   0.387
75124ION    CL-47549   3.265  35.040   5.236
75125ION    CL-47550  26.718  20.325  13.380
75126ION    CL-47551  37.352  26.189   2.297
75127ION    CL-47552  18.806  26.099   0.234
75128ION    CL-47553   3.703  40.014   2.298
75129ION    CL-47554  23.150  43.733  11.849
75130ION    CL-47555  41.807  42.170  12.471
75131ION    CL-47556   4.611  36.805  12.463
75132ION    CL-47557  35.741  27.072  11.595
75133ION    CL-47558  35.978  27.547   2.066
75134ION    CL-47559  33.938  32.279   2.177
75135ION    CL-47560  18.421  16.077  13.870
75136ION    CL-47561  11.302  24.038  10.890
75137ION    CL-47562  42.028  14.266  10.727
75138ION    CL-47563  27.605  16.454  13.539
75139ION    CL-47564  19.540  10.306  11.091
75140ION    CL-47565  23.850  23.588   0.959
75141ION    CL-47566  14.567  18.786  11.876
75142ION    CL-47567  44.271   2.723  11.380
75143ION    CL-47568   1.970  37.508  11.771
75144ION    CL-47569  43.384  37.398   2.693
75145ION    CL-47570  18.530   0.275  12.534
75146ION    CL-47571  27.842  38.493  12.349
75147ION    CL-47572  33.467  42.347  12.167
75148ION    CL-47573  31.845  21.162  13.447
75149ION    CL-47574   9.180   1.952   5.045
75150ION    CL-47575  21.160  25.455  11.251
75151ION    CL-47576  44.188  38.365  12.422
75152ION    CL-47577   3.777  34.031  14.972
75153ION    CL-47578  14.115  32.735  12.192
75154ION    CL-47579  38.559  42.104  12.122
75155ION    CL-47580   1.290  24.026   4.590
75156ION    CL-47581  23.848  38.535  13.805
75157ION    CL-47582  43.887  30.386   1.154
75158ION    CL-47583  42.118  33.840  13.101
75159ION    CL-47584   3.523   5.218   2.184
75160ION    CL-47585  13.051  43.024  12.505
75161ION    CL-47586  22.027  15.121  11.072
75162ION    CL-47587  10.888  19.456  11.870
75163ION    CL-47588  26.382  20.567  14.794
75164ION    CL-47589  31.125  43.488   4.955
75165ION    CL-47590  24.049  22.048  13.438
75166ION    CL-47591  21.332  14.357  13.895
75167ION    CL-47592  25.220  19.205  12.457
75168ION    CL-47593  15.653   1.882   2.110
75169ION    CL-47594  11.515  41.012   3.188
75170ION    CL-47595  42.635  26.177  12.066
75171ION    CL-47596  30.080   8.202  12.593
75172ION    CL-47597   4.779  44.674   1.255
75173ION    CL-47598  41.618  25.790   2.797
75174ION    CL-47599  16.077   8.528  11.363
75175ION    CL-47600   3.421  39.383   0.864
75176ION    CL-47601  30.635  22.266  10.758
75177ION    CL-47602   0.002  16.719   3.681
75178ION    CL-47603   2.551  38.275  12.140
75179ION    CL-47604  44.245  21.888   5.084
75180ION    CL-47605  42.132  32.923   0.742
75181ION    CL-47606  40.642   0.832   4.075
75182ION    CL-47607  42.819  44.027   2.735
75183ION    CL-47608  13.583  27.743  13.587
75184ION    CL-47609   5.224  34.248   1.163
75185ION    CL-47610  28.068  30.383   5.296
75186ION    CL-47611  11.971  26.492   2.753
75187ION    CL-47612  21.003  35.367   2.013
75188ION    CL-47613  34.393  23.967  10.286
75189ION    CL-47614  43.916  44.013  11.978
75190ION    CL-47615  29.839  43.876  12.786
75191ION    CL-47616  17.566  16.174  13.362
75192ION    CL-47617   9.425  42.933  11.140
75193ION    CL-47618  18.487  16.841  11.041
75194ION    CL-47619  36.031  29.728   1.204
75195ION    CL-47620  44.227   1.215  12.120
75196ION    CL-47621  12.733  17.809   3.656
75197ION    CL-47622  35.568   8.900   3.121
75198ION    CL-47623  15.866  24.711   2.502
75199ION    CL-47624   1.246  23.958   2.359
75200ION    CL-47625  36.532  34.300   2.414
75201ION    CL-47626   8.075  42.984   2.879
75202ION    CL-47627  44.808  14.304  14.188
75203ION    CL-47628  44.613  31.301   2.917
75204ION    CL-47629   1.053  20.047  13.773
75205ION    CL-47630   2.748  39.535  12.129
75206ION    CL-47631  18.462  29.763   3.183
75207ION    CL-47632  31.143  30.645  12.108
75208ION    CL-47633  11.443   1.111  14.278
75209ION    CL-47634  19.332  42.744  13.456
75210ION    CL-47635   3.496  24.958   1.134
75211ION    CL-47636  40.487  34.036  14.018
75212ION    CL-47637  32.617   3.309   0.690
75213ION    CL-47638  26.167  12.119  12.637
75214ION    CL-47639  11.406   1.942  13.283
75215ION    CL-47640  14.094   4.163   1.394
75216ION    CL-47641   9.632  21.475  11.104
75217ION    CL-47642  28.459  37.807  13.576
75218ION    CL-47643  39.670  33.881   4.826
75219ION    CL-47644  33.625   0.158  13.346
75220ION    CL-47645  17.235  40.494  14.356
75221ION    CL-47646  32.725  21.225  12.732
75222ION    CL-47647  25.119  25.373   3.221
75223ION    CL-47648  10.852  18.883   1.458
75224ION    CL-47649  11.899  24.344  12.633
75225ION    CL-47650   3.616  38.962  13.952
75226ION    CL-47651  25.586  25.932   2.323
75227ION    CL-47652   9.269  42.835   0.836
75228ION    CL-47653  21.781  29.884   1.319
75229ION    CL-47654  34.586  44.365   0.256
75230ION    CL-47655  33.487  23.071  11.934
75231ION    CL-47656  43.074  20.028  11.987
75232ION    CL-47657   2.373  40.260  12.455
75233ION    CL-47658  20.441  43.334   1.398
75234ION    CL-47659  32.653  28.599   1.964
75235ION    CL-47660  15.543  18.301   9.657
75236ION    CL-47661  27.832   0.828   5.077
75237ION    CL-47662  23.866  15.436  10.145
75238ION    CL-47663  43.535  39.634   1.963
75239ION    CL-47664   0.286   3.250  10.547
75240ION    CL-47665  29.241  31.863  12.659
75241ION    CL-47666  22.056  21.186  12.072
75242ION    CL-47667   0.081  39.128   4.262
75243ION    CL-47668  40.549   2.413   4.624
75244ION    CL-47669  38.886  27.058  12.936
75245ION    CL-47670   7.652   4.881   2.237
75246ION    CL-47671  26.283  19.268   1.783
75247ION    CL-47672  44.362  33.729  11.325
75248ION    CL-47673  36.459  38.412   2.011
75249ION    CL-47674   8.094  34.123   1.439
75250ION    CL-47675  14.187  22.505  10.390
75251ION    CL-47676  36.926  17.730  13.055
75252ION    CL-47677  38.442  28.607  10.426
75253ION    CL-47678  30.459   6.130   2.644
75254ION    CL-47679  27.092   8.746  11.533
75255ION    CL-47680   5.901   0.746   1.241
75256ION    CL-47681  13.401  15.115  12.375
75257ION    CL-47682  24.603   0.303   2.323
75258ION    CL-47683  36.325  14.266  14.250
75259ION    CL-47684  14.741  38.429  11.429
75260ION    CL-47685  15.008  30.362   1.970
75261ION    CL-47686  33.082  43.736  10.386
75262ION    CL-47687  30.473  38.598   3.752
75263ION    CL-47688   3.219  25.649   5.003
75264ION    CL-47689   7.510  26.288  12.557
75265ION    CL-47690  12.084  23.528   0.686
75266ION    CL-47691   1.757   4.149  10.765
75267ION    CL-47692  27.494  16.065   3.273
75268ION    CL-47693  15.408  24.306  11.152
75269ION    CL-47694   2.441  35.070   2.260
75270ION    CL-47695  34.586  35.542  14.841
75271ION    CL-47696  20.898  17.309   1.107
75272ION    CL-47697  20.107  28.264   0.874
75273ION    CL-47698  29.657  23.508  11.163
75274ION    CL-47699  29.612  29.873   3.428
75275ION    CL-47700  13.893   9.934   3.721
75276ION    CL-47701  34.476  19.758   1.565
75277ION    CL-47702  15.544   8.812  13.974
75278ION    CL-47703  42.810  29.062   4.878
75279ION    CL-47704  30.579  14.809   3.762
75280ION    CL-47705  10.711  37.329  12.884
75281ION    CL-47706  34.870   3.653   5.199
75282ION    CL-47707  41.960   5.386   1.942
75283ION    CL-47708  31.856  38.399  14.286
75284ION    CL-47709  39.156   7.274  12.326
75285ION    CL-47710   1.913  18.836   0.121
75286ION    CL-47711  40.467  20.597  14.460
75287ION    CL-47712  15.587   5.772   3.650
75288ION    CL-47713  14.580  20.542  10.985
75289ION    CL-47714  20.413  33.768  11.037
75290ION    CL-47715  36.854  28.626  14.933
75291ION    CL-47716   5.854  30.804   1.117
75292ION    CL-47717  16.139   2.775   1.373
75293ION    CL-47718  27.038  38.364  10.424
75294ION    CL-47719  37.691  23.747   4.302
75295ION    CL-47720   2.791  10.084   3.526
75296ION    CL-47721  20.185  37.614  11.564
75297ION    CL-47722   3.458  24.224   2.385
75298ION    CL-47723  32.990  23.564   1.872
75299ION    CL-47724  31.557  44.183   5.107
75300ION    CL-47725  38.453   9.628  14.039
75301ION    CL-47726  19.851   8.860   0.261
75302ION    CL-47727   7.088   5.205  10.427
75303ION    CL-47728  40.583   9.747   2.964
75304ION    CL-47729  18.379  10.744  12.470
75305ION    CL-47730  39.133  31.959  13.484
75306ION    CL-47731  15.269  22.042  14.540
75307ION    CL-47732  26.964  36.834   1.079
75308ION    CL-47733  44.370  33.842  14.217
75309ION    CL-47734   3.129  15.225  14.273
75310ION    CL-47735  27.605  33.663   3.846
75311ION    CL-47736   5.344   1.336   1.865
75312ION    CL-47737   9.053  13.725   0.670
75313ION    CL-47738  13.841  11.826  10.804
75314ION    CL-47739  27.517   2.694   1.915
75315ION    CL-47740  33.837   2.460   4.992
75316ION    CL-47741  19.752  21.220   3.274
75317ION    CL-47742  29.499   9.635   2.983
75318ION    CL-47743  20.065  38.066   2.911
75319ION    CL-47744  33.088   3.734  11.020
75320ION    CL-47745  24.438   6.723  13.915
75321ION    CL-47746   1.267  13.572   0.863
75322ION    CL-47747  12.713  10.845  14.491
75323ION    CL-47748  16.530  17.151  13.656
75324ION    CL-47749   0.031  31.264  14.891
75325ION    CL-47750  40.702  27.744   1.952
75326ION    CL-47751  38.775  12.330   1.715
75327ION    CL-47752  40.167  40.530   0.682
75328ION    CL-47753  27.517  33.767   2.855
75329ION    CL-47754  22.961  17.387   9.898
75330ION    CL-47755  28.462  12.615   1.306
75331ION    CL-47756   8.398   3.727  12.464
75332ION    CL-47757  44.833  42.928  10.777
75333ION    CL-47758  41.562   6.268   4.389
75334ION    CL-47759  17.373  29.628  11.595
75335ION    CL-47760   9.202  21.470  12.007
75336ION    CL-47761  26.030  24.139  12.886
75337ION    CL-47762   0.415  24.453  10.667
75338ION    CL-47763  34.132  40.910   2.751
75339ION    CL-47764  17.137  28.691   4.317
75340ION    CL-47765  24.794   5.909  13.713
75341ION    CL-47766   0.517  38.472  13.993
75342ION    CL-47767   7.263  37.683  12.454
75343ION    CL-47768  18.570  32.239  12.579
75344ION    CL-47769  12.648  16.287  13.186
75345ION    CL-47770  13.392   9.186   0.457
75346ION    CL-47771  37.003   6.062   2.691
75347ION    CL-47772  24.066  31.145  14.047
75348ION    CL-47773  14.213   8.388  12.920
75349ION    CL-47774  28.126  22.794   2.058
75350ION    CL-47775  17.047  23.939   4.131
75351ION    CL-47776  35.298   2.895   2.365
75352ION    CL-47777  37.495  24.715   0.299
75353ION    CL-47778  44.597  15.543  11.423
75354ION    CL-47779  29.021  21.236   3.271
75355ION    CL-47780   6.371  28.454  13.554
75356ION    CL-47781  27.567  25.022   1.555
75357ION    CL-47782  10.088  34.037  11.590
75358ION    CL-47783  17.270  38.282   3.255
75359ION    CL-47784  39.921  28.809   0.826
75360ION    CL-47785  14.471  25.979  13.620
75361ION    CL-47786  16.441  29.912  11.368
75362ION    CL-47787  42.285  24.207  10.728
75363ION    CL-47788   2.859  27.278   1.703
75364ION    CL-47789  43.140  28.682   1.915
75365ION    CL-47790  40.581  43.401   1.880
75366ION    CL-47791  29.898  20.955   3.662
75367ION    CL-47792   9.518  24.584   1.668
75368ION    CL-47793  15.330   7.079  14.325
75369ION    CL-47794  41.397   4.409   3.425
75370ION    CL-47795  40.620  14.133   1.676
75371ION    CL-47796  32.998  33.314   3.708
75372ION    CL-47797  40.085  19.381   1.100
75373ION    CL-47798  16.308   1.680   1.136
75374ION    CL-47799  15.128  21.044  13.932
75375ION    CL-47800  36.422  17.408   1.359
75376ION    CL-47801  28.263   2.760   3.597
75377ION    CL-47802  14.234  32.738   4.128
75378ION    CL-47803  37.287  28.092  11.566
75379ION    CL-47804  16.053  29.581  12.117
75380ION    CL-47805  41.714  13.091   0.644
75381ION    CL-47806  11.703  30.177   4.148
75382ION    CL-47807  17.508   9.592   3.524
75383ION    CL-47808   1.785   9.130   1.413
75384ION    CL-47809   3.500  30.939   2.626
75385ION    CL-47810  44.816  32.155  13.791
75386ION    CL-47811  29.451  13.906   3.403
75387ION    CL-47812  36.141  25.042   4.997
75388ION    CL-47813  30.213  32.096  10.810
75389ION    CL-47814  34.881  31.676   1.664
75390ION    CL-47815  17.371  41.254  12.833
75391ION    CL-47816  20.781   1.798  13.813
75392ION    CL-47817   2.217  35.667   1.009
75393ION    CL-47818  28.884  11.699   0.429
75394ION    CL-47819  41.781  11.644  14.607
75395ION    CL-47820   7.706  33.414  11.175
75396ION    CL-47821  16.791  17.826  14.903
75397ION    CL-47822  33.083   6.404   5.043
75398ION    CL-47823  40.382  42.388   4.024
75399ION    CL-47824   0.919  18.743  13.119
75400ION    CL-47825  38.222   7.490  12.043
75401ION    CL-47826   1.866  35.344  11.183
75402ION    CL-47827   9.884  20.865   0.453
75403ION    CL-47828  20.852  24.838  11.818
75404ION    CL-47829   8.829  22.890   1.376
75405ION    CL-47830  12.084  31.757   3.232
75406ION    CL-47831  27.682  29.075   4.091
75407ION    CL-47832   8.525  20.325   2.323
75408ION    CL-47833  22.423  31.863  11.569
75409ION    CL-47834   7.628   8.233   1.280
75410ION    CL-47835  13.493  13.667  10.908
75411ION    CL-47836   2.415  40.833   1.288
75412ION    CL-47837  31.686  34.249   0.509
75413ION    CL-47838  41.715  11.573  13.708
75414ION    CL-47839  26.354  10.582   5.232
75415ION    CL-47840   3.800  38.496  11.356
75416ION    CL-47841  13.070   0.259  10.997
75417ION    CL-47842   9.729  19.522   4.798
75418ION    CL-47843   0.554   1.472  11.700
75419ION    CL-47844   2.990  44.773  14.908
75420ION    CL-47845  32.191  16.566  10.481
75421ION    CL-47846  25.048  17.442  12.998
75422ION    CL-47847  36.490  31.444  14.390
75423ION    CL-47848  27.333  14.248  13.693
75424ION    CL-47849   7.688  40.281  10.606
75425ION    CL-47850  31.890  31.105   2.183
75426ION    CL-47851  16.445   8.411  13.809
75427ION    CL-47852  40.258   0.779   9.689
75428ION    CL-47853  28.766  19.242  10.729
75429ION    CL-47854  44.994  17.774   3.668
75430ION    CL-47855   0.865  31.321   4.594
75431ION    CL-47856  25.997   3.767   3.323
75432ION    CL-47857   8.148  22.607  14.814
75433ION    CL-47858  20.968  38.507   4.228
75434ION    CL-47859  42.277  26.312   3.981
75435ION    CL-47860  17.237   7.791  13.707
75436ION    CL-47861  26.991  18.081   4.173
75437ION    CL-47862  31.960  14.345   4.160
75438ION    CL-47863  24.712  16.750   2.518
75439ION    CL-47864  24.189  30.110  10.780
75440ION    CL-47865  36.577  22.562   0.249
75441ION    CL-47866  34.014  34.324   4.747
75442ION    CL-47867   6.702  15.594  11.966
75443ION    CL-47868  32.372  15.494  14.103
75444ION    CL-47869  43.842  24.466  12.615
75445ION    CL-47870  43.480   9.710  14.981
75446ION    CL-47871  26.143   5.153   1.850
75447ION    CL-47872  27.959  18.261   0.469
75448ION    CL-47873  27.051  43.555  14.133
75449ION    CL-47874  21.557  14.264  11.811
75450ION    CL-47875  34.575  18.058   0.881
75451ION    CL-47876  19.216  11.125  13.407
75452ION    CL-47877  32.240  27.564   4.613
75453ION    CL-47878  38.909  27.166   0.940
75454ION    CL-47879   9.474   6.243  11.058
75455ION    CL-47880  20.215   7.738  11.874
75456ION    CL-47881   0.942  12.784   1.385
75457ION    CL-47882  18.029  12.183  10.997
75458ION    CL-47883  20.436  21.211  11.951
75459ION    CL-47884  35.814  31.475   2.063
75460ION    CL-47885  32.158  33.233  11.124
75461ION    CL-47886   3.379  10.137  12.515
75462ION    CL-47887  44.955   0.201  12.954
75463ION    CL-47888  29.350  43.470   3.852
75464ION    CL-47889  35.662  10.568  11.983
75465ION    CL-47890   1.685  12.951   3.798
75466ION    CL-47891  14.163   3.424  14.518
75467ION    CL-47892  25.502  26.153   4.411
75468ION    CL-47893  35.874  10.257  14.408
75469ION    CL-47894  26.645  33.074  10.707
75470ION    CL-47895  15.018  16.285   4.947
75471ION    CL-47896  27.983  36.108  13.376
75472ION    CL-47897  15.663  15.163  12.014
75473ION    CL-47898  24.714   1.261   1.426
75474ION    CL-47899  18.645  34.820  10.852
75475ION    CL-47900  37.014  25.538   5.679
75476ION    CL-47901  29.351  44.021   2.762
75477ION    CL-47902  43.731  12.095  14.277
75478ION    CL-47903   8.460  34.878   5.675
75479ION    CL-47904  19.731  32.252   0.355
75480ION    CL-47905  32.091   2.448   2.621
75481ION    CL-47906  30.684  42.725  12.462
75482ION    CL-47907  17.163  41.290   2.558
75483ION    CL-47908  37.841  21.516  13.771
75484ION    CL-47909  15.659  26.146   3.790
75485ION    CL-47910  31.216   6.742   2.416
75486ION    CL-47911  19.787  25.794   0.907
75487ION    CL-47912   4.605  28.515   3.005
75488ION    CL-47913  27.732  35.832   0.530
75489ION    CL-47914  11.526  25.692  12.129
75490ION    CL-47915  37.773   6.958  14.357
75491ION    CL-47916   3.308  40.108  10.519
75492ION    CL-47917  25.312  24.471   0.805
75493ION    CL-47918  40.052  30.981   0.323
75494ION    CL-47919  20.803  17.523   1.915
75495ION    CL-47920  27.175  18.124  11.984
75496ION    CL-47921  15.171  30.736   1.037
75497ION    CL-47922  21.024  40.774  13.678
75498ION    CL-47923   9.347  21.247   1.655
75499ION    CL-47924  24.250  20.220  13.914
75500ION    CL-47925  25.739  22.287  11.584
75501ION    CL-47926   4.325  16.036  13.022
75502ION    CL-47927  13.748  43.597  13.944
75503ION    CL-47928  34.922  27.625   1.192
75504ION    CL-47929  23.425  22.346  14.038
75505ION    CL-47930  11.216  12.335   0.939
75506ION    CL-47931  24.541  32.428   0.396
75507ION    CL-47932  27.220  35.537  14.723
75508ION    CL-47933  28.471  11.982  14.235
75509ION    CL-47934   4.589  14.217  12.571
75510ION    CL-47935  12.108  17.273  14.852
75511ION    CL-47936  40.770   4.294   4.109
75512ION    CL-47937  40.825   7.975  13.498
75513ION    CL-47938  21.541  43.882  11.708
75514ION    CL-47939   5.144  38.625   3.186
75515ION    CL-47940   9.160  30.663   3.049
75516ION    CL-47941  10.960  34.647   3.733
75517ION    CL-47942  10.160   0.973  14.173
75518ION    CL-47943  26.752  13.957  12.528
75519ION    CL-47944  26.015  22.451  13.612
75520ION    CL-47945   4.552  14.349  10.748
75521ION    CL-47946  30.236  29.592  12.570
75522ION    CL-47947  41.361  23.857  13.526
75523ION    CL-47948  12.336  31.933  14.013
75524ION    CL-47949  33.696  32.817   3.143
75525ION    CL-47950   3.600  44.095  13.237
75526ION    CL-47951   6.921  36.532  12.958
75527ION    CL-47952   0.138  41.687   0.015
75528ION    CL-47953  42.504   1.480  10.769
75529ION    CL-47954  29.585  36.834  12.706
75530ION    CL-47955  23.411  29.658   3.932
75531ION    CL-47956  10.619   2.796  12.381
75532ION    CL-47957   8.095  19.960  11.893
75533ION    CL-47958  19.074  38.640  14.338
75534ION    CL-47959  38.496  39.922  11.516
75535ION    CL-47960  34.366   5.406  14.959
75536ION    CL-47961  10.790  31.815   4.378
75537ION    CL-47962  28.238  43.996   2.982
75538ION    CL-47963  16.472  40.324  12.874
75539ION    CL-47964  23.222  26.647   5.295
75540ION    CL-47965  36.843  32.620   1.391
75541ION    CL-47966  13.957   6.010  14.606
75542ION    CL-47967  26.682  21.220   4.173
75543ION    CL-47968   4.931  37.474   5.118
75544ION    CL-47969  25.767  29.197   0.206
75545ION    CL-47970  19.133  25.596   3.747
75546ION    CL-47971  19.603   3.998   3.774
75547ION    CL-47972  12.253  38.872  12.967
75548ION    CL-47973  28.529  33.056   1.750
75549ION    CL-47974  40.525  27.822   1.046
75550ION    CL-47975  31.939   4.253  12.762
75551ION    CL-47976  34.155  16.130  12.947
75552ION    CL-47977  31.858  14.882  11.799
75553ION    CL-47978   4.696   3.009   1.798
75554ION    CL-47979  41.679  43.198   0.857
75555ION    CL-47980  29.079  24.071  12.981
75556ION    CL-47981  15.676  44.457  11.237
75557ION    CL-47982  31.667  30.846   0.854
75558ION    CL-47983  25.405  10.715   1.633
75559ION    CL-47984  18.331  32.475   2.654
75560ION    CL-47985   9.394  12.419   3.876
75561ION    CL-47986  17.118  19.784  12.043
75562ION    CL-47987  14.910  35.082  13.322
75563ION    CL-47988   7.021  40.874  11.196
75564ION    CL-47989  19.824  28.434  11.074
75565ION    CL-47990  16.016   2.023  14.021
75566ION    CL-47991  18.796  41.530  12.395
75567ION    CL-47992  31.137  44.987  11.075
75568ION    CL-47993  44.828   2.841   4.041
75569ION    CL-47994  12.241  23.745   4.428
75570ION    CL-47995   8.741  29.852   2.162
75571ION    CL-47996  20.239  25.551  14.069
75572ION    CL-47997  41.003  18.961   3.417
75573ION    CL-47998  13.334  34.165  10.222
75574ION    CL-47999  29.968   6.623  12.563
75575ION    CL-48000   3.742  41.799   1.848
75576ION    CL-48001  29.717   3.079  13.113
75577ION    CL-48002   3.694  18.110   4.495
75578ION    CL-48003  23.834  11.986   2.360
75579ION    CL-48004  32.456  20.733   2.966
75580ION    CL-48005   5.026  39.515   0.307
75581ION    CL-48006   4.363   0.277   4.676
75582ION    CL-48007   1.252  13.897  11.387
75583ION    CL-48008   0.299  18.700  11.611
75584ION    CL-48009  35.491  10.743   2.614
75585ION    CL-48010  21.082  30.357   3.990
75586ION    CL-48011  28.429  31.103  14.534
75587ION    CL-48012  19.591  17.429  11.226
75588ION    CL-48013  14.823  18.329  12.728
75589ION    CL-48014   5.160   6.701   2.861
75590ION    CL-48015  11.931  14.760  13.491
75591ION    CL-48016  19.676  17.028  14.516
75592ION    CL-48017  22.389  13.925  12.997
75593ION    CL-48018  40.325  10.685  14.332
75594ION    CL-48019   5.900   7.573   1.089
75595ION    CL-48020  28.004   6.809   2.610
75596ION    CL-48021   4.553  17.799  11.505
75597ION    CL-48022  32.801  24.468  13.312
75598ION    CL-48023  12.244  13.100  11.423
75599ION    CL-48024  43.059  19.173  13.324
75600ION    CL-48025  33.164  26.692   3.127
75601ION    CL-48026   8.565  12.312   3.254
75602ION    CL-48027  42.805  22.999  11.645
75603ION    CL-48028  21.796  22.129   2.355
75604ION    CL-48029  16.692  22.114   2.752
75605ION    CL-48030  17.099  31.528  12.905
75606ION    CL-48031  42.256   1.806  14.441
75607ION    CL-48032  33.440   9.843  11.688
75608ION    CL-48033  18.695  31.804  11.511
75609ION    CL-48034   1.695  14.688  12.612
75610ION    CL-48035  38.408  41.374  11.498
75611ION    CL-48036   5.722  21.964   1.931
75612ION    CL-48037  44.803  31.243  10.820
75613ION    CL-48038  23.374  15.758  10.681
75614ION    CL-48039  24.721  44.879  14.513
75615ION    CL-48040   4.951  23.822  12.949
75616ION    CL-48041  33.197  21.671  11.972
75617ION    CL-48042  30.781  11.609   0.353
75618ION    CL-48043   8.350   8.633   1.846
75619ION    CL-48044  37.834  42.609  14.989
75620ION    CL-48045  12.281  39.170  14.586
75621ION    CL-48046  32.315   0.734   0.083
75622ION    CL-48047  38.738  37.520  12.364
75623ION    CL-48048   7.168  25.475  11.620
75624ION    CL-48049   2.296   7.442  11.200
75625ION    CL-48050  31.045  43.814   1.016
75626ION    CL-48051  17.583  38.675  10.454
75627ION    CL-48052  18.074   5.130  13.389
75628ION    CL-48053  38.965  25.676  11.170
75629ION    CL-48054   9.450  42.801   5.445
75630ION    CL-48055  25.705  36.431  13.400
75631ION    CL-48056  36.459  26.394  11.748
75632ION    CL-48057  41.529  32.799  12.527
75633ION    CL-48058  18.280  43.919   2.561
75634ION    CL-48059   7.933  40.316   0.743
75635ION    CL-48060  15.994  22.217   3.763
75636ION    CL-48061   2.165  26.555  14.861
75637ION    CL-48062  30.855  12.181  13.544
75638ION    CL-48063  17.389  32.722   4.726
75639ION    CL-48064   9.239  40.254  13.504
75640ION    CL-48065  35.995  11.819   4.930
75641ION    CL-48066  20.523  33.069   1.913
75642ION    CL-48067  42.823  10.488   1.943
75643ION    CL-48068  44.467  44.577   0.405
75644ION    CL-48069  16.718  29.551  14.999
75645ION    CL-48070   0.609  23.796  14.777
75646ION    CL-48071  11.134  35.559   1.372
75647ION    CL-48072  21.309  31.193  11.903
75648ION    CL-48073  12.067   1.691   3.082
75649ION    CL-48074   9.870   8.853  13.064
75650ION    CL-48075  32.896  18.440  11.414
75651ION    CL-48076   5.921  17.713  14.133
75652ION    CL-48077  36.106  21.636   0.942
75653ION    CL-48078  30.788  15.572  12.590
75654ION    CL-48079  23.242  40.128   1.153
75655ION    CL-48080  41.913  37.305   4.942
75656ION    CL-48081  22.943  41.882   4.845
75657ION    CL-48082   6.803  17.330  13.859
75658ION    CL-48083  13.408   9.952   2.786
75659ION    CL-48084  31.984  35.822  12.697
75660ION    CL-48085   7.147  23.738   4.350
75661ION    CL-48086  44.990  28.014  14.799
75662ION    CL-48087  11.809  18.953  13.734
75663ION    CL-48088  21.364  17.293  12.468
75664ION    CL-48089  39.511  12.435   1.047
75665ION    CL-48090  27.926  23.194   0.122
75666ION    CL-48091  34.654  13.139   2.893
75667ION    CL-48092  21.766  14.530  14.804
75668ION    CL-48093  17.299  42.572   2.571
75669ION    CL-48094  13.586  44.453  12.375
75670ION    CL-48095  12.210  37.184  11.184
75671ION    CL-48096   9.683  33.208   4.991
75672ION    CL-48097  17.699   0.125  13.853
75673ION    CL-48098  14.297  34.471   4.601
75674ION    CL-48099  24.428  35.875  11.682
75675ION    CL-48100  15.324  26.054   2.260
75676ION    CL-48101   6.659  41.449   0.694
75677ION    CL-48102  16.121   0.676   2.232
75678ION    CL-48103  11.419  22.404   1.460
75679ION    CL-48104   5.415  17.347   2.956
75680ION    CL-48105  14.681  24.591  11.626
75681ION    CL-48106  31.154  42.004  11.598
75682ION    CL-48107   9.316  29.058   0.489
75683ION    CL-48108  39.907  24.633  13.897
75684ION    CL-48109   6.650   2.708   3.020
75685ION    CL-48110  39.684  39.700  12.327
75686ION    CL-48111   6.266  16.986   4.202
75687ION    CL-48112  21.521  25.244   1.451
75688ION    CL-48113  33.903   1.927  10.816
75689ION    CL-48114  30.032  19.416   3.897
75690ION    CL-48115  32.172  35.365   0.720
75691ION    CL-48116  17.354   7.292  14.565
75692ION    CL-48117   4.859  21.972   2.115
75693ION    CL-48118  11.448  42.354  13.948
75694ION    CL-48119  39.036  30.490   0.603
75695ION    CL-48120   6.109  44.299   1.238
75696ION    CL-48121  33.405  12.856  13.114
75697ION    CL-48122  19.291  24.084  13.273
75698ION    CL-48123  43.721  29.836  10.943
75699ION    CL-48124  21.012  17.088  14.628
75700ION    CL-48125   0.315   8.433  12.025
75701ION    CL-48126   0.725  42.766  11.214
75702ION    CL-48127   9.747   8.651   0.029
75703ION    CL-48128  27.907  39.448  13.065
75704ION    CL-48129   8.250  11.083  11.956
75705ION    CL-48130  25.581  16.993  14.754
75706ION    CL-48131   9.754  30.388  11.592
75707ION    CL-48132  21.075  15.472   3.785
75708ION    CL-48133   4.736  29.138  12.534
75709ION    CL-48134  17.254   6.841   3.717
75710ION    CL-48135  37.586  34.374   5.054
75711ION    CL-48136   2.367  43.458  14.289
75712ION    CL-48137   8.588  31.416  11.911
75713ION    CL-48138  44.425  13.161  11.399
75714ION    CL-48139  29.015  32.588  11.219
75715ION    CL-48140  28.839  42.673  13.105
75716ION    CL-48141   1.074  18.981  14.078
75717ION    CL-48142  34.452   2.085   4.774
75718ION    CL-48143   4.755   1.200  11.741
75719ION    CL-48144   6.951  31.635   2.854
75720ION    CL-48145  33.470  27.349   4.906
75721ION    CL-48146  30.835  37.388   1.817
75722ION    CL-48147  20.102  10.920  12.489
75723ION    CL-48148   6.448  33.460   5.383
75724ION    CL-48149  10.230  25.422  13.803
75725ION    CL-48150  35.439  21.733  13.220
75726ION    CL-48151  24.474  33.086  14.646
75727ION    CL-48152  30.286  36.553   1.827
75728ION    CL-48153  14.770  43.463  10.579
75729ION    CL-48154  17.537  34.511  14.420
75730ION    CL-48155  13.133  13.274  12.417
75731ION    CL-48156  41.733  25.372  11.437
75732ION    CL-48157   1.991   0.816  14.986
75733ION    CL-48158  24.636   6.693   3.350
75734ION    CL-48159  27.497  24.990   2.463
75735ION    CL-48160  33.927   1.768   0.800
75736ION    CL-48161  26.968  33.249  14.819
75737ION    CL-48162   1.490  37.892  12.441
75738ION    CL-48163  22.775  19.493   4.436
75739ION    CL-48164   2.493  34.539  11.074
75740ION    CL-48165  43.439  21.413  14.892
75741ION    CL-48166  16.812  39.970  12.122
75742ION    CL-48167  24.478  25.923  11.611
75743ION    CL-48168  36.771  24.493   9.869
75744ION    CL-48169  25.609   6.473  10.729
75745ION    CL-48170  28.770  37.415   3.064
75746ION    CL-48171  29.603   0.749   3.677
75747ION    CL-48172  14.252  12.593  11.988
75748ION    CL-48173   3.983  16.102   3.347
75749ION    CL-48174  42.345  35.594   3.398
75750ION    CL-48175  37.903  11.525  11.140
75751ION    CL-48176  28.680   4.253   2.769
75752ION    CL-48177   3.242   7.842   2.756
75753ION    CL-48178  44.604  41.057   2.614
75754ION    CL-48179  29.944  42.366  14.361
75755ION    CL-48180   7.490  14.857   3.941
75756ION    CL-48181  44.957  21.041  14.019
75757ION    CL-48182   2.296  33.323  10.685
75758ION    CL-48183  25.300  44.320  12.119
75759ION    CL-48184   2.966  33.332   1.807
75760ION    CL-48185  10.320   8.188   3.742
75761ION    CL-48186   5.661  10.850  14.882
75762ION    CL-48187  25.166  22.446   0.443
75763ION    CL-48188  16.762  38.238   2.395
75764ION    CL-48189   8.477  36.445  12.781
75765ION    CL-48190  27.534  24.480  12.452
75766ION    CL-48191   3.926  22.127   3.832
75767ION    CL-48192  35.187   8.397  10.617
75768ION    CL-48193  26.586   0.184  11.561
75769ION    CL-48194  33.220  11.574  14.903
75770ION    CL-48195  14.949  32.552   2.257
75771ION    CL-48196  33.244  20.117   2.772
75772ION    CL-48197  28.836  15.310  14.890
75773ION    CL-48198   6.437   6.402   3.370
75774ION    CL-48199  18.416  17.846  11.306
75775ION    CL-48200  41.938  40.211   1.440
75776ION    CL-48201  17.351  31.115   1.185
75777ION    CL-48202  38.894  34.061   2.319
75778ION    CL-48203   5.598   4.843   0.756
75779ION    CL-48204  31.999  10.056   2.956
75780ION    CL-48205  18.747   3.751  12.568
75781ION    CL-48206  10.114   7.755   4.881
75782ION    CL-48207   1.526  16.558   3.824
75783ION    CL-48208  20.177   2.471   5.149
75784ION    CL-48209  15.493  40.340  11.166
75785ION    CL-48210  42.512   2.955   0.457
75786ION    CL-48211  31.908  33.349   1.615
75787ION    CL-48212  29.993  44.988  13.941
75788ION    CL-48213  42.327   9.729   2.436
75789ION    CL-48214  37.683  41.625  12.076
75790ION    CL-48215  39.630   2.020   1.523
75791ION    CL-48216  28.438  27.585   1.512
75792ION    CL-48217  16.717  44.552   9.501
75793ION    CL-48218   3.758  44.830  11.384
75794ION    CL-48219  32.855  38.516   0.739
75795ION    CL-48220  11.695  18.198  12.906
75796ION    CL-48221  34.371  23.487   3.734
75797ION    CL-48222  16.737  16.276  12.796
75798ION    CL-48223  32.101  10.203   1.195
75799ION    CL-48224  34.945  21.577  12.196
75800ION    CL-48225  42.380  18.347  13.981
75801ION    CL-48226  14.478   5.115   4.152
75802ION    CL-48227   7.392  23.257   2.692
75803ION    CL-48228  37.813  17.073   4.231
75804ION    CL-48229   9.924   7.742   0.407
75805ION    CL-48230  20.721  32.971  12.337
75806ION    CL-48231  38.863  34.377   3.743
75807ION    CL-48232  15.505  24.571  14.677
75808ION    CL-48233   1.947   2.264  14.902
75809ION    CL-48234  26.263  18.086  10.420
75810ION    CL-48235  15.503  10.198   3.678
75811ION    CL-48236  16.456  27.591   4.981
75812ION    CL-48237  36.782   6.896  12.197
75813ION    CL-48238   5.807  34.864   4.333
75814ION    CL-48239  19.963   0.832   2.201
75815ION    CL-48240  36.860  26.961   4.014
75816ION    CL-48241   9.842  15.241   4.572
75817ION    CL-48242  16.880  22.966   1.377
75818ION    CL-48243   9.481  22.695  10.791
75819ION    CL-48244  15.855   1.269   5.411
75820ION    CL-48245  30.492  32.048  13.483
75821ION    CL-48246  19.732  38.830  12.188
75822ION    CL-48247   4.585  13.516   5.266
75823ION    CL-48248  15.815  16.258   2.550
75824ION    CL-48249  22.847  40.970  11.565
75825ION    CL-48250   8.532  34.932   2.103
75826ION    CL-48251  23.227  44.809  11.495
75827ION    CL-48252  15.744   2.205  11.867
75828ION    CL-48253  21.300   7.454  13.592
75829ION    CL-48254  39.372  20.216  11.848
75830ION    CL-48255  30.587  17.637  12.347
75831ION    CL-48256  21.459  28.316   0.351
75832ION    CL-48257  28.794   5.432   0.797
75833ION    CL-48258  22.887  22.896  10.953
75834ION    CL-48259  41.283  17.732  11.802
75835ION    CL-48260  31.328  42.825   3.766
75836ION    CL-48261  28.545  16.325   4.191
75837ION    CL-48262  34.519  35.187   1.236
75838ION    CL-48263  39.277  41.220   4.923
75839ION    CL-48264  25.018  42.517   0.955
75840ION    CL-48265  30.419   6.744   1.776
75841ION    CL-48266   4.516  31.768   1.782
75842ION    CL-48267  12.046  24.903   0.310
75843ION    CL-48268   4.455  36.248  11.579
75844ION    CL-48269  30.744  30.927  14.125
75845ION    CL-48270  40.660  27.498   0.197
75846ION    CL-48271  20.702  15.312   0.061
75847ION    CL-48272  10.163  13.325  12.359
75848ION    CL-48273  20.740  20.249   1.507
75849ION    CL-48274  21.503  12.343  12.549
75850ION    CL-48275  38.421  14.612   3.351
75851ION    CL-48276  19.599  32.232  11.511
75852ION    CL-48277  20.774   1.235   1.623
75853ION    CL-48278  11.637  18.512  14.615
75854ION    CL-48279  17.724  12.042   2.883
75855ION    CL-48280  11.916  24.806  10.711
75856ION    CL-48281  28.314  30.471   4.330
75857ION    CL-48282   1.017  25.198  13.028
75858ION    CL-48283   9.998  18.331  13.426
75859ION    CL-48284  12.153  32.624   2.257
75860ION    CL-48285  43.545  44.263  10.563
75861ION    CL-48286  35.785  18.442  10.666
75862ION    CL-48287  33.274  22.272   2.270
75863ION    CL-48288  23.081   9.672  12.606
75864ION    CL-48289  41.582  29.144   3.720
75865ION    CL-48290  41.958  36.860   2.211
75866ION    CL-48291  41.728  44.410  10.669
75867ION    CL-48292  23.032  14.767  10.679
75868ION    CL-48293  27.063  19.023  12.550
75869ION    CL-48294  17.517  32.173   3.151
75870ION    CL-48295  17.028   1.703  14.946
75871ION    CL-48296   3.740  16.962   0.233
75872ION    CL-48297  35.853   5.319   4.168
75873ION    CL-48298  37.904  32.974  14.454
75874ION    CL-48299  20.136  19.753   0.085
75875ION    CL-48300  23.670  32.871   3.763
75876ION    CL-48301  31.818  39.586  13.412
75877ION    CL-48302  10.199   0.298   1.977
75878ION    CL-48303  41.061  35.947  13.913
75879ION    CL-48304  30.950  16.709   0.350
75880ION    CL-48305  39.527  30.952   3.610
75881ION    CL-48306  11.127  40.636   3.804
75882ION    CL-48307  44.509  18.999   3.386
75883ION    CL-48308   6.107  20.408   5.049
75884ION    CL-48309  16.602  11.101  11.968
75885ION    CL-48310  44.205  25.332   2.013
75886ION    CL-48311  34.144  26.620   0.571
75887ION    CL-48312   7.336  22.980  14.880
75888ION    CL-48313  35.144  36.783  14.513
75889ION    CL-48314  32.606  22.204  13.527
75890ION    CL-48315  27.712  42.805  14.104
75891ION    CL-48316  43.360  43.588   1.210
75892ION    CL-48317   9.813  39.168  14.019
75893ION    CL-48318  26.544  39.122  11.832
75894ION    CL-48319  44.367   3.015   2.899
75895ION    CL-48320  11.742  38.395  14.916
75896ION    CL-48321  21.609  32.127  10.482
75897ION    CL-48322  44.297   7.266   0.425
75898ION    CL-48323  27.511  34.827  13.462
75899ION    CL-48324  39.176  17.942  14.620
75900ION    CL-48325  12.076  36.634  10.359
75901ION    CL-48326  30.518   2.867   4.796
75902ION    CL-48327  33.382  23.779  12.633
75903ION    CL-48328   7.717  35.247   2.263
75904ION    CL-48329  44.730  29.869  12.724
75905ION    CL-48330   4.307  23.010  13.429
75906ION    CL-48331  32.844  38.936   2.114
75907ION    CL-48332  38.737  12.828   5.137
75908ION    CL-48333  32.466  32.469   3.646
75909ION    CL-48334  13.866  26.138  12.987
75910ION    CL-48335  26.955  44.436  14.597
75911ION    CL-48336   2.658  22.571   0.796
75912ION    CL-48337   4.027  40.850   0.277
75913ION    CL-48338  19.184  29.548  13.468
75914ION    CL-48339  12.162  35.864  10.120
75915ION    CL-48340  42.600  12.729   4.110
75916ION    CL-48341  40.419  31.800   9.868
75917ION    CL-48342   9.798   9.343   1.271
75918ION    CL-48343  26.644  36.232   4.294
75919ION    CL-48344   6.312  14.743  11.531
75920ION    CL-48345  40.254  43.302   2.829
75921ION    CL-48346  11.846  34.862   2.290
75922ION    CL-48347   6.042   2.920  14.847
75923ION    CL-48348  28.014   2.986   0.064
75924ION    CL-48349   7.224  25.370   4.909
75925ION    CL-48350  18.443   3.573   1.987
75926ION    CL-48351  14.526  38.073   2.742
75927ION    CL-48352  17.263   5.055   2.064
75928ION    CL-48353  12.403  35.619   3.383
75929ION    CL-48354   6.876  20.183  11.116
75930ION    CL-48355   8.887  30.716   3.907
75931ION    CL-48356  14.302   1.756   2.970
75932ION    CL-48357   2.515  30.118   4.624
75933ION    CL-48358   9.527  21.998   4.196
75934ION    CL-48359  27.060  15.092  11.573
75935ION    CL-48360   7.317  16.776  14.916
75936ION    CL-48361  39.914  27.405  13.503
75937ION    CL-48362  37.630  34.134   4.084
75938ION    CL-48363   1.005  25.789   2.189
75939ION    CL-48364  44.779  11.674  13.311
75940ION    CL-48365  14.577  15.974   2.899
75941ION    CL-48366  11.548  12.289  12.162
75942ION    CL-48367   4.287   4.604  12.102
75943ION    CL-48368  36.071  36.649  12.350
75944ION    CL-48369  24.726   9.930   1.619
75945ION    CL-48370  31.940  42.804   0.542
75946ION    CL-48371   2.827  44.285   4.166
75947ION    CL-48372  31.737  37.042   2.138
75948ION    CL-48373  15.349  16.597   1.720
75949ION    CL-48374  40.072  39.399  11.030
75950ION    CL-48375   5.111  21.373  10.320
75951ION    CL-48376  40.329   7.874   1.654
75952ION    CL-48377  24.499  13.207   2.238
75953ION    CL-48378  27.623  37.432   0.995
75954ION    CL-48379  16.328  25.222   0.468
75955ION    CL-48380  30.939  37.908   2.665
75956ION    CL-48381   6.969  43.491   4.113
75957ION    CL-48382  37.980  43.074   9.809
75958ION    CL-48383  21.757   1.025  14.098
75959ION    CL-48384  28.379  43.159  12.304
75960ION    CL-48385  38.539   4.259   2.480
75961ION    CL-48386  10.661  35.255   0.069
75962ION    CL-48387  26.088   9.935   4.518
75963ION    CL-48388  28.829  29.121  14.438
75964ION    CL-48389  33.133   7.225   0.270
75965ION    CL-48390  20.944  43.932   1.859
75966ION    CL-48391  32.064  17.501   2.904
75967ION    CL-48392  32.233  20.429  11.397
75968ION    CL-48393  31.194   2.439   2.508
75969ION    CL-48394   6.778  42.248  11.490
75970ION    CL-48395  25.611  33.594  12.118
75971ION    CL-48396  18.115  44.279  10.615
75972ION    CL-48397   8.765  13.134  11.783
75973ION    CL-48398  15.786  41.094   0.809
75974ION    CL-48399  43.383  38.696   1.649
75975ION    CL-48400  13.840  38.011   0.510
75976ION    CL-48401   1.506  31.387  10.275
75977ION    CL-48402  33.741  21.026  12.928
75978ION    CL-48403  20.314   1.312   3.367
75979ION    CL-48404  43.129  28.505   4.111
75980ION    CL-48405  21.649  23.608  13.686
75981ION    CL-48406  26.425   8.915  14.703
75982ION    CL-48407  14.784  12.332   2.086
75983ION    CL-48408  19.088   6.526  13.827
75984ION    CL-48409  37.451  39.766  13.956
75985ION    CL-48410   3.107  42.608   1.928
75986ION    CL-48411  24.348  19.359  12.802
75987ION    CL-48412   5.334  35.006   1.829
75988ION    CL-48413  21.613  23.191  10.442
75989ION    CL-48414   8.466  22.632  12.781
75990ION    CL-48415  15.856  39.951  13.870
75991ION    CL-48416  15.615  35.528   0.962
75992ION    CL-48417  23.130  14.198   0.470
75993ION    CL-48418  11.730   3.562   5.028
75994ION    CL-48419  41.558  23.030  12.987
75995ION    CL-48420   3.610  31.723   1.798
75996ION    CL-48421  19.698  29.865   0.479
75997ION    CL-48422  15.775  17.713   3.070
75998ION    CL-48423  25.038  44.937  11.377
75999ION    CL-48424  12.951  21.434  11.418
76000ION    CL-48425  13.346   5.467  11.394
76001ION    CL-48426  35.396  26.216  11.211
76002ION    CL-48427  18.156  14.890  14.259
76003ION    CL-48428  23.252  12.509  13.602
76004ION    CL-48429  33.965  18.532  12.718
76005ION    CL-48430  11.597  24.684  11.742
76006ION    CL-48431  29.976  23.317  14.824
76007ION    CL-48432  35.617  13.027  11.553
76008ION    CL-48433  40.183   0.497   3.253
76009ION    CL-48434  25.612  30.174   0.354
76010ION    CL-48435  35.850   0.623  12.808
76011ION    CL-48436   8.968  24.214   2.666
76012ION    CL-48437  35.478  15.165   2.595
76013ION    CL-48438  11.658  25.191  13.636
76014ION    CL-48439  23.359   0.110   2.699
76015ION    CL-48440   4.142  36.446   2.333
76016ION    CL-48441  19.575  30.419   4.400
76017ION    CL-48442  20.796   8.483  10.402
76018ION    CL-48443  13.868  32.628   2.898
76019ION    CL-48444  14.944   8.126   3.105
76020ION    CL-48445  38.878  37.403  13.349
76021ION    CL-48446  41.403  28.618   0.415
76022ION    CL-48447   8.798  22.530  13.719
76023ION    CL-48448  19.996  33.510  11.908
76024ION    CL-48449  31.444   7.442   0.327
76025ION    CL-48450  20.779   9.893   3.713
76026ION    CL-48451  23.304  42.342  13.246
76027ION    CL-48452   2.556   4.279   4.134
76028ION    CL-48453  31.927  22.982   2.201
76029ION    CL-48454  20.546  30.801   4.771
76030ION    CL-48455  11.388  23.733  11.971
76031ION    CL-48456   8.591  12.890  14.838
76032ION    CL-48457  41.039   9.147  10.776
76033ION    CL-48458  29.891  30.451   0.899
76034ION    CL-48459   2.831  26.078   4.474
76035ION    CL-48460   4.764  19.289  14.788
76036ION    CL-48461  13.213  17.202  13.386
76037ION    CL-48462  38.941  43.038   4.663
76038ION    CL-48463  26.199   7.334  10.731
76039ION    CL-48464  16.644  14.178   1.776
76040ION    CL-48465  42.783  31.235  14.957
76041ION    CL-48466  43.439  44.535  13.476
76042ION    CL-48467  12.559  42.447   2.124
76043ION    CL-48468  26.334   6.073   1.578
76044ION    CL-48469  19.337  23.901  11.470
76045ION    CL-48470  27.701  31.453  12.892
76046ION    CL-48471  29.965  43.317  11.937
76047ION    CL-48472  19.300   3.789   1.776
76048ION    CL-48473  27.184  43.021  14.968
76049ION    CL-48474  41.463   7.179   2.699
76050ION    CL-48475  35.972  12.365   0.901
76051ION    CL-48476  36.258  25.959   3.253
76052ION    CL-48477  13.113  32.982   1.947
76053ION    CL-48478  22.793  17.250  13.263
76054ION    CL-48479  38.402   4.785   0.995
76055ION    CL-48480  42.976  44.112   4.718
76056ION    CL-48481  15.020  30.778  10.911
76057ION    CL-48482  27.020  38.257   3.633
76058ION    CL-48483  28.178  32.855   3.706
76059ION    CL-48484  28.883   4.227   0.677
76060ION    CL-48485  32.461  28.613  11.178
76061ION    CL-48486  36.959  41.880   3.755
76062ION    CL-48487  43.730  27.404  14.013
76063ION    CL-48488  30.345  30.434  11.543
76064ION    CL-48489  29.549  36.442  11.888
76065ION    CL-48490  19.123   3.145  11.867
76066ION    CL-48491  23.496  16.613   0.534
76067ION    CL-48492  10.774  31.056  10.825
76068ION    CL-48493  30.061  24.508   0.789
76069ION    CL-48494   7.226   3.420   2.332
76070ION    CL-48495  10.298  13.041   2.653
76071ION    CL-48496   0.188  15.876   4.260
76072ION    CL-48497   2.430  43.857  13.021
76073ION    CL-48498  19.598  14.729   3.258
76074ION    CL-48499  28.454   2.560  11.918
76075ION    CL-48500  15.287  26.187   0.978
76076ION    CL-48501   3.895  25.589   0.317
76077ION    CL-48502  33.016  27.223  10.502
76078ION    CL-48503  32.335   2.812  11.843
76079ION    CL-48504  15.017  27.110  12.507
76080ION    CL-48505   6.652  22.401  13.458
76081ION    CL-48506  26.613  43.766  11.221
76082ION    CL-48507  35.940   7.855  12.298
76083ION    CL-48508  34.372  44.518   2.254
76084ION    CL-48509  10.595  19.387   2.364
76085ION    CL-48510   0.739   4.439  12.213
76086ION    CL-48511   5.297  10.999  10.926
76087ION    CL-48512  33.613  40.677   4.154
76088ION    CL-48513  27.528  34.811   3.064
76089ION    CL-48514  30.995  38.486   1.388
76090ION    CL-48515  18.994   5.520  13.745
76091ION    CL-48516  37.857  36.447   2.716
76092ION    CL-48517  37.024   2.486   3.997
76093ION    CL-48518  18.473  36.119   4.178
76094ION    CL-48519  28.169  41.915   1.140
76095ION    CL-48520   9.980  19.341  10.077
76096ION    CL-48521   2.441  25.480  10.294
76097ION    CL-48522  41.173  26.691   2.650
76098ION    CL-48523  44.416  19.772   4.921
76099ION    CL-48524  28.037  17.667  11.652
76100ION    CL-48525   1.021   5.724   1.493
76101ION    CL-48526  28.252  10.634   1.365
76102ION    CL-48527  26.366  33.146   3.541
76103ION    CL-48528  13.228  42.458  14.485
76104ION    CL-48529  33.673  17.192   3.476
76105ION    CL-48530  20.581  18.498   1.869
76106ION    CL-48531  32.093  15.730   3.857
76107ION    CL-48532  27.608   1.618   4.030
76108ION    CL-48533  21.735  13.073  10.656
76109ION    CL-48534  33.162   8.482  13.603
76110ION    CL-48535   8.202  38.064   3.760
76111ION    CL-48536  33.100  12.674   0.022
76112ION    CL-48537   4.445  35.680   0.578
76113ION    CL-48538  18.419   5.410  14.556
76114ION    CL-48539  21.264  30.398  12.311
76115ION    CL-48540  14.422  32.605  14.757
76116ION    CL-48541  32.907  25.006  11.210
76117ION    CL-48542   9.404  16.500   0.918
76118ION    CL-48543  20.770  16.111  10.742
76119ION    CL-48544   5.582  44.755   4.725
76120ION    CL-48545   1.594   6.471   1.156
76121ION    CL-48546  23.190   6.230   4.081
76122ION    CL-48547  19.274  38.840   2.889
76123ION    CL-48548  16.766  14.961   1.166
76124ION    CL-48549  41.031  18.588  14.843
76125ION    CL-48550   3.134  17.559   0.980
76126ION    CL-48551  11.807  33.996   3.394
76127ION    CL-48552  20.143   5.450  12.918
76128ION    CL-48553  24.071  44.760  13.373
76129ION    CL-48554   8.372   7.227  12.866
76130ION    CL-48555   3.616  32.924   0.276
76131ION    CL-48556   5.393  27.533  13.040
76132ION    CL-48557   0.921   7.151  11.643
76133ION    CL-48558  29.558  42.764   0.481
76134ION    CL-48559  21.193  34.755  12.334
76135ION    CL-48560  39.263  14.298   0.072
76136ION    CL-48561   8.811  36.018  14.209
76137ION    CL-48562   2.018  38.848   0.748
76138ION    CL-48563  42.255  42.094   3.848
76139ION    CL-48564   8.843  30.919  10.761
76140ION    CL-48565  26.782   8.191  12.996
76141ION    CL-48566  14.627  13.295  13.470
76142ION    CL-48567  35.299   1.983   1.381
76143ION    CL-48568  27.566  32.982   2.010
76144ION    CL-48569  28.626  14.952  13.192
76145ION    CL-48570  15.181  33.840  14.836
76146ION    CL-48571  33.004  40.043   0.238
76147ION    CL-48572  18.533  34.930   0.921
76148ION    CL-48573  10.552  34.282  12.328
76149ION    CL-48574  13.321  39.055   2.871
76150ION    CL-48575   9.914   6.927  12.025
76151ION    CL-48576  37.906  35.242  14.284
76152ION    CL-48577  21.169   8.396   3.391
76153ION    CL-48578  11.963  30.223   9.744
76154ION    CL-48579  42.810   9.134  14.206
76155ION    CL-48580  33.475  24.978   4.857
76156ION    CL-48581   2.298  44.597  12.361
76157ION    CL-48582  39.513  41.487  13.945
76158ION    CL-48583   2.247  12.405  11.597
76159ION    CL-48584  12.336  32.393  11.987
76160ION    CL-48585  31.320  23.734  13.318
76161ION    CL-48586  16.797  23.693  13.543
76162ION    CL-48587   1.862  36.981   5.038
76163ION    CL-48588  40.909  41.403  13.774
76164ION    CL-48589  40.001  14.271  12.884
76165ION    CL-48590   4.731  23.585   0.459
76166ION    CL-48591  14.445  42.427  14.086
76167ION    CL-48592  44.285   6.209  13.556
76168ION    CL-48593  39.786  22.009   1.068
76169ION    CL-48594   0.885   7.080   4.166
76170ION    CL-48595  40.767  38.831   1.715
76171ION    CL-48596  16.677  18.155  11.287
76172ION    CL-48597   9.231  13.205  13.312
76173ION    CL-48598  37.031  29.652   2.167
76174ION    CL-48599   4.522  12.086  12.893
76175ION    CL-48600  17.255  39.132   4.278
76176ION    CL-48601  34.471  43.507   0.755
76177ION    CL-48602  19.805  16.869  10.425
76178ION    CL-48603  24.314   7.139   1.670
76179ION    CL-48604   0.928  23.525   0.685
76180ION    CL-48605  22.302  44.017  12.784
76181ION    CL-48606  20.911  11.564  11.315
76182ION    CL-48607  39.767  43.763   0.176
76183ION    CL-48608  42.438  34.854   2.706
76184ION    CL-48609   3.233  18.831  12.877
76185ION    CL-48610  44.066  37.862  10.550
76186ION    CL-48611  23.036  15.548  11.643
76187ION    CL-48612  39.903  18.265  12.553
76188ION    CL-48613  42.352  30.692   3.344
76189ION    CL-48614   7.305  14.073  14.903
76190ION    CL-48615  34.947  44.101  11.253
76191ION    CL-48616  17.636  18.128   2.062
76192ION    CL-48617  37.550  40.498  10.654
76193ION    CL-48618  36.006  32.394   4.482
76194ION    CL-48619  16.711  20.558  10.642
76195ION    CL-48620  27.122   8.927   4.858
76196ION    CL-48621  10.898   6.806  12.164
76197ION    CL-48622  19.844  31.069  13.959
76198ION    CL-48623  37.866  18.523   2.628
76199ION    CL-48624  33.629  15.854   2.139
76200ION    CL-48625  13.129  21.576   4.337
76201ION    CL-48626  13.296  21.314   5.392
76202ION    CL-48627  40.594  21.680  12.511
76203ION    CL-48628   0.328  37.659   0.842
76204ION    CL-48629  40.073  44.264   9.898
76205ION    CL-48630  29.662   4.789  12.598
76206ION    CL-48631  27.209  40.549   1.418
76207ION    CL-48632   0.631  33.615  11.410
76208ION    CL-48633   0.278   9.404   2.840
76209ION    CL-48634  10.000  32.059   3.810
76210ION    CL-48635  39.501  15.690   2.902
76211ION    CL-48636  40.698  38.014   1.485
76212ION    CL-48637  19.230  22.704   3.686
76213ION    CL-48638  19.085  21.488   2.284
76214ION    CL-48639  18.996  30.668  13.527
76215ION    CL-48640  14.840  15.430   2.214
76216ION    CL-48641   8.395  26.627  12.127
76217ION    CL-48642  34.409  12.815  13.445
76218ION    CL-48643  18.140   2.820  14.010
76219ION    CL-48644  11.205   5.208   0.289
76220ION    CL-48645  30.144  39.663   0.850
76221ION    CL-48646  37.727  36.621  13.854
76222ION    CL-48647  20.726  24.978   0.667
76223ION    CL-48648  15.174   4.745   0.292
76224ION    CL-48649  26.622  26.622   9.867
76225ION    CL-48650  17.689   9.299  11.594
76226ION    CL-48651  18.832  25.541   1.064
76227ION    CL-48652  11.558  31.765   2.544
76228ION    CL-48653  10.212   7.192   3.732
76229ION    CL-48654  18.139  14.585   0.211
76230ION    CL-48655  24.641  35.644   5.088
76231ION    CL-48656   1.898  28.672  14.299
76232ION    CL-48657   5.405  11.963  11.171
76233ION    CL-48658  26.113  23.837   0.782
76234ION    CL-48659   1.679  10.194  11.542
76235ION    CL-48660   1.828  16.159   2.574
76236ION    CL-48661   4.840  13.134   4.893
76237ION    CL-48662  21.713  17.655   1.523
76238ION    CL-48663  13.641  31.648   3.650
76239ION    CL-48664  13.331   1.583  12.089
76240ION    CL-48665  20.168  11.625  10.810
76241ION    CL-48666  33.752  39.892  12.927
76242ION    CL-48667  24.132  14.869   3.923
76243ION    CL-48668  11.621  33.288   9.864
76244ION    CL-48669  35.937  33.412  12.113
76245ION    CL-48670  31.243  36.870  11.819
76246ION    CL-48671   6.868  11.195  11.525
76247ION    CL-48672  31.307  12.218   2.164
76248ION    CL-48673  34.120   7.728  11.169
76249ION    CL-48674  41.405  40.632   0.706
76250ION    CL-48675  32.549  13.355  12.979
76251ION    CL-48676  32.362  21.121  11.961
76252ION    CL-48677  34.880  14.870   0.308
76253ION    CL-48678  14.183  14.244  10.790
76254ION    CL-48679   4.472   2.220  10.725
76255ION    CL-48680   6.346   1.248   3.257
76256ION    CL-48681  12.126  38.451   0.838
76257ION    CL-48682  19.692  31.349   3.222
76258ION    CL-48683  30.547  25.993   2.713
76259ION    CL-48684  36.871  44.673  12.484
76260ION    CL-48685   0.389   4.236   0.428
76261ION    CL-48686  26.562  14.039   4.842
76262ION    CL-48687  21.136  35.573  13.022
76263ION    CL-48688   4.859  32.066  14.380
76264ION    CL-48689  21.219   5.791  13.901
76265ION    CL-48690  34.568  12.161  11.280
76266ION    CL-48691  36.011   1.564  14.432
76267ION    CL-48692  13.072   5.427  14.242
76268ION    CL-48693  32.902  21.255  14.491
76269ION    CL-48694  33.103  31.301   1.646
76270ION    CL-48695  38.332  32.985   5.126
76271ION    CL-48696  34.462  22.192  14.522
76272ION    CL-48697  42.228   6.913  11.478
76273ION    CL-48698  15.665  26.061  12.900
76274ION    CL-48699  24.461  43.828  11.090
76275ION    CL-48700   6.721  36.069   2.811
76276ION    CL-48701  27.467   9.036   2.122
76277ION    CL-48702  23.460  29.165   0.338
76278ION    CL-48703  24.403  44.212  12.593
76279ION    CL-48704  33.919   6.749  11.133
76280ION    CL-48705   4.057  21.466   0.821
76281ION    CL-48706   0.501  15.814  11.754
76282ION    CL-48707   1.742  41.425  13.591
76283ION    CL-48708  22.493  10.900   5.039
76284ION    CL-48709  28.925   1.753  11.562
76285ION    CL-48710  34.523   4.955  11.886
76286ION    CL-48711  38.605  39.925   2.253
76287ION    CL-48712   2.540  34.084   0.410
76288ION    CL-48713  31.074   8.780   0.988
76289ION    CL-48714   8.217   2.989   0.421
76290ION    CL-48715  39.051   5.921  14.402
76291ION    CL-48716  33.013  35.044  12.736
76292ION    CL-48717  19.009  39.033  11.487
76293ION    CL-48718  41.303   2.295  13.996
76294ION    CL-48719  22.952  11.616  13.022
76295ION    CL-48720   5.291  30.614   3.170
76296ION    CL-48721  18.055  40.559   0.815
76297ION    CL-48722  43.926  19.233   1.650
76298ION    CL-48723   5.333  41.865  13.020
76299ION    CL-48724   8.282  42.025  11.972
76300ION    CL-48725  18.884  24.566   0.428
76301ION    CL-48726  23.577   3.385   0.338
76302ION    CL-48727  31.907  12.924  13.933
76303ION    CL-48728  25.741  26.211   0.476
76304ION    CL-48729  21.472   7.667   9.983
76305ION    CL-48730  10.024  42.018  10.343
76306ION    CL-48731  32.103   8.961  14.993
76307ION    CL-48732  31.489  13.826   1.908
76308ION    CL-48733  42.792  38.476   0.452
76309ION    CL-48734  38.043  22.741   4.037
76310ION    CL-48735  29.476  34.262   1.337
76311ION    CL-48736  12.088  27.192  11.029
76312ION    CL-48737  33.241  20.992   3.890
76313ION    CL-48738  11.734  41.383  11.569
76314ION    CL-48739   7.597  21.196   2.365
76315ION    CL-48740  17.687  43.618   1.218
76316ION    CL-48741  36.446  19.445   4.169
76317ION    CL-48742   0.199  36.793   0.358
76318ION    CL-48743  17.161  43.608   2.528
76319ION    CL-48744   4.967   4.364  13.691
76320ION    CL-48745  13.131  12.669  11.167
76321ION    CL-48746  14.123  18.746   3.232
76322ION    CL-48747  19.534  24.686  12.133
76323ION    CL-48748  32.810  19.565  11.475
76324ION    CL-48749  24.960  16.671  11.636
76325ION    CL-48750   1.408   3.638   2.698
76326ION    CL-48751   0.078  28.210   1.769
76327ION    CL-48752  28.385  40.790   3.405
76328ION    CL-48753  43.648  27.864   3.005
76329ION    CL-48754  41.280  25.336  14.373
76330ION    CL-48755  30.395  23.835  10.801
76331ION    CL-48756  19.597  38.127  12.987
76332ION    CL-48757  23.838   4.233  10.015
76333ION    CL-48758  23.257  21.873   2.778
76334ION    CL-48759  36.695  35.346   4.898
76335ION    CL-48760  43.036  17.001   1.290
76336ION    CL-48761  11.199  27.257  13.571
76337ION    CL-48762  35.854  23.535  13.582
76338ION    CL-48763  23.841  42.586   3.875
76339ION    CL-48764  36.143   1.533  13.102
76340ION    CL-48765  24.254  41.783   2.278
76341ION    CL-48766  31.093  39.118  13.710
76342ION    CL-48767  16.355  25.228   1.799
76343ION    CL-48768  19.261  17.289  12.310
76344ION    CL-48769  15.015  12.208  11.468
76345ION    CL-48770  35.378  39.400   0.245
76346ION    CL-48771  27.123  37.445   3.237
76347ION    CL-48772  32.146  12.122  13.318
76348ION    CL-48773   9.419  29.357   3.646
76349ION    CL-48774  43.821  23.903  14.947
76350ION    CL-48775   7.179   6.774  11.087
76351ION    CL-48776  44.187   1.573   3.747
  45.00000  45.00000  15.00000
